                         Program Version 4.2.1 -  RELEASE  -
|  1> ! wB97X-D3 SP def2-SVP
|  2> %pal
|  3> nprocs 24
|  4> end
|  5>
|  6> * xyz 0 1
|  7> S 	 40.2972 	 -9.38954 	 -106.981
|  8> C 	 40.9125 	 -7.78266 	 -107.127
|  9> C 	 40.0095 	 -6.97706 	 -107.855
| 10> C 	 38.8417 	 -7.70335 	 -108.312
| 11> C 	 38.7898 	 -8.95363 	 -107.749
| 12> H 	 38.1802 	 -7.33661 	 -109.034
| 13> C 	 40.3028 	 -5.52321 	 -108.194
| 14> H 	 41.1906 	 -5.13624 	 -107.674
| 15> H 	 39.447 	 -4.96915 	 -107.817
| 16> C 	 40.589 	 -5.3448 	 -109.647
| 17> H 	 41.5455 	 -5.869 	 -109.877
| 18> H 	 39.8 	 -5.85942 	 -110.08
| 19> C 	 40.7739 	 -3.93157 	 -110.16
| 20> H 	 41.485 	 -3.30731 	 -109.71
| 21> H 	 41.2314 	 -4.09467 	 -111.183
| 22> H 	 39.8417 	 -3.48127 	 -110.367
| 23> S 	 38.3527 	 -11.6325 	 -108.456
| 24> C 	 36.7722 	 -12.2036 	 -108.681
| 25> C 	 35.9167 	 -11.1435 	 -108.589
| 26> C 	 36.4867 	 -9.87438 	 -108.165
| 27> C 	 37.8406 	 -9.96955 	 -108.06
| 28> H 	 34.9391 	 -11.3665 	 -108.729
| 29> C 	 35.6403 	 -8.68174 	 -107.895
| 30> H 	 34.5705 	 -8.74205 	 -108.222
| 31> H 	 36.0289 	 -7.86005 	 -108.393
| 32> C 	 35.4473 	 -8.40523 	 -106.401
| 33> H 	 35.0461 	 -7.44447 	 -106.347
| 34> H 	 36.4381 	 -8.43133 	 -105.905
| 35> C 	 34.5936 	 -9.48845 	 -105.691
| 36> H 	 34.9494 	 -10.507 	 -105.858
| 37> H 	 33.5644 	 -9.50452 	 -106.01
| 38> H 	 34.6469 	 -9.24731 	 -104.637
| 39> H 	 41.7903 	 -7.33941 	 -106.639
| 40> H 	 36.4152 	 -13.1125 	 -109.109
| 41> *
| 42>
| 43>                          ****END OF INPUT****

CARTESIAN COORDINATES (ANGSTROEM)
---------------------------------
  S     40.297200   -9.389540  -106.981000
  C     40.912500   -7.782660  -107.127000
  C     40.009500   -6.977060  -107.855000
  C     38.841700   -7.703350  -108.312000
  C     38.789800   -8.953630  -107.749000
  H     38.180200   -7.336610  -109.034000
  C     40.302800   -5.523210  -108.194000
  H     41.190600   -5.136240  -107.674000
  H     39.447000   -4.969150  -107.817000
  C     40.589000   -5.344800  -109.647000
  H     41.545500   -5.869000  -109.877000
  H     39.800000   -5.859420  -110.080000
  C     40.773900   -3.931570  -110.160000
  H     41.485000   -3.307310  -109.710000
  H     41.231400   -4.094670  -111.183000
  H     39.841700   -3.481270  -110.367000
  S     38.352700  -11.632500  -108.456000
  C     36.772200  -12.203600  -108.681000
  C     35.916700  -11.143500  -108.589000
  C     36.486700   -9.874380  -108.165000
  C     37.840600   -9.969550  -108.060000
  H     34.939100  -11.366500  -108.729000
  C     35.640300   -8.681740  -107.895000
  H     34.570500   -8.742050  -108.222000
  H     36.028900   -7.860050  -108.393000
  C     35.447300   -8.405230  -106.401000
  H     35.046100   -7.444470  -106.347000
  H     36.438100   -8.431330  -105.905000
  C     34.593600   -9.488450  -105.691000
  H     34.949400  -10.507000  -105.858000
  H     33.564400   -9.504520  -106.010000
  H     34.646900   -9.247310  -104.637000
  H     41.790300   -7.339410  -106.639000
  H     36.415200  -13.112500  -109.109000

 Total Charge           Charge          ....    0
 Multiplicity           Mult            ....    1
 Number of Electrons    NEL             ....  134
 Basis Dimension        Dim             ....  322

ORBITAL ENERGIES
----------------

  NO   OCC          E(Eh)            E(eV)
   0   2.0000     -88.967659     -2420.9331
   1   2.0000     -88.962021     -2420.7797
   2   2.0000     -10.328808      -281.0612
   3   2.0000     -10.323322      -280.9119
   4   2.0000     -10.315532      -280.6999
   5   2.0000     -10.308761      -280.5157
   6   2.0000     -10.304174      -280.3908
   7   2.0000     -10.299449      -280.2623
   8   2.0000     -10.295754      -280.1617
   9   2.0000     -10.286874      -279.9201
  10   2.0000     -10.284522      -279.8561
  11   2.0000     -10.281996      -279.7873
  12   2.0000     -10.279599      -279.7221
  13   2.0000     -10.279350      -279.7153
  14   2.0000     -10.274637      -279.5871
  15   2.0000     -10.271817      -279.5103
  16   2.0000      -8.082714      -219.9418
  17   2.0000      -8.077254      -219.7933
  18   2.0000      -6.041286      -164.3918
  19   2.0000      -6.037176      -164.2799
  20   2.0000      -6.035903      -164.2453
  21   2.0000      -6.033390      -164.1769
  22   2.0000      -6.031622      -164.1288
  23   2.0000      -6.027882      -164.0270
  24   2.0000      -1.012528       -27.5523
  25   2.0000      -0.987267       -26.8649
  26   2.0000      -0.920695       -25.0534
  27   2.0000      -0.914145       -24.8752
  28   2.0000      -0.876304       -23.8454
  29   2.0000      -0.853799       -23.2331
  30   2.0000      -0.841816       -22.9070
  31   2.0000      -0.819581       -22.3019
  32   2.0000      -0.787867       -21.4389
  33   2.0000      -0.776379       -21.1263
  34   2.0000      -0.714925       -19.4541
  35   2.0000      -0.697273       -18.9738
  36   2.0000      -0.690310       -18.7843
  37   2.0000      -0.664941       -18.0940
  38   2.0000      -0.641277       -17.4500
  39   2.0000      -0.630675       -17.1615
  40   2.0000      -0.599752       -16.3201
  41   2.0000      -0.576780       -15.6950
  42   2.0000      -0.568245       -15.4627
  43   2.0000      -0.554265       -15.0823
  44   2.0000      -0.548272       -14.9192
  45   2.0000      -0.526087       -14.3156
  46   2.0000      -0.519652       -14.1405
  47   2.0000      -0.515420       -14.0253
  48   2.0000      -0.510848       -13.9009
  49   2.0000      -0.509470       -13.8634
  50   2.0000      -0.488341       -13.2884
  51   2.0000      -0.483352       -13.1527
  52   2.0000      -0.476238       -12.9591
  53   2.0000      -0.472765       -12.8646
  54   2.0000      -0.461982       -12.5712
  55   2.0000      -0.454661       -12.3720
  56   2.0000      -0.435436       -11.8488
  57   2.0000      -0.433658       -11.8004
  58   2.0000      -0.428889       -11.6707
  59   2.0000      -0.423952       -11.5363
  60   2.0000      -0.419367       -11.4115
  61   2.0000      -0.411994       -11.2109
  62   2.0000      -0.407046       -11.0763
  63   2.0000      -0.360007        -9.7963
  64   2.0000      -0.328848        -8.9484
  65   2.0000      -0.326402        -8.8819
  66   2.0000      -0.287871        -7.8334
  67   0.0000       0.025275         0.6878
  68   0.0000       0.076825         2.0905
  69   0.0000       0.109386         2.9765
  70   0.0000       0.121212         3.2983
  71   0.0000       0.134678         3.6648

MULLIKEN ATOMIC CHARGES
-----------------------
   0 S :    0.112344
   1 C :   -0.110525
   2 C :   -0.124732
   3 C :    0.017129
   4 C :   -0.136801
   5 H :    0.014800
   6 C :    0.081587
   7 H :    0.008535
   8 H :    0.029171
   9 C :   -0.082522
  10 H :    0.031725
  11 H :    0.002773
  12 C :    0.000513
  13 H :    0.026610
  14 H :    0.027200
  15 H :    0.024682
  16 S :    0.103483
  17 C :   -0.066700
  18 C :   -0.018365
  19 C :   -0.044056
  20 C :   -0.131388
  21 H :   -0.028050
  22 C :    0.097211
  23 H :    0.019022
  24 H :   -0.002879
  25 C :   -0.060592
  26 H :    0.015951
  27 H :    0.038945
  28 C :   -0.051175
  29 H :    0.041972
  30 H :    0.019380
  31 H :    0.037179
  32 H :    0.057107
  33 H :    0.050467
Sum of atomic charges:    0.0000000

LOEWDIN ATOMIC CHARGES
----------------------
   0 S :    0.418677
   1 C :   -0.213964
   2 C :   -0.053453
   3 C :   -0.054437
   4 C :   -0.186699
   5 H :    0.023102
   6 C :   -0.035074
   7 H :    0.026261
   8 H :    0.028227
   9 C :   -0.040316
  10 H :    0.031841
  11 H :    0.013316
  12 C :   -0.059914
  13 H :    0.018948
  14 H :    0.038182
  15 H :    0.019999
  16 S :    0.404276
  17 C :   -0.199577
  18 C :   -0.061694
  19 C :   -0.053460
  20 C :   -0.188457
  21 H :    0.008868
  22 C :   -0.031915
  23 H :    0.036212
  24 H :    0.015924
  25 C :   -0.027427
  26 H :    0.015105
  27 H :    0.028182
  28 C :   -0.063862
  29 H :    0.028445
  30 H :    0.018302
  31 H :    0.028129
  32 H :    0.035226
  33 H :    0.033026

  Mayer bond orders larger than 0.100000
B(  0-S ,  1-C ) :   1.1344 B(  0-S ,  4-C ) :   1.1508 B(  1-C ,  2-C ) :   1.6102
B(  1-C , 32-H ) :   0.9638 B(  2-C ,  3-C ) :   1.2405 B(  2-C ,  6-C ) :   1.0299
B(  3-C ,  4-C ) :   1.5550 B(  3-C ,  5-H ) :   0.9922 B(  4-C , 20-C ) :   1.0791
B(  6-C ,  7-H ) :   0.9382 B(  6-C ,  8-H ) :   0.9384 B(  6-C ,  9-C ) :   1.0639
B(  9-C , 10-H ) :   0.9546 B(  9-C , 11-H ) :   0.9580 B(  9-C , 12-C ) :   1.0899
B( 12-C , 13-H ) :   0.9731 B( 12-C , 14-H ) :   0.9710 B( 12-C , 15-H ) :   0.9730
B( 16-S , 17-C ) :   1.1473 B( 16-S , 20-C ) :   1.1208 B( 17-C , 18-C ) :   1.6301
B( 17-C , 33-H ) :   0.9653 B( 18-C , 19-C ) :   1.2202 B( 18-C , 21-H ) :   1.0024
B( 19-C , 20-C ) :   1.6074 B( 19-C , 22-C ) :   1.0584 B( 22-C , 23-H ) :   0.9342
B( 22-C , 24-H ) :   0.9210 B( 22-C , 25-C ) :   1.0759 B( 25-C , 26-H ) :   0.9556
B( 25-C , 27-H ) :   0.9587 B( 25-C , 28-C ) :   1.0708 B( 28-C , 29-H ) :   0.9749
B( 28-C , 30-H ) :   0.9743 B( 28-C , 31-H ) :   0.9748

Dispersion correction           -0.014406671
FINAL SINGLE POINT ENERGY     -1339.862696592840

DIPOLE MOMENT
-------------
                                X             Y             Z
Electronic contribution:      8.72432     -22.63303       1.94028
Nuclear contribution   :     -9.04131      23.22548      -2.18960
                        -----------------------------------------
Total Dipole Moment    :     -0.31699       0.59245      -0.24933
                        -----------------------------------------
Magnitude (a.u.)       :      0.71669
Magnitude (Debye)      :      1.82168

Rotational constants in cm-1:     0.020673     0.007979     0.006959
Rotational constants in MHz :   619.751489   239.197205   208.617319

                             ****ORCA TERMINATED NORMALLY****
TOTAL RUN TIME: 0 days 0 hours 0 minutes 21 seconds 801 msec
