                         Program Version 4.2.1 -  RELEASE  -
|  1> ! wB97X-D3 SP def2-SVP
|  2> %pal
|  3> nprocs 24
|  4> end
|  5>
|  6> * xyz 0 1
|  7> S 	 -57.6481 	 12.9393 	 -94.4629
|  8> C 	 -56.2793 	 11.7957 	 -94.7108
|  9> C 	 -55.2784 	 11.8898 	 -93.7313
| 10> C 	 -55.6814 	 12.8054 	 -92.6999
| 11> C 	 -56.8639 	 13.4693 	 -92.9814
| 12> H 	 -55.0227 	 12.9582 	 -91.7754
| 13> C 	 -53.8589 	 11.2574 	 -93.7861
| 14> H 	 -53.1766 	 12.0617 	 -93.4814
| 15> H 	 -53.7067 	 11.1341 	 -94.8239
| 16> C 	 -53.6135 	 9.90957 	 -93.1806
| 17> H 	 -54.2584 	 9.75398 	 -92.3505
| 18> H 	 -53.821 	 9.07447 	 -93.8454
| 19> C 	 -52.1437 	 9.74384 	 -92.6436
| 20> H 	 -51.4981 	 9.83393 	 -93.4686
| 21> H 	 -51.8501 	 10.5001 	 -91.9487
| 22> H 	 -51.9299 	 8.72262 	 -92.2173
| 23> S 	 -57.4806 	 13.8757 	 -90.3414
| 24> C 	 -58.165 	 15.4019 	 -89.9122
| 25> C 	 -58.5316 	 16.1785 	 -90.9828
| 26> C 	 -58.1642 	 15.5662 	 -92.2216
| 27> C 	 -57.4977 	 14.357 	 -92.0248
| 28> H 	 -59.0245 	 17.1641 	 -90.8143
| 29> C 	 -58.2395 	 16.339 	 -93.5284
| 30> H 	 -59.1557 	 16.9905 	 -93.6682
| 31> H 	 -58.5162 	 15.62 	 -94.3241
| 32> C 	 -56.9972 	 17.1668 	 -93.8078
| 33> H 	 -56.0897 	 16.5012 	 -93.7016
| 34> H 	 -56.8353 	 17.8958 	 -93.0379
| 35> C 	 -56.9674 	 17.8957 	 -95.1681
| 36> H 	 -57.7448 	 18.637 	 -95.3914
| 37> H 	 -56.919 	 17.2262 	 -95.9947
| 38> H 	 -56.0097 	 18.4489 	 -95.247
| 39> H 	 -56.1795 	 11.063 	 -95.5287
| 40> H 	 -58.2259 	 15.7509 	 -88.8445
| 41> *
| 42>
| 43>                          ****END OF INPUT****

CARTESIAN COORDINATES (ANGSTROEM)
---------------------------------
  S    -57.648100   12.939300  -94.462900
  C    -56.279300   11.795700  -94.710800
  C    -55.278400   11.889800  -93.731300
  C    -55.681400   12.805400  -92.699900
  C    -56.863900   13.469300  -92.981400
  H    -55.022700   12.958200  -91.775400
  C    -53.858900   11.257400  -93.786100
  H    -53.176600   12.061700  -93.481400
  H    -53.706700   11.134100  -94.823900
  C    -53.613500    9.909570  -93.180600
  H    -54.258400    9.753980  -92.350500
  H    -53.821000    9.074470  -93.845400
  C    -52.143700    9.743840  -92.643600
  H    -51.498100    9.833930  -93.468600
  H    -51.850100   10.500100  -91.948700
  H    -51.929900    8.722620  -92.217300
  S    -57.480600   13.875700  -90.341400
  C    -58.165000   15.401900  -89.912200
  C    -58.531600   16.178500  -90.982800
  C    -58.164200   15.566200  -92.221600
  C    -57.497700   14.357000  -92.024800
  H    -59.024500   17.164100  -90.814300
  C    -58.239500   16.339000  -93.528400
  H    -59.155700   16.990500  -93.668200
  H    -58.516200   15.620000  -94.324100
  C    -56.997200   17.166800  -93.807800
  H    -56.089700   16.501200  -93.701600
  H    -56.835300   17.895800  -93.037900
  C    -56.967400   17.895700  -95.168100
  H    -57.744800   18.637000  -95.391400
  H    -56.919000   17.226200  -95.994700
  H    -56.009700   18.448900  -95.247000
  H    -56.179500   11.063000  -95.528700
  H    -58.225900   15.750900  -88.844500

 Total Charge           Charge          ....    0
 Multiplicity           Mult            ....    1
 Number of Electrons    NEL             ....  134
 Basis Dimension        Dim             ....  322

ORBITAL ENERGIES
----------------

  NO   OCC          E(Eh)            E(eV)
   0   2.0000     -88.973332     -2421.0874
   1   2.0000     -88.966540     -2420.9026
   2   2.0000     -10.329888      -281.0905
   3   2.0000     -10.323420      -280.9145
   4   2.0000     -10.321206      -280.8543
   5   2.0000     -10.315144      -280.6893
   6   2.0000     -10.305684      -280.4319
   7   2.0000     -10.301740      -280.3246
   8   2.0000     -10.299581      -280.2658
   9   2.0000     -10.294159      -280.1183
  10   2.0000     -10.293512      -280.1007
  11   2.0000     -10.292726      -280.0793
  12   2.0000     -10.286033      -279.8972
  13   2.0000     -10.285116      -279.8722
  14   2.0000     -10.278477      -279.6916
  15   2.0000     -10.275306      -279.6053
  16   2.0000      -8.086487      -220.0445
  17   2.0000      -8.081505      -219.9089
  18   2.0000      -6.045074      -164.4948
  19   2.0000      -6.041430      -164.3957
  20   2.0000      -6.039908      -164.3542
  21   2.0000      -6.037041      -164.2762
  22   2.0000      -6.036095      -164.2505
  23   2.0000      -6.032259      -164.1461
  24   2.0000      -1.004975       -27.3468
  25   2.0000      -0.978543       -26.6275
  26   2.0000      -0.912048       -24.8181
  27   2.0000      -0.904539       -24.6138
  28   2.0000      -0.865878       -23.5617
  29   2.0000      -0.851474       -23.1698
  30   2.0000      -0.843189       -22.9443
  31   2.0000      -0.807459       -21.9721
  32   2.0000      -0.784724       -21.3534
  33   2.0000      -0.769413       -20.9368
  34   2.0000      -0.708084       -19.2680
  35   2.0000      -0.703589       -19.1456
  36   2.0000      -0.690000       -18.7759
  37   2.0000      -0.660449       -17.9717
  38   2.0000      -0.624527       -16.9942
  39   2.0000      -0.617671       -16.8077
  40   2.0000      -0.596073       -16.2200
  41   2.0000      -0.564423       -15.3587
  42   2.0000      -0.559227       -15.2173
  43   2.0000      -0.550147       -14.9703
  44   2.0000      -0.527263       -14.3476
  45   2.0000      -0.520504       -14.1636
  46   2.0000      -0.516719       -14.0606
  47   2.0000      -0.507136       -13.7999
  48   2.0000      -0.504296       -13.7226
  49   2.0000      -0.492970       -13.4144
  50   2.0000      -0.486316       -13.2333
  51   2.0000      -0.475306       -12.9337
  52   2.0000      -0.468386       -12.7454
  53   2.0000      -0.463993       -12.6259
  54   2.0000      -0.456692       -12.4272
  55   2.0000      -0.453169       -12.3313
  56   2.0000      -0.445094       -12.1116
  57   2.0000      -0.443461       -12.0672
  58   2.0000      -0.436414       -11.8754
  59   2.0000      -0.426728       -11.6119
  60   2.0000      -0.423215       -11.5163
  61   2.0000      -0.415590       -11.3088
  62   2.0000      -0.401869       -10.9354
  63   2.0000      -0.344812        -9.3828
  64   2.0000      -0.335384        -9.1263
  65   2.0000      -0.333492        -9.0748
  66   2.0000      -0.285124        -7.7586
  67   0.0000       0.025427         0.6919
  68   0.0000       0.077138         2.0990
  69   0.0000       0.098369         2.6767
  70   0.0000       0.106635         2.9017
  71   0.0000       0.132397         3.6027

MULLIKEN ATOMIC CHARGES
-----------------------
   0 S :    0.117879
   1 C :   -0.132035
   2 C :   -0.099047
   3 C :   -0.044135
   4 C :   -0.114721
   5 H :    0.048344
   6 C :    0.074215
   7 H :    0.037296
   8 H :    0.011657
   9 C :   -0.033915
  10 H :    0.024051
  11 H :    0.029211
  12 C :   -0.066885
  13 H :    0.017289
  14 H :    0.032161
  15 H :    0.041318
  16 S :    0.122271
  17 C :   -0.117749
  18 C :   -0.043208
  19 C :   -0.033249
  20 C :   -0.156181
  21 H :    0.035957
  22 C :    0.042402
  23 H :    0.023633
  24 H :    0.012794
  25 C :   -0.053734
  26 H :    0.037906
  27 H :    0.019071
  28 C :   -0.042332
  29 H :    0.034594
  30 H :    0.024647
  31 H :    0.029127
  32 H :    0.050046
  33 H :    0.071322
Sum of atomic charges:   -0.0000000

LOEWDIN ATOMIC CHARGES
----------------------
   0 S :    0.394959
   1 C :   -0.190824
   2 C :   -0.057949
   3 C :   -0.078387
   4 C :   -0.192271
   5 H :    0.043683
   6 C :   -0.030176
   7 H :    0.037052
   8 H :    0.029269
   9 C :   -0.036864
  10 H :    0.018949
  11 H :    0.026521
  12 C :   -0.061095
  13 H :    0.015621
  14 H :    0.020178
  15 H :    0.033050
  16 S :    0.421347
  17 C :   -0.202426
  18 C :   -0.075259
  19 C :   -0.060866
  20 C :   -0.196175
  21 H :    0.041579
  22 C :   -0.047244
  23 H :    0.034956
  24 H :    0.021530
  25 C :   -0.040252
  26 H :    0.034469
  27 H :    0.021035
  28 C :   -0.068992
  29 H :    0.025242
  30 H :    0.020093
  31 H :    0.031732
  32 H :    0.029978
  33 H :    0.037537

  Mayer bond orders larger than 0.100000
B(  0-S ,  1-C ) :   1.1226 B(  0-S ,  4-C ) :   1.1334 B(  1-C ,  2-C ) :   1.6407
B(  1-C , 32-H ) :   0.9588 B(  2-C ,  3-C ) :   1.2375 B(  2-C ,  6-C ) :   1.0102
B(  3-C ,  4-C ) :   1.5620 B(  3-C ,  5-H ) :   0.9782 B(  4-C , 20-C ) :   1.0744
B(  6-C ,  7-H ) :   0.9527 B(  6-C ,  8-H ) :   0.9325 B(  6-C ,  9-C ) :   1.0477
B(  9-C , 10-H ) :   0.9648 B(  9-C , 11-H ) :   0.9550 B(  9-C , 12-C ) :   1.0745
B( 12-C , 13-H ) :   0.9771 B( 12-C , 14-H ) :   0.9802 B( 12-C , 15-H ) :   0.9753
B( 16-S , 17-C ) :   1.1540 B( 16-S , 20-C ) :   1.1459 B( 17-C , 18-C ) :   1.6182
B( 17-C , 33-H ) :   0.9580 B( 18-C , 19-C ) :   1.2395 B( 18-C , 21-H ) :   0.9874
B( 19-C , 20-C ) :   1.5717 B( 19-C , 22-C ) :   1.0568 B( 22-C , 23-H ) :   0.9338
B( 22-C , 24-H ) :   0.9260 B( 22-C , 25-C ) :   1.0556 B( 25-C , 26-H ) :   0.9532
B( 25-C , 27-H ) :   0.9543 B( 25-C , 28-C ) :   1.0803 B( 28-C , 29-H ) :   0.9755
B( 28-C , 30-H ) :   0.9759 B( 28-C , 31-H ) :   0.9722

Dispersion correction           -0.013943414
FINAL SINGLE POINT ENERGY     -1339.877798135968

DIPOLE MOMENT
-------------
                                X             Y             Z
Electronic contribution:    -16.83465      -1.95939       8.64790
Nuclear contribution   :     17.28277       2.06438      -8.73793
                        -----------------------------------------
Total Dipole Moment    :      0.44813       0.10499      -0.09004
                        -----------------------------------------
Magnitude (a.u.)       :      0.46898
Magnitude (Debye)      :      1.19206

Rotational constants in cm-1:     0.019390     0.007766     0.006498
Rotational constants in MHz :   581.305695   232.805297   194.805453

                             ****ORCA TERMINATED NORMALLY****
TOTAL RUN TIME: 0 days 0 hours 0 minutes 20 seconds 935 msec
