                         Program Version 4.2.1 -  RELEASE  -
|  1> ! wB97X-D3 SP def2-SVP
|  2> %pal
|  3> nprocs 24
|  4> end
|  5>
|  6> * xyz 0 1
|  7> S 	 -109.079 	 16.754 	 -121.038
|  8> C 	 -109.269 	 15.0762 	 -120.573
|  9> C 	 -109.579 	 14.1685 	 -121.628
| 10> C 	 -109.504 	 14.8499 	 -122.841
| 11> C 	 -109.076 	 16.1605 	 -122.737
| 12> H 	 -109.616 	 14.4625 	 -123.81
| 13> C 	 -109.874 	 12.6876 	 -121.428
| 14> H 	 -110.092 	 12.2445 	 -122.427
| 15> H 	 -110.747 	 12.5666 	 -120.806
| 16> C 	 -108.649 	 11.7785 	 -120.98
| 17> H 	 -108.452 	 12.1575 	 -119.957
| 18> H 	 -108.946 	 10.7384 	 -120.865
| 19> C 	 -107.285 	 11.8983 	 -121.626
| 20> H 	 -107.232 	 11.8026 	 -122.765
| 21> H 	 -106.742 	 12.8642 	 -121.407
| 22> H 	 -106.773 	 11.0296 	 -121.245
| 23> S 	 -109.785 	 18.549 	 -123.896
| 24> C 	 -108.967 	 19.0516 	 -125.381
| 25> C 	 -108.105 	 18.0651 	 -125.875
| 26> C 	 -108.071 	 16.955 	 -124.966
| 27> C 	 -108.898 	 17.0449 	 -123.885
| 28> H 	 -107.729 	 18.2058 	 -126.889
| 29> C 	 -107.125 	 15.8233 	 -125.277
| 30> H 	 -107.199 	 15.0726 	 -124.476
| 31> H 	 -106.119 	 16.3002 	 -125.148
| 32> C 	 -107.197 	 15.2207 	 -126.655
| 33> H 	 -107.229 	 15.9089 	 -127.377
| 34> H 	 -108.185 	 14.8495 	 -126.676
| 35> C 	 -106.086 	 14.2545 	 -126.939
| 36> H 	 -105.913 	 13.6563 	 -126.069
| 37> H 	 -105.058 	 14.6306 	 -127.137
| 38> H 	 -106.3 	 13.4848 	 -127.727
| 39> H 	 -109.172 	 14.8088 	 -119.568
| 40> H 	 -109.284 	 19.8393 	 -125.964
| 41> *
| 42>
| 43>                          ****END OF INPUT****

CARTESIAN COORDINATES (ANGSTROEM)
---------------------------------
  S    -109.079000   16.754000  -121.038000
  C    -109.269000   15.076200  -120.573000
  C    -109.579000   14.168500  -121.628000
  C    -109.504000   14.849900  -122.841000
  C    -109.076000   16.160500  -122.737000
  H    -109.616000   14.462500  -123.810000
  C    -109.874000   12.687600  -121.428000
  H    -110.092000   12.244500  -122.427000
  H    -110.747000   12.566600  -120.806000
  C    -108.649000   11.778500  -120.980000
  H    -108.452000   12.157500  -119.957000
  H    -108.946000   10.738400  -120.865000
  C    -107.285000   11.898300  -121.626000
  H    -107.232000   11.802600  -122.765000
  H    -106.742000   12.864200  -121.407000
  H    -106.773000   11.029600  -121.245000
  S    -109.785000   18.549000  -123.896000
  C    -108.967000   19.051600  -125.381000
  C    -108.105000   18.065100  -125.875000
  C    -108.071000   16.955000  -124.966000
  C    -108.898000   17.044900  -123.885000
  H    -107.729000   18.205800  -126.889000
  C    -107.125000   15.823300  -125.277000
  H    -107.199000   15.072600  -124.476000
  H    -106.119000   16.300200  -125.148000
  C    -107.197000   15.220700  -126.655000
  H    -107.229000   15.908900  -127.377000
  H    -108.185000   14.849500  -126.676000
  C    -106.086000   14.254500  -126.939000
  H    -105.913000   13.656300  -126.069000
  H    -105.058000   14.630600  -127.137000
  H    -106.300000   13.484800  -127.727000
  H    -109.172000   14.808800  -119.568000
  H    -109.284000   19.839300  -125.964000

 Total Charge           Charge          ....    0
 Multiplicity           Mult            ....    1
 Number of Electrons    NEL             ....  134
 Basis Dimension        Dim             ....  322

ORBITAL ENERGIES
----------------

  NO   OCC          E(Eh)            E(eV)
   0   2.0000     -88.972849     -2421.0743
   1   2.0000     -88.962698     -2420.7981
   2   2.0000     -10.329753      -281.0869
   3   2.0000     -10.321721      -280.8683
   4   2.0000     -10.314571      -280.6737
   5   2.0000     -10.313657      -280.6489
   6   2.0000     -10.305642      -280.4308
   7   2.0000     -10.299571      -280.2656
   8   2.0000     -10.299409      -280.2612
   9   2.0000     -10.296394      -280.1791
  10   2.0000     -10.293352      -280.0963
  11   2.0000     -10.290734      -280.0251
  12   2.0000     -10.286570      -279.9118
  13   2.0000     -10.286335      -279.9054
  14   2.0000     -10.279112      -279.7088
  15   2.0000     -10.271227      -279.4943
  16   2.0000      -8.086571      -220.0468
  17   2.0000      -8.077476      -219.7993
  18   2.0000      -6.044904      -164.4902
  19   2.0000      -6.041488      -164.3973
  20   2.0000      -6.037317      -164.2838
  21   2.0000      -6.035995      -164.2478
  22   2.0000      -6.032045      -164.1403
  23   2.0000      -6.028164      -164.0347
  24   2.0000      -1.004414       -27.3315
  25   2.0000      -0.980985       -26.6940
  26   2.0000      -0.917103       -24.9556
  27   2.0000      -0.904796       -24.6208
  28   2.0000      -0.866957       -23.5911
  29   2.0000      -0.857266       -23.3274
  30   2.0000      -0.849505       -23.1162
  31   2.0000      -0.815030       -22.1781
  32   2.0000      -0.781843       -21.2750
  33   2.0000      -0.769956       -20.9516
  34   2.0000      -0.714158       -19.4332
  35   2.0000      -0.701542       -19.0899
  36   2.0000      -0.694618       -18.9015
  37   2.0000      -0.663240       -18.0477
  38   2.0000      -0.646674       -17.5969
  39   2.0000      -0.615308       -16.7434
  40   2.0000      -0.595838       -16.2136
  41   2.0000      -0.571797       -15.5594
  42   2.0000      -0.567440       -15.4408
  43   2.0000      -0.551609       -15.0100
  44   2.0000      -0.546420       -14.8688
  45   2.0000      -0.527875       -14.3642
  46   2.0000      -0.513386       -13.9699
  47   2.0000      -0.509245       -13.8573
  48   2.0000      -0.504279       -13.7221
  49   2.0000      -0.496620       -13.5137
  50   2.0000      -0.488853       -13.3024
  51   2.0000      -0.475133       -12.9290
  52   2.0000      -0.469143       -12.7660
  53   2.0000      -0.468204       -12.7405
  54   2.0000      -0.456335       -12.4175
  55   2.0000      -0.451721       -12.2920
  56   2.0000      -0.443829       -12.0772
  57   2.0000      -0.442613       -12.0441
  58   2.0000      -0.436523       -11.8784
  59   2.0000      -0.433546       -11.7974
  60   2.0000      -0.421156       -11.4602
  61   2.0000      -0.415527       -11.3071
  62   2.0000      -0.397664       -10.8210
  63   2.0000      -0.347707        -9.4616
  64   2.0000      -0.334972        -9.1150
  65   2.0000      -0.328084        -8.9276
  66   2.0000      -0.286053        -7.7839
  67   0.0000       0.028433         0.7737
  68   0.0000       0.058216         1.5841
  69   0.0000       0.099696         2.7129
  70   0.0000       0.125245         3.4081
  71   0.0000       0.128111         3.4861

MULLIKEN ATOMIC CHARGES
-----------------------
   0 S :    0.123007
   1 C :   -0.111865
   2 C :   -0.064222
   3 C :    0.043310
   4 C :   -0.164976
   5 H :   -0.003327
   6 C :    0.077994
   7 H :    0.021990
   8 H :    0.044170
   9 C :   -0.097291
  10 H :    0.024460
  11 H :    0.037418
  12 C :   -0.075090
  13 H :    0.032526
  14 H :    0.058756
  15 H :    0.037670
  16 S :    0.090539
  17 C :   -0.067167
  18 C :   -0.053502
  19 C :   -0.040423
  20 C :   -0.153326
  21 H :    0.036899
  22 C :    0.032164
  23 H :    0.021873
  24 H :    0.033299
  25 C :    0.026706
  26 H :   -0.012010
  27 H :    0.007979
  28 C :   -0.049805
  29 H :    0.010839
  30 H :    0.036000
  31 H :    0.037048
  32 H :    0.027355
  33 H :    0.031002
Sum of atomic charges:    0.0000000

LOEWDIN ATOMIC CHARGES
----------------------
   0 S :    0.393854
   1 C :   -0.181732
   2 C :   -0.060132
   3 C :   -0.048979
   4 C :   -0.178503
   5 H :    0.025716
   6 C :   -0.031572
   7 H :    0.031033
   8 H :    0.033156
   9 C :   -0.045450
  10 H :    0.025670
  11 H :    0.024922
  12 C :   -0.076171
  13 H :    0.025404
  14 H :    0.035717
  15 H :    0.030174
  16 S :    0.390901
  17 C :   -0.162621
  18 C :   -0.068449
  19 C :   -0.060824
  20 C :   -0.202656
  21 H :    0.037660
  22 C :   -0.031527
  23 H :    0.025847
  24 H :    0.035650
  25 C :   -0.034417
  26 H :    0.006047
  27 H :    0.025088
  28 C :   -0.068627
  29 H :    0.020763
  30 H :    0.031217
  31 H :    0.033038
  32 H :    0.009108
  33 H :    0.010693

  Mayer bond orders larger than 0.100000
B(  0-S ,  1-C ) :   1.1579 B(  0-S ,  4-C ) :   1.1365 B(  1-C ,  2-C ) :   1.5608
B(  1-C ,  4-C ) :   0.1106 B(  1-C , 32-H ) :   0.9778 B(  2-C ,  3-C ) :   1.2599
B(  2-C ,  6-C ) :   1.0164 B(  3-C ,  4-C ) :   1.5633 B(  3-C ,  5-H ) :   0.9996
B(  4-C , 20-C ) :   1.0427 B(  6-C ,  7-H ) :   0.9438 B(  6-C ,  8-H ) :   0.9436
B(  6-C ,  9-C ) :   1.0554 B(  9-C , 10-H ) :   0.9536 B(  9-C , 11-H ) :   0.9645
B(  9-C , 12-C ) :   1.0734 B( 12-C , 13-H ) :   0.9749 B( 12-C , 14-H ) :   0.9711
B( 12-C , 15-H ) :   0.9703 B( 16-S , 17-C ) :   1.1530 B( 16-S , 20-C ) :   1.1202
B( 17-C , 18-C ) :   1.6326 B( 17-C , 33-H ) :   0.9711 B( 18-C , 19-C ) :   1.2067
B( 18-C , 21-H ) :   0.9876 B( 19-C , 20-C ) :   1.6360 B( 19-C , 22-C ) :   1.0453
B( 22-C , 23-H ) :   0.9313 B( 22-C , 24-H ) :   0.9316 B( 22-C , 25-C ) :   1.0607
B( 25-C , 26-H ) :   0.9462 B( 25-C , 27-H ) :   0.9458 B( 25-C , 28-C ) :   1.0803
B( 28-C , 29-H ) :   0.9716 B( 28-C , 30-H ) :   0.9732 B( 28-C , 31-H ) :   0.9730

Dispersion correction           -0.014409116
FINAL SINGLE POINT ENERGY     -1339.854221506776

DIPOLE MOMENT
-------------
                                X             Y             Z
Electronic contribution:    -13.48777      26.78804       9.15683
Nuclear contribution   :     13.63838     -27.41372      -9.43098
                        -----------------------------------------
Total Dipole Moment    :      0.15061      -0.62568      -0.27415
                        -----------------------------------------
Magnitude (a.u.)       :      0.69951
Magnitude (Debye)      :      1.77802

Rotational constants in cm-1:     0.016705     0.009853     0.006652
Rotational constants in MHz :   500.807074   295.380589   199.434549

                             ****ORCA TERMINATED NORMALLY****
TOTAL RUN TIME: 0 days 0 hours 0 minutes 21 seconds 944 msec
