                         Program Version 4.2.1 -  RELEASE  -
|  1> ! wB97X-D3 SP def2-SVP
|  2> %pal
|  3> nprocs 24
|  4> end
|  5>
|  6> * xyz 0 1
|  7> S 	 -76.3993 	 6.93895 	 -106.809
|  8> C 	 -78.0086 	 7.20359 	 -106.217
|  9> C 	 -78.5603 	 8.30558 	 -106.872
| 10> C 	 -77.645 	 8.93606 	 -107.765
| 11> C 	 -76.3896 	 8.41543 	 -107.773
| 12> H 	 -77.917 	 9.83923 	 -108.412
| 13> C 	 -79.9462 	 8.80495 	 -106.761
| 14> H 	 -79.9329 	 9.85945 	 -107.058
| 15> H 	 -80.2547 	 8.75118 	 -105.687
| 16> C 	 -81.111 	 8.26847 	 -107.623
| 17> H 	 -81.9089 	 9.06183 	 -107.594
| 18> H 	 -80.7456 	 8.25333 	 -108.653
| 19> C 	 -81.5208 	 6.8423 	 -107.182
| 20> H 	 -81.9464 	 6.84031 	 -106.201
| 21> H 	 -82.2456 	 6.4544 	 -107.924
| 22> H 	 -80.7282 	 6.08231 	 -107.111
| 23> S 	 -74.5687 	 7.73547 	 -109.737
| 24> C 	 -73.7163 	 9.01865 	 -110.523
| 25> C 	 -73.9405 	 10.2519 	 -109.959
| 26> C 	 -74.8911 	 10.1841 	 -108.872
| 27> C 	 -75.2514 	 8.86219 	 -108.569
| 28> H 	 -73.3739 	 11.0505 	 -110.315
| 29> C 	 -75.2044 	 11.4583 	 -108.06
| 30> H 	 -74.436 	 11.6644 	 -107.302
| 31> H 	 -76.1601 	 11.262 	 -107.493
| 32> C 	 -75.4959 	 12.6156 	 -109.014
| 33> H 	 -76.3766 	 12.3137 	 -109.673
| 34> H 	 -74.7171 	 12.5892 	 -109.646
| 35> C 	 -75.7222 	 13.9488 	 -108.297
| 36> H 	 -75.9139 	 13.7656 	 -107.266
| 37> H 	 -76.5144 	 14.462 	 -108.739
| 38> H 	 -74.9072 	 14.6719 	 -108.303
| 39> H 	 -78.5652 	 6.45144 	 -105.602
| 40> H 	 -72.9156 	 8.80879 	 -111.22
| 41> *
| 42>
| 43>                          ****END OF INPUT****

CARTESIAN COORDINATES (ANGSTROEM)
---------------------------------
  S    -76.399300    6.938950  -106.809000
  C    -78.008600    7.203590  -106.217000
  C    -78.560300    8.305580  -106.872000
  C    -77.645000    8.936060  -107.765000
  C    -76.389600    8.415430  -107.773000
  H    -77.917000    9.839230  -108.412000
  C    -79.946200    8.804950  -106.761000
  H    -79.932900    9.859450  -107.058000
  H    -80.254700    8.751180  -105.687000
  C    -81.111000    8.268470  -107.623000
  H    -81.908900    9.061830  -107.594000
  H    -80.745600    8.253330  -108.653000
  C    -81.520800    6.842300  -107.182000
  H    -81.946400    6.840310  -106.201000
  H    -82.245600    6.454400  -107.924000
  H    -80.728200    6.082310  -107.111000
  S    -74.568700    7.735470  -109.737000
  C    -73.716300    9.018650  -110.523000
  C    -73.940500   10.251900  -109.959000
  C    -74.891100   10.184100  -108.872000
  C    -75.251400    8.862190  -108.569000
  H    -73.373900   11.050500  -110.315000
  C    -75.204400   11.458300  -108.060000
  H    -74.436000   11.664400  -107.302000
  H    -76.160100   11.262000  -107.493000
  C    -75.495900   12.615600  -109.014000
  H    -76.376600   12.313700  -109.673000
  H    -74.717100   12.589200  -109.646000
  C    -75.722200   13.948800  -108.297000
  H    -75.913900   13.765600  -107.266000
  H    -76.514400   14.462000  -108.739000
  H    -74.907200   14.671900  -108.303000
  H    -78.565200    6.451440  -105.602000
  H    -72.915600    8.808790  -111.220000

 Total Charge           Charge          ....    0
 Multiplicity           Mult            ....    1
 Number of Electrons    NEL             ....  134
 Basis Dimension        Dim             ....  322

ORBITAL ENERGIES
----------------

  NO   OCC          E(Eh)            E(eV)
   0   2.0000     -88.966028     -2420.8887
   1   2.0000     -88.963417     -2420.8176
   2   2.0000     -10.329128      -281.0699
   3   2.0000     -10.327653      -281.0297
   4   2.0000     -10.318827      -280.7896
   5   2.0000     -10.316743      -280.7328
   6   2.0000     -10.309605      -280.5386
   7   2.0000     -10.299214      -280.2558
   8   2.0000     -10.295375      -280.1514
   9   2.0000     -10.294852      -280.1372
  10   2.0000     -10.293667      -280.1049
  11   2.0000     -10.292786      -280.0809
  12   2.0000     -10.288417      -279.9620
  13   2.0000     -10.281021      -279.7608
  14   2.0000     -10.279036      -279.7068
  15   2.0000     -10.270918      -279.4859
  16   2.0000      -8.081217      -219.9011
  17   2.0000      -8.078353      -219.8232
  18   2.0000      -6.039663      -164.3476
  19   2.0000      -6.036892      -164.2722
  20   2.0000      -6.035647      -164.2383
  21   2.0000      -6.032757      -164.1597
  22   2.0000      -6.032026      -164.1398
  23   2.0000      -6.029145      -164.0614
  24   2.0000      -1.007400       -27.4127
  25   2.0000      -0.985859       -26.8266
  26   2.0000      -0.912580       -24.8326
  27   2.0000      -0.909617       -24.7519
  28   2.0000      -0.870360       -23.6837
  29   2.0000      -0.851375       -23.1671
  30   2.0000      -0.844680       -22.9849
  31   2.0000      -0.814090       -22.1525
  32   2.0000      -0.783320       -21.3152
  33   2.0000      -0.773910       -21.0592
  34   2.0000      -0.711225       -19.3534
  35   2.0000      -0.701233       -19.0815
  36   2.0000      -0.695068       -18.9138
  37   2.0000      -0.657448       -17.8901
  38   2.0000      -0.635220       -17.2852
  39   2.0000      -0.620861       -16.8945
  40   2.0000      -0.600316       -16.3354
  41   2.0000      -0.569735       -15.5033
  42   2.0000      -0.563162       -15.3244
  43   2.0000      -0.540657       -14.7120
  44   2.0000      -0.535938       -14.5836
  45   2.0000      -0.527700       -14.3594
  46   2.0000      -0.524420       -14.2702
  47   2.0000      -0.517439       -14.0802
  48   2.0000      -0.504224       -13.7206
  49   2.0000      -0.497677       -13.5425
  50   2.0000      -0.489096       -13.3090
  51   2.0000      -0.484813       -13.1924
  52   2.0000      -0.466803       -12.7024
  53   2.0000      -0.463958       -12.6249
  54   2.0000      -0.461489       -12.5578
  55   2.0000      -0.455287       -12.3890
  56   2.0000      -0.445159       -12.1134
  57   2.0000      -0.437991       -11.9183
  58   2.0000      -0.430062       -11.7026
  59   2.0000      -0.419904       -11.4262
  60   2.0000      -0.417703       -11.3663
  61   2.0000      -0.415716       -11.3122
  62   2.0000      -0.413319       -11.2470
  63   2.0000      -0.350808        -9.5460
  64   2.0000      -0.333011        -9.0617
  65   2.0000      -0.325104        -8.8465
  66   2.0000      -0.293378        -7.9832
  67   0.0000       0.027368         0.7447
  68   0.0000       0.069940         1.9032
  69   0.0000       0.114037         3.1031
  70   0.0000       0.117701         3.2028
  71   0.0000       0.123708         3.3663

MULLIKEN ATOMIC CHARGES
-----------------------
   0 S :    0.097361
   1 C :   -0.126704
   2 C :   -0.087902
   3 C :    0.004978
   4 C :   -0.155280
   5 H :    0.041151
   6 C :    0.016599
   7 H :    0.015169
   8 H :    0.032332
   9 C :   -0.051942
  10 H :    0.042726
  11 H :    0.024974
  12 C :   -0.057975
  13 H :    0.022717
  14 H :    0.040078
  15 H :    0.033446
  16 S :    0.104030
  17 C :   -0.091644
  18 C :   -0.023756
  19 C :   -0.065121
  20 C :   -0.113022
  21 H :    0.010731
  22 C :    0.042540
  23 H :    0.054291
  24 H :    0.029019
  25 C :   -0.084623
  26 H :    0.036366
  27 H :   -0.008281
  28 C :    0.017168
  29 H :    0.021333
  30 H :    0.019201
  31 H :    0.028332
  32 H :    0.071555
  33 H :    0.060152
Sum of atomic charges:    0.0000000

LOEWDIN ATOMIC CHARGES
----------------------
   0 S :    0.402221
   1 C :   -0.207528
   2 C :   -0.072467
   3 C :   -0.069274
   4 C :   -0.194022
   5 H :    0.043946
   6 C :   -0.044327
   7 H :    0.030146
   8 H :    0.033594
   9 C :   -0.037223
  10 H :    0.032267
  11 H :    0.023782
  12 C :   -0.071765
  13 H :    0.019778
  14 H :    0.030457
  15 H :    0.027351
  16 S :    0.411266
  17 C :   -0.182527
  18 C :   -0.068292
  19 C :   -0.048486
  20 C :   -0.199375
  21 H :    0.024117
  22 C :   -0.031979
  23 H :    0.034697
  24 H :    0.031045
  25 C :   -0.036891
  26 H :    0.034617
  27 H :    0.000680
  28 C :   -0.058167
  29 H :    0.023914
  30 H :    0.021527
  31 H :    0.028946
  32 H :    0.039608
  33 H :    0.028364

  Mayer bond orders larger than 0.100000
B(  0-S ,  1-C ) :   1.1426 B(  0-S ,  4-C ) :   1.1473 B(  1-C ,  2-C ) :   1.5790
B(  1-C , 32-H ) :   0.9645 B(  2-C ,  3-C ) :   1.2660 B(  2-C ,  6-C ) :   1.0409
B(  3-C ,  4-C ) :   1.5770 B(  3-C ,  5-H ) :   0.9732 B(  4-C , 20-C ) :   1.0223
B(  6-C ,  7-H ) :   0.9349 B(  6-C ,  8-H ) :   0.9413 B(  6-C ,  9-C ) :   1.0707
B(  9-C , 10-H ) :   0.9565 B(  9-C , 11-H ) :   0.9520 B(  9-C , 12-C ) :   1.0700
B( 12-C , 13-H ) :   0.9764 B( 12-C , 14-H ) :   0.9748 B( 12-C , 15-H ) :   0.9750
B( 16-S , 17-C ) :   1.1688 B( 16-S , 20-C ) :   1.1432 B( 17-C , 18-C ) :   1.6186
B( 17-C , 33-H ) :   0.9614 B( 18-C , 19-C ) :   1.2183 B( 18-C , 21-H ) :   0.9973
B( 19-C , 20-C ) :   1.5998 B( 19-C , 22-C ) :   1.0337 B( 22-C , 23-H ) :   0.9456
B( 22-C , 24-H ) :   0.9328 B( 22-C , 25-C ) :   1.0510 B( 25-C , 26-H ) :   0.9579
B( 25-C , 27-H ) :   0.9637 B( 25-C , 28-C ) :   1.0625 B( 28-C , 29-H ) :   0.9757
B( 28-C , 30-H ) :   0.9729 B( 28-C , 31-H ) :   0.9733

Dispersion correction           -0.013929438
FINAL SINGLE POINT ENERGY     -1339.871833581339

DIPOLE MOMENT
-------------
                                X             Y             Z
Electronic contribution:     18.64006     -18.51088      -2.36793
Nuclear contribution   :    -18.90460      19.08430       2.21929
                        -----------------------------------------
Total Dipole Moment    :     -0.26454       0.57342      -0.14864
                        -----------------------------------------
Magnitude (a.u.)       :      0.64876
Magnitude (Debye)      :      1.64901

Rotational constants in cm-1:     0.018024     0.008323     0.006444
Rotational constants in MHz :   540.336514   249.522122   193.189040

                             ****ORCA TERMINATED NORMALLY****
TOTAL RUN TIME: 0 days 0 hours 0 minutes 21 seconds 268 msec
