                         Program Version 4.2.1 -  RELEASE  -
|  1> ! wB97X-D3 SP def2-SVP
|  2> %pal
|  3> nprocs 24
|  4> end
|  5>
|  6> * xyz 0 1
|  7> S 	 -70.8657 	 0.155113 	 15.0249
|  8> C 	 -71.7133 	 1.1281 	 13.7966
|  9> C 	 -73.067 	 0.921987 	 13.8239
| 10> C 	 -73.4669 	 0.0665633 	 14.8387
| 11> C 	 -72.4191 	 -0.413456 	 15.6156
| 12> H 	 -74.4882 	 -0.253379 	 15.1021
| 13> C 	 -74.0318 	 1.44838 	 12.6614
| 14> H 	 -74.7573 	 0.617816 	 12.4286
| 15> H 	 -73.53 	 1.60301 	 11.6736
| 16> C 	 -74.7474 	 2.74932 	 13.0273
| 17> H 	 -74.074 	 3.62437 	 12.9265
| 18> H 	 -75.4947 	 2.84696 	 12.2549
| 19> C 	 -75.4557 	 2.80279 	 14.3195
| 20> H 	 -76.177 	 3.56322 	 14.4906
| 21> H 	 -76.0191 	 1.89533 	 14.5154
| 22> H 	 -74.7367 	 2.93491 	 15.1076
| 23> S 	 -71.6972 	 -2.94794 	 16.4373
| 24> C 	 -72.2914 	 -3.57314 	 17.8449
| 25> C 	 -72.9437 	 -2.59078 	 18.5941
| 26> C 	 -73.0337 	 -1.32149 	 18.022
| 27> C 	 -72.4088 	 -1.32768 	 16.7413
| 28> H 	 -73.3762 	 -2.8546 	 19.5278
| 29> C 	 -73.8802 	 -0.159826 	 18.4716
| 30> H 	 -74.519 	 -0.540901 	 19.27
| 31> H 	 -74.4908 	 0.0782831 	 17.6962
| 32> C 	 -73.2239 	 1.04928 	 19.1458
| 33> H 	 -72.4409 	 1.20973 	 18.4468
| 34> H 	 -72.6601 	 0.835615 	 20.0808
| 35> C 	 -74.2461 	 2.18789 	 19.1602
| 36> H 	 -73.7629 	 3.17217 	 19.3348
| 37> H 	 -74.9828 	 2.1256 	 19.9105
| 38> H 	 -74.7233 	 2.1745 	 18.2322
| 39> H 	 -71.3502 	 1.70148 	 12.9783
| 40> H 	 -72.1077 	 -4.61054 	 18.1439
| 41> *
| 42>
| 43>                          ****END OF INPUT****

CARTESIAN COORDINATES (ANGSTROEM)
---------------------------------
  S    -70.865700    0.155113   15.024900
  C    -71.713300    1.128100   13.796600
  C    -73.067000    0.921987   13.823900
  C    -73.466900    0.066563   14.838700
  C    -72.419100   -0.413456   15.615600
  H    -74.488200   -0.253379   15.102100
  C    -74.031800    1.448380   12.661400
  H    -74.757300    0.617816   12.428600
  H    -73.530000    1.603010   11.673600
  C    -74.747400    2.749320   13.027300
  H    -74.074000    3.624370   12.926500
  H    -75.494700    2.846960   12.254900
  C    -75.455700    2.802790   14.319500
  H    -76.177000    3.563220   14.490600
  H    -76.019100    1.895330   14.515400
  H    -74.736700    2.934910   15.107600
  S    -71.697200   -2.947940   16.437300
  C    -72.291400   -3.573140   17.844900
  C    -72.943700   -2.590780   18.594100
  C    -73.033700   -1.321490   18.022000
  C    -72.408800   -1.327680   16.741300
  H    -73.376200   -2.854600   19.527800
  C    -73.880200   -0.159826   18.471600
  H    -74.519000   -0.540901   19.270000
  H    -74.490800    0.078283   17.696200
  C    -73.223900    1.049280   19.145800
  H    -72.440900    1.209730   18.446800
  H    -72.660100    0.835615   20.080800
  C    -74.246100    2.187890   19.160200
  H    -73.762900    3.172170   19.334800
  H    -74.982800    2.125600   19.910500
  H    -74.723300    2.174500   18.232200
  H    -71.350200    1.701480   12.978300
  H    -72.107700   -4.610540   18.143900

 Total Charge           Charge          ....    0
 Multiplicity           Mult            ....    1
 Number of Electrons    NEL             ....  134
 Basis Dimension        Dim             ....  322

ORBITAL ENERGIES
----------------

  NO   OCC          E(Eh)            E(eV)
   0   2.0000     -88.968082     -2420.9446
   1   2.0000     -88.964408     -2420.8446
   2   2.0000     -10.329369      -281.0764
   3   2.0000     -10.326036      -280.9857
   4   2.0000     -10.314373      -280.6684
   5   2.0000     -10.310039      -280.5504
   6   2.0000     -10.305971      -280.4397
   7   2.0000     -10.304518      -280.4002
   8   2.0000     -10.299244      -280.2567
   9   2.0000     -10.295091      -280.1437
  10   2.0000     -10.288281      -279.9584
  11   2.0000     -10.283578      -279.8304
  12   2.0000     -10.281254      -279.7672
  13   2.0000     -10.281021      -279.7608
  14   2.0000     -10.271000      -279.4881
  15   2.0000     -10.268107      -279.4094
  16   2.0000      -8.081989      -219.9221
  17   2.0000      -8.080544      -219.8828
  18   2.0000      -6.040492      -164.3701
  19   2.0000      -6.038658      -164.3202
  20   2.0000      -6.036609      -164.2645
  21   2.0000      -6.034594      -164.2096
  22   2.0000      -6.032800      -164.1608
  23   2.0000      -6.031890      -164.1361
  24   2.0000      -1.008036       -27.4300
  25   2.0000      -0.986817       -26.8527
  26   2.0000      -0.916957       -24.9517
  27   2.0000      -0.912257       -24.8238
  28   2.0000      -0.869556       -23.6618
  29   2.0000      -0.858239       -23.3539
  30   2.0000      -0.843544       -22.9540
  31   2.0000      -0.810537       -22.0558
  32   2.0000      -0.789571       -21.4853
  33   2.0000      -0.775291       -21.0967
  34   2.0000      -0.711289       -19.3551
  35   2.0000      -0.698455       -19.0059
  36   2.0000      -0.695416       -18.9232
  37   2.0000      -0.659240       -17.9388
  38   2.0000      -0.638118       -17.3641
  39   2.0000      -0.616654       -16.7800
  40   2.0000      -0.601426       -16.3656
  41   2.0000      -0.573746       -15.6124
  42   2.0000      -0.567036       -15.4298
  43   2.0000      -0.549692       -14.9579
  44   2.0000      -0.541515       -14.7354
  45   2.0000      -0.528911       -14.3924
  46   2.0000      -0.515665       -14.0319
  47   2.0000      -0.510967       -13.9041
  48   2.0000      -0.503593       -13.7035
  49   2.0000      -0.499327       -13.5874
  50   2.0000      -0.494058       -13.4440
  51   2.0000      -0.480503       -13.0751
  52   2.0000      -0.473499       -12.8846
  53   2.0000      -0.464036       -12.6271
  54   2.0000      -0.460615       -12.5340
  55   2.0000      -0.451124       -12.2757
  56   2.0000      -0.447731       -12.1834
  57   2.0000      -0.444291       -12.0898
  58   2.0000      -0.441545       -12.0150
  59   2.0000      -0.427649       -11.6369
  60   2.0000      -0.420937       -11.4543
  61   2.0000      -0.404506       -11.0072
  62   2.0000      -0.400466       -10.8972
  63   2.0000      -0.338923        -9.2226
  64   2.0000      -0.334895        -9.1130
  65   2.0000      -0.332203        -9.0397
  66   2.0000      -0.291917        -7.9435
  67   0.0000       0.032858         0.8941
  68   0.0000       0.058279         1.5858
  69   0.0000       0.111104         3.0233
  70   0.0000       0.122060         3.3214
  71   0.0000       0.127732         3.4758

MULLIKEN ATOMIC CHARGES
-----------------------
   0 S :    0.115738
   1 C :   -0.087456
   2 C :   -0.084395
   3 C :    0.041793
   4 C :   -0.181021
   5 H :    0.021521
   6 C :    0.017869
   7 H :    0.040456
   8 H :    0.036773
   9 C :   -0.052795
  10 H :    0.032185
  11 H :    0.019523
  12 C :   -0.033132
  13 H :    0.024015
  14 H :    0.014450
  15 H :    0.035608
  16 S :    0.124595
  17 C :   -0.091891
  18 C :   -0.052895
  19 C :    0.011012
  20 C :   -0.201519
  21 H :   -0.001636
  22 C :    0.089543
  23 H :    0.007004
  24 H :   -0.005560
  25 C :   -0.052878
  26 H :    0.015950
  27 H :    0.033923
  28 C :    0.000322
  29 H :    0.035040
  30 H :    0.019449
  31 H :    0.014682
  32 H :    0.025862
  33 H :    0.067865
Sum of atomic charges:   -0.0000000

LOEWDIN ATOMIC CHARGES
----------------------
   0 S :    0.397779
   1 C :   -0.187428
   2 C :   -0.068074
   3 C :   -0.066016
   4 C :   -0.195413
   5 H :    0.035333
   6 C :   -0.026745
   7 H :    0.034937
   8 H :    0.035212
   9 C :   -0.046526
  10 H :    0.027359
  11 H :    0.022183
  12 C :   -0.067082
  13 H :    0.024167
  14 H :    0.022745
  15 H :    0.025446
  16 S :    0.443327
  17 C :   -0.217027
  18 C :   -0.078161
  19 C :   -0.044903
  20 C :   -0.205514
  21 H :    0.023126
  22 C :   -0.023231
  23 H :    0.030216
  24 H :    0.016034
  25 C :   -0.036034
  26 H :    0.019215
  27 H :    0.028941
  28 C :   -0.052750
  29 H :    0.032251
  30 H :    0.018595
  31 H :    0.019543
  32 H :    0.023357
  33 H :    0.035136

  Mayer bond orders larger than 0.100000
B(  0-S ,  1-C ) :   1.1290 B(  0-S ,  4-C ) :   1.1526 B(  1-C ,  2-C ) :   1.6425
B(  1-C ,  4-C ) :   0.1090 B(  1-C , 32-H ) :   0.9625 B(  2-C ,  3-C ) :   1.2460
B(  2-C ,  6-C ) :   0.9896 B(  3-C ,  4-C ) :   1.5816 B(  3-C ,  5-H ) :   0.9887
B(  4-C , 20-C ) :   1.0208 B(  6-C ,  7-H ) :   0.9488 B(  6-C ,  8-H ) :   0.9503
B(  6-C ,  9-C ) :   1.0765 B(  9-C , 10-H ) :   0.9540 B(  9-C , 11-H ) :   0.9509
B(  9-C , 12-C ) :   1.0957 B( 12-C , 13-H ) :   0.9694 B( 12-C , 14-H ) :   0.9695
B( 12-C , 15-H ) :   0.9664 B( 16-S , 17-C ) :   1.2103 B( 16-S , 20-C ) :   1.1710
B( 17-C , 18-C ) :   1.5235 B( 17-C , 20-C ) :   0.1136 B( 17-C , 33-H ) :   0.9670
B( 18-C , 19-C ) :   1.3104 B( 18-C , 21-H ) :   0.9985 B( 19-C , 20-C ) :   1.5097
B( 19-C , 22-C ) :   1.0345 B( 22-C , 23-H ) :   0.9255 B( 22-C , 24-H ) :   0.9341
B( 22-C , 25-C ) :   1.0548 B( 25-C , 26-H ) :   0.9582 B( 25-C , 27-H ) :   0.9537
B( 25-C , 28-C ) :   1.0730 B( 28-C , 29-H ) :   0.9728 B( 28-C , 30-H ) :   0.9763
B( 28-C , 31-H ) :   0.9734

Dispersion correction           -0.014922503
FINAL SINGLE POINT ENERGY     -1339.861480383245

DIPOLE MOMENT
-------------
                                X             Y             Z
Electronic contribution:     20.04951     -21.05946      -3.10364
Nuclear contribution   :    -20.66598      21.21877       3.09585
                        -----------------------------------------
Total Dipole Moment    :     -0.61647       0.15931      -0.00779
                        -----------------------------------------
Magnitude (a.u.)       :      0.63677
Magnitude (Debye)      :      1.61853

Rotational constants in cm-1:     0.017644     0.009727     0.007367
Rotational constants in MHz :   528.968667   291.606833   220.842951

                             ****ORCA TERMINATED NORMALLY****
TOTAL RUN TIME: 0 days 0 hours 0 minutes 22 seconds 373 msec
