                         Program Version 4.2.1 -  RELEASE  -
|  1> ! wB97X-D3 SP def2-SVP
|  2> %pal
|  3> nprocs 24
|  4> end
|  5>
|  6> * xyz 0 1
|  7> S 	 33.2882 	 -35.2153 	 -128.241
|  8> C 	 34.1798 	 -33.8816 	 -127.56
|  9> C 	 33.9357 	 -32.6784 	 -128.255
| 10> C 	 33.0052 	 -32.8668 	 -129.339
| 11> C 	 32.5347 	 -34.1296 	 -129.454
| 12> H 	 32.6352 	 -32.2396 	 -130.09
| 13> C 	 34.7118 	 -31.3853 	 -128.177
| 14> H 	 34.5704 	 -31.0654 	 -127.157
| 15> H 	 34.3178 	 -30.6808 	 -128.901
| 16> C 	 36.1526 	 -31.3298 	 -128.312
| 17> H 	 36.5717 	 -30.3988 	 -128.037
| 18> H 	 36.5018 	 -32.0089 	 -127.63
| 19> C 	 36.6534 	 -31.9377 	 -129.607
| 20> H 	 37.8037 	 -31.8806 	 -129.675
| 21> H 	 36.3387 	 -32.9622 	 -129.619
| 22> H 	 36.133 	 -31.4305 	 -130.403
| 23> S 	 30.0988 	 -35.2847 	 -129.859
| 24> C 	 29.4989 	 -35.4977 	 -131.518
| 25> C 	 30.4557 	 -35.0987 	 -132.43
| 26> C 	 31.7039 	 -34.6989 	 -131.842
| 27> C 	 31.6226 	 -34.6833 	 -130.438
| 28> H 	 30.1346 	 -35.2619 	 -133.498
| 29> C 	 32.8784 	 -34.2877 	 -132.628
| 30> H 	 33.2936 	 -33.3857 	 -132.232
| 31> H 	 32.6395 	 -34.1334 	 -133.698
| 32> C 	 34.0476 	 -35.3657 	 -132.592
| 33> H 	 33.6957 	 -36.3069 	 -132.909
| 34> H 	 34.3147 	 -35.3948 	 -131.524
| 35> C 	 35.2302 	 -35.0445 	 -133.552
| 36> H 	 34.8408 	 -34.9222 	 -134.655
| 37> H 	 36.0891 	 -35.6386 	 -133.471
| 38> H 	 35.3945 	 -34.0525 	 -133.4
| 39> H 	 34.8837 	 -34.0095 	 -126.779
| 40> H 	 28.4902 	 -35.8453 	 -131.639
| 41> *
| 42>
| 43>                          ****END OF INPUT****

CARTESIAN COORDINATES (ANGSTROEM)
---------------------------------
  S     33.288200  -35.215300  -128.241000
  C     34.179800  -33.881600  -127.560000
  C     33.935700  -32.678400  -128.255000
  C     33.005200  -32.866800  -129.339000
  C     32.534700  -34.129600  -129.454000
  H     32.635200  -32.239600  -130.090000
  C     34.711800  -31.385300  -128.177000
  H     34.570400  -31.065400  -127.157000
  H     34.317800  -30.680800  -128.901000
  C     36.152600  -31.329800  -128.312000
  H     36.571700  -30.398800  -128.037000
  H     36.501800  -32.008900  -127.630000
  C     36.653400  -31.937700  -129.607000
  H     37.803700  -31.880600  -129.675000
  H     36.338700  -32.962200  -129.619000
  H     36.133000  -31.430500  -130.403000
  S     30.098800  -35.284700  -129.859000
  C     29.498900  -35.497700  -131.518000
  C     30.455700  -35.098700  -132.430000
  C     31.703900  -34.698900  -131.842000
  C     31.622600  -34.683300  -130.438000
  H     30.134600  -35.261900  -133.498000
  C     32.878400  -34.287700  -132.628000
  H     33.293600  -33.385700  -132.232000
  H     32.639500  -34.133400  -133.698000
  C     34.047600  -35.365700  -132.592000
  H     33.695700  -36.306900  -132.909000
  H     34.314700  -35.394800  -131.524000
  C     35.230200  -35.044500  -133.552000
  H     34.840800  -34.922200  -134.655000
  H     36.089100  -35.638600  -133.471000
  H     35.394500  -34.052500  -133.400000
  H     34.883700  -34.009500  -126.779000
  H     28.490200  -35.845300  -131.639000

 Total Charge           Charge          ....    0
 Multiplicity           Mult            ....    1
 Number of Electrons    NEL             ....  134
 Basis Dimension        Dim             ....  322

ORBITAL ENERGIES
----------------

  NO   OCC          E(Eh)            E(eV)
   0   2.0000     -88.966941     -2420.9135
   1   2.0000     -88.963726     -2420.8260
   2   2.0000     -10.328556      -281.0543
   3   2.0000     -10.326519      -280.9989
   4   2.0000     -10.319952      -280.8202
   5   2.0000     -10.318858      -280.7904
   6   2.0000     -10.309211      -280.5279
   7   2.0000     -10.308412      -280.5062
   8   2.0000     -10.302763      -280.3524
   9   2.0000     -10.291653      -280.0501
  10   2.0000     -10.291431      -280.0441
  11   2.0000     -10.283365      -279.8246
  12   2.0000     -10.282958      -279.8135
  13   2.0000     -10.274609      -279.5863
  14   2.0000     -10.273960      -279.5687
  15   2.0000     -10.266975      -279.3786
  16   2.0000      -8.081149      -219.8992
  17   2.0000      -8.078613      -219.8302
  18   2.0000      -6.039612      -164.3462
  19   2.0000      -6.036997      -164.2751
  20   2.0000      -6.035703      -164.2398
  21   2.0000      -6.033010      -164.1666
  22   2.0000      -6.032009      -164.1393
  23   2.0000      -6.029581      -164.0733
  24   2.0000      -1.006054       -27.3761
  25   2.0000      -0.982401       -26.7325
  26   2.0000      -0.929313       -25.2879
  27   2.0000      -0.906286       -24.6613
  28   2.0000      -0.872020       -23.7289
  29   2.0000      -0.853344       -23.2207
  30   2.0000      -0.847939       -23.0736
  31   2.0000      -0.817458       -22.2442
  32   2.0000      -0.784352       -21.3433
  33   2.0000      -0.771101       -20.9827
  34   2.0000      -0.708080       -19.2678
  35   2.0000      -0.706247       -19.2180
  36   2.0000      -0.692676       -18.8487
  37   2.0000      -0.663299       -18.0493
  38   2.0000      -0.652126       -17.7452
  39   2.0000      -0.612636       -16.6707
  40   2.0000      -0.597800       -16.2670
  41   2.0000      -0.586226       -15.9520
  42   2.0000      -0.564007       -15.3474
  43   2.0000      -0.558959       -15.2100
  44   2.0000      -0.544473       -14.8159
  45   2.0000      -0.534295       -14.5389
  46   2.0000      -0.519648       -14.1403
  47   2.0000      -0.515782       -14.0351
  48   2.0000      -0.505975       -13.7683
  49   2.0000      -0.498619       -13.5681
  50   2.0000      -0.490961       -13.3597
  51   2.0000      -0.480869       -13.0851
  52   2.0000      -0.477246       -12.9865
  53   2.0000      -0.463767       -12.6197
  54   2.0000      -0.454903       -12.3785
  55   2.0000      -0.448212       -12.1965
  56   2.0000      -0.442041       -12.0285
  57   2.0000      -0.438388       -11.9291
  58   2.0000      -0.430777       -11.7220
  59   2.0000      -0.424848       -11.5607
  60   2.0000      -0.419040       -11.4027
  61   2.0000      -0.413129       -11.2418
  62   2.0000      -0.410687       -11.1754
  63   2.0000      -0.347533        -9.4568
  64   2.0000      -0.331486        -9.0202
  65   2.0000      -0.324365        -8.8264
  66   2.0000      -0.297744        -8.1020
  67   0.0000       0.032384         0.8812
  68   0.0000       0.056854         1.5471
  69   0.0000       0.110214         2.9991
  70   0.0000       0.115561         3.1446
  71   0.0000       0.129460         3.5228

MULLIKEN ATOMIC CHARGES
-----------------------
   0 S :    0.107268
   1 C :   -0.109693
   2 C :   -0.089526
   3 C :    0.063660
   4 C :   -0.183496
   5 H :   -0.004759
   6 C :    0.073455
   7 H :    0.026343
   8 H :    0.018398
   9 C :    0.000289
  10 H :    0.019924
  11 H :   -0.015715
  12 C :   -0.062649
  13 H :    0.047929
  14 H :    0.036775
  15 H :    0.014227
  16 S :    0.103607
  17 C :   -0.113538
  18 C :   -0.046493
  19 C :   -0.002837
  20 C :   -0.168120
  21 H :    0.044916
  22 C :    0.068918
  23 H :    0.012686
  24 H :    0.019176
  25 C :   -0.084195
  26 H :    0.020385
  27 H :    0.040541
  28 C :   -0.001569
  29 H :    0.024321
  30 H :    0.044071
  31 H :   -0.006469
  32 H :    0.041901
  33 H :    0.060270
Sum of atomic charges:    0.0000000

LOEWDIN ATOMIC CHARGES
----------------------
   0 S :    0.391083
   1 C :   -0.191758
   2 C :   -0.055750
   3 C :   -0.054898
   4 C :   -0.179905
   5 H :    0.027795
   6 C :   -0.032071
   7 H :    0.038161
   8 H :    0.027054
   9 C :   -0.040547
  10 H :    0.022101
  11 H :    0.011811
  12 C :   -0.061192
  13 H :    0.035506
  14 H :    0.023961
  15 H :    0.015543
  16 S :    0.403166
  17 C :   -0.173536
  18 C :   -0.076297
  19 C :   -0.053062
  20 C :   -0.210611
  21 H :    0.045440
  22 C :   -0.031151
  23 H :    0.024720
  24 H :    0.030844
  25 C :   -0.026361
  26 H :    0.013751
  27 H :    0.024823
  28 C :   -0.061666
  29 H :    0.037060
  30 H :    0.021576
  31 H :    0.008949
  32 H :    0.019914
  33 H :    0.025546

  Mayer bond orders larger than 0.100000
B(  0-S ,  1-C ) :   1.1447 B(  0-S ,  4-C ) :   1.1307 B(  1-C ,  2-C ) :   1.5992
B(  1-C , 32-H ) :   0.9768 B(  2-C ,  3-C ) :   1.1927 B(  2-C ,  6-C ) :   1.0204
B(  3-C ,  4-C ) :   1.6379 B(  3-C ,  5-H ) :   1.0003 B(  4-C , 20-C ) :   1.0123
B(  6-C ,  7-H ) :   0.9189 B(  6-C ,  8-H ) :   0.9471 B(  6-C ,  9-C ) :   1.1028
B(  9-C , 10-H ) :   0.9475 B(  9-C , 11-H ) :   0.9381 B(  9-C , 12-C ) :   1.0725
B( 12-C , 13-H ) :   0.9738 B( 12-C , 14-H ) :   0.9718 B( 12-C , 15-H ) :   0.9785
B( 16-S , 17-C ) :   1.1556 B( 16-S , 20-C ) :   1.1619 B( 17-C , 18-C ) :   1.6025
B( 17-C , 20-C ) :   0.1036 B( 17-C , 33-H ) :   0.9733 B( 18-C , 19-C ) :   1.2305
B( 18-C , 21-H ) :   0.9835 B( 19-C , 20-C ) :   1.5612 B( 19-C , 22-C ) :   1.0738
B( 22-C , 23-H ) :   0.9207 B( 22-C , 24-H ) :   0.9339 B( 22-C , 25-C ) :   1.0525
B( 25-C , 26-H ) :   0.9614 B( 25-C , 27-H ) :   0.9577 B( 25-C , 28-C ) :   1.0750
B( 28-C , 29-H ) :   0.9689 B( 28-C , 30-H ) :   0.9762 B( 28-C , 31-H ) :   0.9686

Dispersion correction           -0.015255325
FINAL SINGLE POINT ENERGY     -1339.850782141835

DIPOLE MOMENT
-------------
                                X             Y             Z
Electronic contribution:    -23.14160     -11.63145      12.56132
Nuclear contribution   :     23.43906      11.98218     -12.87690
                        -----------------------------------------
Total Dipole Moment    :      0.29746       0.35073      -0.31558
                        -----------------------------------------
Magnitude (a.u.)       :      0.55775
Magnitude (Debye)      :      1.41769

Rotational constants in cm-1:     0.018722     0.009641     0.007402
Rotational constants in MHz :   561.261922   289.040633   221.912472

                             ****ORCA TERMINATED NORMALLY****
TOTAL RUN TIME: 0 days 0 hours 0 minutes 22 seconds 621 msec
