                         Program Version 4.2.1 -  RELEASE  -
|  1> ! wB97X-D3 SP def2-SVP
|  2> %pal
|  3> nprocs 24
|  4> end
|  5>
|  6> * xyz 0 1
|  7> S 	 -62.1336 	 10.1968 	 -76.0988
|  8> C 	 -61.4689 	 11.8053 	 -76.4082
|  9> C 	 -61.8356 	 12.2579 	 -77.6624
| 10> C 	 -62.8335 	 11.3939 	 -78.2292
| 11> C 	 -63.2805 	 10.3858 	 -77.3869
| 12> H 	 -63.3427 	 11.6161 	 -79.1853
| 13> C 	 -61.361 	 13.5139 	 -78.2407
| 14> H 	 -60.9669 	 13.3532 	 -79.199
| 15> H 	 -60.5347 	 13.9032 	 -77.6604
| 16> C 	 -62.4864 	 14.5824 	 -78.462
| 17> H 	 -62.0534 	 15.6172 	 -78.4994
| 18> H 	 -62.9228 	 14.4922 	 -79.4173
| 19> C 	 -63.4187 	 14.622 	 -77.2766
| 20> H 	 -62.9271 	 14.5379 	 -76.33
| 21> H 	 -63.8496 	 15.5753 	 -77.2658
| 22> H 	 -64.1548 	 13.7771 	 -77.479
| 23> S 	 -63.7525 	 7.89607 	 -78.3066
| 24> C 	 -65.2776 	 7.33281 	 -78.6999
| 25> C 	 -66.2238 	 8.31674 	 -78.4516
| 26> C 	 -65.6861 	 9.54267 	 -77.9274
| 27> C 	 -64.3133 	 9.46312 	 -77.7122
| 28> H 	 -67.2611 	 8.18418 	 -78.738
| 29> C 	 -66.5139 	 10.7732 	 -77.7418
| 30> H 	 -67.1628 	 10.8558 	 -78.5761
| 31> H 	 -65.8653 	 11.6266 	 -77.9592
| 32> C 	 -67.3268 	 10.9234 	 -76.3751
| 33> H 	 -67.8967 	 11.8854 	 -76.4444
| 34> H 	 -66.5369 	 11.0851 	 -75.6718
| 35> C 	 -68.265 	 9.6817 	 -76.0227
| 36> H 	 -67.7982 	 8.71533 	 -75.8961
| 37> H 	 -68.8923 	 9.58052 	 -76.9231
| 38> H 	 -68.9301 	 9.97394 	 -75.1479
| 39> H 	 -60.6543 	 12.1882 	 -75.9216
| 40> H 	 -65.5918 	 6.31761 	 -78.9146
| 41> *
| 42>
| 43>                          ****END OF INPUT****

CARTESIAN COORDINATES (ANGSTROEM)
---------------------------------
  S    -62.133600   10.196800  -76.098800
  C    -61.468900   11.805300  -76.408200
  C    -61.835600   12.257900  -77.662400
  C    -62.833500   11.393900  -78.229200
  C    -63.280500   10.385800  -77.386900
  H    -63.342700   11.616100  -79.185300
  C    -61.361000   13.513900  -78.240700
  H    -60.966900   13.353200  -79.199000
  H    -60.534700   13.903200  -77.660400
  C    -62.486400   14.582400  -78.462000
  H    -62.053400   15.617200  -78.499400
  H    -62.922800   14.492200  -79.417300
  C    -63.418700   14.622000  -77.276600
  H    -62.927100   14.537900  -76.330000
  H    -63.849600   15.575300  -77.265800
  H    -64.154800   13.777100  -77.479000
  S    -63.752500    7.896070  -78.306600
  C    -65.277600    7.332810  -78.699900
  C    -66.223800    8.316740  -78.451600
  C    -65.686100    9.542670  -77.927400
  C    -64.313300    9.463120  -77.712200
  H    -67.261100    8.184180  -78.738000
  C    -66.513900   10.773200  -77.741800
  H    -67.162800   10.855800  -78.576100
  H    -65.865300   11.626600  -77.959200
  C    -67.326800   10.923400  -76.375100
  H    -67.896700   11.885400  -76.444400
  H    -66.536900   11.085100  -75.671800
  C    -68.265000    9.681700  -76.022700
  H    -67.798200    8.715330  -75.896100
  H    -68.892300    9.580520  -76.923100
  H    -68.930100    9.973940  -75.147900
  H    -60.654300   12.188200  -75.921600
  H    -65.591800    6.317610  -78.914600

 Total Charge           Charge          ....    0
 Multiplicity           Mult            ....    1
 Number of Electrons    NEL             ....  134
 Basis Dimension        Dim             ....  322

ORBITAL ENERGIES
----------------

  NO   OCC          E(Eh)            E(eV)
   0   2.0000     -88.964456     -2420.8459
   1   2.0000     -88.960897     -2420.7491
   2   2.0000     -10.327615      -281.0287
   3   2.0000     -10.322948      -280.9017
   4   2.0000     -10.312551      -280.6188
   5   2.0000     -10.308081      -280.4971
   6   2.0000     -10.303606      -280.3754
   7   2.0000     -10.299057      -280.2516
   8   2.0000     -10.297089      -280.1980
   9   2.0000     -10.294403      -280.1249
  10   2.0000     -10.290636      -280.0225
  11   2.0000     -10.287275      -279.9310
  12   2.0000     -10.286577      -279.9120
  13   2.0000     -10.284844      -279.8648
  14   2.0000     -10.284591      -279.8580
  15   2.0000     -10.269618      -279.4505
  16   2.0000      -8.079344      -219.8501
  17   2.0000      -8.077031      -219.7872
  18   2.0000      -6.037817      -164.2974
  19   2.0000      -6.035418      -164.2321
  20   2.0000      -6.034003      -164.1936
  21   2.0000      -6.031104      -164.1147
  22   2.0000      -6.029947      -164.0832
  23   2.0000      -6.028050      -164.0316
  24   2.0000      -1.011486       -27.5239
  25   2.0000      -0.988449       -26.8971
  26   2.0000      -0.919407       -25.0183
  27   2.0000      -0.900975       -24.5168
  28   2.0000      -0.873675       -23.7739
  29   2.0000      -0.846551       -23.0358
  30   2.0000      -0.840163       -22.8620
  31   2.0000      -0.813807       -22.1448
  32   2.0000      -0.786589       -21.4042
  33   2.0000      -0.775634       -21.1061
  34   2.0000      -0.714595       -19.4451
  35   2.0000      -0.699401       -19.0317
  36   2.0000      -0.694918       -18.9097
  37   2.0000      -0.660298       -17.9676
  38   2.0000      -0.640728       -17.4351
  39   2.0000      -0.621148       -16.9023
  40   2.0000      -0.591552       -16.0969
  41   2.0000      -0.569384       -15.4937
  42   2.0000      -0.556580       -15.1453
  43   2.0000      -0.550979       -14.9929
  44   2.0000      -0.545786       -14.8516
  45   2.0000      -0.534595       -14.5471
  46   2.0000      -0.517956       -14.0943
  47   2.0000      -0.514130       -13.9902
  48   2.0000      -0.508846       -13.8464
  49   2.0000      -0.497386       -13.5346
  50   2.0000      -0.488973       -13.3056
  51   2.0000      -0.481576       -13.1043
  52   2.0000      -0.471940       -12.8421
  53   2.0000      -0.469610       -12.7787
  54   2.0000      -0.457861       -12.4590
  55   2.0000      -0.447226       -12.1696
  56   2.0000      -0.439533       -11.9603
  57   2.0000      -0.434117       -11.8129
  58   2.0000      -0.428643       -11.6640
  59   2.0000      -0.428223       -11.6525
  60   2.0000      -0.419913       -11.4264
  61   2.0000      -0.413613       -11.2550
  62   2.0000      -0.406833       -11.0705
  63   2.0000      -0.333525        -9.0757
  64   2.0000      -0.328271        -8.9327
  65   2.0000      -0.323186        -8.7943
  66   2.0000      -0.303581        -8.2609
  67   0.0000       0.031938         0.8691
  68   0.0000       0.058542         1.5930
  69   0.0000       0.111495         3.0339
  70   0.0000       0.114865         3.1256
  71   0.0000       0.131204         3.5702

MULLIKEN ATOMIC CHARGES
-----------------------
   0 S :    0.110490
   1 C :   -0.067348
   2 C :   -0.134767
   3 C :    0.041405
   4 C :   -0.170666
   5 H :    0.023038
   6 C :    0.139760
   7 H :    0.014703
   8 H :    0.011795
   9 C :   -0.121280
  10 H :    0.025302
  11 H :    0.021362
  12 C :   -0.007247
  13 H :    0.025497
  14 H :    0.017601
  15 H :    0.052557
  16 S :    0.111244
  17 C :   -0.071023
  18 C :   -0.066473
  19 C :   -0.040058
  20 C :   -0.169325
  21 H :    0.016097
  22 C :    0.070295
  23 H :    0.006642
  24 H :    0.011749
  25 C :   -0.058643
  26 H :    0.041060
  27 H :    0.034033
  28 C :   -0.078270
  29 H :    0.054138
  30 H :    0.026799
  31 H :    0.054453
  32 H :    0.013836
  33 H :    0.061245
Sum of atomic charges:    0.0000000

LOEWDIN ATOMIC CHARGES
----------------------
   0 S :    0.404449
   1 C :   -0.175844
   2 C :   -0.058382
   3 C :   -0.055013
   4 C :   -0.207679
   5 H :    0.033033
   6 C :   -0.029246
   7 H :    0.028044
   8 H :    0.030156
   9 C :   -0.039785
  10 H :    0.027960
  11 H :    0.015098
  12 C :   -0.062514
  13 H :    0.024806
  14 H :    0.017145
  15 H :    0.035757
  16 S :    0.434577
  17 C :   -0.211799
  18 C :   -0.079373
  19 C :   -0.052422
  20 C :   -0.200642
  21 H :    0.027919
  22 C :   -0.038382
  23 H :    0.022389
  24 H :    0.031306
  25 C :   -0.030654
  26 H :    0.030520
  27 H :    0.019568
  28 C :   -0.072678
  29 H :    0.026571
  30 H :    0.024242
  31 H :    0.037418
  32 H :    0.007950
  33 H :    0.035504

  Mayer bond orders larger than 0.100000
B(  0-S ,  1-C ) :   1.1328 B(  0-S ,  4-C ) :   1.1488 B(  1-C ,  2-C ) :   1.6065
B(  1-C , 32-H ) :   0.9724 B(  2-C ,  3-C ) :   1.2321 B(  2-C ,  6-C ) :   1.0599
B(  3-C ,  4-C ) :   1.5624 B(  3-C ,  5-H ) :   0.9896 B(  4-C , 20-C ) :   1.0453
B(  6-C ,  7-H ) :   0.9267 B(  6-C ,  8-H ) :   0.9328 B(  6-C ,  9-C ) :   1.0577
B(  9-C , 10-H ) :   0.9603 B(  9-C , 11-H ) :   0.9580 B(  9-C , 12-C ) :   1.0836
B( 12-C , 13-H ) :   0.9726 B( 12-C , 14-H ) :   0.9727 B( 12-C , 15-H ) :   0.9645
B( 16-S , 17-C ) :   1.1842 B( 16-S , 20-C ) :   1.1547 B( 17-C , 18-C ) :   1.5783
B( 17-C , 20-C ) :   0.1028 B( 17-C , 33-H ) :   0.9641 B( 18-C , 19-C ) :   1.2617
B( 18-C , 21-H ) :   0.9896 B( 19-C , 20-C ) :   1.5799 B( 19-C , 22-C ) :   1.0465
B( 22-C , 23-H ) :   0.9277 B( 22-C , 24-H ) :   0.9305 B( 22-C , 25-C ) :   1.0559
B( 25-C , 26-H ) :   0.9582 B( 25-C , 27-H ) :   0.9609 B( 25-C , 28-C ) :   1.0612
B( 28-C , 29-H ) :   0.9740 B( 28-C , 30-H ) :   0.9766 B( 28-C , 31-H ) :   0.9750

Dispersion correction           -0.015490308
FINAL SINGLE POINT ENERGY     -1339.859011676489

DIPOLE MOMENT
-------------
                                X             Y             Z
Electronic contribution:     14.27533     -20.81075      -0.14275
Nuclear contribution   :    -14.50578      21.35568      -0.20881
                        -----------------------------------------
Total Dipole Moment    :     -0.23045       0.54493      -0.35156
                        -----------------------------------------
Magnitude (a.u.)       :      0.68822
Magnitude (Debye)      :      1.74931

Rotational constants in cm-1:     0.019189     0.009312     0.007497
Rotational constants in MHz :   575.270431   279.179496   224.763703

                             ****ORCA TERMINATED NORMALLY****
TOTAL RUN TIME: 0 days 0 hours 0 minutes 22 seconds 603 msec
