                         Program Version 4.2.1 -  RELEASE  -
|  1> ! wB97X-D3 SP def2-SVP
|  2> %pal
|  3> nprocs 24
|  4> end
|  5>
|  6> * xyz 0 1
|  7> S 	 -38.6202 	 -44.684 	 -75.3904
|  8> C 	 -39.4753 	 -43.1987 	 -75.7672
|  9> C 	 -38.5981 	 -42.2684 	 -76.2767
| 10> C 	 -37.3333 	 -42.7834 	 -76.272
| 11> C 	 -37.102 	 -44.0078 	 -75.6966
| 12> H 	 -36.4518 	 -42.4145 	 -76.6116
| 13> C 	 -38.9862 	 -40.9954 	 -77.0027
| 14> H 	 -38.0448 	 -40.4113 	 -77.0128
| 15> H 	 -39.6707 	 -40.3786 	 -76.3796
| 16> C 	 -39.491 	 -41.046 	 -78.4557
| 17> H 	 -40.3643 	 -41.6822 	 -78.5542
| 18> H 	 -39.8374 	 -40.0517 	 -78.6274
| 19> C 	 -38.51 	 -41.4509 	 -79.4454
| 20> H 	 -38.1494 	 -42.4627 	 -79.4593
| 21> H 	 -38.9625 	 -41.2349 	 -80.4208
| 22> H 	 -37.6167 	 -40.8616 	 -79.3965
| 23> S 	 -35.655 	 -46.1935 	 -76.704
| 24> C 	 -34.0914 	 -46.606 	 -75.8872
| 25> C 	 -33.7448 	 -45.5754 	 -75.0163
| 26> C 	 -34.7316 	 -44.5569 	 -74.866
| 27> C 	 -35.846 	 -44.7557 	 -75.6668
| 28> H 	 -32.7737 	 -45.5961 	 -74.5634
| 29> C 	 -34.5798 	 -43.4429 	 -73.8198
| 30> H 	 -35.5619 	 -43.17 	 -73.4639
| 31> H 	 -34.1589 	 -42.574 	 -74.3491
| 32> C 	 -33.6314 	 -43.6724 	 -72.6182
| 33> H 	 -32.5574 	 -43.8027 	 -72.9302
| 34> H 	 -33.8485 	 -44.6523 	 -72.079
| 35> C 	 -33.7372 	 -42.4912 	 -71.5435
| 36> H 	 -34.7722 	 -42.3219 	 -71.1015
| 37> H 	 -33.2484 	 -41.5656 	 -71.8655
| 38> H 	 -33.1233 	 -42.8524 	 -70.74
| 39> H 	 -40.5267 	 -43.0337 	 -75.7998
| 40> H 	 -33.2669 	 -47.236 	 -76.1554
| 41> *
| 42>
| 43>                          ****END OF INPUT****

CARTESIAN COORDINATES (ANGSTROEM)
---------------------------------
  S    -38.620200  -44.684000  -75.390400
  C    -39.475300  -43.198700  -75.767200
  C    -38.598100  -42.268400  -76.276700
  C    -37.333300  -42.783400  -76.272000
  C    -37.102000  -44.007800  -75.696600
  H    -36.451800  -42.414500  -76.611600
  C    -38.986200  -40.995400  -77.002700
  H    -38.044800  -40.411300  -77.012800
  H    -39.670700  -40.378600  -76.379600
  C    -39.491000  -41.046000  -78.455700
  H    -40.364300  -41.682200  -78.554200
  H    -39.837400  -40.051700  -78.627400
  C    -38.510000  -41.450900  -79.445400
  H    -38.149400  -42.462700  -79.459300
  H    -38.962500  -41.234900  -80.420800
  H    -37.616700  -40.861600  -79.396500
  S    -35.655000  -46.193500  -76.704000
  C    -34.091400  -46.606000  -75.887200
  C    -33.744800  -45.575400  -75.016300
  C    -34.731600  -44.556900  -74.866000
  C    -35.846000  -44.755700  -75.666800
  H    -32.773700  -45.596100  -74.563400
  C    -34.579800  -43.442900  -73.819800
  H    -35.561900  -43.170000  -73.463900
  H    -34.158900  -42.574000  -74.349100
  C    -33.631400  -43.672400  -72.618200
  H    -32.557400  -43.802700  -72.930200
  H    -33.848500  -44.652300  -72.079000
  C    -33.737200  -42.491200  -71.543500
  H    -34.772200  -42.321900  -71.101500
  H    -33.248400  -41.565600  -71.865500
  H    -33.123300  -42.852400  -70.740000
  H    -40.526700  -43.033700  -75.799800
  H    -33.266900  -47.236000  -76.155400

 Total Charge           Charge          ....    0
 Multiplicity           Mult            ....    1
 Number of Electrons    NEL             ....  134
 Basis Dimension        Dim             ....  322

ORBITAL ENERGIES
----------------

  NO   OCC          E(Eh)            E(eV)
   0   2.0000     -88.969164     -2420.9740
   1   2.0000     -88.965242     -2420.8673
   2   2.0000     -10.330302      -281.1018
   3   2.0000     -10.320667      -280.8396
   4   2.0000     -10.319539      -280.8089
   5   2.0000     -10.310394      -280.5601
   6   2.0000     -10.305188      -280.4184
   7   2.0000     -10.302216      -280.3375
   8   2.0000     -10.293962      -280.1129
   9   2.0000     -10.293530      -280.1012
  10   2.0000     -10.293030      -280.0876
  11   2.0000     -10.292945      -280.0853
  12   2.0000     -10.287380      -279.9338
  13   2.0000     -10.280477      -279.7460
  14   2.0000     -10.275987      -279.6238
  15   2.0000     -10.267568      -279.3947
  16   2.0000      -8.081993      -219.9222
  17   2.0000      -8.080725      -219.8877
  18   2.0000      -6.040768      -164.3777
  19   2.0000      -6.039024      -164.3302
  20   2.0000      -6.036788      -164.2693
  21   2.0000      -6.034997      -164.2206
  22   2.0000      -6.032548      -164.1540
  23   2.0000      -6.031771      -164.1328
  24   2.0000      -1.014145       -27.5963
  25   2.0000      -0.981376       -26.7046
  26   2.0000      -0.918891       -25.0043
  27   2.0000      -0.897577       -24.4243
  28   2.0000      -0.875064       -23.8117
  29   2.0000      -0.853040       -23.2124
  30   2.0000      -0.841308       -22.8931
  31   2.0000      -0.818234       -22.2653
  32   2.0000      -0.786431       -21.3999
  33   2.0000      -0.772143       -21.0111
  34   2.0000      -0.706279       -19.2188
  35   2.0000      -0.704668       -19.1750
  36   2.0000      -0.697576       -18.9820
  37   2.0000      -0.651906       -17.7393
  38   2.0000      -0.651677       -17.7330
  39   2.0000      -0.614173       -16.7125
  40   2.0000      -0.589365       -16.0374
  41   2.0000      -0.579755       -15.7759
  42   2.0000      -0.561250       -15.2724
  43   2.0000      -0.552454       -15.0330
  44   2.0000      -0.548914       -14.9367
  45   2.0000      -0.522122       -14.2077
  46   2.0000      -0.513467       -13.9721
  47   2.0000      -0.509243       -13.8572
  48   2.0000      -0.505264       -13.7489
  49   2.0000      -0.504508       -13.7283
  50   2.0000      -0.493237       -13.4217
  51   2.0000      -0.479733       -13.0542
  52   2.0000      -0.472469       -12.8565
  53   2.0000      -0.462620       -12.5885
  54   2.0000      -0.455596       -12.3974
  55   2.0000      -0.444701       -12.1009
  56   2.0000      -0.439237       -11.9522
  57   2.0000      -0.433063       -11.7842
  58   2.0000      -0.430394       -11.7116
  59   2.0000      -0.428815       -11.6687
  60   2.0000      -0.422452       -11.4955
  61   2.0000      -0.415987       -11.3196
  62   2.0000      -0.411951       -11.2097
  63   2.0000      -0.338409        -9.2086
  64   2.0000      -0.334122        -9.0919
  65   2.0000      -0.328444        -8.9374
  66   2.0000      -0.300082        -8.1656
  67   0.0000       0.032762         0.8915
  68   0.0000       0.057224         1.5571
  69   0.0000       0.110637         3.0106
  70   0.0000       0.128581         3.4989
  71   0.0000       0.131540         3.5794

MULLIKEN ATOMIC CHARGES
-----------------------
   0 S :    0.122800
   1 C :   -0.114514
   2 C :   -0.034185
   3 C :    0.056842
   4 C :   -0.194417
   5 H :   -0.048058
   6 C :    0.028182
   7 H :    0.017819
   8 H :    0.031099
   9 C :   -0.009631
  10 H :    0.019380
  11 H :    0.019291
  12 C :   -0.031760
  13 H :    0.040432
  14 H :    0.027476
  15 H :    0.009852
  16 S :    0.105987
  17 C :   -0.065006
  18 C :   -0.066178
  19 C :   -0.010509
  20 C :   -0.177595
  21 H :    0.015368
  22 C :    0.100881
  23 H :    0.034095
  24 H :    0.036725
  25 C :   -0.147930
  26 H :    0.039300
  27 H :    0.043289
  28 C :   -0.058964
  29 H :    0.054109
  30 H :    0.040327
  31 H :    0.027919
  32 H :    0.033769
  33 H :    0.053807
Sum of atomic charges:    0.0000000

LOEWDIN ATOMIC CHARGES
----------------------
   0 S :    0.441628
   1 C :   -0.186252
   2 C :   -0.073897
   3 C :   -0.056761
   4 C :   -0.222352
   5 H :    0.011888
   6 C :   -0.033635
   7 H :    0.031313
   8 H :    0.033421
   9 C :   -0.037094
  10 H :    0.023682
  11 H :    0.025621
  12 C :   -0.063941
  13 H :    0.026913
  14 H :    0.032160
  15 H :    0.019933
  16 S :    0.373137
  17 C :   -0.174016
  18 C :   -0.066980
  19 C :   -0.053037
  20 C :   -0.192134
  21 H :    0.028094
  22 C :   -0.034337
  23 H :    0.030968
  24 H :    0.037642
  25 C :   -0.048565
  26 H :    0.025494
  27 H :    0.028763
  28 C :   -0.069992
  29 H :    0.035783
  30 H :    0.025496
  31 H :    0.024692
  32 H :    0.023838
  33 H :    0.032527

  Mayer bond orders larger than 0.100000
B(  0-S ,  1-C ) :   1.1762 B(  0-S ,  4-C ) :   1.1689 B(  1-C ,  2-C ) :   1.5477
B(  1-C ,  4-C ) :   0.1063 B(  1-C , 32-H ) :   0.9746 B(  2-C ,  3-C ) :   1.2763
B(  2-C ,  6-C ) :   1.0213 B(  3-C ,  4-C ) :   1.5415 B(  3-C ,  5-H ) :   1.0136
B(  4-C , 20-C ) :   1.0285 B(  6-C ,  7-H ) :   0.9391 B(  6-C ,  8-H ) :   0.9373
B(  6-C ,  9-C ) :   1.0771 B(  9-C , 10-H ) :   0.9492 B(  9-C , 11-H ) :   0.9459
B(  9-C , 12-C ) :   1.0978 B( 12-C , 13-H ) :   0.9728 B( 12-C , 14-H ) :   0.9671
B( 12-C , 15-H ) :   0.9689 B( 16-S , 17-C ) :   1.1253 B( 16-S , 20-C ) :   1.1305
B( 17-C , 18-C ) :   1.6424 B( 17-C , 20-C ) :   0.1002 B( 17-C , 33-H ) :   0.9577
B( 18-C , 19-C ) :   1.2443 B( 18-C , 21-H ) :   0.9809 B( 19-C , 20-C ) :   1.6149
B( 19-C , 22-C ) :   1.0318 B( 22-C , 23-H ) :   0.9371 B( 22-C , 24-H ) :   0.9252
B( 22-C , 25-C ) :   1.0691 B( 25-C , 26-H ) :   0.9465 B( 25-C , 27-H ) :   0.9606
B( 25-C , 28-C ) :   1.0745 B( 28-C , 29-H ) :   0.9756 B( 28-C , 30-H ) :   0.9766
B( 28-C , 31-H ) :   0.9744

Dispersion correction           -0.013873725
FINAL SINGLE POINT ENERGY     -1339.859420912105

DIPOLE MOMENT
-------------
                                X             Y             Z
Electronic contribution:     -5.09511     -20.65279      -3.04181
Nuclear contribution   :      5.40058      21.26640       3.02262
                        -----------------------------------------
Total Dipole Moment    :      0.30547       0.61361      -0.01920
                        -----------------------------------------
Magnitude (a.u.)       :      0.68571
Magnitude (Debye)      :      1.74293

Rotational constants in cm-1:     0.018527     0.007902     0.006708
Rotational constants in MHz :   555.416647   236.896439   201.103731

                             ****ORCA TERMINATED NORMALLY****
TOTAL RUN TIME: 0 days 0 hours 0 minutes 21 seconds 66 msec
