                         Program Version 4.2.1 -  RELEASE  -
|  1> ! wB97X-D3 SP def2-SVP
|  2> %pal
|  3> nprocs 24
|  4> end
|  5>
|  6> * xyz 0 1
|  7> S 	 -50.3291 	 18.9419 	 -89.6957
|  8> C 	 -49.6904 	 19.9877 	 -88.4686
|  9> C 	 -49.8797 	 21.3586 	 -88.8002
| 10> C 	 -50.289 	 21.5037 	 -90.1602
| 11> C 	 -50.4724 	 20.2982 	 -90.8123
| 12> H 	 -50.4372 	 22.3618 	 -90.8339
| 13> C 	 -49.6176 	 22.5805 	 -87.9314
| 14> H 	 -49.4929 	 22.2768 	 -86.8916
| 15> H 	 -50.5367 	 23.047 	 -87.9946
| 16> C 	 -48.3024 	 23.5102 	 -88.1816
| 17> H 	 -48.3343 	 24.0018 	 -89.0573
| 18> H 	 -48.1839 	 24.2951 	 -87.3708
| 19> C 	 -47.0171 	 22.7237 	 -88.3089
| 20> H 	 -46.8433 	 22.0152 	 -87.4623
| 21> H 	 -47.0958 	 22.1737 	 -89.2357
| 22> H 	 -46.2224 	 23.4162 	 -88.4616
| 23> S 	 -52.8939 	 19.9667 	 -91.8695
| 24> C 	 -53.0564 	 19.8514 	 -93.5985
| 25> C 	 -51.8332 	 19.8484 	 -94.2656
| 26> C 	 -50.6964 	 20.0258 	 -93.4118
| 27> C 	 -51.1235 	 20.1054 	 -92.079
| 28> H 	 -51.8698 	 19.6299 	 -95.3441
| 29> C 	 -49.2744 	 19.9988 	 -93.7823
| 30> H 	 -48.7099 	 20.4111 	 -92.8999
| 31> H 	 -48.9747 	 20.6694 	 -94.6355
| 32> C 	 -48.7261 	 18.5865 	 -94.1148
| 33> H 	 -48.9922 	 17.7433 	 -93.5169
| 34> H 	 -47.6224 	 18.7086 	 -93.9823
| 35> C 	 -48.758 	 18.2136 	 -95.5424
| 36> H 	 -48.3476 	 17.1936 	 -95.6022
| 37> H 	 -48.1643 	 18.8052 	 -96.2632
| 38> H 	 -49.7162 	 18.1786 	 -95.9522
| 39> H 	 -49.4428 	 19.6154 	 -87.4715
| 40> H 	 -53.9392 	 19.8273 	 -94.1719
| 41> *
| 42>
| 43>                          ****END OF INPUT****

CARTESIAN COORDINATES (ANGSTROEM)
---------------------------------
  S    -50.329100   18.941900  -89.695700
  C    -49.690400   19.987700  -88.468600
  C    -49.879700   21.358600  -88.800200
  C    -50.289000   21.503700  -90.160200
  C    -50.472400   20.298200  -90.812300
  H    -50.437200   22.361800  -90.833900
  C    -49.617600   22.580500  -87.931400
  H    -49.492900   22.276800  -86.891600
  H    -50.536700   23.047000  -87.994600
  C    -48.302400   23.510200  -88.181600
  H    -48.334300   24.001800  -89.057300
  H    -48.183900   24.295100  -87.370800
  C    -47.017100   22.723700  -88.308900
  H    -46.843300   22.015200  -87.462300
  H    -47.095800   22.173700  -89.235700
  H    -46.222400   23.416200  -88.461600
  S    -52.893900   19.966700  -91.869500
  C    -53.056400   19.851400  -93.598500
  C    -51.833200   19.848400  -94.265600
  C    -50.696400   20.025800  -93.411800
  C    -51.123500   20.105400  -92.079000
  H    -51.869800   19.629900  -95.344100
  C    -49.274400   19.998800  -93.782300
  H    -48.709900   20.411100  -92.899900
  H    -48.974700   20.669400  -94.635500
  C    -48.726100   18.586500  -94.114800
  H    -48.992200   17.743300  -93.516900
  H    -47.622400   18.708600  -93.982300
  C    -48.758000   18.213600  -95.542400
  H    -48.347600   17.193600  -95.602200
  H    -48.164300   18.805200  -96.263200
  H    -49.716200   18.178600  -95.952200
  H    -49.442800   19.615400  -87.471500
  H    -53.939200   19.827300  -94.171900

 Total Charge           Charge          ....    0
 Multiplicity           Mult            ....    1
 Number of Electrons    NEL             ....  134
 Basis Dimension        Dim             ....  322

ORBITAL ENERGIES
----------------

  NO   OCC          E(Eh)            E(eV)
   0   2.0000     -88.965705     -2420.8799
   1   2.0000     -88.965433     -2420.8725
   2   2.0000     -10.323790      -280.9246
   3   2.0000     -10.323226      -280.9093
   4   2.0000     -10.318448      -280.7792
   5   2.0000     -10.312322      -280.6126
   6   2.0000     -10.308636      -280.5122
   7   2.0000     -10.306307      -280.4489
   8   2.0000     -10.296383      -280.1788
   9   2.0000     -10.295849      -280.1643
  10   2.0000     -10.294436      -280.1259
  11   2.0000     -10.291640      -280.0498
  12   2.0000     -10.286281      -279.9039
  13   2.0000     -10.282068      -279.7893
  14   2.0000     -10.271782      -279.5094
  15   2.0000     -10.269197      -279.4391
  16   2.0000      -8.080296      -219.8760
  17   2.0000      -8.080019      -219.8685
  18   2.0000      -6.038631      -164.3195
  19   2.0000      -6.038459      -164.3148
  20   2.0000      -6.034797      -164.2152
  21   2.0000      -6.034672      -164.2118
  22   2.0000      -6.031223      -164.1179
  23   2.0000      -6.030777      -164.1058
  24   2.0000      -1.004613       -27.3369
  25   2.0000      -0.978569       -26.6282
  26   2.0000      -0.913661       -24.8620
  27   2.0000      -0.903965       -24.5981
  28   2.0000      -0.868746       -23.6398
  29   2.0000      -0.856767       -23.3138
  30   2.0000      -0.851818       -23.1791
  31   2.0000      -0.812585       -22.1116
  32   2.0000      -0.784202       -21.3392
  33   2.0000      -0.767487       -20.8844
  34   2.0000      -0.705808       -19.2060
  35   2.0000      -0.697329       -18.9753
  36   2.0000      -0.690967       -18.8022
  37   2.0000      -0.657587       -17.8938
  38   2.0000      -0.646034       -17.5795
  39   2.0000      -0.613172       -16.6853
  40   2.0000      -0.598274       -16.2799
  41   2.0000      -0.560768       -15.2593
  42   2.0000      -0.555719       -15.1219
  43   2.0000      -0.548192       -14.9171
  44   2.0000      -0.542920       -14.7736
  45   2.0000      -0.537122       -14.6158
  46   2.0000      -0.522163       -14.2088
  47   2.0000      -0.513871       -13.9831
  48   2.0000      -0.501057       -13.6345
  49   2.0000      -0.490664       -13.3516
  50   2.0000      -0.484603       -13.1867
  51   2.0000      -0.479490       -13.0476
  52   2.0000      -0.472644       -12.8613
  53   2.0000      -0.463452       -12.6112
  54   2.0000      -0.459086       -12.4924
  55   2.0000      -0.444998       -12.1090
  56   2.0000      -0.443289       -12.0625
  57   2.0000      -0.435971       -11.8634
  58   2.0000      -0.433734       -11.8025
  59   2.0000      -0.423180       -11.5153
  60   2.0000      -0.421787       -11.4774
  61   2.0000      -0.418711       -11.3937
  62   2.0000      -0.405120       -11.0239
  63   2.0000      -0.340059        -9.2535
  64   2.0000      -0.327140        -8.9019
  65   2.0000      -0.316245        -8.6055
  66   2.0000      -0.302881        -8.2418
  67   0.0000       0.041681         1.1342
  68   0.0000       0.046294         1.2597
  69   0.0000       0.111900         3.0450
  70   0.0000       0.120460         3.2779
  71   0.0000       0.124256         3.3812

MULLIKEN ATOMIC CHARGES
-----------------------
   0 S :    0.112995
   1 C :   -0.110447
   2 C :   -0.114555
   3 C :    0.043458
   4 C :   -0.197618
   5 H :    0.027763
   6 C :    0.097652
   7 H :    0.015818
   8 H :    0.024051
   9 C :   -0.055951
  10 H :    0.003054
  11 H :    0.039126
  12 C :   -0.050680
  13 H :    0.036468
  14 H :    0.034397
  15 H :    0.026976
  16 S :    0.122608
  17 C :   -0.065113
  18 C :   -0.074347
  19 C :    0.041318
  20 C :   -0.210387
  21 H :    0.029404
  22 C :    0.030590
  23 H :    0.038961
  24 H :    0.035635
  25 C :   -0.058608
  26 H :    0.034191
  27 H :    0.028381
  28 C :   -0.039012
  29 H :    0.028725
  30 H :    0.027275
  31 H :    0.007933
  32 H :    0.054847
  33 H :    0.035093
Sum of atomic charges:    0.0000000

LOEWDIN ATOMIC CHARGES
----------------------
   0 S :    0.409823
   1 C :   -0.203636
   2 C :   -0.062351
   3 C :   -0.060560
   4 C :   -0.209108
   5 H :    0.041270
   6 C :   -0.026707
   7 H :    0.029410
   8 H :    0.024988
   9 C :   -0.029648
  10 H :    0.004832
  11 H :    0.030327
  12 C :   -0.061720
  13 H :    0.026082
  14 H :    0.026473
  15 H :    0.023164
  16 S :    0.401922
  17 C :   -0.182736
  18 C :   -0.078131
  19 C :   -0.050770
  20 C :   -0.194575
  21 H :    0.034636
  22 C :   -0.039182
  23 H :    0.039666
  24 H :    0.038957
  25 C :   -0.040930
  26 H :    0.025992
  27 H :    0.035000
  28 C :   -0.066871
  29 H :    0.032205
  30 H :    0.024809
  31 H :    0.008828
  32 H :    0.028205
  33 H :    0.020338

  Mayer bond orders larger than 0.100000
B(  0-S ,  1-C ) :   1.1597 B(  0-S ,  4-C ) :   1.1522 B(  1-C ,  2-C ) :   1.5783
B(  1-C ,  4-C ) :   0.1042 B(  1-C , 32-H ) :   0.9673 B(  2-C ,  3-C ) :   1.2214
B(  2-C ,  6-C ) :   1.0244 B(  3-C ,  4-C ) :   1.5898 B(  3-C ,  5-H ) :   0.9917
B(  4-C , 20-C ) :   1.0223 B(  6-C ,  7-H ) :   0.9430 B(  6-C ,  8-H ) :   0.9406
B(  6-C ,  9-C ) :   1.0455 B(  9-C , 10-H ) :   0.9590 B(  9-C , 11-H ) :   0.9621
B(  9-C , 12-C ) :   1.0787 B( 12-C , 13-H ) :   0.9786 B( 12-C , 14-H ) :   0.9716
B( 12-C , 15-H ) :   0.9719 B( 16-S , 17-C ) :   1.1478 B( 16-S , 20-C ) :   1.1432
B( 17-C , 18-C ) :   1.6412 B( 17-C , 20-C ) :   0.1036 B( 17-C , 33-H ) :   0.9680
B( 18-C , 19-C ) :   1.2025 B( 18-C , 21-H ) :   0.9837 B( 19-C , 20-C ) :   1.6008
B( 19-C , 22-C ) :   1.0718 B( 22-C , 23-H ) :   0.9250 B( 22-C , 24-H ) :   0.9307
B( 22-C , 25-C ) :   1.0583 B( 25-C , 26-H ) :   0.9595 B( 25-C , 27-H ) :   0.9524
B( 25-C , 28-C ) :   1.0887 B( 28-C , 29-H ) :   0.9674 B( 28-C , 30-H ) :   0.9727
B( 28-C , 31-H ) :   0.9718

Dispersion correction           -0.014361542
FINAL SINGLE POINT ENERGY     -1339.851381876649

DIPOLE MOMENT
-------------
                                X             Y             Z
Electronic contribution:    -20.61557      -7.68074       4.32202
Nuclear contribution   :     20.87986       7.95541      -4.50634
                        -----------------------------------------
Total Dipole Moment    :      0.26429       0.27467      -0.18432
                        -----------------------------------------
Magnitude (a.u.)       :      0.42340
Magnitude (Debye)      :      1.07620

Rotational constants in cm-1:     0.020349     0.007978     0.006882
Rotational constants in MHz :   610.061868   239.163893   206.327397

                             ****ORCA TERMINATED NORMALLY****
TOTAL RUN TIME: 0 days 0 hours 0 minutes 20 seconds 314 msec
