                         Program Version 4.2.1 -  RELEASE  -
|  1> ! wB97X-D3 SP def2-SVP
|  2> %pal
|  3> nprocs 24
|  4> end
|  5>
|  6> * xyz 0 1
|  7> S 	 -120.289 	 34.1622 	 -116.187
|  8> C 	 -119.384 	 33.5533 	 -117.578
|  9> C 	 -118.502 	 34.4797 	 -118.098
| 10> C 	 -118.564 	 35.6663 	 -117.294
| 11> C 	 -119.532 	 35.6908 	 -116.235
| 12> H 	 -117.905 	 36.5418 	 -117.454
| 13> C 	 -117.579 	 34.3774 	 -119.276
| 14> H 	 -117.923 	 35.1646 	 -119.96
| 15> H 	 -117.611 	 33.4384 	 -119.858
| 16> C 	 -116.117 	 34.6114 	 -118.789
| 17> H 	 -116.038 	 35.5575 	 -118.231
| 18> H 	 -115.887 	 33.8374 	 -118.051
| 19> C 	 -115.053 	 34.5411 	 -119.868
| 20> H 	 -114.831 	 33.5046 	 -120.127
| 21> H 	 -115.339 	 35.0001 	 -120.808
| 22> H 	 -114.167 	 34.981 	 -119.495
| 23> S 	 -119.52 	 35.8074 	 -113.529
| 24> C 	 -119.62 	 37.371 	 -112.743
| 25> C 	 -119.936 	 38.3391 	 -113.637
| 26> C 	 -119.914 	 37.884 	 -114.97
| 27> C 	 -119.589 	 36.5808 	 -115.104
| 28> H 	 -119.997 	 39.3215 	 -113.237
| 29> C 	 -120.274 	 38.827 	 -116.114
| 30> H 	 -119.885 	 38.3141 	 -117.054
| 31> H 	 -119.718 	 39.7303 	 -116.098
| 32> C 	 -121.863 	 39.0706 	 -116.324
| 33> H 	 -122.345 	 39.5466 	 -115.458
| 34> H 	 -122.324 	 38.0964 	 -116.376
| 35> C 	 -122.268 	 39.8851 	 -117.632
| 36> H 	 -121.957 	 40.9112 	 -117.416
| 37> H 	 -123.362 	 39.74 	 -117.909
| 38> H 	 -121.648 	 39.5968 	 -118.449
| 39> H 	 -119.611 	 32.6065 	 -118.137
| 40> H 	 -119.321 	 37.6117 	 -111.745
| 41> *
| 42>
| 43>                          ****END OF INPUT****

CARTESIAN COORDINATES (ANGSTROEM)
---------------------------------
  S    -120.289000   34.162200  -116.187000
  C    -119.384000   33.553300  -117.578000
  C    -118.502000   34.479700  -118.098000
  C    -118.564000   35.666300  -117.294000
  C    -119.532000   35.690800  -116.235000
  H    -117.905000   36.541800  -117.454000
  C    -117.579000   34.377400  -119.276000
  H    -117.923000   35.164600  -119.960000
  H    -117.611000   33.438400  -119.858000
  C    -116.117000   34.611400  -118.789000
  H    -116.038000   35.557500  -118.231000
  H    -115.887000   33.837400  -118.051000
  C    -115.053000   34.541100  -119.868000
  H    -114.831000   33.504600  -120.127000
  H    -115.339000   35.000100  -120.808000
  H    -114.167000   34.981000  -119.495000
  S    -119.520000   35.807400  -113.529000
  C    -119.620000   37.371000  -112.743000
  C    -119.936000   38.339100  -113.637000
  C    -119.914000   37.884000  -114.970000
  C    -119.589000   36.580800  -115.104000
  H    -119.997000   39.321500  -113.237000
  C    -120.274000   38.827000  -116.114000
  H    -119.885000   38.314100  -117.054000
  H    -119.718000   39.730300  -116.098000
  C    -121.863000   39.070600  -116.324000
  H    -122.345000   39.546600  -115.458000
  H    -122.324000   38.096400  -116.376000
  C    -122.268000   39.885100  -117.632000
  H    -121.957000   40.911200  -117.416000
  H    -123.362000   39.740000  -117.909000
  H    -121.648000   39.596800  -118.449000
  H    -119.611000   32.606500  -118.137000
  H    -119.321000   37.611700  -111.745000

 Total Charge           Charge          ....    0
 Multiplicity           Mult            ....    1
 Number of Electrons    NEL             ....  134
 Basis Dimension        Dim             ....  322

ORBITAL ENERGIES
----------------

  NO   OCC          E(Eh)            E(eV)
   0   2.0000     -88.967992     -2420.9421
   1   2.0000     -88.961806     -2420.7738
   2   2.0000     -10.330448      -281.1058
   3   2.0000     -10.323987      -280.9300
   4   2.0000     -10.317097      -280.7425
   5   2.0000     -10.311711      -280.5959
   6   2.0000     -10.303046      -280.3601
   7   2.0000     -10.299529      -280.2644
   8   2.0000     -10.299287      -280.2578
   9   2.0000     -10.299263      -280.2572
  10   2.0000     -10.296427      -280.1800
  11   2.0000     -10.291163      -280.0368
  12   2.0000     -10.288394      -279.9614
  13   2.0000     -10.285868      -279.8927
  14   2.0000     -10.282838      -279.8103
  15   2.0000     -10.273654      -279.5603
  16   2.0000      -8.082954      -219.9484
  17   2.0000      -8.076936      -219.7846
  18   2.0000      -6.041490      -164.3973
  19   2.0000      -6.037290      -164.2830
  20   2.0000      -6.035558      -164.2359
  21   2.0000      -6.033792      -164.1878
  22   2.0000      -6.031514      -164.1258
  23   2.0000      -6.027379      -164.0133
  24   2.0000      -1.013012       -27.5655
  25   2.0000      -0.986683       -26.8490
  26   2.0000      -0.916112       -24.9287
  27   2.0000      -0.891695       -24.2643
  28   2.0000      -0.874985       -23.8095
  29   2.0000      -0.848146       -23.0792
  30   2.0000      -0.843810       -22.9612
  31   2.0000      -0.810208       -22.0469
  32   2.0000      -0.784648       -21.3514
  33   2.0000      -0.770256       -20.9597
  34   2.0000      -0.710455       -19.3325
  35   2.0000      -0.698080       -18.9957
  36   2.0000      -0.695078       -18.9140
  37   2.0000      -0.664088       -18.0707
  38   2.0000      -0.636376       -17.3167
  39   2.0000      -0.619765       -16.8647
  40   2.0000      -0.591673       -16.1002
  41   2.0000      -0.570440       -15.5225
  42   2.0000      -0.561131       -15.2691
  43   2.0000      -0.552643       -15.0382
  44   2.0000      -0.531826       -14.4717
  45   2.0000      -0.522339       -14.2136
  46   2.0000      -0.515252       -14.0207
  47   2.0000      -0.512049       -13.9336
  48   2.0000      -0.506270       -13.7763
  49   2.0000      -0.503360       -13.6971
  50   2.0000      -0.492320       -13.3967
  51   2.0000      -0.477730       -12.9997
  52   2.0000      -0.464869       -12.6497
  53   2.0000      -0.461726       -12.5642
  54   2.0000      -0.455902       -12.4057
  55   2.0000      -0.451967       -12.2986
  56   2.0000      -0.443571       -12.0702
  57   2.0000      -0.436719       -11.8837
  58   2.0000      -0.429447       -11.6858
  59   2.0000      -0.424503       -11.5513
  60   2.0000      -0.420067       -11.4306
  61   2.0000      -0.416490       -11.3333
  62   2.0000      -0.414669       -11.2837
  63   2.0000      -0.350401        -9.5349
  64   2.0000      -0.332923        -9.0593
  65   2.0000      -0.328663        -8.9434
  66   2.0000      -0.289894        -7.8884
  67   0.0000       0.032429         0.8824
  68   0.0000       0.062611         1.7037
  69   0.0000       0.112593         3.0638
  70   0.0000       0.121420         3.3040
  71   0.0000       0.139875         3.8062

MULLIKEN ATOMIC CHARGES
-----------------------
   0 S :    0.109059
   1 C :   -0.151289
   2 C :   -0.071414
   3 C :   -0.007436
   4 C :   -0.150982
   5 H :    0.026828
   6 C :    0.082322
   7 H :    0.040532
   8 H :    0.024955
   9 C :   -0.130271
  10 H :    0.034621
  11 H :    0.036932
  12 C :    0.002129
  13 H :    0.024918
  14 H :    0.022652
  15 H :    0.026638
  16 S :    0.093593
  17 C :   -0.086489
  18 C :   -0.017157
  19 C :   -0.033921
  20 C :   -0.135093
  21 H :    0.007860
  22 C :    0.062411
  23 H :    0.022303
  24 H :    0.019781
  25 C :   -0.087029
  26 H :    0.033660
  27 H :    0.030488
  28 C :   -0.059067
  29 H :    0.032369
  30 H :    0.060039
  31 H :    0.023798
  32 H :    0.062559
  33 H :    0.049704
Sum of atomic charges:   -0.0000000

LOEWDIN ATOMIC CHARGES
----------------------
   0 S :    0.422504
   1 C :   -0.207073
   2 C :   -0.064974
   3 C :   -0.065680
   4 C :   -0.213641
   5 H :    0.028695
   6 C :   -0.030547
   7 H :    0.036203
   8 H :    0.031572
   9 C :   -0.041020
  10 H :    0.023760
  11 H :    0.029713
  12 C :   -0.061812
  13 H :    0.025726
  14 H :    0.022802
  15 H :    0.023870
  16 S :    0.392650
  17 C :   -0.173082
  18 C :   -0.066738
  19 C :   -0.062027
  20 C :   -0.190851
  21 H :    0.029543
  22 C :   -0.029749
  23 H :    0.034598
  24 H :    0.020098
  25 C :   -0.036868
  26 H :    0.021788
  27 H :    0.021665
  28 C :   -0.069796
  29 H :    0.025231
  30 H :    0.039045
  31 H :    0.018322
  32 H :    0.038322
  33 H :    0.027753

  Mayer bond orders larger than 0.100000
B(  0-S ,  1-C ) :   1.1406 B(  0-S ,  4-C ) :   1.1662 B(  1-C ,  2-C ) :   1.5991
B(  1-C , 32-H ) :   0.9571 B(  2-C ,  3-C ) :   1.2674 B(  2-C ,  6-C ) :   1.0243
B(  3-C ,  4-C ) :   1.5373 B(  3-C ,  5-H ) :   0.9794 B(  4-C , 20-C ) :   1.0407
B(  6-C ,  7-H ) :   0.9320 B(  6-C ,  8-H ) :   0.9471 B(  6-C ,  9-C ) :   1.0516
B(  9-C , 10-H ) :   0.9601 B(  9-C , 11-H ) :   0.9555 B(  9-C , 12-C ) :   1.0879
B( 12-C , 13-H ) :   0.9729 B( 12-C , 14-H ) :   0.9742 B( 12-C , 15-H ) :   0.9721
B( 16-S , 17-C ) :   1.1401 B( 16-S , 20-C ) :   1.1220 B( 17-C , 18-C ) :   1.6426
B( 17-C , 33-H ) :   0.9666 B( 18-C , 19-C ) :   1.2094 B( 18-C , 21-H ) :   0.9996
B( 19-C , 20-C ) :   1.6367 B( 19-C , 22-C ) :   1.0488 B( 22-C , 23-H ) :   0.9310
B( 22-C , 24-H ) :   0.9412 B( 22-C , 25-C ) :   1.0415 B( 25-C , 26-H ) :   0.9635
B( 25-C , 27-H ) :   0.9600 B( 25-C , 28-C ) :   1.0683 B( 28-C , 29-H ) :   0.9778
B( 28-C , 30-H ) :   0.9759 B( 28-C , 31-H ) :   0.9779

Dispersion correction           -0.013526164
FINAL SINGLE POINT ENERGY     -1339.873166022553

DIPOLE MOMENT
-------------
                                X             Y             Z
Electronic contribution:     -7.22730     -12.01056      21.04003
Nuclear contribution   :      7.57670      12.37404     -21.44096
                        -----------------------------------------
Total Dipole Moment    :      0.34940       0.36348      -0.40094
                        -----------------------------------------
Magnitude (a.u.)       :      0.64417
Magnitude (Debye)      :      1.63735

Rotational constants in cm-1:     0.017437     0.007903     0.006804
Rotational constants in MHz :   522.748405   236.925123   203.984874

                             ****ORCA TERMINATED NORMALLY****
TOTAL RUN TIME: 0 days 0 hours 0 minutes 20 seconds 891 msec
