                         Program Version 4.2.1 -  RELEASE  -
|  1> ! wB97X-D3 SP def2-SVP
|  2> %pal
|  3> nprocs 24
|  4> end
|  5>
|  6> * xyz 0 1
|  7> S 	 -109.992 	 61.484 	 -7.89846
|  8> C 	 -108.933 	 62.1321 	 -6.67595
|  9> C 	 -109.627 	 62.7901 	 -5.69086
| 10> C 	 -111.035 	 62.8051 	 -5.94607
| 11> C 	 -111.426 	 62.1871 	 -7.11243
| 12> H 	 -111.798 	 63.2105 	 -5.35323
| 13> C 	 -109.046 	 63.4032 	 -4.52233
| 14> H 	 -108.088 	 63.7409 	 -4.92549
| 15> H 	 -108.873 	 62.5693 	 -3.79061
| 16> C 	 -109.675 	 64.475 	 -3.77683
| 17> H 	 -109.733 	 65.3114 	 -4.44934
| 18> H 	 -110.681 	 64.2926 	 -3.46858
| 19> C 	 -108.916 	 64.8341 	 -2.48993
| 20> H 	 -108.707 	 64.0435 	 -1.74995
| 21> H 	 -107.921 	 65.1678 	 -2.69582
| 22> H 	 -109.338 	 65.6819 	 -1.94182
| 23> S 	 -112.729 	 61.3674 	 -9.43399
| 24> C 	 -114.382 	 61.6973 	 -9.6804
| 25> C 	 -115.056 	 62.0122 	 -8.44843
| 26> C 	 -114.133 	 61.9819 	 -7.37991
| 27> C 	 -112.783 	 61.9446 	 -7.75169
| 28> H 	 -116.092 	 62.2013 	 -8.43797
| 29> C 	 -114.549 	 62.3159 	 -5.89937
| 30> H 	 -115.576 	 62.6332 	 -5.89493
| 31> H 	 -113.961 	 63.2784 	 -5.81278
| 32> C 	 -114.375 	 61.2124 	 -4.93142
| 33> H 	 -113.342 	 60.8833 	 -5.11491
| 34> H 	 -115.036 	 60.395 	 -5.23485
| 35> C 	 -114.573 	 61.6226 	 -3.5093
| 36> H 	 -115.598 	 61.9128 	 -3.3368
| 37> H 	 -113.913 	 62.5432 	 -3.34114
| 38> H 	 -114.342 	 60.7749 	 -2.8189
| 39> H 	 -107.89 	 61.9962 	 -6.77977
| 40> H 	 -114.936 	 61.7293 	 -10.6515
| 41> *
| 42>
| 43>                          ****END OF INPUT****

CARTESIAN COORDINATES (ANGSTROEM)
---------------------------------
  S    -109.992000   61.484000   -7.898460
  C    -108.933000   62.132100   -6.675950
  C    -109.627000   62.790100   -5.690860
  C    -111.035000   62.805100   -5.946070
  C    -111.426000   62.187100   -7.112430
  H    -111.798000   63.210500   -5.353230
  C    -109.046000   63.403200   -4.522330
  H    -108.088000   63.740900   -4.925490
  H    -108.873000   62.569300   -3.790610
  C    -109.675000   64.475000   -3.776830
  H    -109.733000   65.311400   -4.449340
  H    -110.681000   64.292600   -3.468580
  C    -108.916000   64.834100   -2.489930
  H    -108.707000   64.043500   -1.749950
  H    -107.921000   65.167800   -2.695820
  H    -109.338000   65.681900   -1.941820
  S    -112.729000   61.367400   -9.433990
  C    -114.382000   61.697300   -9.680400
  C    -115.056000   62.012200   -8.448430
  C    -114.133000   61.981900   -7.379910
  C    -112.783000   61.944600   -7.751690
  H    -116.092000   62.201300   -8.437970
  C    -114.549000   62.315900   -5.899370
  H    -115.576000   62.633200   -5.894930
  H    -113.961000   63.278400   -5.812780
  C    -114.375000   61.212400   -4.931420
  H    -113.342000   60.883300   -5.114910
  H    -115.036000   60.395000   -5.234850
  C    -114.573000   61.622600   -3.509300
  H    -115.598000   61.912800   -3.336800
  H    -113.913000   62.543200   -3.341140
  H    -114.342000   60.774900   -2.818900
  H    -107.890000   61.996200   -6.779770
  H    -114.936000   61.729300  -10.651500

 Total Charge           Charge          ....    0
 Multiplicity           Mult            ....    1
 Number of Electrons    NEL             ....  134
 Basis Dimension        Dim             ....  322

ORBITAL ENERGIES
----------------

  NO   OCC          E(Eh)            E(eV)
   0   2.0000     -88.967499     -2420.9287
   1   2.0000     -88.962396     -2420.7899
   2   2.0000     -10.339450      -281.3507
   3   2.0000     -10.335015      -281.2301
   4   2.0000     -10.323947      -280.9289
   5   2.0000     -10.309538      -280.5368
   6   2.0000     -10.309034      -280.5231
   7   2.0000     -10.298793      -280.2444
   8   2.0000     -10.296339      -280.1776
   9   2.0000     -10.292093      -280.0621
  10   2.0000     -10.290043      -280.0063
  11   2.0000     -10.284986      -279.8687
  12   2.0000     -10.283841      -279.8375
  13   2.0000     -10.282494      -279.8009
  14   2.0000     -10.280045      -279.7343
  15   2.0000     -10.279100      -279.7085
  16   2.0000      -8.082478      -219.9354
  17   2.0000      -8.077147      -219.7903
  18   2.0000      -6.040856      -164.3801
  19   2.0000      -6.036947      -164.2737
  20   2.0000      -6.035800      -164.2425
  21   2.0000      -6.033368      -164.1763
  22   2.0000      -6.031687      -164.1306
  23   2.0000      -6.027742      -164.0232
  24   2.0000      -1.004851       -27.3434
  25   2.0000      -0.986558       -26.8456
  26   2.0000      -0.927864       -25.2485
  27   2.0000      -0.917308       -24.9612
  28   2.0000      -0.867524       -23.6065
  29   2.0000      -0.855680       -23.2842
  30   2.0000      -0.846740       -23.0410
  31   2.0000      -0.817933       -22.2571
  32   2.0000      -0.782790       -21.3008
  33   2.0000      -0.772696       -21.0261
  34   2.0000      -0.716359       -19.4931
  35   2.0000      -0.697064       -18.9681
  36   2.0000      -0.686579       -18.6828
  37   2.0000      -0.664562       -18.0837
  38   2.0000      -0.646474       -17.5914
  39   2.0000      -0.626776       -17.0554
  40   2.0000      -0.588706       -16.0195
  41   2.0000      -0.584062       -15.8931
  42   2.0000      -0.575625       -15.6635
  43   2.0000      -0.567904       -15.4534
  44   2.0000      -0.532221       -14.4825
  45   2.0000      -0.526804       -14.3351
  46   2.0000      -0.516991       -14.0680
  47   2.0000      -0.512493       -13.9457
  48   2.0000      -0.504664       -13.7326
  49   2.0000      -0.503616       -13.7041
  50   2.0000      -0.490904       -13.3582
  51   2.0000      -0.487346       -13.2613
  52   2.0000      -0.475198       -12.9308
  53   2.0000      -0.467327       -12.7166
  54   2.0000      -0.458608       -12.4794
  55   2.0000      -0.454182       -12.3589
  56   2.0000      -0.443632       -12.0719
  57   2.0000      -0.439145       -11.9497
  58   2.0000      -0.432397       -11.7661
  59   2.0000      -0.424298       -11.5457
  60   2.0000      -0.418109       -11.3773
  61   2.0000      -0.410704       -11.1758
  62   2.0000      -0.407377       -11.0853
  63   2.0000      -0.355372        -9.6702
  64   2.0000      -0.335483        -9.1290
  65   2.0000      -0.325800        -8.8655
  66   2.0000      -0.279048        -7.5933
  67   0.0000       0.016534         0.4499
  68   0.0000       0.077898         2.1197
  69   0.0000       0.094003         2.5580
  70   0.0000       0.117778         3.2049
  71   0.0000       0.132150         3.5960

MULLIKEN ATOMIC CHARGES
-----------------------
   0 S :    0.076679
   1 C :   -0.118222
   2 C :   -0.048253
   3 C :    0.006035
   4 C :   -0.078570
   5 H :   -0.030881
   6 C :    0.050637
   7 H :    0.022603
   8 H :    0.043981
   9 C :   -0.035278
  10 H :    0.021984
  11 H :    0.024309
  12 C :   -0.047905
  13 H :    0.031615
  14 H :    0.009962
  15 H :    0.031900
  16 S :    0.104485
  17 C :   -0.100786
  18 C :   -0.033523
  19 C :   -0.063319
  20 C :   -0.131541
  21 H :    0.007710
  22 C :    0.003882
  23 H :   -0.000198
  24 H :    0.049833
  25 C :   -0.043107
  26 H :    0.032811
  27 H :    0.030117
  28 C :   -0.036175
  29 H :    0.025180
  30 H :    0.033515
  31 H :    0.049103
  32 H :    0.034321
  33 H :    0.077095
Sum of atomic charges:    0.0000000

LOEWDIN ATOMIC CHARGES
----------------------
   0 S :    0.384589
   1 C :   -0.189743
   2 C :   -0.060908
   3 C :   -0.071274
   4 C :   -0.166593
   5 H :    0.017604
   6 C :   -0.044035
   7 H :    0.037550
   8 H :    0.043159
   9 C :   -0.039297
  10 H :    0.026905
  11 H :    0.020465
  12 C :   -0.065749
  13 H :    0.028494
  14 H :    0.019652
  15 H :    0.028796
  16 S :    0.418505
  17 C :   -0.202926
  18 C :   -0.073406
  19 C :   -0.054224
  20 C :   -0.193532
  21 H :    0.025629
  22 C :   -0.035150
  23 H :    0.019550
  24 H :    0.037164
  25 C :   -0.051518
  26 H :    0.027866
  27 H :    0.029685
  28 C :   -0.065095
  29 H :    0.020681
  30 H :    0.032181
  31 H :    0.033710
  32 H :    0.020133
  33 H :    0.041133

  Mayer bond orders larger than 0.100000
B(  0-S ,  1-C ) :   1.1309 B(  0-S ,  4-C ) :   1.1457 B(  1-C ,  2-C ) :   1.6035
B(  1-C , 32-H ) :   0.9807 B(  2-C ,  3-C ) :   1.2210 B(  2-C ,  6-C ) :   1.0253
B(  3-C ,  4-C ) :   1.5893 B(  3-C ,  5-H ) :   1.0020 B(  4-C , 20-C ) :   1.0384
B(  6-C ,  7-H ) :   0.9339 B(  6-C ,  8-H ) :   0.9189 B(  6-C ,  9-C ) :   1.1017
B(  9-C , 10-H ) :   0.9475 B(  9-C , 11-H ) :   0.9392 B(  9-C , 12-C ) :   1.0839
B( 12-C , 13-H ) :   0.9741 B( 12-C , 14-H ) :   0.9711 B( 12-C , 15-H ) :   0.9734
B( 16-S , 17-C ) :   1.1977 B( 16-S , 20-C ) :   1.1394 B( 17-C , 18-C ) :   1.5484
B( 17-C , 20-C ) :   0.1126 B( 17-C , 33-H ) :   0.9622 B( 18-C , 19-C ) :   1.2820
B( 18-C , 21-H ) :   1.0028 B( 19-C , 20-C ) :   1.5483 B( 19-C , 22-C ) :   1.0125
B( 22-C , 23-H ) :   0.9341 B( 22-C , 24-H ) :   0.9454 B( 22-C , 25-C ) :   1.0588
B( 25-C , 26-H ) :   0.9546 B( 25-C , 27-H ) :   0.9425 B( 25-C , 28-C ) :   1.0887
B( 28-C , 29-H ) :   0.9708 B( 28-C , 30-H ) :   0.9721 B( 28-C , 31-H ) :   0.9715

Dispersion correction           -0.014003556
FINAL SINGLE POINT ENERGY     -1339.856536171241

DIPOLE MOMENT
-------------
                                X             Y             Z
Electronic contribution:      1.99664     -10.46160     -30.28374
Nuclear contribution   :     -2.22955      10.76887      30.81922
                        -----------------------------------------
Total Dipole Moment    :     -0.23291       0.30727       0.53549
                        -----------------------------------------
Magnitude (a.u.)       :      0.65986
Magnitude (Debye)      :      1.67722

Rotational constants in cm-1:     0.018180     0.009023     0.006519
Rotational constants in MHz :   545.016427   270.489103   195.444227

                             ****ORCA TERMINATED NORMALLY****
TOTAL RUN TIME: 0 days 0 hours 0 minutes 21 seconds 871 msec
