                         Program Version 4.2.1 -  RELEASE  -
|  1> ! wB97X-D3 SP def2-SVP
|  2> %pal
|  3> nprocs 24
|  4> end
|  5>
|  6> * xyz 0 1
|  7> S 	 1.67198 	 -25.2984 	 -113.977
|  8> C 	 0.417525 	 -26.0147 	 -115.053
|  9> C 	 -0.755515 	 -25.2704 	 -114.855
| 10> C 	 -0.613277 	 -24.2316 	 -113.942
| 11> C 	 0.618733 	 -24.0517 	 -113.308
| 12> H 	 -1.31571 	 -23.5565 	 -113.556
| 13> C 	 -2.05507 	 -25.6554 	 -115.442
| 14> H 	 -2.84266 	 -25.375 	 -114.793
| 15> H 	 -2.08864 	 -26.7536 	 -115.463
| 16> C 	 -2.40019 	 -25.0337 	 -116.791
| 17> H 	 -2.41919 	 -23.9685 	 -116.724
| 18> H 	 -1.5868 	 -25.0822 	 -117.471
| 19> C 	 -3.54281 	 -25.7731 	 -117.526
| 20> H 	 -4.46116 	 -25.6031 	 -116.95
| 21> H 	 -3.69125 	 -25.3561 	 -118.488
| 22> H 	 -3.36134 	 -26.8432 	 -117.605
| 23> S 	 0.690634 	 -21.3734 	 -113.06
| 24> C 	 1.6116 	 -20.7041 	 -111.726
| 25> C 	 2.05655 	 -21.5577 	 -110.789
| 26> C 	 1.77154 	 -22.8887 	 -111.244
| 27> C 	 0.97605 	 -22.9582 	 -112.391
| 28> H 	 2.50533 	 -21.1794 	 -109.837
| 29> C 	 2.13999 	 -24.0751 	 -110.342
| 30> H 	 2.76858 	 -23.7998 	 -109.564
| 31> H 	 2.72702 	 -24.7397 	 -110.985
| 32> C 	 0.926043 	 -24.8357 	 -109.784
| 33> H 	 0.327343 	 -25.1694 	 -110.615
| 34> H 	 0.436177 	 -24.1441 	 -109.149
| 35> C 	 1.32748 	 -25.9356 	 -108.817
| 36> H 	 1.74548 	 -26.8211 	 -109.287
| 37> H 	 0.393921 	 -26.1996 	 -108.23
| 38> H 	 2.05316 	 -25.6048 	 -108.114
| 39> H 	 0.522902 	 -26.9192 	 -115.691
| 40> H 	 1.69922 	 -19.6705 	 -111.511
| 41> *
| 42>
| 43>                          ****END OF INPUT****

CARTESIAN COORDINATES (ANGSTROEM)
---------------------------------
  S      1.671980  -25.298400  -113.977000
  C      0.417525  -26.014700  -115.053000
  C     -0.755515  -25.270400  -114.855000
  C     -0.613277  -24.231600  -113.942000
  C      0.618733  -24.051700  -113.308000
  H     -1.315710  -23.556500  -113.556000
  C     -2.055070  -25.655400  -115.442000
  H     -2.842660  -25.375000  -114.793000
  H     -2.088640  -26.753600  -115.463000
  C     -2.400190  -25.033700  -116.791000
  H     -2.419190  -23.968500  -116.724000
  H     -1.586800  -25.082200  -117.471000
  C     -3.542810  -25.773100  -117.526000
  H     -4.461160  -25.603100  -116.950000
  H     -3.691250  -25.356100  -118.488000
  H     -3.361340  -26.843200  -117.605000
  S      0.690634  -21.373400  -113.060000
  C      1.611600  -20.704100  -111.726000
  C      2.056550  -21.557700  -110.789000
  C      1.771540  -22.888700  -111.244000
  C      0.976050  -22.958200  -112.391000
  H      2.505330  -21.179400  -109.837000
  C      2.139990  -24.075100  -110.342000
  H      2.768580  -23.799800  -109.564000
  H      2.727020  -24.739700  -110.985000
  C      0.926043  -24.835700  -109.784000
  H      0.327343  -25.169400  -110.615000
  H      0.436177  -24.144100  -109.149000
  C      1.327480  -25.935600  -108.817000
  H      1.745480  -26.821100  -109.287000
  H      0.393921  -26.199600  -108.230000
  H      2.053160  -25.604800  -108.114000
  H      0.522902  -26.919200  -115.691000
  H      1.699220  -19.670500  -111.511000

 Total Charge           Charge          ....    0
 Multiplicity           Mult            ....    1
 Number of Electrons    NEL             ....  134
 Basis Dimension        Dim             ....  322

ORBITAL ENERGIES
----------------

  NO   OCC          E(Eh)            E(eV)
   0   2.0000     -88.969877     -2420.9934
   1   2.0000     -88.965340     -2420.8700
   2   2.0000     -10.332913      -281.1729
   3   2.0000     -10.329145      -281.0703
   4   2.0000     -10.322779      -280.8971
   5   2.0000     -10.312164      -280.6083
   6   2.0000     -10.308298      -280.5031
   7   2.0000     -10.298964      -280.2490
   8   2.0000     -10.296833      -280.1911
   9   2.0000     -10.285152      -279.8732
  10   2.0000     -10.284000      -279.8419
  11   2.0000     -10.282398      -279.7983
  12   2.0000     -10.277686      -279.6701
  13   2.0000     -10.276970      -279.6506
  14   2.0000     -10.275763      -279.6177
  15   2.0000     -10.273947      -279.5683
  16   2.0000      -8.084602      -219.9932
  17   2.0000      -8.078495      -219.8270
  18   2.0000      -6.043130      -164.4419
  19   2.0000      -6.039231      -164.3358
  20   2.0000      -6.037058      -164.2767
  21   2.0000      -6.035209      -164.2264
  22   2.0000      -6.033005      -164.1664
  23   2.0000      -6.029486      -164.0707
  24   2.0000      -1.007192       -27.4071
  25   2.0000      -0.983927       -26.7740
  26   2.0000      -0.914026       -24.8719
  27   2.0000      -0.909678       -24.7536
  28   2.0000      -0.873685       -23.7742
  29   2.0000      -0.852397       -23.1949
  30   2.0000      -0.843477       -22.9522
  31   2.0000      -0.817932       -22.2571
  32   2.0000      -0.782250       -21.2861
  33   2.0000      -0.768492       -20.9117
  34   2.0000      -0.710468       -19.3328
  35   2.0000      -0.706053       -19.2127
  36   2.0000      -0.692075       -18.8323
  37   2.0000      -0.666541       -18.1375
  38   2.0000      -0.639365       -17.3980
  39   2.0000      -0.616150       -16.7663
  40   2.0000      -0.593913       -16.1612
  41   2.0000      -0.576915       -15.6987
  42   2.0000      -0.573195       -15.5974
  43   2.0000      -0.556591       -15.1456
  44   2.0000      -0.529580       -14.4106
  45   2.0000      -0.520445       -14.1620
  46   2.0000      -0.518163       -14.0999
  47   2.0000      -0.509212       -13.8564
  48   2.0000      -0.504968       -13.7409
  49   2.0000      -0.500929       -13.6310
  50   2.0000      -0.492633       -13.4052
  51   2.0000      -0.487453       -13.2643
  52   2.0000      -0.468744       -12.7552
  53   2.0000      -0.465244       -12.6599
  54   2.0000      -0.463239       -12.6054
  55   2.0000      -0.453569       -12.3423
  56   2.0000      -0.447320       -12.1722
  57   2.0000      -0.437937       -11.9169
  58   2.0000      -0.429605       -11.6902
  59   2.0000      -0.423789       -11.5319
  60   2.0000      -0.417706       -11.3664
  61   2.0000      -0.411215       -11.1897
  62   2.0000      -0.403701       -10.9853
  63   2.0000      -0.350664        -9.5421
  64   2.0000      -0.331270        -9.0143
  65   2.0000      -0.329374        -8.9627
  66   2.0000      -0.291666        -7.9366
  67   0.0000       0.025546         0.6951
  68   0.0000       0.068123         1.8537
  69   0.0000       0.101834         2.7710
  70   0.0000       0.121613         3.3093
  71   0.0000       0.124824         3.3966

MULLIKEN ATOMIC CHARGES
-----------------------
   0 S :    0.095571
   1 C :   -0.141648
   2 C :   -0.053705
   3 C :    0.014537
   4 C :   -0.128020
   5 H :   -0.015619
   6 C :    0.075702
   7 H :    0.011954
   8 H :    0.019443
   9 C :   -0.049800
  10 H :    0.014087
  11 H :    0.003459
  12 C :   -0.025178
  13 H :    0.027937
  14 H :    0.028489
  15 H :    0.035311
  16 S :    0.121133
  17 C :   -0.058940
  18 C :   -0.054657
  19 C :   -0.057050
  20 C :   -0.164276
  21 H :    0.045378
  22 C :    0.086695
  23 H :   -0.011264
  24 H :    0.022188
  25 C :   -0.046703
  26 H :    0.043301
  27 H :    0.016397
  28 C :   -0.047173
  29 H :    0.032799
  30 H :    0.039926
  31 H :    0.016596
  32 H :    0.069553
  33 H :    0.033578
Sum of atomic charges:   -0.0000000

LOEWDIN ATOMIC CHARGES
----------------------
   0 S :    0.385375
   1 C :   -0.189755
   2 C :   -0.065317
   3 C :   -0.074711
   4 C :   -0.192787
   5 H :    0.019242
   6 C :   -0.029414
   7 H :    0.026561
   8 H :    0.031870
   9 C :   -0.041122
  10 H :    0.022909
  11 H :    0.017041
  12 C :   -0.056032
  13 H :    0.024630
  14 H :    0.022055
  15 H :    0.026814
  16 S :    0.417654
  17 C :   -0.169968
  18 C :   -0.075498
  19 C :   -0.041848
  20 C :   -0.208757
  21 H :    0.047761
  22 C :   -0.027768
  23 H :    0.014762
  24 H :    0.028550
  25 C :   -0.031343
  26 H :    0.026361
  27 H :    0.020620
  28 C :   -0.064100
  29 H :    0.022808
  30 H :    0.034733
  31 H :    0.017892
  32 H :    0.041367
  33 H :    0.019414

  Mayer bond orders larger than 0.100000
B(  0-S ,  1-C ) :   1.1418 B(  0-S ,  4-C ) :   1.1420 B(  1-C ,  2-C ) :   1.5548
B(  1-C ,  4-C ) :   0.1108 B(  1-C , 32-H ) :   0.9683 B(  2-C ,  3-C ) :   1.2615
B(  2-C ,  6-C ) :   1.0331 B(  3-C ,  4-C ) :   1.5315 B(  3-C ,  5-H ) :   1.0090
B(  4-C , 20-C ) :   1.0559 B(  6-C ,  7-H ) :   0.9370 B(  6-C ,  8-H ) :   0.9432
B(  6-C ,  9-C ) :   1.0564 B(  9-C , 10-H ) :   0.9501 B(  9-C , 11-H ) :   0.9544
B(  9-C , 12-C ) :   1.0750 B( 12-C , 13-H ) :   0.9773 B( 12-C , 14-H ) :   0.9744
B( 12-C , 15-H ) :   0.9756 B( 16-S , 17-C ) :   1.1569 B( 16-S , 20-C ) :   1.1239
B( 17-C , 18-C ) :   1.6530 B( 17-C , 33-H ) :   0.9580 B( 18-C , 19-C ) :   1.2184
B( 18-C , 21-H ) :   0.9830 B( 19-C , 20-C ) :   1.5963 B( 19-C , 22-C ) :   1.0460
B( 22-C , 23-H ) :   0.9359 B( 22-C , 24-H ) :   0.9238 B( 22-C , 25-C ) :   1.0745
B( 25-C , 26-H ) :   0.9535 B( 25-C , 27-H ) :   0.9547 B( 25-C , 28-C ) :   1.0885
B( 28-C , 29-H ) :   0.9756 B( 28-C , 30-H ) :   0.9753 B( 28-C , 31-H ) :   0.9710

Dispersion correction           -0.013915628
FINAL SINGLE POINT ENERGY     -1339.862694001721

DIPOLE MOMENT
-------------
                                X             Y             Z
Electronic contribution:     12.65502      13.36311      -1.97774
Nuclear contribution   :    -12.89369     -13.36019       2.24367
                        -----------------------------------------
Total Dipole Moment    :     -0.23867       0.00293       0.26593
                        -----------------------------------------
Magnitude (a.u.)       :      0.35734
Magnitude (Debye)      :      0.90828

Rotational constants in cm-1:     0.020646     0.007595     0.006340
Rotational constants in MHz :   618.936599   227.687526   190.062759

                             ****ORCA TERMINATED NORMALLY****
TOTAL RUN TIME: 0 days 0 hours 0 minutes 21 seconds 88 msec
