                         Program Version 4.2.1 -  RELEASE  -
|  1> ! wB97X-D3 SP def2-SVP
|  2> %pal
|  3> nprocs 24
|  4> end
|  5>
|  6> * xyz 0 1
|  7> S 	 -47.3828 	 -50.3076 	 -74.7827
|  8> C 	 -46.7485 	 -48.7178 	 -74.5845
|  9> C 	 -46.0678 	 -48.6025 	 -73.3999
| 10> C 	 -46.2097 	 -49.7174 	 -72.533
| 11> C 	 -46.9549 	 -50.7768 	 -73.1409
| 12> H 	 -45.8423 	 -49.7076 	 -71.5447
| 13> C 	 -45.5585 	 -47.2351 	 -72.9928
| 14> H 	 -45.2843 	 -47.314 	 -71.9586
| 15> H 	 -46.3373 	 -46.5513 	 -73.1197
| 16> C 	 -44.352 	 -46.7744 	 -73.8489
| 17> H 	 -43.4456 	 -47.3351 	 -73.5922
| 18> H 	 -44.5575 	 -46.9841 	 -74.8559
| 19> C 	 -43.9632 	 -45.3236 	 -73.7071
| 20> H 	 -43.1988 	 -44.9826 	 -74.3585
| 21> H 	 -44.8278 	 -44.6684 	 -73.8738
| 22> H 	 -43.6739 	 -45.1992 	 -72.7025
| 23> S 	 -47.4819 	 -53.4032 	 -73.8091
| 24> C 	 -47.7448 	 -54.6032 	 -72.5337
| 25> C 	 -47.4983 	 -54.0264 	 -71.3102
| 26> C 	 -46.9786 	 -52.7035 	 -71.3732
| 27> C 	 -47.1336 	 -52.1461 	 -72.6275
| 28> H 	 -47.5582 	 -54.7186 	 -70.4598
| 29> C 	 -46.5897 	 -51.9113 	 -70.0946
| 30> H 	 -47.2386 	 -51.1075 	 -69.8962
| 31> H 	 -45.5918 	 -51.5575 	 -70.1202
| 32> C 	 -46.6543 	 -52.7339 	 -68.7635
| 33> H 	 -46.0148 	 -53.6056 	 -68.8081
| 34> H 	 -47.6015 	 -53.1939 	 -68.5075
| 35> C 	 -46.4036 	 -51.9074 	 -67.4579
| 36> H 	 -45.5704 	 -51.1637 	 -67.5748
| 37> H 	 -46.1208 	 -52.5064 	 -66.6002
| 38> H 	 -47.241 	 -51.3556 	 -67.1565
| 39> H 	 -46.8643 	 -47.8248 	 -75.2155
| 40> H 	 -48.0513 	 -55.5702 	 -72.7425
| 41> *
| 42>
| 43>                          ****END OF INPUT****

CARTESIAN COORDINATES (ANGSTROEM)
---------------------------------
  S    -47.382800  -50.307600  -74.782700
  C    -46.748500  -48.717800  -74.584500
  C    -46.067800  -48.602500  -73.399900
  C    -46.209700  -49.717400  -72.533000
  C    -46.954900  -50.776800  -73.140900
  H    -45.842300  -49.707600  -71.544700
  C    -45.558500  -47.235100  -72.992800
  H    -45.284300  -47.314000  -71.958600
  H    -46.337300  -46.551300  -73.119700
  C    -44.352000  -46.774400  -73.848900
  H    -43.445600  -47.335100  -73.592200
  H    -44.557500  -46.984100  -74.855900
  C    -43.963200  -45.323600  -73.707100
  H    -43.198800  -44.982600  -74.358500
  H    -44.827800  -44.668400  -73.873800
  H    -43.673900  -45.199200  -72.702500
  S    -47.481900  -53.403200  -73.809100
  C    -47.744800  -54.603200  -72.533700
  C    -47.498300  -54.026400  -71.310200
  C    -46.978600  -52.703500  -71.373200
  C    -47.133600  -52.146100  -72.627500
  H    -47.558200  -54.718600  -70.459800
  C    -46.589700  -51.911300  -70.094600
  H    -47.238600  -51.107500  -69.896200
  H    -45.591800  -51.557500  -70.120200
  C    -46.654300  -52.733900  -68.763500
  H    -46.014800  -53.605600  -68.808100
  H    -47.601500  -53.193900  -68.507500
  C    -46.403600  -51.907400  -67.457900
  H    -45.570400  -51.163700  -67.574800
  H    -46.120800  -52.506400  -66.600200
  H    -47.241000  -51.355600  -67.156500
  H    -46.864300  -47.824800  -75.215500
  H    -48.051300  -55.570200  -72.742500

 Total Charge           Charge          ....    0
 Multiplicity           Mult            ....    1
 Number of Electrons    NEL             ....  134
 Basis Dimension        Dim             ....  322

ORBITAL ENERGIES
----------------

  NO   OCC          E(Eh)            E(eV)
   0   2.0000     -88.971974     -2421.0505
   1   2.0000     -88.962381     -2420.7895
   2   2.0000     -10.339422      -281.3500
   3   2.0000     -10.332504      -281.1617
   4   2.0000     -10.313767      -280.6519
   5   2.0000     -10.311376      -280.5868
   6   2.0000     -10.307407      -280.4788
   7   2.0000     -10.297299      -280.2038
   8   2.0000     -10.296254      -280.1753
   9   2.0000     -10.295221      -280.1472
  10   2.0000     -10.294240      -280.1205
  11   2.0000     -10.288838      -279.9735
  12   2.0000     -10.286214      -279.9021
  13   2.0000     -10.279723      -279.7255
  14   2.0000     -10.279140      -279.7096
  15   2.0000     -10.269380      -279.4440
  16   2.0000      -8.086339      -220.0405
  17   2.0000      -8.077106      -219.7892
  18   2.0000      -6.044933      -164.4910
  19   2.0000      -6.040759      -164.3774
  20   2.0000      -6.037178      -164.2800
  21   2.0000      -6.035721      -164.2403
  22   2.0000      -6.031642      -164.1293
  23   2.0000      -6.027729      -164.0228
  24   2.0000      -1.006911       -27.3995
  25   2.0000      -0.986095       -26.8330
  26   2.0000      -0.915520       -24.9126
  27   2.0000      -0.904232       -24.6054
  28   2.0000      -0.870977       -23.7005
  29   2.0000      -0.855690       -23.2845
  30   2.0000      -0.844366       -22.9764
  31   2.0000      -0.817376       -22.2419
  32   2.0000      -0.785488       -21.3742
  33   2.0000      -0.775050       -21.0902
  34   2.0000      -0.709948       -19.3187
  35   2.0000      -0.707458       -19.2509
  36   2.0000      -0.701920       -19.1002
  37   2.0000      -0.658728       -17.9249
  38   2.0000      -0.635291       -17.2872
  39   2.0000      -0.623699       -16.9717
  40   2.0000      -0.602853       -16.4045
  41   2.0000      -0.577716       -15.7204
  42   2.0000      -0.570822       -15.5329
  43   2.0000      -0.561768       -15.2865
  44   2.0000      -0.529391       -14.4055
  45   2.0000      -0.525808       -14.3080
  46   2.0000      -0.519575       -14.1384
  47   2.0000      -0.511868       -13.9286
  48   2.0000      -0.508891       -13.8476
  49   2.0000      -0.503379       -13.6976
  50   2.0000      -0.492761       -13.4087
  51   2.0000      -0.482521       -13.1301
  52   2.0000      -0.478135       -13.0107
  53   2.0000      -0.468832       -12.7576
  54   2.0000      -0.462357       -12.5814
  55   2.0000      -0.451813       -12.2945
  56   2.0000      -0.446764       -12.1571
  57   2.0000      -0.434436       -11.8216
  58   2.0000      -0.428419       -11.6579
  59   2.0000      -0.427027       -11.6200
  60   2.0000      -0.426164       -11.5965
  61   2.0000      -0.419169       -11.4062
  62   2.0000      -0.410461       -11.1692
  63   2.0000      -0.361069        -9.8252
  64   2.0000      -0.336324        -9.1518
  65   2.0000      -0.330568        -8.9952
  66   2.0000      -0.280424        -7.6307
  67   0.0000       0.015157         0.4124
  68   0.0000       0.081703         2.2232
  69   0.0000       0.101924         2.7735
  70   0.0000       0.121293         3.3005
  71   0.0000       0.141484         3.8500

MULLIKEN ATOMIC CHARGES
-----------------------
   0 S :    0.121744
   1 C :   -0.116742
   2 C :   -0.092811
   3 C :    0.013106
   4 C :   -0.116208
   5 H :   -0.011317
   6 C :    0.092015
   7 H :    0.010092
   8 H :    0.019977
   9 C :   -0.080501
  10 H :    0.026846
  11 H :    0.010389
  12 C :   -0.006931
  13 H :    0.031410
  14 H :    0.017458
  15 H :    0.014254
  16 S :    0.078950
  17 C :   -0.063746
  18 C :   -0.038489
  19 C :   -0.054758
  20 C :   -0.110183
  21 H :    0.031472
  22 C :    0.074918
  23 H :    0.035395
  24 H :    0.038440
  25 C :   -0.104392
  26 H :    0.025642
  27 H :    0.026717
  28 C :   -0.043685
  29 H :    0.022819
  30 H :    0.031904
  31 H :    0.026816
  32 H :    0.057360
  33 H :    0.032037
Sum of atomic charges:   -0.0000000

LOEWDIN ATOMIC CHARGES
----------------------
   0 S :    0.422582
   1 C :   -0.210173
   2 C :   -0.064670
   3 C :   -0.058854
   4 C :   -0.185135
   5 H :    0.022101
   6 C :   -0.018129
   7 H :    0.024935
   8 H :    0.023771
   9 C :   -0.035386
  10 H :    0.027327
  11 H :    0.011226
  12 C :   -0.058691
  13 H :    0.023731
  14 H :    0.022643
  15 H :    0.018717
  16 S :    0.382556
  17 C :   -0.164851
  18 C :   -0.070276
  19 C :   -0.061879
  20 C :   -0.180456
  21 H :    0.037595
  22 C :   -0.020911
  23 H :    0.027939
  24 H :    0.028093
  25 C :   -0.042611
  26 H :    0.018602
  27 H :    0.022346
  28 C :   -0.063929
  29 H :    0.024496
  30 H :    0.028656
  31 H :    0.016890
  32 H :    0.037056
  33 H :    0.014689

  Mayer bond orders larger than 0.100000
B(  0-S ,  1-C ) :   1.1473 B(  0-S ,  4-C ) :   1.1629 B(  1-C ,  2-C ) :   1.5795
B(  1-C ,  4-C ) :   0.1009 B(  1-C , 32-H ) :   0.9603 B(  2-C ,  3-C ) :   1.3006
B(  2-C ,  6-C ) :   1.0226 B(  3-C ,  4-C ) :   1.4901 B(  3-C ,  5-H ) :   0.9965
B(  4-C , 20-C ) :   1.0970 B(  6-C ,  7-H ) :   0.9391 B(  6-C ,  8-H ) :   0.9472
B(  6-C ,  9-C ) :   1.0529 B(  9-C , 10-H ) :   0.9532 B(  9-C , 11-H ) :   0.9630
B(  9-C , 12-C ) :   1.0906 B( 12-C , 13-H ) :   0.9732 B( 12-C , 14-H ) :   0.9726
B( 12-C , 15-H ) :   0.9722 B( 16-S , 17-C ) :   1.1378 B( 16-S , 20-C ) :   1.1378
B( 17-C , 18-C ) :   1.6117 B( 17-C , 33-H ) :   0.9769 B( 18-C , 19-C ) :   1.2478
B( 18-C , 21-H ) :   0.9806 B( 19-C , 20-C ) :   1.5951 B( 19-C , 22-C ) :   1.0289
B( 22-C , 23-H ) :   0.9424 B( 22-C , 24-H ) :   0.9245 B( 22-C , 25-C ) :   1.0761
B( 25-C , 26-H ) :   0.9571 B( 25-C , 27-H ) :   0.9509 B( 25-C , 28-C ) :   1.0729
B( 28-C , 29-H ) :   0.9762 B( 28-C , 30-H ) :   0.9730 B( 28-C , 31-H ) :   0.9787

Dispersion correction           -0.012971318
FINAL SINGLE POINT ENERGY     -1339.867543048196

DIPOLE MOMENT
-------------
                                X             Y             Z
Electronic contribution:    -12.57534     -17.64466     -20.96296
Nuclear contribution   :     12.76984      17.94875      21.56289
                        -----------------------------------------
Total Dipole Moment    :      0.19450       0.30409       0.59993
                        -----------------------------------------
Magnitude (a.u.)       :      0.70016
Magnitude (Debye)      :      1.77966

Rotational constants in cm-1:     0.018267     0.007679     0.005573
Rotational constants in MHz :   547.639167   230.207816   167.069605

                             ****ORCA TERMINATED NORMALLY****
TOTAL RUN TIME: 0 days 0 hours 0 minutes 20 seconds 743 msec
