                         Program Version 4.2.1 -  RELEASE  -
|  1> ! wB97X-D3 SP def2-SVP
|  2> %pal
|  3> nprocs 24
|  4> end
|  5>
|  6> * xyz 0 1
|  7> S 	 -93.9638 	 -7.46109 	 -119.16
|  8> C 	 -95.1137 	 -6.5171 	 -120.096
|  9> C 	 -96.3542 	 -6.67603 	 -119.59
| 10> C 	 -96.4018 	 -7.51839 	 -118.449
| 11> C 	 -95.1986 	 -8.0817 	 -118.179
| 12> H 	 -97.2707 	 -7.74875 	 -117.895
| 13> C 	 -97.5435 	 -6.02556 	 -120.262
| 14> H 	 -97.2278 	 -5.78919 	 -121.307
| 15> H 	 -97.6488 	 -5.08196 	 -119.835
| 16> C 	 -98.8622 	 -6.80162 	 -120.062
| 17> H 	 -98.9697 	 -7.5767 	 -120.831
| 18> H 	 -98.9719 	 -7.21971 	 -119.027
| 19> C 	 -99.9976 	 -5.8311 	 -120.344
| 20> H 	 -100.07 	 -5.04931 	 -119.616
| 21> H 	 -99.8634 	 -5.24601 	 -121.277
| 22> H 	 -100.963 	 -6.2789 	 -120.452
| 23> S 	 -93.6143 	 -8.83256 	 -116.095
| 24> C 	 -93.7886 	 -10.3763 	 -115.285
| 25> C 	 -94.8759 	 -11.1218 	 -115.778
| 26> C 	 -95.4756 	 -10.3986 	 -116.898
| 27> C 	 -94.9046 	 -9.13951 	 -117.21
| 28> H 	 -95.1951 	 -12.1147 	 -115.47
| 29> C 	 -96.5967 	 -11.0521 	 -117.768
| 30> H 	 -97.4317 	 -10.3687 	 -117.963
| 31> H 	 -96.9051 	 -11.8286 	 -117.034
| 32> C 	 -96.1146 	 -11.6494 	 -119.051
| 33> H 	 -95.6355 	 -10.8846 	 -119.596
| 34> H 	 -96.9826 	 -11.9318 	 -119.606
| 35> C 	 -95.3031 	 -12.9041 	 -118.848
| 36> H 	 -95.6734 	 -13.5601 	 -118.034
| 37> H 	 -94.274 	 -12.6833 	 -118.672
| 38> H 	 -95.4586 	 -13.4611 	 -119.683
| 39> H 	 -94.8166 	 -5.96857 	 -120.942
| 40> H 	 -93.029 	 -10.7129 	 -114.587
| 41> *
| 42>
| 43>                          ****END OF INPUT****

CARTESIAN COORDINATES (ANGSTROEM)
---------------------------------
  S    -93.963800   -7.461090  -119.160000
  C    -95.113700   -6.517100  -120.096000
  C    -96.354200   -6.676030  -119.590000
  C    -96.401800   -7.518390  -118.449000
  C    -95.198600   -8.081700  -118.179000
  H    -97.270700   -7.748750  -117.895000
  C    -97.543500   -6.025560  -120.262000
  H    -97.227800   -5.789190  -121.307000
  H    -97.648800   -5.081960  -119.835000
  C    -98.862200   -6.801620  -120.062000
  H    -98.969700   -7.576700  -120.831000
  H    -98.971900   -7.219710  -119.027000
  C    -99.997600   -5.831100  -120.344000
  H    -100.070000   -5.049310  -119.616000
  H    -99.863400   -5.246010  -121.277000
  H    -100.963000   -6.278900  -120.452000
  S    -93.614300   -8.832560  -116.095000
  C    -93.788600  -10.376300  -115.285000
  C    -94.875900  -11.121800  -115.778000
  C    -95.475600  -10.398600  -116.898000
  C    -94.904600   -9.139510  -117.210000
  H    -95.195100  -12.114700  -115.470000
  C    -96.596700  -11.052100  -117.768000
  H    -97.431700  -10.368700  -117.963000
  H    -96.905100  -11.828600  -117.034000
  C    -96.114600  -11.649400  -119.051000
  H    -95.635500  -10.884600  -119.596000
  H    -96.982600  -11.931800  -119.606000
  C    -95.303100  -12.904100  -118.848000
  H    -95.673400  -13.560100  -118.034000
  H    -94.274000  -12.683300  -118.672000
  H    -95.458600  -13.461100  -119.683000
  H    -94.816600   -5.968570  -120.942000
  H    -93.029000  -10.712900  -114.587000

 Total Charge           Charge          ....    0
 Multiplicity           Mult            ....    1
 Number of Electrons    NEL             ....  134
 Basis Dimension        Dim             ....  322

ORBITAL ENERGIES
----------------

  NO   OCC          E(Eh)            E(eV)
   0   2.0000     -88.963536     -2420.8209
   1   2.0000     -88.962127     -2420.7826
   2   2.0000     -10.325605      -280.9740
   3   2.0000     -10.324595      -280.9465
   4   2.0000     -10.322220      -280.8819
   5   2.0000     -10.307519      -280.4819
   6   2.0000     -10.305291      -280.4212
   7   2.0000     -10.304026      -280.3868
   8   2.0000     -10.294769      -280.1349
   9   2.0000     -10.294410      -280.1251
  10   2.0000     -10.290093      -280.0077
  11   2.0000     -10.287093      -279.9260
  12   2.0000     -10.286819      -279.9186
  13   2.0000     -10.274465      -279.5824
  14   2.0000     -10.270150      -279.4650
  15   2.0000     -10.262151      -279.2473
  16   2.0000      -8.078621      -219.8305
  17   2.0000      -8.078196      -219.8189
  18   2.0000      -6.036995      -164.2750
  19   2.0000      -6.036518      -164.2620
  20   2.0000      -6.032910      -164.1638
  21   2.0000      -6.032521      -164.1532
  22   2.0000      -6.029672      -164.0757
  23   2.0000      -6.029054      -164.0589
  24   2.0000      -1.013671       -27.5834
  25   2.0000      -0.983407       -26.7599
  26   2.0000      -0.917410       -24.9640
  27   2.0000      -0.912010       -24.8171
  28   2.0000      -0.872794       -23.7499
  29   2.0000      -0.849733       -23.1224
  30   2.0000      -0.843526       -22.9535
  31   2.0000      -0.818778       -22.2801
  32   2.0000      -0.782757       -21.2999
  33   2.0000      -0.771366       -20.9899
  34   2.0000      -0.714604       -19.4454
  35   2.0000      -0.699574       -19.0364
  36   2.0000      -0.685056       -18.6413
  37   2.0000      -0.664564       -18.0837
  38   2.0000      -0.648317       -17.6416
  39   2.0000      -0.625901       -17.0316
  40   2.0000      -0.589098       -16.0302
  41   2.0000      -0.572440       -15.5769
  42   2.0000      -0.564359       -15.3570
  43   2.0000      -0.556364       -15.1394
  44   2.0000      -0.548936       -14.9373
  45   2.0000      -0.529127       -14.3983
  46   2.0000      -0.520417       -14.1613
  47   2.0000      -0.512614       -13.9489
  48   2.0000      -0.505500       -13.7553
  49   2.0000      -0.498653       -13.5690
  50   2.0000      -0.489859       -13.3297
  51   2.0000      -0.479716       -13.0537
  52   2.0000      -0.475338       -12.9346
  53   2.0000      -0.467055       -12.7092
  54   2.0000      -0.457773       -12.4566
  55   2.0000      -0.454463       -12.3666
  56   2.0000      -0.445031       -12.1099
  57   2.0000      -0.441019       -12.0007
  58   2.0000      -0.432080       -11.7575
  59   2.0000      -0.427477       -11.6323
  60   2.0000      -0.421233       -11.4623
  61   2.0000      -0.413971       -11.2647
  62   2.0000      -0.400820       -10.9069
  63   2.0000      -0.344051        -9.3621
  64   2.0000      -0.331766        -9.0278
  65   2.0000      -0.328425        -8.9369
  66   2.0000      -0.294258        -8.0072
  67   0.0000       0.032285         0.8785
  68   0.0000       0.073317         1.9950
  69   0.0000       0.114301         3.1103
  70   0.0000       0.119552         3.2532
  71   0.0000       0.140154         3.8138

MULLIKEN ATOMIC CHARGES
-----------------------
   0 S :    0.110051
   1 C :   -0.129507
   2 C :   -0.074242
   3 C :    0.041957
   4 C :   -0.136687
   5 H :   -0.007698
   6 C :    0.098864
   7 H :    0.027544
   8 H :    0.017567
   9 C :   -0.082089
  10 H :    0.041539
  11 H :    0.050343
  12 C :   -0.051503
  13 H :    0.021528
  14 H :    0.023553
  15 H :    0.025265
  16 S :    0.101576
  17 C :   -0.101654
  18 C :   -0.015972
  19 C :   -0.085636
  20 C :   -0.153115
  21 H :    0.026834
  22 C :    0.039945
  23 H :    0.027036
  24 H :    0.011905
  25 C :   -0.019063
  26 H :    0.026343
  27 H :    0.014358
  28 C :   -0.009556
  29 H :    0.015517
  30 H :    0.042653
  31 H :    0.006781
  32 H :    0.028115
  33 H :    0.067448
Sum of atomic charges:   -0.0000000

LOEWDIN ATOMIC CHARGES
----------------------
   0 S :    0.420770
   1 C :   -0.188765
   2 C :   -0.059880
   3 C :   -0.064655
   4 C :   -0.206827
   5 H :    0.024064
   6 C :   -0.026262
   7 H :    0.037621
   8 H :    0.024292
   9 C :   -0.038268
  10 H :    0.029633
  11 H :    0.031804
  12 C :   -0.067733
  13 H :    0.018715
  14 H :    0.027920
  15 H :    0.020181
  16 S :    0.416480
  17 C :   -0.185295
  18 C :   -0.071665
  19 C :   -0.055747
  20 C :   -0.213228
  21 H :    0.034160
  22 C :   -0.032152
  23 H :    0.026604
  24 H :    0.026624
  25 C :   -0.033394
  26 H :    0.023555
  27 H :    0.021784
  28 C :   -0.054388
  29 H :    0.026870
  30 H :    0.026238
  31 H :    0.014311
  32 H :    0.018017
  33 H :    0.028614

  Mayer bond orders larger than 0.100000
B(  0-S ,  1-C ) :   1.1224 B(  0-S ,  4-C ) :   1.1810 B(  1-C ,  2-C ) :   1.6236
B(  1-C , 32-H ) :   0.9834 B(  2-C ,  3-C ) :   1.2270 B(  2-C ,  6-C ) :   1.0027
B(  3-C ,  4-C ) :   1.5751 B(  3-C ,  5-H ) :   1.0080 B(  4-C , 20-C ) :   1.0047
B(  6-C ,  7-H ) :   0.9381 B(  6-C ,  8-H ) :   0.9352 B(  6-C ,  9-C ) :   1.0571
B(  9-C , 10-H ) :   0.9561 B(  9-C , 11-H ) :   0.9544 B(  9-C , 12-C ) :   1.0845
B( 12-C , 13-H ) :   0.9761 B( 12-C , 14-H ) :   0.9703 B( 12-C , 15-H ) :   0.9736
B( 16-S , 17-C ) :   1.1795 B( 16-S , 20-C ) :   1.1554 B( 17-C , 18-C ) :   1.5600
B( 17-C , 20-C ) :   0.1059 B( 17-C , 33-H ) :   0.9679 B( 18-C , 19-C ) :   1.2750
B( 18-C , 21-H ) :   0.9867 B( 19-C , 20-C ) :   1.5757 B( 19-C , 22-C ) :   1.0246
B( 22-C , 23-H ) :   0.9395 B( 22-C , 24-H ) :   0.9371 B( 22-C , 25-C ) :   1.0869
B( 25-C , 26-H ) :   0.9506 B( 25-C , 27-H ) :   0.9534 B( 25-C , 28-C ) :   1.0786
B( 28-C , 29-H ) :   0.9720 B( 28-C , 30-H ) :   0.9747 B( 28-C , 31-H ) :   0.9713

Dispersion correction           -0.014521162
FINAL SINGLE POINT ENERGY     -1339.873622737489

DIPOLE MOMENT
-------------
                                X             Y             Z
Electronic contribution:     23.04675       6.43306      12.11491
Nuclear contribution   :    -23.61718      -6.57486     -12.44608
                        -----------------------------------------
Total Dipole Moment    :     -0.57043      -0.14181      -0.33117
                        -----------------------------------------
Magnitude (a.u.)       :      0.67466
Magnitude (Debye)      :      1.71485

Rotational constants in cm-1:     0.019733     0.008499     0.007124
Rotational constants in MHz :   591.566142   254.795443   213.568934

                             ****ORCA TERMINATED NORMALLY****
TOTAL RUN TIME: 0 days 0 hours 0 minutes 22 seconds 260 msec
