                         Program Version 4.2.1 -  RELEASE  -
|  1> ! wB97X-D3 SP def2-SVP
|  2> %pal
|  3> nprocs 24
|  4> end
|  5>
|  6> * xyz 0 1
|  7> S 	 -64.57 	 10.5435 	 -20.1021
|  8> C 	 -64.6571 	 10.7467 	 -18.3931
|  9> C 	 -63.5897 	 10.1762 	 -17.6561
| 10> C 	 -62.5841 	 9.70531 	 -18.5554
| 11> C 	 -62.9219 	 9.85002 	 -19.8702
| 12> H 	 -61.6795 	 9.20193 	 -18.2489
| 13> C 	 -63.3538 	 10.3262 	 -16.0958
| 14> H 	 -62.3224 	 10.7054 	 -15.9017
| 15> H 	 -63.3905 	 9.31002 	 -15.6355
| 16> C 	 -64.309 	 11.2509 	 -15.3611
| 17> H 	 -64.4857 	 12.1966 	 -15.897
| 18> H 	 -65.2995 	 10.8298 	 -15.2184
| 19> C 	 -63.8162 	 11.5833 	 -13.9373
| 20> H 	 -64.5874 	 12.1474 	 -13.3779
| 21> H 	 -63.6116 	 10.7439 	 -13.2652
| 22> H 	 -63.0065 	 12.2502 	 -14.1143
| 23> S 	 -62.6591 	 8.14374 	 -21.8947
| 24> C 	 -61.3109 	 8.21864 	 -22.9334
| 25> C 	 -60.4417 	 9.21795 	 -22.6265
| 26> C 	 -60.8128 	 9.97902 	 -21.4654
| 27> C 	 -62.0294 	 9.53344 	 -20.9725
| 28> H 	 -59.4913 	 9.19043 	 -23.1099
| 29> C 	 -60.0478 	 11.1554 	 -20.9866
| 30> H 	 -60.4943 	 11.79 	 -20.2371
| 31> H 	 -59.9246 	 11.6784 	 -21.8823
| 32> C 	 -58.6233 	 10.7787 	 -20.5603
| 33> H 	 -58.2331 	 11.7738 	 -20.4819
| 34> H 	 -58.0972 	 10.2887 	 -21.3621
| 35> C 	 -58.5595 	 9.93904 	 -19.3012
| 36> H 	 -57.5376 	 10.1196 	 -18.8679
| 37> H 	 -58.7663 	 8.86237 	 -19.4702
| 38> H 	 -59.312 	 10.327 	 -18.6173
| 39> H 	 -65.3279 	 11.4457 	 -17.8551
| 40> H 	 -60.8906 	 7.50288 	 -23.6373
| 41> *
| 42>
| 43>                          ****END OF INPUT****

CARTESIAN COORDINATES (ANGSTROEM)
---------------------------------
  S    -64.570000   10.543500  -20.102100
  C    -64.657100   10.746700  -18.393100
  C    -63.589700   10.176200  -17.656100
  C    -62.584100    9.705310  -18.555400
  C    -62.921900    9.850020  -19.870200
  H    -61.679500    9.201930  -18.248900
  C    -63.353800   10.326200  -16.095800
  H    -62.322400   10.705400  -15.901700
  H    -63.390500    9.310020  -15.635500
  C    -64.309000   11.250900  -15.361100
  H    -64.485700   12.196600  -15.897000
  H    -65.299500   10.829800  -15.218400
  C    -63.816200   11.583300  -13.937300
  H    -64.587400   12.147400  -13.377900
  H    -63.611600   10.743900  -13.265200
  H    -63.006500   12.250200  -14.114300
  S    -62.659100    8.143740  -21.894700
  C    -61.310900    8.218640  -22.933400
  C    -60.441700    9.217950  -22.626500
  C    -60.812800    9.979020  -21.465400
  C    -62.029400    9.533440  -20.972500
  H    -59.491300    9.190430  -23.109900
  C    -60.047800   11.155400  -20.986600
  H    -60.494300   11.790000  -20.237100
  H    -59.924600   11.678400  -21.882300
  C    -58.623300   10.778700  -20.560300
  H    -58.233100   11.773800  -20.481900
  H    -58.097200   10.288700  -21.362100
  C    -58.559500    9.939040  -19.301200
  H    -57.537600   10.119600  -18.867900
  H    -58.766300    8.862370  -19.470200
  H    -59.312000   10.327000  -18.617300
  H    -65.327900   11.445700  -17.855100
  H    -60.890600    7.502880  -23.637300

 Total Charge           Charge          ....    0
 Multiplicity           Mult            ....    1
 Number of Electrons    NEL             ....  134
 Basis Dimension        Dim             ....  322

ORBITAL ENERGIES
----------------

  NO   OCC          E(Eh)            E(eV)
   0   2.0000     -88.969886     -2420.9937
   1   2.0000     -88.959532     -2420.7119
   2   2.0000     -10.327290      -281.0199
   3   2.0000     -10.321623      -280.8657
   4   2.0000     -10.315709      -280.7047
   5   2.0000     -10.308333      -280.5040
   6   2.0000     -10.306124      -280.4439
   7   2.0000     -10.304525      -280.4004
   8   2.0000     -10.302659      -280.3496
   9   2.0000     -10.292654      -280.0774
  10   2.0000     -10.288736      -279.9707
  11   2.0000     -10.285236      -279.8755
  12   2.0000     -10.281676      -279.7786
  13   2.0000     -10.281624      -279.7772
  14   2.0000     -10.280545      -279.7479
  15   2.0000     -10.280140      -279.7368
  16   2.0000      -8.084060      -219.9784
  17   2.0000      -8.074915      -219.7296
  18   2.0000      -6.042533      -164.4257
  19   2.0000      -6.038869      -164.3260
  20   2.0000      -6.034666      -164.2116
  21   2.0000      -6.033404      -164.1773
  22   2.0000      -6.029326      -164.0663
  23   2.0000      -6.025654      -163.9664
  24   2.0000      -1.004446       -27.3324
  25   2.0000      -0.981393       -26.7051
  26   2.0000      -0.919517       -25.0213
  27   2.0000      -0.908439       -24.7199
  28   2.0000      -0.868089       -23.6219
  29   2.0000      -0.852449       -23.1963
  30   2.0000      -0.848611       -23.0919
  31   2.0000      -0.811787       -22.0899
  32   2.0000      -0.785522       -21.3751
  33   2.0000      -0.769283       -20.9332
  34   2.0000      -0.708867       -19.2892
  35   2.0000      -0.700212       -19.0537
  36   2.0000      -0.687316       -18.7028
  37   2.0000      -0.655010       -17.8237
  38   2.0000      -0.636239       -17.3129
  39   2.0000      -0.616735       -16.7822
  40   2.0000      -0.600855       -16.3501
  41   2.0000      -0.574843       -15.6423
  42   2.0000      -0.566273       -15.4091
  43   2.0000      -0.554332       -15.0841
  44   2.0000      -0.540609       -14.7107
  45   2.0000      -0.519460       -14.1352
  46   2.0000      -0.515045       -14.0151
  47   2.0000      -0.510606       -13.8943
  48   2.0000      -0.504990       -13.7415
  49   2.0000      -0.494128       -13.4459
  50   2.0000      -0.490708       -13.3528
  51   2.0000      -0.477724       -12.9995
  52   2.0000      -0.473724       -12.8907
  53   2.0000      -0.463225       -12.6050
  54   2.0000      -0.456105       -12.4113
  55   2.0000      -0.451815       -12.2945
  56   2.0000      -0.447171       -12.1681
  57   2.0000      -0.435042       -11.8381
  58   2.0000      -0.430456       -11.7133
  59   2.0000      -0.427340       -11.6285
  60   2.0000      -0.425228       -11.5711
  61   2.0000      -0.420516       -11.4428
  62   2.0000      -0.411144       -11.1878
  63   2.0000      -0.342988        -9.3332
  64   2.0000      -0.328811        -8.9474
  65   2.0000      -0.325722        -8.8634
  66   2.0000      -0.291996        -7.9456
  67   0.0000       0.043579         1.1859
  68   0.0000       0.055599         1.5129
  69   0.0000       0.114864         3.1256
  70   0.0000       0.122902         3.3443
  71   0.0000       0.124759         3.3949

MULLIKEN ATOMIC CHARGES
-----------------------
   0 S :    0.133195
   1 C :   -0.128820
   2 C :   -0.086162
   3 C :    0.034328
   4 C :   -0.149657
   5 H :    0.015978
   6 C :    0.048958
   7 H :    0.034144
   8 H :    0.045990
   9 C :   -0.112225
  10 H :    0.034517
  11 H :    0.031327
  12 C :   -0.051820
  13 H :    0.030308
  14 H :    0.040400
  15 H :    0.030331
  16 S :    0.098142
  17 C :   -0.058501
  18 C :   -0.074671
  19 C :    0.001715
  20 C :   -0.208812
  21 H :    0.011592
  22 C :    0.090662
  23 H :    0.031310
  24 H :    0.015656
  25 C :   -0.086474
  26 H :    0.021545
  27 H :    0.022635
  28 C :   -0.052322
  29 H :    0.045571
  30 H :    0.055622
  31 H :    0.024043
  32 H :    0.060354
  33 H :    0.051144
Sum of atomic charges:   -0.0000000

LOEWDIN ATOMIC CHARGES
----------------------
   0 S :    0.397940
   1 C :   -0.214599
   2 C :   -0.063750
   3 C :   -0.054801
   4 C :   -0.190218
   5 H :    0.033408
   6 C :   -0.032886
   7 H :    0.032792
   8 H :    0.038854
   9 C :   -0.049600
  10 H :    0.024938
  11 H :    0.021891
  12 C :   -0.063454
  13 H :    0.029592
  14 H :    0.027118
  15 H :    0.020712
  16 S :    0.403633
  17 C :   -0.199387
  18 C :   -0.080158
  19 C :   -0.047730
  20 C :   -0.188959
  21 H :    0.025984
  22 C :   -0.024983
  23 H :    0.030671
  24 H :    0.031209
  25 C :   -0.037940
  26 H :    0.023000
  27 H :    0.018600
  28 C :   -0.069798
  29 H :    0.035218
  30 H :    0.033110
  31 H :    0.021466
  32 H :    0.032298
  33 H :    0.035830

  Mayer bond orders larger than 0.100000
B(  0-S ,  1-C ) :   1.1404 B(  0-S ,  4-C ) :   1.1210 B(  1-C ,  2-C ) :   1.6416
B(  1-C , 32-H ) :   0.9480 B(  2-C ,  3-C ) :   1.2293 B(  2-C ,  6-C ) :   0.9994
B(  3-C ,  4-C ) :   1.6136 B(  3-C ,  5-H ) :   0.9937 B(  4-C , 20-C ) :   1.0183
B(  6-C ,  7-H ) :   0.9550 B(  6-C ,  8-H ) :   0.9316 B(  6-C ,  9-C ) :   1.0753
B(  9-C , 10-H ) :   0.9536 B(  9-C , 11-H ) :   0.9515 B(  9-C , 12-C ) :   1.0837
B( 12-C , 13-H ) :   0.9729 B( 12-C , 14-H ) :   0.9759 B( 12-C , 15-H ) :   0.9782
B( 16-S , 17-C ) :   1.1475 B( 16-S , 20-C ) :   1.1310 B( 17-C , 18-C ) :   1.6687
B( 17-C , 33-H ) :   0.9556 B( 18-C , 19-C ) :   1.1973 B( 18-C , 21-H ) :   0.9826
B( 19-C , 20-C ) :   1.6250 B( 19-C , 22-C ) :   1.0407 B( 22-C , 23-H ) :   0.9433
B( 22-C , 24-H ) :   0.9194 B( 22-C , 25-C ) :   1.0840 B( 25-C , 26-H ) :   0.9562
B( 25-C , 27-H ) :   0.9549 B( 25-C , 28-C ) :   1.0673 B( 28-C , 29-H ) :   0.9716
B( 28-C , 30-H ) :   0.9720 B( 28-C , 31-H ) :   0.9729

Dispersion correction           -0.014344092
FINAL SINGLE POINT ENERGY     -1339.865746216664

DIPOLE MOMENT
-------------
                                X             Y             Z
Electronic contribution:    -13.98452      -9.60712     -23.34003
Nuclear contribution   :     14.59550       9.90138      23.81844
                        -----------------------------------------
Total Dipole Moment    :      0.61098       0.29426       0.47840
                        -----------------------------------------
Magnitude (a.u.)       :      0.82991
Magnitude (Debye)      :      2.10947

Rotational constants in cm-1:     0.020938     0.007914     0.006312
Rotational constants in MHz :   627.708340   237.267721   189.227343

                             ****ORCA TERMINATED NORMALLY****
TOTAL RUN TIME: 0 days 0 hours 0 minutes 21 seconds 547 msec
