                         Program Version 4.2.1 -  RELEASE  -
|  1> ! wB97X-D3 SP def2-SVP
|  2> %pal
|  3> nprocs 24
|  4> end
|  5>
|  6> * xyz 0 1
|  7> S 	 -102.639 	 2.80045 	 -108.307
|  8> C 	 -102.169 	 1.39378 	 -109.127
|  9> C 	 -101.948 	 0.314822 	 -108.261
| 10> C 	 -102.333 	 0.633158 	 -106.924
| 11> C 	 -102.825 	 1.93984 	 -106.835
| 12> H 	 -102.132 	 0.0871205 	 -106.098
| 13> C 	 -101.435 	 -1.05249 	 -108.659
| 14> H 	 -100.448 	 -1.01403 	 -108.225
| 15> H 	 -101.354 	 -1.19433 	 -109.738
| 16> C 	 -102.104 	 -2.28537 	 -107.999
| 17> H 	 -102.06 	 -2.28961 	 -106.964
| 18> H 	 -103.162 	 -2.27919 	 -108.304
| 19> C 	 -101.674 	 -3.59661 	 -108.705
| 20> H 	 -101.517 	 -3.44752 	 -109.781
| 21> H 	 -100.696 	 -3.86372 	 -108.377
| 22> H 	 -102.43 	 -4.38715 	 -108.592
| 23> S 	 -102.966 	 4.27001 	 -105.499
| 24> C 	 -103.793 	 4.32152 	 -103.991
| 25> C 	 -104.425 	 3.18336 	 -103.664
| 26> C 	 -104.187 	 2.18837 	 -104.686
| 27> C 	 -103.342 	 2.60953 	 -105.685
| 28> H 	 -104.999 	 3.13243 	 -102.738
| 29> C 	 -104.862 	 0.874181 	 -104.531
| 30> H 	 -104.924 	 0.576742 	 -103.462
| 31> H 	 -104.068 	 0.250075 	 -104.842
| 32> C 	 -106.061 	 0.615624 	 -105.314
| 33> H 	 -105.759 	 1.05573 	 -106.254
| 34> H 	 -106.918 	 1.22882 	 -104.933
| 35> C 	 -106.444 	 -0.85749 	 -105.412
| 36> H 	 -105.629 	 -1.40561 	 -105.937
| 37> H 	 -107.404 	 -0.968293 	 -105.916
| 38> H 	 -106.562 	 -1.38298 	 -104.446
| 39> H 	 -101.874 	 1.18492 	 -110.156
| 40> H 	 -103.754 	 5.15965 	 -103.328
| 41> *
| 42>
| 43>                          ****END OF INPUT****

CARTESIAN COORDINATES (ANGSTROEM)
---------------------------------
  S    -102.639000    2.800450  -108.307000
  C    -102.169000    1.393780  -109.127000
  C    -101.948000    0.314822  -108.261000
  C    -102.333000    0.633158  -106.924000
  C    -102.825000    1.939840  -106.835000
  H    -102.132000    0.087121  -106.098000
  C    -101.435000   -1.052490  -108.659000
  H    -100.448000   -1.014030  -108.225000
  H    -101.354000   -1.194330  -109.738000
  C    -102.104000   -2.285370  -107.999000
  H    -102.060000   -2.289610  -106.964000
  H    -103.162000   -2.279190  -108.304000
  C    -101.674000   -3.596610  -108.705000
  H    -101.517000   -3.447520  -109.781000
  H    -100.696000   -3.863720  -108.377000
  H    -102.430000   -4.387150  -108.592000
  S    -102.966000    4.270010  -105.499000
  C    -103.793000    4.321520  -103.991000
  C    -104.425000    3.183360  -103.664000
  C    -104.187000    2.188370  -104.686000
  C    -103.342000    2.609530  -105.685000
  H    -104.999000    3.132430  -102.738000
  C    -104.862000    0.874181  -104.531000
  H    -104.924000    0.576742  -103.462000
  H    -104.068000    0.250075  -104.842000
  C    -106.061000    0.615624  -105.314000
  H    -105.759000    1.055730  -106.254000
  H    -106.918000    1.228820  -104.933000
  C    -106.444000   -0.857490  -105.412000
  H    -105.629000   -1.405610  -105.937000
  H    -107.404000   -0.968293  -105.916000
  H    -106.562000   -1.382980  -104.446000
  H    -101.874000    1.184920  -110.156000
  H    -103.754000    5.159650  -103.328000

 Total Charge           Charge          ....    0
 Multiplicity           Mult            ....    1
 Number of Electrons    NEL             ....  134
 Basis Dimension        Dim             ....  322

ORBITAL ENERGIES
----------------

  NO   OCC          E(Eh)            E(eV)
   0   2.0000     -88.970319     -2421.0054
   1   2.0000     -88.962153     -2420.7832
   2   2.0000     -10.326415      -280.9960
   3   2.0000     -10.319622      -280.8112
   4   2.0000     -10.307490      -280.4811
   5   2.0000     -10.307219      -280.4737
   6   2.0000     -10.299894      -280.2744
   7   2.0000     -10.297941      -280.2212
   8   2.0000     -10.293271      -280.0941
   9   2.0000     -10.288523      -279.9649
  10   2.0000     -10.287089      -279.9259
  11   2.0000     -10.285604      -279.8855
  12   2.0000     -10.280230      -279.7393
  13   2.0000     -10.279400      -279.7167
  14   2.0000     -10.278536      -279.6932
  15   2.0000     -10.275203      -279.6025
  16   2.0000      -8.086206      -220.0369
  17   2.0000      -8.078723      -219.8332
  18   2.0000      -6.044658      -164.4835
  19   2.0000      -6.040568      -164.3722
  20   2.0000      -6.037162      -164.2795
  21   2.0000      -6.036952      -164.2738
  22   2.0000      -6.033119      -164.1695
  23   2.0000      -6.029300      -164.0656
  24   2.0000      -1.019676       -27.7468
  25   2.0000      -0.993227       -27.0271
  26   2.0000      -0.921199       -25.0671
  27   2.0000      -0.914658       -24.8891
  28   2.0000      -0.877050       -23.8658
  29   2.0000      -0.857104       -23.3230
  30   2.0000      -0.848713       -23.0946
  31   2.0000      -0.818808       -22.2809
  32   2.0000      -0.783447       -21.3187
  33   2.0000      -0.771814       -21.0021
  34   2.0000      -0.716572       -19.4989
  35   2.0000      -0.700707       -19.0672
  36   2.0000      -0.692253       -18.8371
  37   2.0000      -0.667617       -18.1668
  38   2.0000      -0.641201       -17.4480
  39   2.0000      -0.627310       -17.0700
  40   2.0000      -0.597670       -16.2634
  41   2.0000      -0.574065       -15.6211
  42   2.0000      -0.571549       -15.5526
  43   2.0000      -0.563014       -15.3204
  44   2.0000      -0.531584       -14.4651
  45   2.0000      -0.525152       -14.2901
  46   2.0000      -0.517516       -14.0823
  47   2.0000      -0.513498       -13.9730
  48   2.0000      -0.511227       -13.9112
  49   2.0000      -0.498681       -13.5698
  50   2.0000      -0.491209       -13.3665
  51   2.0000      -0.487776       -13.2731
  52   2.0000      -0.473800       -12.8928
  53   2.0000      -0.467273       -12.7151
  54   2.0000      -0.460769       -12.5382
  55   2.0000      -0.452809       -12.3216
  56   2.0000      -0.448666       -12.2088
  57   2.0000      -0.443849       -12.0778
  58   2.0000      -0.437124       -11.8948
  59   2.0000      -0.431066       -11.7299
  60   2.0000      -0.420606       -11.4453
  61   2.0000      -0.408551       -11.1172
  62   2.0000      -0.399967       -10.8837
  63   2.0000      -0.358285        -9.7494
  64   2.0000      -0.334186        -9.0937
  65   2.0000      -0.326135        -8.8746
  66   2.0000      -0.282789        -7.6951
  67   0.0000       0.028945         0.7876
  68   0.0000       0.079985         2.1765
  69   0.0000       0.107311         2.9201
  70   0.0000       0.123560         3.3622
  71   0.0000       0.131657         3.5826

MULLIKEN ATOMIC CHARGES
-----------------------
   0 S :    0.134900
   1 C :   -0.101274
   2 C :   -0.108060
   3 C :    0.036477
   4 C :   -0.141242
   5 H :   -0.016122
   6 C :    0.072941
   7 H :    0.035064
   8 H :    0.017223
   9 C :   -0.079256
  10 H :    0.024822
  11 H :    0.033116
  12 C :   -0.040767
  13 H :    0.023016
  14 H :    0.019535
  15 H :    0.045184
  16 S :    0.100320
  17 C :   -0.071733
  18 C :   -0.028149
  19 C :   -0.098194
  20 C :   -0.126557
  21 H :    0.023705
  22 C :    0.106801
  23 H :    0.010087
  24 H :   -0.028847
  25 C :   -0.032530
  26 H :    0.028496
  27 H :    0.026652
  28 C :   -0.046641
  29 H :    0.035818
  30 H :    0.038136
  31 H :    0.028421
  32 H :    0.036829
  33 H :    0.041827
Sum of atomic charges:   -0.0000000

LOEWDIN ATOMIC CHARGES
----------------------
   0 S :    0.447793
   1 C :   -0.234882
   2 C :   -0.054273
   3 C :   -0.057593
   4 C :   -0.195894
   5 H :    0.011063
   6 C :   -0.031755
   7 H :    0.036109
   8 H :    0.028455
   9 C :   -0.035526
  10 H :    0.012130
  11 H :    0.028702
  12 C :   -0.060861
  13 H :    0.026595
  14 H :    0.017310
  15 H :    0.029811
  16 S :    0.419249
  17 C :   -0.183539
  18 C :   -0.070022
  19 C :   -0.052195
  20 C :   -0.213880
  21 H :    0.038248
  22 C :   -0.043040
  23 H :    0.028055
  24 H :    0.022237
  25 C :   -0.042755
  26 H :    0.029966
  27 H :    0.027142
  28 C :   -0.065767
  29 H :    0.029510
  30 H :    0.027663
  31 H :    0.026001
  32 H :    0.032397
  33 H :    0.023546

  Mayer bond orders larger than 0.100000
B(  0-S ,  1-C ) :   1.1397 B(  0-S ,  4-C ) :   1.1711 B(  1-C ,  2-C ) :   1.6046
B(  1-C , 32-H ) :   0.9603 B(  2-C ,  3-C ) :   1.2560 B(  2-C ,  6-C ) :   1.0235
B(  3-C ,  4-C ) :   1.5333 B(  3-C ,  5-H ) :   1.0073 B(  4-C , 20-C ) :   1.0667
B(  6-C ,  7-H ) :   0.9243 B(  6-C ,  8-H ) :   0.9461 B(  6-C ,  9-C ) :   1.0676
B(  9-C , 10-H ) :   0.9551 B(  9-C , 11-H ) :   0.9627 B(  9-C , 12-C ) :   1.0743
B( 12-C , 13-H ) :   0.9727 B( 12-C , 14-H ) :   0.9756 B( 12-C , 15-H ) :   0.9786
B( 16-S , 17-C ) :   1.1517 B( 16-S , 20-C ) :   1.1277 B( 17-C , 18-C ) :   1.6378
B( 17-C , 33-H ) :   0.9658 B( 18-C , 19-C ) :   1.2144 B( 18-C , 21-H ) :   0.9961
B( 19-C , 20-C ) :   1.6083 B( 19-C , 22-C ) :   1.0381 B( 22-C , 23-H ) :   0.9153
B( 22-C , 24-H ) :   0.9130 B( 22-C , 25-C ) :   1.0715 B( 25-C , 26-H ) :   0.9493
B( 25-C , 27-H ) :   0.9477 B( 25-C , 28-C ) :   1.0825 B( 28-C , 29-H ) :   0.9725
B( 28-C , 30-H ) :   0.9736 B( 28-C , 31-H ) :   0.9734

Dispersion correction           -0.014276526
FINAL SINGLE POINT ENERGY     -1339.863731377656

DIPOLE MOMENT
-------------
                                X             Y             Z
Electronic contribution:      6.52369      31.46571       0.36871
Nuclear contribution   :     -6.51596     -32.05705      -0.16400
                        -----------------------------------------
Total Dipole Moment    :      0.00773      -0.59134       0.20471
                        -----------------------------------------
Magnitude (a.u.)       :      0.62582
Magnitude (Debye)      :      1.59070

Rotational constants in cm-1:     0.018726     0.009226     0.006833
Rotational constants in MHz :   561.388830   276.578486   204.841767

                             ****ORCA TERMINATED NORMALLY****
TOTAL RUN TIME: 0 days 0 hours 0 minutes 22 seconds 273 msec
