                         Program Version 4.2.1 -  RELEASE  -
|  1> ! wB97X-D3 SP def2-SVP
|  2> %pal
|  3> nprocs 24
|  4> end
|  5>
|  6> * xyz 0 1
|  7> S 	 -83.3981 	 -38.9961 	 -71.5253
|  8> C 	 -84.2587 	 -39.0487 	 -73.0532
|  9> C 	 -83.8959 	 -40.1952 	 -73.7146
| 10> C 	 -83.1056 	 -41.0713 	 -72.9061
| 11> C 	 -82.9193 	 -40.6759 	 -71.6302
| 12> H 	 -82.7634 	 -41.9452 	 -73.3071
| 13> C 	 -84.2451 	 -40.5678 	 -75.1257
| 14> H 	 -85.1153 	 -40.0672 	 -75.4971
| 15> H 	 -84.3419 	 -41.6452 	 -75.1935
| 16> C 	 -83.1731 	 -39.9988 	 -76.0872
| 17> H 	 -83.4141 	 -40.4193 	 -77.0114
| 18> H 	 -83.2331 	 -38.9175 	 -76.1504
| 19> C 	 -81.7301 	 -40.2756 	 -75.7624
| 20> H 	 -81.4314 	 -39.9138 	 -74.7772
| 21> H 	 -81.3504 	 -41.2805 	 -76.0086
| 22> H 	 -81.2147 	 -39.7221 	 -76.5384
| 23> S 	 -80.6253 	 -40.6584 	 -70.0554
| 24> C 	 -80.4275 	 -41.8446 	 -68.8698
| 25> C 	 -81.2976 	 -42.9436 	 -69.0489
| 26> C 	 -82.1686 	 -42.7331 	 -70.184
| 27> C 	 -82.0993 	 -41.4091 	 -70.6697
| 28> H 	 -81.206 	 -43.7789 	 -68.3734
| 29> C 	 -83.1889 	 -43.8303 	 -70.586
| 30> H 	 -83.9854 	 -43.458 	 -71.1818
| 31> H 	 -83.6881 	 -44.1413 	 -69.7223
| 32> C 	 -82.618 	 -45.1174 	 -71.2866
| 33> H 	 -83.4788 	 -45.81 	 -71.2737
| 34> H 	 -81.8038 	 -45.5032 	 -70.5548
| 35> C 	 -82.1176 	 -44.8963 	 -72.7708
| 36> H 	 -81.7675 	 -45.8675 	 -73.1944
| 37> H 	 -81.2605 	 -44.2038 	 -72.855
| 38> H 	 -82.9566 	 -44.4566 	 -73.4102
| 39> H 	 -84.7619 	 -38.1541 	 -73.5118
| 40> H 	 -79.7942 	 -41.8713 	 -68.0681
| 41> *
| 42>
| 43>                          ****END OF INPUT****

CARTESIAN COORDINATES (ANGSTROEM)
---------------------------------
  S    -83.398100  -38.996100  -71.525300
  C    -84.258700  -39.048700  -73.053200
  C    -83.895900  -40.195200  -73.714600
  C    -83.105600  -41.071300  -72.906100
  C    -82.919300  -40.675900  -71.630200
  H    -82.763400  -41.945200  -73.307100
  C    -84.245100  -40.567800  -75.125700
  H    -85.115300  -40.067200  -75.497100
  H    -84.341900  -41.645200  -75.193500
  C    -83.173100  -39.998800  -76.087200
  H    -83.414100  -40.419300  -77.011400
  H    -83.233100  -38.917500  -76.150400
  C    -81.730100  -40.275600  -75.762400
  H    -81.431400  -39.913800  -74.777200
  H    -81.350400  -41.280500  -76.008600
  H    -81.214700  -39.722100  -76.538400
  S    -80.625300  -40.658400  -70.055400
  C    -80.427500  -41.844600  -68.869800
  C    -81.297600  -42.943600  -69.048900
  C    -82.168600  -42.733100  -70.184000
  C    -82.099300  -41.409100  -70.669700
  H    -81.206000  -43.778900  -68.373400
  C    -83.188900  -43.830300  -70.586000
  H    -83.985400  -43.458000  -71.181800
  H    -83.688100  -44.141300  -69.722300
  C    -82.618000  -45.117400  -71.286600
  H    -83.478800  -45.810000  -71.273700
  H    -81.803800  -45.503200  -70.554800
  C    -82.117600  -44.896300  -72.770800
  H    -81.767500  -45.867500  -73.194400
  H    -81.260500  -44.203800  -72.855000
  H    -82.956600  -44.456600  -73.410200
  H    -84.761900  -38.154100  -73.511800
  H    -79.794200  -41.871300  -68.068100

 Total Charge           Charge          ....    0
 Multiplicity           Mult            ....    1
 Number of Electrons    NEL             ....  134
 Basis Dimension        Dim             ....  322

ORBITAL ENERGIES
----------------

  NO   OCC          E(Eh)            E(eV)
   0   2.0000     -88.965544     -2420.8755
   1   2.0000     -88.962423     -2420.7906
   2   2.0000     -10.329352      -281.0760
   3   2.0000     -10.326245      -280.9914
   4   2.0000     -10.317147      -280.7438
   5   2.0000     -10.310524      -280.5636
   6   2.0000     -10.308184      -280.5000
   7   2.0000     -10.302723      -280.3513
   8   2.0000     -10.296040      -280.1695
   9   2.0000     -10.295074      -280.1432
  10   2.0000     -10.292790      -280.0811
  11   2.0000     -10.287391      -279.9341
  12   2.0000     -10.285490      -279.8824
  13   2.0000     -10.281923      -279.7854
  14   2.0000     -10.279946      -279.7316
  15   2.0000     -10.271795      -279.5098
  16   2.0000      -8.081024      -219.8958
  17   2.0000      -8.077269      -219.7937
  18   2.0000      -6.039400      -164.3404
  19   2.0000      -6.035917      -164.2457
  20   2.0000      -6.035433      -164.2325
  21   2.0000      -6.031892      -164.1361
  22   2.0000      -6.031879      -164.1358
  23   2.0000      -6.027717      -164.0225
  24   2.0000      -1.008443       -27.4411
  25   2.0000      -0.986509       -26.8443
  26   2.0000      -0.917114       -24.9559
  27   2.0000      -0.898897       -24.4602
  28   2.0000      -0.869678       -23.6652
  29   2.0000      -0.847280       -23.0557
  30   2.0000      -0.840854       -22.8808
  31   2.0000      -0.815189       -22.1824
  32   2.0000      -0.785883       -21.3850
  33   2.0000      -0.776462       -21.1286
  34   2.0000      -0.705501       -19.1977
  35   2.0000      -0.698171       -18.9982
  36   2.0000      -0.690244       -18.7825
  37   2.0000      -0.656348       -17.8601
  38   2.0000      -0.640391       -17.4259
  39   2.0000      -0.623919       -16.9777
  40   2.0000      -0.594969       -16.1899
  41   2.0000      -0.580211       -15.7884
  42   2.0000      -0.555003       -15.1024
  43   2.0000      -0.544356       -14.8127
  44   2.0000      -0.540006       -14.6943
  45   2.0000      -0.537139       -14.6163
  46   2.0000      -0.522109       -14.2073
  47   2.0000      -0.513369       -13.9695
  48   2.0000      -0.505025       -13.7424
  49   2.0000      -0.498784       -13.5726
  50   2.0000      -0.491276       -13.3683
  51   2.0000      -0.476632       -12.9698
  52   2.0000      -0.471337       -12.8257
  53   2.0000      -0.466809       -12.7025
  54   2.0000      -0.459185       -12.4951
  55   2.0000      -0.444754       -12.1024
  56   2.0000      -0.442423       -12.0390
  57   2.0000      -0.435472       -11.8498
  58   2.0000      -0.430752       -11.7214
  59   2.0000      -0.423414       -11.5217
  60   2.0000      -0.421430       -11.4677
  61   2.0000      -0.417401       -11.3581
  62   2.0000      -0.409821       -11.1518
  63   2.0000      -0.344385        -9.3712
  64   2.0000      -0.328781        -8.9466
  65   2.0000      -0.321970        -8.7613
  66   2.0000      -0.293224        -7.9790
  67   0.0000       0.027354         0.7443
  68   0.0000       0.069363         1.8875
  69   0.0000       0.108362         2.9487
  70   0.0000       0.123617         3.3638
  71   0.0000       0.125499         3.4150

MULLIKEN ATOMIC CHARGES
-----------------------
   0 S :    0.094886
   1 C :   -0.140600
   2 C :   -0.118041
   3 C :    0.075219
   4 C :   -0.113049
   5 H :   -0.053233
   6 C :    0.114581
   7 H :    0.014257
   8 H :    0.025438
   9 C :   -0.064077
  10 H :    0.011428
  11 H :    0.025704
  12 C :   -0.056059
  13 H :    0.059259
  14 H :    0.025344
  15 H :    0.020248
  16 S :    0.123212
  17 C :   -0.045683
  18 C :   -0.062332
  19 C :   -0.015733
  20 C :   -0.171541
  21 H :    0.020578
  22 C :    0.083837
  23 H :    0.008556
  24 H :    0.013129
  25 C :   -0.107235
  26 H :    0.039823
  27 H :    0.044541
  28 C :   -0.089283
  29 H :    0.046500
  30 H :    0.053605
  31 H :    0.048093
  32 H :    0.070494
  33 H :    0.018134
Sum of atomic charges:    0.0000000

LOEWDIN ATOMIC CHARGES
----------------------
   0 S :    0.396988
   1 C :   -0.202610
   2 C :   -0.064805
   3 C :   -0.046763
   4 C :   -0.194676
   5 H :    0.011528
   6 C :   -0.027154
   7 H :    0.030088
   8 H :    0.028118
   9 C :   -0.031017
  10 H :    0.016045
  11 H :    0.024974
  12 C :   -0.071517
  13 H :    0.029170
  14 H :    0.024379
  15 H :    0.028775
  16 S :    0.426762
  17 C :   -0.192324
  18 C :   -0.071118
  19 C :   -0.047744
  20 C :   -0.194744
  21 H :    0.030040
  22 C :   -0.030695
  23 H :    0.022044
  24 H :    0.024463
  25 C :   -0.040842
  26 H :    0.026896
  27 H :    0.031295
  28 C :   -0.079181
  29 H :    0.031198
  30 H :    0.028261
  31 H :    0.030892
  32 H :    0.041776
  33 H :    0.011496

  Mayer bond orders larger than 0.100000
B(  0-S ,  1-C ) :   1.1315 B(  0-S ,  4-C ) :   1.1415 B(  1-C ,  2-C ) :   1.6058
B(  1-C , 32-H ) :   0.9626 B(  2-C ,  3-C ) :   1.2480 B(  2-C ,  6-C ) :   1.0336
B(  3-C ,  4-C ) :   1.5421 B(  3-C ,  5-H ) :   1.0121 B(  4-C , 20-C ) :   1.0580
B(  6-C ,  7-H ) :   0.9358 B(  6-C ,  8-H ) :   0.9409 B(  6-C ,  9-C ) :   1.0668
B(  9-C , 10-H ) :   0.9528 B(  9-C , 11-H ) :   0.9582 B(  9-C , 12-C ) :   1.0980
B( 12-C , 13-H ) :   0.9656 B( 12-C , 14-H ) :   0.9724 B( 12-C , 15-H ) :   0.9681
B( 16-S , 17-C ) :   1.1701 B( 16-S , 20-C ) :   1.1479 B( 17-C , 18-C ) :   1.5980
B( 17-C , 20-C ) :   0.1004 B( 17-C , 33-H ) :   0.9760 B( 18-C , 19-C ) :   1.2381
B( 18-C , 21-H ) :   0.9925 B( 19-C , 20-C ) :   1.5727 B( 19-C , 22-C ) :   1.0396
B( 22-C , 23-H ) :   0.9366 B( 22-C , 24-H ) :   0.9371 B( 22-C , 25-C ) :   1.0679
B( 25-C , 26-H ) :   0.9567 B( 25-C , 27-H ) :   0.9575 B( 25-C , 28-C ) :   1.0627
B( 28-C , 29-H ) :   0.9727 B( 28-C , 30-H ) :   0.9743 B( 28-C , 31-H ) :   0.9683

Dispersion correction           -0.015447103
FINAL SINGLE POINT ENERGY     -1339.857828601647

DIPOLE MOMENT
-------------
                                X             Y             Z
Electronic contribution:      2.47320      16.25531      19.75406
Nuclear contribution   :     -2.55453     -16.71432     -20.25623
                        -----------------------------------------
Total Dipole Moment    :     -0.08133      -0.45900      -0.50217
                        -----------------------------------------
Magnitude (a.u.)       :      0.68518
Magnitude (Debye)      :      1.74159

Rotational constants in cm-1:     0.018422     0.009758     0.007700
Rotational constants in MHz :   552.278844   292.532158   230.828347

                             ****ORCA TERMINATED NORMALLY****
TOTAL RUN TIME: 0 days 0 hours 0 minutes 22 seconds 691 msec
