                         Program Version 4.2.1 -  RELEASE  -
|  1> ! wB97X-D3 SP def2-SVP
|  2> %pal
|  3> nprocs 24
|  4> end
|  5>
|  6> * xyz 0 1
|  7> S 	 -71.5185 	 5.10348 	 15.1088
|  8> C 	 -69.7692 	 4.61651 	 15.2587
|  9> C 	 -69.4859 	 4.23722 	 16.5489
| 10> C 	 -70.6668 	 4.29714 	 17.4076
| 11> C 	 -71.8589 	 4.58546 	 16.7826
| 12> H 	 -70.6502 	 3.96198 	 18.4074
| 13> C 	 -68.154 	 3.77551 	 17.1101
| 14> H 	 -67.8421 	 4.61234 	 17.7251
| 15> H 	 -67.5165 	 3.79938 	 16.2001
| 16> C 	 -68.133 	 2.43884 	 17.8437
| 17> H 	 -67.1106 	 2.32958 	 18.1707
| 18> H 	 -68.8097 	 2.39218 	 18.6937
| 19> C 	 -68.4238 	 1.30371 	 16.8865
| 20> H 	 -69.4499 	 1.15793 	 16.6571
| 21> H 	 -67.8392 	 1.50482 	 16.0754
| 22> H 	 -68.2324 	 0.356677 	 17.3633
| 23> S 	 -74.3442 	 5.77892 	 16.8113
| 24> C 	 -75.5699 	 5.29866 	 17.9604
| 25> C 	 -74.9585 	 4.49836 	 18.8951
| 26> C 	 -73.6657 	 3.96222 	 18.4889
| 27> C 	 -73.1951 	 4.57995 	 17.353
| 28> H 	 -75.4146 	 4.41688 	 19.8377
| 29> C 	 -72.8402 	 2.9686 	 19.2681
| 30> H 	 -72.1083 	 3.40775 	 19.9798
| 31> H 	 -72.2669 	 2.49328 	 18.5663
| 32> C 	 -73.5567 	 1.79027 	 19.992
| 33> H 	 -74.0306 	 1.20725 	 19.2558
| 34> H 	 -74.2421 	 2.20513 	 20.6399
| 35> C 	 -72.5814 	 0.901766 	 20.8372
| 36> H 	 -72.004 	 1.67539 	 21.4308
| 37> H 	 -71.9696 	 0.313613 	 20.1239
| 38> H 	 -73.1384 	 0.232806 	 21.4708
| 39> H 	 -68.9018 	 4.60947 	 14.5641
| 40> H 	 -76.5619 	 5.84269 	 17.9864
| 41> *
| 42>
| 43>                          ****END OF INPUT****

CARTESIAN COORDINATES (ANGSTROEM)
---------------------------------
  S    -71.518500    5.103480   15.108800
  C    -69.769200    4.616510   15.258700
  C    -69.485900    4.237220   16.548900
  C    -70.666800    4.297140   17.407600
  C    -71.858900    4.585460   16.782600
  H    -70.650200    3.961980   18.407400
  C    -68.154000    3.775510   17.110100
  H    -67.842100    4.612340   17.725100
  H    -67.516500    3.799380   16.200100
  C    -68.133000    2.438840   17.843700
  H    -67.110600    2.329580   18.170700
  H    -68.809700    2.392180   18.693700
  C    -68.423800    1.303710   16.886500
  H    -69.449900    1.157930   16.657100
  H    -67.839200    1.504820   16.075400
  H    -68.232400    0.356677   17.363300
  S    -74.344200    5.778920   16.811300
  C    -75.569900    5.298660   17.960400
  C    -74.958500    4.498360   18.895100
  C    -73.665700    3.962220   18.488900
  C    -73.195100    4.579950   17.353000
  H    -75.414600    4.416880   19.837700
  C    -72.840200    2.968600   19.268100
  H    -72.108300    3.407750   19.979800
  H    -72.266900    2.493280   18.566300
  C    -73.556700    1.790270   19.992000
  H    -74.030600    1.207250   19.255800
  H    -74.242100    2.205130   20.639900
  C    -72.581400    0.901766   20.837200
  H    -72.004000    1.675390   21.430800
  H    -71.969600    0.313613   20.123900
  H    -73.138400    0.232806   21.470800
  H    -68.901800    4.609470   14.564100
  H    -76.561900    5.842690   17.986400

 Total Charge           Charge          ....    0
 Multiplicity           Mult            ....    1
 Number of Electrons    NEL             ....  134
 Basis Dimension        Dim             ....  322

ORBITAL ENERGIES
----------------

  NO   OCC          E(Eh)            E(eV)
   0   2.0000     -88.966354     -2420.8976
   1   2.0000     -88.961678     -2420.7703
   2   2.0000     -10.335186      -281.2347
   3   2.0000     -10.328825      -281.0616
   4   2.0000     -10.324350      -280.9398
   5   2.0000     -10.320348      -280.8309
   6   2.0000     -10.308154      -280.4991
   7   2.0000     -10.300878      -280.3011
   8   2.0000     -10.296665      -280.1865
   9   2.0000     -10.295962      -280.1674
  10   2.0000     -10.290955      -280.0311
  11   2.0000     -10.288930      -279.9760
  12   2.0000     -10.288313      -279.9592
  13   2.0000     -10.287758      -279.9441
  14   2.0000     -10.278241      -279.6852
  15   2.0000     -10.264432      -279.3094
  16   2.0000      -8.079213      -219.8466
  17   2.0000      -8.077071      -219.7883
  18   2.0000      -6.038213      -164.3081
  19   2.0000      -6.035632      -164.2379
  20   2.0000      -6.034106      -164.1964
  21   2.0000      -6.031591      -164.1279
  22   2.0000      -6.029411      -164.0686
  23   2.0000      -6.027606      -164.0195
  24   2.0000      -1.006827       -27.3971
  25   2.0000      -0.978065       -26.6145
  26   2.0000      -0.919094       -25.0098
  27   2.0000      -0.911805       -24.8115
  28   2.0000      -0.874770       -23.8037
  29   2.0000      -0.852707       -23.2033
  30   2.0000      -0.839275       -22.8378
  31   2.0000      -0.816907       -22.2292
  32   2.0000      -0.785259       -21.3680
  33   2.0000      -0.776412       -21.1272
  34   2.0000      -0.714092       -19.4314
  35   2.0000      -0.704232       -19.1631
  36   2.0000      -0.697529       -18.9807
  37   2.0000      -0.657065       -17.8797
  38   2.0000      -0.631369       -17.1804
  39   2.0000      -0.624179       -16.9848
  40   2.0000      -0.601180       -16.3589
  41   2.0000      -0.580239       -15.7891
  42   2.0000      -0.574639       -15.6367
  43   2.0000      -0.563315       -15.3286
  44   2.0000      -0.542942       -14.7742
  45   2.0000      -0.528239       -14.3741
  46   2.0000      -0.522665       -14.2224
  47   2.0000      -0.513976       -13.9860
  48   2.0000      -0.505246       -13.7485
  49   2.0000      -0.497700       -13.5431
  50   2.0000      -0.488828       -13.3017
  51   2.0000      -0.480790       -13.0830
  52   2.0000      -0.473293       -12.8789
  53   2.0000      -0.470138       -12.7931
  54   2.0000      -0.454448       -12.3661
  55   2.0000      -0.449694       -12.2368
  56   2.0000      -0.447998       -12.1906
  57   2.0000      -0.437791       -11.9129
  58   2.0000      -0.437082       -11.8936
  59   2.0000      -0.430069       -11.7028
  60   2.0000      -0.419835       -11.4243
  61   2.0000      -0.417706       -11.3664
  62   2.0000      -0.409812       -11.1515
  63   2.0000      -0.357612        -9.7311
  64   2.0000      -0.327501        -8.9117
  65   2.0000      -0.324853        -8.8397
  66   2.0000      -0.290814        -7.9134
  67   0.0000       0.019545         0.5319
  68   0.0000       0.081570         2.2196
  69   0.0000       0.094337         2.5670
  70   0.0000       0.114368         3.1121
  71   0.0000       0.127382         3.4663

MULLIKEN ATOMIC CHARGES
-----------------------
   0 S :    0.093078
   1 C :   -0.114480
   2 C :   -0.131572
   3 C :    0.031038
   4 C :   -0.126705
   5 H :   -0.025380
   6 C :    0.057022
   7 H :    0.044377
   8 H :    0.013125
   9 C :   -0.054990
  10 H :    0.030025
  11 H :    0.031154
  12 C :    0.005775
  13 H :    0.028591
  14 H :    0.010053
  15 H :    0.020085
  16 S :    0.082786
  17 C :   -0.119186
  18 C :   -0.020622
  19 C :   -0.063228
  20 C :   -0.081720
  21 H :    0.012871
  22 C :    0.029303
  23 H :    0.048117
  24 H :    0.006982
  25 C :   -0.039327
  26 H :    0.024268
  27 H :    0.009988
  28 C :   -0.061684
  29 H :    0.038369
  30 H :    0.040311
  31 H :    0.040096
  32 H :    0.050135
  33 H :    0.091343
Sum of atomic charges:    0.0000000

LOEWDIN ATOMIC CHARGES
----------------------
   0 S :    0.356720
   1 C :   -0.190317
   2 C :   -0.062307
   3 C :   -0.060101
   4 C :   -0.171182
   5 H :    0.017831
   6 C :   -0.033461
   7 H :    0.036133
   8 H :    0.030184
   9 C :   -0.034161
  10 H :    0.027627
  11 H :    0.022091
  12 C :   -0.050108
  13 H :    0.024697
  14 H :    0.013062
  15 H :    0.026562
  16 S :    0.399354
  17 C :   -0.190605
  18 C :   -0.065640
  19 C :   -0.054906
  20 C :   -0.190351
  21 H :    0.024159
  22 C :   -0.034479
  23 H :    0.030722
  24 H :    0.019743
  25 C :   -0.026228
  26 H :    0.018611
  27 H :    0.007983
  28 C :   -0.060796
  29 H :    0.031021
  30 H :    0.027297
  31 H :    0.024580
  32 H :    0.039785
  33 H :    0.046478

  Mayer bond orders larger than 0.100000
B(  0-S ,  1-C ) :   1.0947 B(  0-S ,  4-C ) :   1.1107 B(  1-C ,  2-C ) :   1.6816
B(  1-C , 32-H ) :   0.9512 B(  2-C ,  3-C ) :   1.1936 B(  2-C ,  6-C ) :   1.0092
B(  3-C ,  4-C ) :   1.6049 B(  3-C ,  5-H ) :   0.9883 B(  4-C , 20-C ) :   1.0761
B(  6-C ,  7-H ) :   0.9343 B(  6-C ,  8-H ) :   0.9383 B(  6-C ,  9-C ) :   1.0784
B(  9-C , 10-H ) :   0.9509 B(  9-C , 11-H ) :   0.9531 B(  9-C , 12-C ) :   1.0797
B( 12-C , 13-H ) :   0.9713 B( 12-C , 14-H ) :   0.9772 B( 12-C , 15-H ) :   0.9699
B( 16-S , 17-C ) :   1.1495 B( 16-S , 20-C ) :   1.1382 B( 17-C , 18-C ) :   1.6010
B( 17-C , 33-H ) :   0.9622 B( 18-C , 19-C ) :   1.2225 B( 18-C , 21-H ) :   0.9996
B( 19-C , 20-C ) :   1.5920 B( 19-C , 22-C ) :   1.0550 B( 22-C , 23-H ) :   0.9220
B( 22-C , 24-H ) :   0.9263 B( 22-C , 25-C ) :   1.0578 B( 25-C , 26-H ) :   0.9587
B( 25-C , 27-H ) :   0.9539 B( 25-C , 28-C ) :   1.0802 B( 28-C , 29-H ) :   0.9750
B( 28-C , 30-H ) :   0.9788 B( 28-C , 31-H ) :   0.9756

Dispersion correction           -0.014275773
FINAL SINGLE POINT ENERGY     -1339.852666602447

DIPOLE MOMENT
-------------
                                X             Y             Z
Electronic contribution:    -15.16968      22.61555     -17.22962
Nuclear contribution   :     15.50807     -23.02805      17.97519
                        -----------------------------------------
Total Dipole Moment    :      0.33840      -0.41250       0.74557
                        -----------------------------------------
Magnitude (a.u.)       :      0.91681
Magnitude (Debye)      :      2.33035

Rotational constants in cm-1:     0.016032     0.010576     0.006708
Rotational constants in MHz :   480.640779   317.070985   201.093651

                             ****ORCA TERMINATED NORMALLY****
TOTAL RUN TIME: 0 days 0 hours 0 minutes 21 seconds 17 msec
