                         Program Version 4.2.1 -  RELEASE  -
|  1> ! wB97X-D3 SP def2-SVP
|  2> %pal
|  3> nprocs 24
|  4> end
|  5>
|  6> * xyz 0 1
|  7> S 	 -106.493 	 -0.364824 	 -115.303
|  8> C 	 -107.209 	 1.05116 	 -116.16
|  9> C 	 -107.917 	 1.86995 	 -115.253
| 10> C 	 -107.713 	 1.41246 	 -113.883
| 11> C 	 -107.025 	 0.253662 	 -113.763
| 12> H 	 -108.105 	 1.79915 	 -113
| 13> C 	 -108.618 	 3.10649 	 -115.584
| 14> H 	 -107.892 	 3.82556 	 -116.019
| 15> H 	 -108.985 	 3.64765 	 -114.685
| 16> C 	 -109.797 	 2.94782 	 -116.511
| 17> H 	 -109.444 	 2.37598 	 -117.361
| 18> H 	 -110.717 	 2.50241 	 -115.959
| 19> C 	 -110.356 	 4.20239 	 -117.072
| 20> H 	 -111.128 	 4.00664 	 -117.896
| 21> H 	 -110.889 	 4.73203 	 -116.283
| 22> H 	 -109.622 	 4.91493 	 -117.405
| 23> S 	 -108.31 	 -1.28039 	 -111.971
| 24> C 	 -107.547 	 -1.82135 	 -110.523
| 25> C 	 -106.284 	 -1.31585 	 -110.429
| 26> C 	 -105.889 	 -0.531422 	 -111.557
| 27> C 	 -106.897 	 -0.52033 	 -112.571
| 28> H 	 -105.709 	 -1.50278 	 -109.516
| 29> C 	 -104.666 	 0.372189 	 -111.601
| 30> H 	 -104.364 	 0.520601 	 -110.542
| 31> H 	 -105.106 	 1.33808 	 -111.914
| 32> C 	 -103.462 	 0.0110047 	 -112.49
| 33> H 	 -103.642 	 -0.163849 	 -113.571
| 34> H 	 -103.108 	 -0.924234 	 -112.06
| 35> C 	 -102.353 	 1.07705 	 -112.35
| 36> H 	 -102.82 	 2.06049 	 -112.413
| 37> H 	 -101.574 	 0.963165 	 -113.082
| 38> H 	 -101.955 	 0.939151 	 -111.382
| 39> H 	 -106.992 	 1.19548 	 -117.211
| 40> H 	 -108.115 	 -2.31531 	 -109.765
| 41> *
| 42>
| 43>                          ****END OF INPUT****

CARTESIAN COORDINATES (ANGSTROEM)
---------------------------------
  S    -106.493000   -0.364824  -115.303000
  C    -107.209000    1.051160  -116.160000
  C    -107.917000    1.869950  -115.253000
  C    -107.713000    1.412460  -113.883000
  C    -107.025000    0.253662  -113.763000
  H    -108.105000    1.799150  -113.000000
  C    -108.618000    3.106490  -115.584000
  H    -107.892000    3.825560  -116.019000
  H    -108.985000    3.647650  -114.685000
  C    -109.797000    2.947820  -116.511000
  H    -109.444000    2.375980  -117.361000
  H    -110.717000    2.502410  -115.959000
  C    -110.356000    4.202390  -117.072000
  H    -111.128000    4.006640  -117.896000
  H    -110.889000    4.732030  -116.283000
  H    -109.622000    4.914930  -117.405000
  S    -108.310000   -1.280390  -111.971000
  C    -107.547000   -1.821350  -110.523000
  C    -106.284000   -1.315850  -110.429000
  C    -105.889000   -0.531422  -111.557000
  C    -106.897000   -0.520330  -112.571000
  H    -105.709000   -1.502780  -109.516000
  C    -104.666000    0.372189  -111.601000
  H    -104.364000    0.520601  -110.542000
  H    -105.106000    1.338080  -111.914000
  C    -103.462000    0.011005  -112.490000
  H    -103.642000   -0.163849  -113.571000
  H    -103.108000   -0.924234  -112.060000
  C    -102.353000    1.077050  -112.350000
  H    -102.820000    2.060490  -112.413000
  H    -101.574000    0.963165  -113.082000
  H    -101.955000    0.939151  -111.382000
  H    -106.992000    1.195480  -117.211000
  H    -108.115000   -2.315310  -109.765000

 Total Charge           Charge          ....    0
 Multiplicity           Mult            ....    1
 Number of Electrons    NEL             ....  134
 Basis Dimension        Dim             ....  322

ORBITAL ENERGIES
----------------

  NO   OCC          E(Eh)            E(eV)
   0   2.0000     -88.963865     -2420.8298
   1   2.0000     -88.962793     -2420.8007
   2   2.0000     -10.322178      -280.8807
   3   2.0000     -10.321960      -280.8748
   4   2.0000     -10.319816      -280.8165
   5   2.0000     -10.311571      -280.5921
   6   2.0000     -10.308636      -280.5122
   7   2.0000     -10.306261      -280.4476
   8   2.0000     -10.293719      -280.1063
   9   2.0000     -10.293485      -280.1000
  10   2.0000     -10.292288      -280.0674
  11   2.0000     -10.289854      -280.0012
  12   2.0000     -10.287311      -279.9320
  13   2.0000     -10.283349      -279.8242
  14   2.0000     -10.277532      -279.6659
  15   2.0000     -10.269430      -279.4454
  16   2.0000      -8.078705      -219.8327
  17   2.0000      -8.077936      -219.8118
  18   2.0000      -6.036938      -164.2734
  19   2.0000      -6.036515      -164.2619
  20   2.0000      -6.032899      -164.1635
  21   2.0000      -6.032457      -164.1515
  22   2.0000      -6.029831      -164.0800
  23   2.0000      -6.028731      -164.0501
  24   2.0000      -1.009595       -27.4725
  25   2.0000      -0.982274       -26.7290
  26   2.0000      -0.922407       -25.1000
  27   2.0000      -0.904631       -24.6163
  28   2.0000      -0.874299       -23.7909
  29   2.0000      -0.851968       -23.1832
  30   2.0000      -0.848873       -23.0990
  31   2.0000      -0.816732       -22.2244
  32   2.0000      -0.782037       -21.2803
  33   2.0000      -0.766164       -20.8484
  34   2.0000      -0.703993       -19.1566
  35   2.0000      -0.696528       -18.9535
  36   2.0000      -0.689621       -18.7656
  37   2.0000      -0.658994       -17.9321
  38   2.0000      -0.650787       -17.7088
  39   2.0000      -0.615337       -16.7442
  40   2.0000      -0.594625       -16.1806
  41   2.0000      -0.580688       -15.8013
  42   2.0000      -0.566340       -15.4109
  43   2.0000      -0.560222       -15.2444
  44   2.0000      -0.530301       -14.4302
  45   2.0000      -0.524938       -14.2843
  46   2.0000      -0.520275       -14.1574
  47   2.0000      -0.515470       -14.0266
  48   2.0000      -0.513245       -13.9661
  49   2.0000      -0.499196       -13.5838
  50   2.0000      -0.493120       -13.4185
  51   2.0000      -0.475494       -12.9388
  52   2.0000      -0.474271       -12.9056
  53   2.0000      -0.460993       -12.5443
  54   2.0000      -0.452570       -12.3151
  55   2.0000      -0.445776       -12.1302
  56   2.0000      -0.439927       -11.9710
  57   2.0000      -0.437665       -11.9095
  58   2.0000      -0.429098       -11.6764
  59   2.0000      -0.424679       -11.5561
  60   2.0000      -0.419161       -11.4060
  61   2.0000      -0.414047       -11.2668
  62   2.0000      -0.412658       -11.2290
  63   2.0000      -0.337248        -9.1770
  64   2.0000      -0.328241        -8.9319
  65   2.0000      -0.318019        -8.6537
  66   2.0000      -0.307382        -8.3643
  67   0.0000       0.040099         1.0912
  68   0.0000       0.054373         1.4796
  69   0.0000       0.110867         3.0168
  70   0.0000       0.112386         3.0582
  71   0.0000       0.127523         3.4701

MULLIKEN ATOMIC CHARGES
-----------------------
   0 S :    0.103967
   1 C :   -0.141838
   2 C :   -0.038304
   3 C :    0.066626
   4 C :   -0.167052
   5 H :   -0.015435
   6 C :    0.036057
   7 H :    0.039590
   8 H :    0.020870
   9 C :   -0.089373
  10 H :    0.027834
  11 H :    0.049052
  12 C :   -0.052431
  13 H :    0.049347
  14 H :    0.018268
  15 H :    0.019287
  16 S :    0.120056
  17 C :   -0.095103
  18 C :   -0.037056
  19 C :   -0.021060
  20 C :   -0.174202
  21 H :    0.023664
  22 C :    0.039823
  23 H :    0.020602
  24 H :    0.029032
  25 C :   -0.069362
  26 H :    0.038879
  27 H :    0.021183
  28 C :   -0.013873
  29 H :    0.027826
  30 H :    0.033627
  31 H :    0.016181
  32 H :    0.059425
  33 H :    0.053892
Sum of atomic charges:   -0.0000000

LOEWDIN ATOMIC CHARGES
----------------------
   0 S :    0.391295
   1 C :   -0.179007
   2 C :   -0.052971
   3 C :   -0.052102
   4 C :   -0.201989
   5 H :    0.021735
   6 C :   -0.045622
   7 H :    0.038552
   8 H :    0.032647
   9 C :   -0.047411
  10 H :    0.021312
  11 H :    0.040675
  12 C :   -0.072604
  13 H :    0.037668
  14 H :    0.021262
  15 H :    0.017173
  16 S :    0.443987
  17 C :   -0.192352
  18 C :   -0.079276
  19 C :   -0.050155
  20 C :   -0.225272
  21 H :    0.035279
  22 C :   -0.036820
  23 H :    0.033055
  24 H :    0.032669
  25 C :   -0.039860
  26 H :    0.024379
  27 H :    0.021466
  28 C :   -0.056689
  29 H :    0.025226
  30 H :    0.024105
  31 H :    0.018252
  32 H :    0.026008
  33 H :    0.025384

  Mayer bond orders larger than 0.100000
B(  0-S ,  1-C ) :   1.1350 B(  0-S ,  4-C ) :   1.1391 B(  1-C ,  2-C ) :   1.5908
B(  1-C , 32-H ) :   0.9751 B(  2-C ,  3-C ) :   1.2072 B(  2-C ,  6-C ) :   1.0371
B(  3-C ,  4-C ) :   1.6204 B(  3-C ,  5-H ) :   1.0039 B(  4-C , 20-C ) :   1.0145
B(  6-C ,  7-H ) :   0.9334 B(  6-C ,  8-H ) :   0.9381 B(  6-C ,  9-C ) :   1.0695
B(  9-C , 10-H ) :   0.9571 B(  9-C , 11-H ) :   0.9518 B(  9-C , 12-C ) :   1.0899
B( 12-C , 13-H ) :   0.9721 B( 12-C , 14-H ) :   0.9713 B( 12-C , 15-H ) :   0.9703
B( 16-S , 17-C ) :   1.1835 B( 16-S , 20-C ) :   1.1784 B( 17-C , 18-C ) :   1.5631
B( 17-C , 20-C ) :   0.1040 B( 17-C , 33-H ) :   0.9720 B( 18-C , 19-C ) :   1.2853
B( 18-C , 21-H ) :   0.9915 B( 19-C , 20-C ) :   1.5340 B( 19-C , 22-C ) :   1.0339
B( 22-C , 23-H ) :   0.9414 B( 22-C , 24-H ) :   0.9260 B( 22-C , 25-C ) :   1.0588
B( 25-C , 26-H ) :   0.9573 B( 25-C , 27-H ) :   0.9560 B( 25-C , 28-C ) :   1.0765
B( 28-C , 29-H ) :   0.9762 B( 28-C , 30-H ) :   0.9758 B( 28-C , 31-H ) :   0.9763

Dispersion correction           -0.013848673
FINAL SINGLE POINT ENERGY     -1339.877722107517

DIPOLE MOMENT
-------------
                                X             Y             Z
Electronic contribution:     -5.00402     -19.29265       5.15661
Nuclear contribution   :      5.00071      19.85218      -4.94748
                        -----------------------------------------
Total Dipole Moment    :     -0.00332       0.55953       0.20912
                        -----------------------------------------
Magnitude (a.u.)       :      0.59734
Magnitude (Debye)      :      1.51832

Rotational constants in cm-1:     0.019782     0.007730     0.006404
Rotational constants in MHz :   593.064223   231.736994   191.974631

                             ****ORCA TERMINATED NORMALLY****
TOTAL RUN TIME: 0 days 0 hours 0 minutes 19 seconds 943 msec
