                         Program Version 4.2.1 -  RELEASE  -
|  1> ! wB97X-D3 SP def2-SVP
|  2> %pal
|  3> nprocs 24
|  4> end
|  5>
|  6> * xyz 0 1
|  7> S 	 -106.228 	 59.5162 	 -4.76641
|  8> C 	 -105.459 	 60.0981 	 -6.24648
|  9> C 	 -106.315 	 60.1154 	 -7.36188
| 10> C 	 -107.657 	 59.8871 	 -6.99345
| 11> C 	 -107.786 	 59.731 	 -5.64235
| 12> H 	 -108.45 	 59.8167 	 -7.72948
| 13> C 	 -105.99 	 60.4248 	 -8.81856
| 14> H 	 -104.933 	 60.3461 	 -8.90451
| 15> H 	 -106.357 	 61.4785 	 -8.92175
| 16> C 	 -106.741 	 59.8418 	 -10.0249
| 17> H 	 -106.745 	 58.7227 	 -10.006
| 18> H 	 -107.799 	 59.9309 	 -10.0413
| 19> C 	 -106.06 	 60.2701 	 -11.3316
| 20> H 	 -106.494 	 59.9027 	 -12.2903
| 21> H 	 -106.15 	 61.3951 	 -11.412
| 22> H 	 -105.014 	 60.1428 	 -11.4495
| 23> S 	 -109.386 	 57.7729 	 -4.52332
| 24> C 	 -111.047 	 58.1904 	 -4.16609
| 25> C 	 -111.402 	 59.4488 	 -4.53431
| 26> C 	 -110.308 	 60.1466 	 -5.12981
| 27> C 	 -109.117 	 59.4004 	 -5.04168
| 28> H 	 -112.416 	 59.7788 	 -4.4159
| 29> C 	 -110.391 	 61.5889 	 -5.58985
| 30> H 	 -109.368 	 61.9669 	 -5.64077
| 31> H 	 -110.848 	 62.1216 	 -4.74792
| 32> C 	 -111.16 	 61.8927 	 -6.84587
| 33> H 	 -112.095 	 61.459 	 -6.69686
| 34> H 	 -110.727 	 61.3111 	 -7.67452
| 35> C 	 -111.371 	 63.4038 	 -7.0661
| 36> H 	 -112.082 	 63.5175 	 -7.97316
| 37> H 	 -110.39 	 63.8109 	 -7.31623
| 38> H 	 -111.841 	 63.977 	 -6.21785
| 39> H 	 -104.426 	 60.2895 	 -6.37835
| 40> H 	 -111.766 	 57.5238 	 -3.70308
| 41> *
| 42>
| 43>                          ****END OF INPUT****

CARTESIAN COORDINATES (ANGSTROEM)
---------------------------------
  S    -106.228000   59.516200   -4.766410
  C    -105.459000   60.098100   -6.246480
  C    -106.315000   60.115400   -7.361880
  C    -107.657000   59.887100   -6.993450
  C    -107.786000   59.731000   -5.642350
  H    -108.450000   59.816700   -7.729480
  C    -105.990000   60.424800   -8.818560
  H    -104.933000   60.346100   -8.904510
  H    -106.357000   61.478500   -8.921750
  C    -106.741000   59.841800  -10.024900
  H    -106.745000   58.722700  -10.006000
  H    -107.799000   59.930900  -10.041300
  C    -106.060000   60.270100  -11.331600
  H    -106.494000   59.902700  -12.290300
  H    -106.150000   61.395100  -11.412000
  H    -105.014000   60.142800  -11.449500
  S    -109.386000   57.772900   -4.523320
  C    -111.047000   58.190400   -4.166090
  C    -111.402000   59.448800   -4.534310
  C    -110.308000   60.146600   -5.129810
  C    -109.117000   59.400400   -5.041680
  H    -112.416000   59.778800   -4.415900
  C    -110.391000   61.588900   -5.589850
  H    -109.368000   61.966900   -5.640770
  H    -110.848000   62.121600   -4.747920
  C    -111.160000   61.892700   -6.845870
  H    -112.095000   61.459000   -6.696860
  H    -110.727000   61.311100   -7.674520
  C    -111.371000   63.403800   -7.066100
  H    -112.082000   63.517500   -7.973160
  H    -110.390000   63.810900   -7.316230
  H    -111.841000   63.977000   -6.217850
  H    -104.426000   60.289500   -6.378350
  H    -111.766000   57.523800   -3.703080

 Total Charge           Charge          ....    0
 Multiplicity           Mult            ....    1
 Number of Electrons    NEL             ....  134
 Basis Dimension        Dim             ....  322

ORBITAL ENERGIES
----------------

  NO   OCC          E(Eh)            E(eV)
   0   2.0000     -88.972789     -2421.0727
   1   2.0000     -88.964279     -2420.8411
   2   2.0000     -10.331035      -281.1218
   3   2.0000     -10.322743      -280.8961
   4   2.0000     -10.314126      -280.6616
   5   2.0000     -10.311008      -280.5768
   6   2.0000     -10.301976      -280.3310
   7   2.0000     -10.300194      -280.2825
   8   2.0000     -10.297934      -280.2210
   9   2.0000     -10.296644      -280.1859
  10   2.0000     -10.291089      -280.0348
  11   2.0000     -10.290742      -280.0253
  12   2.0000     -10.288479      -279.9638
  13   2.0000     -10.286792      -279.9178
  14   2.0000     -10.283343      -279.8240
  15   2.0000     -10.280745      -279.7533
  16   2.0000      -8.086128      -220.0347
  17   2.0000      -8.079488      -219.8540
  18   2.0000      -6.044721      -164.4852
  19   2.0000      -6.041235      -164.3904
  20   2.0000      -6.037853      -164.2983
  21   2.0000      -6.036496      -164.2614
  22   2.0000      -6.034101      -164.1962
  23   2.0000      -6.030214      -164.0905
  24   2.0000      -1.003366       -27.3030
  25   2.0000      -0.982046       -26.7228
  26   2.0000      -0.912900       -24.8413
  27   2.0000      -0.910936       -24.7878
  28   2.0000      -0.865535       -23.5524
  29   2.0000      -0.854221       -23.2445
  30   2.0000      -0.848055       -23.0768
  31   2.0000      -0.813430       -22.1345
  32   2.0000      -0.779595       -21.2138
  33   2.0000      -0.766434       -20.8557
  34   2.0000      -0.715304       -19.4644
  35   2.0000      -0.701124       -19.0786
  36   2.0000      -0.693480       -18.8705
  37   2.0000      -0.656547       -17.8655
  38   2.0000      -0.636182       -17.3114
  39   2.0000      -0.626076       -17.0364
  40   2.0000      -0.594100       -16.1663
  41   2.0000      -0.570915       -15.5354
  42   2.0000      -0.567269       -15.4362
  43   2.0000      -0.560053       -15.2398
  44   2.0000      -0.525097       -14.2886
  45   2.0000      -0.518956       -14.1215
  46   2.0000      -0.513688       -13.9782
  47   2.0000      -0.509305       -13.8589
  48   2.0000      -0.503467       -13.7000
  49   2.0000      -0.490551       -13.3486
  50   2.0000      -0.486690       -13.2435
  51   2.0000      -0.480256       -13.0684
  52   2.0000      -0.474196       -12.9035
  53   2.0000      -0.464276       -12.6336
  54   2.0000      -0.458207       -12.4684
  55   2.0000      -0.455220       -12.3872
  56   2.0000      -0.453245       -12.3334
  57   2.0000      -0.439671       -11.9641
  58   2.0000      -0.437017       -11.8918
  59   2.0000      -0.432665       -11.7734
  60   2.0000      -0.420382       -11.4392
  61   2.0000      -0.415235       -11.2991
  62   2.0000      -0.405419       -11.0320
  63   2.0000      -0.345117        -9.3911
  64   2.0000      -0.331010        -9.0072
  65   2.0000      -0.322291        -8.7700
  66   2.0000      -0.291891        -7.9427
  67   0.0000       0.033226         0.9041
  68   0.0000       0.063867         1.7379
  69   0.0000       0.101348         2.7578
  70   0.0000       0.119775         3.2592
  71   0.0000       0.124631         3.3914

MULLIKEN ATOMIC CHARGES
-----------------------
   0 S :    0.116920
   1 C :   -0.102820
   2 C :   -0.070429
   3 C :    0.023120
   4 C :   -0.152868
   5 H :    0.019084
   6 C :    0.047669
   7 H :    0.019691
   8 H :    0.051068
   9 C :   -0.055089
  10 H :    0.024883
  11 H :    0.023838
  12 C :   -0.063285
  13 H :    0.039812
  14 H :    0.022172
  15 H :    0.028043
  16 S :    0.114031
  17 C :   -0.092331
  18 C :   -0.019569
  19 C :   -0.040147
  20 C :   -0.158083
  21 H :    0.013447
  22 C :    0.042300
  23 H :    0.025740
  24 H :    0.021872
  25 C :   -0.035641
  26 H :    0.001703
  27 H :    0.023392
  28 C :   -0.075028
  29 H :    0.046406
  30 H :    0.037378
  31 H :    0.049363
  32 H :    0.024370
  33 H :    0.048986
Sum of atomic charges:    0.0000000

LOEWDIN ATOMIC CHARGES
----------------------
   0 S :    0.382375
   1 C :   -0.193372
   2 C :   -0.056398
   3 C :   -0.053630
   4 C :   -0.176670
   5 H :    0.033133
   6 C :   -0.032772
   7 H :    0.026146
   8 H :    0.047114
   9 C :   -0.046783
  10 H :    0.025596
  11 H :    0.020575
  12 C :   -0.069024
  13 H :    0.032542
  14 H :    0.028284
  15 H :    0.021054
  16 S :    0.410064
  17 C :   -0.184509
  18 C :   -0.069676
  19 C :   -0.056865
  20 C :   -0.206594
  21 H :    0.031437
  22 C :   -0.036071
  23 H :    0.028098
  24 H :    0.031654
  25 C :   -0.042549
  26 H :    0.012818
  27 H :    0.025650
  28 C :   -0.069228
  29 H :    0.035969
  30 H :    0.024340
  31 H :    0.033029
  32 H :    0.017161
  33 H :    0.027101

  Mayer bond orders larger than 0.100000
B(  0-S ,  1-C ) :   1.1205 B(  0-S ,  4-C ) :   1.1366 B(  1-C ,  2-C ) :   1.6296
B(  1-C , 32-H ) :   0.9678 B(  2-C ,  3-C ) :   1.2328 B(  2-C ,  6-C ) :   1.0200
B(  3-C ,  4-C ) :   1.5826 B(  3-C ,  5-H ) :   0.9943 B(  4-C , 20-C ) :   1.0087
B(  6-C ,  7-H ) :   0.9472 B(  6-C ,  8-H ) :   0.9346 B(  6-C ,  9-C ) :   1.0520
B(  9-C , 10-H ) :   0.9520 B(  9-C , 11-H ) :   0.9473 B(  9-C , 12-C ) :   1.0764
B( 12-C , 13-H ) :   0.9732 B( 12-C , 14-H ) :   0.9737 B( 12-C , 15-H ) :   0.9782
B( 16-S , 17-C ) :   1.1461 B( 16-S , 20-C ) :   1.1562 B( 17-C , 18-C ) :   1.6345
B( 17-C , 33-H ) :   0.9633 B( 18-C , 19-C ) :   1.2249 B( 18-C , 21-H ) :   0.9938
B( 19-C , 20-C ) :   1.6026 B( 19-C , 22-C ) :   1.0435 B( 22-C , 23-H ) :   0.9327
B( 22-C , 24-H ) :   0.9375 B( 22-C , 25-C ) :   1.0655 B( 25-C , 26-H ) :   0.9507
B( 25-C , 27-H ) :   0.9493 B( 25-C , 28-C ) :   1.0762 B( 28-C , 29-H ) :   0.9747
B( 28-C , 30-H ) :   0.9767 B( 28-C , 31-H ) :   0.9728

Dispersion correction           -0.013972507
FINAL SINGLE POINT ENERGY     -1339.859639861875

DIPOLE MOMENT
-------------
                                X             Y             Z
Electronic contribution:      5.58174     -17.29364      25.74226
Nuclear contribution   :     -5.83619      17.56075     -26.38245
                        -----------------------------------------
Total Dipole Moment    :     -0.25445       0.26712      -0.64019
                        -----------------------------------------
Magnitude (a.u.)       :      0.73887
Magnitude (Debye)      :      1.87807

Rotational constants in cm-1:     0.015299     0.009195     0.006912
Rotational constants in MHz :   458.649853   275.655972   207.212188

                             ****ORCA TERMINATED NORMALLY****
TOTAL RUN TIME: 0 days 0 hours 0 minutes 21 seconds 538 msec
