                         Program Version 4.2.1 -  RELEASE  -
|  1> ! wB97X-D3 SP def2-SVP
|  2> %pal
|  3> nprocs 24
|  4> end
|  5>
|  6> * xyz 0 1
|  7> S 	 -70.0719 	 9.03667 	 -80.6637
|  8> C 	 -69.8065 	 7.61527 	 -81.6764
|  9> C 	 -70.131 	 6.45917 	 -80.9475
| 10> C 	 -70.4937 	 6.74449 	 -79.589
| 11> C 	 -70.5414 	 8.07126 	 -79.298
| 12> H 	 -70.7064 	 6.10606 	 -78.7371
| 13> C 	 -70.0095 	 4.98032 	 -81.3243
| 14> H 	 -69.1935 	 4.54362 	 -80.771
| 15> H 	 -69.5933 	 4.86358 	 -82.3577
| 16> C 	 -71.3169 	 4.14248 	 -80.8863
| 17> H 	 -71.1036 	 3.10628 	 -81.1148
| 18> H 	 -71.3424 	 4.17166 	 -79.7943
| 19> C 	 -72.6226 	 4.61851 	 -81.5841
| 20> H 	 -72.8308 	 5.69213 	 -81.5754
| 21> H 	 -72.5774 	 4.24118 	 -82.6158
| 22> H 	 -73.4747 	 4.16505 	 -81.1361
| 23> S 	 -72.1582 	 9.60272 	 -77.7031
| 24> C 	 -71.7686 	 9.71475 	 -76.0008
| 25> C 	 -70.6099 	 9.04025 	 -75.7716
| 26> C 	 -69.9469 	 8.50261 	 -76.9038
| 27> C 	 -70.6667 	 8.71286 	 -78.049
| 28> H 	 -70.3226 	 8.94223 	 -74.7526
| 29> C 	 -68.587 	 7.67778 	 -76.7437
| 30> H 	 -67.8751 	 8.27172 	 -76.1831
| 31> H 	 -68.1447 	 7.61991 	 -77.7422
| 32> C 	 -68.6092 	 6.23704 	 -76.1603
| 33> H 	 -69.3231 	 5.71581 	 -76.737
| 34> H 	 -69.0648 	 6.28841 	 -75.1723
| 35> C 	 -67.2841 	 5.52836 	 -76.1947
| 36> H 	 -66.5856 	 6.0997 	 -75.6002
| 37> H 	 -66.9354 	 5.49603 	 -77.2163
| 38> H 	 -67.3433 	 4.52047 	 -75.8384
| 39> H 	 -69.2995 	 7.64859 	 -82.5719
| 40> H 	 -72.3996 	 10.1417 	 -75.2725
| 41> *
| 42>
| 43>                          ****END OF INPUT****

CARTESIAN COORDINATES (ANGSTROEM)
---------------------------------
  S    -70.071900    9.036670  -80.663700
  C    -69.806500    7.615270  -81.676400
  C    -70.131000    6.459170  -80.947500
  C    -70.493700    6.744490  -79.589000
  C    -70.541400    8.071260  -79.298000
  H    -70.706400    6.106060  -78.737100
  C    -70.009500    4.980320  -81.324300
  H    -69.193500    4.543620  -80.771000
  H    -69.593300    4.863580  -82.357700
  C    -71.316900    4.142480  -80.886300
  H    -71.103600    3.106280  -81.114800
  H    -71.342400    4.171660  -79.794300
  C    -72.622600    4.618510  -81.584100
  H    -72.830800    5.692130  -81.575400
  H    -72.577400    4.241180  -82.615800
  H    -73.474700    4.165050  -81.136100
  S    -72.158200    9.602720  -77.703100
  C    -71.768600    9.714750  -76.000800
  C    -70.609900    9.040250  -75.771600
  C    -69.946900    8.502610  -76.903800
  C    -70.666700    8.712860  -78.049000
  H    -70.322600    8.942230  -74.752600
  C    -68.587000    7.677780  -76.743700
  H    -67.875100    8.271720  -76.183100
  H    -68.144700    7.619910  -77.742200
  C    -68.609200    6.237040  -76.160300
  H    -69.323100    5.715810  -76.737000
  H    -69.064800    6.288410  -75.172300
  C    -67.284100    5.528360  -76.194700
  H    -66.585600    6.099700  -75.600200
  H    -66.935400    5.496030  -77.216300
  H    -67.343300    4.520470  -75.838400
  H    -69.299500    7.648590  -82.571900
  H    -72.399600   10.141700  -75.272500

 Total Charge           Charge          ....    0
 Multiplicity           Mult            ....    1
 Number of Electrons    NEL             ....  134
 Basis Dimension        Dim             ....  322

ORBITAL ENERGIES
----------------

  NO   OCC          E(Eh)            E(eV)
   0   2.0000     -88.962000     -2420.7791
   1   2.0000     -88.961226     -2420.7580
   2   2.0000     -10.322271      -280.8833
   3   2.0000     -10.319407      -280.8053
   4   2.0000     -10.313645      -280.6486
   5   2.0000     -10.313194      -280.6363
   6   2.0000     -10.307505      -280.4815
   7   2.0000     -10.307143      -280.4716
   8   2.0000     -10.298687      -280.2415
   9   2.0000     -10.296455      -280.1808
  10   2.0000     -10.295762      -280.1619
  11   2.0000     -10.291610      -280.0489
  12   2.0000     -10.287691      -279.9423
  13   2.0000     -10.282716      -279.8069
  14   2.0000     -10.276173      -279.6289
  15   2.0000     -10.274839      -279.5926
  16   2.0000      -8.076835      -219.7819
  17   2.0000      -8.076285      -219.7669
  18   2.0000      -6.035342      -164.2300
  19   2.0000      -6.034786      -164.2149
  20   2.0000      -6.031342      -164.1212
  21   2.0000      -6.030662      -164.1027
  22   2.0000      -6.027563      -164.0183
  23   2.0000      -6.027110      -164.0060
  24   2.0000      -1.010223       -27.4896
  25   2.0000      -0.983286       -26.7566
  26   2.0000      -0.906903       -24.6781
  27   2.0000      -0.902732       -24.5646
  28   2.0000      -0.873506       -23.7693
  29   2.0000      -0.850678       -23.1481
  30   2.0000      -0.841351       -22.8943
  31   2.0000      -0.815495       -22.1907
  32   2.0000      -0.784178       -21.3386
  33   2.0000      -0.775275       -21.0963
  34   2.0000      -0.712389       -19.3851
  35   2.0000      -0.702155       -19.1066
  36   2.0000      -0.698444       -19.0056
  37   2.0000      -0.661133       -17.9904
  38   2.0000      -0.650377       -17.6976
  39   2.0000      -0.618625       -16.8336
  40   2.0000      -0.597569       -16.2607
  41   2.0000      -0.569731       -15.5032
  42   2.0000      -0.562063       -15.2945
  43   2.0000      -0.543534       -14.7903
  44   2.0000      -0.535025       -14.5588
  45   2.0000      -0.528616       -14.3844
  46   2.0000      -0.523073       -14.2335
  47   2.0000      -0.518743       -14.1157
  48   2.0000      -0.509903       -13.8752
  49   2.0000      -0.497327       -13.5330
  50   2.0000      -0.488354       -13.2888
  51   2.0000      -0.478073       -13.0090
  52   2.0000      -0.469915       -12.7870
  53   2.0000      -0.465314       -12.6618
  54   2.0000      -0.460108       -12.5202
  55   2.0000      -0.446187       -12.1414
  56   2.0000      -0.445434       -12.1209
  57   2.0000      -0.432185       -11.7604
  58   2.0000      -0.430844       -11.7239
  59   2.0000      -0.426747       -11.6124
  60   2.0000      -0.421900       -11.4805
  61   2.0000      -0.419025       -11.4023
  62   2.0000      -0.414647       -11.2831
  63   2.0000      -0.339262        -9.2318
  64   2.0000      -0.332319        -9.0428
  65   2.0000      -0.327461        -8.9107
  66   2.0000      -0.302116        -8.2210
  67   0.0000       0.040347         1.0979
  68   0.0000       0.058901         1.6028
  69   0.0000       0.114808         3.1241
  70   0.0000       0.123300         3.3552
  71   0.0000       0.127394         3.4666

MULLIKEN ATOMIC CHARGES
-----------------------
   0 S :    0.100331
   1 C :   -0.095537
   2 C :   -0.072999
   3 C :    0.020261
   4 C :   -0.163468
   5 H :    0.018192
   6 C :    0.050114
   7 H :    0.028894
   8 H :    0.022141
   9 C :   -0.088974
  10 H :    0.028697
  11 H :    0.032474
  12 C :   -0.032895
  13 H :    0.051957
  14 H :    0.033171
  15 H :    0.024324
  16 S :    0.098096
  17 C :   -0.076039
  18 C :   -0.034217
  19 C :    0.001856
  20 C :   -0.171723
  21 H :    0.006559
  22 C :    0.048113
  23 H :    0.021742
  24 H :    0.024989
  25 C :   -0.043123
  26 H :    0.000204
  27 H :    0.020641
  28 C :   -0.013052
  29 H :    0.026882
  30 H :    0.027009
  31 H :    0.035507
  32 H :    0.024518
  33 H :    0.045355
Sum of atomic charges:    0.0000000

LOEWDIN ATOMIC CHARGES
----------------------
   0 S :    0.405364
   1 C :   -0.183483
   2 C :   -0.057783
   3 C :   -0.060652
   4 C :   -0.199554
   5 H :    0.033840
   6 C :   -0.037152
   7 H :    0.030059
   8 H :    0.030114
   9 C :   -0.033211
  10 H :    0.023903
  11 H :    0.020769
  12 C :   -0.065368
  13 H :    0.031007
  14 H :    0.029890
  15 H :    0.021899
  16 S :    0.394515
  17 C :   -0.173575
  18 C :   -0.071498
  19 C :   -0.049671
  20 C :   -0.201065
  21 H :    0.025942
  22 C :   -0.024757
  23 H :    0.025955
  24 H :    0.029281
  25 C :   -0.039413
  26 H :    0.012706
  27 H :    0.021347
  28 C :   -0.055035
  29 H :    0.024820
  30 H :    0.026665
  31 H :    0.027346
  32 H :    0.012974
  33 H :    0.023819

  Mayer bond orders larger than 0.100000
B(  0-S ,  1-C ) :   1.1381 B(  0-S ,  4-C ) :   1.1512 B(  1-C ,  2-C ) :   1.6060
B(  1-C , 32-H ) :   0.9833 B(  2-C ,  3-C ) :   1.1944 B(  2-C ,  6-C ) :   1.0246
B(  3-C ,  4-C ) :   1.6286 B(  3-C ,  5-H ) :   0.9937 B(  4-C , 20-C ) :   1.0030
B(  6-C ,  7-H ) :   0.9406 B(  6-C ,  8-H ) :   0.9481 B(  6-C ,  9-C ) :   1.0547
B(  9-C , 10-H ) :   0.9576 B(  9-C , 11-H ) :   0.9569 B(  9-C , 12-C ) :   1.0679
B( 12-C , 13-H ) :   0.9765 B( 12-C , 14-H ) :   0.9764 B( 12-C , 15-H ) :   0.9741
B( 16-S , 17-C ) :   1.1439 B( 16-S , 20-C ) :   1.1410 B( 17-C , 18-C ) :   1.6229
B( 17-C , 33-H ) :   0.9750 B( 18-C , 19-C ) :   1.2230 B( 18-C , 21-H ) :   0.9968
B( 19-C , 20-C ) :   1.6200 B( 19-C , 22-C ) :   1.0284 B( 22-C , 23-H ) :   0.9406
B( 22-C , 24-H ) :   0.9358 B( 22-C , 25-C ) :   1.0614 B( 25-C , 26-H ) :   0.9489
B( 25-C , 27-H ) :   0.9509 B( 25-C , 28-C ) :   1.0910 B( 28-C , 29-H ) :   0.9751
B( 28-C , 30-H ) :   0.9720 B( 28-C , 31-H ) :   0.9708

Dispersion correction           -0.014896277
FINAL SINGLE POINT ENERGY     -1339.876282060243

DIPOLE MOMENT
-------------
                                X             Y             Z
Electronic contribution:     -8.11923      25.39259      -2.45069
Nuclear contribution   :      8.44200     -26.15299       2.79826
                        -----------------------------------------
Total Dipole Moment    :      0.32277      -0.76040       0.34757
                        -----------------------------------------
Magnitude (a.u.)       :      0.89621
Magnitude (Debye)      :      2.27798

Rotational constants in cm-1:     0.015922     0.009853     0.007781
Rotational constants in MHz :   477.328775   295.373740   233.280732

                             ****ORCA TERMINATED NORMALLY****
TOTAL RUN TIME: 0 days 0 hours 0 minutes 21 seconds 43 msec
