                         Program Version 4.2.1 -  RELEASE  -
|  1> ! wB97X-D3 SP def2-SVP
|  2> %pal
|  3> nprocs 24
|  4> end
|  5>
|  6> * xyz 0 1
|  7> S 	 -46.4118 	 -4.09934 	 -18.0441
|  8> C 	 -47.3119 	 -4.00887 	 -16.5592
|  9> C 	 -46.4628 	 -4.34193 	 -15.4855
| 10> C 	 -45.0674 	 -4.35839 	 -15.9094
| 11> C 	 -44.8933 	 -4.08212 	 -17.197
| 12> H 	 -44.2301 	 -4.57008 	 -15.2611
| 13> C 	 -46.8751 	 -4.74333 	 -14.0464
| 14> H 	 -46.3732 	 -5.70667 	 -13.6963
| 15> H 	 -47.9302 	 -4.87609 	 -14.0065
| 16> C 	 -46.5236 	 -3.59671 	 -13.0068
| 17> H 	 -46.9981 	 -2.66544 	 -13.1664
| 18> H 	 -46.9597 	 -3.88681 	 -12.0163
| 19> C 	 -44.9467 	 -3.38607 	 -12.7768
| 20> H 	 -44.3181 	 -4.2801 	 -12.7374
| 21> H 	 -44.5967 	 -2.82008 	 -13.6726
| 22> H 	 -44.7892 	 -2.7377 	 -11.8995
| 23> S 	 -43.3283 	 -5.22624 	 -19.3037
| 24> C 	 -41.6847 	 -4.48136 	 -19.6124
| 25> C 	 -41.3478 	 -3.58689 	 -18.6333
| 26> C 	 -42.4418 	 -3.30165 	 -17.7348
| 27> C 	 -43.6549 	 -4.01794 	 -18.0067
| 28> H 	 -40.4169 	 -3.01568 	 -18.5986
| 29> C 	 -42.3993 	 -2.25055 	 -16.5867
| 30> H 	 -42.2474 	 -2.76719 	 -15.5942
| 31> H 	 -43.3258 	 -1.78593 	 -16.5083
| 32> C 	 -41.3929 	 -1.08324 	 -16.7076
| 33> H 	 -40.2999 	 -1.43908 	 -16.8231
| 34> H 	 -41.4446 	 -0.631409 	 -15.7721
| 35> C 	 -41.7952 	 0.128628 	 -17.5108
| 36> H 	 -42.1017 	 -0.116104 	 -18.5455
| 37> H 	 -41.0551 	 0.937631 	 -17.6499
| 38> H 	 -42.6372 	 0.694605 	 -17.0868
| 39> H 	 -48.3731 	 -4.06453 	 -16.4642
| 40> H 	 -40.9604 	 -4.75973 	 -20.3704
| 41> *
| 42>
| 43>                          ****END OF INPUT****

CARTESIAN COORDINATES (ANGSTROEM)
---------------------------------
  S    -46.411800   -4.099340  -18.044100
  C    -47.311900   -4.008870  -16.559200
  C    -46.462800   -4.341930  -15.485500
  C    -45.067400   -4.358390  -15.909400
  C    -44.893300   -4.082120  -17.197000
  H    -44.230100   -4.570080  -15.261100
  C    -46.875100   -4.743330  -14.046400
  H    -46.373200   -5.706670  -13.696300
  H    -47.930200   -4.876090  -14.006500
  C    -46.523600   -3.596710  -13.006800
  H    -46.998100   -2.665440  -13.166400
  H    -46.959700   -3.886810  -12.016300
  C    -44.946700   -3.386070  -12.776800
  H    -44.318100   -4.280100  -12.737400
  H    -44.596700   -2.820080  -13.672600
  H    -44.789200   -2.737700  -11.899500
  S    -43.328300   -5.226240  -19.303700
  C    -41.684700   -4.481360  -19.612400
  C    -41.347800   -3.586890  -18.633300
  C    -42.441800   -3.301650  -17.734800
  C    -43.654900   -4.017940  -18.006700
  H    -40.416900   -3.015680  -18.598600
  C    -42.399300   -2.250550  -16.586700
  H    -42.247400   -2.767190  -15.594200
  H    -43.325800   -1.785930  -16.508300
  C    -41.392900   -1.083240  -16.707600
  H    -40.299900   -1.439080  -16.823100
  H    -41.444600   -0.631409  -15.772100
  C    -41.795200    0.128628  -17.510800
  H    -42.101700   -0.116104  -18.545500
  H    -41.055100    0.937631  -17.649900
  H    -42.637200    0.694605  -17.086800
  H    -48.373100   -4.064530  -16.464200
  H    -40.960400   -4.759730  -20.370400

 Total Charge           Charge          ....    0
 Multiplicity           Mult            ....    1
 Number of Electrons    NEL             ....  134
 Basis Dimension        Dim             ....  322

ORBITAL ENERGIES
----------------

  NO   OCC          E(Eh)            E(eV)
   0   2.0000     -88.967876     -2420.9390
   1   2.0000     -88.962700     -2420.7981
   2   2.0000     -10.334949      -281.2283
   3   2.0000     -10.327072      -281.0139
   4   2.0000     -10.324879      -280.9542
   5   2.0000     -10.316661      -280.7306
   6   2.0000     -10.311151      -280.5807
   7   2.0000     -10.309806      -280.5441
   8   2.0000     -10.305435      -280.4251
   9   2.0000     -10.298718      -280.2424
  10   2.0000     -10.295534      -280.1557
  11   2.0000     -10.294654      -280.1318
  12   2.0000     -10.292880      -280.0835
  13   2.0000     -10.288577      -279.9664
  14   2.0000     -10.287164      -279.9280
  15   2.0000     -10.279782      -279.7271
  16   2.0000      -8.080320      -219.8767
  17   2.0000      -8.078225      -219.8197
  18   2.0000      -6.039115      -164.3327
  19   2.0000      -6.036826      -164.2704
  20   2.0000      -6.035270      -164.2281
  21   2.0000      -6.032828      -164.1616
  22   2.0000      -6.030779      -164.1059
  23   2.0000      -6.028603      -164.0466
  24   2.0000      -1.004880       -27.3442
  25   2.0000      -0.972407       -26.4605
  26   2.0000      -0.905953       -24.6522
  27   2.0000      -0.899428       -24.4747
  28   2.0000      -0.866846       -23.5881
  29   2.0000      -0.844309       -22.9748
  30   2.0000      -0.836896       -22.7731
  31   2.0000      -0.818835       -22.2816
  32   2.0000      -0.782972       -21.3058
  33   2.0000      -0.769567       -20.9410
  34   2.0000      -0.704151       -19.1609
  35   2.0000      -0.700106       -19.0508
  36   2.0000      -0.695744       -18.9322
  37   2.0000      -0.649760       -17.6809
  38   2.0000      -0.646530       -17.5930
  39   2.0000      -0.618652       -16.8344
  40   2.0000      -0.594681       -16.1821
  41   2.0000      -0.566513       -15.4156
  42   2.0000      -0.549723       -14.9587
  43   2.0000      -0.544575       -14.8186
  44   2.0000      -0.538795       -14.6613
  45   2.0000      -0.531484       -14.4624
  46   2.0000      -0.514585       -14.0026
  47   2.0000      -0.511636       -13.9223
  48   2.0000      -0.502191       -13.6653
  49   2.0000      -0.494531       -13.4569
  50   2.0000      -0.487492       -13.2653
  51   2.0000      -0.475102       -12.9282
  52   2.0000      -0.468941       -12.7605
  53   2.0000      -0.466395       -12.6913
  54   2.0000      -0.464421       -12.6375
  55   2.0000      -0.446894       -12.1606
  56   2.0000      -0.443925       -12.0798
  57   2.0000      -0.439455       -11.9582
  58   2.0000      -0.432846       -11.7783
  59   2.0000      -0.426337       -11.6012
  60   2.0000      -0.420638       -11.4461
  61   2.0000      -0.412145       -11.2150
  62   2.0000      -0.401311       -10.9202
  63   2.0000      -0.349712        -9.5161
  64   2.0000      -0.330543        -8.9945
  65   2.0000      -0.323608        -8.8058
  66   2.0000      -0.293816        -7.9951
  67   0.0000       0.026038         0.7085
  68   0.0000       0.061956         1.6859
  69   0.0000       0.099589         2.7100
  70   0.0000       0.112978         3.0743
  71   0.0000       0.129127         3.5137

MULLIKEN ATOMIC CHARGES
-----------------------
   0 S :    0.102872
   1 C :   -0.085349
   2 C :   -0.126843
   3 C :    0.037376
   4 C :   -0.158628
   5 H :    0.011447
   6 C :    0.066945
   7 H :    0.055692
   8 H :    0.015222
   9 C :   -0.080327
  10 H :    0.026338
  11 H :    0.028645
  12 C :   -0.095063
  13 H :    0.039971
  14 H :    0.044079
  15 H :    0.043730
  16 S :    0.086271
  17 C :   -0.084183
  18 C :   -0.021059
  19 C :   -0.064417
  20 C :   -0.118747
  21 H :    0.029906
  22 C :    0.057952
  23 H :    0.048956
  24 H :    0.019710
  25 C :   -0.062367
  26 H :    0.043091
  27 H :    0.012762
  28 C :   -0.073621
  29 H :    0.032163
  30 H :    0.035629
  31 H :    0.029848
  32 H :    0.042276
  33 H :    0.059721
Sum of atomic charges:    0.0000000

LOEWDIN ATOMIC CHARGES
----------------------
   0 S :    0.410874
   1 C :   -0.196733
   2 C :   -0.057392
   3 C :   -0.060158
   4 C :   -0.195265
   5 H :    0.032650
   6 C :   -0.028034
   7 H :    0.043538
   8 H :    0.023611
   9 C :   -0.035826
  10 H :    0.018645
  11 H :    0.023008
  12 C :   -0.076061
  13 H :    0.022111
  14 H :    0.027574
  15 H :    0.028886
  16 S :    0.352329
  17 C :   -0.158126
  18 C :   -0.072529
  19 C :   -0.051796
  20 C :   -0.189396
  21 H :    0.036773
  22 C :   -0.028264
  23 H :    0.039396
  24 H :    0.024426
  25 C :   -0.052967
  26 H :    0.030498
  27 H :    0.023952
  28 C :   -0.075005
  29 H :    0.023462
  30 H :    0.031148
  31 H :    0.027510
  32 H :    0.023782
  33 H :    0.033381

  Mayer bond orders larger than 0.100000
B(  0-S ,  1-C ) :   1.1405 B(  0-S ,  4-C ) :   1.1414 B(  1-C ,  2-C ) :   1.6283
B(  1-C , 32-H ) :   0.9692 B(  2-C ,  3-C ) :   1.2076 B(  2-C ,  6-C ) :   1.0203
B(  3-C ,  4-C ) :   1.6077 B(  3-C ,  5-H ) :   0.9983 B(  4-C , 20-C ) :   1.0180
B(  6-C ,  7-H ) :   0.9511 B(  6-C ,  8-H ) :   0.9400 B(  6-C ,  9-C ) :   1.0615
B(  9-C , 10-H ) :   0.9592 B(  9-C , 11-H ) :   0.9623 B(  9-C , 12-C ) :   1.0655
B( 12-C , 13-H ) :   0.9766 B( 12-C , 14-H ) :   0.9728 B( 12-C , 15-H ) :   0.9739
B( 16-S , 17-C ) :   1.1263 B( 16-S , 20-C ) :   1.1195 B( 17-C , 18-C ) :   1.6331
B( 17-C , 20-C ) :   0.1007 B( 17-C , 33-H ) :   0.9629 B( 18-C , 19-C ) :   1.2478
B( 18-C , 21-H ) :   0.9775 B( 19-C , 20-C ) :   1.6083 B( 19-C , 22-C ) :   1.0248
B( 22-C , 23-H ) :   0.9331 B( 22-C , 24-H ) :   0.9368 B( 22-C , 25-C ) :   1.0839
B( 25-C , 26-H ) :   0.9509 B( 25-C , 27-H ) :   0.9444 B( 25-C , 28-C ) :   1.0717
B( 28-C , 29-H ) :   0.9773 B( 28-C , 30-H ) :   0.9728 B( 28-C , 31-H ) :   0.9719

Dispersion correction           -0.014684590
FINAL SINGLE POINT ENERGY     -1339.852914244409

DIPOLE MOMENT
-------------
                                X             Y             Z
Electronic contribution:     -6.80543     -15.94671     -22.67427
Nuclear contribution   :      7.00456      16.18238      23.41469
                        -----------------------------------------
Total Dipole Moment    :      0.19914       0.23567       0.74042
                        -----------------------------------------
Magnitude (a.u.)       :      0.80214
Magnitude (Debye)      :      2.03887

Rotational constants in cm-1:     0.016981     0.009372     0.007042
Rotational constants in MHz :   509.078434   280.965766   211.113043

                             ****ORCA TERMINATED NORMALLY****
TOTAL RUN TIME: 0 days 0 hours 0 minutes 21 seconds 906 msec
