                         Program Version 4.2.1 -  RELEASE  -
|  1> ! wB97X-D3 SP def2-SVP
|  2> %pal
|  3> nprocs 24
|  4> end
|  5>
|  6> * xyz 0 1
|  7> S 	 -115.189 	 14.5332 	 -114.755
|  8> C 	 -113.753 	 15.1792 	 -115.514
|  9> C 	 -114.084 	 16.2072 	 -116.332
| 10> C 	 -115.464 	 16.4817 	 -116.349
| 11> C 	 -116.227 	 15.7196 	 -115.47
| 12> H 	 -115.976 	 17.3261 	 -116.877
| 13> C 	 -113.016 	 16.8721 	 -117.251
| 14> H 	 -113.323 	 16.5916 	 -118.24
| 15> H 	 -112.136 	 16.2941 	 -117.074
| 16> C 	 -112.889 	 18.3172 	 -117.091
| 17> H 	 -113.83 	 18.7865 	 -117.322
| 18> H 	 -112.68 	 18.4873 	 -116.077
| 19> C 	 -111.762 	 18.9688 	 -117.897
| 20> H 	 -110.83 	 18.4701 	 -117.736
| 21> H 	 -112.192 	 18.8091 	 -118.898
| 22> H 	 -111.57 	 20.0513 	 -117.648
| 23> S 	 -118.543 	 14.3777 	 -115.832
| 24> C 	 -120.103 	 15.1091 	 -115.381
| 25> C 	 -119.894 	 16.3769 	 -114.791
| 26> C 	 -118.501 	 16.6778 	 -114.645
| 27> C 	 -117.651 	 15.7188 	 -115.181
| 28> H 	 -120.707 	 16.9757 	 -114.364
| 29> C 	 -118.097 	 17.9294 	 -113.863
| 30> H 	 -117 	 18.0314 	 -114.074
| 31> H 	 -118.302 	 17.8782 	 -112.807
| 32> C 	 -118.824 	 19.1873 	 -114.369
| 33> H 	 -118.405 	 20.0043 	 -113.8
| 34> H 	 -119.921 	 19.1718 	 -114.158
| 35> C 	 -118.742 	 19.3684 	 -115.93
| 36> H 	 -119.391 	 20.1614 	 -116.324
| 37> H 	 -119.069 	 18.5211 	 -116.469
| 38> H 	 -117.721 	 19.4386 	 -116.284
| 39> H 	 -112.799 	 14.8473 	 -115.277
| 40> H 	 -121.016 	 14.7903 	 -115.714
| 41> *
| 42>
| 43>                          ****END OF INPUT****

CARTESIAN COORDINATES (ANGSTROEM)
---------------------------------
  S    -115.189000   14.533200  -114.755000
  C    -113.753000   15.179200  -115.514000
  C    -114.084000   16.207200  -116.332000
  C    -115.464000   16.481700  -116.349000
  C    -116.227000   15.719600  -115.470000
  H    -115.976000   17.326100  -116.877000
  C    -113.016000   16.872100  -117.251000
  H    -113.323000   16.591600  -118.240000
  H    -112.136000   16.294100  -117.074000
  C    -112.889000   18.317200  -117.091000
  H    -113.830000   18.786500  -117.322000
  H    -112.680000   18.487300  -116.077000
  C    -111.762000   18.968800  -117.897000
  H    -110.830000   18.470100  -117.736000
  H    -112.192000   18.809100  -118.898000
  H    -111.570000   20.051300  -117.648000
  S    -118.543000   14.377700  -115.832000
  C    -120.103000   15.109100  -115.381000
  C    -119.894000   16.376900  -114.791000
  C    -118.501000   16.677800  -114.645000
  C    -117.651000   15.718800  -115.181000
  H    -120.707000   16.975700  -114.364000
  C    -118.097000   17.929400  -113.863000
  H    -117.000000   18.031400  -114.074000
  H    -118.302000   17.878200  -112.807000
  C    -118.824000   19.187300  -114.369000
  H    -118.405000   20.004300  -113.800000
  H    -119.921000   19.171800  -114.158000
  C    -118.742000   19.368400  -115.930000
  H    -119.391000   20.161400  -116.324000
  H    -119.069000   18.521100  -116.469000
  H    -117.721000   19.438600  -116.284000
  H    -112.799000   14.847300  -115.277000
  H    -121.016000   14.790300  -115.714000

 Total Charge           Charge          ....    0
 Multiplicity           Mult            ....    1
 Number of Electrons    NEL             ....  134
 Basis Dimension        Dim             ....  322

ORBITAL ENERGIES
----------------

  NO   OCC          E(Eh)            E(eV)
   0   2.0000     -88.967180     -2420.9201
   1   2.0000     -88.961534     -2420.7664
   2   2.0000     -10.329648      -281.0840
   3   2.0000     -10.327442      -281.0240
   4   2.0000     -10.319475      -280.8072
   5   2.0000     -10.307244      -280.4744
   6   2.0000     -10.304723      -280.4058
   7   2.0000     -10.299828      -280.2726
   8   2.0000     -10.298088      -280.2252
   9   2.0000     -10.297177      -280.2004
  10   2.0000     -10.293438      -280.0987
  11   2.0000     -10.291646      -280.0499
  12   2.0000     -10.286352      -279.9059
  13   2.0000     -10.281006      -279.7604
  14   2.0000     -10.274724      -279.5895
  15   2.0000     -10.273158      -279.5468
  16   2.0000      -8.081654      -219.9130
  17   2.0000      -8.077038      -219.7874
  18   2.0000      -6.040230      -164.3630
  19   2.0000      -6.036040      -164.2490
  20   2.0000      -6.035432      -164.2325
  21   2.0000      -6.032497      -164.1526
  22   2.0000      -6.031296      -164.1199
  23   2.0000      -6.028004      -164.0303
  24   2.0000      -1.009804       -27.4782
  25   2.0000      -0.985140       -26.8070
  26   2.0000      -0.922634       -25.1061
  27   2.0000      -0.906396       -24.6643
  28   2.0000      -0.873976       -23.7821
  29   2.0000      -0.845350       -23.0032
  30   2.0000      -0.839788       -22.8518
  31   2.0000      -0.817307       -22.2400
  32   2.0000      -0.785184       -21.3659
  33   2.0000      -0.776988       -21.1429
  34   2.0000      -0.713050       -19.4031
  35   2.0000      -0.699514       -19.0348
  36   2.0000      -0.695673       -18.9302
  37   2.0000      -0.662232       -18.0202
  38   2.0000      -0.648876       -17.6568
  39   2.0000      -0.617997       -16.8166
  40   2.0000      -0.595604       -16.2072
  41   2.0000      -0.583786       -15.8856
  42   2.0000      -0.565109       -15.3774
  43   2.0000      -0.554897       -15.0995
  44   2.0000      -0.535108       -14.5610
  45   2.0000      -0.529011       -14.3951
  46   2.0000      -0.521466       -14.1898
  47   2.0000      -0.515495       -14.0273
  48   2.0000      -0.507505       -13.8099
  49   2.0000      -0.502434       -13.6719
  50   2.0000      -0.494470       -13.4552
  51   2.0000      -0.480339       -13.0707
  52   2.0000      -0.477964       -13.0061
  53   2.0000      -0.468712       -12.7543
  54   2.0000      -0.451525       -12.2866
  55   2.0000      -0.448186       -12.1958
  56   2.0000      -0.441131       -12.0038
  57   2.0000      -0.435189       -11.8421
  58   2.0000      -0.433914       -11.8074
  59   2.0000      -0.427546       -11.6341
  60   2.0000      -0.424914       -11.5625
  61   2.0000      -0.411122       -11.1872
  62   2.0000      -0.404945       -11.0191
  63   2.0000      -0.341004        -9.2792
  64   2.0000      -0.333947        -9.0871
  65   2.0000      -0.327740        -8.9183
  66   2.0000      -0.301486        -8.2039
  67   0.0000       0.037467         1.0195
  68   0.0000       0.056650         1.5415
  69   0.0000       0.116211         3.1623
  70   0.0000       0.123580         3.3628
  71   0.0000       0.128803         3.5049

MULLIKEN ATOMIC CHARGES
-----------------------
   0 S :    0.102699
   1 C :   -0.106766
   2 C :   -0.097469
   3 C :    0.035811
   4 C :   -0.193138
   5 H :    0.024692
   6 C :    0.120499
   7 H :    0.020391
   8 H :   -0.004170
   9 C :   -0.055202
  10 H :    0.023576
  11 H :    0.010604
  12 C :   -0.047370
  13 H :    0.027221
  14 H :    0.033066
  15 H :    0.048252
  16 S :    0.111022
  17 C :   -0.055793
  18 C :   -0.048181
  19 C :   -0.056979
  20 C :   -0.153253
  21 H :    0.034065
  22 C :    0.086496
  23 H :    0.037797
  24 H :    0.045717
  25 C :   -0.104186
  26 H :    0.033554
  27 H :    0.032080
  28 C :   -0.042301
  29 H :    0.036017
  30 H :    0.026031
  31 H :    0.022092
  32 H :    0.022917
  33 H :    0.030211
Sum of atomic charges:    0.0000000

LOEWDIN ATOMIC CHARGES
----------------------
   0 S :    0.413961
   1 C :   -0.184477
   2 C :   -0.062508
   3 C :   -0.072113
   4 C :   -0.204266
   5 H :    0.037033
   6 C :   -0.018168
   7 H :    0.027790
   8 H :    0.023742
   9 C :   -0.043528
  10 H :    0.022627
  11 H :    0.016473
  12 C :   -0.062470
  13 H :    0.019597
  14 H :    0.029340
  15 H :    0.033846
  16 S :    0.411059
  17 C :   -0.161335
  18 C :   -0.066035
  19 C :   -0.057515
  20 C :   -0.212893
  21 H :    0.035523
  22 C :   -0.029088
  23 H :    0.036494
  24 H :    0.033839
  25 C :   -0.040040
  26 H :    0.023784
  27 H :    0.023287
  28 C :   -0.069664
  29 H :    0.029139
  30 H :    0.021326
  31 H :    0.020867
  32 H :    0.014601
  33 H :    0.009771

  Mayer bond orders larger than 0.100000
B(  0-S ,  1-C ) :   1.1426 B(  0-S ,  4-C ) :   1.1757 B(  1-C ,  2-C ) :   1.6058
B(  1-C ,  4-C ) :   0.1031 B(  1-C , 32-H ) :   0.9803 B(  2-C ,  3-C ) :   1.2499
B(  2-C ,  6-C ) :   1.0055 B(  3-C ,  4-C ) :   1.5706 B(  3-C ,  5-H ) :   0.9899
B(  4-C , 20-C ) :   0.9953 B(  6-C ,  7-H ) :   0.9326 B(  6-C ,  8-H ) :   0.9360
B(  6-C ,  9-C ) :   1.0704 B(  9-C , 10-H ) :   0.9547 B(  9-C , 11-H ) :   0.9514
B(  9-C , 12-C ) :   1.0764 B( 12-C , 13-H ) :   0.9759 B( 12-C , 14-H ) :   0.9788
B( 12-C , 15-H ) :   0.9753 B( 16-S , 17-C ) :   1.1598 B( 16-S , 20-C ) :   1.1542
B( 17-C , 18-C ) :   1.5941 B( 17-C , 20-C ) :   0.1042 B( 17-C , 33-H ) :   0.9774
B( 18-C , 19-C ) :   1.2442 B( 18-C , 21-H ) :   0.9839 B( 19-C , 20-C ) :   1.6037
B( 19-C , 22-C ) :   1.0330 B( 22-C , 23-H ) :   0.9352 B( 22-C , 24-H ) :   0.9405
B( 22-C , 25-C ) :   1.0681 B( 25-C , 26-H ) :   0.9591 B( 25-C , 27-H ) :   0.9537
B( 25-C , 28-C ) :   1.0677 B( 28-C , 29-H ) :   0.9747 B( 28-C , 30-H ) :   0.9667
B( 28-C , 31-H ) :   0.9756

Dispersion correction           -0.014572522
FINAL SINGLE POINT ENERGY     -1339.872673067658

DIPOLE MOMENT
-------------
                                X             Y             Z
Electronic contribution:     -8.77213     -26.64742       7.15716
Nuclear contribution   :      8.80884      27.24219      -7.25736
                        -----------------------------------------
Total Dipole Moment    :      0.03671       0.59476      -0.10020
                        -----------------------------------------
Magnitude (a.u.)       :      0.60426
Magnitude (Debye)      :      1.53591

Rotational constants in cm-1:     0.019267     0.008542     0.006632
Rotational constants in MHz :   577.617811   256.076600   198.828236

                             ****ORCA TERMINATED NORMALLY****
TOTAL RUN TIME: 0 days 0 hours 0 minutes 21 seconds 927 msec
