                         Program Version 4.2.1 -  RELEASE  -
|  1> ! wB97X-D3 SP def2-SVP
|  2> %pal
|  3> nprocs 24
|  4> end
|  5>
|  6> * xyz 0 1
|  7> S 	 -146.35 	 26.5825 	 -14.3858
|  8> C 	 -145.429 	 26.7394 	 -15.8507
|  9> C 	 -144.513 	 27.7978 	 -15.7518
| 10> C 	 -144.621 	 28.4595 	 -14.4858
| 11> C 	 -145.684 	 28.039 	 -13.709
| 12> H 	 -143.962 	 29.3557 	 -14.2225
| 13> C 	 -143.474 	 28.2187 	 -16.7486
| 14> H 	 -143.472 	 27.566 	 -17.5524
| 15> H 	 -142.597 	 28.1488 	 -16.2114
| 16> C 	 -143.747 	 29.6133 	 -17.2794
| 17> H 	 -144.709 	 29.7526 	 -17.7461
| 18> H 	 -143.788 	 30.3265 	 -16.4608
| 19> C 	 -142.654 	 29.8887 	 -18.3414
| 20> H 	 -142.864 	 30.8994 	 -18.7217
| 21> H 	 -141.64 	 29.838 	 -17.8938
| 22> H 	 -142.746 	 29.28 	 -19.1924
| 23> S 	 -145.567 	 27.6771 	 -10.9937
| 24> C 	 -146.246 	 28.8188 	 -9.90252
| 25> C 	 -146.893 	 29.8087 	 -10.5588
| 26> C 	 -146.954 	 29.5541 	 -12.0049
| 27> C 	 -146.117 	 28.5309 	 -12.4175
| 28> H 	 -147.455 	 30.5864 	 -10.0993
| 29> C 	 -147.74 	 30.5034 	 -12.9527
| 30> H 	 -148.8 	 30.5191 	 -12.6609
| 31> H 	 -147.661 	 30.0212 	 -13.937
| 32> C 	 -147.121 	 31.8868 	 -13.2363
| 33> H 	 -147.637 	 32.4575 	 -13.9951
| 34> H 	 -146.049 	 31.7711 	 -13.5027
| 35> C 	 -147.088 	 32.8018 	 -11.9729
| 36> H 	 -146.316 	 32.3004 	 -11.3257
| 37> H 	 -148.012 	 32.8761 	 -11.4175
| 38> H 	 -146.819 	 33.7727 	 -12.3397
| 39> H 	 -145.554 	 26.0726 	 -16.673
| 40> H 	 -146.162 	 28.7681 	 -8.83075
| 41> *
| 42>
| 43>                          ****END OF INPUT****

CARTESIAN COORDINATES (ANGSTROEM)
---------------------------------
  S    -146.350000   26.582500  -14.385800
  C    -145.429000   26.739400  -15.850700
  C    -144.513000   27.797800  -15.751800
  C    -144.621000   28.459500  -14.485800
  C    -145.684000   28.039000  -13.709000
  H    -143.962000   29.355700  -14.222500
  C    -143.474000   28.218700  -16.748600
  H    -143.472000   27.566000  -17.552400
  H    -142.597000   28.148800  -16.211400
  C    -143.747000   29.613300  -17.279400
  H    -144.709000   29.752600  -17.746100
  H    -143.788000   30.326500  -16.460800
  C    -142.654000   29.888700  -18.341400
  H    -142.864000   30.899400  -18.721700
  H    -141.640000   29.838000  -17.893800
  H    -142.746000   29.280000  -19.192400
  S    -145.567000   27.677100  -10.993700
  C    -146.246000   28.818800   -9.902520
  C    -146.893000   29.808700  -10.558800
  C    -146.954000   29.554100  -12.004900
  C    -146.117000   28.530900  -12.417500
  H    -147.455000   30.586400  -10.099300
  C    -147.740000   30.503400  -12.952700
  H    -148.800000   30.519100  -12.660900
  H    -147.661000   30.021200  -13.937000
  C    -147.121000   31.886800  -13.236300
  H    -147.637000   32.457500  -13.995100
  H    -146.049000   31.771100  -13.502700
  C    -147.088000   32.801800  -11.972900
  H    -146.316000   32.300400  -11.325700
  H    -148.012000   32.876100  -11.417500
  H    -146.819000   33.772700  -12.339700
  H    -145.554000   26.072600  -16.673000
  H    -146.162000   28.768100   -8.830750

 Total Charge           Charge          ....    0
 Multiplicity           Mult            ....    1
 Number of Electrons    NEL             ....  134
 Basis Dimension        Dim             ....  322

ORBITAL ENERGIES
----------------

  NO   OCC          E(Eh)            E(eV)
   0   2.0000     -88.963737     -2420.8264
   1   2.0000     -88.959904     -2420.7221
   2   2.0000     -10.328760      -281.0598
   3   2.0000     -10.324856      -280.9536
   4   2.0000     -10.313756      -280.6516
   5   2.0000     -10.313669      -280.6492
   6   2.0000     -10.307258      -280.4748
   7   2.0000     -10.300491      -280.2906
   8   2.0000     -10.300078      -280.2794
   9   2.0000     -10.291701      -280.0514
  10   2.0000     -10.290295      -280.0132
  11   2.0000     -10.286848      -279.9194
  12   2.0000     -10.284948      -279.8677
  13   2.0000     -10.279157      -279.7101
  14   2.0000     -10.278454      -279.6909
  15   2.0000     -10.273686      -279.5612
  16   2.0000      -8.079019      -219.8413
  17   2.0000      -8.075678      -219.7504
  18   2.0000      -6.037455      -164.2875
  19   2.0000      -6.034248      -164.2002
  20   2.0000      -6.033377      -164.1765
  21   2.0000      -6.029941      -164.0830
  22   2.0000      -6.029887      -164.0816
  23   2.0000      -6.026393      -163.9865
  24   2.0000      -1.008299       -27.4372
  25   2.0000      -0.986493       -26.8438
  26   2.0000      -0.921303       -25.0699
  27   2.0000      -0.901718       -24.5370
  28   2.0000      -0.872312       -23.7368
  29   2.0000      -0.847897       -23.0725
  30   2.0000      -0.839988       -22.8572
  31   2.0000      -0.816431       -22.2162
  32   2.0000      -0.782720       -21.2989
  33   2.0000      -0.771019       -20.9805
  34   2.0000      -0.712071       -19.3764
  35   2.0000      -0.700808       -19.0699
  36   2.0000      -0.685149       -18.6439
  37   2.0000      -0.661200       -17.9922
  38   2.0000      -0.644246       -17.5308
  39   2.0000      -0.623322       -16.9614
  40   2.0000      -0.592869       -16.1328
  41   2.0000      -0.573512       -15.6061
  42   2.0000      -0.565853       -15.3976
  43   2.0000      -0.553022       -15.0485
  44   2.0000      -0.538717       -14.6592
  45   2.0000      -0.530091       -14.4245
  46   2.0000      -0.521198       -14.1825
  47   2.0000      -0.511251       -13.9118
  48   2.0000      -0.508111       -13.8264
  49   2.0000      -0.502274       -13.6676
  50   2.0000      -0.494576       -13.4581
  51   2.0000      -0.474580       -12.9140
  52   2.0000      -0.472188       -12.8489
  53   2.0000      -0.465627       -12.6704
  54   2.0000      -0.463158       -12.6032
  55   2.0000      -0.451908       -12.2971
  56   2.0000      -0.442426       -12.0390
  57   2.0000      -0.441322       -12.0090
  58   2.0000      -0.433698       -11.8015
  59   2.0000      -0.431470       -11.7409
  60   2.0000      -0.416009       -11.3202
  61   2.0000      -0.409172       -11.1341
  62   2.0000      -0.399749       -10.8777
  63   2.0000      -0.335496        -9.1293
  64   2.0000      -0.326201        -8.8764
  65   2.0000      -0.323000        -8.7893
  66   2.0000      -0.310137        -8.4393
  67   0.0000       0.045761         1.2452
  68   0.0000       0.056593         1.5400
  69   0.0000       0.119933         3.2635
  70   0.0000       0.121463         3.3052
  71   0.0000       0.131815         3.5869

MULLIKEN ATOMIC CHARGES
-----------------------
   0 S :    0.117910
   1 C :   -0.118392
   2 C :   -0.114500
   3 C :    0.019784
   4 C :   -0.176389
   5 H :    0.043182
   6 C :    0.160031
   7 H :   -0.009576
   8 H :    0.017487
   9 C :   -0.097462
  10 H :    0.025405
  11 H :    0.021193
  12 C :   -0.027383
  13 H :    0.027806
  14 H :    0.038642
  15 H :    0.025800
  16 S :    0.107861
  17 C :   -0.069244
  18 C :   -0.019271
  19 C :   -0.064914
  20 C :   -0.168676
  21 H :    0.012956
  22 C :    0.060166
  23 H :    0.040324
  24 H :    0.031998
  25 C :   -0.071904
  26 H :    0.031548
  27 H :    0.031528
  28 C :   -0.077284
  29 H :    0.048675
  30 H :    0.028108
  31 H :    0.030542
  32 H :    0.039003
  33 H :    0.055046
Sum of atomic charges:   -0.0000000

LOEWDIN ATOMIC CHARGES
----------------------
   0 S :    0.418945
   1 C :   -0.199763
   2 C :   -0.058943
   3 C :   -0.064302
   4 C :   -0.209287
   5 H :    0.042972
   6 C :   -0.018223
   7 H :    0.020325
   8 H :    0.026966
   9 C :   -0.033117
  10 H :    0.024778
  11 H :    0.019297
  12 C :   -0.060238
  13 H :    0.027272
  14 H :    0.029147
  15 H :    0.017823
  16 S :    0.414221
  17 C :   -0.184890
  18 C :   -0.076825
  19 C :   -0.047586
  20 C :   -0.209380
  21 H :    0.026634
  22 C :   -0.036382
  23 H :    0.032703
  24 H :    0.034421
  25 C :   -0.036197
  26 H :    0.020458
  27 H :    0.029333
  28 C :   -0.071899
  29 H :    0.031818
  30 H :    0.016599
  31 H :    0.021308
  32 H :    0.021691
  33 H :    0.030324

  Mayer bond orders larger than 0.100000
B(  0-S ,  1-C ) :   1.1492 B(  0-S ,  4-C ) :   1.1644 B(  1-C ,  2-C ) :   1.5858
B(  1-C ,  4-C ) :   0.1023 B(  1-C , 32-H ) :   0.9760 B(  2-C ,  3-C ) :   1.2563
B(  2-C ,  6-C ) :   1.0235 B(  3-C ,  4-C ) :   1.5782 B(  3-C ,  5-H ) :   0.9771
B(  4-C , 20-C ) :   1.0106 B(  6-C ,  7-H ) :   0.9347 B(  6-C ,  8-H ) :   0.9295
B(  6-C ,  9-C ) :   1.0665 B(  9-C , 10-H ) :   0.9545 B(  9-C , 11-H ) :   0.9562
B(  9-C , 12-C ) :   1.0848 B( 12-C , 13-H ) :   0.9731 B( 12-C , 14-H ) :   0.9748
B( 12-C , 15-H ) :   0.9749 B( 16-S , 17-C ) :   1.1590 B( 16-S , 20-C ) :   1.1405
B( 17-C , 18-C ) :   1.6165 B( 17-C , 33-H ) :   0.9668 B( 18-C , 19-C ) :   1.2229
B( 18-C , 21-H ) :   0.9887 B( 19-C , 20-C ) :   1.6285 B( 19-C , 22-C ) :   1.0432
B( 22-C , 23-H ) :   0.9402 B( 22-C , 24-H ) :   0.9315 B( 22-C , 25-C ) :   1.0710
B( 25-C , 26-H ) :   0.9605 B( 25-C , 27-H ) :   0.9534 B( 25-C , 28-C ) :   1.0750
B( 28-C , 29-H ) :   0.9726 B( 28-C , 30-H ) :   0.9772 B( 28-C , 31-H ) :   0.9749

Dispersion correction           -0.014267724
FINAL SINGLE POINT ENERGY     -1339.877243877126

DIPOLE MOMENT
-------------
                                X             Y             Z
Electronic contribution:     -5.31988     -23.34084      15.35923
Nuclear contribution   :      5.43610      23.82633     -15.74343
                        -----------------------------------------
Total Dipole Moment    :      0.11623       0.48548      -0.38420
                        -----------------------------------------
Magnitude (a.u.)       :      0.62993
Magnitude (Debye)      :      1.60116

Rotational constants in cm-1:     0.018403     0.008556     0.006691
Rotational constants in MHz :   551.700531   256.489106   200.582324

                             ****ORCA TERMINATED NORMALLY****
TOTAL RUN TIME: 0 days 0 hours 0 minutes 21 seconds 508 msec
