                         Program Version 4.2.1 -  RELEASE  -
|  1> ! wB97X-D3 SP def2-SVP
|  2> %pal
|  3> nprocs 24
|  4> end
|  5>
|  6> * xyz 0 1
|  7> S 	 43.5329 	 -14.499 	 -110.029
|  8> C 	 43.7043 	 -15.9168 	 -111.053
|  9> C 	 44.4626 	 -16.841 	 -110.409
| 10> C 	 45.0178 	 -16.397 	 -109.152
| 11> C 	 44.4773 	 -15.1834 	 -108.779
| 12> H 	 45.7341 	 -16.8706 	 -108.521
| 13> C 	 44.8803 	 -18.1406 	 -111.107
| 14> H 	 45.9642 	 -18.06 	 -111.405
| 15> H 	 44.4788 	 -18.2142 	 -112.109
| 16> C 	 44.5247 	 -19.4588 	 -110.462
| 17> H 	 44.8421 	 -20.304 	 -111.149
| 18> H 	 45.1609 	 -19.515 	 -109.586
| 19> C 	 42.9703 	 -19.536 	 -110.136
| 20> H 	 42.3161 	 -19.3414 	 -111.062
| 21> H 	 42.7006 	 -20.5023 	 -109.77
| 22> H 	 42.7253 	 -18.8142 	 -109.367
| 23> S 	 45.9103 	 -13.012 	 -107.895
| 24> C 	 46.3628 	 -12.8659 	 -106.185
| 25> C 	 45.7047 	 -13.8288 	 -105.414
| 26> C 	 44.8475 	 -14.6735 	 -106.208
| 27> C 	 44.8976 	 -14.3803 	 -107.569
| 28> H 	 45.8246 	 -13.8397 	 -104.32
| 29> C 	 44.2092 	 -15.8651 	 -105.562
| 30> H 	 44.8464 	 -16.1278 	 -104.716
| 31> H 	 44.3529 	 -16.6094 	 -106.326
| 32> C 	 42.8099 	 -15.5831 	 -104.966
| 33> H 	 42.8451 	 -14.7774 	 -104.236
| 34> H 	 42.3926 	 -16.3925 	 -104.277
| 35> C 	 41.7658 	 -15.0226 	 -105.968
| 36> H 	 40.8859 	 -14.9166 	 -105.328
| 37> H 	 41.3874 	 -15.685 	 -106.745
| 38> H 	 42.0126 	 -14.0304 	 -106.398
| 39> H 	 43.2262 	 -16.05 	 -112.005
| 40> H 	 46.9981 	 -12.1285 	 -105.733
| 41> *
| 42>
| 43>                          ****END OF INPUT****

CARTESIAN COORDINATES (ANGSTROEM)
---------------------------------
  S     43.532900  -14.499000  -110.029000
  C     43.704300  -15.916800  -111.053000
  C     44.462600  -16.841000  -110.409000
  C     45.017800  -16.397000  -109.152000
  C     44.477300  -15.183400  -108.779000
  H     45.734100  -16.870600  -108.521000
  C     44.880300  -18.140600  -111.107000
  H     45.964200  -18.060000  -111.405000
  H     44.478800  -18.214200  -112.109000
  C     44.524700  -19.458800  -110.462000
  H     44.842100  -20.304000  -111.149000
  H     45.160900  -19.515000  -109.586000
  C     42.970300  -19.536000  -110.136000
  H     42.316100  -19.341400  -111.062000
  H     42.700600  -20.502300  -109.770000
  H     42.725300  -18.814200  -109.367000
  S     45.910300  -13.012000  -107.895000
  C     46.362800  -12.865900  -106.185000
  C     45.704700  -13.828800  -105.414000
  C     44.847500  -14.673500  -106.208000
  C     44.897600  -14.380300  -107.569000
  H     45.824600  -13.839700  -104.320000
  C     44.209200  -15.865100  -105.562000
  H     44.846400  -16.127800  -104.716000
  H     44.352900  -16.609400  -106.326000
  C     42.809900  -15.583100  -104.966000
  H     42.845100  -14.777400  -104.236000
  H     42.392600  -16.392500  -104.277000
  C     41.765800  -15.022600  -105.968000
  H     40.885900  -14.916600  -105.328000
  H     41.387400  -15.685000  -106.745000
  H     42.012600  -14.030400  -106.398000
  H     43.226200  -16.050000  -112.005000
  H     46.998100  -12.128500  -105.733000

 Total Charge           Charge          ....    0
 Multiplicity           Mult            ....    1
 Number of Electrons    NEL             ....  134
 Basis Dimension        Dim             ....  322

ORBITAL ENERGIES
----------------

  NO   OCC          E(Eh)            E(eV)
   0   2.0000     -88.966936     -2420.9134
   1   2.0000     -88.965503     -2420.8744
   2   2.0000     -10.331812      -281.1429
   3   2.0000     -10.329014      -281.0668
   4   2.0000     -10.319973      -280.8207
   5   2.0000     -10.312388      -280.6144
   6   2.0000     -10.303244      -280.3655
   7   2.0000     -10.303023      -280.3595
   8   2.0000     -10.297997      -280.2227
   9   2.0000     -10.295463      -280.1538
  10   2.0000     -10.293803      -280.1086
  11   2.0000     -10.292442      -280.0716
  12   2.0000     -10.290340      -280.0144
  13   2.0000     -10.287944      -279.9492
  14   2.0000     -10.282548      -279.8024
  15   2.0000     -10.273028      -279.5433
  16   2.0000      -8.081379      -219.9055
  17   2.0000      -8.080902      -219.8925
  18   2.0000      -6.039918      -164.3545
  19   2.0000      -6.039351      -164.3391
  20   2.0000      -6.035858      -164.2440
  21   2.0000      -6.035240      -164.2272
  22   2.0000      -6.032176      -164.1439
  23   2.0000      -6.031758      -164.1325
  24   2.0000      -1.008597       -27.4453
  25   2.0000      -0.984933       -26.8014
  26   2.0000      -0.908451       -24.7202
  27   2.0000      -0.904770       -24.6200
  28   2.0000      -0.864806       -23.5326
  29   2.0000      -0.845740       -23.0138
  30   2.0000      -0.840516       -22.8716
  31   2.0000      -0.815812       -22.1994
  32   2.0000      -0.781325       -21.2609
  33   2.0000      -0.772953       -21.0331
  34   2.0000      -0.704820       -19.1791
  35   2.0000      -0.694629       -18.9018
  36   2.0000      -0.689566       -18.7640
  37   2.0000      -0.659695       -17.9512
  38   2.0000      -0.646132       -17.5822
  39   2.0000      -0.619846       -16.8669
  40   2.0000      -0.586470       -15.9587
  41   2.0000      -0.568178       -15.4609
  42   2.0000      -0.547772       -14.9056
  43   2.0000      -0.546509       -14.8713
  44   2.0000      -0.542109       -14.7515
  45   2.0000      -0.535022       -14.5587
  46   2.0000      -0.519113       -14.1258
  47   2.0000      -0.511480       -13.9181
  48   2.0000      -0.502043       -13.6613
  49   2.0000      -0.495412       -13.4809
  50   2.0000      -0.489223       -13.3124
  51   2.0000      -0.472455       -12.8561
  52   2.0000      -0.467996       -12.7348
  53   2.0000      -0.464266       -12.6333
  54   2.0000      -0.456011       -12.4087
  55   2.0000      -0.449589       -12.2339
  56   2.0000      -0.447364       -12.1734
  57   2.0000      -0.435629       -11.8541
  58   2.0000      -0.428927       -11.6717
  59   2.0000      -0.419624       -11.4186
  60   2.0000      -0.417803       -11.3690
  61   2.0000      -0.409470       -11.1422
  62   2.0000      -0.406205       -11.0534
  63   2.0000      -0.342663        -9.3243
  64   2.0000      -0.330878        -9.0036
  65   2.0000      -0.326870        -8.8946
  66   2.0000      -0.304165        -8.2768
  67   0.0000       0.039794         1.0828
  68   0.0000       0.064359         1.7513
  69   0.0000       0.115374         3.1395
  70   0.0000       0.120182         3.2703
  71   0.0000       0.124843         3.3971

MULLIKEN ATOMIC CHARGES
-----------------------
   0 S :    0.106626
   1 C :   -0.119825
   2 C :   -0.071806
   3 C :    0.058457
   4 C :   -0.165221
   5 H :    0.014119
   6 C :    0.030830
   7 H :    0.043800
   8 H :    0.001650
   9 C :   -0.077493
  10 H :    0.040637
  11 H :    0.027170
  12 C :   -0.063707
  13 H :    0.038922
  14 H :    0.029544
  15 H :    0.048375
  16 S :    0.115327
  17 C :   -0.091854
  18 C :   -0.047739
  19 C :   -0.079866
  20 C :   -0.151396
  21 H :    0.033334
  22 C :    0.125096
  23 H :    0.016850
  24 H :    0.018881
  25 C :   -0.084312
  26 H :    0.017740
  27 H :    0.039011
  28 C :   -0.064473
  29 H :    0.020593
  30 H :    0.036282
  31 H :    0.054212
  32 H :    0.048779
  33 H :    0.051457
Sum of atomic charges:    0.0000000

LOEWDIN ATOMIC CHARGES
----------------------
   0 S :    0.416510
   1 C :   -0.190247
   2 C :   -0.062198
   3 C :   -0.060581
   4 C :   -0.202672
   5 H :    0.029442
   6 C :   -0.044135
   7 H :    0.038781
   8 H :    0.023050
   9 C :   -0.043865
  10 H :    0.031647
  11 H :    0.018699
  12 C :   -0.065803
  13 H :    0.033747
  14 H :    0.019529
  15 H :    0.027142
  16 S :    0.409875
  17 C :   -0.179250
  18 C :   -0.071699
  19 C :   -0.056484
  20 C :   -0.211187
  21 H :    0.036206
  22 C :   -0.032787
  23 H :    0.032039
  24 H :    0.028206
  25 C :   -0.045732
  26 H :    0.025064
  27 H :    0.032107
  28 C :   -0.072969
  29 H :    0.026963
  30 H :    0.022628
  31 H :    0.031184
  32 H :    0.029384
  33 H :    0.027406

  Mayer bond orders larger than 0.100000
B(  0-S ,  1-C ) :   1.1273 B(  0-S ,  4-C ) :   1.1767 B(  1-C ,  2-C ) :   1.6265
B(  1-C , 32-H ) :   0.9722 B(  2-C ,  3-C ) :   1.2099 B(  2-C ,  6-C ) :   1.0199
B(  3-C ,  4-C ) :   1.5817 B(  3-C ,  5-H ) :   0.9981 B(  4-C , 20-C ) :   0.9749
B(  6-C ,  7-H ) :   0.9413 B(  6-C ,  8-H ) :   0.9423 B(  6-C ,  9-C ) :   1.0690
B(  9-C , 10-H ) :   0.9568 B(  9-C , 11-H ) :   0.9591 B(  9-C , 12-C ) :   1.0616
B( 12-C , 13-H ) :   0.9768 B( 12-C , 14-H ) :   0.9774 B( 12-C , 15-H ) :   0.9733
B( 16-S , 17-C ) :   1.1527 B( 16-S , 20-C ) :   1.1508 B( 17-C , 18-C ) :   1.6165
B( 17-C , 33-H ) :   0.9691 B( 18-C , 19-C ) :   1.2467 B( 18-C , 21-H ) :   0.9821
B( 19-C , 20-C ) :   1.6027 B( 19-C , 22-C ) :   1.0283 B( 22-C , 23-H ) :   0.9342
B( 22-C , 24-H ) :   0.9386 B( 22-C , 25-C ) :   1.0559 B( 25-C , 26-H ) :   0.9533
B( 25-C , 27-H ) :   0.9587 B( 25-C , 28-C ) :   1.0729 B( 28-C , 29-H ) :   0.9718
B( 28-C , 30-H ) :   0.9785 B( 28-C , 31-H ) :   0.9724

Dispersion correction           -0.015202693
FINAL SINGLE POINT ENERGY     -1339.877572254369

DIPOLE MOMENT
-------------
                                X             Y             Z
Electronic contribution:      9.89285      21.90980      -5.54561
Nuclear contribution   :     -9.77021     -22.39166       5.80840
                        -----------------------------------------
Total Dipole Moment    :      0.12264      -0.48185       0.26279
                        -----------------------------------------
Magnitude (a.u.)       :      0.56239
Magnitude (Debye)      :      1.42948

Rotational constants in cm-1:     0.019724     0.008920     0.007602
Rotational constants in MHz :   591.301371   267.406606   227.895235

                             ****ORCA TERMINATED NORMALLY****
TOTAL RUN TIME: 0 days 0 hours 0 minutes 22 seconds 71 msec
