                         Program Version 4.2.1 -  RELEASE  -
|  1> ! wB97X-D3 SP def2-SVP
|  2> %pal
|  3> nprocs 24
|  4> end
|  5>
|  6> * xyz 0 1
|  7> S 	 -116.609 	 42.4398 	 -112.389
|  8> C 	 -117.207 	 41.6354 	 -113.778
|  9> C 	 -116.186 	 40.8344 	 -114.355
| 10> C 	 -115.17 	 40.5279 	 -113.384
| 11> C 	 -115.184 	 41.3748 	 -112.309
| 12> H 	 -114.306 	 39.9109 	 -113.631
| 13> C 	 -116.423 	 39.9175 	 -115.616
| 14> H 	 -115.836 	 40.2032 	 -116.473
| 15> H 	 -117.423 	 40.1164 	 -115.993
| 16> C 	 -116.382 	 38.3958 	 -115.405
| 17> H 	 -115.344 	 38.1005 	 -115.098
| 18> H 	 -117.198 	 38.1418 	 -114.706
| 19> C 	 -116.553 	 37.5316 	 -116.63
| 20> H 	 -115.594 	 37.7807 	 -117.218
| 21> H 	 -116.461 	 36.4581 	 -116.319
| 22> H 	 -117.411 	 37.701 	 -117.256
| 23> S 	 -113.793 	 43.3017 	 -110.784
| 24> C 	 -112.737 	 42.7162 	 -109.55
| 25> C 	 -112.464 	 41.4089 	 -109.666
| 26> C 	 -113.236 	 40.738 	 -110.648
| 27> C 	 -114.18 	 41.562 	 -111.262
| 28> H 	 -111.746 	 41.0292 	 -108.922
| 29> C 	 -113.206 	 39.2052 	 -110.817
| 30> H 	 -112.19 	 38.8786 	 -110.719
| 31> H 	 -113.438 	 38.9982 	 -111.875
| 32> C 	 -114.291 	 38.4456 	 -110.063
| 33> H 	 -115.298 	 38.7621 	 -110.188
| 34> H 	 -113.967 	 38.3433 	 -109.025
| 35> C 	 -114.279 	 36.9985 	 -110.673
| 36> H 	 -115.021 	 36.3633 	 -110.202
| 37> H 	 -113.299 	 36.5548 	 -110.432
| 38> H 	 -114.437 	 37.0613 	 -111.742
| 39> H 	 -118.142 	 41.821 	 -114.299
| 40> H 	 -112.173 	 43.3569 	 -108.885
| 41> *
| 42>
| 43>                          ****END OF INPUT****

CARTESIAN COORDINATES (ANGSTROEM)
---------------------------------
  S    -116.609000   42.439800  -112.389000
  C    -117.207000   41.635400  -113.778000
  C    -116.186000   40.834400  -114.355000
  C    -115.170000   40.527900  -113.384000
  C    -115.184000   41.374800  -112.309000
  H    -114.306000   39.910900  -113.631000
  C    -116.423000   39.917500  -115.616000
  H    -115.836000   40.203200  -116.473000
  H    -117.423000   40.116400  -115.993000
  C    -116.382000   38.395800  -115.405000
  H    -115.344000   38.100500  -115.098000
  H    -117.198000   38.141800  -114.706000
  C    -116.553000   37.531600  -116.630000
  H    -115.594000   37.780700  -117.218000
  H    -116.461000   36.458100  -116.319000
  H    -117.411000   37.701000  -117.256000
  S    -113.793000   43.301700  -110.784000
  C    -112.737000   42.716200  -109.550000
  C    -112.464000   41.408900  -109.666000
  C    -113.236000   40.738000  -110.648000
  C    -114.180000   41.562000  -111.262000
  H    -111.746000   41.029200  -108.922000
  C    -113.206000   39.205200  -110.817000
  H    -112.190000   38.878600  -110.719000
  H    -113.438000   38.998200  -111.875000
  C    -114.291000   38.445600  -110.063000
  H    -115.298000   38.762100  -110.188000
  H    -113.967000   38.343300  -109.025000
  C    -114.279000   36.998500  -110.673000
  H    -115.021000   36.363300  -110.202000
  H    -113.299000   36.554800  -110.432000
  H    -114.437000   37.061300  -111.742000
  H    -118.142000   41.821000  -114.299000
  H    -112.173000   43.356900  -108.885000

 Total Charge           Charge          ....    0
 Multiplicity           Mult            ....    1
 Number of Electrons    NEL             ....  134
 Basis Dimension        Dim             ....  322

ORBITAL ENERGIES
----------------

  NO   OCC          E(Eh)            E(eV)
   0   2.0000     -88.969982     -2420.9963
   1   2.0000     -88.961352     -2420.7614
   2   2.0000     -10.334612      -281.2191
   3   2.0000     -10.334157      -281.2067
   4   2.0000     -10.319901      -280.8188
   5   2.0000     -10.309996      -280.5493
   6   2.0000     -10.309268      -280.5294
   7   2.0000     -10.305312      -280.4218
   8   2.0000     -10.297403      -280.2066
   9   2.0000     -10.294722      -280.1336
  10   2.0000     -10.291683      -280.0509
  11   2.0000     -10.291648      -280.0500
  12   2.0000     -10.288761      -279.9714
  13   2.0000     -10.286904      -279.9209
  14   2.0000     -10.283967      -279.8410
  15   2.0000     -10.276257      -279.6312
  16   2.0000      -8.084642      -219.9943
  17   2.0000      -8.075524      -219.7462
  18   2.0000      -6.043115      -164.4415
  19   2.0000      -6.039170      -164.3342
  20   2.0000      -6.035407      -164.2318
  21   2.0000      -6.034065      -164.1953
  22   2.0000      -6.030345      -164.0940
  23   2.0000      -6.026047      -163.9771
  24   2.0000      -1.004462       -27.3328
  25   2.0000      -0.983646       -26.7664
  26   2.0000      -0.909972       -24.7616
  27   2.0000      -0.909566       -24.7506
  28   2.0000      -0.870791       -23.6954
  29   2.0000      -0.852587       -23.2001
  30   2.0000      -0.844186       -22.9715
  31   2.0000      -0.815541       -22.1920
  32   2.0000      -0.780156       -21.2291
  33   2.0000      -0.767347       -20.8806
  34   2.0000      -0.707817       -19.2607
  35   2.0000      -0.695406       -18.9230
  36   2.0000      -0.685879       -18.6637
  37   2.0000      -0.656321       -17.8594
  38   2.0000      -0.640243       -17.4219
  39   2.0000      -0.624569       -16.9954
  40   2.0000      -0.594031       -16.1644
  41   2.0000      -0.576603       -15.6902
  42   2.0000      -0.573574       -15.6077
  43   2.0000      -0.562566       -15.3082
  44   2.0000      -0.527111       -14.3434
  45   2.0000      -0.525661       -14.3040
  46   2.0000      -0.511755       -13.9256
  47   2.0000      -0.505183       -13.7467
  48   2.0000      -0.503327       -13.6962
  49   2.0000      -0.500702       -13.6248
  50   2.0000      -0.492201       -13.3935
  51   2.0000      -0.479040       -13.0353
  52   2.0000      -0.469463       -12.7747
  53   2.0000      -0.467752       -12.7282
  54   2.0000      -0.459495       -12.5035
  55   2.0000      -0.447968       -12.1898
  56   2.0000      -0.443600       -12.0710
  57   2.0000      -0.435799       -11.8587
  58   2.0000      -0.427739       -11.6394
  59   2.0000      -0.421189       -11.4611
  60   2.0000      -0.418884       -11.3984
  61   2.0000      -0.415436       -11.3046
  62   2.0000      -0.409436       -11.1413
  63   2.0000      -0.359404        -9.7799
  64   2.0000      -0.332607        -9.0507
  65   2.0000      -0.330459        -8.9923
  66   2.0000      -0.283501        -7.7144
  67   0.0000       0.020756         0.5648
  68   0.0000       0.066218         1.8019
  69   0.0000       0.104181         2.8349
  70   0.0000       0.115297         3.1374
  71   0.0000       0.123629         3.3641

MULLIKEN ATOMIC CHARGES
-----------------------
   0 S :    0.122749
   1 C :   -0.107735
   2 C :   -0.077926
   3 C :   -0.010811
   4 C :   -0.129125
   5 H :    0.037552
   6 C :    0.051386
   7 H :    0.021556
   8 H :    0.002904
   9 C :   -0.095222
  10 H :    0.032482
  11 H :    0.041556
  12 C :   -0.078916
  13 H :    0.031422
  14 H :    0.050285
  15 H :    0.037749
  16 S :    0.073919
  17 C :   -0.074965
  18 C :   -0.050740
  19 C :   -0.024245
  20 C :   -0.129931
  21 H :    0.024315
  22 C :    0.058714
  23 H :    0.020512
  24 H :   -0.007193
  25 C :   -0.030348
  26 H :    0.041946
  27 H :    0.032565
  28 C :   -0.069793
  29 H :    0.032720
  30 H :    0.026352
  31 H :    0.035758
  32 H :    0.059419
  33 H :    0.051089
Sum of atomic charges:   -0.0000000

LOEWDIN ATOMIC CHARGES
----------------------
   0 S :    0.415789
   1 C :   -0.204027
   2 C :   -0.058879
   3 C :   -0.066442
   4 C :   -0.184077
   5 H :    0.033510
   6 C :   -0.037392
   7 H :    0.025200
   8 H :    0.025545
   9 C :   -0.049034
  10 H :    0.027056
  11 H :    0.026806
  12 C :   -0.070906
  13 H :    0.032122
  14 H :    0.035474
  15 H :    0.017500
  16 S :    0.363196
  17 C :   -0.183998
  18 C :   -0.083120
  19 C :   -0.055566
  20 C :   -0.162339
  21 H :    0.038955
  22 C :   -0.030151
  23 H :    0.028631
  24 H :    0.025845
  25 C :   -0.026675
  26 H :    0.026146
  27 H :    0.025430
  28 C :   -0.061551
  29 H :    0.022082
  30 H :    0.023472
  31 H :    0.020346
  32 H :    0.031797
  33 H :    0.029255

  Mayer bond orders larger than 0.100000
B(  0-S ,  1-C ) :   1.1602 B(  0-S ,  4-C ) :   1.1367 B(  1-C ,  2-C ) :   1.5840
B(  1-C ,  4-C ) :   0.1004 B(  1-C , 32-H ) :   0.9642 B(  2-C ,  3-C ) :   1.2534
B(  2-C ,  6-C ) :   1.0301 B(  3-C ,  4-C ) :   1.5799 B(  3-C ,  5-H ) :   0.9742
B(  4-C , 20-C ) :   1.0736 B(  6-C ,  7-H ) :   0.9370 B(  6-C ,  8-H ) :   0.9452
B(  6-C ,  9-C ) :   1.0673 B(  9-C , 10-H ) :   0.9525 B(  9-C , 11-H ) :   0.9572
B(  9-C , 12-C ) :   1.0761 B( 12-C , 13-H ) :   0.9760 B( 12-C , 14-H ) :   0.9728
B( 12-C , 15-H ) :   0.9764 B( 16-S , 17-C ) :   1.1387 B( 16-S , 20-C ) :   1.1140
B( 17-C , 18-C ) :   1.6571 B( 17-C , 33-H ) :   0.9606 B( 18-C , 19-C ) :   1.2086
B( 18-C , 21-H ) :   0.9906 B( 19-C , 20-C ) :   1.6109 B( 19-C , 22-C ) :   1.0439
B( 22-C , 23-H ) :   0.9328 B( 22-C , 24-H ) :   0.9356 B( 22-C , 25-C ) :   1.0658
B( 25-C , 26-H ) :   0.9586 B( 25-C , 27-H ) :   0.9557 B( 25-C , 28-C ) :   1.0743
B( 28-C , 29-H ) :   0.9751 B( 28-C , 30-H ) :   0.9765 B( 28-C , 31-H ) :   0.9777

Dispersion correction           -0.013930215
FINAL SINGLE POINT ENERGY     -1339.859741214801

DIPOLE MOMENT
-------------
                                X             Y             Z
Electronic contribution:      0.65718      30.72179      11.40624
Nuclear contribution   :     -0.51859     -31.35262     -11.61926
                        -----------------------------------------
Total Dipole Moment    :      0.13858      -0.63084      -0.21303
                        -----------------------------------------
Magnitude (a.u.)       :      0.68010
Magnitude (Debye)      :      1.72868

Rotational constants in cm-1:     0.018065     0.009002     0.006578
Rotational constants in MHz :   541.569560   269.862210   197.217844

                             ****ORCA TERMINATED NORMALLY****
TOTAL RUN TIME: 0 days 0 hours 0 minutes 21 seconds 781 msec
