                         Program Version 4.2.1 -  RELEASE  -
|  1> ! wB97X-D3 SP def2-SVP
|  2> %pal
|  3> nprocs 24
|  4> end
|  5>
|  6> * xyz 0 1
|  7> S 	 -108.554 	 54.0789 	 -94.3926
|  8> C 	 -108.208 	 55.2562 	 -95.6145
|  9> C 	 -108.622 	 56.5052 	 -95.2024
| 10> C 	 -108.99 	 56.6441 	 -93.8592
| 11> C 	 -109.018 	 55.4002 	 -93.2567
| 12> H 	 -109.146 	 57.621 	 -93.2741
| 13> C 	 -108.619 	 57.7009 	 -96.1296
| 14> H 	 -107.586 	 57.7887 	 -96.4142
| 15> H 	 -108.936 	 58.5689 	 -95.5414
| 16> C 	 -109.628 	 57.7323 	 -97.334
| 17> H 	 -109.537 	 56.8405 	 -98.0095
| 18> H 	 -110.592 	 57.8251 	 -96.9327
| 19> C 	 -109.37 	 58.9973 	 -98.1982
| 20> H 	 -109.524 	 59.9705 	 -97.6908
| 21> H 	 -108.293 	 58.9021 	 -98.4838
| 22> H 	 -109.967 	 59.1047 	 -99.1427
| 23> S 	 -108.18 	 55.1314 	 -90.6054
| 24> C 	 -109.355 	 54.9651 	 -89.4018
| 25> C 	 -110.591 	 54.7047 	 -89.9375
| 26> C 	 -110.663 	 54.7138 	 -91.3739
| 27> C 	 -109.432 	 55.0871 	 -91.8529
| 28> H 	 -111.381 	 54.4959 	 -89.3256
| 29> C 	 -111.919 	 54.4892 	 -92.2041
| 30> H 	 -111.581 	 54.4961 	 -93.2217
| 31> H 	 -112.696 	 55.3152 	 -92.23
| 32> C 	 -112.647 	 53.1296 	 -92.0197
| 33> H 	 -113.61 	 53.1548 	 -92.4797
| 34> H 	 -112.941 	 52.9422 	 -90.9467
| 35> C 	 -111.851 	 51.9334 	 -92.5372
| 36> H 	 -112.612 	 51.1184 	 -92.5031
| 37> H 	 -110.964 	 51.6739 	 -91.9815
| 38> H 	 -111.538 	 52.0023 	 -93.5781
| 39> H 	 -107.896 	 55.0245 	 -96.6418
| 40> H 	 -109.061 	 55.0206 	 -88.3584
| 41> *
| 42>
| 43>                          ****END OF INPUT****

CARTESIAN COORDINATES (ANGSTROEM)
---------------------------------
  S    -108.554000   54.078900  -94.392600
  C    -108.208000   55.256200  -95.614500
  C    -108.622000   56.505200  -95.202400
  C    -108.990000   56.644100  -93.859200
  C    -109.018000   55.400200  -93.256700
  H    -109.146000   57.621000  -93.274100
  C    -108.619000   57.700900  -96.129600
  H    -107.586000   57.788700  -96.414200
  H    -108.936000   58.568900  -95.541400
  C    -109.628000   57.732300  -97.334000
  H    -109.537000   56.840500  -98.009500
  H    -110.592000   57.825100  -96.932700
  C    -109.370000   58.997300  -98.198200
  H    -109.524000   59.970500  -97.690800
  H    -108.293000   58.902100  -98.483800
  H    -109.967000   59.104700  -99.142700
  S    -108.180000   55.131400  -90.605400
  C    -109.355000   54.965100  -89.401800
  C    -110.591000   54.704700  -89.937500
  C    -110.663000   54.713800  -91.373900
  C    -109.432000   55.087100  -91.852900
  H    -111.381000   54.495900  -89.325600
  C    -111.919000   54.489200  -92.204100
  H    -111.581000   54.496100  -93.221700
  H    -112.696000   55.315200  -92.230000
  C    -112.647000   53.129600  -92.019700
  H    -113.610000   53.154800  -92.479700
  H    -112.941000   52.942200  -90.946700
  C    -111.851000   51.933400  -92.537200
  H    -112.612000   51.118400  -92.503100
  H    -110.964000   51.673900  -91.981500
  H    -111.538000   52.002300  -93.578100
  H    -107.896000   55.024500  -96.641800
  H    -109.061000   55.020600  -88.358400

 Total Charge           Charge          ....    0
 Multiplicity           Mult            ....    1
 Number of Electrons    NEL             ....  134
 Basis Dimension        Dim             ....  322

ORBITAL ENERGIES
----------------

  NO   OCC          E(Eh)            E(eV)
   0   2.0000     -88.967421     -2420.9266
   1   2.0000     -88.961159     -2420.7562
   2   2.0000     -10.332362      -281.1579
   3   2.0000     -10.323921      -280.9282
   4   2.0000     -10.311980      -280.6032
   5   2.0000     -10.311228      -280.5828
   6   2.0000     -10.303645      -280.3764
   7   2.0000     -10.300329      -280.2862
   8   2.0000     -10.295257      -280.1482
   9   2.0000     -10.293328      -280.0957
  10   2.0000     -10.290813      -280.0273
  11   2.0000     -10.288919      -279.9757
  12   2.0000     -10.287579      -279.9393
  13   2.0000     -10.285795      -279.8907
  14   2.0000     -10.283898      -279.8391
  15   2.0000     -10.273220      -279.5485
  16   2.0000      -8.081348      -219.9047
  17   2.0000      -8.077192      -219.7916
  18   2.0000      -6.039806      -164.3515
  19   2.0000      -6.035998      -164.2478
  20   2.0000      -6.035533      -164.2352
  21   2.0000      -6.032179      -164.1439
  22   2.0000      -6.031533      -164.1264
  23   2.0000      -6.028058      -164.0318
  24   2.0000      -1.005698       -27.3664
  25   2.0000      -0.987294       -26.8656
  26   2.0000      -0.906257       -24.6605
  27   2.0000      -0.903712       -24.5913
  28   2.0000      -0.863461       -23.4960
  29   2.0000      -0.850738       -23.1497
  30   2.0000      -0.849004       -23.1026
  31   2.0000      -0.811486       -22.0816
  32   2.0000      -0.781592       -21.2682
  33   2.0000      -0.763436       -20.7742
  34   2.0000      -0.702304       -19.1107
  35   2.0000      -0.700124       -19.0513
  36   2.0000      -0.692793       -18.8519
  37   2.0000      -0.657235       -17.8843
  38   2.0000      -0.636549       -17.3214
  39   2.0000      -0.614334       -16.7169
  40   2.0000      -0.600616       -16.3436
  41   2.0000      -0.571975       -15.5642
  42   2.0000      -0.557160       -15.1611
  43   2.0000      -0.547972       -14.9111
  44   2.0000      -0.535246       -14.5648
  45   2.0000      -0.519157       -14.1270
  46   2.0000      -0.514111       -13.9897
  47   2.0000      -0.508814       -13.8455
  48   2.0000      -0.506337       -13.7781
  49   2.0000      -0.496168       -13.5014
  50   2.0000      -0.487529       -13.2663
  51   2.0000      -0.478192       -13.0123
  52   2.0000      -0.471155       -12.8208
  53   2.0000      -0.460594       -12.5334
  54   2.0000      -0.456019       -12.4089
  55   2.0000      -0.449441       -12.2299
  56   2.0000      -0.444506       -12.0956
  57   2.0000      -0.431767       -11.7490
  58   2.0000      -0.429418       -11.6851
  59   2.0000      -0.422410       -11.4944
  60   2.0000      -0.420235       -11.4352
  61   2.0000      -0.417562       -11.3625
  62   2.0000      -0.413770       -11.2593
  63   2.0000      -0.340226        -9.2580
  64   2.0000      -0.328771        -8.9463
  65   2.0000      -0.317353        -8.6356
  66   2.0000      -0.308066        -8.3829
  67   0.0000       0.044498         1.2108
  68   0.0000       0.054338         1.4786
  69   0.0000       0.110164         2.9977
  70   0.0000       0.122468         3.3325
  71   0.0000       0.127498         3.4694

MULLIKEN ATOMIC CHARGES
-----------------------
   0 S :    0.114422
   1 C :   -0.121671
   2 C :   -0.092664
   3 C :    0.031951
   4 C :   -0.188462
   5 H :    0.058326
   6 C :    0.043340
   7 H :    0.035288
   8 H :    0.013994
   9 C :   -0.043388
  10 H :    0.038670
  11 H :    0.024102
  12 C :   -0.096108
  13 H :    0.036658
  14 H :    0.031599
  15 H :    0.044458
  16 S :    0.118172
  17 C :   -0.090503
  18 C :   -0.002133
  19 C :    0.025524
  20 C :   -0.218938
  21 H :   -0.023757
  22 C :    0.067951
  23 H :    0.012132
  24 H :    0.046458
  25 C :   -0.079916
  26 H :    0.019829
  27 H :    0.030680
  28 C :   -0.056920
  29 H :    0.031411
  30 H :    0.045536
  31 H :    0.028816
  32 H :    0.054748
  33 H :    0.060395
Sum of atomic charges:   -0.0000000

LOEWDIN ATOMIC CHARGES
----------------------
   0 S :    0.395788
   1 C :   -0.207963
   2 C :   -0.071733
   3 C :   -0.065869
   4 C :   -0.179093
   5 H :    0.055683
   6 C :   -0.031701
   7 H :    0.029381
   8 H :    0.029135
   9 C :   -0.033021
  10 H :    0.026886
  11 H :    0.016836
  12 C :   -0.078177
  13 H :    0.024927
  14 H :    0.027104
  15 H :    0.029759
  16 S :    0.419709
  17 C :   -0.197451
  18 C :   -0.063164
  19 C :   -0.049418
  20 C :   -0.199534
  21 H :    0.012613
  22 C :   -0.036716
  23 H :    0.025875
  24 H :    0.040008
  25 C :   -0.043075
  26 H :    0.021598
  27 H :    0.026501
  28 C :   -0.067234
  29 H :    0.031695
  30 H :    0.025280
  31 H :    0.023052
  32 H :    0.032543
  33 H :    0.029774

  Mayer bond orders larger than 0.100000
B(  0-S ,  1-C ) :   1.1341 B(  0-S ,  4-C ) :   1.1597 B(  1-C ,  2-C ) :   1.6065
B(  1-C ,  4-C ) :   0.1002 B(  1-C , 32-H ) :   0.9677 B(  2-C ,  3-C ) :   1.2585
B(  2-C ,  6-C ) :   1.0140 B(  3-C ,  4-C ) :   1.5902 B(  3-C ,  5-H ) :   0.9752
B(  4-C , 20-C ) :   0.9858 B(  6-C ,  7-H ) :   0.9430 B(  6-C ,  8-H ) :   0.9457
B(  6-C ,  9-C ) :   1.0563 B(  9-C , 10-H ) :   0.9593 B(  9-C , 11-H ) :   0.9578
B(  9-C , 12-C ) :   1.0706 B( 12-C , 13-H ) :   0.9760 B( 12-C , 14-H ) :   0.9772
B( 12-C , 15-H ) :   0.9753 B( 16-S , 17-C ) :   1.1627 B( 16-S , 20-C ) :   1.1638
B( 17-C , 18-C ) :   1.5964 B( 17-C , 33-H ) :   0.9709 B( 18-C , 19-C ) :   1.2164
B( 18-C , 21-H ) :   1.0089 B( 19-C , 20-C ) :   1.6061 B( 19-C , 22-C ) :   1.0395
B( 22-C , 23-H ) :   0.9259 B( 22-C , 24-H ) :   0.9401 B( 22-C , 25-C ) :   1.0713
B( 25-C , 26-H ) :   0.9545 B( 25-C , 27-H ) :   0.9560 B( 25-C , 28-C ) :   1.0727
B( 28-C , 29-H ) :   0.9738 B( 28-C , 30-H ) :   0.9777 B( 28-C , 31-H ) :   0.9735

Dispersion correction           -0.014403625
FINAL SINGLE POINT ENERGY     -1339.876383575422

DIPOLE MOMENT
-------------
                                X             Y             Z
Electronic contribution:     14.43352      -5.91708      16.23460
Nuclear contribution   :    -14.85132       6.19287     -16.40815
                        -----------------------------------------
Total Dipole Moment    :     -0.41780       0.27578      -0.17356
                        -----------------------------------------
Magnitude (a.u.)       :      0.52985
Magnitude (Debye)      :      1.34677

Rotational constants in cm-1:     0.021259     0.007401     0.006609
Rotational constants in MHz :   637.323385   221.883583   198.135815

                             ****ORCA TERMINATED NORMALLY****
TOTAL RUN TIME: 0 days 0 hours 0 minutes 20 seconds 116 msec
