                         Program Version 4.2.1 -  RELEASE  -
|  1> ! wB97X-D3 SP def2-SVP
|  2> %pal
|  3> nprocs 24
|  4> end
|  5>
|  6> * xyz 0 1
|  7> S 	 -16.5174 	 -35.9255 	 -93.0979
|  8> C 	 -14.9825 	 -36.3812 	 -93.6368
|  9> C 	 -14.2801 	 -35.3191 	 -94.2143
| 10> C 	 -14.9949 	 -34.1145 	 -94.1168
| 11> C 	 -16.2461 	 -34.2517 	 -93.5141
| 12> H 	 -14.6755 	 -33.1577 	 -94.5583
| 13> C 	 -12.8938 	 -35.5565 	 -94.9412
| 14> H 	 -11.999 	 -35.8565 	 -94.3478
| 15> H 	 -12.6657 	 -34.5411 	 -95.2651
| 16> C 	 -12.9199 	 -36.4846 	 -96.1894
| 17> H 	 -12.7468 	 -37.5172 	 -95.8781
| 18> H 	 -13.8771 	 -36.473 	 -96.696
| 19> C 	 -11.6872 	 -36.2439 	 -97.1018
| 20> H 	 -10.7648 	 -36.4352 	 -96.5885
| 21> H 	 -11.7742 	 -36.9646 	 -97.9481
| 22> H 	 -11.625 	 -35.2983 	 -97.4917
| 23> S 	 -18.6247 	 -33.1618 	 -93.8133
| 24> C 	 -19.0162 	 -31.6169 	 -93.1929
| 25> C 	 -18.0106 	 -31.0765 	 -92.4928
| 26> C 	 -16.8618 	 -31.9287 	 -92.4161
| 27> C 	 -17.0936 	 -33.1612 	 -93.0743
| 28> H 	 -17.9758 	 -30.0812 	 -92.0649
| 29> C 	 -15.5676 	 -31.4539 	 -91.6844
| 30> H 	 -15.1334 	 -30.5774 	 -92.1535
| 31> H 	 -14.8644 	 -32.2892 	 -91.671
| 32> C 	 -15.884 	 -31.075 	 -90.2553
| 33> H 	 -16.5952 	 -31.8904 	 -89.9644
| 34> H 	 -16.5203 	 -30.1771 	 -90.1347
| 35> C 	 -14.6769 	 -31.1331 	 -89.3408
| 36> H 	 -14.0184 	 -30.3183 	 -89.5835
| 37> H 	 -14.275 	 -32.1074 	 -89.495
| 38> H 	 -14.8425 	 -31.1041 	 -88.2826
| 39> H 	 -14.6414 	 -37.4228 	 -93.5944
| 40> H 	 -19.817 	 -30.925 	 -93.3621
| 41> *
| 42>
| 43>                          ****END OF INPUT****

CARTESIAN COORDINATES (ANGSTROEM)
---------------------------------
  S    -16.517400  -35.925500  -93.097900
  C    -14.982500  -36.381200  -93.636800
  C    -14.280100  -35.319100  -94.214300
  C    -14.994900  -34.114500  -94.116800
  C    -16.246100  -34.251700  -93.514100
  H    -14.675500  -33.157700  -94.558300
  C    -12.893800  -35.556500  -94.941200
  H    -11.999000  -35.856500  -94.347800
  H    -12.665700  -34.541100  -95.265100
  C    -12.919900  -36.484600  -96.189400
  H    -12.746800  -37.517200  -95.878100
  H    -13.877100  -36.473000  -96.696000
  C    -11.687200  -36.243900  -97.101800
  H    -10.764800  -36.435200  -96.588500
  H    -11.774200  -36.964600  -97.948100
  H    -11.625000  -35.298300  -97.491700
  S    -18.624700  -33.161800  -93.813300
  C    -19.016200  -31.616900  -93.192900
  C    -18.010600  -31.076500  -92.492800
  C    -16.861800  -31.928700  -92.416100
  C    -17.093600  -33.161200  -93.074300
  H    -17.975800  -30.081200  -92.064900
  C    -15.567600  -31.453900  -91.684400
  H    -15.133400  -30.577400  -92.153500
  H    -14.864400  -32.289200  -91.671000
  C    -15.884000  -31.075000  -90.255300
  H    -16.595200  -31.890400  -89.964400
  H    -16.520300  -30.177100  -90.134700
  C    -14.676900  -31.133100  -89.340800
  H    -14.018400  -30.318300  -89.583500
  H    -14.275000  -32.107400  -89.495000
  H    -14.842500  -31.104100  -88.282600
  H    -14.641400  -37.422800  -93.594400
  H    -19.817000  -30.925000  -93.362100

 Total Charge           Charge          ....    0
 Multiplicity           Mult            ....    1
 Number of Electrons    NEL             ....  134
 Basis Dimension        Dim             ....  322

ORBITAL ENERGIES
----------------

  NO   OCC          E(Eh)            E(eV)
   0   2.0000     -88.968146     -2420.9463
   1   2.0000     -88.964408     -2420.8446
   2   2.0000     -10.326748      -281.0051
   3   2.0000     -10.323314      -280.9117
   4   2.0000     -10.312204      -280.6093
   5   2.0000     -10.306530      -280.4549
   6   2.0000     -10.305125      -280.4167
   7   2.0000     -10.303436      -280.3708
   8   2.0000     -10.299067      -280.2519
   9   2.0000     -10.296980      -280.1951
  10   2.0000     -10.291065      -280.0341
  11   2.0000     -10.287372      -279.9336
  12   2.0000     -10.285701      -279.8882
  13   2.0000     -10.282408      -279.7985
  14   2.0000     -10.273940      -279.5681
  15   2.0000     -10.269768      -279.4546
  16   2.0000      -8.083977      -219.9762
  17   2.0000      -8.080722      -219.8876
  18   2.0000      -6.042185      -164.4162
  19   2.0000      -6.039195      -164.3348
  20   2.0000      -6.038156      -164.3066
  21   2.0000      -6.035176      -164.2255
  22   2.0000      -6.034902      -164.2180
  23   2.0000      -6.031515      -164.1259
  24   2.0000      -1.014791       -27.6139
  25   2.0000      -0.992681       -27.0122
  26   2.0000      -0.912889       -24.8410
  27   2.0000      -0.903406       -24.5829
  28   2.0000      -0.874951       -23.8086
  29   2.0000      -0.853902       -23.2359
  30   2.0000      -0.846868       -23.0444
  31   2.0000      -0.814638       -22.1674
  32   2.0000      -0.781789       -21.2736
  33   2.0000      -0.769626       -20.9426
  34   2.0000      -0.703107       -19.1325
  35   2.0000      -0.700715       -19.0674
  36   2.0000      -0.692589       -18.8463
  37   2.0000      -0.657706       -17.8971
  38   2.0000      -0.642829       -17.4923
  39   2.0000      -0.620102       -16.8738
  40   2.0000      -0.596212       -16.2238
  41   2.0000      -0.572513       -15.5789
  42   2.0000      -0.569013       -15.4836
  43   2.0000      -0.560225       -15.2445
  44   2.0000      -0.523449       -14.2438
  45   2.0000      -0.518206       -14.1011
  46   2.0000      -0.516805       -14.0630
  47   2.0000      -0.511452       -13.9173
  48   2.0000      -0.504826       -13.7370
  49   2.0000      -0.497332       -13.5331
  50   2.0000      -0.495527       -13.4840
  51   2.0000      -0.484058       -13.1719
  52   2.0000      -0.475851       -12.9486
  53   2.0000      -0.462485       -12.5849
  54   2.0000      -0.461978       -12.5711
  55   2.0000      -0.450637       -12.2624
  56   2.0000      -0.446646       -12.1539
  57   2.0000      -0.436158       -11.8685
  58   2.0000      -0.430623       -11.7179
  59   2.0000      -0.429506       -11.6874
  60   2.0000      -0.423815       -11.5326
  61   2.0000      -0.408490       -11.1156
  62   2.0000      -0.406445       -11.0599
  63   2.0000      -0.348726        -9.4893
  64   2.0000      -0.336691        -9.1618
  65   2.0000      -0.325821        -8.8660
  66   2.0000      -0.293398        -7.9838
  67   0.0000       0.037111         1.0098
  68   0.0000       0.067867         1.8468
  69   0.0000       0.119321         3.2469
  70   0.0000       0.128557         3.4982
  71   0.0000       0.135174         3.6783

MULLIKEN ATOMIC CHARGES
-----------------------
   0 S :    0.135222
   1 C :   -0.130281
   2 C :   -0.088391
   3 C :    0.026997
   4 C :   -0.166667
   5 H :    0.025352
   6 C :    0.054727
   7 H :    0.042640
   8 H :    0.008537
   9 C :   -0.078511
  10 H :    0.025659
  11 H :    0.039275
  12 C :   -0.036592
  13 H :    0.024282
  14 H :    0.036809
  15 H :    0.015815
  16 S :    0.119614
  17 C :   -0.038676
  18 C :   -0.058367
  19 C :   -0.067434
  20 C :   -0.169265
  21 H :    0.017215
  22 C :    0.108391
  23 H :    0.030861
  24 H :    0.024184
  25 C :   -0.146914
  26 H :    0.034488
  27 H :    0.031912
  28 C :    0.000304
  29 H :    0.028590
  30 H :    0.022047
  31 H :    0.027386
  32 H :    0.059316
  33 H :    0.041477
Sum of atomic charges:    0.0000000

LOEWDIN ATOMIC CHARGES
----------------------
   0 S :    0.443630
   1 C :   -0.213970
   2 C :   -0.071274
   3 C :   -0.061031
   4 C :   -0.216963
   5 H :    0.037996
   6 C :   -0.034090
   7 H :    0.035669
   8 H :    0.023439
   9 C :   -0.040101
  10 H :    0.023288
  11 H :    0.024033
  12 C :   -0.055268
  13 H :    0.022897
  14 H :    0.033221
  15 H :    0.009010
  16 S :    0.449327
  17 C :   -0.201695
  18 C :   -0.074431
  19 C :   -0.050462
  20 C :   -0.222596
  21 H :    0.031516
  22 C :   -0.025806
  23 H :    0.028066
  24 H :    0.030468
  25 C :   -0.053041
  26 H :    0.029135
  27 H :    0.019711
  28 C :   -0.059689
  29 H :    0.023453
  30 H :    0.025130
  31 H :    0.025002
  32 H :    0.031892
  33 H :    0.033535

  Mayer bond orders larger than 0.100000
B(  0-S ,  1-C ) :   1.1876 B(  0-S ,  4-C ) :   1.1755 B(  1-C ,  2-C ) :   1.5455
B(  1-C ,  4-C ) :   0.1081 B(  1-C , 32-H ) :   0.9715 B(  2-C ,  3-C ) :   1.3128
B(  2-C ,  6-C ) :   0.9991 B(  3-C ,  4-C ) :   1.5258 B(  3-C ,  5-H ) :   0.9937
B(  4-C , 20-C ) :   0.9997 B(  6-C ,  7-H ) :   0.9455 B(  6-C ,  8-H ) :   0.9499
B(  6-C ,  9-C ) :   1.0566 B(  9-C , 10-H ) :   0.9543 B(  9-C , 11-H ) :   0.9636
B(  9-C , 12-C ) :   1.0781 B( 12-C , 13-H ) :   0.9749 B( 12-C , 14-H ) :   0.9748
B( 12-C , 15-H ) :   0.9798 B( 16-S , 17-C ) :   1.1543 B( 16-S , 20-C ) :   1.1679
B( 17-C , 18-C ) :   1.6124 B( 17-C , 33-H ) :   0.9613 B( 18-C , 19-C ) :   1.2632
B( 18-C , 21-H ) :   0.9866 B( 19-C , 20-C ) :   1.5872 B( 19-C , 22-C ) :   1.0372
B( 22-C , 23-H ) :   0.9327 B( 22-C , 24-H ) :   0.9391 B( 22-C , 25-C ) :   1.0521
B( 25-C , 26-H ) :   0.9590 B( 25-C , 27-H ) :   0.9522 B( 25-C , 28-C ) :   1.0865
B( 28-C , 29-H ) :   0.9732 B( 28-C , 30-H ) :   0.9722 B( 28-C , 31-H ) :   0.9732

Dispersion correction           -0.013402733
FINAL SINGLE POINT ENERGY     -1339.870327901640

DIPOLE MOMENT
-------------
                                X             Y             Z
Electronic contribution:    -24.54436      -4.81020      -0.99498
Nuclear contribution   :     25.09577       5.08205       0.93491
                        -----------------------------------------
Total Dipole Moment    :      0.55140       0.27184      -0.06008
                        -----------------------------------------
Magnitude (a.u.)       :      0.61770
Magnitude (Debye)      :      1.57007

Rotational constants in cm-1:     0.019302     0.007274     0.006193
Rotational constants in MHz :   578.651937   218.081984   185.657000

                             ****ORCA TERMINATED NORMALLY****
TOTAL RUN TIME: 0 days 0 hours 0 minutes 20 seconds 752 msec
