                         Program Version 4.2.1 -  RELEASE  -
|  1> ! wB97X-D3 SP def2-SVP
|  2> %pal
|  3> nprocs 24
|  4> end
|  5>
|  6> * xyz 0 1
|  7> S 	 -57.3042 	 13.5869 	 -95.2898
|  8> C 	 -57.043 	 12.8629 	 -96.8751
|  9> C 	 -58.1655 	 13.0215 	 -97.6446
| 10> C 	 -59.0657 	 14.0314 	 -97.1158
| 11> C 	 -58.7318 	 14.486 	 -95.8537
| 12> H 	 -59.8966 	 14.3809 	 -97.6883
| 13> C 	 -58.3423 	 12.4884 	 -99.0022
| 14> H 	 -59.3825 	 12.6298 	 -99.3455
| 15> H 	 -58.0599 	 11.4446 	 -99.0732
| 16> C 	 -57.5666 	 13.2362 	 -100.1
| 17> H 	 -57.8769 	 14.292 	 -100.093
| 18> H 	 -56.4474 	 13.149 	 -99.9668
| 19> C 	 -57.9048 	 12.7367 	 -101.497
| 20> H 	 -58.8609 	 12.686 	 -101.865
| 21> H 	 -57.3023 	 13.2847 	 -102.233
| 22> H 	 -57.5633 	 11.7453 	 -101.559
| 23> S 	 -60.4935 	 14.6989 	 -93.8049
| 24> C 	 -61.0099 	 16.3003 	 -93.2123
| 25> C 	 -60.315 	 17.3341 	 -93.8406
| 26> C 	 -59.4673 	 16.8683 	 -94.8782
| 27> C 	 -59.4567 	 15.4592 	 -94.978
| 28> H 	 -60.3777 	 18.378 	 -93.6233
| 29> C 	 -58.7115 	 17.8824 	 -95.705
| 30> H 	 -57.714 	 17.3865 	 -95.8469
| 31> H 	 -58.4238 	 18.7548 	 -95.1552
| 32> C 	 -59.2757 	 18.249 	 -97.0569
| 33> H 	 -59.3388 	 17.438 	 -97.8047
| 34> H 	 -58.5893 	 18.9229 	 -97.513
| 35> C 	 -60.6069 	 19.0276 	 -96.9587
| 36> H 	 -60.3459 	 19.9985 	 -96.5996
| 37> H 	 -61.373 	 18.607 	 -96.3067
| 38> H 	 -61.0742 	 19.1411 	 -97.9486
| 39> H 	 -56.3455 	 12.0957 	 -97.1587
| 40> H 	 -61.7785 	 16.4661 	 -92.4432
| 41> *
| 42>
| 43>                          ****END OF INPUT****

CARTESIAN COORDINATES (ANGSTROEM)
---------------------------------
  S    -57.304200   13.586900  -95.289800
  C    -57.043000   12.862900  -96.875100
  C    -58.165500   13.021500  -97.644600
  C    -59.065700   14.031400  -97.115800
  C    -58.731800   14.486000  -95.853700
  H    -59.896600   14.380900  -97.688300
  C    -58.342300   12.488400  -99.002200
  H    -59.382500   12.629800  -99.345500
  H    -58.059900   11.444600  -99.073200
  C    -57.566600   13.236200  -100.100000
  H    -57.876900   14.292000  -100.093000
  H    -56.447400   13.149000  -99.966800
  C    -57.904800   12.736700  -101.497000
  H    -58.860900   12.686000  -101.865000
  H    -57.302300   13.284700  -102.233000
  H    -57.563300   11.745300  -101.559000
  S    -60.493500   14.698900  -93.804900
  C    -61.009900   16.300300  -93.212300
  C    -60.315000   17.334100  -93.840600
  C    -59.467300   16.868300  -94.878200
  C    -59.456700   15.459200  -94.978000
  H    -60.377700   18.378000  -93.623300
  C    -58.711500   17.882400  -95.705000
  H    -57.714000   17.386500  -95.846900
  H    -58.423800   18.754800  -95.155200
  C    -59.275700   18.249000  -97.056900
  H    -59.338800   17.438000  -97.804700
  H    -58.589300   18.922900  -97.513000
  C    -60.606900   19.027600  -96.958700
  H    -60.345900   19.998500  -96.599600
  H    -61.373000   18.607000  -96.306700
  H    -61.074200   19.141100  -97.948600
  H    -56.345500   12.095700  -97.158700
  H    -61.778500   16.466100  -92.443200

 Total Charge           Charge          ....    0
 Multiplicity           Mult            ....    1
 Number of Electrons    NEL             ....  134
 Basis Dimension        Dim             ....  322

ORBITAL ENERGIES
----------------

  NO   OCC          E(Eh)            E(eV)
   0   2.0000     -88.969284     -2420.9773
   1   2.0000     -88.964181     -2420.8384
   2   2.0000     -10.334703      -281.2216
   3   2.0000     -10.330829      -281.1161
   4   2.0000     -10.323251      -280.9099
   5   2.0000     -10.311585      -280.5925
   6   2.0000     -10.304503      -280.3998
   7   2.0000     -10.296452      -280.1807
   8   2.0000     -10.294860      -280.1374
   9   2.0000     -10.293096      -280.0894
  10   2.0000     -10.291463      -280.0450
  11   2.0000     -10.289782      -279.9992
  12   2.0000     -10.289609      -279.9945
  13   2.0000     -10.283455      -279.8270
  14   2.0000     -10.273137      -279.5463
  15   2.0000     -10.266895      -279.3764
  16   2.0000      -8.083385      -219.9601
  17   2.0000      -8.078179      -219.8184
  18   2.0000      -6.041898      -164.4084
  19   2.0000      -6.037889      -164.2993
  20   2.0000      -6.036885      -164.2720
  21   2.0000      -6.034279      -164.2011
  22   2.0000      -6.032792      -164.1606
  23   2.0000      -6.028749      -164.0506
  24   2.0000      -1.000424       -27.2229
  25   2.0000      -0.981033       -26.6953
  26   2.0000      -0.915989       -24.9253
  27   2.0000      -0.909785       -24.7565
  28   2.0000      -0.867553       -23.6073
  29   2.0000      -0.848963       -23.1015
  30   2.0000      -0.845178       -22.9985
  31   2.0000      -0.814913       -22.1749
  32   2.0000      -0.783083       -21.3088
  33   2.0000      -0.771647       -20.9976
  34   2.0000      -0.707613       -19.2551
  35   2.0000      -0.700528       -19.0623
  36   2.0000      -0.688615       -18.7382
  37   2.0000      -0.666089       -18.1252
  38   2.0000      -0.638519       -17.3750
  39   2.0000      -0.619987       -16.8707
  40   2.0000      -0.594312       -16.1721
  41   2.0000      -0.574965       -15.6456
  42   2.0000      -0.564033       -15.3481
  43   2.0000      -0.549136       -14.9428
  44   2.0000      -0.548377       -14.9221
  45   2.0000      -0.522743       -14.2246
  46   2.0000      -0.518950       -14.1213
  47   2.0000      -0.509700       -13.8696
  48   2.0000      -0.500860       -13.6291
  49   2.0000      -0.498102       -13.5540
  50   2.0000      -0.490501       -13.3472
  51   2.0000      -0.480609       -13.0780
  52   2.0000      -0.469623       -12.7791
  53   2.0000      -0.465306       -12.6616
  54   2.0000      -0.458841       -12.4857
  55   2.0000      -0.447649       -12.1811
  56   2.0000      -0.444001       -12.0819
  57   2.0000      -0.440261       -11.9801
  58   2.0000      -0.431120       -11.7314
  59   2.0000      -0.421856       -11.4793
  60   2.0000      -0.418623       -11.3913
  61   2.0000      -0.416857       -11.3433
  62   2.0000      -0.413479       -11.2513
  63   2.0000      -0.339446        -9.2368
  64   2.0000      -0.326977        -8.8975
  65   2.0000      -0.320454        -8.7200
  66   2.0000      -0.305780        -8.3207
  67   0.0000       0.042263         1.1500
  68   0.0000       0.047723         1.2986
  69   0.0000       0.108534         2.9534
  70   0.0000       0.113304         3.0832
  71   0.0000       0.129564         3.5256

MULLIKEN ATOMIC CHARGES
-----------------------
   0 S :    0.106781
   1 C :   -0.099286
   2 C :   -0.081979
   3 C :    0.060940
   4 C :   -0.152567
   5 H :    0.003897
   6 C :    0.042463
   7 H :    0.022566
   8 H :    0.024407
   9 C :   -0.095264
  10 H :    0.029230
  11 H :    0.038928
  12 C :   -0.004504
  13 H :    0.014156
  14 H :    0.029997
  15 H :    0.003768
  16 S :    0.120687
  17 C :   -0.100609
  18 C :   -0.020340
  19 C :   -0.022036
  20 C :   -0.196199
  21 H :    0.011497
  22 C :    0.061433
  23 H :    0.034721
  24 H :    0.015219
  25 C :   -0.034348
  26 H :    0.028790
  27 H :    0.017315
  28 C :   -0.060657
  29 H :    0.015906
  30 H :    0.041739
  31 H :    0.032860
  32 H :    0.044679
  33 H :    0.065808
Sum of atomic charges:    0.0000000

LOEWDIN ATOMIC CHARGES
----------------------
   0 S :    0.387366
   1 C :   -0.191439
   2 C :   -0.065607
   3 C :   -0.052131
   4 C :   -0.191742
   5 H :    0.026979
   6 C :   -0.039203
   7 H :    0.034367
   8 H :    0.028574
   9 C :   -0.035372
  10 H :    0.023589
  11 H :    0.029329
  12 C :   -0.063416
  13 H :    0.012791
  14 H :    0.031846
  15 H :    0.018361
  16 S :    0.413083
  17 C :   -0.179691
  18 C :   -0.067593
  19 C :   -0.051149
  20 C :   -0.209037
  21 H :    0.028900
  22 C :   -0.035992
  23 H :    0.042437
  24 H :    0.028034
  25 C :   -0.036782
  26 H :    0.024566
  27 H :    0.022771
  28 C :   -0.066373
  29 H :    0.018636
  30 H :    0.024415
  31 H :    0.028172
  32 H :    0.028875
  33 H :    0.032435

  Mayer bond orders larger than 0.100000
B(  0-S ,  1-C ) :   1.1258 B(  0-S ,  4-C ) :   1.1383 B(  1-C ,  2-C ) :   1.6280
B(  1-C , 32-H ) :   0.9642 B(  2-C ,  3-C ) :   1.2151 B(  2-C ,  6-C ) :   1.0583
B(  3-C ,  4-C ) :   1.6010 B(  3-C ,  5-H ) :   0.9983 B(  4-C , 20-C ) :   0.9969
B(  6-C ,  7-H ) :   0.9405 B(  6-C ,  8-H ) :   0.9325 B(  6-C ,  9-C ) :   1.0676
B(  9-C , 10-H ) :   0.9568 B(  9-C , 11-H ) :   0.9529 B(  9-C , 12-C ) :   1.0830
B( 12-C , 13-H ) :   0.9756 B( 12-C , 14-H ) :   0.9705 B( 12-C , 15-H ) :   0.9683
B( 16-S , 17-C ) :   1.1573 B( 16-S , 20-C ) :   1.1668 B( 17-C , 18-C ) :   1.5769
B( 17-C , 20-C ) :   0.1085 B( 17-C , 33-H ) :   0.9659 B( 18-C , 19-C ) :   1.2689
B( 18-C , 21-H ) :   0.9899 B( 19-C , 20-C ) :   1.5863 B( 19-C , 22-C ) :   1.0382
B( 22-C , 23-H ) :   0.9207 B( 22-C , 24-H ) :   0.9383 B( 22-C , 25-C ) :   1.0867
B( 25-C , 26-H ) :   0.9571 B( 25-C , 27-H ) :   0.9506 B( 25-C , 28-C ) :   1.0670
B( 28-C , 29-H ) :   0.9762 B( 28-C , 30-H ) :   0.9787 B( 28-C , 31-H ) :   0.9744

Dispersion correction           -0.014195160
FINAL SINGLE POINT ENERGY     -1339.873800406176

DIPOLE MOMENT
-------------
                                X             Y             Z
Electronic contribution:     -0.46440      -9.66098      26.89966
Nuclear contribution   :      0.37361       9.92861     -27.48168
                        -----------------------------------------
Total Dipole Moment    :     -0.09079       0.26764      -0.58202
                        -----------------------------------------
Magnitude (a.u.)       :      0.64701
Magnitude (Debye)      :      1.64457

Rotational constants in cm-1:     0.019287     0.008159     0.006527
Rotational constants in MHz :   578.208435   244.597419   195.671807

                             ****ORCA TERMINATED NORMALLY****
TOTAL RUN TIME: 0 days 0 hours 0 minutes 21 seconds 408 msec
