                         Program Version 4.2.1 -  RELEASE  -
|  1> ! wB97X-D3 SP def2-SVP
|  2> %pal
|  3> nprocs 24
|  4> end
|  5>
|  6> * xyz 0 1
|  7> S 	 -94.2711 	 51.5831 	 -93.417
|  8> C 	 -95.1899 	 50.7018 	 -92.1564
|  9> C 	 -95.1241 	 49.3601 	 -92.2819
| 10> C 	 -94.4777 	 48.968 	 -93.5286
| 11> C 	 -94.0227 	 50.1091 	 -94.2243
| 12> H 	 -94.3907 	 47.997 	 -93.8803
| 13> C 	 -95.7589 	 48.3785 	 -91.3794
| 14> H 	 -96.3137 	 47.749 	 -92.0345
| 15> H 	 -96.436 	 48.8504 	 -90.688
| 16> C 	 -94.688 	 47.5072 	 -90.6072
| 17> H 	 -93.954 	 47.2672 	 -91.2674
| 18> H 	 -94.2995 	 48.1963 	 -89.794
| 19> C 	 -95.2981 	 46.2497 	 -89.9228
| 20> H 	 -94.5563 	 45.7067 	 -89.3669
| 21> H 	 -96.0144 	 46.5415 	 -89.0778
| 22> H 	 -95.8059 	 45.6818 	 -90.6911
| 23> S 	 -91.7303 	 49.934 	 -95.7955
| 24> C 	 -91.8956 	 49.7117 	 -97.4167
| 25> C 	 -93.2627 	 49.8712 	 -97.8147
| 26> C 	 -94.1805 	 49.9428 	 -96.7403
| 27> C 	 -93.48 	 50.0341 	 -95.5541
| 28> H 	 -93.5358 	 49.8695 	 -98.8852
| 29> C 	 -95.7102 	 49.8455 	 -96.9748
| 30> H 	 -96.2487 	 50.4322 	 -96.1529
| 31> H 	 -96.0777 	 48.8271 	 -96.8642
| 32> C 	 -96.1501 	 50.4313 	 -98.3192
| 33> H 	 -95.5923 	 49.8709 	 -99.1107
| 34> H 	 -95.9121 	 51.5224 	 -98.2965
| 35> C 	 -97.5847 	 50.1549 	 -98.6549
| 36> H 	 -98.2473 	 50.1302 	 -97.8583
| 37> H 	 -97.7424 	 49.1479 	 -99.167
| 38> H 	 -97.9592 	 50.9325 	 -99.2772
| 39> H 	 -95.8191 	 51.1908 	 -91.4283
| 40> H 	 -91.0126 	 49.5223 	 -98.0702
| 41> *
| 42>
| 43>                          ****END OF INPUT****

CARTESIAN COORDINATES (ANGSTROEM)
---------------------------------
  S    -94.271100   51.583100  -93.417000
  C    -95.189900   50.701800  -92.156400
  C    -95.124100   49.360100  -92.281900
  C    -94.477700   48.968000  -93.528600
  C    -94.022700   50.109100  -94.224300
  H    -94.390700   47.997000  -93.880300
  C    -95.758900   48.378500  -91.379400
  H    -96.313700   47.749000  -92.034500
  H    -96.436000   48.850400  -90.688000
  C    -94.688000   47.507200  -90.607200
  H    -93.954000   47.267200  -91.267400
  H    -94.299500   48.196300  -89.794000
  C    -95.298100   46.249700  -89.922800
  H    -94.556300   45.706700  -89.366900
  H    -96.014400   46.541500  -89.077800
  H    -95.805900   45.681800  -90.691100
  S    -91.730300   49.934000  -95.795500
  C    -91.895600   49.711700  -97.416700
  C    -93.262700   49.871200  -97.814700
  C    -94.180500   49.942800  -96.740300
  C    -93.480000   50.034100  -95.554100
  H    -93.535800   49.869500  -98.885200
  C    -95.710200   49.845500  -96.974800
  H    -96.248700   50.432200  -96.152900
  H    -96.077700   48.827100  -96.864200
  C    -96.150100   50.431300  -98.319200
  H    -95.592300   49.870900  -99.110700
  H    -95.912100   51.522400  -98.296500
  C    -97.584700   50.154900  -98.654900
  H    -98.247300   50.130200  -97.858300
  H    -97.742400   49.147900  -99.167000
  H    -97.959200   50.932500  -99.277200
  H    -95.819100   51.190800  -91.428300
  H    -91.012600   49.522300  -98.070200

 Total Charge           Charge          ....    0
 Multiplicity           Mult            ....    1
 Number of Electrons    NEL             ....  134
 Basis Dimension        Dim             ....  322

ORBITAL ENERGIES
----------------

  NO   OCC          E(Eh)            E(eV)
   0   2.0000     -88.965099     -2420.8634
   1   2.0000     -88.964474     -2420.8464
   2   2.0000     -10.322360      -280.8857
   3   2.0000     -10.316900      -280.7371
   4   2.0000     -10.314898      -280.6827
   5   2.0000     -10.307459      -280.4802
   6   2.0000     -10.301737      -280.3245
   7   2.0000     -10.297747      -280.2160
   8   2.0000     -10.295097      -280.1438
   9   2.0000     -10.292207      -280.0652
  10   2.0000     -10.290701      -280.0242
  11   2.0000     -10.288709      -279.9700
  12   2.0000     -10.287078      -279.9256
  13   2.0000     -10.286887      -279.9204
  14   2.0000     -10.283598      -279.8309
  15   2.0000     -10.271647      -279.5057
  16   2.0000      -8.080980      -219.8946
  17   2.0000      -8.080166      -219.8725
  18   2.0000      -6.039097      -164.3322
  19   2.0000      -6.038601      -164.3187
  20   2.0000      -6.035096      -164.2233
  21   2.0000      -6.034732      -164.2134
  22   2.0000      -6.032195      -164.1444
  23   2.0000      -6.030888      -164.1088
  24   2.0000      -1.008650       -27.4468
  25   2.0000      -0.985458       -26.8157
  26   2.0000      -0.913144       -24.8479
  27   2.0000      -0.911651       -24.8073
  28   2.0000      -0.868183       -23.6245
  29   2.0000      -0.854585       -23.2544
  30   2.0000      -0.843272       -22.9466
  31   2.0000      -0.801731       -21.8162
  32   2.0000      -0.785532       -21.3754
  33   2.0000      -0.773340       -21.0437
  34   2.0000      -0.704740       -19.1770
  35   2.0000      -0.697963       -18.9926
  36   2.0000      -0.692059       -18.8319
  37   2.0000      -0.647839       -17.6286
  38   2.0000      -0.642105       -17.4726
  39   2.0000      -0.617770       -16.8104
  40   2.0000      -0.600666       -16.3450
  41   2.0000      -0.571426       -15.5493
  42   2.0000      -0.569884       -15.5073
  43   2.0000      -0.556132       -15.1331
  44   2.0000      -0.526145       -14.3171
  45   2.0000      -0.522026       -14.2050
  46   2.0000      -0.520051       -14.1513
  47   2.0000      -0.508250       -13.8302
  48   2.0000      -0.503950       -13.7132
  49   2.0000      -0.498515       -13.5653
  50   2.0000      -0.495805       -13.4916
  51   2.0000      -0.475312       -12.9339
  52   2.0000      -0.469012       -12.7625
  53   2.0000      -0.463769       -12.6198
  54   2.0000      -0.455852       -12.4044
  55   2.0000      -0.452897       -12.3240
  56   2.0000      -0.448973       -12.2172
  57   2.0000      -0.436475       -11.8771
  58   2.0000      -0.431891       -11.7523
  59   2.0000      -0.428005       -11.6466
  60   2.0000      -0.420655       -11.4466
  61   2.0000      -0.419342       -11.4109
  62   2.0000      -0.410728       -11.1765
  63   2.0000      -0.335618        -9.1326
  64   2.0000      -0.327273        -8.9055
  65   2.0000      -0.316639        -8.6162
  66   2.0000      -0.301402        -8.2016
  67   0.0000       0.051134         1.3914
  68   0.0000       0.054446         1.4815
  69   0.0000       0.116857         3.1798
  70   0.0000       0.125043         3.4026
  71   0.0000       0.128287         3.4909

MULLIKEN ATOMIC CHARGES
-----------------------
   0 S :    0.121222
   1 C :   -0.142865
   2 C :   -0.064342
   3 C :    0.061501
   4 C :   -0.176405
   5 H :   -0.013051
   6 C :    0.091459
   7 H :    0.013923
   8 H :    0.012328
   9 C :   -0.077192
  10 H :    0.015667
  11 H :    0.039371
  12 C :   -0.046226
  13 H :    0.035711
  14 H :    0.034726
  15 H :    0.036065
  16 S :    0.142995
  17 C :   -0.119068
  18 C :   -0.076079
  19 C :    0.022987
  20 C :   -0.221857
  21 H :    0.026588
  22 C :    0.067385
  23 H :    0.040795
  24 H :    0.037218
  25 C :   -0.137580
  26 H :    0.044366
  27 H :    0.050540
  28 C :   -0.001947
  29 H :    0.004402
  30 H :    0.037055
  31 H :    0.025877
  32 H :    0.037302
  33 H :    0.077127
Sum of atomic charges:   -0.0000000

LOEWDIN ATOMIC CHARGES
----------------------
   0 S :    0.408533
   1 C :   -0.189112
   2 C :   -0.058539
   3 C :   -0.047783
   4 C :   -0.209044
   5 H :    0.018247
   6 C :   -0.024522
   7 H :    0.024786
   8 H :    0.025683
   9 C :   -0.026457
  10 H :    0.007157
  11 H :    0.033163
  12 C :   -0.067672
  13 H :    0.024268
  14 H :    0.033277
  15 H :    0.022651
  16 S :    0.453428
  17 C :   -0.230803
  18 C :   -0.085391
  19 C :   -0.051108
  20 C :   -0.214553
  21 H :    0.029768
  22 C :   -0.030593
  23 H :    0.038442
  24 H :    0.031242
  25 C :   -0.049162
  26 H :    0.029827
  27 H :    0.033044
  28 C :   -0.064650
  29 H :    0.012237
  30 H :    0.034964
  31 H :    0.026512
  32 H :    0.024065
  33 H :    0.038093

  Mayer bond orders larger than 0.100000
B(  0-S ,  1-C ) :   1.1094 B(  0-S ,  4-C ) :   1.1705 B(  1-C ,  2-C ) :   1.6584
B(  1-C , 32-H ) :   0.9670 B(  2-C ,  3-C ) :   1.1935 B(  2-C ,  6-C ) :   1.0338
B(  3-C ,  4-C ) :   1.5813 B(  3-C ,  5-H ) :   1.0052 B(  4-C , 20-C ) :   1.0202
B(  6-C ,  7-H ) :   0.9341 B(  6-C ,  8-H ) :   0.9420 B(  6-C ,  9-C ) :   1.0514
B(  9-C , 10-H ) :   0.9647 B(  9-C , 11-H ) :   0.9555 B(  9-C , 12-C ) :   1.0800
B( 12-C , 13-H ) :   0.9744 B( 12-C , 14-H ) :   0.9743 B( 12-C , 15-H ) :   0.9766
B( 16-S , 17-C ) :   1.2139 B( 16-S , 20-C ) :   1.1699 B( 17-C , 18-C ) :   1.5309
B( 17-C , 20-C ) :   0.1082 B( 17-C , 33-H ) :   0.9634 B( 18-C , 19-C ) :   1.2881
B( 18-C , 21-H ) :   0.9845 B( 19-C , 20-C ) :   1.5763 B( 19-C , 22-C ) :   1.0217
B( 22-C , 23-H ) :   0.9285 B( 22-C , 24-H ) :   0.9387 B( 22-C , 25-C ) :   1.0752
B( 25-C , 26-H ) :   0.9468 B( 25-C , 27-H ) :   0.9615 B( 25-C , 28-C ) :   1.0829
B( 28-C , 29-H ) :   0.9695 B( 28-C , 30-H ) :   0.9740 B( 28-C , 31-H ) :   0.9697

Dispersion correction           -0.013663917
FINAL SINGLE POINT ENERGY     -1339.865314586090

DIPOLE MOMENT
-------------
                                X             Y             Z
Electronic contribution:     19.46138      13.74903      -1.80947
Nuclear contribution   :    -19.92808     -14.16237       1.75024
                        -----------------------------------------
Total Dipole Moment    :     -0.46670      -0.41335      -0.05922
                        -----------------------------------------
Magnitude (a.u.)       :      0.62623
Magnitude (Debye)      :      1.59176

Rotational constants in cm-1:     0.018106     0.007487     0.006558
Rotational constants in MHz :   542.814531   224.462809   196.617114

                             ****ORCA TERMINATED NORMALLY****
TOTAL RUN TIME: 0 days 0 hours 0 minutes 19 seconds 880 msec
