                         Program Version 4.2.1 -  RELEASE  -
|  1> ! wB97X-D3 SP def2-SVP
|  2> %pal
|  3> nprocs 24
|  4> end
|  5>
|  6> * xyz 0 1
|  7> S 	 -127.444 	 59.5631 	 -59.4789
|  8> C 	 -128.711 	 60.2802 	 -60.529
|  9> C 	 -129.269 	 61.4439 	 -59.9784
| 10> C 	 -128.793 	 61.6689 	 -58.6465
| 11> C 	 -127.797 	 60.8385 	 -58.2405
| 12> H 	 -129.26 	 62.4538 	 -58.0412
| 13> C 	 -130.176 	 62.3744 	 -60.742
| 14> H 	 -131.255 	 62.0878 	 -60.6386
| 15> H 	 -129.965 	 62.1479 	 -61.8319
| 16> C 	 -130.026 	 63.947 	 -60.6076
| 17> H 	 -130.729 	 64.5986 	 -61.116
| 18> H 	 -130.168 	 64.3532 	 -59.5803
| 19> C 	 -128.686 	 64.5149 	 -60.9403
| 20> H 	 -128.687 	 65.5747 	 -60.7957
| 21> H 	 -127.881 	 64.1238 	 -60.3255
| 22> H 	 -128.475 	 64.2143 	 -61.915
| 23> S 	 -125.226 	 60.8467 	 -57.1791
| 24> C 	 -125.079 	 61.0972 	 -55.4813
| 25> C 	 -126.246 	 61.3103 	 -54.8582
| 26> C 	 -127.38 	 61.1903 	 -55.7416
| 27> C 	 -126.997 	 61.0007 	 -57.0618
| 28> H 	 -126.393 	 61.4448 	 -53.8504
| 29> C 	 -128.869 	 61.218 	 -55.3609
| 30> H 	 -129.264 	 61.7252 	 -56.1844
| 31> H 	 -129.04 	 61.8745 	 -54.4755
| 32> C 	 -129.356 	 59.8037 	 -55.331
| 33> H 	 -128.813 	 59.1682 	 -56.0308
| 34> H 	 -130.339 	 59.8569 	 -55.8297
| 35> C 	 -129.396 	 59.2256 	 -53.9246
| 36> H 	 -128.431 	 59.272 	 -53.4558
| 37> H 	 -129.794 	 58.1988 	 -54.0171
| 38> H 	 -129.981 	 59.8985 	 -53.2448
| 39> H 	 -128.935 	 60.047 	 -61.5005
| 40> H 	 -124.085 	 61.2703 	 -55.0441
| 41> *
| 42>
| 43>                          ****END OF INPUT****

CARTESIAN COORDINATES (ANGSTROEM)
---------------------------------
  S    -127.444000   59.563100  -59.478900
  C    -128.711000   60.280200  -60.529000
  C    -129.269000   61.443900  -59.978400
  C    -128.793000   61.668900  -58.646500
  C    -127.797000   60.838500  -58.240500
  H    -129.260000   62.453800  -58.041200
  C    -130.176000   62.374400  -60.742000
  H    -131.255000   62.087800  -60.638600
  H    -129.965000   62.147900  -61.831900
  C    -130.026000   63.947000  -60.607600
  H    -130.729000   64.598600  -61.116000
  H    -130.168000   64.353200  -59.580300
  C    -128.686000   64.514900  -60.940300
  H    -128.687000   65.574700  -60.795700
  H    -127.881000   64.123800  -60.325500
  H    -128.475000   64.214300  -61.915000
  S    -125.226000   60.846700  -57.179100
  C    -125.079000   61.097200  -55.481300
  C    -126.246000   61.310300  -54.858200
  C    -127.380000   61.190300  -55.741600
  C    -126.997000   61.000700  -57.061800
  H    -126.393000   61.444800  -53.850400
  C    -128.869000   61.218000  -55.360900
  H    -129.264000   61.725200  -56.184400
  H    -129.040000   61.874500  -54.475500
  C    -129.356000   59.803700  -55.331000
  H    -128.813000   59.168200  -56.030800
  H    -130.339000   59.856900  -55.829700
  C    -129.396000   59.225600  -53.924600
  H    -128.431000   59.272000  -53.455800
  H    -129.794000   58.198800  -54.017100
  H    -129.981000   59.898500  -53.244800
  H    -128.935000   60.047000  -61.500500
  H    -124.085000   61.270300  -55.044100

 Total Charge           Charge          ....    0
 Multiplicity           Mult            ....    1
 Number of Electrons    NEL             ....  134
 Basis Dimension        Dim             ....  322

ORBITAL ENERGIES
----------------

  NO   OCC          E(Eh)            E(eV)
   0   2.0000     -88.971877     -2421.0479
   1   2.0000     -88.963110     -2420.8093
   2   2.0000     -10.333424      -281.1868
   3   2.0000     -10.321816      -280.8709
   4   2.0000     -10.313687      -280.6497
   5   2.0000     -10.313563      -280.6463
   6   2.0000     -10.308526      -280.5093
   7   2.0000     -10.306067      -280.4423
   8   2.0000     -10.300700      -280.2963
   9   2.0000     -10.295982      -280.1679
  10   2.0000     -10.290868      -280.0288
  11   2.0000     -10.285530      -279.8835
  12   2.0000     -10.285412      -279.8803
  13   2.0000     -10.279132      -279.7094
  14   2.0000     -10.278550      -279.6936
  15   2.0000     -10.263654      -279.2882
  16   2.0000      -8.084595      -219.9930
  17   2.0000      -8.078156      -219.8178
  18   2.0000      -6.043356      -164.4481
  19   2.0000      -6.039527      -164.3439
  20   2.0000      -6.036653      -164.2657
  21   2.0000      -6.035058      -164.2223
  22   2.0000      -6.032729      -164.1589
  23   2.0000      -6.028814      -164.0524
  24   2.0000      -1.005256       -27.3544
  25   2.0000      -0.979815       -26.6621
  26   2.0000      -0.916323       -24.9344
  27   2.0000      -0.909316       -24.7438
  28   2.0000      -0.874510       -23.7966
  29   2.0000      -0.851909       -23.1816
  30   2.0000      -0.844127       -22.9699
  31   2.0000      -0.819591       -22.3022
  32   2.0000      -0.785854       -21.3842
  33   2.0000      -0.770342       -20.9621
  34   2.0000      -0.712750       -19.3949
  35   2.0000      -0.697938       -18.9918
  36   2.0000      -0.693052       -18.8589
  37   2.0000      -0.664972       -18.0948
  38   2.0000      -0.637519       -17.3478
  39   2.0000      -0.625844       -17.0301
  40   2.0000      -0.599925       -16.3248
  41   2.0000      -0.565242       -15.3810
  42   2.0000      -0.559423       -15.2227
  43   2.0000      -0.552209       -15.0264
  44   2.0000      -0.543548       -14.7907
  45   2.0000      -0.537882       -14.6365
  46   2.0000      -0.524821       -14.2811
  47   2.0000      -0.514091       -13.9891
  48   2.0000      -0.500639       -13.6231
  49   2.0000      -0.491646       -13.3784
  50   2.0000      -0.488611       -13.2958
  51   2.0000      -0.483136       -13.1468
  52   2.0000      -0.474498       -12.9118
  53   2.0000      -0.462035       -12.5726
  54   2.0000      -0.459692       -12.5089
  55   2.0000      -0.449574       -12.2335
  56   2.0000      -0.444139       -12.0856
  57   2.0000      -0.439410       -11.9569
  58   2.0000      -0.436679       -11.8826
  59   2.0000      -0.427861       -11.6427
  60   2.0000      -0.421612       -11.4726
  61   2.0000      -0.406891       -11.0721
  62   2.0000      -0.400394       -10.8953
  63   2.0000      -0.353014        -9.6060
  64   2.0000      -0.332525        -9.0485
  65   2.0000      -0.329777        -8.9737
  66   2.0000      -0.286488        -7.7957
  67   0.0000       0.024828         0.6756
  68   0.0000       0.066081         1.7981
  69   0.0000       0.106169         2.8890
  70   0.0000       0.118010         3.2112
  71   0.0000       0.131673         3.5830

MULLIKEN ATOMIC CHARGES
-----------------------
   0 S :    0.106804
   1 C :   -0.071438
   2 C :   -0.104076
   3 C :    0.020533
   4 C :   -0.150441
   5 H :    0.036611
   6 C :    0.044697
   7 H :    0.057098
   8 H :    0.029828
   9 C :   -0.090064
  10 H :    0.025696
  11 H :    0.017204
  12 C :   -0.022697
  13 H :    0.029402
  14 H :    0.033795
  15 H :    0.009499
  16 S :    0.100725
  17 C :   -0.083530
  18 C :    0.022971
  19 C :   -0.113806
  20 C :   -0.155650
  21 H :   -0.020283
  22 C :    0.124650
  23 H :   -0.024198
  24 H :    0.029708
  25 C :   -0.059238
  26 H :    0.037987
  27 H :    0.023252
  28 C :   -0.025132
  29 H :    0.020915
  30 H :    0.049942
  31 H :    0.024957
  32 H :    0.007277
  33 H :    0.067002
Sum of atomic charges:   -0.0000000

LOEWDIN ATOMIC CHARGES
----------------------
   0 S :    0.364609
   1 C :   -0.171588
   2 C :   -0.058953
   3 C :   -0.062455
   4 C :   -0.171385
   5 H :    0.035670
   6 C :   -0.038742
   7 H :    0.041023
   8 H :    0.037691
   9 C :   -0.050966
  10 H :    0.028003
  11 H :    0.022902
  12 C :   -0.058028
  13 H :    0.025842
  14 H :    0.026092
  15 H :    0.012939
  16 S :    0.396343
  17 C :   -0.186328
  18 C :   -0.069151
  19 C :   -0.041977
  20 C :   -0.198034
  21 H :    0.017400
  22 C :   -0.028353
  23 H :    0.019674
  24 H :    0.033758
  25 C :   -0.042437
  26 H :    0.029123
  27 H :    0.027102
  28 C :   -0.063178
  29 H :    0.021251
  30 H :    0.032931
  31 H :    0.027348
  32 H :    0.007840
  33 H :    0.034033

  Mayer bond orders larger than 0.100000
B(  0-S ,  1-C ) :   1.1133 B(  0-S ,  4-C ) :   1.1097 B(  1-C ,  2-C ) :   1.6443
B(  1-C , 32-H ) :   0.9685 B(  2-C ,  3-C ) :   1.2370 B(  2-C ,  6-C ) :   1.0162
B(  3-C ,  4-C ) :   1.5933 B(  3-C ,  5-H ) :   0.9737 B(  4-C , 20-C ) :   1.0769
B(  6-C ,  7-H ) :   0.9375 B(  6-C ,  8-H ) :   0.9456 B(  6-C ,  9-C ) :   1.0530
B(  9-C , 10-H ) :   0.9574 B(  9-C , 11-H ) :   0.9548 B(  9-C , 12-C ) :   1.0842
B( 12-C , 13-H ) :   0.9720 B( 12-C , 14-H ) :   0.9721 B( 12-C , 15-H ) :   0.9751
B( 16-S , 17-C ) :   1.1560 B( 16-S , 20-C ) :   1.1211 B( 17-C , 18-C ) :   1.6004
B( 17-C , 33-H ) :   0.9605 B( 18-C , 19-C ) :   1.2454 B( 18-C , 21-H ) :   1.0053
B( 19-C , 20-C ) :   1.6041 B( 19-C , 22-C ) :   1.0314 B( 22-C , 23-H ) :   0.9217
B( 22-C , 24-H ) :   0.9359 B( 22-C , 25-C ) :   1.0554 B( 25-C , 26-H ) :   0.9541
B( 25-C , 27-H ) :   0.9506 B( 25-C , 28-C ) :   1.0804 B( 28-C , 29-H ) :   0.9709
B( 28-C , 30-H ) :   0.9722 B( 28-C , 31-H ) :   0.9754

Dispersion correction           -0.015094256
FINAL SINGLE POINT ENERGY     -1339.859028285542

DIPOLE MOMENT
-------------
                                X             Y             Z
Electronic contribution:     18.17071     -10.68482      -2.94451
Nuclear contribution   :    -18.64020      11.15499       3.08834
                        -----------------------------------------
Total Dipole Moment    :     -0.46949       0.47018       0.14383
                        -----------------------------------------
Magnitude (a.u.)       :      0.67984
Magnitude (Debye)      :      1.72800

Rotational constants in cm-1:     0.018928     0.008665     0.007912
Rotational constants in MHz :   567.454534   259.777833   237.190444

                             ****ORCA TERMINATED NORMALLY****
TOTAL RUN TIME: 0 days 0 hours 0 minutes 21 seconds 200 msec
