                         Program Version 4.2.1 -  RELEASE  -
|  1> ! wB97X-D3 SP def2-SVP
|  2> %pal
|  3> nprocs 24
|  4> end
|  5>
|  6> * xyz 0 1
|  7> S 	 -114.982 	 56.2586 	 -77.657
|  8> C 	 -116.332 	 57.3319 	 -77.7801
|  9> C 	 -116.423 	 57.8583 	 -79.0998
| 10> C 	 -115.348 	 57.4455 	 -79.9091
| 11> C 	 -114.426 	 56.6333 	 -79.2804
| 12> H 	 -115.072 	 57.6813 	 -80.8993
| 13> C 	 -117.428 	 58.8876 	 -79.4868
| 14> H 	 -118.289 	 58.6094 	 -78.9042
| 15> H 	 -117.804 	 58.7613 	 -80.5053
| 16> C 	 -117.067 	 60.3752 	 -79.1875
| 17> H 	 -117.83 	 61.1168 	 -79.4643
| 18> H 	 -116.783 	 60.5014 	 -78.1172
| 19> C 	 -115.919 	 60.876 	 -80.0029
| 20> H 	 -115.58 	 61.9203 	 -79.6848
| 21> H 	 -115.109 	 60.1323 	 -80.0423
| 22> H 	 -116.253 	 60.9261 	 -81.0607
| 23> S 	 -113.062 	 54.5565 	 -80.6759
| 24> C 	 -111.333 	 54.7735 	 -81.028
| 25> C 	 -110.86 	 55.9839 	 -80.474
| 26> C 	 -111.862 	 56.7397 	 -79.7965
| 27> C 	 -113.134 	 56.1634 	 -79.8119
| 28> H 	 -109.811 	 56.1373 	 -80.617
| 29> C 	 -111.549 	 58.1405 	 -79.1842
| 30> H 	 -112.458 	 58.7528 	 -79.2611
| 31> H 	 -110.9 	 58.5661 	 -79.9594
| 32> C 	 -110.671 	 58.2178 	 -77.8956
| 33> H 	 -110.002 	 57.45 	 -77.9413
| 34> H 	 -111.303 	 57.9304 	 -77.0673
| 35> C 	 -109.981 	 59.5915 	 -77.5175
| 36> H 	 -109.528 	 60.1055 	 -78.3586
| 37> H 	 -109.274 	 59.5209 	 -76.6805
| 38> H 	 -110.776 	 60.2864 	 -77.1677
| 39> H 	 -117.021 	 57.7019 	 -76.9793
| 40> H 	 -110.738 	 54.0304 	 -81.4728
| 41> *
| 42>
| 43>                          ****END OF INPUT****

CARTESIAN COORDINATES (ANGSTROEM)
---------------------------------
  S    -114.982000   56.258600  -77.657000
  C    -116.332000   57.331900  -77.780100
  C    -116.423000   57.858300  -79.099800
  C    -115.348000   57.445500  -79.909100
  C    -114.426000   56.633300  -79.280400
  H    -115.072000   57.681300  -80.899300
  C    -117.428000   58.887600  -79.486800
  H    -118.289000   58.609400  -78.904200
  H    -117.804000   58.761300  -80.505300
  C    -117.067000   60.375200  -79.187500
  H    -117.830000   61.116800  -79.464300
  H    -116.783000   60.501400  -78.117200
  C    -115.919000   60.876000  -80.002900
  H    -115.580000   61.920300  -79.684800
  H    -115.109000   60.132300  -80.042300
  H    -116.253000   60.926100  -81.060700
  S    -113.062000   54.556500  -80.675900
  C    -111.333000   54.773500  -81.028000
  C    -110.860000   55.983900  -80.474000
  C    -111.862000   56.739700  -79.796500
  C    -113.134000   56.163400  -79.811900
  H    -109.811000   56.137300  -80.617000
  C    -111.549000   58.140500  -79.184200
  H    -112.458000   58.752800  -79.261100
  H    -110.900000   58.566100  -79.959400
  C    -110.671000   58.217800  -77.895600
  H    -110.002000   57.450000  -77.941300
  H    -111.303000   57.930400  -77.067300
  C    -109.981000   59.591500  -77.517500
  H    -109.528000   60.105500  -78.358600
  H    -109.274000   59.520900  -76.680500
  H    -110.776000   60.286400  -77.167700
  H    -117.021000   57.701900  -76.979300
  H    -110.738000   54.030400  -81.472800

 Total Charge           Charge          ....    0
 Multiplicity           Mult            ....    1
 Number of Electrons    NEL             ....  134
 Basis Dimension        Dim             ....  322

ORBITAL ENERGIES
----------------

  NO   OCC          E(Eh)            E(eV)
   0   2.0000     -88.970208     -2421.0024
   1   2.0000     -88.965028     -2420.8615
   2   2.0000     -10.334507      -281.2162
   3   2.0000     -10.329355      -281.0760
   4   2.0000     -10.323265      -280.9103
   5   2.0000     -10.322533      -280.8904
   6   2.0000     -10.313853      -280.6542
   7   2.0000     -10.303882      -280.3829
   8   2.0000     -10.298746      -280.2431
   9   2.0000     -10.296301      -280.1766
  10   2.0000     -10.291985      -280.0592
  11   2.0000     -10.291189      -280.0375
  12   2.0000     -10.288964      -279.9769
  13   2.0000     -10.284985      -279.8687
  14   2.0000     -10.283592      -279.8308
  15   2.0000     -10.279462      -279.7184
  16   2.0000      -8.084692      -219.9956
  17   2.0000      -8.078295      -219.8216
  18   2.0000      -6.043075      -164.4404
  19   2.0000      -6.038984      -164.3291
  20   2.0000      -6.036847      -164.2709
  21   2.0000      -6.035837      -164.2435
  22   2.0000      -6.032952      -164.1650
  23   2.0000      -6.029139      -164.0612
  24   2.0000      -1.002209       -27.2715
  25   2.0000      -0.976754       -26.5788
  26   2.0000      -0.913375       -24.8542
  27   2.0000      -0.896746       -24.4017
  28   2.0000      -0.866699       -23.5841
  29   2.0000      -0.852078       -23.1862
  30   2.0000      -0.843752       -22.9596
  31   2.0000      -0.816637       -22.2218
  32   2.0000      -0.781997       -21.2792
  33   2.0000      -0.768119       -20.9016
  34   2.0000      -0.709046       -19.2941
  35   2.0000      -0.698394       -19.0043
  36   2.0000      -0.692962       -18.8565
  37   2.0000      -0.660808       -17.9815
  38   2.0000      -0.647010       -17.6060
  39   2.0000      -0.613694       -16.6995
  40   2.0000      -0.589912       -16.0523
  41   2.0000      -0.577822       -15.7233
  42   2.0000      -0.557429       -15.1684
  43   2.0000      -0.551957       -15.0195
  44   2.0000      -0.542418       -14.7599
  45   2.0000      -0.522669       -14.2225
  46   2.0000      -0.516052       -14.0425
  47   2.0000      -0.509836       -13.8734
  48   2.0000      -0.501735       -13.6529
  49   2.0000      -0.500333       -13.6147
  50   2.0000      -0.486342       -13.2340
  51   2.0000      -0.477689       -12.9986
  52   2.0000      -0.469683       -12.7807
  53   2.0000      -0.465042       -12.6544
  54   2.0000      -0.458482       -12.4759
  55   2.0000      -0.446583       -12.1521
  56   2.0000      -0.440060       -11.9746
  57   2.0000      -0.436097       -11.8668
  58   2.0000      -0.432048       -11.7566
  59   2.0000      -0.422508       -11.4970
  60   2.0000      -0.418696       -11.3933
  61   2.0000      -0.415769       -11.3136
  62   2.0000      -0.412606       -11.2276
  63   2.0000      -0.339328        -9.2336
  64   2.0000      -0.330398        -8.9906
  65   2.0000      -0.317496        -8.6395
  66   2.0000      -0.311522        -8.4770
  67   0.0000       0.038947         1.0598
  68   0.0000       0.042575         1.1585
  69   0.0000       0.112322         3.0564
  70   0.0000       0.120865         3.2889
  71   0.0000       0.123823         3.3694

MULLIKEN ATOMIC CHARGES
-----------------------
   0 S :    0.136767
   1 C :   -0.128311
   2 C :   -0.104164
   3 C :    0.081702
   4 C :   -0.206757
   5 H :   -0.003442
   6 C :    0.073567
   7 H :    0.014850
   8 H :    0.026285
   9 C :   -0.049926
  10 H :    0.036008
  11 H :    0.030279
  12 C :   -0.090055
  13 H :    0.049152
  14 H :    0.032879
  15 H :    0.020502
  16 S :    0.091517
  17 C :   -0.090566
  18 C :   -0.039318
  19 C :   -0.000212
  20 C :   -0.189505
  21 H :    0.020125
  22 C :    0.057935
  23 H :    0.037091
  24 H :    0.016905
  25 C :   -0.009119
  26 H :   -0.000450
  27 H :    0.026034
  28 C :   -0.071023
  29 H :    0.032763
  30 H :    0.044061
  31 H :    0.035883
  32 H :    0.069311
  33 H :    0.049234
Sum of atomic charges:    0.0000000

LOEWDIN ATOMIC CHARGES
----------------------
   0 S :    0.426709
   1 C :   -0.210348
   2 C :   -0.068231
   3 C :   -0.052609
   4 C :   -0.203835
   5 H :    0.028349
   6 C :   -0.036508
   7 H :    0.030579
   8 H :    0.032637
   9 C :   -0.044375
  10 H :    0.029228
  11 H :    0.025614
  12 C :   -0.076158
  13 H :    0.034103
  14 H :    0.020117
  15 H :    0.022877
  16 S :    0.365289
  17 C :   -0.161495
  18 C :   -0.073477
  19 C :   -0.045966
  20 C :   -0.188618
  21 H :    0.031188
  22 C :   -0.030334
  23 H :    0.031339
  24 H :    0.031165
  25 C :   -0.031411
  26 H :    0.009767
  27 H :    0.026112
  28 C :   -0.067721
  29 H :    0.021867
  30 H :    0.030623
  31 H :    0.030572
  32 H :    0.042669
  33 H :    0.020283

  Mayer bond orders larger than 0.100000
B(  0-S ,  1-C ) :   1.1715 B(  0-S ,  4-C ) :   1.1584 B(  1-C ,  2-C ) :   1.5641
B(  1-C ,  4-C ) :   0.1077 B(  1-C , 32-H ) :   0.9603 B(  2-C ,  3-C ) :   1.2447
B(  2-C ,  6-C ) :   1.0359 B(  3-C ,  4-C ) :   1.5703 B(  3-C ,  5-H ) :   1.0014
B(  4-C , 20-C ) :   1.0230 B(  6-C ,  7-H ) :   0.9293 B(  6-C ,  8-H ) :   0.9424
B(  6-C ,  9-C ) :   1.0664 B(  9-C , 10-H ) :   0.9566 B(  9-C , 11-H ) :   0.9548
B(  9-C , 12-C ) :   1.0745 B( 12-C , 13-H ) :   0.9709 B( 12-C , 14-H ) :   0.9734
B( 12-C , 15-H ) :   0.9723 B( 16-S , 17-C ) :   1.1613 B( 16-S , 20-C ) :   1.1208
B( 17-C , 18-C ) :   1.6107 B( 17-C , 20-C ) :   0.1061 B( 17-C , 33-H ) :   0.9724
B( 18-C , 19-C ) :   1.2239 B( 18-C , 21-H ) :   0.9946 B( 19-C , 20-C ) :   1.6110
B( 19-C , 22-C ) :   1.0276 B( 22-C , 23-H ) :   0.9390 B( 22-C , 24-H ) :   0.9362
B( 22-C , 25-C ) :   1.0497 B( 25-C , 26-H ) :   0.9561 B( 25-C , 27-H ) :   0.9532
B( 25-C , 28-C ) :   1.0711 B( 28-C , 29-H ) :   0.9785 B( 28-C , 30-H ) :   0.9766
B( 28-C , 31-H ) :   0.9779

Dispersion correction           -0.014589735
FINAL SINGLE POINT ENERGY     -1339.867436746590

DIPOLE MOMENT
-------------
                                X             Y             Z
Electronic contribution:     -3.46327     -27.20548      -2.44872
Nuclear contribution   :      3.63736      27.76900       2.42215
                        -----------------------------------------
Total Dipole Moment    :      0.17409       0.56353      -0.02657
                        -----------------------------------------
Magnitude (a.u.)       :      0.59040
Magnitude (Debye)      :      1.50069

Rotational constants in cm-1:     0.016156     0.009156     0.007248
Rotational constants in MHz :   484.341729   274.490725   217.277141

                             ****ORCA TERMINATED NORMALLY****
TOTAL RUN TIME: 0 days 0 hours 0 minutes 21 seconds 493 msec
