                         Program Version 4.2.1 -  RELEASE  -
|  1> ! wB97X-D3 SP def2-SVP
|  2> %pal
|  3> nprocs 24
|  4> end
|  5>
|  6> * xyz 0 1
|  7> S 	 -100.64 	 6.44551 	 3.01047
|  8> C 	 -101.135 	 6.43498 	 1.32818
|  9> C 	 -100.103 	 5.98519 	 0.442173
| 10> C 	 -98.8896 	 5.72276 	 1.22428
| 11> C 	 -99.0113 	 5.88211 	 2.57077
| 12> H 	 -97.9613 	 5.20806 	 0.90266
| 13> C 	 -100.142 	 5.8364 	 -1.05833
| 14> H 	 -100.663 	 4.79795 	 -1.26556
| 15> H 	 -99.1138 	 5.66364 	 -1.51548
| 16> C 	 -100.851 	 7.01068 	 -1.78995
| 17> H 	 -101.88 	 7.0364 	 -1.36423
| 18> H 	 -100.513 	 7.95935 	 -1.43269
| 19> C 	 -100.907 	 6.93384 	 -3.38249
| 20> H 	 -101.478 	 7.68577 	 -3.89835
| 21> H 	 -99.9037 	 6.94066 	 -3.84915
| 22> H 	 -101.321 	 6.03075 	 -3.80844
| 23> S 	 -98.5474 	 4.27273 	 4.73155
| 24> C 	 -96.9009 	 4.08958 	 5.3764
| 25> C 	 -96.0715 	 4.85687 	 4.63191
| 26> C 	 -96.6885 	 5.72829 	 3.68986
| 27> C 	 -98.0138 	 5.46378 	 3.5564
| 28> H 	 -95.022 	 4.96393 	 4.94743
| 29> C 	 -95.8752 	 6.63304 	 2.82938
| 30> H 	 -96.1671 	 7.69639 	 3.07736
| 31> H 	 -96.1157 	 6.36088 	 1.7939
| 32> C 	 -94.3052 	 6.65264 	 2.94398
| 33> H 	 -93.9455 	 7.24318 	 2.06996
| 34> H 	 -93.8239 	 5.70152 	 3.00819
| 35> C 	 -93.8475 	 7.33344 	 4.20532
| 36> H 	 -93.8143 	 8.34743 	 3.94999
| 37> H 	 -92.8661 	 6.98941 	 4.53608
| 38> H 	 -94.5147 	 7.37157 	 5.03956
| 39> H 	 -102.11 	 6.66417 	 0.905545
| 40> H 	 -96.6106 	 3.26813 	 6.0184
| 41> *
| 42>
| 43>                          ****END OF INPUT****

CARTESIAN COORDINATES (ANGSTROEM)
---------------------------------
  S    -100.640000    6.445510    3.010470
  C    -101.135000    6.434980    1.328180
  C    -100.103000    5.985190    0.442173
  C    -98.889600    5.722760    1.224280
  C    -99.011300    5.882110    2.570770
  H    -97.961300    5.208060    0.902660
  C    -100.142000    5.836400   -1.058330
  H    -100.663000    4.797950   -1.265560
  H    -99.113800    5.663640   -1.515480
  C    -100.851000    7.010680   -1.789950
  H    -101.880000    7.036400   -1.364230
  H    -100.513000    7.959350   -1.432690
  C    -100.907000    6.933840   -3.382490
  H    -101.478000    7.685770   -3.898350
  H    -99.903700    6.940660   -3.849150
  H    -101.321000    6.030750   -3.808440
  S    -98.547400    4.272730    4.731550
  C    -96.900900    4.089580    5.376400
  C    -96.071500    4.856870    4.631910
  C    -96.688500    5.728290    3.689860
  C    -98.013800    5.463780    3.556400
  H    -95.022000    4.963930    4.947430
  C    -95.875200    6.633040    2.829380
  H    -96.167100    7.696390    3.077360
  H    -96.115700    6.360880    1.793900
  C    -94.305200    6.652640    2.943980
  H    -93.945500    7.243180    2.069960
  H    -93.823900    5.701520    3.008190
  C    -93.847500    7.333440    4.205320
  H    -93.814300    8.347430    3.949990
  H    -92.866100    6.989410    4.536080
  H    -94.514700    7.371570    5.039560
  H    -102.110000    6.664170    0.905545
  H    -96.610600    3.268130    6.018400

 Total Charge           Charge          ....    0
 Multiplicity           Mult            ....    1
 Number of Electrons    NEL             ....  134
 Basis Dimension        Dim             ....  322

ORBITAL ENERGIES
----------------

  NO   OCC          E(Eh)            E(eV)
   0   2.0000     -88.971027     -2421.0247
   1   2.0000     -88.960564     -2420.7400
   2   2.0000     -10.329405      -281.0774
   3   2.0000     -10.324568      -280.9458
   4   2.0000     -10.321436      -280.8605
   5   2.0000     -10.315685      -280.7041
   6   2.0000     -10.312990      -280.6307
   7   2.0000     -10.311059      -280.5782
   8   2.0000     -10.298529      -280.2372
   9   2.0000     -10.298361      -280.2326
  10   2.0000     -10.297567      -280.2110
  11   2.0000     -10.297177      -280.2004
  12   2.0000     -10.290707      -280.0244
  13   2.0000     -10.288626      -279.9677
  14   2.0000     -10.284622      -279.8588
  15   2.0000     -10.267534      -279.3938
  16   2.0000      -8.084729      -219.9967
  17   2.0000      -8.075239      -219.7384
  18   2.0000      -6.043415      -164.4497
  19   2.0000      -6.039374      -164.3397
  20   2.0000      -6.035375      -164.2309
  21   2.0000      -6.033792      -164.1878
  22   2.0000      -6.029763      -164.0782
  23   2.0000      -6.025927      -163.9738
  24   2.0000      -1.006290       -27.3826
  25   2.0000      -0.979855       -26.6632
  26   2.0000      -0.911883       -24.8136
  27   2.0000      -0.903312       -24.5804
  28   2.0000      -0.869226       -23.6528
  29   2.0000      -0.852753       -23.2046
  30   2.0000      -0.843501       -22.9528
  31   2.0000      -0.815620       -22.1942
  32   2.0000      -0.781375       -21.2623
  33   2.0000      -0.771477       -20.9930
  34   2.0000      -0.715138       -19.4599
  35   2.0000      -0.703811       -19.1517
  36   2.0000      -0.694195       -18.8900
  37   2.0000      -0.659274       -17.9398
  38   2.0000      -0.639496       -17.4016
  39   2.0000      -0.609176       -16.5765
  40   2.0000      -0.601461       -16.3666
  41   2.0000      -0.567394       -15.4396
  42   2.0000      -0.558577       -15.1997
  43   2.0000      -0.546426       -14.8690
  44   2.0000      -0.537491       -14.6259
  45   2.0000      -0.526824       -14.3356
  46   2.0000      -0.515669       -14.0321
  47   2.0000      -0.513875       -13.9832
  48   2.0000      -0.504681       -13.7331
  49   2.0000      -0.498251       -13.5581
  50   2.0000      -0.491908       -13.3855
  51   2.0000      -0.479968       -13.0606
  52   2.0000      -0.470853       -12.8126
  53   2.0000      -0.466557       -12.6957
  54   2.0000      -0.457317       -12.4442
  55   2.0000      -0.449915       -12.2428
  56   2.0000      -0.442288       -12.0353
  57   2.0000      -0.437451       -11.9036
  58   2.0000      -0.432611       -11.7720
  59   2.0000      -0.427675       -11.6376
  60   2.0000      -0.418118       -11.3776
  61   2.0000      -0.413687       -11.2570
  62   2.0000      -0.410758       -11.1773
  63   2.0000      -0.350965        -9.5503
  64   2.0000      -0.329296        -8.9606
  65   2.0000      -0.325828        -8.8662
  66   2.0000      -0.294409        -8.0113
  67   0.0000       0.031559         0.8588
  68   0.0000       0.065083         1.7710
  69   0.0000       0.110633         3.0105
  70   0.0000       0.118793         3.2325
  71   0.0000       0.131755         3.5852

MULLIKEN ATOMIC CHARGES
-----------------------
   0 S :    0.123327
   1 C :   -0.118837
   2 C :   -0.090127
   3 C :    0.013492
   4 C :   -0.157872
   5 H :    0.036768
   6 C :    0.013118
   7 H :    0.060997
   8 H :    0.038052
   9 C :   -0.072669
  10 H :    0.026258
  11 H :    0.031343
  12 C :   -0.044302
  13 H :    0.032882
  14 H :    0.030732
  15 H :    0.021005
  16 S :    0.085121
  17 C :   -0.083768
  18 C :   -0.049200
  19 C :   -0.036906
  20 C :   -0.158585
  21 H :    0.032009
  22 C :    0.043513
  23 H :    0.045986
  24 H :    0.034432
  25 C :   -0.069851
  26 H :    0.043582
  27 H :    0.026075
  28 C :   -0.048940
  29 H :    0.010712
  30 H :    0.033899
  31 H :    0.032850
  32 H :    0.050345
  33 H :    0.064563
Sum of atomic charges:    0.0000000

LOEWDIN ATOMIC CHARGES
----------------------
   0 S :    0.396869
   1 C :   -0.203900
   2 C :   -0.058840
   3 C :   -0.065025
   4 C :   -0.189642
   5 H :    0.038603
   6 C :   -0.046407
   7 H :    0.048201
   8 H :    0.034584
   9 C :   -0.040268
  10 H :    0.025750
  11 H :    0.023394
  12 C :   -0.073036
  13 H :    0.026519
  14 H :    0.028267
  15 H :    0.024264
  16 S :    0.385750
  17 C :   -0.175640
  18 C :   -0.075638
  19 C :   -0.066235
  20 C :   -0.190843
  21 H :    0.036050
  22 C :   -0.032003
  23 H :    0.043705
  24 H :    0.032478
  25 C :   -0.040265
  26 H :    0.034548
  27 H :    0.017609
  28 C :   -0.071544
  29 H :    0.021108
  30 H :    0.027174
  31 H :    0.023093
  32 H :    0.028131
  33 H :    0.033186

  Mayer bond orders larger than 0.100000
B(  0-S ,  1-C ) :   1.1354 B(  0-S ,  4-C ) :   1.1251 B(  1-C ,  2-C ) :   1.6148
B(  1-C , 32-H ) :   0.9650 B(  2-C ,  3-C ) :   1.2257 B(  2-C ,  6-C ) :   1.0224
B(  3-C ,  4-C ) :   1.6281 B(  3-C ,  5-H ) :   0.9711 B(  4-C , 20-C ) :   1.0268
B(  6-C ,  7-H ) :   0.9309 B(  6-C ,  8-H ) :   0.9518 B(  6-C ,  9-C ) :   1.0469
B(  9-C , 10-H ) :   0.9529 B(  9-C , 11-H ) :   0.9639 B(  9-C , 12-C ) :   1.0643
B( 12-C , 13-H ) :   0.9782 B( 12-C , 14-H ) :   0.9769 B( 12-C , 15-H ) :   0.9764
B( 16-S , 17-C ) :   1.1375 B( 16-S , 20-C ) :   1.1397 B( 17-C , 18-C ) :   1.6334
B( 17-C , 33-H ) :   0.9630 B( 18-C , 19-C ) :   1.2476 B( 18-C , 21-H ) :   0.9687
B( 19-C , 20-C ) :   1.6287 B( 19-C , 22-C ) :   1.0298 B( 22-C , 23-H ) :   0.9259
B( 22-C , 24-H ) :   0.9345 B( 22-C , 25-C ) :   1.0910 B( 25-C , 26-H ) :   0.9599
B( 25-C , 27-H ) :   0.9592 B( 25-C , 28-C ) :   1.0557 B( 28-C , 29-H ) :   0.9703
B( 28-C , 30-H ) :   0.9769 B( 28-C , 31-H ) :   0.9785

Dispersion correction           -0.013584111
FINAL SINGLE POINT ENERGY     -1339.861326031963

DIPOLE MOMENT
-------------
                                X             Y             Z
Electronic contribution:    -12.47101      -9.21702      21.14334
Nuclear contribution   :     12.93439       9.24567     -21.71195
                        -----------------------------------------
Total Dipole Moment    :      0.46338       0.02865      -0.56861
                        -----------------------------------------
Magnitude (a.u.)       :      0.73407
Magnitude (Debye)      :      1.86587

Rotational constants in cm-1:     0.020975     0.007059     0.005760
Rotational constants in MHz :   628.820391   211.632561   172.678144

                             ****ORCA TERMINATED NORMALLY****
TOTAL RUN TIME: 0 days 0 hours 0 minutes 19 seconds 737 msec
