                         Program Version 4.2.1 -  RELEASE  -
|  1> ! wB97X-D3 SP def2-SVP
|  2> %pal
|  3> nprocs 24
|  4> end
|  5>
|  6> * xyz 0 1
|  7> S 	 -103.701 	 -0.819665 	 -105.223
|  8> C 	 -103.318 	 0.348716 	 -103.978
|  9> C 	 -103.273 	 1.65581 	 -104.526
| 10> C 	 -103.723 	 1.65095 	 -105.875
| 11> C 	 -104.033 	 0.393767 	 -106.399
| 12> H 	 -103.926 	 2.53503 	 -106.46
| 13> C 	 -102.875 	 2.86084 	 -103.745
| 14> H 	 -102.249 	 3.53693 	 -104.422
| 15> H 	 -102.135 	 2.52921 	 -102.986
| 16> C 	 -103.957 	 3.73221 	 -103.138
| 17> H 	 -103.513 	 4.53824 	 -102.536
| 18> H 	 -104.6 	 4.16136 	 -103.919
| 19> C 	 -104.798 	 2.87861 	 -102.178
| 20> H 	 -105.469 	 3.60859 	 -101.645
| 21> H 	 -105.293 	 2.06355 	 -102.656
| 22> H 	 -104.187 	 2.25835 	 -101.473
| 23> S 	 -103.939 	 0.482811 	 -109.111
| 24> C 	 -105.167 	 -0.315538 	 -110.082
| 25> C 	 -106.137 	 -0.707222 	 -109.298
| 26> C 	 -105.935 	 -0.5265 	 -107.917
| 27> C 	 -104.733 	 0.0841575 	 -107.643
| 28> H 	 -107.002 	 -1.22032 	 -109.725
| 29> C 	 -106.916 	 -0.985196 	 -106.916
| 30> H 	 -106.412 	 -1.63668 	 -106.222
| 31> H 	 -107.651 	 -1.64106 	 -107.356
| 32> C 	 -107.497 	 0.170043 	 -106.174
| 33> H 	 -108.015 	 0.758083 	 -106.929
| 34> H 	 -106.654 	 0.86414 	 -105.798
| 35> C 	 -108.445 	 -0.0585658 	 -104.975
| 36> H 	 -108.006 	 -0.748976 	 -104.238
| 37> H 	 -109.4 	 -0.467147 	 -105.364
| 38> H 	 -108.681 	 0.890337 	 -104.5
| 39> H 	 -102.965 	 0.196702 	 -103.019
| 40> H 	 -104.936 	 -0.596467 	 -111.129
| 41> *
| 42>
| 43>                          ****END OF INPUT****

CARTESIAN COORDINATES (ANGSTROEM)
---------------------------------
  S    -103.701000   -0.819665  -105.223000
  C    -103.318000    0.348716  -103.978000
  C    -103.273000    1.655810  -104.526000
  C    -103.723000    1.650950  -105.875000
  C    -104.033000    0.393767  -106.399000
  H    -103.926000    2.535030  -106.460000
  C    -102.875000    2.860840  -103.745000
  H    -102.249000    3.536930  -104.422000
  H    -102.135000    2.529210  -102.986000
  C    -103.957000    3.732210  -103.138000
  H    -103.513000    4.538240  -102.536000
  H    -104.600000    4.161360  -103.919000
  C    -104.798000    2.878610  -102.178000
  H    -105.469000    3.608590  -101.645000
  H    -105.293000    2.063550  -102.656000
  H    -104.187000    2.258350  -101.473000
  S    -103.939000    0.482811  -109.111000
  C    -105.167000   -0.315538  -110.082000
  C    -106.137000   -0.707222  -109.298000
  C    -105.935000   -0.526500  -107.917000
  C    -104.733000    0.084157  -107.643000
  H    -107.002000   -1.220320  -109.725000
  C    -106.916000   -0.985196  -106.916000
  H    -106.412000   -1.636680  -106.222000
  H    -107.651000   -1.641060  -107.356000
  C    -107.497000    0.170043  -106.174000
  H    -108.015000    0.758083  -106.929000
  H    -106.654000    0.864140  -105.798000
  C    -108.445000   -0.058566  -104.975000
  H    -108.006000   -0.748976  -104.238000
  H    -109.400000   -0.467147  -105.364000
  H    -108.681000    0.890337  -104.500000
  H    -102.965000    0.196702  -103.019000
  H    -104.936000   -0.596467  -111.129000

 Total Charge           Charge          ....    0
 Multiplicity           Mult            ....    1
 Number of Electrons    NEL             ....  134
 Basis Dimension        Dim             ....  322

ORBITAL ENERGIES
----------------

  NO   OCC          E(Eh)            E(eV)
   0   2.0000     -88.971879     -2421.0479
   1   2.0000     -88.958580     -2420.6860
   2   2.0000     -10.331321      -281.1295
   3   2.0000     -10.322865      -280.8994
   4   2.0000     -10.313799      -280.6527
   5   2.0000     -10.312416      -280.6151
   6   2.0000     -10.304282      -280.3938
   7   2.0000     -10.296691      -280.1872
   8   2.0000     -10.296043      -280.1696
   9   2.0000     -10.295465      -280.1539
  10   2.0000     -10.289788      -279.9994
  11   2.0000     -10.285863      -279.8926
  12   2.0000     -10.282025      -279.7881
  13   2.0000     -10.279658      -279.7237
  14   2.0000     -10.278053      -279.6800
  15   2.0000     -10.277455      -279.6638
  16   2.0000      -8.086329      -220.0402
  17   2.0000      -8.074517      -219.7188
  18   2.0000      -6.044847      -164.4887
  19   2.0000      -6.040653      -164.3745
  20   2.0000      -6.037314      -164.2837
  21   2.0000      -6.032974      -164.1656
  22   2.0000      -6.028783      -164.0515
  23   2.0000      -6.025322      -163.9573
  24   2.0000      -1.016223       -27.6528
  25   2.0000      -0.991831       -26.9891
  26   2.0000      -0.917754       -24.9734
  27   2.0000      -0.913393       -24.8547
  28   2.0000      -0.874590       -23.7988
  29   2.0000      -0.850218       -23.1356
  30   2.0000      -0.844037       -22.9674
  31   2.0000      -0.818659       -22.2768
  32   2.0000      -0.782916       -21.3042
  33   2.0000      -0.773262       -21.0415
  34   2.0000      -0.712077       -19.3766
  35   2.0000      -0.697241       -18.9729
  36   2.0000      -0.687486       -18.7074
  37   2.0000      -0.666222       -18.1288
  38   2.0000      -0.638700       -17.3799
  39   2.0000      -0.621554       -16.9133
  40   2.0000      -0.602256       -16.3882
  41   2.0000      -0.573354       -15.6018
  42   2.0000      -0.560788       -15.2598
  43   2.0000      -0.554605       -15.0916
  44   2.0000      -0.541876       -14.7452
  45   2.0000      -0.528730       -14.3875
  46   2.0000      -0.521164       -14.1816
  47   2.0000      -0.518249       -14.1023
  48   2.0000      -0.509020       -13.8511
  49   2.0000      -0.501494       -13.6463
  50   2.0000      -0.488971       -13.3056
  51   2.0000      -0.482136       -13.1196
  52   2.0000      -0.470750       -12.8098
  53   2.0000      -0.464695       -12.6450
  54   2.0000      -0.455216       -12.3871
  55   2.0000      -0.450801       -12.2669
  56   2.0000      -0.445098       -12.1117
  57   2.0000      -0.433861       -11.8059
  58   2.0000      -0.427478       -11.6323
  59   2.0000      -0.422316       -11.4918
  60   2.0000      -0.418673       -11.3927
  61   2.0000      -0.410099       -11.1594
  62   2.0000      -0.408008       -11.1025
  63   2.0000      -0.349092        -9.4993
  64   2.0000      -0.333787        -9.0828
  65   2.0000      -0.325608        -8.8602
  66   2.0000      -0.297785        -8.1031
  67   0.0000       0.031963         0.8698
  68   0.0000       0.065452         1.7810
  69   0.0000       0.108119         2.9421
  70   0.0000       0.124692         3.3930
  71   0.0000       0.132308         3.6003

MULLIKEN ATOMIC CHARGES
-----------------------
   0 S :    0.134137
   1 C :   -0.091302
   2 C :   -0.099526
   3 C :    0.047008
   4 C :   -0.168554
   5 H :    0.009131
   6 C :    0.010018
   7 H :    0.037332
   8 H :    0.029372
   9 C :   -0.034696
  10 H :    0.037548
  11 H :    0.036305
  12 C :   -0.077294
  13 H :    0.047050
  14 H :    0.037861
  15 H :    0.016544
  16 S :    0.092729
  17 C :   -0.104928
  18 C :   -0.028036
  19 C :   -0.041932
  20 C :   -0.170133
  21 H :    0.018765
  22 C :    0.155167
  23 H :    0.007668
  24 H :    0.002083
  25 C :   -0.146298
  26 H :    0.019362
  27 H :    0.052821
  28 C :   -0.019051
  29 H :    0.036913
  30 H :    0.026986
  31 H :    0.035124
  32 H :    0.016397
  33 H :    0.075432
Sum of atomic charges:   -0.0000000

LOEWDIN ATOMIC CHARGES
----------------------
   0 S :    0.436879
   1 C :   -0.193964
   2 C :   -0.059784
   3 C :   -0.061738
   4 C :   -0.206750
   5 H :    0.029452
   6 C :   -0.044600
   7 H :    0.038111
   8 H :    0.033174
   9 C :   -0.039345
  10 H :    0.029204
  11 H :    0.027205
  12 C :   -0.073617
  13 H :    0.032148
  14 H :    0.020113
  15 H :    0.024359
  16 S :    0.411090
  17 C :   -0.181591
  18 C :   -0.076953
  19 C :   -0.055846
  20 C :   -0.208302
  21 H :    0.035883
  22 C :   -0.035709
  23 H :    0.022813
  24 H :    0.026131
  25 C :   -0.049472
  26 H :    0.021182
  27 H :    0.035174
  28 C :   -0.065729
  29 H :    0.026147
  30 H :    0.024430
  31 H :    0.027720
  32 H :    0.011860
  33 H :    0.040328

  Mayer bond orders larger than 0.100000
B(  0-S ,  1-C ) :   1.1536 B(  0-S ,  4-C ) :   1.1745 B(  1-C ,  2-C ) :   1.5610
B(  1-C ,  4-C ) :   0.1048 B(  1-C , 32-H ) :   0.9751 B(  2-C ,  3-C ) :   1.2726
B(  2-C ,  6-C ) :   1.0330 B(  3-C ,  4-C ) :   1.5474 B(  3-C ,  5-H ) :   0.9942
B(  4-C , 20-C ) :   1.0034 B(  6-C ,  7-H ) :   0.9387 B(  6-C ,  8-H ) :   0.9399
B(  6-C ,  9-C ) :   1.0786 B(  9-C , 10-H ) :   0.9538 B(  9-C , 11-H ) :   0.9526
B(  9-C , 12-C ) :   1.0697 B( 12-C , 13-H ) :   0.9743 B( 12-C , 14-H ) :   0.9722
B( 12-C , 15-H ) :   0.9719 B( 16-S , 17-C ) :   1.1468 B( 16-S , 20-C ) :   1.1601
B( 17-C , 18-C ) :   1.6095 B( 17-C , 33-H ) :   0.9639 B( 18-C , 19-C ) :   1.2522
B( 18-C , 21-H ) :   0.9907 B( 19-C , 20-C ) :   1.5793 B( 19-C , 22-C ) :   1.0555
B( 22-C , 23-H ) :   0.9125 B( 22-C , 24-H ) :   0.9216 B( 22-C , 25-C ) :   1.0555
B( 25-C , 26-H ) :   0.9508 B( 25-C , 27-H ) :   0.9571 B( 25-C , 28-C ) :   1.0841
B( 28-C , 29-H ) :   0.9739 B( 28-C , 30-H ) :   0.9733 B( 28-C , 31-H ) :   0.9730

Dispersion correction           -0.015587121
FINAL SINGLE POINT ENERGY     -1339.884212058153

DIPOLE MOMENT
-------------
                                X             Y             Z
Electronic contribution:     13.90474     -10.39895     -19.32974
Nuclear contribution   :    -14.15833      10.53678      19.50291
                        -----------------------------------------
Total Dipole Moment    :     -0.25358       0.13782       0.17317
                        -----------------------------------------
Magnitude (a.u.)       :      0.33658
Magnitude (Debye)      :      0.85552

Rotational constants in cm-1:     0.020245     0.009218     0.007684
Rotational constants in MHz :   606.916093   276.352735   230.369092

                             ****ORCA TERMINATED NORMALLY****
TOTAL RUN TIME: 0 days 0 hours 0 minutes 22 seconds 898 msec
