                         Program Version 4.2.1 -  RELEASE  -
|  1> ! wB97X-D3 SP def2-SVP
|  2> %pal
|  3> nprocs 24
|  4> end
|  5>
|  6> * xyz 0 1
|  7> S 	 -46.1966 	 29.1188 	 29.4663
|  8> C 	 -47.1868 	 29.968 	 28.3037
|  9> C 	 -48.5106 	 29.7022 	 28.4319
| 10> C 	 -48.7462 	 28.7641 	 29.4578
| 11> C 	 -47.6236 	 28.2513 	 30.0725
| 12> H 	 -49.7719 	 28.3846 	 29.7326
| 13> C 	 -49.6151 	 30.3133 	 27.5975
| 14> H 	 -49.7547 	 31.331 	 27.9261
| 15> H 	 -50.4753 	 29.701 	 27.8744
| 16> C 	 -49.5503 	 30.1315 	 26.1056
| 17> H 	 -50.5313 	 30.6629 	 25.7582
| 18> H 	 -48.6712 	 30.5633 	 25.6565
| 19> C 	 -49.6772 	 28.6865 	 25.6857
| 20> H 	 -49.035 	 27.9185 	 26.1461
| 21> H 	 -50.6912 	 28.4079 	 25.8447
| 22> H 	 -49.5509 	 28.6135 	 24.6198
| 23> S 	 -47.6391 	 25.5466 	 30.7807
| 24> C 	 -47.1857 	 25.1241 	 32.4206
| 25> C 	 -47.0787 	 26.2764 	 33.2061
| 26> C 	 -47.1244 	 27.4804 	 32.4749
| 27> C 	 -47.6091 	 27.2841 	 31.1762
| 28> H 	 -46.7977 	 26.2348 	 34.2594
| 29> C 	 -46.8624 	 28.8507 	 33.1197
| 30> H 	 -47.6664 	 29.1682 	 33.8572
| 31> H 	 -46.8741 	 29.6155 	 32.3419
| 32> C 	 -45.4791 	 28.9724 	 33.8634
| 33> H 	 -44.7616 	 29.3081 	 33.1056
| 34> H 	 -45.1163 	 27.9285 	 34.0936
| 35> C 	 -45.5687 	 29.9068 	 35.139
| 36> H 	 -44.6683 	 30.0074 	 35.7395
| 37> H 	 -46.3585 	 29.6428 	 35.8067
| 38> H 	 -45.7336 	 30.9421 	 34.792
| 39> H 	 -46.6459 	 30.7102 	 27.6908
| 40> H 	 -47.1299 	 24.1026 	 32.859
| 41> *
| 42>
| 43>                          ****END OF INPUT****

CARTESIAN COORDINATES (ANGSTROEM)
---------------------------------
  S    -46.196600   29.118800   29.466300
  C    -47.186800   29.968000   28.303700
  C    -48.510600   29.702200   28.431900
  C    -48.746200   28.764100   29.457800
  C    -47.623600   28.251300   30.072500
  H    -49.771900   28.384600   29.732600
  C    -49.615100   30.313300   27.597500
  H    -49.754700   31.331000   27.926100
  H    -50.475300   29.701000   27.874400
  C    -49.550300   30.131500   26.105600
  H    -50.531300   30.662900   25.758200
  H    -48.671200   30.563300   25.656500
  C    -49.677200   28.686500   25.685700
  H    -49.035000   27.918500   26.146100
  H    -50.691200   28.407900   25.844700
  H    -49.550900   28.613500   24.619800
  S    -47.639100   25.546600   30.780700
  C    -47.185700   25.124100   32.420600
  C    -47.078700   26.276400   33.206100
  C    -47.124400   27.480400   32.474900
  C    -47.609100   27.284100   31.176200
  H    -46.797700   26.234800   34.259400
  C    -46.862400   28.850700   33.119700
  H    -47.666400   29.168200   33.857200
  H    -46.874100   29.615500   32.341900
  C    -45.479100   28.972400   33.863400
  H    -44.761600   29.308100   33.105600
  H    -45.116300   27.928500   34.093600
  C    -45.568700   29.906800   35.139000
  H    -44.668300   30.007400   35.739500
  H    -46.358500   29.642800   35.806700
  H    -45.733600   30.942100   34.792000
  H    -46.645900   30.710200   27.690800
  H    -47.129900   24.102600   32.859000

 Total Charge           Charge          ....    0
 Multiplicity           Mult            ....    1
 Number of Electrons    NEL             ....  134
 Basis Dimension        Dim             ....  322

ORBITAL ENERGIES
----------------

  NO   OCC          E(Eh)            E(eV)
   0   2.0000     -88.967868     -2420.9388
   1   2.0000     -88.964180     -2420.8384
   2   2.0000     -10.327503      -281.0256
   3   2.0000     -10.326968      -281.0111
   4   2.0000     -10.324294      -280.9383
   5   2.0000     -10.313556      -280.6461
   6   2.0000     -10.304910      -280.4108
   7   2.0000     -10.295840      -280.1640
   8   2.0000     -10.295148      -280.1452
   9   2.0000     -10.294760      -280.1347
  10   2.0000     -10.294408      -280.1251
  11   2.0000     -10.293794      -280.1084
  12   2.0000     -10.290805      -280.0270
  13   2.0000     -10.287553      -279.9385
  14   2.0000     -10.281608      -279.7768
  15   2.0000     -10.269986      -279.4605
  16   2.0000      -8.081810      -219.9172
  17   2.0000      -8.078570      -219.8291
  18   2.0000      -6.040353      -164.3664
  19   2.0000      -6.036991      -164.2749
  20   2.0000      -6.036376      -164.2582
  21   2.0000      -6.033124      -164.1696
  22   2.0000      -6.032622      -164.1560
  23   2.0000      -6.029457      -164.0699
  24   2.0000      -1.003249       -27.2998
  25   2.0000      -0.983249       -26.7556
  26   2.0000      -0.917349       -24.9623
  27   2.0000      -0.896217       -24.3873
  28   2.0000      -0.866233       -23.5714
  29   2.0000      -0.848495       -23.0887
  30   2.0000      -0.843549       -22.9541
  31   2.0000      -0.810027       -22.0420
  32   2.0000      -0.783052       -21.3079
  33   2.0000      -0.770859       -20.9761
  34   2.0000      -0.702769       -19.1233
  35   2.0000      -0.697989       -18.9932
  36   2.0000      -0.692422       -18.8418
  37   2.0000      -0.654571       -17.8118
  38   2.0000      -0.640321       -17.4240
  39   2.0000      -0.608401       -16.5554
  40   2.0000      -0.594353       -16.1732
  41   2.0000      -0.577941       -15.7266
  42   2.0000      -0.559702       -15.2303
  43   2.0000      -0.551286       -15.0012
  44   2.0000      -0.537657       -14.6304
  45   2.0000      -0.517387       -14.0788
  46   2.0000      -0.510513       -13.8918
  47   2.0000      -0.509618       -13.8674
  48   2.0000      -0.503034       -13.6883
  49   2.0000      -0.489691       -13.3252
  50   2.0000      -0.488376       -13.2894
  51   2.0000      -0.473018       -12.8715
  52   2.0000      -0.466693       -12.6994
  53   2.0000      -0.464565       -12.6415
  54   2.0000      -0.458319       -12.4715
  55   2.0000      -0.449623       -12.2349
  56   2.0000      -0.443168       -12.0592
  57   2.0000      -0.436705       -11.8833
  58   2.0000      -0.433810       -11.8046
  59   2.0000      -0.423647       -11.5280
  60   2.0000      -0.420768       -11.4497
  61   2.0000      -0.413391       -11.2489
  62   2.0000      -0.411487       -11.1971
  63   2.0000      -0.336239        -9.1495
  64   2.0000      -0.333962        -9.0876
  65   2.0000      -0.324783        -8.8378
  66   2.0000      -0.303186        -8.2501
  67   0.0000       0.037084         1.0091
  68   0.0000       0.054004         1.4695
  69   0.0000       0.105573         2.8728
  70   0.0000       0.119720         3.2577
  71   0.0000       0.128542         3.4978

MULLIKEN ATOMIC CHARGES
-----------------------
   0 S :    0.103144
   1 C :   -0.166013
   2 C :   -0.071066
   3 C :    0.008535
   4 C :   -0.168966
   5 H :    0.032258
   6 C :    0.107974
   7 H :    0.042374
   8 H :    0.003087
   9 C :   -0.090966
  10 H :    0.043851
  11 H :    0.032207
  12 C :   -0.043278
  13 H :    0.051878
  14 H :    0.013239
  15 H :    0.025676
  16 S :    0.111404
  17 C :   -0.109291
  18 C :   -0.027680
  19 C :   -0.048706
  20 C :   -0.155197
  21 H :    0.026907
  22 C :    0.047723
  23 H :    0.049927
  24 H :    0.027924
  25 C :   -0.103173
  26 H :    0.036566
  27 H :    0.036756
  28 C :   -0.056469
  29 H :    0.034433
  30 H :    0.033846
  31 H :    0.034412
  32 H :    0.061497
  33 H :    0.075190
Sum of atomic charges:    0.0000000

LOEWDIN ATOMIC CHARGES
----------------------
   0 S :    0.393945
   1 C :   -0.190632
   2 C :   -0.076282
   3 C :   -0.063055
   4 C :   -0.195084
   5 H :    0.040738
   6 C :   -0.030531
   7 H :    0.032293
   8 H :    0.029617
   9 C :   -0.040686
  10 H :    0.040395
  11 H :    0.016795
  12 C :   -0.066157
  13 H :    0.031396
  14 H :    0.019967
  15 H :    0.025830
  16 S :    0.401659
  17 C :   -0.189055
  18 C :   -0.074734
  19 C :   -0.052720
  20 C :   -0.199045
  21 H :    0.032351
  22 C :   -0.035082
  23 H :    0.039232
  24 H :    0.023902
  25 C :   -0.044036
  26 H :    0.026665
  27 H :    0.023611
  28 C :   -0.068751
  29 H :    0.026529
  30 H :    0.021006
  31 H :    0.029744
  32 H :    0.029771
  33 H :    0.040403

  Mayer bond orders larger than 0.100000
B(  0-S ,  1-C ) :   1.1512 B(  0-S ,  4-C ) :   1.1346 B(  1-C ,  2-C ) :   1.5918
B(  1-C , 32-H ) :   0.9699 B(  2-C ,  3-C ) :   1.2644 B(  2-C ,  6-C ) :   0.9980
B(  3-C ,  4-C ) :   1.5848 B(  3-C ,  5-H ) :   0.9817 B(  4-C , 20-C ) :   1.0223
B(  6-C ,  7-H ) :   0.9342 B(  6-C ,  8-H ) :   0.9374 B(  6-C ,  9-C ) :   1.0794
B(  9-C , 10-H ) :   0.9543 B(  9-C , 11-H ) :   0.9596 B(  9-C , 12-C ) :   1.0744
B( 12-C , 13-H ) :   0.9758 B( 12-C , 14-H ) :   0.9717 B( 12-C , 15-H ) :   0.9719
B( 16-S , 17-C ) :   1.1677 B( 16-S , 20-C ) :   1.1434 B( 17-C , 18-C ) :   1.5898
B( 17-C , 20-C ) :   0.1061 B( 17-C , 33-H ) :   0.9607 B( 18-C , 19-C ) :   1.2602
B( 18-C , 21-H ) :   0.9804 B( 19-C , 20-C ) :   1.5766 B( 19-C , 22-C ) :   1.0446
B( 22-C , 23-H ) :   0.9528 B( 22-C , 24-H ) :   0.9318 B( 22-C , 25-C ) :   1.0195
B( 25-C , 26-H ) :   0.9578 B( 25-C , 27-H ) :   0.9721 B( 25-C , 28-C ) :   1.0609
B( 28-C , 29-H ) :   0.9770 B( 28-C , 30-H ) :   0.9794 B( 28-C , 31-H ) :   0.9761

Dispersion correction           -0.014176962
FINAL SINGLE POINT ENERGY     -1339.881113135801

DIPOLE MOMENT
-------------
                                X             Y             Z
Electronic contribution:      4.64789     -13.10509      -0.69912
Nuclear contribution   :     -4.82337      13.43888       0.82031
                        -----------------------------------------
Total Dipole Moment    :     -0.17548       0.33379       0.12118
                        -----------------------------------------
Magnitude (a.u.)       :      0.39610
Magnitude (Debye)      :      1.00681

Rotational constants in cm-1:     0.022103     0.007610     0.006223
Rotational constants in MHz :   662.634050   228.147234   186.551024

                             ****ORCA TERMINATED NORMALLY****
TOTAL RUN TIME: 0 days 0 hours 0 minutes 21 seconds 187 msec
