                         Program Version 4.2.1 -  RELEASE  -
|  1> ! wB97X-D3 SP def2-SVP
|  2> %pal
|  3> nprocs 24
|  4> end
|  5>
|  6> * xyz 0 1
|  7> S 	 -137.784 	 6.40224 	 2.16893
|  8> C 	 -137.776 	 4.98211 	 3.16411
|  9> C 	 -137.696 	 5.29915 	 4.4887
| 10> C 	 -137.495 	 6.7501 	 4.69587
| 11> C 	 -137.672 	 7.47423 	 3.56283
| 12> H 	 -137.545 	 7.30726 	 5.63011
| 13> C 	 -137.455 	 4.18793 	 5.53452
| 14> H 	 -136.373 	 4.05264 	 5.64255
| 15> H 	 -137.794 	 3.24441 	 5.11775
| 16> C 	 -138.027 	 4.45945 	 6.97828
| 17> H 	 -137.789 	 3.66374 	 7.66362
| 18> H 	 -137.778 	 5.43157 	 7.21715
| 19> C 	 -139.535 	 4.48474 	 6.82889
| 20> H 	 -139.801 	 5.39287 	 6.36618
| 21> H 	 -139.982 	 3.72331 	 6.16608
| 22> H 	 -139.999 	 4.36529 	 7.81724
| 23> S 	 -136.5 	 9.63015 	 2.36919
| 24> C 	 -137.359 	 11.2029 	 2.57605
| 25> C 	 -138.486 	 11.1106 	 3.33826
| 26> C 	 -138.587 	 9.81225 	 4.01703
| 27> C 	 -137.756 	 8.89409 	 3.39188
| 28> H 	 -139.064 	 11.9872 	 3.42146
| 29> C 	 -139.833 	 9.52509 	 4.89291
| 30> H 	 -140.111 	 10.5277 	 5.26711
| 31> H 	 -139.537 	 8.9645 	 5.72921
| 32> C 	 -141.028 	 8.70532 	 4.29692
| 33> H 	 -140.757 	 7.67692 	 4.00297
| 34> H 	 -141.36 	 9.0633 	 3.2629
| 35> C 	 -142.123 	 8.46671 	 5.26477
| 36> H 	 -141.813 	 7.73438 	 6.0253
| 37> H 	 -142.978 	 8.07781 	 4.83945
| 38> H 	 -142.452 	 9.37742 	 5.8204
| 39> H 	 -137.766 	 3.9629 	 2.85635
| 40> H 	 -137.092 	 12.0991 	 2.02408
| 41> *
| 42>
| 43>                          ****END OF INPUT****

CARTESIAN COORDINATES (ANGSTROEM)
---------------------------------
  S    -137.784000    6.402240    2.168930
  C    -137.776000    4.982110    3.164110
  C    -137.696000    5.299150    4.488700
  C    -137.495000    6.750100    4.695870
  C    -137.672000    7.474230    3.562830
  H    -137.545000    7.307260    5.630110
  C    -137.455000    4.187930    5.534520
  H    -136.373000    4.052640    5.642550
  H    -137.794000    3.244410    5.117750
  C    -138.027000    4.459450    6.978280
  H    -137.789000    3.663740    7.663620
  H    -137.778000    5.431570    7.217150
  C    -139.535000    4.484740    6.828890
  H    -139.801000    5.392870    6.366180
  H    -139.982000    3.723310    6.166080
  H    -139.999000    4.365290    7.817240
  S    -136.500000    9.630150    2.369190
  C    -137.359000   11.202900    2.576050
  C    -138.486000   11.110600    3.338260
  C    -138.587000    9.812250    4.017030
  C    -137.756000    8.894090    3.391880
  H    -139.064000   11.987200    3.421460
  C    -139.833000    9.525090    4.892910
  H    -140.111000   10.527700    5.267110
  H    -139.537000    8.964500    5.729210
  C    -141.028000    8.705320    4.296920
  H    -140.757000    7.676920    4.002970
  H    -141.360000    9.063300    3.262900
  C    -142.123000    8.466710    5.264770
  H    -141.813000    7.734380    6.025300
  H    -142.978000    8.077810    4.839450
  H    -142.452000    9.377420    5.820400
  H    -137.766000    3.962900    2.856350
  H    -137.092000   12.099100    2.024080

 Total Charge           Charge          ....    0
 Multiplicity           Mult            ....    1
 Number of Electrons    NEL             ....  134
 Basis Dimension        Dim             ....  322

ORBITAL ENERGIES
----------------

  NO   OCC          E(Eh)            E(eV)
   0   2.0000     -88.966593     -2420.9041
   1   2.0000     -88.963197     -2420.8117
   2   2.0000     -10.329529      -281.0808
   3   2.0000     -10.326797      -281.0064
   4   2.0000     -10.319282      -280.8019
   5   2.0000     -10.312602      -280.6202
   6   2.0000     -10.309930      -280.5475
   7   2.0000     -10.305354      -280.4229
   8   2.0000     -10.297594      -280.2118
   9   2.0000     -10.297273      -280.2030
  10   2.0000     -10.295760      -280.1619
  11   2.0000     -10.294289      -280.1218
  12   2.0000     -10.290908      -280.0298
  13   2.0000     -10.281374      -279.7704
  14   2.0000     -10.272216      -279.5212
  15   2.0000     -10.269334      -279.4428
  16   2.0000      -8.080345      -219.8774
  17   2.0000      -8.078277      -219.8211
  18   2.0000      -6.038977      -164.3289
  19   2.0000      -6.036902      -164.2724
  20   2.0000      -6.035218      -164.2266
  21   2.0000      -6.032737      -164.1591
  22   2.0000      -6.030797      -164.1063
  23   2.0000      -6.028867      -164.0538
  24   2.0000      -1.006283       -27.3824
  25   2.0000      -0.979159       -26.6443
  26   2.0000      -0.911753       -24.8101
  27   2.0000      -0.906068       -24.6554
  28   2.0000      -0.876538       -23.8518
  29   2.0000      -0.853219       -23.2173
  30   2.0000      -0.841475       -22.8977
  31   2.0000      -0.821519       -22.3547
  32   2.0000      -0.782481       -21.2924
  33   2.0000      -0.769401       -20.9365
  34   2.0000      -0.713221       -19.4077
  35   2.0000      -0.697835       -18.9891
  36   2.0000      -0.689372       -18.7588
  37   2.0000      -0.662080       -18.0161
  38   2.0000      -0.644818       -17.5464
  39   2.0000      -0.619939       -16.8694
  40   2.0000      -0.596027       -16.2187
  41   2.0000      -0.572956       -15.5909
  42   2.0000      -0.559251       -15.2180
  43   2.0000      -0.549672       -14.9573
  44   2.0000      -0.544104       -14.8058
  45   2.0000      -0.529787       -14.4162
  46   2.0000      -0.516529       -14.0555
  47   2.0000      -0.513765       -13.9802
  48   2.0000      -0.505697       -13.7607
  49   2.0000      -0.496082       -13.4991
  50   2.0000      -0.490712       -13.3530
  51   2.0000      -0.482767       -13.1368
  52   2.0000      -0.467903       -12.7323
  53   2.0000      -0.463669       -12.6171
  54   2.0000      -0.458009       -12.4631
  55   2.0000      -0.451644       -12.2899
  56   2.0000      -0.444635       -12.0991
  57   2.0000      -0.437223       -11.8974
  58   2.0000      -0.435248       -11.8437
  59   2.0000      -0.427590       -11.6353
  60   2.0000      -0.419360       -11.4114
  61   2.0000      -0.414824       -11.2879
  62   2.0000      -0.403680       -10.9847
  63   2.0000      -0.346911        -9.4399
  64   2.0000      -0.332456        -9.0466
  65   2.0000      -0.326846        -8.8939
  66   2.0000      -0.299217        -8.1421
  67   0.0000       0.029426         0.8007
  68   0.0000       0.067460         1.8357
  69   0.0000       0.107760         2.9323
  70   0.0000       0.117821         3.2061
  71   0.0000       0.120440         3.2773

MULLIKEN ATOMIC CHARGES
-----------------------
   0 S :    0.107770
   1 C :   -0.089816
   2 C :   -0.116234
   3 C :    0.048318
   4 C :   -0.177271
   5 H :    0.023662
   6 C :    0.025059
   7 H :    0.045009
   8 H :    0.012867
   9 C :   -0.016499
  10 H :    0.036765
  11 H :    0.015719
  12 C :   -0.063861
  13 H :    0.020167
  14 H :    0.024869
  15 H :    0.032614
  16 S :    0.099726
  17 C :   -0.091645
  18 C :   -0.016871
  19 C :   -0.028389
  20 C :   -0.151089
  21 H :    0.011699
  22 C :    0.091498
  23 H :    0.024552
  24 H :    0.003057
  25 C :   -0.080404
  26 H :    0.033068
  27 H :    0.033310
  28 C :   -0.025670
  29 H :    0.031549
  30 H :    0.017060
  31 H :    0.024616
  32 H :    0.037529
  33 H :    0.057265
Sum of atomic charges:   -0.0000000

LOEWDIN ATOMIC CHARGES
----------------------
   0 S :    0.398705
   1 C :   -0.194832
   2 C :   -0.063848
   3 C :   -0.068774
   4 C :   -0.188436
   5 H :    0.032140
   6 C :   -0.027723
   7 H :    0.032274
   8 H :    0.023418
   9 C :   -0.028271
  10 H :    0.026482
  11 H :    0.015290
  12 C :   -0.064183
  13 H :    0.015938
  14 H :    0.024248
  15 H :    0.024510
  16 S :    0.367954
  17 C :   -0.163773
  18 C :   -0.060337
  19 C :   -0.048077
  20 C :   -0.184987
  21 H :    0.028027
  22 C :   -0.025507
  23 H :    0.033273
  24 H :    0.021291
  25 C :   -0.048016
  26 H :    0.031323
  27 H :    0.028832
  28 C :   -0.064039
  29 H :    0.028428
  30 H :    0.018661
  31 H :    0.025187
  32 H :    0.026524
  33 H :    0.028296

  Mayer bond orders larger than 0.100000
B(  0-S ,  1-C ) :   1.1221 B(  0-S ,  4-C ) :   1.1295 B(  1-C ,  2-C ) :   1.6601
B(  1-C , 32-H ) :   0.9684 B(  2-C ,  3-C ) :   1.1776 B(  2-C ,  6-C ) :   1.0189
B(  3-C ,  4-C ) :   1.6468 B(  3-C ,  5-H ) :   0.9806 B(  4-C , 20-C ) :   1.0386
B(  6-C ,  7-H ) :   0.9446 B(  6-C ,  8-H ) :   0.9476 B(  6-C ,  9-C ) :   1.0709
B(  9-C , 10-H ) :   0.9600 B(  9-C , 11-H ) :   0.9559 B(  9-C , 12-C ) :   1.0747
B( 12-C , 13-H ) :   0.9752 B( 12-C , 14-H ) :   0.9756 B( 12-C , 15-H ) :   0.9755
B( 16-S , 17-C ) :   1.1119 B( 16-S , 20-C ) :   1.1317 B( 17-C , 18-C ) :   1.6945
B( 17-C , 33-H ) :   0.9631 B( 18-C , 19-C ) :   1.1625 B( 18-C , 21-H ) :   0.9890
B( 19-C , 20-C ) :   1.6283 B( 19-C , 22-C ) :   1.0584 B( 22-C , 23-H ) :   0.9373
B( 22-C , 24-H ) :   0.9266 B( 22-C , 25-C ) :   1.0506 B( 25-C , 26-H ) :   0.9482
B( 25-C , 27-H ) :   0.9575 B( 25-C , 28-C ) :   1.0871 B( 28-C , 29-H ) :   0.9713
B( 28-C , 30-H ) :   0.9680 B( 28-C , 31-H ) :   0.9731

Dispersion correction           -0.015252324
FINAL SINGLE POINT ENERGY     -1339.858545620292

DIPOLE MOMENT
-------------
                                X             Y             Z
Electronic contribution:     18.86161       9.74636     -21.33303
Nuclear contribution   :    -19.24447      -9.80665      21.79047
                        -----------------------------------------
Total Dipole Moment    :     -0.38286      -0.06029       0.45744
                        -----------------------------------------
Magnitude (a.u.)       :      0.59955
Magnitude (Debye)      :      1.52394

Rotational constants in cm-1:     0.018055     0.009873     0.007467
Rotational constants in MHz :   541.271140   295.990107   223.867492

                             ****ORCA TERMINATED NORMALLY****
TOTAL RUN TIME: 0 days 0 hours 0 minutes 22 seconds 631 msec
