                         Program Version 4.2.1 -  RELEASE  -
|  1> ! wB97X-D3 SP def2-SVP
|  2> %pal
|  3> nprocs 24
|  4> end
|  5>
|  6> * xyz 0 1
|  7> S 	 -110.431 	 18.2286 	 -121.386
|  8> C 	 -111.874 	 17.2735 	 -121.051
|  9> C 	 -112.405 	 16.6933 	 -122.189
| 10> C 	 -111.486 	 16.9148 	 -123.262
| 11> C 	 -110.374 	 17.6894 	 -123.014
| 12> H 	 -111.587 	 16.4106 	 -124.214
| 13> C 	 -113.538 	 15.7742 	 -122.284
| 14> H 	 -113.268 	 15.0772 	 -123.044
| 15> H 	 -114.39 	 16.3377 	 -122.698
| 16> C 	 -114.034 	 15.1151 	 -120.994
| 17> H 	 -114.468 	 15.8111 	 -120.305
| 18> H 	 -114.761 	 14.4145 	 -121.413
| 19> C 	 -112.881 	 14.2449 	 -120.321
| 20> H 	 -112.673 	 13.4023 	 -120.954
| 21> H 	 -111.958 	 14.7839 	 -120.044
| 22> H 	 -113.13 	 13.8372 	 -119.288
| 23> S 	 -107.637 	 18.1178 	 -123.088
| 24> C 	 -106.927 	 18.5752 	 -124.531
| 25> C 	 -107.76 	 18.4414 	 -125.568
| 26> C 	 -109.112 	 18.1821 	 -125.242
| 27> C 	 -109.192 	 17.9653 	 -123.869
| 28> H 	 -107.362 	 18.7172 	 -126.501
| 29> C 	 -110.163 	 17.9448 	 -126.284
| 30> H 	 -110.191 	 18.8438 	 -126.889
| 31> H 	 -111.254 	 17.8689 	 -125.874
| 32> C 	 -109.906 	 16.7359 	 -127.116
| 33> H 	 -109.621 	 15.8769 	 -126.534
| 34> H 	 -108.954 	 16.9303 	 -127.63
| 35> C 	 -110.913 	 16.4073 	 -128.215
| 36> H 	 -111.846 	 15.9723 	 -127.801
| 37> H 	 -110.405 	 15.7352 	 -128.932
| 38> H 	 -111.282 	 17.2898 	 -128.803
| 39> H 	 -112.268 	 17.2758 	 -120.104
| 40> H 	 -105.885 	 18.8711 	 -124.673
| 41> *
| 42>
| 43>                          ****END OF INPUT****

CARTESIAN COORDINATES (ANGSTROEM)
---------------------------------
  S    -110.431000   18.228600  -121.386000
  C    -111.874000   17.273500  -121.051000
  C    -112.405000   16.693300  -122.189000
  C    -111.486000   16.914800  -123.262000
  C    -110.374000   17.689400  -123.014000
  H    -111.587000   16.410600  -124.214000
  C    -113.538000   15.774200  -122.284000
  H    -113.268000   15.077200  -123.044000
  H    -114.390000   16.337700  -122.698000
  C    -114.034000   15.115100  -120.994000
  H    -114.468000   15.811100  -120.305000
  H    -114.761000   14.414500  -121.413000
  C    -112.881000   14.244900  -120.321000
  H    -112.673000   13.402300  -120.954000
  H    -111.958000   14.783900  -120.044000
  H    -113.130000   13.837200  -119.288000
  S    -107.637000   18.117800  -123.088000
  C    -106.927000   18.575200  -124.531000
  C    -107.760000   18.441400  -125.568000
  C    -109.112000   18.182100  -125.242000
  C    -109.192000   17.965300  -123.869000
  H    -107.362000   18.717200  -126.501000
  C    -110.163000   17.944800  -126.284000
  H    -110.191000   18.843800  -126.889000
  H    -111.254000   17.868900  -125.874000
  C    -109.906000   16.735900  -127.116000
  H    -109.621000   15.876900  -126.534000
  H    -108.954000   16.930300  -127.630000
  C    -110.913000   16.407300  -128.215000
  H    -111.846000   15.972300  -127.801000
  H    -110.405000   15.735200  -128.932000
  H    -111.282000   17.289800  -128.803000
  H    -112.268000   17.275800  -120.104000
  H    -105.885000   18.871100  -124.673000

 Total Charge           Charge          ....    0
 Multiplicity           Mult            ....    1
 Number of Electrons    NEL             ....  134
 Basis Dimension        Dim             ....  322

ORBITAL ENERGIES
----------------

  NO   OCC          E(Eh)            E(eV)
   0   2.0000     -88.964239     -2420.8400
   1   2.0000     -88.960437     -2420.7366
   2   2.0000     -10.326941      -281.0103
   3   2.0000     -10.324757      -280.9509
   4   2.0000     -10.305773      -280.4343
   5   2.0000     -10.305196      -280.4186
   6   2.0000     -10.301131      -280.3080
   7   2.0000     -10.296135      -280.1721
   8   2.0000     -10.295229      -280.1474
   9   2.0000     -10.294063      -280.1157
  10   2.0000     -10.289563      -279.9933
  11   2.0000     -10.287349      -279.9330
  12   2.0000     -10.286835      -279.9190
  13   2.0000     -10.283253      -279.8215
  14   2.0000     -10.282457      -279.7999
  15   2.0000     -10.281004      -279.7603
  16   2.0000      -8.080700      -219.8870
  17   2.0000      -8.075791      -219.7535
  18   2.0000      -6.039063      -164.3313
  19   2.0000      -6.034971      -164.2199
  20   2.0000      -6.034236      -164.1999
  21   2.0000      -6.031501      -164.1255
  22   2.0000      -6.030208      -164.0903
  23   2.0000      -6.026599      -163.9921
  24   2.0000      -1.014967       -27.6186
  25   2.0000      -0.991665       -26.9846
  26   2.0000      -0.918630       -24.9972
  27   2.0000      -0.917630       -24.9700
  28   2.0000      -0.864653       -23.5284
  29   2.0000      -0.856188       -23.2981
  30   2.0000      -0.843040       -22.9403
  31   2.0000      -0.812093       -22.0982
  32   2.0000      -0.786222       -21.3942
  33   2.0000      -0.778220       -21.1765
  34   2.0000      -0.712324       -19.3833
  35   2.0000      -0.703206       -19.1352
  36   2.0000      -0.694155       -18.8889
  37   2.0000      -0.660862       -17.9830
  38   2.0000      -0.639856       -17.4114
  39   2.0000      -0.617123       -16.7928
  40   2.0000      -0.600778       -16.3480
  41   2.0000      -0.583546       -15.8791
  42   2.0000      -0.562335       -15.3019
  43   2.0000      -0.555849       -15.1254
  44   2.0000      -0.531543       -14.4640
  45   2.0000      -0.529039       -14.3959
  46   2.0000      -0.519685       -14.1413
  47   2.0000      -0.517050       -14.0696
  48   2.0000      -0.503566       -13.7027
  49   2.0000      -0.494838       -13.4652
  50   2.0000      -0.489567       -13.3218
  51   2.0000      -0.483180       -13.1480
  52   2.0000      -0.469050       -12.7635
  53   2.0000      -0.464473       -12.6390
  54   2.0000      -0.461585       -12.5604
  55   2.0000      -0.452024       -12.3002
  56   2.0000      -0.447190       -12.1687
  57   2.0000      -0.441228       -12.0064
  58   2.0000      -0.435604       -11.8534
  59   2.0000      -0.428465       -11.6591
  60   2.0000      -0.420113       -11.4319
  61   2.0000      -0.417489       -11.3605
  62   2.0000      -0.403165       -10.9707
  63   2.0000      -0.352274        -9.5859
  64   2.0000      -0.333445        -9.0735
  65   2.0000      -0.325561        -8.8590
  66   2.0000      -0.286666        -7.8006
  67   0.0000       0.031158         0.8478
  68   0.0000       0.088166         2.3991
  69   0.0000       0.112482         3.0608
  70   0.0000       0.123743         3.3672
  71   0.0000       0.131338         3.5739

MULLIKEN ATOMIC CHARGES
-----------------------
   0 S :    0.096692
   1 C :   -0.120838
   2 C :   -0.058748
   3 C :   -0.019215
   4 C :   -0.113621
   5 H :    0.000737
   6 C :    0.076154
   7 H :    0.016490
   8 H :    0.043226
   9 C :   -0.058454
  10 H :    0.038854
  11 H :    0.038571
  12 C :   -0.091124
  13 H :    0.033722
  14 H :    0.047636
  15 H :    0.032919
  16 S :    0.121276
  17 C :   -0.089730
  18 C :   -0.029650
  19 C :   -0.016910
  20 C :   -0.153238
  21 H :   -0.005188
  22 C :    0.051753
  23 H :    0.021820
  24 H :    0.034297
  25 C :   -0.079026
  26 H :    0.028521
  27 H :    0.016266
  28 C :   -0.048556
  29 H :    0.035616
  30 H :    0.043857
  31 H :    0.032923
  32 H :    0.016141
  33 H :    0.056827
Sum of atomic charges:   -0.0000000

LOEWDIN ATOMIC CHARGES
----------------------
   0 S :    0.407312
   1 C :   -0.180520
   2 C :   -0.059286
   3 C :   -0.072027
   4 C :   -0.199814
   5 H :    0.023606
   6 C :   -0.035300
   7 H :    0.029525
   8 H :    0.042622
   9 C :   -0.032375
  10 H :    0.021795
  11 H :    0.033518
  12 C :   -0.076380
  13 H :    0.022337
  14 H :    0.027937
  15 H :    0.030244
  16 S :    0.434640
  17 C :   -0.207899
  18 C :   -0.073457
  19 C :   -0.052242
  20 C :   -0.194242
  21 H :    0.022263
  22 C :   -0.038456
  23 H :    0.030419
  24 H :    0.036865
  25 C :   -0.050304
  26 H :    0.025589
  27 H :    0.024999
  28 C :   -0.069193
  29 H :    0.024982
  30 H :    0.032683
  31 H :    0.029841
  32 H :    0.004698
  33 H :    0.035622

  Mayer bond orders larger than 0.100000
B(  0-S ,  1-C ) :   1.1407 B(  0-S ,  4-C ) :   1.1548 B(  1-C ,  2-C ) :   1.5875
B(  1-C , 32-H ) :   0.9752 B(  2-C ,  3-C ) :   1.2503 B(  2-C ,  6-C ) :   1.0274
B(  3-C ,  4-C ) :   1.5803 B(  3-C ,  5-H ) :   0.9881 B(  4-C , 20-C ) :   1.0360
B(  6-C ,  7-H ) :   0.9395 B(  6-C ,  8-H ) :   0.9129 B(  6-C ,  9-C ) :   1.0862
B(  9-C , 10-H ) :   0.9544 B(  9-C , 11-H ) :   0.9556 B(  9-C , 12-C ) :   1.0665
B( 12-C , 13-H ) :   0.9779 B( 12-C , 14-H ) :   0.9760 B( 12-C , 15-H ) :   0.9760
B( 16-S , 17-C ) :   1.1606 B( 16-S , 20-C ) :   1.1566 B( 17-C , 18-C ) :   1.6247
B( 17-C , 33-H ) :   0.9618 B( 18-C , 19-C ) :   1.2327 B( 18-C , 21-H ) :   0.9929
B( 19-C , 20-C ) :   1.5824 B( 19-C , 22-C ) :   1.0508 B( 22-C , 23-H ) :   0.9176
B( 22-C , 24-H ) :   0.9366 B( 22-C , 25-C ) :   1.0691 B( 25-C , 26-H ) :   0.9520
B( 25-C , 27-H ) :   0.9457 B( 25-C , 28-C ) :   1.0817 B( 28-C , 29-H ) :   0.9742
B( 28-C , 30-H ) :   0.9740 B( 28-C , 31-H ) :   0.9722

Dispersion correction           -0.014095581
FINAL SINGLE POINT ENERGY     -1339.878989098766

DIPOLE MOMENT
-------------
                                X             Y             Z
Electronic contribution:     17.43247      15.67998      12.08610
Nuclear contribution   :    -17.71515     -16.00779     -12.58344
                        -----------------------------------------
Total Dipole Moment    :     -0.28268      -0.32781      -0.49734
                        -----------------------------------------
Magnitude (a.u.)       :      0.65933
Magnitude (Debye)      :      1.67588

Rotational constants in cm-1:     0.018988     0.008645     0.006411
Rotational constants in MHz :   569.241543   259.155982   192.210581

                             ****ORCA TERMINATED NORMALLY****
TOTAL RUN TIME: 0 days 0 hours 0 minutes 21 seconds 560 msec
