                         Program Version 4.2.1 -  RELEASE  -
|  1> ! wB97X-D3 SP def2-SVP
|  2> %pal
|  3> nprocs 24
|  4> end
|  5>
|  6> * xyz 0 1
|  7> S 	 -37.9947 	 5.02855 	 3.77365
|  8> C 	 -37.2787 	 4.18703 	 2.40356
|  9> C 	 -36.2112 	 3.37505 	 2.73686
| 10> C 	 -36.1179 	 3.21925 	 4.11928
| 11> C 	 -36.8401 	 4.17022 	 4.8592
| 12> H 	 -35.4138 	 2.65207 	 4.64679
| 13> C 	 -35.3275 	 2.544 	 1.83394
| 14> H 	 -34.5898 	 1.9892 	 2.40356
| 15> H 	 -34.7942 	 3.21446 	 1.19395
| 16> C 	 -36.0438 	 1.61511 	 0.876817
| 17> H 	 -36.5036 	 0.896638 	 1.58229
| 18> H 	 -36.8573 	 2.07987 	 0.367042
| 19> C 	 -35.1274 	 0.886257 	 -0.108652
| 20> H 	 -35.5056 	 -0.0977905 	 -0.456509
| 21> H 	 -35.0656 	 1.58227 	 -0.917219
| 22> H 	 -34.156 	 0.778203 	 0.320048
| 23> S 	 -34.9587 	 4.37635 	 6.85439
| 24> C 	 -35.4353 	 4.6106 	 8.55501
| 25> C 	 -36.823 	 4.70416 	 8.62363
| 26> C 	 -37.4996 	 4.62522 	 7.35567
| 27> C 	 -36.6733 	 4.31795 	 6.2857
| 28> H 	 -37.3112 	 4.85865 	 9.54735
| 29> C 	 -39.0453 	 4.73605 	 7.33919
| 30> H 	 -39.2725 	 4.09216 	 6.46971
| 31> H 	 -39.3365 	 5.76904 	 7.04922
| 32> C 	 -39.828 	 4.46479 	 8.54471
| 33> H 	 -40.8451 	 4.71199 	 8.4149
| 34> H 	 -39.4929 	 5.13297 	 9.31911
| 35> C 	 -39.7622 	 3.10922 	 9.05162
| 36> H 	 -39.9017 	 2.46613 	 8.20806
| 37> H 	 -40.424 	 2.84863 	 9.87516
| 38> H 	 -38.7632 	 2.78656 	 9.42057
| 39> H 	 -37.4224 	 4.3073 	 1.34964
| 40> H 	 -34.7262 	 4.63183 	 9.41116
| 41> *
| 42>
| 43>                          ****END OF INPUT****

CARTESIAN COORDINATES (ANGSTROEM)
---------------------------------
  S    -37.994700    5.028550    3.773650
  C    -37.278700    4.187030    2.403560
  C    -36.211200    3.375050    2.736860
  C    -36.117900    3.219250    4.119280
  C    -36.840100    4.170220    4.859200
  H    -35.413800    2.652070    4.646790
  C    -35.327500    2.544000    1.833940
  H    -34.589800    1.989200    2.403560
  H    -34.794200    3.214460    1.193950
  C    -36.043800    1.615110    0.876817
  H    -36.503600    0.896638    1.582290
  H    -36.857300    2.079870    0.367042
  C    -35.127400    0.886257   -0.108652
  H    -35.505600   -0.097791   -0.456509
  H    -35.065600    1.582270   -0.917219
  H    -34.156000    0.778203    0.320048
  S    -34.958700    4.376350    6.854390
  C    -35.435300    4.610600    8.555010
  C    -36.823000    4.704160    8.623630
  C    -37.499600    4.625220    7.355670
  C    -36.673300    4.317950    6.285700
  H    -37.311200    4.858650    9.547350
  C    -39.045300    4.736050    7.339190
  H    -39.272500    4.092160    6.469710
  H    -39.336500    5.769040    7.049220
  C    -39.828000    4.464790    8.544710
  H    -40.845100    4.711990    8.414900
  H    -39.492900    5.132970    9.319110
  C    -39.762200    3.109220    9.051620
  H    -39.901700    2.466130    8.208060
  H    -40.424000    2.848630    9.875160
  H    -38.763200    2.786560    9.420570
  H    -37.422400    4.307300    1.349640
  H    -34.726200    4.631830    9.411160

 Total Charge           Charge          ....    0
 Multiplicity           Mult            ....    1
 Number of Electrons    NEL             ....  134
 Basis Dimension        Dim             ....  322

ORBITAL ENERGIES
----------------

  NO   OCC          E(Eh)            E(eV)
   0   2.0000     -88.976748     -2421.1804
   1   2.0000     -88.963845     -2420.8293
   2   2.0000     -10.334556      -281.2176
   3   2.0000     -10.331765      -281.1416
   4   2.0000     -10.325998      -280.9847
   5   2.0000     -10.314060      -280.6599
   6   2.0000     -10.306817      -280.4628
   7   2.0000     -10.297595      -280.2118
   8   2.0000     -10.293892      -280.1110
   9   2.0000     -10.292110      -280.0626
  10   2.0000     -10.289280      -279.9855
  11   2.0000     -10.287900      -279.9480
  12   2.0000     -10.282002      -279.7875
  13   2.0000     -10.277246      -279.6581
  14   2.0000     -10.273428      -279.5542
  15   2.0000     -10.267030      -279.3801
  16   2.0000      -8.089497      -220.1264
  17   2.0000      -8.077220      -219.7923
  18   2.0000      -6.048191      -164.5796
  19   2.0000      -6.044323      -164.4744
  20   2.0000      -6.040144      -164.3607
  21   2.0000      -6.035966      -164.2470
  22   2.0000      -6.031916      -164.1368
  23   2.0000      -6.027788      -164.0245
  24   2.0000      -1.001026       -27.2393
  25   2.0000      -0.978627       -26.6298
  26   2.0000      -0.925012       -25.1709
  27   2.0000      -0.917122       -24.9561
  28   2.0000      -0.870671       -23.6922
  29   2.0000      -0.856609       -23.3095
  30   2.0000      -0.846279       -23.0284
  31   2.0000      -0.810344       -22.0506
  32   2.0000      -0.786917       -21.4131
  33   2.0000      -0.775884       -21.1129
  34   2.0000      -0.713958       -19.4278
  35   2.0000      -0.701029       -19.0760
  36   2.0000      -0.695621       -18.9288
  37   2.0000      -0.664824       -18.0908
  38   2.0000      -0.636813       -17.3286
  39   2.0000      -0.614621       -16.7247
  40   2.0000      -0.597739       -16.2653
  41   2.0000      -0.580611       -15.7992
  42   2.0000      -0.564939       -15.3728
  43   2.0000      -0.563540       -15.3347
  44   2.0000      -0.547560       -14.8999
  45   2.0000      -0.525489       -14.2993
  46   2.0000      -0.519749       -14.1431
  47   2.0000      -0.516219       -14.0470
  48   2.0000      -0.505030       -13.7426
  49   2.0000      -0.504422       -13.7260
  50   2.0000      -0.490268       -13.3409
  51   2.0000      -0.480678       -13.0799
  52   2.0000      -0.476018       -12.9531
  53   2.0000      -0.461312       -12.5529
  54   2.0000      -0.453736       -12.3468
  55   2.0000      -0.449803       -12.2398
  56   2.0000      -0.441859       -12.0236
  57   2.0000      -0.438735       -11.9386
  58   2.0000      -0.436820       -11.8865
  59   2.0000      -0.433215       -11.7884
  60   2.0000      -0.422174       -11.4879
  61   2.0000      -0.409795       -11.1511
  62   2.0000      -0.402722       -10.9586
  63   2.0000      -0.350720        -9.5436
  64   2.0000      -0.336010        -9.1433
  65   2.0000      -0.327863        -8.9216
  66   2.0000      -0.284894        -7.7524
  67   0.0000       0.017512         0.4765
  68   0.0000       0.069685         1.8962
  69   0.0000       0.102643         2.7931
  70   0.0000       0.111665         3.0386
  71   0.0000       0.124561         3.3895

MULLIKEN ATOMIC CHARGES
-----------------------
   0 S :    0.133217
   1 C :   -0.099084
   2 C :   -0.081591
   3 C :    0.013580
   4 C :   -0.135366
   5 H :   -0.003255
   6 C :    0.102411
   7 H :    0.019822
   8 H :    0.014581
   9 C :   -0.105644
  10 H :    0.024979
  11 H :    0.021360
  12 C :   -0.015905
  13 H :    0.046095
  14 H :    0.025321
  15 H :    0.023154
  16 S :    0.078189
  17 C :   -0.100137
  18 C :   -0.021272
  19 C :   -0.055552
  20 C :   -0.159083
  21 H :    0.006252
  22 C :    0.053512
  23 H :    0.027317
  24 H :    0.041807
  25 C :   -0.025418
  26 H :    0.018587
  27 H :    0.013480
  28 C :   -0.040467
  29 H :    0.016165
  30 H :    0.033953
  31 H :    0.021947
  32 H :    0.031758
  33 H :    0.075287
Sum of atomic charges:    0.0000000

LOEWDIN ATOMIC CHARGES
----------------------
   0 S :    0.395294
   1 C :   -0.194453
   2 C :   -0.058566
   3 C :   -0.052711
   4 C :   -0.181324
   5 H :    0.016828
   6 C :   -0.026151
   7 H :    0.029927
   8 H :    0.026397
   9 C :   -0.041910
  10 H :    0.023996
  11 H :    0.016015
  12 C :   -0.058515
  13 H :    0.033489
  14 H :    0.023793
  15 H :    0.021082
  16 S :    0.374586
  17 C :   -0.178190
  18 C :   -0.069872
  19 C :   -0.055912
  20 C :   -0.178260
  21 H :    0.023332
  22 C :   -0.032966
  23 H :    0.028864
  24 H :    0.039970
  25 C :   -0.050475
  26 H :    0.028445
  27 H :    0.022095
  28 C :   -0.066141
  29 H :    0.023401
  30 H :    0.026780
  31 H :    0.026241
  32 H :    0.025188
  33 H :    0.039723

  Mayer bond orders larger than 0.100000
B(  0-S ,  1-C ) :   1.1331 B(  0-S ,  4-C ) :   1.1177 B(  1-C ,  2-C ) :   1.6119
B(  1-C , 32-H ) :   0.9595 B(  2-C ,  3-C ) :   1.2581 B(  2-C ,  6-C ) :   1.0209
B(  3-C ,  4-C ) :   1.5398 B(  3-C ,  5-H ) :   0.9917 B(  4-C , 20-C ) :   1.1016
B(  6-C ,  7-H ) :   0.9423 B(  6-C ,  8-H ) :   0.9252 B(  6-C ,  9-C ) :   1.0650
B(  9-C , 10-H ) :   0.9564 B(  9-C , 11-H ) :   0.9622 B(  9-C , 12-C ) :   1.0697
B( 12-C , 13-H ) :   0.9748 B( 12-C , 14-H ) :   0.9762 B( 12-C , 15-H ) :   0.9749
B( 16-S , 17-C ) :   1.1430 B( 16-S , 20-C ) :   1.1136 B( 17-C , 18-C ) :   1.6029
B( 17-C , 33-H ) :   0.9618 B( 18-C , 19-C ) :   1.2401 B( 18-C , 21-H ) :   0.9877
B( 19-C , 20-C ) :   1.5947 B( 19-C , 22-C ) :   1.0115 B( 22-C , 23-H ) :   0.9352
B( 22-C , 24-H ) :   0.9255 B( 22-C , 25-C ) :   1.1085 B( 25-C , 26-H ) :   0.9368
B( 25-C , 27-H ) :   0.9314 B( 25-C , 28-C ) :   1.0977 B( 28-C , 29-H ) :   0.9679
B( 28-C , 30-H ) :   0.9709 B( 28-C , 31-H ) :   0.9663

Dispersion correction           -0.013698324
FINAL SINGLE POINT ENERGY     -1339.861969556068

DIPOLE MOMENT
-------------
                                X             Y             Z
Electronic contribution:      6.01056      13.54986       4.93948
Nuclear contribution   :     -6.08844     -13.73881      -4.93297
                        -----------------------------------------
Total Dipole Moment    :     -0.07788      -0.18895       0.00651
                        -----------------------------------------
Magnitude (a.u.)       :      0.20448
Magnitude (Debye)      :      0.51974

Rotational constants in cm-1:     0.024239     0.006686     0.005975
Rotational constants in MHz :   726.677498   200.454395   179.120576

                             ****ORCA TERMINATED NORMALLY****
TOTAL RUN TIME: 0 days 0 hours 0 minutes 21 seconds 141 msec
