                         Program Version 4.2.1 -  RELEASE  -
|  1> ! wB97X-D3 SP def2-SVP
|  2> %pal
|  3> nprocs 24
|  4> end
|  5>
|  6> * xyz 0 1
|  7> S 	 -37.1973 	 -10.4162 	 4.66212
|  8> C 	 -36.7488 	 -10.7125 	 6.34273
|  9> C 	 -36.6722 	 -9.54161 	 7.0688
| 10> C 	 -37.169 	 -8.44377 	 6.36573
| 11> C 	 -37.4976 	 -8.71613 	 5.03394
| 12> H 	 -37.2094 	 -7.46971 	 6.68286
| 13> C 	 -36.2626 	 -9.49612 	 8.48525
| 14> H 	 -35.9672 	 -10.4906 	 8.86585
| 15> H 	 -37.0609 	 -9.231 	 9.14645
| 16> C 	 -35.0505 	 -8.66611 	 8.9377
| 17> H 	 -35.1448 	 -7.62356 	 8.55497
| 18> H 	 -35.057 	 -8.62482 	 10.016
| 19> C 	 -33.7095 	 -9.28997 	 8.50787
| 20> H 	 -32.958 	 -8.50837 	 8.5559
| 21> H 	 -33.4197 	 -10.1363 	 9.16054
| 22> H 	 -33.7846 	 -9.41723 	 7.43461
| 23> S 	 -37.5569 	 -8.20027 	 2.29697
| 24> C 	 -38.4847 	 -6.81651 	 1.76151
| 25> C 	 -38.905 	 -6.05354 	 2.83754
| 26> C 	 -38.6417 	 -6.61694 	 4.11625
| 27> C 	 -37.8772 	 -7.76766 	 4.0056
| 28> H 	 -39.5475 	 -5.15725 	 2.71368
| 29> C 	 -39.1637 	 -5.98526 	 5.29543
| 30> H 	 -39.5082 	 -6.85171 	 5.94058
| 31> H 	 -40.1851 	 -5.62195 	 5.0379
| 32> C 	 -38.2373 	 -4.9584 	 5.94341
| 33> H 	 -38.3108 	 -4.0488 	 5.32709
| 34> H 	 -37.1854 	 -5.30232 	 5.89211
| 35> C 	 -38.6326 	 -4.56948 	 7.43337
| 36> H 	 -38.2237 	 -3.64558 	 7.8428
| 37> H 	 -38.2999 	 -5.42058 	 8.07904
| 38> H 	 -39.6895 	 -4.43975 	 7.5073
| 39> H 	 -36.5324 	 -11.6705 	 6.83801
| 40> H 	 -38.8151 	 -6.64363 	 0.739675
| 41> *
| 42>
| 43>                          ****END OF INPUT****

CARTESIAN COORDINATES (ANGSTROEM)
---------------------------------
  S    -37.197300  -10.416200    4.662120
  C    -36.748800  -10.712500    6.342730
  C    -36.672200   -9.541610    7.068800
  C    -37.169000   -8.443770    6.365730
  C    -37.497600   -8.716130    5.033940
  H    -37.209400   -7.469710    6.682860
  C    -36.262600   -9.496120    8.485250
  H    -35.967200  -10.490600    8.865850
  H    -37.060900   -9.231000    9.146450
  C    -35.050500   -8.666110    8.937700
  H    -35.144800   -7.623560    8.554970
  H    -35.057000   -8.624820   10.016000
  C    -33.709500   -9.289970    8.507870
  H    -32.958000   -8.508370    8.555900
  H    -33.419700  -10.136300    9.160540
  H    -33.784600   -9.417230    7.434610
  S    -37.556900   -8.200270    2.296970
  C    -38.484700   -6.816510    1.761510
  C    -38.905000   -6.053540    2.837540
  C    -38.641700   -6.616940    4.116250
  C    -37.877200   -7.767660    4.005600
  H    -39.547500   -5.157250    2.713680
  C    -39.163700   -5.985260    5.295430
  H    -39.508200   -6.851710    5.940580
  H    -40.185100   -5.621950    5.037900
  C    -38.237300   -4.958400    5.943410
  H    -38.310800   -4.048800    5.327090
  H    -37.185400   -5.302320    5.892110
  C    -38.632600   -4.569480    7.433370
  H    -38.223700   -3.645580    7.842800
  H    -38.299900   -5.420580    8.079040
  H    -39.689500   -4.439750    7.507300
  H    -36.532400  -11.670500    6.838010
  H    -38.815100   -6.643630    0.739675

 Total Charge           Charge          ....    0
 Multiplicity           Mult            ....    1
 Number of Electrons    NEL             ....  134
 Basis Dimension        Dim             ....  322

ORBITAL ENERGIES
----------------

  NO   OCC          E(Eh)            E(eV)
   0   2.0000     -88.969874     -2420.9934
   1   2.0000     -88.968099     -2420.9451
   2   2.0000     -10.332491      -281.1614
   3   2.0000     -10.329558      -281.0816
   4   2.0000     -10.318701      -280.7861
   5   2.0000     -10.315257      -280.6924
   6   2.0000     -10.299215      -280.2559
   7   2.0000     -10.297410      -280.2068
   8   2.0000     -10.296626      -280.1855
   9   2.0000     -10.294509      -280.1278
  10   2.0000     -10.294337      -280.1231
  11   2.0000     -10.287300      -279.9317
  12   2.0000     -10.286657      -279.9142
  13   2.0000     -10.285964      -279.8953
  14   2.0000     -10.285878      -279.8930
  15   2.0000     -10.275374      -279.6072
  16   2.0000      -8.083832      -219.9723
  17   2.0000      -8.082169      -219.9270
  18   2.0000      -6.042362      -164.4210
  19   2.0000      -6.040815      -164.3789
  20   2.0000      -6.038538      -164.3170
  21   2.0000      -6.036851      -164.2711
  22   2.0000      -6.034529      -164.2079
  23   2.0000      -6.032768      -164.1600
  24   2.0000      -1.007336       -27.4110
  25   2.0000      -0.984787       -26.7974
  26   2.0000      -0.915896       -24.9228
  27   2.0000      -0.913219       -24.8500
  28   2.0000      -0.868673       -23.6378
  29   2.0000      -0.854302       -23.2467
  30   2.0000      -0.847474       -23.0609
  31   2.0000      -0.813695       -22.1418
  32   2.0000      -0.784811       -21.3558
  33   2.0000      -0.773320       -21.0431
  34   2.0000      -0.713969       -19.4281
  35   2.0000      -0.701309       -19.0836
  36   2.0000      -0.692116       -18.8334
  37   2.0000      -0.664160       -18.0727
  38   2.0000      -0.640334       -17.4244
  39   2.0000      -0.625545       -17.0219
  40   2.0000      -0.597295       -16.2532
  41   2.0000      -0.569372       -15.4934
  42   2.0000      -0.561771       -15.2866
  43   2.0000      -0.550149       -14.9703
  44   2.0000      -0.546631       -14.8746
  45   2.0000      -0.528714       -14.3870
  46   2.0000      -0.518450       -14.1078
  47   2.0000      -0.514552       -14.0017
  48   2.0000      -0.503991       -13.7143
  49   2.0000      -0.499528       -13.5928
  50   2.0000      -0.491489       -13.3741
  51   2.0000      -0.478747       -13.0274
  52   2.0000      -0.469093       -12.7647
  53   2.0000      -0.464456       -12.6385
  54   2.0000      -0.456862       -12.4319
  55   2.0000      -0.453187       -12.3319
  56   2.0000      -0.445377       -12.1193
  57   2.0000      -0.442480       -12.0405
  58   2.0000      -0.432306       -11.7636
  59   2.0000      -0.426402       -11.6030
  60   2.0000      -0.425807       -11.5868
  61   2.0000      -0.411065       -11.1857
  62   2.0000      -0.409655       -11.1473
  63   2.0000      -0.356920        -9.7123
  64   2.0000      -0.336099        -9.1457
  65   2.0000      -0.332566        -9.0496
  66   2.0000      -0.279713        -7.6114
  67   0.0000       0.017014         0.4630
  68   0.0000       0.076279         2.0757
  69   0.0000       0.100062         2.7228
  70   0.0000       0.122084         3.3221
  71   0.0000       0.127493         3.4693

MULLIKEN ATOMIC CHARGES
-----------------------
   0 S :    0.107462
   1 C :   -0.117150
   2 C :   -0.039955
   3 C :    0.055445
   4 C :   -0.128165
   5 H :   -0.060744
   6 C :    0.056861
   7 H :    0.000759
   8 H :    0.029067
   9 C :   -0.098422
  10 H :    0.028968
  11 H :    0.024121
  12 C :   -0.045270
  13 H :    0.022761
  14 H :    0.048649
  15 H :    0.036384
  16 S :    0.096072
  17 C :   -0.095948
  18 C :   -0.026311
  19 C :   -0.080350
  20 C :   -0.115924
  21 H :    0.025846
  22 C :    0.024270
  23 H :    0.035693
  24 H :    0.023414
  25 C :   -0.069964
  26 H :    0.032822
  27 H :    0.052742
  28 C :   -0.043472
  29 H :    0.038463
  30 H :    0.039850
  31 H :    0.027293
  32 H :    0.051126
  33 H :    0.063610
Sum of atomic charges:    0.0000000

LOEWDIN ATOMIC CHARGES
----------------------
   0 S :    0.394464
   1 C :   -0.192537
   2 C :   -0.066607
   3 C :   -0.053902
   4 C :   -0.175374
   5 H :    0.013765
   6 C :   -0.038236
   7 H :    0.029567
   8 H :    0.030133
   9 C :   -0.039644
  10 H :    0.021684
  11 H :    0.021394
  12 C :   -0.069519
  13 H :    0.025464
  14 H :    0.030761
  15 H :    0.028608
  16 S :    0.383739
  17 C :   -0.186546
  18 C :   -0.071368
  19 C :   -0.063503
  20 C :   -0.180460
  21 H :    0.035277
  22 C :   -0.050826
  23 H :    0.040052
  24 H :    0.035837
  25 C :   -0.038233
  26 H :    0.028693
  27 H :    0.028223
  28 C :   -0.065890
  29 H :    0.026790
  30 H :    0.029026
  31 H :    0.021289
  32 H :    0.034779
  33 H :    0.033101

  Mayer bond orders larger than 0.100000
B(  0-S ,  1-C ) :   1.1298 B(  0-S ,  4-C ) :   1.1407 B(  1-C ,  2-C ) :   1.5949
B(  1-C , 32-H ) :   0.9605 B(  2-C ,  3-C ) :   1.2482 B(  2-C ,  6-C ) :   1.0414
B(  3-C ,  4-C ) :   1.5309 B(  3-C ,  5-H ) :   1.0115 B(  4-C , 20-C ) :   1.0986
B(  6-C ,  7-H ) :   0.9342 B(  6-C ,  8-H ) :   0.9371 B(  6-C ,  9-C ) :   1.0712
B(  9-C , 10-H ) :   0.9585 B(  9-C , 11-H ) :   0.9544 B(  9-C , 12-C ) :   1.0798
B( 12-C , 13-H ) :   0.9720 B( 12-C , 14-H ) :   0.9732 B( 12-C , 15-H ) :   0.9765
B( 16-S , 17-C ) :   1.1452 B( 16-S , 20-C ) :   1.1156 B( 17-C , 18-C ) :   1.6060
B( 17-C , 33-H ) :   0.9663 B( 18-C , 19-C ) :   1.2569 B( 18-C , 21-H ) :   0.9801
B( 19-C , 20-C ) :   1.5754 B( 19-C , 22-C ) :   1.0676 B( 22-C , 23-H ) :   0.9258
B( 22-C , 24-H ) :   0.9191 B( 22-C , 25-C ) :   1.0328 B( 25-C , 26-H ) :   0.9502
B( 25-C , 27-H ) :   0.9615 B( 25-C , 28-C ) :   1.0682 B( 28-C , 29-H ) :   0.9772
B( 28-C , 30-H ) :   0.9790 B( 28-C , 31-H ) :   0.9747

Dispersion correction           -0.014593709
FINAL SINGLE POINT ENERGY     -1339.878872791801

DIPOLE MOMENT
-------------
                                X             Y             Z
Electronic contribution:     -5.14295     -13.63827     -26.19700
Nuclear contribution   :      4.94240      14.11069      26.73117
                        -----------------------------------------
Total Dipole Moment    :     -0.20054       0.47242       0.53417
                        -----------------------------------------
Magnitude (a.u.)       :      0.74077
Magnitude (Debye)      :      1.88288

Rotational constants in cm-1:     0.017687     0.009679     0.006899
Rotational constants in MHz :   530.233611   290.162116   206.836029

                             ****ORCA TERMINATED NORMALLY****
TOTAL RUN TIME: 0 days 0 hours 0 minutes 21 seconds 16 msec
