                         Program Version 4.2.1 -  RELEASE  -
|  1> ! wB97X-D3 SP def2-SVP
|  2> %pal
|  3> nprocs 24
|  4> end
|  5>
|  6> * xyz 0 1
|  7> S 	 -52.7019 	 16.821 	 25.0573
|  8> C 	 -51.3866 	 16.2196 	 24.1243
|  9> C 	 -50.1754 	 16.2554 	 24.7629
| 10> C 	 -50.3198 	 16.7335 	 26.1176
| 11> C 	 -51.5701 	 17.1898 	 26.4159
| 12> H 	 -49.5609 	 16.8486 	 26.8705
| 13> C 	 -48.879 	 15.9127 	 24.0727
| 14> H 	 -49.0865 	 15.6915 	 22.9877
| 15> H 	 -48.4661 	 15.017 	 24.5642
| 16> C 	 -47.804 	 17.0367 	 23.9639
| 17> H 	 -47.2663 	 17.1605 	 24.939
| 18> H 	 -47.0835 	 16.7351 	 23.2615
| 19> C 	 -48.2661 	 18.4556 	 23.4948
| 20> H 	 -48.7665 	 18.9258 	 24.3559
| 21> H 	 -47.4054 	 19.1394 	 23.3777
| 22> H 	 -48.9574 	 18.3552 	 22.6368
| 23> S 	 -52.1389 	 19.6601 	 27.3393
| 24> C 	 -52.8339 	 19.8537 	 28.9033
| 25> C 	 -52.5585 	 18.705 	 29.6559
| 26> C 	 -52.0667 	 17.6073 	 28.9473
| 27> C 	 -51.9198 	 17.9508 	 27.6038
| 28> H 	 -52.761 	 18.8144 	 30.712
| 29> C 	 -51.576 	 16.283 	 29.511
| 30> H 	 -51.2424 	 15.5671 	 28.798
| 31> H 	 -52.4826 	 15.8093 	 29.9014
| 32> C 	 -50.5729 	 16.3284 	 30.6879
| 33> H 	 -50.3384 	 15.3094 	 31.073
| 34> H 	 -50.9879 	 16.9103 	 31.4952
| 35> C 	 -49.1923 	 17.0508 	 30.333
| 36> H 	 -49.378 	 18.1119 	 30.3773
| 37> H 	 -48.7556 	 16.8397 	 29.3488
| 38> H 	 -48.4615 	 16.7507 	 31.0448
| 39> H 	 -51.4515 	 15.836 	 23.0512
| 40> H 	 -53.2713 	 20.7388 	 29.2786
| 41> *
| 42>
| 43>                          ****END OF INPUT****

CARTESIAN COORDINATES (ANGSTROEM)
---------------------------------
  S    -52.701900   16.821000   25.057300
  C    -51.386600   16.219600   24.124300
  C    -50.175400   16.255400   24.762900
  C    -50.319800   16.733500   26.117600
  C    -51.570100   17.189800   26.415900
  H    -49.560900   16.848600   26.870500
  C    -48.879000   15.912700   24.072700
  H    -49.086500   15.691500   22.987700
  H    -48.466100   15.017000   24.564200
  C    -47.804000   17.036700   23.963900
  H    -47.266300   17.160500   24.939000
  H    -47.083500   16.735100   23.261500
  C    -48.266100   18.455600   23.494800
  H    -48.766500   18.925800   24.355900
  H    -47.405400   19.139400   23.377700
  H    -48.957400   18.355200   22.636800
  S    -52.138900   19.660100   27.339300
  C    -52.833900   19.853700   28.903300
  C    -52.558500   18.705000   29.655900
  C    -52.066700   17.607300   28.947300
  C    -51.919800   17.950800   27.603800
  H    -52.761000   18.814400   30.712000
  C    -51.576000   16.283000   29.511000
  H    -51.242400   15.567100   28.798000
  H    -52.482600   15.809300   29.901400
  C    -50.572900   16.328400   30.687900
  H    -50.338400   15.309400   31.073000
  H    -50.987900   16.910300   31.495200
  C    -49.192300   17.050800   30.333000
  H    -49.378000   18.111900   30.377300
  H    -48.755600   16.839700   29.348800
  H    -48.461500   16.750700   31.044800
  H    -51.451500   15.836000   23.051200
  H    -53.271300   20.738800   29.278600

 Total Charge           Charge          ....    0
 Multiplicity           Mult            ....    1
 Number of Electrons    NEL             ....  134
 Basis Dimension        Dim             ....  322

ORBITAL ENERGIES
----------------

  NO   OCC          E(Eh)            E(eV)
   0   2.0000     -88.964680     -2420.8520
   1   2.0000     -88.963874     -2420.8301
   2   2.0000     -10.327383      -281.0224
   3   2.0000     -10.322049      -280.8772
   4   2.0000     -10.315131      -280.6890
   5   2.0000     -10.313609      -280.6476
   6   2.0000     -10.304832      -280.4087
   7   2.0000     -10.299063      -280.2517
   8   2.0000     -10.298524      -280.2371
   9   2.0000     -10.294576      -280.1297
  10   2.0000     -10.294429      -280.1257
  11   2.0000     -10.292676      -280.0780
  12   2.0000     -10.290719      -280.0247
  13   2.0000     -10.286960      -279.9224
  14   2.0000     -10.280473      -279.7459
  15   2.0000     -10.275673      -279.6153
  16   2.0000      -8.079327      -219.8497
  17   2.0000      -8.079135      -219.8444
  18   2.0000      -6.037722      -164.2948
  19   2.0000      -6.037580      -164.2909
  20   2.0000      -6.033798      -164.1880
  21   2.0000      -6.033772      -164.1873
  22   2.0000      -6.030230      -164.0909
  23   2.0000      -6.029724      -164.0771
  24   2.0000      -1.008040       -27.4302
  25   2.0000      -0.985449       -26.8154
  26   2.0000      -0.904355       -24.6088
  27   2.0000      -0.903863       -24.5954
  28   2.0000      -0.869196       -23.6520
  29   2.0000      -0.846995       -23.0479
  30   2.0000      -0.843108       -22.9421
  31   2.0000      -0.813812       -22.1450
  32   2.0000      -0.785914       -21.3858
  33   2.0000      -0.771218       -20.9859
  34   2.0000      -0.707118       -19.2417
  35   2.0000      -0.698813       -19.0157
  36   2.0000      -0.687676       -18.7126
  37   2.0000      -0.655428       -17.8351
  38   2.0000      -0.638590       -17.3769
  39   2.0000      -0.618537       -16.8312
  40   2.0000      -0.600776       -16.3479
  41   2.0000      -0.560869       -15.2620
  42   2.0000      -0.556296       -15.1376
  43   2.0000      -0.546908       -14.8821
  44   2.0000      -0.540628       -14.7112
  45   2.0000      -0.538869       -14.6634
  46   2.0000      -0.523252       -14.2384
  47   2.0000      -0.507581       -13.8120
  48   2.0000      -0.494862       -13.4659
  49   2.0000      -0.492117       -13.3912
  50   2.0000      -0.486373       -13.2349
  51   2.0000      -0.479946       -13.0600
  52   2.0000      -0.475921       -12.9505
  53   2.0000      -0.464613       -12.6428
  54   2.0000      -0.462526       -12.5860
  55   2.0000      -0.445916       -12.1340
  56   2.0000      -0.439549       -11.9607
  57   2.0000      -0.437550       -11.9063
  58   2.0000      -0.430299       -11.7090
  59   2.0000      -0.427600       -11.6356
  60   2.0000      -0.417142       -11.3510
  61   2.0000      -0.415616       -11.3095
  62   2.0000      -0.413294       -11.2463
  63   2.0000      -0.339283        -9.2324
  64   2.0000      -0.330042        -8.9809
  65   2.0000      -0.319133        -8.6841
  66   2.0000      -0.301510        -8.2045
  67   0.0000       0.033729         0.9178
  68   0.0000       0.061540         1.6746
  69   0.0000       0.107696         2.9306
  70   0.0000       0.121781         3.3138
  71   0.0000       0.133789         3.6406

MULLIKEN ATOMIC CHARGES
-----------------------
   0 S :    0.121683
   1 C :   -0.144436
   2 C :   -0.081714
   3 C :    0.063634
   4 C :   -0.167305
   5 H :   -0.000101
   6 C :    0.058584
   7 H :    0.022088
   8 H :    0.045007
   9 C :   -0.095200
  10 H :    0.029672
  11 H :    0.024587
  12 C :   -0.060461
  13 H :    0.034918
  14 H :    0.039718
  15 H :    0.042767
  16 S :    0.128064
  17 C :   -0.090145
  18 C :   -0.069893
  19 C :    0.036410
  20 C :   -0.232395
  21 H :    0.015818
  22 C :    0.102622
  23 H :    0.020092
  24 H :    0.026301
  25 C :   -0.092804
  26 H :    0.039754
  27 H :    0.028922
  28 C :   -0.060315
  29 H :    0.041270
  30 H :    0.029281
  31 H :    0.029685
  32 H :    0.070632
  33 H :    0.043261
Sum of atomic charges:   -0.0000000

LOEWDIN ATOMIC CHARGES
----------------------
   0 S :    0.390464
   1 C :   -0.211126
   2 C :   -0.076097
   3 C :   -0.049000
   4 C :   -0.186735
   5 H :    0.028449
   6 C :   -0.033587
   7 H :    0.033683
   8 H :    0.036551
   9 C :   -0.044291
  10 H :    0.023355
  11 H :    0.016279
  12 C :   -0.070566
  13 H :    0.027976
  14 H :    0.031151
  15 H :    0.027839
  16 S :    0.429880
  17 C :   -0.188859
  18 C :   -0.074846
  19 C :   -0.054145
  20 C :   -0.203496
  21 H :    0.029358
  22 C :   -0.029744
  23 H :    0.027035
  24 H :    0.036300
  25 C :   -0.032618
  26 H :    0.028801
  27 H :    0.020267
  28 C :   -0.066964
  29 H :    0.026026
  30 H :    0.021501
  31 H :    0.021789
  32 H :    0.043904
  33 H :    0.021470

  Mayer bond orders larger than 0.100000
B(  0-S ,  1-C ) :   1.1386 B(  0-S ,  4-C ) :   1.1197 B(  1-C ,  2-C ) :   1.6495
B(  1-C , 32-H ) :   0.9477 B(  2-C ,  3-C ) :   1.1969 B(  2-C ,  6-C ) :   1.0307
B(  3-C ,  4-C ) :   1.6157 B(  3-C ,  5-H ) :   0.9968 B(  4-C , 20-C ) :   1.0403
B(  6-C ,  7-H ) :   0.9424 B(  6-C ,  8-H ) :   0.9375 B(  6-C ,  9-C ) :   1.0666
B(  9-C , 10-H ) :   0.9549 B(  9-C , 11-H ) :   0.9619 B(  9-C , 12-C ) :   1.0752
B( 12-C , 13-H ) :   0.9720 B( 12-C , 14-H ) :   0.9731 B( 12-C , 15-H ) :   0.9766
B( 16-S , 17-C ) :   1.1715 B( 16-S , 20-C ) :   1.1799 B( 17-C , 18-C ) :   1.5703
B( 17-C , 20-C ) :   0.1141 B( 17-C , 33-H ) :   0.9773 B( 18-C , 19-C ) :   1.2520
B( 18-C , 21-H ) :   0.9930 B( 19-C , 20-C ) :   1.5453 B( 19-C , 22-C ) :   1.0369
B( 22-C , 23-H ) :   0.9389 B( 22-C , 24-H ) :   0.9227 B( 22-C , 25-C ) :   1.0789
B( 25-C , 26-H ) :   0.9604 B( 25-C , 27-H ) :   0.9571 B( 25-C , 28-C ) :   1.0587
B( 28-C , 29-H ) :   0.9783 B( 28-C , 30-H ) :   0.9793 B( 28-C , 31-H ) :   0.9763

Dispersion correction           -0.015367086
FINAL SINGLE POINT ENERGY     -1339.875109786935

DIPOLE MOMENT
-------------
                                X             Y             Z
Electronic contribution:    -21.16250       5.93975      -4.53838
Nuclear contribution   :     21.65559      -6.08026       4.82629
                        -----------------------------------------
Total Dipole Moment    :      0.49308      -0.14051       0.28791
                        -----------------------------------------
Magnitude (a.u.)       :      0.58802
Magnitude (Debye)      :      1.49462

Rotational constants in cm-1:     0.018752     0.008905     0.007846
Rotational constants in MHz :   562.164225   266.967987   235.208804

                             ****ORCA TERMINATED NORMALLY****
TOTAL RUN TIME: 0 days 0 hours 0 minutes 23 seconds 70 msec
