                         Program Version 4.2.1 -  RELEASE  -
|  1> ! wB97X-D3 SP def2-SVP
|  2> %pal
|  3> nprocs 24
|  4> end
|  5>
|  6> * xyz 0 1
|  7> S 	 -124.87 	 64.8841 	 -38.1617
|  8> C 	 -123.527 	 65.4984 	 -37.3721
|  9> C 	 -123.471 	 66.8941 	 -37.4644
| 10> C 	 -124.653 	 67.4427 	 -38.1423
| 11> C 	 -125.522 	 66.478 	 -38.5747
| 12> H 	 -124.857 	 68.531 	 -38.3096
| 13> C 	 -122.343 	 67.7756 	 -37.102
| 14> H 	 -122.199 	 68.23 	 -38.0495
| 15> H 	 -121.449 	 67.1704 	 -36.9269
| 16> C 	 -122.584 	 68.7766 	 -35.9156
| 17> H 	 -121.751 	 69.4318 	 -35.7748
| 18> H 	 -123.535 	 69.2569 	 -36.1068
| 19> C 	 -122.626 	 68.0304 	 -34.6281
| 20> H 	 -121.757 	 67.346 	 -34.5958
| 21> H 	 -122.718 	 68.6911 	 -33.6977
| 22> H 	 -123.49 	 67.3891 	 -34.6236
| 23> S 	 -126.407 	 66.5782 	 -41.1852
| 24> C 	 -128.149 	 66.8353 	 -41.4542
| 25> C 	 -128.801 	 67.2648 	 -40.3142
| 26> C 	 -127.952 	 67.1907 	 -39.1675
| 27> C 	 -126.653 	 66.7302 	 -39.4675
| 28> H 	 -129.86 	 67.4524 	 -40.3897
| 29> C 	 -128.416 	 67.4899 	 -37.7346
| 30> H 	 -127.945 	 66.7125 	 -37.1393
| 31> H 	 -129.435 	 67.2289 	 -37.6881
| 32> C 	 -128.207 	 68.8592 	 -37.1486
| 33> H 	 -128.702 	 69.6553 	 -37.7334
| 34> H 	 -127.144 	 69.231 	 -37.2581
| 35> C 	 -128.705 	 69.0329 	 -35.7703
| 36> H 	 -127.927 	 68.6623 	 -35.1141
| 37> H 	 -129.573 	 68.4156 	 -35.5076
| 38> H 	 -129.062 	 70.0473 	 -35.4733
| 39> H 	 -122.755 	 64.841 	 -37.0123
| 40> H 	 -128.609 	 66.8727 	 -42.4442
| 41> *
| 42>
| 43>                          ****END OF INPUT****

CARTESIAN COORDINATES (ANGSTROEM)
---------------------------------
  S    -124.870000   64.884100  -38.161700
  C    -123.527000   65.498400  -37.372100
  C    -123.471000   66.894100  -37.464400
  C    -124.653000   67.442700  -38.142300
  C    -125.522000   66.478000  -38.574700
  H    -124.857000   68.531000  -38.309600
  C    -122.343000   67.775600  -37.102000
  H    -122.199000   68.230000  -38.049500
  H    -121.449000   67.170400  -36.926900
  C    -122.584000   68.776600  -35.915600
  H    -121.751000   69.431800  -35.774800
  H    -123.535000   69.256900  -36.106800
  C    -122.626000   68.030400  -34.628100
  H    -121.757000   67.346000  -34.595800
  H    -122.718000   68.691100  -33.697700
  H    -123.490000   67.389100  -34.623600
  S    -126.407000   66.578200  -41.185200
  C    -128.149000   66.835300  -41.454200
  C    -128.801000   67.264800  -40.314200
  C    -127.952000   67.190700  -39.167500
  C    -126.653000   66.730200  -39.467500
  H    -129.860000   67.452400  -40.389700
  C    -128.416000   67.489900  -37.734600
  H    -127.945000   66.712500  -37.139300
  H    -129.435000   67.228900  -37.688100
  C    -128.207000   68.859200  -37.148600
  H    -128.702000   69.655300  -37.733400
  H    -127.144000   69.231000  -37.258100
  C    -128.705000   69.032900  -35.770300
  H    -127.927000   68.662300  -35.114100
  H    -129.573000   68.415600  -35.507600
  H    -129.062000   70.047300  -35.473300
  H    -122.755000   64.841000  -37.012300
  H    -128.609000   66.872700  -42.444200

 Total Charge           Charge          ....    0
 Multiplicity           Mult            ....    1
 Number of Electrons    NEL             ....  134
 Basis Dimension        Dim             ....  322

ORBITAL ENERGIES
----------------

  NO   OCC          E(Eh)            E(eV)
   0   2.0000     -88.966262     -2420.8951
   1   2.0000     -88.963629     -2420.8234
   2   2.0000     -10.328065      -281.0409
   3   2.0000     -10.326001      -280.9848
   4   2.0000     -10.319221      -280.8003
   5   2.0000     -10.312633      -280.6210
   6   2.0000     -10.306727      -280.4603
   7   2.0000     -10.303019      -280.3594
   8   2.0000     -10.300187      -280.2823
   9   2.0000     -10.295094      -280.1437
  10   2.0000     -10.287492      -279.9369
  11   2.0000     -10.285174      -279.8738
  12   2.0000     -10.284567      -279.8573
  13   2.0000     -10.283948      -279.8404
  14   2.0000     -10.276275      -279.6317
  15   2.0000     -10.274991      -279.5967
  16   2.0000      -8.080652      -219.8857
  17   2.0000      -8.079563      -219.8561
  18   2.0000      -6.039086      -164.3319
  19   2.0000      -6.037985      -164.3019
  20   2.0000      -6.035321      -164.2294
  21   2.0000      -6.033758      -164.1869
  22   2.0000      -6.031391      -164.1225
  23   2.0000      -6.030474      -164.0976
  24   2.0000      -1.006290       -27.3825
  25   2.0000      -0.983900       -26.7733
  26   2.0000      -0.916622       -24.9425
  27   2.0000      -0.912263       -24.8239
  28   2.0000      -0.873402       -23.7665
  29   2.0000      -0.852779       -23.2053
  30   2.0000      -0.851469       -23.1697
  31   2.0000      -0.817695       -22.2506
  32   2.0000      -0.779066       -21.1995
  33   2.0000      -0.765770       -20.8377
  34   2.0000      -0.705035       -19.1850
  35   2.0000      -0.697616       -18.9831
  36   2.0000      -0.690491       -18.7892
  37   2.0000      -0.658576       -17.9208
  38   2.0000      -0.645965       -17.5776
  39   2.0000      -0.620457       -16.8835
  40   2.0000      -0.593066       -16.1381
  41   2.0000      -0.572741       -15.5851
  42   2.0000      -0.563453       -15.3323
  43   2.0000      -0.553076       -15.0500
  44   2.0000      -0.547819       -14.9069
  45   2.0000      -0.526085       -14.3155
  46   2.0000      -0.517303       -14.0765
  47   2.0000      -0.512969       -13.9586
  48   2.0000      -0.510039       -13.8789
  49   2.0000      -0.499958       -13.6045
  50   2.0000      -0.487841       -13.2748
  51   2.0000      -0.476536       -12.9672
  52   2.0000      -0.471133       -12.8202
  53   2.0000      -0.461584       -12.5603
  54   2.0000      -0.456581       -12.4242
  55   2.0000      -0.449857       -12.2412
  56   2.0000      -0.441505       -12.0140
  57   2.0000      -0.437704       -11.9105
  58   2.0000      -0.434286       -11.8175
  59   2.0000      -0.428221       -11.6525
  60   2.0000      -0.424702       -11.5567
  61   2.0000      -0.413562       -11.2536
  62   2.0000      -0.399208       -10.8630
  63   2.0000      -0.342802        -9.3281
  64   2.0000      -0.331512        -9.0209
  65   2.0000      -0.315161        -8.5760
  66   2.0000      -0.306338        -8.3359
  67   0.0000       0.039514         1.0752
  68   0.0000       0.059120         1.6087
  69   0.0000       0.112189         3.0528
  70   0.0000       0.118700         3.2300
  71   0.0000       0.124895         3.3986

MULLIKEN ATOMIC CHARGES
-----------------------
   0 S :    0.120141
   1 C :   -0.108893
   2 C :   -0.120672
   3 C :    0.021069
   4 C :   -0.172597
   5 H :    0.043004
   6 C :    0.058017
   7 H :    0.030001
   8 H :    0.012294
   9 C :   -0.019425
  10 H :    0.030070
  11 H :    0.027055
  12 C :   -0.077441
  13 H :    0.023760
  14 H :    0.048610
  15 H :    0.026537
  16 S :    0.116495
  17 C :   -0.107026
  18 C :   -0.030747
  19 C :   -0.035634
  20 C :   -0.181479
  21 H :    0.022921
  22 C :    0.114219
  23 H :    0.024767
  24 H :   -0.001401
  25 C :   -0.059130
  26 H :    0.016344
  27 H :    0.022904
  28 C :   -0.047492
  29 H :    0.031908
  30 H :    0.020322
  31 H :    0.038818
  32 H :    0.051699
  33 H :    0.060982
Sum of atomic charges:    0.0000000

LOEWDIN ATOMIC CHARGES
----------------------
   0 S :    0.427284
   1 C :   -0.217969
   2 C :   -0.067622
   3 C :   -0.058692
   4 C :   -0.204404
   5 H :    0.040173
   6 C :   -0.033552
   7 H :    0.032527
   8 H :    0.027761
   9 C :   -0.033747
  10 H :    0.023283
  11 H :    0.022724
  12 C :   -0.070112
  13 H :    0.024352
  14 H :    0.033717
  15 H :    0.019636
  16 S :    0.401529
  17 C :   -0.176144
  18 C :   -0.071169
  19 C :   -0.047146
  20 C :   -0.207141
  21 H :    0.034736
  22 C :   -0.028253
  23 H :    0.033939
  24 H :    0.023322
  25 C :   -0.052597
  26 H :    0.024302
  27 H :    0.027387
  28 C :   -0.070916
  29 H :    0.026772
  30 H :    0.025456
  31 H :    0.031748
  32 H :    0.028705
  33 H :    0.030113

  Mayer bond orders larger than 0.100000
B(  0-S ,  1-C ) :   1.1641 B(  0-S ,  4-C ) :   1.1454 B(  1-C ,  2-C ) :   1.5798
B(  1-C , 32-H ) :   0.9708 B(  2-C ,  3-C ) :   1.2365 B(  2-C ,  6-C ) :   1.0177
B(  3-C ,  4-C ) :   1.5975 B(  3-C ,  5-H ) :   0.9781 B(  4-C , 20-C ) :   1.0263
B(  6-C ,  7-H ) :   0.9365 B(  6-C ,  8-H ) :   0.9432 B(  6-C ,  9-C ) :   1.0661
B(  9-C , 10-H ) :   0.9568 B(  9-C , 11-H ) :   0.9569 B(  9-C , 12-C ) :   1.0709
B( 12-C , 13-H ) :   0.9727 B( 12-C , 14-H ) :   0.9725 B( 12-C , 15-H ) :   0.9760
B( 16-S , 17-C ) :   1.1518 B( 16-S , 20-C ) :   1.1527 B( 17-C , 18-C ) :   1.6186
B( 17-C , 20-C ) :   0.1007 B( 17-C , 33-H ) :   0.9633 B( 18-C , 19-C ) :   1.2425
B( 18-C , 21-H ) :   0.9917 B( 19-C , 20-C ) :   1.5930 B( 19-C , 22-C ) :   1.0338
B( 22-C , 23-H ) :   0.9260 B( 22-C , 24-H ) :   0.9250 B( 22-C , 25-C ) :   1.0713
B( 25-C , 26-H ) :   0.9507 B( 25-C , 27-H ) :   0.9494 B( 25-C , 28-C ) :   1.0802
B( 28-C , 29-H ) :   0.9735 B( 28-C , 30-H ) :   0.9708 B( 28-C , 31-H ) :   0.9749

Dispersion correction           -0.014607731
FINAL SINGLE POINT ENERGY     -1339.876095833284

DIPOLE MOMENT
-------------
                                X             Y             Z
Electronic contribution:     -1.07590     -16.72569     -23.23511
Nuclear contribution   :      1.04541      17.13891      23.44417
                        -----------------------------------------
Total Dipole Moment    :     -0.03049       0.41323       0.20906
                        -----------------------------------------
Magnitude (a.u.)       :      0.46410
Magnitude (Debye)      :      1.17966

Rotational constants in cm-1:     0.017710     0.009339     0.007093
Rotational constants in MHz :   530.930510   279.988832   212.634827

                             ****ORCA TERMINATED NORMALLY****
TOTAL RUN TIME: 0 days 0 hours 0 minutes 22 seconds 3 msec
