                         Program Version 4.2.1 -  RELEASE  -
|  1> ! wB97X-D3 SP def2-SVP
|  2> %pal
|  3> nprocs 24
|  4> end
|  5>
|  6> * xyz 0 1
|  7> S 	 -106.659 	 34.428 	 -17.9236
|  8> C 	 -105.642 	 33.776 	 -16.6355
|  9> C 	 -104.358 	 34.2442 	 -16.7164
| 10> C 	 -104.155 	 34.9402 	 -17.9126
| 11> C 	 -105.32 	 35.1158 	 -18.6891
| 12> H 	 -103.276 	 35.3475 	 -18.3237
| 13> C 	 -103.231 	 34.1474 	 -15.7027
| 14> H 	 -103.675 	 33.9505 	 -14.7225
| 15> H 	 -102.81 	 35.1632 	 -15.7139
| 16> C 	 -102.048 	 33.1763 	 -15.984
| 17> H 	 -102.254 	 32.1682 	 -15.9386
| 18> H 	 -101.857 	 33.2016 	 -17.0845
| 19> C 	 -100.746 	 33.4717 	 -15.1849
| 20> H 	 -101.178 	 33.6663 	 -14.1772
| 21> H 	 -100.05 	 32.6794 	 -15.1287
| 22> H 	 -100.266 	 34.3887 	 -15.3607
| 23> S 	 -106.884 	 36.8095 	 -20.2419
| 24> C 	 -106.25 	 37.2246 	 -21.8157
| 25> C 	 -105.054 	 36.7049 	 -22.062
| 26> C 	 -104.693 	 35.6526 	 -21.1478
| 27> C 	 -105.519 	 35.6671 	 -20.0316
| 28> H 	 -104.574 	 36.8327 	 -22.9912
| 29> C 	 -103.508 	 34.73 	 -21.3757
| 30> H 	 -102.771 	 35.1348 	 -20.7635
| 31> H 	 -103.107 	 34.9567 	 -22.4306
| 32> C 	 -103.617 	 33.24 	 -21.1792
| 33> H 	 -103.765 	 33.1277 	 -20.0989
| 34> H 	 -102.704 	 32.7559 	 -21.4713
| 35> C 	 -104.845 	 32.6401 	 -21.8397
| 36> H 	 -104.608 	 31.6544 	 -22.0338
| 37> H 	 -105.091 	 33.0542 	 -22.7741
| 38> H 	 -105.741 	 32.5606 	 -21.1862
| 39> H 	 -106.034 	 33.1422 	 -15.8384
| 40> H 	 -106.752 	 37.8202 	 -22.4762
| 41> *
| 42>
| 43>                          ****END OF INPUT****

CARTESIAN COORDINATES (ANGSTROEM)
---------------------------------
  S    -106.659000   34.428000  -17.923600
  C    -105.642000   33.776000  -16.635500
  C    -104.358000   34.244200  -16.716400
  C    -104.155000   34.940200  -17.912600
  C    -105.320000   35.115800  -18.689100
  H    -103.276000   35.347500  -18.323700
  C    -103.231000   34.147400  -15.702700
  H    -103.675000   33.950500  -14.722500
  H    -102.810000   35.163200  -15.713900
  C    -102.048000   33.176300  -15.984000
  H    -102.254000   32.168200  -15.938600
  H    -101.857000   33.201600  -17.084500
  C    -100.746000   33.471700  -15.184900
  H    -101.178000   33.666300  -14.177200
  H    -100.050000   32.679400  -15.128700
  H    -100.266000   34.388700  -15.360700
  S    -106.884000   36.809500  -20.241900
  C    -106.250000   37.224600  -21.815700
  C    -105.054000   36.704900  -22.062000
  C    -104.693000   35.652600  -21.147800
  C    -105.519000   35.667100  -20.031600
  H    -104.574000   36.832700  -22.991200
  C    -103.508000   34.730000  -21.375700
  H    -102.771000   35.134800  -20.763500
  H    -103.107000   34.956700  -22.430600
  C    -103.617000   33.240000  -21.179200
  H    -103.765000   33.127700  -20.098900
  H    -102.704000   32.755900  -21.471300
  C    -104.845000   32.640100  -21.839700
  H    -104.608000   31.654400  -22.033800
  H    -105.091000   33.054200  -22.774100
  H    -105.741000   32.560600  -21.186200
  H    -106.034000   33.142200  -15.838400
  H    -106.752000   37.820200  -22.476200

 Total Charge           Charge          ....    0
 Multiplicity           Mult            ....    1
 Number of Electrons    NEL             ....  134
 Basis Dimension        Dim             ....  322

ORBITAL ENERGIES
----------------

  NO   OCC          E(Eh)            E(eV)
   0   2.0000     -88.965361     -2420.8706
   1   2.0000     -88.961726     -2420.7716
   2   2.0000     -10.326183      -280.9897
   3   2.0000     -10.325981      -280.9842
   4   2.0000     -10.314212      -280.6640
   5   2.0000     -10.307006      -280.4679
   6   2.0000     -10.303670      -280.3771
   7   2.0000     -10.301194      -280.3097
   8   2.0000     -10.299679      -280.2685
   9   2.0000     -10.289522      -279.9921
  10   2.0000     -10.288801      -279.9725
  11   2.0000     -10.287575      -279.9391
  12   2.0000     -10.285361      -279.8789
  13   2.0000     -10.279035      -279.7068
  14   2.0000     -10.277215      -279.6572
  15   2.0000     -10.259954      -279.1875
  16   2.0000      -8.081141      -219.8990
  17   2.0000      -8.076398      -219.7700
  18   2.0000      -6.039463      -164.3422
  19   2.0000      -6.035421      -164.2322
  20   2.0000      -6.034916      -164.2184
  21   2.0000      -6.032115      -164.1422
  22   2.0000      -6.031129      -164.1154
  23   2.0000      -6.026951      -164.0017
  24   2.0000      -1.010733       -27.5035
  25   2.0000      -0.987463       -26.8702
  26   2.0000      -0.912192       -24.8220
  27   2.0000      -0.911714       -24.8090
  28   2.0000      -0.872433       -23.7401
  29   2.0000      -0.851522       -23.1711
  30   2.0000      -0.846778       -23.0420
  31   2.0000      -0.814791       -22.1716
  32   2.0000      -0.789073       -21.4718
  33   2.0000      -0.778927       -21.1957
  34   2.0000      -0.715582       -19.4720
  35   2.0000      -0.708915       -19.2906
  36   2.0000      -0.688954       -18.7474
  37   2.0000      -0.665721       -18.1152
  38   2.0000      -0.645736       -17.5714
  39   2.0000      -0.620302       -16.8793
  40   2.0000      -0.592049       -16.1105
  41   2.0000      -0.570974       -15.5370
  42   2.0000      -0.560724       -15.2581
  43   2.0000      -0.555215       -15.1082
  44   2.0000      -0.553936       -15.0734
  45   2.0000      -0.528209       -14.3733
  46   2.0000      -0.518610       -14.1121
  47   2.0000      -0.507060       -13.7978
  48   2.0000      -0.502054       -13.6616
  49   2.0000      -0.496482       -13.5100
  50   2.0000      -0.491533       -13.3753
  51   2.0000      -0.486636       -13.2420
  52   2.0000      -0.474268       -12.9055
  53   2.0000      -0.466474       -12.6934
  54   2.0000      -0.461276       -12.5520
  55   2.0000      -0.451449       -12.2845
  56   2.0000      -0.445337       -12.1182
  57   2.0000      -0.443974       -12.0812
  58   2.0000      -0.431642       -11.7456
  59   2.0000      -0.428939       -11.6720
  60   2.0000      -0.422410       -11.4944
  61   2.0000      -0.409432       -11.1412
  62   2.0000      -0.406674       -11.0662
  63   2.0000      -0.350116        -9.5271
  64   2.0000      -0.333214        -9.0672
  65   2.0000      -0.328329        -8.9343
  66   2.0000      -0.287231        -7.8160
  67   0.0000       0.026337         0.7167
  68   0.0000       0.077164         2.0997
  69   0.0000       0.100550         2.7361
  70   0.0000       0.123466         3.3597
  71   0.0000       0.126397         3.4394

MULLIKEN ATOMIC CHARGES
-----------------------
   0 S :    0.111247
   1 C :   -0.141778
   2 C :   -0.060204
   3 C :    0.034264
   4 C :   -0.168099
   5 H :   -0.012744
   6 C :    0.074490
   7 H :    0.025927
   8 H :    0.036020
   9 C :   -0.048926
  10 H :    0.007102
  11 H :    0.016064
  12 C :   -0.026846
  13 H :    0.020303
  14 H :    0.035300
  15 H :    0.023082
  16 S :    0.083903
  17 C :   -0.037505
  18 C :    0.002783
  19 C :   -0.088819
  20 C :   -0.123461
  21 H :    0.002774
  22 C :    0.056950
  23 H :    0.017401
  24 H :    0.017694
  25 C :   -0.046230
  26 H :    0.036546
  27 H :    0.028022
  28 C :    0.000783
  29 H :    0.001932
  30 H :    0.014484
  31 H :    0.040400
  32 H :    0.047331
  33 H :    0.019810
Sum of atomic charges:    0.0000000

LOEWDIN ATOMIC CHARGES
----------------------
   0 S :    0.429442
   1 C :   -0.194204
   2 C :   -0.066078
   3 C :   -0.062500
   4 C :   -0.209564
   5 H :    0.021897
   6 C :   -0.025506
   7 H :    0.029157
   8 H :    0.039409
   9 C :   -0.039975
  10 H :    0.014202
  11 H :    0.024187
  12 C :   -0.059569
  13 H :    0.031334
  14 H :    0.022915
  15 H :    0.018063
  16 S :    0.373704
  17 C :   -0.155933
  18 C :   -0.064352
  19 C :   -0.047981
  20 C :   -0.192088
  21 H :    0.025004
  22 C :   -0.034923
  23 H :    0.022336
  24 H :    0.033033
  25 C :   -0.037846
  26 H :    0.030520
  27 H :    0.024737
  28 C :   -0.058949
  29 H :    0.017182
  30 H :    0.017211
  31 H :    0.035514
  32 H :    0.028365
  33 H :    0.011258

  Mayer bond orders larger than 0.100000
B(  0-S ,  1-C ) :   1.1450 B(  0-S ,  4-C ) :   1.1848 B(  1-C ,  2-C ) :   1.5971
B(  1-C ,  4-C ) :   0.1039 B(  1-C , 32-H ) :   0.9709 B(  2-C ,  3-C ) :   1.2432
B(  2-C ,  6-C ) :   1.0170 B(  3-C ,  4-C ) :   1.5463 B(  3-C ,  5-H ) :   1.0082
B(  4-C , 20-C ) :   1.0219 B(  6-C ,  7-H ) :   0.9367 B(  6-C ,  8-H ) :   0.9442
B(  6-C ,  9-C ) :   1.0518 B(  9-C , 10-H ) :   0.9552 B(  9-C , 11-H ) :   0.9557
B(  9-C , 12-C ) :   1.0686 B( 12-C , 13-H ) :   0.9735 B( 12-C , 14-H ) :   0.9768
B( 12-C , 15-H ) :   0.9772 B( 16-S , 17-C ) :   1.1337 B( 16-S , 20-C ) :   1.1120
B( 17-C , 18-C ) :   1.6543 B( 17-C , 33-H ) :   0.9763 B( 18-C , 19-C ) :   1.2279
B( 18-C , 21-H ) :   0.9837 B( 19-C , 20-C ) :   1.6245 B( 19-C , 22-C ) :   1.0231
B( 22-C , 23-H ) :   0.9269 B( 22-C , 24-H ) :   0.9315 B( 22-C , 25-C ) :   1.0886
B( 25-C , 26-H ) :   0.9446 B( 25-C , 27-H ) :   0.9556 B( 25-C , 28-C ) :   1.0850
B( 28-C , 29-H ) :   0.9687 B( 28-C , 30-H ) :   0.9779 B( 28-C , 31-H ) :   0.9693

Dispersion correction           -0.015128134
FINAL SINGLE POINT ENERGY     -1339.855359713944

DIPOLE MOMENT
-------------
                                X             Y             Z
Electronic contribution:    -23.84212      14.22352      -3.66979
Nuclear contribution   :     24.51229     -14.46073       3.61922
                        -----------------------------------------
Total Dipole Moment    :      0.67017      -0.23721      -0.05057
                        -----------------------------------------
Magnitude (a.u.)       :      0.71271
Magnitude (Debye)      :      1.81157

Rotational constants in cm-1:     0.020604     0.008468     0.007246
Rotational constants in MHz :   617.681333   253.867949   217.244421

                             ****ORCA TERMINATED NORMALLY****
TOTAL RUN TIME: 0 days 0 hours 0 minutes 22 seconds 331 msec
