                         Program Version 4.2.1 -  RELEASE  -
|  1> ! wB97X-D3 SP def2-SVP
|  2> %pal
|  3> nprocs 24
|  4> end
|  5>
|  6> * xyz 0 1
|  7> S 	 -44.6647 	 12.3132 	 26.9938
|  8> C 	 -44.7676 	 13.8553 	 27.8152
|  9> C 	 -46.0807 	 14.1981 	 28.0978
| 10> C 	 -46.9634 	 13.1063 	 27.7095
| 11> C 	 -46.364 	 12.0118 	 27.105
| 12> H 	 -48.0215 	 13.0307 	 27.6742
| 13> C 	 -46.3502 	 15.5293 	 28.6563
| 14> H 	 -47.4405 	 15.8054 	 28.4876
| 15> H 	 -45.8783 	 16.2512 	 28.0162
| 16> C 	 -46.0407 	 15.7145 	 30.1066
| 17> H 	 -44.9371 	 15.6806 	 30.3111
| 18> H 	 -46.1616 	 16.8046 	 30.2768
| 19> C 	 -46.8395 	 15.0247 	 31.1821
| 20> H 	 -46.7293 	 15.5602 	 32.1642
| 21> H 	 -47.9108 	 14.9324 	 30.9991
| 22> H 	 -46.5626 	 13.9678 	 31.4261
| 23> S 	 -46.618 	 9.31657 	 27.4537
| 24> C 	 -47.8676 	 8.47893 	 26.6417
| 25> C 	 -48.3898 	 9.14355 	 25.5643
| 26> C 	 -47.955 	 10.5169 	 25.5755
| 27> C 	 -47.0016 	 10.7924 	 26.6254
| 28> H 	 -49.0581 	 8.69304 	 24.818
| 29> C 	 -48.5112 	 11.4737 	 24.4729
| 30> H 	 -48.216 	 11.1487 	 23.4964
| 31> H 	 -47.9993 	 12.4386 	 24.5558
| 32> C 	 -50.0632 	 11.7758 	 24.5404
| 33> H 	 -50.3323 	 12.2596 	 25.5039
| 34> H 	 -50.6296 	 10.8954 	 24.5221
| 35> C 	 -50.6154 	 12.5608 	 23.3216
| 36> H 	 -51.5157 	 12.9854 	 23.5834
| 37> H 	 -50.6687 	 11.9432 	 22.4957
| 38> H 	 -50.0057 	 13.3927 	 22.9905
| 39> H 	 -43.9293 	 14.556 	 27.9394
| 40> H 	 -47.9948 	 7.34935 	 26.5283
| 41> *
| 42>
| 43>                          ****END OF INPUT****

CARTESIAN COORDINATES (ANGSTROEM)
---------------------------------
  S    -44.664700   12.313200   26.993800
  C    -44.767600   13.855300   27.815200
  C    -46.080700   14.198100   28.097800
  C    -46.963400   13.106300   27.709500
  C    -46.364000   12.011800   27.105000
  H    -48.021500   13.030700   27.674200
  C    -46.350200   15.529300   28.656300
  H    -47.440500   15.805400   28.487600
  H    -45.878300   16.251200   28.016200
  C    -46.040700   15.714500   30.106600
  H    -44.937100   15.680600   30.311100
  H    -46.161600   16.804600   30.276800
  C    -46.839500   15.024700   31.182100
  H    -46.729300   15.560200   32.164200
  H    -47.910800   14.932400   30.999100
  H    -46.562600   13.967800   31.426100
  S    -46.618000    9.316570   27.453700
  C    -47.867600    8.478930   26.641700
  C    -48.389800    9.143550   25.564300
  C    -47.955000   10.516900   25.575500
  C    -47.001600   10.792400   26.625400
  H    -49.058100    8.693040   24.818000
  C    -48.511200   11.473700   24.472900
  H    -48.216000   11.148700   23.496400
  H    -47.999300   12.438600   24.555800
  C    -50.063200   11.775800   24.540400
  H    -50.332300   12.259600   25.503900
  H    -50.629600   10.895400   24.522100
  C    -50.615400   12.560800   23.321600
  H    -51.515700   12.985400   23.583400
  H    -50.668700   11.943200   22.495700
  H    -50.005700   13.392700   22.990500
  H    -43.929300   14.556000   27.939400
  H    -47.994800    7.349350   26.528300

 Total Charge           Charge          ....    0
 Multiplicity           Mult            ....    1
 Number of Electrons    NEL             ....  134
 Basis Dimension        Dim             ....  322

ORBITAL ENERGIES
----------------

  NO   OCC          E(Eh)            E(eV)
   0   2.0000     -88.969054     -2420.9710
   1   2.0000     -88.962800     -2420.8009
   2   2.0000     -10.332201      -281.1535
   3   2.0000     -10.326180      -280.9897
   4   2.0000     -10.315812      -280.7075
   5   2.0000     -10.313659      -280.6489
   6   2.0000     -10.313454      -280.6433
   7   2.0000     -10.301268      -280.3118
   8   2.0000     -10.294781      -280.1352
   9   2.0000     -10.294588      -280.1300
  10   2.0000     -10.293669      -280.1050
  11   2.0000     -10.292190      -280.0647
  12   2.0000     -10.290030      -280.0060
  13   2.0000     -10.287110      -279.9265
  14   2.0000     -10.281779      -279.7814
  15   2.0000     -10.266233      -279.3584
  16   2.0000      -8.084461      -219.9894
  17   2.0000      -8.077913      -219.8112
  18   2.0000      -6.042913      -164.4360
  19   2.0000      -6.038841      -164.3252
  20   2.0000      -6.036359      -164.2577
  21   2.0000      -6.035251      -164.2275
  22   2.0000      -6.032243      -164.1457
  23   2.0000      -6.028832      -164.0529
  24   2.0000      -1.006631       -27.3918
  25   2.0000      -0.985593       -26.8194
  26   2.0000      -0.919325       -25.0161
  27   2.0000      -0.899746       -24.4833
  28   2.0000      -0.869892       -23.6710
  29   2.0000      -0.850683       -23.1482
  30   2.0000      -0.843840       -22.9621
  31   2.0000      -0.817028       -22.2325
  32   2.0000      -0.786667       -21.4063
  33   2.0000      -0.770782       -20.9740
  34   2.0000      -0.708767       -19.2865
  35   2.0000      -0.702130       -19.1059
  36   2.0000      -0.693000       -18.8575
  37   2.0000      -0.654035       -17.7972
  38   2.0000      -0.642356       -17.4794
  39   2.0000      -0.610879       -16.6229
  40   2.0000      -0.589994       -16.0546
  41   2.0000      -0.574566       -15.6347
  42   2.0000      -0.561407       -15.2766
  43   2.0000      -0.556563       -15.1449
  44   2.0000      -0.535110       -14.5611
  45   2.0000      -0.525542       -14.3007
  46   2.0000      -0.515238       -14.0203
  47   2.0000      -0.507427       -13.8078
  48   2.0000      -0.504886       -13.7387
  49   2.0000      -0.498193       -13.5565
  50   2.0000      -0.491037       -13.3618
  51   2.0000      -0.479488       -13.0475
  52   2.0000      -0.472451       -12.8560
  53   2.0000      -0.461889       -12.5686
  54   2.0000      -0.458909       -12.4875
  55   2.0000      -0.449002       -12.2180
  56   2.0000      -0.444436       -12.0937
  57   2.0000      -0.440167       -11.9775
  58   2.0000      -0.429438       -11.6856
  59   2.0000      -0.426176       -11.5968
  60   2.0000      -0.421005       -11.4561
  61   2.0000      -0.417305       -11.3554
  62   2.0000      -0.400670       -10.9028
  63   2.0000      -0.340084        -9.2541
  64   2.0000      -0.327190        -8.9033
  65   2.0000      -0.326828        -8.8934
  66   2.0000      -0.300446        -8.1756
  67   0.0000       0.037155         1.0110
  68   0.0000       0.060155         1.6369
  69   0.0000       0.110754         3.0138
  70   0.0000       0.116646         3.1741
  71   0.0000       0.137347         3.7374

MULLIKEN ATOMIC CHARGES
-----------------------
   0 S :    0.113771
   1 C :   -0.133116
   2 C :   -0.069606
   3 C :    0.067844
   4 C :   -0.187069
   5 H :   -0.009614
   6 C :    0.063056
   7 H :    0.022735
   8 H :    0.028301
   9 C :   -0.069876
  10 H :    0.026665
  11 H :    0.022129
  12 C :   -0.058742
  13 H :    0.039103
  14 H :    0.027231
  15 H :    0.042037
  16 S :    0.137503
  17 C :   -0.090216
  18 C :   -0.069488
  19 C :   -0.021241
  20 C :   -0.185594
  21 H :    0.035772
  22 C :    0.064920
  23 H :    0.024224
  24 H :    0.023054
  25 C :   -0.083322
  26 H :    0.033199
  27 H :    0.015192
  28 C :    0.005723
  29 H :    0.017427
  30 H :    0.015729
  31 H :    0.016944
  32 H :    0.058750
  33 H :    0.076577
Sum of atomic charges:    0.0000000

LOEWDIN ATOMIC CHARGES
----------------------
   0 S :    0.412279
   1 C :   -0.195748
   2 C :   -0.065895
   3 C :   -0.058236
   4 C :   -0.213821
   5 H :    0.024947
   6 C :   -0.041957
   7 H :    0.037254
   8 H :    0.035021
   9 C :   -0.052463
  10 H :    0.028350
  11 H :    0.029495
  12 C :   -0.074857
  13 H :    0.035273
  14 H :    0.024720
  15 H :    0.030712
  16 S :    0.443352
  17 C :   -0.219161
  18 C :   -0.075930
  19 C :   -0.045124
  20 C :   -0.216376
  21 H :    0.037233
  22 C :   -0.031375
  23 H :    0.027101
  24 H :    0.030404
  25 C :   -0.032463
  26 H :    0.026497
  27 H :    0.013455
  28 C :   -0.051167
  29 H :    0.018909
  30 H :    0.015929
  31 H :    0.023990
  32 H :    0.032833
  33 H :    0.046817

  Mayer bond orders larger than 0.100000
B(  0-S ,  1-C ) :   1.1506 B(  0-S ,  4-C ) :   1.1570 B(  1-C ,  2-C ) :   1.5932
B(  1-C , 32-H ) :   0.9664 B(  2-C ,  3-C ) :   1.2181 B(  2-C ,  6-C ) :   1.0258
B(  3-C ,  4-C ) :   1.5883 B(  3-C ,  5-H ) :   1.0035 B(  4-C , 20-C ) :   1.0225
B(  6-C ,  7-H ) :   0.9341 B(  6-C ,  8-H ) :   0.9325 B(  6-C ,  9-C ) :   1.0950
B(  9-C , 10-H ) :   0.9486 B(  9-C , 11-H ) :   0.9476 B(  9-C , 12-C ) :   1.0734
B( 12-C , 13-H ) :   0.9732 B( 12-C , 14-H ) :   0.9736 B( 12-C , 15-H ) :   0.9729
B( 16-S , 17-C ) :   1.1748 B( 16-S , 20-C ) :   1.1625 B( 17-C , 18-C ) :   1.6028
B( 17-C , 20-C ) :   0.1005 B( 17-C , 33-H ) :   0.9472 B( 18-C , 19-C ) :   1.2651
B( 18-C , 21-H ) :   0.9838 B( 19-C , 20-C ) :   1.5575 B( 19-C , 22-C ) :   1.0379
B( 22-C , 23-H ) :   0.9460 B( 22-C , 24-H ) :   0.9359 B( 22-C , 25-C ) :   1.0514
B( 25-C , 26-H ) :   0.9604 B( 25-C , 27-H ) :   0.9600 B( 25-C , 28-C ) :   1.0781
B( 28-C , 29-H ) :   0.9729 B( 28-C , 30-H ) :   0.9763 B( 28-C , 31-H ) :   0.9752

Dispersion correction           -0.013636316
FINAL SINGLE POINT ENERGY     -1339.859884176817

DIPOLE MOMENT
-------------
                                X             Y             Z
Electronic contribution:     16.49093     -18.64613       0.40364
Nuclear contribution   :    -16.90374      19.06930      -0.68819
                        -----------------------------------------
Total Dipole Moment    :     -0.41281       0.42317      -0.28455
                        -----------------------------------------
Magnitude (a.u.)       :      0.65609
Magnitude (Debye)      :      1.66765

Rotational constants in cm-1:     0.017632     0.007880     0.006505
Rotational constants in MHz :   528.589337   236.221676   195.022661

                             ****ORCA TERMINATED NORMALLY****
TOTAL RUN TIME: 0 days 0 hours 0 minutes 20 seconds 665 msec
