                         Program Version 4.2.1 -  RELEASE  -
|  1> ! wB97X-D3 SP def2-SVP
|  2> %pal
|  3> nprocs 24
|  4> end
|  5>
|  6> * xyz 0 1
|  7> S 	 -53.624 	 -5.10489 	 -30.0905
|  8> C 	 -52.4825 	 -5.4852 	 -28.8229
|  9> C 	 -53.1598 	 -5.74369 	 -27.6637
| 10> C 	 -54.5861 	 -5.50363 	 -27.7541
| 11> C 	 -55.013 	 -5.11243 	 -28.9957
| 12> H 	 -55.3413 	 -5.47305 	 -26.9265
| 13> C 	 -52.5455 	 -6.19935 	 -26.3253
| 14> H 	 -52.6566 	 -7.29238 	 -26.3025
| 15> H 	 -53.1992 	 -5.99887 	 -25.4996
| 16> C 	 -51.1263 	 -5.82877 	 -26.1287
| 17> H 	 -50.4268 	 -6.30119 	 -26.8114
| 18> H 	 -51.0521 	 -4.74189 	 -26.2726
| 19> C 	 -50.6718 	 -6.17416 	 -24.666
| 20> H 	 -49.6497 	 -5.86883 	 -24.6112
| 21> H 	 -51.2964 	 -5.73322 	 -23.9204
| 22> H 	 -50.632 	 -7.27561 	 -24.58
| 23> S 	 -57.2191 	 -5.84174 	 -30.3659
| 24> C 	 -58.6004 	 -4.75338 	 -30.3706
| 25> C 	 -58.4636 	 -3.76907 	 -29.4039
| 26> C 	 -57.1552 	 -3.77308 	 -28.8287
| 27> C 	 -56.3555 	 -4.71659 	 -29.3615
| 28> H 	 -59.2514 	 -3.07688 	 -29.2199
| 29> C 	 -56.8626 	 -2.75317 	 -27.7501
| 30> H 	 -55.888 	 -2.92649 	 -27.3261
| 31> H 	 -57.6438 	 -2.94474 	 -26.9894
| 32> C 	 -56.9104 	 -1.21127 	 -27.9906
| 33> H 	 -57.2021 	 -0.771792 	 -27.0189
| 34> H 	 -57.7863 	 -1.07185 	 -28.6626
| 35> C 	 -55.7205 	 -0.470594 	 -28.6004
| 36> H 	 -54.9269 	 -0.467582 	 -27.9484
| 37> H 	 -56.1388 	 0.572698 	 -28.6686
| 38> H 	 -55.5036 	 -0.942257 	 -29.6012
| 39> H 	 -51.3991 	 -5.4894 	 -28.9593
| 40> H 	 -59.5386 	 -4.87034 	 -30.9821
| 41> *
| 42>
| 43>                          ****END OF INPUT****

CARTESIAN COORDINATES (ANGSTROEM)
---------------------------------
  S    -53.624000   -5.104890  -30.090500
  C    -52.482500   -5.485200  -28.822900
  C    -53.159800   -5.743690  -27.663700
  C    -54.586100   -5.503630  -27.754100
  C    -55.013000   -5.112430  -28.995700
  H    -55.341300   -5.473050  -26.926500
  C    -52.545500   -6.199350  -26.325300
  H    -52.656600   -7.292380  -26.302500
  H    -53.199200   -5.998870  -25.499600
  C    -51.126300   -5.828770  -26.128700
  H    -50.426800   -6.301190  -26.811400
  H    -51.052100   -4.741890  -26.272600
  C    -50.671800   -6.174160  -24.666000
  H    -49.649700   -5.868830  -24.611200
  H    -51.296400   -5.733220  -23.920400
  H    -50.632000   -7.275610  -24.580000
  S    -57.219100   -5.841740  -30.365900
  C    -58.600400   -4.753380  -30.370600
  C    -58.463600   -3.769070  -29.403900
  C    -57.155200   -3.773080  -28.828700
  C    -56.355500   -4.716590  -29.361500
  H    -59.251400   -3.076880  -29.219900
  C    -56.862600   -2.753170  -27.750100
  H    -55.888000   -2.926490  -27.326100
  H    -57.643800   -2.944740  -26.989400
  C    -56.910400   -1.211270  -27.990600
  H    -57.202100   -0.771792  -27.018900
  H    -57.786300   -1.071850  -28.662600
  C    -55.720500   -0.470594  -28.600400
  H    -54.926900   -0.467582  -27.948400
  H    -56.138800    0.572698  -28.668600
  H    -55.503600   -0.942257  -29.601200
  H    -51.399100   -5.489400  -28.959300
  H    -59.538600   -4.870340  -30.982100

 Total Charge           Charge          ....    0
 Multiplicity           Mult            ....    1
 Number of Electrons    NEL             ....  134
 Basis Dimension        Dim             ....  322

ORBITAL ENERGIES
----------------

  NO   OCC          E(Eh)            E(eV)
   0   2.0000     -88.963212     -2420.8121
   1   2.0000     -88.960329     -2420.7336
   2   2.0000     -10.324987      -280.9572
   3   2.0000     -10.321489      -280.8620
   4   2.0000     -10.319494      -280.8077
   5   2.0000     -10.314377      -280.6685
   6   2.0000     -10.302076      -280.3337
   7   2.0000     -10.299667      -280.2682
   8   2.0000     -10.295714      -280.1606
   9   2.0000     -10.290999      -280.0323
  10   2.0000     -10.289692      -279.9968
  11   2.0000     -10.288874      -279.9745
  12   2.0000     -10.287938      -279.9490
  13   2.0000     -10.286651      -279.9140
  14   2.0000     -10.278640      -279.6960
  15   2.0000     -10.277463      -279.6640
  16   2.0000      -8.078383      -219.8240
  17   2.0000      -8.075055      -219.7334
  18   2.0000      -6.036908      -164.2726
  19   2.0000      -6.033704      -164.1854
  20   2.0000      -6.033025      -164.1670
  21   2.0000      -6.029523      -164.0717
  22   2.0000      -6.028896      -164.0546
  23   2.0000      -6.025696      -163.9675
  24   2.0000      -1.009044       -27.4575
  25   2.0000      -0.984456       -26.7884
  26   2.0000      -0.914863       -24.8947
  27   2.0000      -0.904137       -24.6028
  28   2.0000      -0.871289       -23.7090
  29   2.0000      -0.852620       -23.2010
  30   2.0000      -0.842570       -22.9275
  31   2.0000      -0.813072       -22.1248
  32   2.0000      -0.783773       -21.3276
  33   2.0000      -0.773652       -21.0521
  34   2.0000      -0.711588       -19.3633
  35   2.0000      -0.697405       -18.9774
  36   2.0000      -0.685252       -18.6467
  37   2.0000      -0.662573       -18.0295
  38   2.0000      -0.642351       -17.4793
  39   2.0000      -0.608434       -16.5563
  40   2.0000      -0.594093       -16.1661
  41   2.0000      -0.573403       -15.6031
  42   2.0000      -0.567454       -15.4412
  43   2.0000      -0.552286       -15.0285
  44   2.0000      -0.538279       -14.6473
  45   2.0000      -0.527861       -14.3638
  46   2.0000      -0.520739       -14.1700
  47   2.0000      -0.511893       -13.9293
  48   2.0000      -0.504348       -13.7240
  49   2.0000      -0.499709       -13.5978
  50   2.0000      -0.487382       -13.2623
  51   2.0000      -0.483316       -13.1517
  52   2.0000      -0.475740       -12.9455
  53   2.0000      -0.464728       -12.6459
  54   2.0000      -0.458885       -12.4869
  55   2.0000      -0.448291       -12.1986
  56   2.0000      -0.445091       -12.1116
  57   2.0000      -0.436258       -11.8712
  58   2.0000      -0.429819       -11.6960
  59   2.0000      -0.421675       -11.4744
  60   2.0000      -0.417973       -11.3736
  61   2.0000      -0.411768       -11.2048
  62   2.0000      -0.408603       -11.1186
  63   2.0000      -0.339491        -9.2380
  64   2.0000      -0.328675        -8.9437
  65   2.0000      -0.323766        -8.8101
  66   2.0000      -0.302716        -8.2373
  67   0.0000       0.039996         1.0883
  68   0.0000       0.066671         1.8142
  69   0.0000       0.107203         2.9171
  70   0.0000       0.128976         3.5096
  71   0.0000       0.132833         3.6146

MULLIKEN ATOMIC CHARGES
-----------------------
   0 S :    0.101974
   1 C :   -0.140159
   2 C :   -0.080785
   3 C :    0.029377
   4 C :   -0.177109
   5 H :    0.031780
   6 C :    0.097897
   7 H :    0.028133
   8 H :    0.003207
   9 C :   -0.115610
  10 H :    0.034515
  11 H :    0.035021
  12 C :   -0.023527
  13 H :    0.025608
  14 H :    0.036907
  15 H :    0.029752
  16 S :    0.111050
  17 C :   -0.106109
  18 C :   -0.043167
  19 C :   -0.002449
  20 C :   -0.169372
  21 H :    0.014691
  22 C :    0.064980
  23 H :    0.012442
  24 H :    0.034240
  25 C :   -0.112987
  26 H :    0.025717
  27 H :    0.017975
  28 C :   -0.016289
  29 H :    0.021087
  30 H :    0.043505
  31 H :    0.056806
  32 H :    0.057296
  33 H :    0.073603
Sum of atomic charges:    0.0000000

LOEWDIN ATOMIC CHARGES
----------------------
   0 S :    0.391582
   1 C :   -0.200403
   2 C :   -0.062740
   3 C :   -0.065902
   4 C :   -0.195702
   5 H :    0.039616
   6 C :   -0.038247
   7 H :    0.037215
   8 H :    0.026129
   9 C :   -0.043078
  10 H :    0.023822
  11 H :    0.024928
  12 C :   -0.054564
  13 H :    0.023197
  14 H :    0.021330
  15 H :    0.027451
  16 S :    0.405399
  17 C :   -0.184481
  18 C :   -0.068050
  19 C :   -0.057011
  20 C :   -0.205547
  21 H :    0.027114
  22 C :   -0.036709
  23 H :    0.023103
  24 H :    0.039871
  25 C :   -0.045821
  26 H :    0.024703
  27 H :    0.020182
  28 C :   -0.059175
  29 H :    0.010278
  30 H :    0.038858
  31 H :    0.038705
  32 H :    0.033607
  33 H :    0.040340

  Mayer bond orders larger than 0.100000
B(  0-S ,  1-C ) :   1.1244 B(  0-S ,  4-C ) :   1.1406 B(  1-C ,  2-C ) :   1.6325
B(  1-C , 32-H ) :   0.9692 B(  2-C ,  3-C ) :   1.2137 B(  2-C ,  6-C ) :   1.0098
B(  3-C ,  4-C ) :   1.6117 B(  3-C ,  5-H ) :   0.9874 B(  4-C , 20-C ) :   1.0084
B(  6-C ,  7-H ) :   0.9194 B(  6-C ,  8-H ) :   0.9430 B(  6-C ,  9-C ) :   1.0758
B(  9-C , 10-H ) :   0.9435 B(  9-C , 11-H ) :   0.9615 B(  9-C , 12-C ) :   1.0886
B( 12-C , 13-H ) :   0.9733 B( 12-C , 14-H ) :   0.9778 B( 12-C , 15-H ) :   0.9751
B( 16-S , 17-C ) :   1.1456 B( 16-S , 20-C ) :   1.1394 B( 17-C , 18-C ) :   1.6300
B( 17-C , 33-H ) :   0.9610 B( 18-C , 19-C ) :   1.2014 B( 18-C , 21-H ) :   0.9950
B( 19-C , 20-C ) :   1.6408 B( 19-C , 22-C ) :   1.0495 B( 22-C , 23-H ) :   0.9314
B( 22-C , 24-H ) :   0.9302 B( 22-C , 25-C ) :   1.0664 B( 25-C , 26-H ) :   0.9527
B( 25-C , 27-H ) :   0.9577 B( 25-C , 28-C ) :   1.0791 B( 28-C , 29-H ) :   0.9749
B( 28-C , 30-H ) :   0.9708 B( 28-C , 31-H ) :   0.9747

Dispersion correction           -0.013745267
FINAL SINGLE POINT ENERGY     -1339.874603126935

DIPOLE MOMENT
-------------
                                X             Y             Z
Electronic contribution:    -10.69617     -11.76630     -21.47049
Nuclear contribution   :     10.67210      12.02359      22.18956
                        -----------------------------------------
Total Dipole Moment    :     -0.02408       0.25729       0.71907
                        -----------------------------------------
Magnitude (a.u.)       :      0.76410
Magnitude (Debye)      :      1.94218

Rotational constants in cm-1:     0.019742     0.007636     0.006476
Rotational constants in MHz :   591.862269   228.935249   194.154739

                             ****ORCA TERMINATED NORMALLY****
TOTAL RUN TIME: 0 days 0 hours 0 minutes 21 seconds 174 msec
