                         Program Version 4.2.1 -  RELEASE  -
|  1> ! wB97X-D3 SP def2-SVP
|  2> %pal
|  3> nprocs 24
|  4> end
|  5>
|  6> * xyz 0 1
|  7> S 	 -134.719 	 68.978 	 -66.3802
|  8> C 	 -134.908 	 67.4049 	 -67.2153
|  9> C 	 -136.216 	 66.9096 	 -66.9528
| 10> C 	 -136.952 	 67.6678 	 -66.0282
| 11> C 	 -136.337 	 68.8103 	 -65.6311
| 12> H 	 -138.012 	 67.5276 	 -65.7088
| 13> C 	 -136.763 	 65.669 	 -67.6115
| 14> H 	 -137.387 	 65.1395 	 -66.9012
| 15> H 	 -135.917 	 64.9872 	 -67.7653
| 16> C 	 -137.452 	 65.9263 	 -68.8962
| 17> H 	 -136.909 	 66.7106 	 -69.3218
| 18> H 	 -137.478 	 65.0388 	 -69.4614
| 19> C 	 -138.889 	 66.377 	 -68.7566
| 20> H 	 -139.153 	 66.6988 	 -69.7915
| 21> H 	 -139.567 	 65.7299 	 -68.2256
| 22> H 	 -138.946 	 67.3175 	 -68.1446
| 23> S 	 -136.497 	 69.5361 	 -63.0295
| 24> C 	 -137.359 	 70.9838 	 -62.4863
| 25> C 	 -137.761 	 71.7005 	 -63.6204
| 26> C 	 -137.372 	 71.0504 	 -64.8837
| 27> C 	 -136.846 	 69.7955 	 -64.7037
| 28> H 	 -138.126 	 72.6464 	 -63.4452
| 29> C 	 -137.561 	 71.7761 	 -66.1933
| 30> H 	 -136.587 	 71.7971 	 -66.6578
| 31> H 	 -137.654 	 72.8807 	 -66.0049
| 32> C 	 -138.598 	 71.1994 	 -67.168
| 33> H 	 -139.57 	 71.3837 	 -66.7082
| 34> H 	 -138.405 	 70.1565 	 -67.2713
| 35> C 	 -138.539 	 71.9238 	 -68.5416
| 36> H 	 -137.607 	 71.6366 	 -69.0761
| 37> H 	 -138.479 	 73.0062 	 -68.3847
| 38> H 	 -139.509 	 71.8536 	 -69.1528
| 39> H 	 -134.15 	 66.8783 	 -67.7787
| 40> H 	 -137.548 	 71.2823 	 -61.4146
| 41> *
| 42>
| 43>                          ****END OF INPUT****

CARTESIAN COORDINATES (ANGSTROEM)
---------------------------------
  S    -134.719000   68.978000  -66.380200
  C    -134.908000   67.404900  -67.215300
  C    -136.216000   66.909600  -66.952800
  C    -136.952000   67.667800  -66.028200
  C    -136.337000   68.810300  -65.631100
  H    -138.012000   67.527600  -65.708800
  C    -136.763000   65.669000  -67.611500
  H    -137.387000   65.139500  -66.901200
  H    -135.917000   64.987200  -67.765300
  C    -137.452000   65.926300  -68.896200
  H    -136.909000   66.710600  -69.321800
  H    -137.478000   65.038800  -69.461400
  C    -138.889000   66.377000  -68.756600
  H    -139.153000   66.698800  -69.791500
  H    -139.567000   65.729900  -68.225600
  H    -138.946000   67.317500  -68.144600
  S    -136.497000   69.536100  -63.029500
  C    -137.359000   70.983800  -62.486300
  C    -137.761000   71.700500  -63.620400
  C    -137.372000   71.050400  -64.883700
  C    -136.846000   69.795500  -64.703700
  H    -138.126000   72.646400  -63.445200
  C    -137.561000   71.776100  -66.193300
  H    -136.587000   71.797100  -66.657800
  H    -137.654000   72.880700  -66.004900
  C    -138.598000   71.199400  -67.168000
  H    -139.570000   71.383700  -66.708200
  H    -138.405000   70.156500  -67.271300
  C    -138.539000   71.923800  -68.541600
  H    -137.607000   71.636600  -69.076100
  H    -138.479000   73.006200  -68.384700
  H    -139.509000   71.853600  -69.152800
  H    -134.150000   66.878300  -67.778700
  H    -137.548000   71.282300  -61.414600

 Total Charge           Charge          ....    0
 Multiplicity           Mult            ....    1
 Number of Electrons    NEL             ....  134
 Basis Dimension        Dim             ....  322

ORBITAL ENERGIES
----------------

  NO   OCC          E(Eh)            E(eV)
   0   2.0000     -88.969283     -2420.9773
   1   2.0000     -88.961492     -2420.7653
   2   2.0000     -10.330330      -281.1026
   3   2.0000     -10.325637      -280.9749
   4   2.0000     -10.323848      -280.9262
   5   2.0000     -10.322183      -280.8809
   6   2.0000     -10.306760      -280.4612
   7   2.0000     -10.304021      -280.3867
   8   2.0000     -10.296305      -280.1767
   9   2.0000     -10.293782      -280.1081
  10   2.0000     -10.289481      -279.9910
  11   2.0000     -10.285361      -279.8789
  12   2.0000     -10.284140      -279.8457
  13   2.0000     -10.283792      -279.8362
  14   2.0000     -10.278623      -279.6956
  15   2.0000     -10.272051      -279.5167
  16   2.0000      -8.082439      -219.9343
  17   2.0000      -8.076442      -219.7712
  18   2.0000      -6.040951      -164.3826
  19   2.0000      -6.037176      -164.2799
  20   2.0000      -6.035072      -164.2227
  21   2.0000      -6.033274      -164.1737
  22   2.0000      -6.030793      -164.1062
  23   2.0000      -6.027162      -164.0074
  24   2.0000      -1.005121       -27.3507
  25   2.0000      -0.980030       -26.6680
  26   2.0000      -0.922132       -25.0925
  27   2.0000      -0.905105       -24.6292
  28   2.0000      -0.869974       -23.6732
  29   2.0000      -0.847773       -23.0691
  30   2.0000      -0.842751       -22.9324
  31   2.0000      -0.818718       -22.2784
  32   2.0000      -0.779851       -21.2208
  33   2.0000      -0.765252       -20.8236
  34   2.0000      -0.707724       -19.2582
  35   2.0000      -0.701459       -19.0877
  36   2.0000      -0.692707       -18.8495
  37   2.0000      -0.663876       -18.0650
  38   2.0000      -0.644814       -17.5463
  39   2.0000      -0.616209       -16.7679
  40   2.0000      -0.591626       -16.0990
  41   2.0000      -0.581018       -15.8103
  42   2.0000      -0.565955       -15.4004
  43   2.0000      -0.551044       -14.9947
  44   2.0000      -0.542917       -14.7735
  45   2.0000      -0.525478       -14.2990
  46   2.0000      -0.518605       -14.1120
  47   2.0000      -0.514681       -14.0052
  48   2.0000      -0.510791       -13.8993
  49   2.0000      -0.498732       -13.5712
  50   2.0000      -0.484393       -13.1810
  51   2.0000      -0.479758       -13.0549
  52   2.0000      -0.467155       -12.7119
  53   2.0000      -0.461184       -12.5495
  54   2.0000      -0.459367       -12.5000
  55   2.0000      -0.443919       -12.0797
  56   2.0000      -0.440304       -11.9813
  57   2.0000      -0.434685       -11.8284
  58   2.0000      -0.427853       -11.6425
  59   2.0000      -0.419838       -11.4244
  60   2.0000      -0.417185       -11.3522
  61   2.0000      -0.416489       -11.3332
  62   2.0000      -0.415196       -11.2981
  63   2.0000      -0.339798        -9.2464
  64   2.0000      -0.328530        -8.9397
  65   2.0000      -0.318368        -8.6632
  66   2.0000      -0.310488        -8.4488
  67   0.0000       0.037481         1.0199
  68   0.0000       0.048940         1.3317
  69   0.0000       0.108231         2.9451
  70   0.0000       0.115680         3.1478
  71   0.0000       0.126569         3.4441

MULLIKEN ATOMIC CHARGES
-----------------------
   0 S :    0.111164
   1 C :   -0.121145
   2 C :   -0.115888
   3 C :    0.046272
   4 C :   -0.174200
   5 H :    0.036479
   6 C :    0.063992
   7 H :    0.013672
   8 H :    0.016615
   9 C :    0.011143
  10 H :    0.012950
  11 H :    0.022873
  12 C :   -0.072792
  13 H :    0.040906
  14 H :    0.031388
  15 H :    0.023075
  16 S :    0.107090
  17 C :   -0.123277
  18 C :   -0.009703
  19 C :   -0.028576
  20 C :   -0.174801
  21 H :   -0.006439
  22 C :    0.050227
  23 H :    0.011562
  24 H :    0.018943
  25 C :   -0.034500
  26 H :    0.029411
  27 H :    0.037906
  28 C :   -0.081262
  29 H :    0.046187
  30 H :    0.022857
  31 H :    0.049370
  32 H :    0.054153
  33 H :    0.084349
Sum of atomic charges:    0.0000000

LOEWDIN ATOMIC CHARGES
----------------------
   0 S :    0.378765
   1 C :   -0.186822
   2 C :   -0.059064
   3 C :   -0.064424
   4 C :   -0.186017
   5 H :    0.045228
   6 C :   -0.033612
   7 H :    0.025218
   8 H :    0.031405
   9 C :   -0.034453
  10 H :    0.021854
  11 H :    0.021421
  12 C :   -0.067390
  13 H :    0.033983
  14 H :    0.020806
  15 H :    0.025742
  16 S :    0.409989
  17 C :   -0.187654
  18 C :   -0.066065
  19 C :   -0.049318
  20 C :   -0.216264
  21 H :    0.017004
  22 C :   -0.041189
  23 H :    0.026326
  24 H :    0.033376
  25 C :   -0.033249
  26 H :    0.025493
  27 H :    0.021228
  28 C :   -0.076354
  29 H :    0.030580
  30 H :    0.022111
  31 H :    0.035927
  32 H :    0.030010
  33 H :    0.045409

  Mayer bond orders larger than 0.100000
B(  0-S ,  1-C ) :   1.1352 B(  0-S ,  4-C ) :   1.1369 B(  1-C ,  2-C ) :   1.5892
B(  1-C ,  4-C ) :   0.1096 B(  1-C , 32-H ) :   0.9712 B(  2-C ,  3-C ) :   1.2452
B(  2-C ,  6-C ) :   1.0358 B(  3-C ,  4-C ) :   1.5965 B(  3-C ,  5-H ) :   0.9809
B(  4-C , 20-C ) :   1.0274 B(  6-C ,  7-H ) :   0.9399 B(  6-C ,  8-H ) :   0.9323
B(  6-C ,  9-C ) :   1.0715 B(  9-C , 10-H ) :   0.9456 B(  9-C , 11-H ) :   0.9502
B(  9-C , 12-C ) :   1.0925 B( 12-C , 13-H ) :   0.9709 B( 12-C , 14-H ) :   0.9739
B( 12-C , 15-H ) :   0.9714 B( 16-S , 17-C ) :   1.1575 B( 16-S , 20-C ) :   1.1469
B( 17-C , 18-C ) :   1.6098 B( 17-C , 33-H ) :   0.9605 B( 18-C , 19-C ) :   1.2251
B( 18-C , 21-H ) :   1.0011 B( 19-C , 20-C ) :   1.5999 B( 19-C , 22-C ) :   1.0460
B( 22-C , 23-H ) :   0.9248 B( 22-C , 24-H ) :   0.9315 B( 22-C , 25-C ) :   1.0589
B( 25-C , 26-H ) :   0.9549 B( 25-C , 27-H ) :   0.9582 B( 25-C , 28-C ) :   1.0774
B( 28-C , 29-H ) :   0.9750 B( 28-C , 30-H ) :   0.9730 B( 28-C , 31-H ) :   0.9747

Dispersion correction           -0.015222273
FINAL SINGLE POINT ENERGY     -1339.868656357382

DIPOLE MOMENT
-------------
                                X             Y             Z
Electronic contribution:     15.96341       1.52656      21.77273
Nuclear contribution   :    -16.27098      -1.50235     -22.07800
                        -----------------------------------------
Total Dipole Moment    :     -0.30757       0.02421      -0.30527
                        -----------------------------------------
Magnitude (a.u.)       :      0.43402
Magnitude (Debye)      :      1.10320

Rotational constants in cm-1:     0.017822     0.009577     0.007739
Rotational constants in MHz :   534.285042   287.104926   231.999705

                             ****ORCA TERMINATED NORMALLY****
TOTAL RUN TIME: 0 days 0 hours 0 minutes 22 seconds 275 msec
