                         Program Version 4.2.1 -  RELEASE  -
|  1> ! wB97X-D3 SP def2-SVP
|  2> %pal
|  3> nprocs 24
|  4> end
|  5>
|  6> * xyz 0 1
|  7> S 	 -127.81 	 69.0175 	 -44.5968
|  8> C 	 -129.24 	 69.5521 	 -43.7115
|  9> C 	 -129.197 	 70.8407 	 -43.2992
| 10> C 	 -127.95 	 71.4894 	 -43.8345
| 11> C 	 -127.267 	 70.6869 	 -44.6645
| 12> H 	 -127.812 	 72.5589 	 -43.8755
| 13> C 	 -130.156 	 71.6064 	 -42.424
| 14> H 	 -130.165 	 71.046 	 -41.4719
| 15> H 	 -131.21 	 71.391 	 -42.8204
| 16> C 	 -129.88 	 73.0385 	 -42.0973
| 17> H 	 -129.04 	 73.1442 	 -41.4602
| 18> H 	 -129.607 	 73.3922 	 -43.078
| 19> C 	 -131.02 	 73.8612 	 -41.6778
| 20> H 	 -131.838 	 73.9573 	 -42.4062
| 21> H 	 -131.447 	 73.4128 	 -40.8099
| 22> H 	 -130.799 	 74.937 	 -41.3781
| 23> S 	 -124.651 	 69.8535 	 -45.0862
| 24> C 	 -123.767 	 70.638 	 -46.366
| 25> C 	 -124.375 	 71.8644 	 -46.7812
| 26> C 	 -125.627 	 72.0622 	 -46.1415
| 27> C 	 -125.976 	 71.0199 	 -45.2812
| 28> H 	 -123.84 	 72.3927 	 -47.5411
| 29> C 	 -126.629 	 73.1831 	 -46.6037
| 30> H 	 -126.544 	 73.958 	 -45.8105
| 31> H 	 -127.606 	 72.8366 	 -46.5736
| 32> C 	 -126.46 	 73.6037 	 -48.0777
| 33> H 	 -126.665 	 72.6615 	 -48.7304
| 34> H 	 -125.466 	 73.9805 	 -48.3873
| 35> C 	 -127.541 	 74.6243 	 -48.5
| 36> H 	 -127.483 	 75.4031 	 -47.728
| 37> H 	 -128.55 	 74.3193 	 -48.4826
| 38> H 	 -127.276 	 75.1251 	 -49.4512
| 39> H 	 -129.962 	 68.8567 	 -43.3316
| 40> H 	 -122.791 	 70.3867 	 -46.7176
| 41> *
| 42>
| 43>                          ****END OF INPUT****

CARTESIAN COORDINATES (ANGSTROEM)
---------------------------------
  S    -127.810000   69.017500  -44.596800
  C    -129.240000   69.552100  -43.711500
  C    -129.197000   70.840700  -43.299200
  C    -127.950000   71.489400  -43.834500
  C    -127.267000   70.686900  -44.664500
  H    -127.812000   72.558900  -43.875500
  C    -130.156000   71.606400  -42.424000
  H    -130.165000   71.046000  -41.471900
  H    -131.210000   71.391000  -42.820400
  C    -129.880000   73.038500  -42.097300
  H    -129.040000   73.144200  -41.460200
  H    -129.607000   73.392200  -43.078000
  C    -131.020000   73.861200  -41.677800
  H    -131.838000   73.957300  -42.406200
  H    -131.447000   73.412800  -40.809900
  H    -130.799000   74.937000  -41.378100
  S    -124.651000   69.853500  -45.086200
  C    -123.767000   70.638000  -46.366000
  C    -124.375000   71.864400  -46.781200
  C    -125.627000   72.062200  -46.141500
  C    -125.976000   71.019900  -45.281200
  H    -123.840000   72.392700  -47.541100
  C    -126.629000   73.183100  -46.603700
  H    -126.544000   73.958000  -45.810500
  H    -127.606000   72.836600  -46.573600
  C    -126.460000   73.603700  -48.077700
  H    -126.665000   72.661500  -48.730400
  H    -125.466000   73.980500  -48.387300
  C    -127.541000   74.624300  -48.500000
  H    -127.483000   75.403100  -47.728000
  H    -128.550000   74.319300  -48.482600
  H    -127.276000   75.125100  -49.451200
  H    -129.962000   68.856700  -43.331600
  H    -122.791000   70.386700  -46.717600

 Total Charge           Charge          ....    0
 Multiplicity           Mult            ....    1
 Number of Electrons    NEL             ....  134
 Basis Dimension        Dim             ....  322

ORBITAL ENERGIES
----------------

  NO   OCC          E(Eh)            E(eV)
   0   2.0000     -88.968418     -2420.9537
   1   2.0000     -88.964139     -2420.8373
   2   2.0000     -10.326573      -281.0003
   3   2.0000     -10.326274      -280.9922
   4   2.0000     -10.316573      -280.7282
   5   2.0000     -10.309112      -280.5252
   6   2.0000     -10.307265      -280.4749
   7   2.0000     -10.305361      -280.4231
   8   2.0000     -10.298498      -280.2364
   9   2.0000     -10.298190      -280.2280
  10   2.0000     -10.296053      -280.1698
  11   2.0000     -10.294634      -280.1312
  12   2.0000     -10.291906      -280.0570
  13   2.0000     -10.280892      -279.7573
  14   2.0000     -10.280706      -279.7522
  15   2.0000     -10.277434      -279.6632
  16   2.0000      -8.082492      -219.9358
  17   2.0000      -8.078786      -219.8350
  18   2.0000      -6.040939      -164.3823
  19   2.0000      -6.037483      -164.2883
  20   2.0000      -6.037038      -164.2762
  21   2.0000      -6.033551      -164.1813
  22   2.0000      -6.033421      -164.1777
  23   2.0000      -6.029104      -164.0603
  24   2.0000      -1.003463       -27.3056
  25   2.0000      -0.978668       -26.6309
  26   2.0000      -0.924501       -25.1570
  27   2.0000      -0.905089       -24.6287
  28   2.0000      -0.872020       -23.7289
  29   2.0000      -0.851863       -23.1804
  30   2.0000      -0.843793       -22.9608
  31   2.0000      -0.814147       -22.1541
  32   2.0000      -0.783936       -21.3320
  33   2.0000      -0.774002       -21.0617
  34   2.0000      -0.712162       -19.3789
  35   2.0000      -0.699076       -19.0228
  36   2.0000      -0.689670       -18.7669
  37   2.0000      -0.652183       -17.7468
  38   2.0000      -0.639888       -17.4122
  39   2.0000      -0.621431       -16.9100
  40   2.0000      -0.594096       -16.1662
  41   2.0000      -0.580963       -15.8088
  42   2.0000      -0.566468       -15.4144
  43   2.0000      -0.562880       -15.3167
  44   2.0000      -0.529848       -14.4179
  45   2.0000      -0.524357       -14.2685
  46   2.0000      -0.519051       -14.1241
  47   2.0000      -0.511813       -13.9271
  48   2.0000      -0.497326       -13.5329
  49   2.0000      -0.495518       -13.4837
  50   2.0000      -0.489807       -13.3283
  51   2.0000      -0.482227       -13.1221
  52   2.0000      -0.481255       -13.0956
  53   2.0000      -0.467771       -12.7287
  54   2.0000      -0.452799       -12.3213
  55   2.0000      -0.449939       -12.2435
  56   2.0000      -0.447591       -12.1796
  57   2.0000      -0.437804       -11.9133
  58   2.0000      -0.433886       -11.8066
  59   2.0000      -0.431802       -11.7499
  60   2.0000      -0.422402       -11.4942
  61   2.0000      -0.408305       -11.1105
  62   2.0000      -0.404178       -10.9982
  63   2.0000      -0.348369        -9.4796
  64   2.0000      -0.334419        -9.1000
  65   2.0000      -0.323710        -8.8086
  66   2.0000      -0.289787        -7.8855
  67   0.0000       0.028117         0.7651
  68   0.0000       0.068987         1.8772
  69   0.0000       0.106571         2.8999
  70   0.0000       0.125801         3.4232
  71   0.0000       0.131699         3.5837

MULLIKEN ATOMIC CHARGES
-----------------------
   0 S :    0.099458
   1 C :   -0.121615
   2 C :   -0.091387
   3 C :    0.008969
   4 C :   -0.123056
   5 H :    0.020166
   6 C :    0.023892
   7 H :    0.032890
   8 H :    0.043624
   9 C :   -0.029797
  10 H :    0.031674
  11 H :    0.020318
  12 C :   -0.041137
  13 H :    0.031534
  14 H :    0.015414
  15 H :    0.041106
  16 S :    0.114688
  17 C :   -0.096961
  18 C :   -0.054639
  19 C :   -0.017435
  20 C :   -0.165256
  21 H :    0.016235
  22 C :    0.077988
  23 H :    0.047492
  24 H :    0.018876
  25 C :   -0.130339
  26 H :    0.051896
  27 H :    0.040584
  28 C :   -0.032186
  29 H :    0.015697
  30 H :    0.030889
  31 H :    0.039694
  32 H :    0.034874
  33 H :    0.045851
Sum of atomic charges:   -0.0000000

LOEWDIN ATOMIC CHARGES
----------------------
   0 S :    0.384761
   1 C :   -0.191428
   2 C :   -0.054865
   3 C :   -0.066973
   4 C :   -0.183672
   5 H :    0.028397
   6 C :   -0.042324
   7 H :    0.035575
   8 H :    0.043330
   9 C :   -0.046896
  10 H :    0.026253
  11 H :    0.023455
  12 C :   -0.064005
  13 H :    0.027357
  14 H :    0.018424
  15 H :    0.036361
  16 S :    0.401555
  17 C :   -0.187172
  18 C :   -0.068425
  19 C :   -0.052681
  20 C :   -0.191534
  21 H :    0.029419
  22 C :   -0.027878
  23 H :    0.034408
  24 H :    0.022937
  25 C :   -0.046228
  26 H :    0.037528
  27 H :    0.022284
  28 C :   -0.066562
  29 H :    0.023894
  30 H :    0.018486
  31 H :    0.031375
  32 H :    0.022994
  33 H :    0.021850

  Mayer bond orders larger than 0.100000
B(  0-S ,  1-C ) :   1.1061 B(  0-S ,  4-C ) :   1.1256 B(  1-C ,  2-C ) :   1.6926
B(  1-C , 32-H ) :   0.9696 B(  2-C ,  3-C ) :   1.1850 B(  2-C ,  6-C ) :   1.0088
B(  3-C ,  4-C ) :   1.6359 B(  3-C ,  5-H ) :   0.9796 B(  4-C , 20-C ) :   1.0331
B(  6-C ,  7-H ) :   0.9206 B(  6-C ,  8-H ) :   0.9416 B(  6-C ,  9-C ) :   1.0774
B(  9-C , 10-H ) :   0.9434 B(  9-C , 11-H ) :   0.9471 B(  9-C , 12-C ) :   1.0952
B( 12-C , 13-H ) :   0.9724 B( 12-C , 14-H ) :   0.9701 B( 12-C , 15-H ) :   0.9696
B( 16-S , 17-C ) :   1.1628 B( 16-S , 20-C ) :   1.1402 B( 17-C , 18-C ) :   1.5983
B( 17-C , 20-C ) :   0.1046 B( 17-C , 33-H ) :   0.9670 B( 18-C , 19-C ) :   1.2501
B( 18-C , 21-H ) :   0.9957 B( 19-C , 20-C ) :   1.5952 B( 19-C , 22-C ) :   1.0172
B( 22-C , 23-H ) :   0.9295 B( 22-C , 24-H ) :   0.9407 B( 22-C , 25-C ) :   1.0651
B( 25-C , 26-H ) :   0.9572 B( 25-C , 27-H ) :   0.9526 B( 25-C , 28-C ) :   1.0777
B( 28-C , 29-H ) :   0.9726 B( 28-C , 30-H ) :   0.9771 B( 28-C , 31-H ) :   0.9742

Dispersion correction           -0.013468835
FINAL SINGLE POINT ENERGY     -1339.856234555447

DIPOLE MOMENT
-------------
                                X             Y             Z
Electronic contribution:     16.55095     -25.98541       1.20012
Nuclear contribution   :    -16.87894      26.60075      -1.17508
                        -----------------------------------------
Total Dipole Moment    :     -0.32798       0.61534       0.02505
                        -----------------------------------------
Magnitude (a.u.)       :      0.69774
Magnitude (Debye)      :      1.77352

Rotational constants in cm-1:     0.015948     0.008893     0.006456
Rotational constants in MHz :   478.102115   266.617136   193.537638

                             ****ORCA TERMINATED NORMALLY****
TOTAL RUN TIME: 0 days 0 hours 0 minutes 20 seconds 34 msec
