                         Program Version 4.2.1 -  RELEASE  -
|  1> ! wB97X-D3 SP def2-SVP
|  2> %pal
|  3> nprocs 24
|  4> end
|  5>
|  6> * xyz 0 1
|  7> S 	 47.9303 	 -24.8385 	 -118.277
|  8> C 	 46.5584 	 -25.85 	 -117.904
|  9> C 	 46.5634 	 -26.2387 	 -116.575
| 10> C 	 47.7755 	 -25.7933 	 -115.916
| 11> C 	 48.5886 	 -24.941 	 -116.677
| 12> H 	 48.114 	 -26.0608 	 -114.891
| 13> C 	 45.4739 	 -27.0266 	 -115.818
| 14> H 	 45.9322 	 -27.9432 	 -115.365
| 15> H 	 44.7414 	 -27.3748 	 -116.549
| 16> C 	 44.7177 	 -26.311 	 -114.69
| 17> H 	 44.219 	 -25.4252 	 -115.089
| 18> H 	 43.8301 	 -26.9394 	 -114.418
| 19> C 	 45.4733 	 -25.8936 	 -113.462
| 20> H 	 44.8136 	 -25.7749 	 -112.613
| 21> H 	 46.0927 	 -26.6764 	 -113.03
| 22> H 	 46.2429 	 -25.0976 	 -113.676
| 23> S 	 51.116 	 -24.0985 	 -117.182
| 24> C 	 52.1482 	 -23.3026 	 -116.074
| 25> C 	 51.3898 	 -23.1412 	 -114.928
| 26> C 	 50.0817 	 -23.7674 	 -114.944
| 27> C 	 49.7784 	 -24.2469 	 -116.189
| 28> H 	 51.9491 	 -22.7506 	 -114.11
| 29> C 	 49.1112 	 -23.7209 	 -113.735
| 30> H 	 48.1163 	 -23.8943 	 -114.142
| 31> H 	 49.0913 	 -22.6626 	 -113.308
| 32> C 	 49.4264 	 -24.8022 	 -112.625
| 33> H 	 50.5084 	 -24.8367 	 -112.252
| 34> H 	 49.2267 	 -25.7921 	 -113.138
| 35> C 	 48.5559 	 -24.6991 	 -111.321
| 36> H 	 47.471 	 -24.4769 	 -111.541
| 37> H 	 48.9658 	 -24.0022 	 -110.582
| 38> H 	 48.7489 	 -25.6197 	 -110.817
| 39> H 	 45.7756 	 -26.011 	 -118.638
| 40> H 	 52.9731 	 -22.8019 	 -116.319
| 41> *
| 42>
| 43>                          ****END OF INPUT****

CARTESIAN COORDINATES (ANGSTROEM)
---------------------------------
  S     47.930300  -24.838500  -118.277000
  C     46.558400  -25.850000  -117.904000
  C     46.563400  -26.238700  -116.575000
  C     47.775500  -25.793300  -115.916000
  C     48.588600  -24.941000  -116.677000
  H     48.114000  -26.060800  -114.891000
  C     45.473900  -27.026600  -115.818000
  H     45.932200  -27.943200  -115.365000
  H     44.741400  -27.374800  -116.549000
  C     44.717700  -26.311000  -114.690000
  H     44.219000  -25.425200  -115.089000
  H     43.830100  -26.939400  -114.418000
  C     45.473300  -25.893600  -113.462000
  H     44.813600  -25.774900  -112.613000
  H     46.092700  -26.676400  -113.030000
  H     46.242900  -25.097600  -113.676000
  S     51.116000  -24.098500  -117.182000
  C     52.148200  -23.302600  -116.074000
  C     51.389800  -23.141200  -114.928000
  C     50.081700  -23.767400  -114.944000
  C     49.778400  -24.246900  -116.189000
  H     51.949100  -22.750600  -114.110000
  C     49.111200  -23.720900  -113.735000
  H     48.116300  -23.894300  -114.142000
  H     49.091300  -22.662600  -113.308000
  C     49.426400  -24.802200  -112.625000
  H     50.508400  -24.836700  -112.252000
  H     49.226700  -25.792100  -113.138000
  C     48.555900  -24.699100  -111.321000
  H     47.471000  -24.476900  -111.541000
  H     48.965800  -24.002200  -110.582000
  H     48.748900  -25.619700  -110.817000
  H     45.775600  -26.011000  -118.638000
  H     52.973100  -22.801900  -116.319000

 Total Charge           Charge          ....    0
 Multiplicity           Mult            ....    1
 Number of Electrons    NEL             ....  134
 Basis Dimension        Dim             ....  322

ORBITAL ENERGIES
----------------

  NO   OCC          E(Eh)            E(eV)
   0   2.0000     -88.968795     -2420.9640
   1   2.0000     -88.959087     -2420.6998
   2   2.0000     -10.333633      -281.1925
   3   2.0000     -10.324103      -280.9331
   4   2.0000     -10.319346      -280.8037
   5   2.0000     -10.309476      -280.5351
   6   2.0000     -10.306961      -280.4667
   7   2.0000     -10.304999      -280.4133
   8   2.0000     -10.304155      -280.3903
   9   2.0000     -10.301815      -280.3266
  10   2.0000     -10.300658      -280.2952
  11   2.0000     -10.300618      -280.2941
  12   2.0000     -10.293269      -280.0941
  13   2.0000     -10.290499      -280.0187
  14   2.0000     -10.284246      -279.8486
  15   2.0000     -10.280938      -279.7585
  16   2.0000      -8.083754      -219.9701
  17   2.0000      -8.076404      -219.7701
  18   2.0000      -6.042269      -164.4185
  19   2.0000      -6.038145      -164.3063
  20   2.0000      -6.034785      -164.2149
  21   2.0000      -6.034567      -164.2089
  22   2.0000      -6.030207      -164.0903
  23   2.0000      -6.027461      -164.0155
  24   2.0000      -1.018414       -27.7124
  25   2.0000      -0.990726       -26.9590
  26   2.0000      -0.911604       -24.8060
  27   2.0000      -0.898412       -24.4470
  28   2.0000      -0.876227       -23.8433
  29   2.0000      -0.850336       -23.1388
  30   2.0000      -0.842123       -22.9153
  31   2.0000      -0.820123       -22.3167
  32   2.0000      -0.786356       -21.3978
  33   2.0000      -0.776444       -21.1281
  34   2.0000      -0.705842       -19.2069
  35   2.0000      -0.700549       -19.0629
  36   2.0000      -0.693270       -18.8648
  37   2.0000      -0.667262       -18.1571
  38   2.0000      -0.643155       -17.5011
  39   2.0000      -0.619679       -16.8623
  40   2.0000      -0.594378       -16.1739
  41   2.0000      -0.575509       -15.6604
  42   2.0000      -0.556388       -15.1401
  43   2.0000      -0.549741       -14.9592
  44   2.0000      -0.540937       -14.7196
  45   2.0000      -0.533733       -14.5236
  46   2.0000      -0.523756       -14.2521
  47   2.0000      -0.511883       -13.9291
  48   2.0000      -0.509770       -13.8715
  49   2.0000      -0.500714       -13.6251
  50   2.0000      -0.494322       -13.4512
  51   2.0000      -0.487544       -13.2668
  52   2.0000      -0.476682       -12.9712
  53   2.0000      -0.466204       -12.6861
  54   2.0000      -0.459721       -12.5097
  55   2.0000      -0.442424       -12.0390
  56   2.0000      -0.442206       -12.0330
  57   2.0000      -0.436578       -11.8799
  58   2.0000      -0.432571       -11.7708
  59   2.0000      -0.426780       -11.6133
  60   2.0000      -0.417040       -11.3482
  61   2.0000      -0.409039       -11.1305
  62   2.0000      -0.407014       -11.0754
  63   2.0000      -0.358108        -9.7446
  64   2.0000      -0.330442        -8.9918
  65   2.0000      -0.326203        -8.8764
  66   2.0000      -0.296047        -8.0558
  67   0.0000       0.027204         0.7403
  68   0.0000       0.083397         2.2694
  69   0.0000       0.113331         3.0839
  70   0.0000       0.121969         3.3189
  71   0.0000       0.129539         3.5249

MULLIKEN ATOMIC CHARGES
-----------------------
   0 S :    0.116624
   1 C :   -0.133870
   2 C :   -0.067599
   3 C :   -0.015543
   4 C :   -0.125394
   5 H :    0.008812
   6 C :    0.066821
   7 H :    0.040596
   8 H :    0.018921
   9 C :   -0.068222
  10 H :    0.026047
  11 H :    0.031970
  12 C :   -0.054929
  13 H :    0.034421
  14 H :    0.009584
  15 H :    0.046803
  16 S :    0.094196
  17 C :   -0.044807
  18 C :   -0.038399
  19 C :   -0.058636
  20 C :   -0.113537
  21 H :    0.014403
  22 C :    0.036715
  23 H :    0.030622
  24 H :    0.043518
  25 C :   -0.125416
  26 H :    0.045401
  27 H :    0.039718
  28 C :   -0.046393
  29 H :    0.051328
  30 H :    0.033959
  31 H :    0.028225
  32 H :    0.054850
  33 H :    0.019213
Sum of atomic charges:   -0.0000000

LOEWDIN ATOMIC CHARGES
----------------------
   0 S :    0.418521
   1 C :   -0.196951
   2 C :   -0.063613
   3 C :   -0.068584
   4 C :   -0.199317
   5 H :    0.031698
   6 C :   -0.031883
   7 H :    0.036623
   8 H :    0.031059
   9 C :   -0.047474
  10 H :    0.025744
  11 H :    0.031510
  12 C :   -0.079340
  13 H :    0.031869
  14 H :    0.021511
  15 H :    0.030946
  16 S :    0.450191
  17 C :   -0.180638
  18 C :   -0.064321
  19 C :   -0.064531
  20 C :   -0.220656
  21 H :    0.025881
  22 C :   -0.036998
  23 H :    0.024922
  24 H :    0.037656
  25 C :   -0.046737
  26 H :    0.033243
  27 H :    0.023136
  28 C :   -0.074241
  29 H :    0.032115
  30 H :    0.026853
  31 H :    0.025564
  32 H :    0.030015
  33 H :    0.006226

  Mayer bond orders larger than 0.100000
B(  0-S ,  1-C ) :   1.1462 B(  0-S ,  4-C ) :   1.1596 B(  1-C ,  2-C ) :   1.6032
B(  1-C , 32-H ) :   0.9689 B(  2-C ,  3-C ) :   1.2418 B(  2-C ,  6-C ) :   1.0234
B(  3-C ,  4-C ) :   1.5540 B(  3-C ,  5-H ) :   0.9820 B(  4-C , 20-C ) :   1.0344
B(  6-C ,  7-H ) :   0.9411 B(  6-C ,  8-H ) :   0.9373 B(  6-C ,  9-C ) :   1.0772
B(  9-C , 10-H ) :   0.9480 B(  9-C , 11-H ) :   0.9518 B(  9-C , 12-C ) :   1.0912
B( 12-C , 13-H ) :   0.9649 B( 12-C , 14-H ) :   0.9654 B( 12-C , 15-H ) :   0.9626
B( 16-S , 17-C ) :   1.1703 B( 16-S , 20-C ) :   1.1740 B( 17-C , 18-C ) :   1.5851
B( 17-C , 33-H ) :   0.9845 B( 18-C , 19-C ) :   1.2574 B( 18-C , 21-H ) :   0.9930
B( 19-C , 20-C ) :   1.5660 B( 19-C , 22-C ) :   1.0348 B( 22-C , 23-H ) :   0.9361
B( 22-C , 24-H ) :   0.9429 B( 22-C , 25-C ) :   1.0442 B( 25-C , 26-H ) :   0.9572
B( 25-C , 27-H ) :   0.9514 B( 25-C , 28-C ) :   1.0732 B( 28-C , 29-H ) :   0.9717
B( 28-C , 30-H ) :   0.9743 B( 28-C , 31-H ) :   0.9720

Dispersion correction           -0.015917041
FINAL SINGLE POINT ENERGY     -1339.873170810396

DIPOLE MOMENT
-------------
                                X             Y             Z
Electronic contribution:     15.52613       6.04209     -28.94713
Nuclear contribution   :    -15.84842      -6.13926      29.60510
                        -----------------------------------------
Total Dipole Moment    :     -0.32229      -0.09718       0.65796
                        -----------------------------------------
Magnitude (a.u.)       :      0.73907
Magnitude (Debye)      :      1.87858

Rotational constants in cm-1:     0.016579     0.011380     0.007008
Rotational constants in MHz :   497.031028   341.155532   210.081342

                             ****ORCA TERMINATED NORMALLY****
TOTAL RUN TIME: 0 days 0 hours 0 minutes 23 seconds 10 msec
