                         Program Version 4.2.1 -  RELEASE  -
|  1> ! wB97X-D3 SP def2-SVP
|  2> %pal
|  3> nprocs 24
|  4> end
|  5>
|  6> * xyz 0 1
|  7> S 	 -103.632 	 -0.462393 	 -123.557
|  8> C 	 -104.748 	 -0.101879 	 -122.128
|  9> C 	 -103.961 	 0.41842 	 -121.043
| 10> C 	 -102.588 	 0.439854 	 -121.331
| 11> C 	 -102.21 	 -0.0682304 	 -122.555
| 12> H 	 -101.77 	 0.767612 	 -120.699
| 13> C 	 -104.638 	 1.02138 	 -119.771
| 14> H 	 -104.122 	 0.658884 	 -118.919
| 15> H 	 -105.656 	 0.729017 	 -119.762
| 16> C 	 -104.625 	 2.50807 	 -119.778
| 17> H 	 -103.647 	 2.94023 	 -119.619
| 18> H 	 -104.95 	 2.93214 	 -120.699
| 19> C 	 -105.53 	 3.22663 	 -118.738
| 20> H 	 -105.059 	 3.11442 	 -117.778
| 21> H 	 -105.681 	 4.29708 	 -118.909
| 22> H 	 -106.564 	 2.79732 	 -118.704
| 23> S 	 -100.522 	 -1.70193 	 -123.934
| 24> C 	 -98.8171 	 -1.44137 	 -123.758
| 25> C 	 -98.5056 	 -0.232947 	 -123.316
| 26> C 	 -99.6841 	 0.461051 	 -122.812
| 27> C 	 -100.858 	 -0.275572 	 -123.027
| 28> H 	 -97.4954 	 0.105294 	 -123.251
| 29> C 	 -99.4365 	 1.722 	 -122.055
| 30> H 	 -98.4727 	 2.13012 	 -122.423
| 31> H 	 -99.2855 	 1.47493 	 -120.992
| 32> C 	 -100.466 	 2.89665 	 -122.209
| 33> H 	 -99.9881 	 3.75245 	 -121.678
| 34> H 	 -101.421 	 2.66042 	 -121.843
| 35> C 	 -100.694 	 3.26618 	 -123.708
| 36> H 	 -101.058 	 2.38493 	 -124.256
| 37> H 	 -99.8028 	 3.55515 	 -124.362
| 38> H 	 -101.531 	 3.98732 	 -123.816
| 39> H 	 -105.767 	 -0.324389 	 -122.052
| 40> H 	 -98.0538 	 -2.08888 	 -124.2
| 41> *
| 42>
| 43>                          ****END OF INPUT****

CARTESIAN COORDINATES (ANGSTROEM)
---------------------------------
  S    -103.632000   -0.462393  -123.557000
  C    -104.748000   -0.101879  -122.128000
  C    -103.961000    0.418420  -121.043000
  C    -102.588000    0.439854  -121.331000
  C    -102.210000   -0.068230  -122.555000
  H    -101.770000    0.767612  -120.699000
  C    -104.638000    1.021380  -119.771000
  H    -104.122000    0.658884  -118.919000
  H    -105.656000    0.729017  -119.762000
  C    -104.625000    2.508070  -119.778000
  H    -103.647000    2.940230  -119.619000
  H    -104.950000    2.932140  -120.699000
  C    -105.530000    3.226630  -118.738000
  H    -105.059000    3.114420  -117.778000
  H    -105.681000    4.297080  -118.909000
  H    -106.564000    2.797320  -118.704000
  S    -100.522000   -1.701930  -123.934000
  C    -98.817100   -1.441370  -123.758000
  C    -98.505600   -0.232947  -123.316000
  C    -99.684100    0.461051  -122.812000
  C    -100.858000   -0.275572  -123.027000
  H    -97.495400    0.105294  -123.251000
  C    -99.436500    1.722000  -122.055000
  H    -98.472700    2.130120  -122.423000
  H    -99.285500    1.474930  -120.992000
  C    -100.466000    2.896650  -122.209000
  H    -99.988100    3.752450  -121.678000
  H    -101.421000    2.660420  -121.843000
  C    -100.694000    3.266180  -123.708000
  H    -101.058000    2.384930  -124.256000
  H    -99.802800    3.555150  -124.362000
  H    -101.531000    3.987320  -123.816000
  H    -105.767000   -0.324389  -122.052000
  H    -98.053800   -2.088880  -124.200000

 Total Charge           Charge          ....    0
 Multiplicity           Mult            ....    1
 Number of Electrons    NEL             ....  134
 Basis Dimension        Dim             ....  322

ORBITAL ENERGIES
----------------

  NO   OCC          E(Eh)            E(eV)
   0   2.0000     -88.969876     -2420.9934
   1   2.0000     -88.964612     -2420.8502
   2   2.0000     -10.334133      -281.2061
   3   2.0000     -10.326895      -281.0091
   4   2.0000     -10.322895      -280.9003
   5   2.0000     -10.311899      -280.6010
   6   2.0000     -10.311768      -280.5975
   7   2.0000     -10.306329      -280.4495
   8   2.0000     -10.297094      -280.1982
   9   2.0000     -10.293604      -280.1032
  10   2.0000     -10.291425      -280.0439
  11   2.0000     -10.288991      -279.9777
  12   2.0000     -10.287285      -279.9313
  13   2.0000     -10.280420      -279.7444
  14   2.0000     -10.280059      -279.7346
  15   2.0000     -10.278630      -279.6958
  16   2.0000      -8.082297      -219.9305
  17   2.0000      -8.080480      -219.8810
  18   2.0000      -6.041003      -164.3840
  19   2.0000      -6.039054      -164.3310
  20   2.0000      -6.037229      -164.2814
  21   2.0000      -6.034957      -164.2195
  22   2.0000      -6.032898      -164.1635
  23   2.0000      -6.030962      -164.1108
  24   2.0000      -1.010132       -27.4871
  25   2.0000      -0.977592       -26.6016
  26   2.0000      -0.915762       -24.9191
  27   2.0000      -0.905938       -24.6518
  28   2.0000      -0.872677       -23.7467
  29   2.0000      -0.844863       -22.9899
  30   2.0000      -0.842645       -22.9295
  31   2.0000      -0.817647       -22.2493
  32   2.0000      -0.784252       -21.3406
  33   2.0000      -0.770280       -20.9604
  34   2.0000      -0.712726       -19.3943
  35   2.0000      -0.699628       -19.0378
  36   2.0000      -0.689008       -18.7489
  37   2.0000      -0.665903       -18.1201
  38   2.0000      -0.643843       -17.5199
  39   2.0000      -0.618273       -16.8241
  40   2.0000      -0.593701       -16.1554
  41   2.0000      -0.577545       -15.7158
  42   2.0000      -0.563254       -15.3269
  43   2.0000      -0.556048       -15.1308
  44   2.0000      -0.538439       -14.6517
  45   2.0000      -0.524327       -14.2677
  46   2.0000      -0.517532       -14.0828
  47   2.0000      -0.510625       -13.8948
  48   2.0000      -0.506216       -13.7748
  49   2.0000      -0.496121       -13.5001
  50   2.0000      -0.491940       -13.3864
  51   2.0000      -0.476579       -12.9684
  52   2.0000      -0.475921       -12.9505
  53   2.0000      -0.467899       -12.7322
  54   2.0000      -0.457872       -12.4593
  55   2.0000      -0.447271       -12.1709
  56   2.0000      -0.440896       -11.9974
  57   2.0000      -0.434117       -11.8129
  58   2.0000      -0.431157       -11.7324
  59   2.0000      -0.427876       -11.6431
  60   2.0000      -0.421765       -11.4768
  61   2.0000      -0.412945       -11.2368
  62   2.0000      -0.410881       -11.1806
  63   2.0000      -0.354910        -9.6576
  64   2.0000      -0.335748        -9.1362
  65   2.0000      -0.327258        -8.9051
  66   2.0000      -0.285832        -7.7779
  67   0.0000       0.018730         0.5097
  68   0.0000       0.072966         1.9855
  69   0.0000       0.096144         2.6162
  70   0.0000       0.127349         3.4653
  71   0.0000       0.129950         3.5361

MULLIKEN ATOMIC CHARGES
-----------------------
   0 S :    0.089852
   1 C :   -0.108755
   2 C :   -0.101085
   3 C :    0.014045
   4 C :   -0.136263
   5 H :    0.013132
   6 C :    0.154897
   7 H :    0.020974
   8 H :    0.000649
   9 C :   -0.076064
  10 H :    0.023886
  11 H :    0.019856
  12 C :   -0.072538
  13 H :    0.026308
  14 H :    0.039821
  15 H :    0.031683
  16 S :    0.110091
  17 C :   -0.078421
  18 C :   -0.022331
  19 C :   -0.058247
  20 C :   -0.136885
  21 H :    0.012644
  22 C :    0.015601
  23 H :    0.024758
  24 H :    0.053495
  25 C :   -0.036201
  26 H :    0.038366
  27 H :    0.030361
  28 C :   -0.101899
  29 H :    0.037232
  30 H :    0.038692
  31 H :    0.039373
  32 H :    0.035742
  33 H :    0.057230
Sum of atomic charges:    0.0000000

LOEWDIN ATOMIC CHARGES
----------------------
   0 S :    0.352919
   1 C :   -0.169742
   2 C :   -0.044238
   3 C :   -0.072742
   4 C :   -0.171530
   5 H :    0.033382
   6 C :   -0.014808
   7 H :    0.027264
   8 H :    0.025502
   9 C :   -0.042466
  10 H :    0.021725
  11 H :    0.020985
  12 C :   -0.066669
  13 H :    0.019244
  14 H :    0.028768
  15 H :    0.025750
  16 S :    0.417521
  17 C :   -0.182967
  18 C :   -0.067711
  19 C :   -0.052471
  20 C :   -0.212301
  21 H :    0.030925
  22 C :   -0.040372
  23 H :    0.035465
  24 H :    0.035816
  25 C :   -0.035884
  26 H :    0.029642
  27 H :    0.015011
  28 C :   -0.080370
  29 H :    0.026576
  30 H :    0.029568
  31 H :    0.028604
  32 H :    0.016709
  33 H :    0.032893

  Mayer bond orders larger than 0.100000
B(  0-S ,  1-C ) :   1.1127 B(  0-S ,  4-C ) :   1.1334 B(  1-C ,  2-C ) :   1.5988
B(  1-C ,  4-C ) :   0.1155 B(  1-C , 32-H ) :   0.9755 B(  2-C ,  3-C ) :   1.2436
B(  2-C ,  6-C ) :   1.0323 B(  3-C ,  4-C ) :   1.5819 B(  3-C ,  5-H ) :   0.9872
B(  4-C , 20-C ) :   1.0698 B(  6-C ,  7-H ) :   0.9335 B(  6-C ,  8-H ) :   0.9336
B(  6-C ,  9-C ) :   1.0705 B(  9-C , 10-H ) :   0.9525 B(  9-C , 11-H ) :   0.9567
B(  9-C , 12-C ) :   1.0828 B( 12-C , 13-H ) :   0.9775 B( 12-C , 14-H ) :   0.9769
B( 12-C , 15-H ) :   0.9751 B( 16-S , 17-C ) :   1.1450 B( 16-S , 20-C ) :   1.1286
B( 17-C , 18-C ) :   1.6528 B( 17-C , 33-H ) :   0.9580 B( 18-C , 19-C ) :   1.2205
B( 18-C , 21-H ) :   0.9947 B( 19-C , 20-C ) :   1.5775 B( 19-C , 22-C ) :   1.0428
B( 22-C , 23-H ) :   0.9347 B( 22-C , 24-H ) :   0.9310 B( 22-C , 25-C ) :   1.0698
B( 25-C , 26-H ) :   0.9567 B( 25-C , 27-H ) :   0.9499 B( 25-C , 28-C ) :   1.0718
B( 28-C , 29-H ) :   0.9696 B( 28-C , 30-H ) :   0.9768 B( 28-C , 31-H ) :   0.9758

Dispersion correction           -0.015283003
FINAL SINGLE POINT ENERGY     -1339.868788754741

DIPOLE MOMENT
-------------
                                X             Y             Z
Electronic contribution:      4.69241     -24.36902     -16.16294
Nuclear contribution   :     -4.42763      24.78008      16.67146
                        -----------------------------------------
Total Dipole Moment    :      0.26478       0.41106       0.50852
                        -----------------------------------------
Magnitude (a.u.)       :      0.70546
Magnitude (Debye)      :      1.79313

Rotational constants in cm-1:     0.021453     0.008755     0.007090
Rotational constants in MHz :   643.145363   262.459856   212.540126

                             ****ORCA TERMINATED NORMALLY****
TOTAL RUN TIME: 0 days 0 hours 0 minutes 21 seconds 420 msec
