                         Program Version 4.2.1 -  RELEASE  -
|  1> ! wB97X-D3 SP def2-SVP
|  2> %pal
|  3> nprocs 24
|  4> end
|  5>
|  6> * xyz 0 1
|  7> S 	 -101.093 	 42.4212 	 -86.4971
|  8> C 	 -101.486 	 42.4842 	 -88.2147
|  9> C 	 -102.364 	 43.5807 	 -88.4874
| 10> C 	 -102.673 	 44.2917 	 -87.278
| 11> C 	 -101.935 	 43.9416 	 -86.1797
| 12> H 	 -103.366 	 45.1269 	 -87.2352
| 13> C 	 -102.999 	 43.9777 	 -89.7649
| 14> H 	 -102.137 	 44.0993 	 -90.4128
| 15> H 	 -103.447 	 45.0162 	 -89.5439
| 16> C 	 -104.266 	 43.161 	 -90.307
| 17> H 	 -104.665 	 43.7166 	 -91.2
| 18> H 	 -104.021 	 42.2848 	 -90.7661
| 19> C 	 -105.311 	 42.9796 	 -89.2783
| 20> H 	 -105.646 	 43.9481 	 -88.7964
| 21> H 	 -106.236 	 42.5903 	 -89.7069
| 22> H 	 -104.991 	 42.3671 	 -88.4637
| 23> S 	 -100.877 	 45.6919 	 -84.3243
| 24> C 	 -101.829 	 46.0457 	 -82.8449
| 25> C 	 -103.04 	 45.4362 	 -82.8543
| 26> C 	 -103.192 	 44.5722 	 -84.0245
| 27> C 	 -102.098 	 44.4953 	 -84.8948
| 28> H 	 -103.775 	 45.6973 	 -82.1533
| 29> C 	 -104.581 	 44.0572 	 -84.3406
| 30> H 	 -105.013 	 44.1911 	 -85.3531
| 31> H 	 -105.351 	 44.5854 	 -83.6687
| 32> C 	 -104.682 	 42.5433 	 -84.0649
| 33> H 	 -104.25 	 42.383 	 -83.0856
| 34> H 	 -103.979 	 41.9107 	 -84.7786
| 35> C 	 -106.124 	 42.073 	 -84.0272
| 36> H 	 -106.681 	 42.6144 	 -83.2254
| 37> H 	 -106.31 	 41.006 	 -83.8036
| 38> H 	 -106.65 	 42.301 	 -84.9439
| 39> H 	 -101.223 	 41.7237 	 -88.9005
| 40> H 	 -101.554 	 46.7934 	 -82.1211
| 41> *
| 42>
| 43>                          ****END OF INPUT****

CARTESIAN COORDINATES (ANGSTROEM)
---------------------------------
  S    -101.093000   42.421200  -86.497100
  C    -101.486000   42.484200  -88.214700
  C    -102.364000   43.580700  -88.487400
  C    -102.673000   44.291700  -87.278000
  C    -101.935000   43.941600  -86.179700
  H    -103.366000   45.126900  -87.235200
  C    -102.999000   43.977700  -89.764900
  H    -102.137000   44.099300  -90.412800
  H    -103.447000   45.016200  -89.543900
  C    -104.266000   43.161000  -90.307000
  H    -104.665000   43.716600  -91.200000
  H    -104.021000   42.284800  -90.766100
  C    -105.311000   42.979600  -89.278300
  H    -105.646000   43.948100  -88.796400
  H    -106.236000   42.590300  -89.706900
  H    -104.991000   42.367100  -88.463700
  S    -100.877000   45.691900  -84.324300
  C    -101.829000   46.045700  -82.844900
  C    -103.040000   45.436200  -82.854300
  C    -103.192000   44.572200  -84.024500
  C    -102.098000   44.495300  -84.894800
  H    -103.775000   45.697300  -82.153300
  C    -104.581000   44.057200  -84.340600
  H    -105.013000   44.191100  -85.353100
  H    -105.351000   44.585400  -83.668700
  C    -104.682000   42.543300  -84.064900
  H    -104.250000   42.383000  -83.085600
  H    -103.979000   41.910700  -84.778600
  C    -106.124000   42.073000  -84.027200
  H    -106.681000   42.614400  -83.225400
  H    -106.310000   41.006000  -83.803600
  H    -106.650000   42.301000  -84.943900
  H    -101.223000   41.723700  -88.900500
  H    -101.554000   46.793400  -82.121100

 Total Charge           Charge          ....    0
 Multiplicity           Mult            ....    1
 Number of Electrons    NEL             ....  134
 Basis Dimension        Dim             ....  322

ORBITAL ENERGIES
----------------

  NO   OCC          E(Eh)            E(eV)
   0   2.0000     -88.968855     -2420.9656
   1   2.0000     -88.961274     -2420.7593
   2   2.0000     -10.327755      -281.0325
   3   2.0000     -10.324707      -280.9496
   4   2.0000     -10.320845      -280.8445
   5   2.0000     -10.320338      -280.8307
   6   2.0000     -10.310477      -280.5623
   7   2.0000     -10.305629      -280.4304
   8   2.0000     -10.300320      -280.2860
   9   2.0000     -10.297341      -280.2049
  10   2.0000     -10.294694      -280.1329
  11   2.0000     -10.293944      -280.1125
  12   2.0000     -10.288372      -279.9608
  13   2.0000     -10.288211      -279.9564
  14   2.0000     -10.278345      -279.6880
  15   2.0000     -10.277742      -279.6716
  16   2.0000      -8.082736      -219.9424
  17   2.0000      -8.074946      -219.7304
  18   2.0000      -6.041259      -164.3910
  19   2.0000      -6.037337      -164.2843
  20   2.0000      -6.033687      -164.1850
  21   2.0000      -6.033544      -164.1811
  22   2.0000      -6.029654      -164.0752
  23   2.0000      -6.025458      -163.9610
  24   2.0000      -1.001975       -27.2651
  25   2.0000      -0.976253       -26.5652
  26   2.0000      -0.912819       -24.8391
  27   2.0000      -0.903701       -24.5910
  28   2.0000      -0.875924       -23.8351
  29   2.0000      -0.853527       -23.2256
  30   2.0000      -0.841375       -22.8950
  31   2.0000      -0.816158       -22.2088
  32   2.0000      -0.779490       -21.2110
  33   2.0000      -0.763571       -20.7778
  34   2.0000      -0.712334       -19.3836
  35   2.0000      -0.708207       -19.2713
  36   2.0000      -0.685318       -18.6485
  37   2.0000      -0.663300       -18.0493
  38   2.0000      -0.643985       -17.5237
  39   2.0000      -0.614657       -16.7257
  40   2.0000      -0.597507       -16.2590
  41   2.0000      -0.570758       -15.5311
  42   2.0000      -0.561536       -15.2802
  43   2.0000      -0.556641       -15.1470
  44   2.0000      -0.544774       -14.8240
  45   2.0000      -0.519153       -14.1269
  46   2.0000      -0.512390       -13.9428
  47   2.0000      -0.510382       -13.8882
  48   2.0000      -0.505692       -13.7606
  49   2.0000      -0.498849       -13.5744
  50   2.0000      -0.494239       -13.4489
  51   2.0000      -0.474433       -12.9100
  52   2.0000      -0.470562       -12.8046
  53   2.0000      -0.459277       -12.4976
  54   2.0000      -0.455347       -12.3906
  55   2.0000      -0.448736       -12.2107
  56   2.0000      -0.445307       -12.1174
  57   2.0000      -0.436944       -11.8898
  58   2.0000      -0.430133       -11.7045
  59   2.0000      -0.426066       -11.5938
  60   2.0000      -0.415963       -11.3189
  61   2.0000      -0.412971       -11.2375
  62   2.0000      -0.407089       -11.0775
  63   2.0000      -0.337688        -9.1889
  64   2.0000      -0.329241        -8.9591
  65   2.0000      -0.318489        -8.6665
  66   2.0000      -0.305178        -8.3043
  67   0.0000       0.032913         0.8956
  68   0.0000       0.048192         1.3114
  69   0.0000       0.103253         2.8096
  70   0.0000       0.111170         3.0251
  71   0.0000       0.119233         3.2445

MULLIKEN ATOMIC CHARGES
-----------------------
   0 S :    0.115508
   1 C :   -0.104859
   2 C :   -0.102459
   3 C :    0.031975
   4 C :   -0.150106
   5 H :    0.018499
   6 C :    0.020556
   7 H :    0.045078
   8 H :    0.033661
   9 C :   -0.011027
  10 H :    0.029084
  11 H :    0.004212
  12 C :   -0.060044
  13 H :    0.022059
  14 H :    0.034343
  15 H :    0.044931
  16 S :    0.081485
  17 C :   -0.080624
  18 C :   -0.005589
  19 C :   -0.001835
  20 C :   -0.155140
  21 H :    0.010624
  22 C :    0.001882
  23 H :    0.034463
  24 H :    0.025954
  25 C :   -0.095886
  26 H :    0.022394
  27 H :    0.052620
  28 C :   -0.045668
  29 H :    0.024241
  30 H :    0.040247
  31 H :    0.022572
  32 H :    0.040434
  33 H :    0.056417
Sum of atomic charges:    0.0000000

LOEWDIN ATOMIC CHARGES
----------------------
   0 S :    0.406689
   1 C :   -0.186721
   2 C :   -0.066467
   3 C :   -0.048547
   4 C :   -0.206818
   5 H :    0.031371
   6 C :   -0.039299
   7 H :    0.036234
   8 H :    0.039821
   9 C :   -0.033522
  10 H :    0.032454
  11 H :    0.008675
  12 C :   -0.067084
  13 H :    0.027621
  14 H :    0.029558
  15 H :    0.024845
  16 S :    0.363868
  17 C :   -0.157598
  18 C :   -0.066939
  19 C :   -0.042806
  20 C :   -0.189892
  21 H :    0.027381
  22 C :   -0.039788
  23 H :    0.028828
  24 H :    0.033911
  25 C :   -0.050594
  26 H :    0.019353
  27 H :    0.033870
  28 C :   -0.073865
  29 H :    0.027104
  30 H :    0.029186
  31 H :    0.019979
  32 H :    0.020245
  33 H :    0.028946

  Mayer bond orders larger than 0.100000
B(  0-S ,  1-C ) :   1.1554 B(  0-S ,  4-C ) :   1.1325 B(  1-C ,  2-C ) :   1.5572
B(  1-C ,  4-C ) :   0.1059 B(  1-C , 32-H ) :   0.9799 B(  2-C ,  3-C ) :   1.2557
B(  2-C ,  6-C ) :   1.0211 B(  3-C ,  4-C ) :   1.5753 B(  3-C ,  5-H ) :   0.9897
B(  4-C , 20-C ) :   1.0561 B(  6-C ,  7-H ) :   0.9397 B(  6-C ,  8-H ) :   0.9453
B(  6-C ,  9-C ) :   1.0510 B(  9-C , 10-H ) :   0.9544 B(  9-C , 11-H ) :   0.9555
B(  9-C , 12-C ) :   1.0847 B( 12-C , 13-H ) :   0.9725 B( 12-C , 14-H ) :   0.9688
B( 12-C , 15-H ) :   0.9707 B( 16-S , 17-C ) :   1.1453 B( 16-S , 20-C ) :   1.1026
B( 17-C , 18-C ) :   1.6433 B( 17-C , 33-H ) :   0.9645 B( 18-C , 19-C ) :   1.2105
B( 18-C , 21-H ) :   0.9963 B( 19-C , 20-C ) :   1.6233 B( 19-C , 22-C ) :   1.0358
B( 22-C , 23-H ) :   0.9445 B( 22-C , 24-H ) :   0.9450 B( 22-C , 25-C ) :   1.0442
B( 25-C , 26-H ) :   0.9551 B( 25-C , 27-H ) :   0.9519 B( 25-C , 28-C ) :   1.0794
B( 28-C , 29-H ) :   0.9714 B( 28-C , 30-H ) :   0.9737 B( 28-C , 31-H ) :   0.9730

Dispersion correction           -0.015393392
FINAL SINGLE POINT ENERGY     -1339.859927543265

DIPOLE MOMENT
-------------
                                X             Y             Z
Electronic contribution:     26.33566       6.82052       9.06595
Nuclear contribution   :    -27.12031      -6.73657      -9.34869
                        -----------------------------------------
Total Dipole Moment    :     -0.78465       0.08395      -0.28274
                        -----------------------------------------
Magnitude (a.u.)       :      0.83825
Magnitude (Debye)      :      2.13066

Rotational constants in cm-1:     0.017588     0.009618     0.007569
Rotational constants in MHz :   527.280339   288.340034   226.901447

                             ****ORCA TERMINATED NORMALLY****
TOTAL RUN TIME: 0 days 0 hours 0 minutes 22 seconds 476 msec
