                         Program Version 4.2.1 -  RELEASE  -
|  1> ! wB97X-D3 SP def2-SVP
|  2> %pal
|  3> nprocs 24
|  4> end
|  5>
|  6> * xyz 0 1
|  7> S 	 -145.317 	 10.857 	 -9.11751
|  8> C 	 -144.102 	 9.70506 	 -8.66227
|  9> C 	 -144.569 	 8.69533 	 -7.91426
| 10> C 	 -145.916 	 8.83182 	 -7.57933
| 11> C 	 -146.508 	 9.95222 	 -8.16851
| 12> H 	 -146.52 	 8.13096 	 -6.99483
| 13> C 	 -143.742 	 7.49784 	 -7.57811
| 14> H 	 -143.047 	 7.23909 	 -8.40925
| 15> H 	 -144.43 	 6.68294 	 -7.38496
| 16> C 	 -142.837 	 7.69763 	 -6.29511
| 17> H 	 -142.174 	 8.51894 	 -6.53614
| 18> H 	 -143.35 	 7.95713 	 -5.35974
| 19> C 	 -142.038 	 6.38173 	 -6.05763
| 20> H 	 -141.23 	 6.41837 	 -5.38913
| 21> H 	 -142.574 	 5.51751 	 -5.61425
| 22> H 	 -141.663 	 5.99781 	 -7.04544
| 23> S 	 -149.2 	 9.62114 	 -8.41091
| 24> C 	 -150.278 	 10.8678 	 -7.83684
| 25> C 	 -149.574 	 11.9836 	 -7.42286
| 26> C 	 -148.174 	 11.7359 	 -7.33731
| 27> C 	 -147.792 	 10.5374 	 -7.86012
| 28> H 	 -150.253 	 12.8041 	 -7.08695
| 29> C 	 -147.254 	 12.7675 	 -6.67325
| 30> H 	 -146.413 	 12.9414 	 -7.44925
| 31> H 	 -146.792 	 12.2067 	 -5.82909
| 32> C 	 -147.813 	 14.0568 	 -6.12972
| 33> H 	 -148.631 	 13.7555 	 -5.4377
| 34> H 	 -148.356 	 14.6396 	 -6.82832
| 35> C 	 -146.815 	 14.7927 	 -5.27719
| 36> H 	 -145.898 	 15.0422 	 -5.87494
| 37> H 	 -146.506 	 14.097 	 -4.53787
| 38> H 	 -147.219 	 15.7058 	 -4.88435
| 39> H 	 -143.08 	 9.70267 	 -9.03354
| 40> H 	 -151.329 	 10.8642 	 -7.88868
| 41> *
| 42>
| 43>                          ****END OF INPUT****

CARTESIAN COORDINATES (ANGSTROEM)
---------------------------------
  S    -145.317000   10.857000   -9.117510
  C    -144.102000    9.705060   -8.662270
  C    -144.569000    8.695330   -7.914260
  C    -145.916000    8.831820   -7.579330
  C    -146.508000    9.952220   -8.168510
  H    -146.520000    8.130960   -6.994830
  C    -143.742000    7.497840   -7.578110
  H    -143.047000    7.239090   -8.409250
  H    -144.430000    6.682940   -7.384960
  C    -142.837000    7.697630   -6.295110
  H    -142.174000    8.518940   -6.536140
  H    -143.350000    7.957130   -5.359740
  C    -142.038000    6.381730   -6.057630
  H    -141.230000    6.418370   -5.389130
  H    -142.574000    5.517510   -5.614250
  H    -141.663000    5.997810   -7.045440
  S    -149.200000    9.621140   -8.410910
  C    -150.278000   10.867800   -7.836840
  C    -149.574000   11.983600   -7.422860
  C    -148.174000   11.735900   -7.337310
  C    -147.792000   10.537400   -7.860120
  H    -150.253000   12.804100   -7.086950
  C    -147.254000   12.767500   -6.673250
  H    -146.413000   12.941400   -7.449250
  H    -146.792000   12.206700   -5.829090
  C    -147.813000   14.056800   -6.129720
  H    -148.631000   13.755500   -5.437700
  H    -148.356000   14.639600   -6.828320
  C    -146.815000   14.792700   -5.277190
  H    -145.898000   15.042200   -5.874940
  H    -146.506000   14.097000   -4.537870
  H    -147.219000   15.705800   -4.884350
  H    -143.080000    9.702670   -9.033540
  H    -151.329000   10.864200   -7.888680

 Total Charge           Charge          ....    0
 Multiplicity           Mult            ....    1
 Number of Electrons    NEL             ....  134
 Basis Dimension        Dim             ....  322

ORBITAL ENERGIES
----------------

  NO   OCC          E(Eh)            E(eV)
   0   2.0000     -88.968032     -2420.9432
   1   2.0000     -88.961377     -2420.7621
   2   2.0000     -10.329374      -281.0766
   3   2.0000     -10.320299      -280.8296
   4   2.0000     -10.311222      -280.5826
   5   2.0000     -10.308535      -280.5095
   6   2.0000     -10.302499      -280.3452
   7   2.0000     -10.295901      -280.1657
   8   2.0000     -10.295566      -280.1566
   9   2.0000     -10.294848      -280.1371
  10   2.0000     -10.293376      -280.0970
  11   2.0000     -10.293276      -280.0943
  12   2.0000     -10.290621      -280.0220
  13   2.0000     -10.280632      -279.7502
  14   2.0000     -10.279720      -279.7254
  15   2.0000     -10.274694      -279.5886
  16   2.0000      -8.082454      -219.9347
  17   2.0000      -8.076077      -219.7612
  18   2.0000      -6.040915      -164.3817
  19   2.0000      -6.036988      -164.2748
  20   2.0000      -6.034580      -164.2093
  21   2.0000      -6.033300      -164.1744
  22   2.0000      -6.030586      -164.1006
  23   2.0000      -6.026856      -163.9991
  24   2.0000      -1.009171       -27.4609
  25   2.0000      -0.987505       -26.8714
  26   2.0000      -0.911959       -24.8157
  27   2.0000      -0.908898       -24.7324
  28   2.0000      -0.870043       -23.6751
  29   2.0000      -0.852798       -23.2058
  30   2.0000      -0.848709       -23.0945
  31   2.0000      -0.814547       -22.1650
  32   2.0000      -0.779319       -21.2064
  33   2.0000      -0.768535       -20.9129
  34   2.0000      -0.708632       -19.2829
  35   2.0000      -0.705952       -19.2099
  36   2.0000      -0.699981       -19.0474
  37   2.0000      -0.654696       -17.8152
  38   2.0000      -0.638563       -17.3762
  39   2.0000      -0.618220       -16.8226
  40   2.0000      -0.595583       -16.2066
  41   2.0000      -0.572305       -15.5732
  42   2.0000      -0.567553       -15.4439
  43   2.0000      -0.558571       -15.1995
  44   2.0000      -0.531464       -14.4619
  45   2.0000      -0.523093       -14.2341
  46   2.0000      -0.514258       -13.9937
  47   2.0000      -0.512099       -13.9349
  48   2.0000      -0.504269       -13.7219
  49   2.0000      -0.494122       -13.4457
  50   2.0000      -0.491501       -13.3744
  51   2.0000      -0.475612       -12.9421
  52   2.0000      -0.466846       -12.7035
  53   2.0000      -0.464396       -12.6369
  54   2.0000      -0.463544       -12.6137
  55   2.0000      -0.448563       -12.2060
  56   2.0000      -0.447125       -12.1669
  57   2.0000      -0.437778       -11.9125
  58   2.0000      -0.434851       -11.8329
  59   2.0000      -0.428855       -11.6697
  60   2.0000      -0.422393       -11.4939
  61   2.0000      -0.417220       -11.3531
  62   2.0000      -0.406913       -11.0727
  63   2.0000      -0.341152        -9.2832
  64   2.0000      -0.331752        -9.0274
  65   2.0000      -0.327607        -8.9146
  66   2.0000      -0.296241        -8.0611
  67   0.0000       0.031939         0.8691
  68   0.0000       0.067092         1.8257
  69   0.0000       0.110329         3.0022
  70   0.0000       0.124127         3.3777
  71   0.0000       0.128029         3.4839

MULLIKEN ATOMIC CHARGES
-----------------------
   0 S :    0.121416
   1 C :   -0.128081
   2 C :   -0.045198
   3 C :    0.035242
   4 C :   -0.166685
   5 H :    0.018509
   6 C :    0.037003
   7 H :    0.037465
   8 H :    0.023968
   9 C :   -0.059090
  10 H :    0.026767
  11 H :    0.038394
  12 C :   -0.052742
  13 H :    0.020436
  14 H :    0.030913
  15 H :    0.023845
  16 S :    0.101157
  17 C :   -0.071714
  18 C :   -0.085081
  19 C :   -0.021310
  20 C :   -0.165754
  21 H :    0.039524
  22 C :    0.024793
  23 H :    0.040921
  24 H :    0.039173
  25 C :   -0.067369
  26 H :    0.020566
  27 H :    0.019681
  28 C :    0.000029
  29 H :    0.030428
  30 H :    0.021771
  31 H :    0.032550
  32 H :    0.042589
  33 H :    0.035884
Sum of atomic charges:   -0.0000000

LOEWDIN ATOMIC CHARGES
----------------------
   0 S :    0.414443
   1 C :   -0.194264
   2 C :   -0.078186
   3 C :   -0.050657
   4 C :   -0.191246
   5 H :    0.035758
   6 C :   -0.025340
   7 H :    0.035519
   8 H :    0.028515
   9 C :   -0.032654
  10 H :    0.021795
  11 H :    0.026716
  12 C :   -0.075083
  13 H :    0.016274
  14 H :    0.028947
  15 H :    0.026658
  16 S :    0.399266
  17 C :   -0.177784
  18 C :   -0.084048
  19 C :   -0.058527
  20 C :   -0.203738
  21 H :    0.042617
  22 C :   -0.040537
  23 H :    0.031697
  24 H :    0.039478
  25 C :   -0.049267
  26 H :    0.027313
  27 H :    0.015849
  28 C :   -0.053724
  29 H :    0.029324
  30 H :    0.022231
  31 H :    0.024810
  32 H :    0.028504
  33 H :    0.019340

  Mayer bond orders larger than 0.100000
B(  0-S ,  1-C ) :   1.1423 B(  0-S ,  4-C ) :   1.1509 B(  1-C ,  2-C ) :   1.6178
B(  1-C , 32-H ) :   0.9609 B(  2-C ,  3-C ) :   1.2587 B(  2-C ,  6-C ) :   1.0176
B(  3-C ,  4-C ) :   1.5638 B(  3-C ,  5-H ) :   0.9904 B(  4-C , 20-C ) :   1.0247
B(  6-C ,  7-H ) :   0.9439 B(  6-C ,  8-H ) :   0.9445 B(  6-C ,  9-C ) :   1.0541
B(  9-C , 10-H ) :   0.9585 B(  9-C , 11-H ) :   0.9601 B(  9-C , 12-C ) :   1.0705
B( 12-C , 13-H ) :   0.9755 B( 12-C , 14-H ) :   0.9754 B( 12-C , 15-H ) :   0.9733
B( 16-S , 17-C ) :   1.1597 B( 16-S , 20-C ) :   1.1301 B( 17-C , 18-C ) :   1.6273
B( 17-C , 33-H ) :   0.9661 B( 18-C , 19-C ) :   1.2184 B( 18-C , 21-H ) :   0.9819
B( 19-C , 20-C ) :   1.6288 B( 19-C , 22-C ) :   1.0120 B( 22-C , 23-H ) :   0.9227
B( 22-C , 24-H ) :   0.9349 B( 22-C , 25-C ) :   1.0905 B( 25-C , 26-H ) :   0.9410
B( 25-C , 27-H ) :   0.9471 B( 25-C , 28-C ) :   1.0835 B( 28-C , 29-H ) :   0.9736
B( 28-C , 30-H ) :   0.9729 B( 28-C , 31-H ) :   0.9704

Dispersion correction           -0.013520053
FINAL SINGLE POINT ENERGY     -1339.878443555128

DIPOLE MOMENT
-------------
                                X             Y             Z
Electronic contribution:    -15.47110      -1.65315     -16.86217
Nuclear contribution   :     15.67926       1.67034      17.28372
                        -----------------------------------------
Total Dipole Moment    :      0.20816       0.01718       0.42156
                        -----------------------------------------
Magnitude (a.u.)       :      0.47046
Magnitude (Debye)      :      1.19582

Rotational constants in cm-1:     0.019327     0.007340     0.006208
Rotational constants in MHz :   579.407723   220.050502   186.116897

                             ****ORCA TERMINATED NORMALLY****
TOTAL RUN TIME: 0 days 0 hours 0 minutes 20 seconds 866 msec
