                         Program Version 4.2.1 -  RELEASE  -
|  1> ! wB97X-D3 SP def2-SVP
|  2> %pal
|  3> nprocs 24
|  4> end
|  5>
|  6> * xyz 0 1
|  7> S 	 -61.1444 	 -0.87548 	 -19.956
|  8> C 	 -62.3187 	 -0.296814 	 -18.762
|  9> C 	 -62.1426 	 -0.993009 	 -17.5441
| 10> C 	 -61.1276 	 -2.02243 	 -17.6614
| 11> C 	 -60.525 	 -2.09258 	 -18.9148
| 12> H 	 -60.7744 	 -2.55277 	 -16.8223
| 13> C 	 -62.7988 	 -0.762156 	 -16.1828
| 14> H 	 -62.8885 	 0.377177 	 -16.1383
| 15> H 	 -62.2558 	 -1.09536 	 -15.4586
| 16> C 	 -64.2236 	 -1.22608 	 -15.9649
| 17> H 	 -64.2517 	 -2.31158 	 -16.0614
| 18> H 	 -64.4861 	 -0.991687 	 -14.9683
| 19> C 	 -65.2823 	 -0.691147 	 -16.9398
| 20> H 	 -65.1024 	 -1.10917 	 -17.8917
| 21> H 	 -66.3198 	 -1.04709 	 -16.7256
| 22> H 	 -65.1644 	 0.386518 	 -17.0059
| 23> S 	 -58.1824 	 -2.15959 	 -20.4104
| 24> C 	 -57.1192 	 -3.55902 	 -20.2295
| 25> C 	 -57.6422 	 -4.55822 	 -19.4108
| 26> C 	 -58.8756 	 -4.12079 	 -18.7776
| 27> C 	 -59.3832 	 -2.90934 	 -19.3068
| 28> H 	 -57.0593 	 -5.47957 	 -19.2632
| 29> C 	 -59.6433 	 -5.11699 	 -17.8874
| 30> H 	 -60.6286 	 -4.7167 	 -17.5857
| 31> H 	 -59.1914 	 -5.12836 	 -16.9584
| 32> C 	 -59.6623 	 -6.5525 	 -18.3272
| 33> H 	 -60.323 	 -7.14844 	 -17.5878
| 34> H 	 -58.6432 	 -6.96556 	 -18.1576
| 35> C 	 -60.0956 	 -6.70821 	 -19.7214
| 36> H 	 -61.0978 	 -6.44511 	 -19.8784
| 37> H 	 -60.1059 	 -7.65896 	 -20.1826
| 38> H 	 -59.411 	 -6.15659 	 -20.3572
| 39> H 	 -62.9983 	 0.479638 	 -18.9855
| 40> H 	 -56.1931 	 -3.74715 	 -20.6903
| 41> *
| 42>
| 43>                          ****END OF INPUT****

CARTESIAN COORDINATES (ANGSTROEM)
---------------------------------
  S    -61.144400   -0.875480  -19.956000
  C    -62.318700   -0.296814  -18.762000
  C    -62.142600   -0.993009  -17.544100
  C    -61.127600   -2.022430  -17.661400
  C    -60.525000   -2.092580  -18.914800
  H    -60.774400   -2.552770  -16.822300
  C    -62.798800   -0.762156  -16.182800
  H    -62.888500    0.377177  -16.138300
  H    -62.255800   -1.095360  -15.458600
  C    -64.223600   -1.226080  -15.964900
  H    -64.251700   -2.311580  -16.061400
  H    -64.486100   -0.991687  -14.968300
  C    -65.282300   -0.691147  -16.939800
  H    -65.102400   -1.109170  -17.891700
  H    -66.319800   -1.047090  -16.725600
  H    -65.164400    0.386518  -17.005900
  S    -58.182400   -2.159590  -20.410400
  C    -57.119200   -3.559020  -20.229500
  C    -57.642200   -4.558220  -19.410800
  C    -58.875600   -4.120790  -18.777600
  C    -59.383200   -2.909340  -19.306800
  H    -57.059300   -5.479570  -19.263200
  C    -59.643300   -5.116990  -17.887400
  H    -60.628600   -4.716700  -17.585700
  H    -59.191400   -5.128360  -16.958400
  C    -59.662300   -6.552500  -18.327200
  H    -60.323000   -7.148440  -17.587800
  H    -58.643200   -6.965560  -18.157600
  C    -60.095600   -6.708210  -19.721400
  H    -61.097800   -6.445110  -19.878400
  H    -60.105900   -7.658960  -20.182600
  H    -59.411000   -6.156590  -20.357200
  H    -62.998300    0.479638  -18.985500
  H    -56.193100   -3.747150  -20.690300

 Total Charge           Charge          ....    0
 Multiplicity           Mult            ....    1
 Number of Electrons    NEL             ....  134
 Basis Dimension        Dim             ....  322

ORBITAL ENERGIES
----------------

  NO   OCC          E(Eh)            E(eV)
   0   2.0000     -88.969721     -2420.9892
   1   2.0000     -88.967997     -2420.9423
   2   2.0000     -10.335645      -281.2472
   3   2.0000     -10.331624      -281.1378
   4   2.0000     -10.319081      -280.7965
   5   2.0000     -10.318436      -280.7789
   6   2.0000     -10.312798      -280.6255
   7   2.0000     -10.309374      -280.5323
   8   2.0000     -10.301358      -280.3142
   9   2.0000     -10.292218      -280.0655
  10   2.0000     -10.290513      -280.0191
  11   2.0000     -10.286899      -279.9208
  12   2.0000     -10.285217      -279.8750
  13   2.0000     -10.281214      -279.7661
  14   2.0000     -10.275523      -279.6112
  15   2.0000     -10.258043      -279.1355
  16   2.0000      -8.083316      -219.9582
  17   2.0000      -8.082885      -219.9465
  18   2.0000      -6.042006      -164.4114
  19   2.0000      -6.041426      -164.3955
  20   2.0000      -6.038043      -164.3035
  21   2.0000      -6.037293      -164.2831
  22   2.0000      -6.033892      -164.1905
  23   2.0000      -6.033693      -164.1851
  24   2.0000      -1.002922       -27.2909
  25   2.0000      -0.976984       -26.5851
  26   2.0000      -0.919067       -25.0091
  27   2.0000      -0.915805       -24.9203
  28   2.0000      -0.867631       -23.6094
  29   2.0000      -0.851651       -23.1746
  30   2.0000      -0.841889       -22.9090
  31   2.0000      -0.812990       -22.1226
  32   2.0000      -0.792298       -21.5595
  33   2.0000      -0.783046       -21.3078
  34   2.0000      -0.708811       -19.2877
  35   2.0000      -0.701456       -19.0876
  36   2.0000      -0.692652       -18.8480
  37   2.0000      -0.657559       -17.8931
  38   2.0000      -0.642835       -17.4924
  39   2.0000      -0.621884       -16.9223
  40   2.0000      -0.597794       -16.2668
  41   2.0000      -0.573036       -15.5931
  42   2.0000      -0.566543       -15.4164
  43   2.0000      -0.559831       -15.2338
  44   2.0000      -0.547895       -14.9090
  45   2.0000      -0.538410       -14.6509
  46   2.0000      -0.519859       -14.1461
  47   2.0000      -0.512843       -13.9552
  48   2.0000      -0.504838       -13.7373
  49   2.0000      -0.497437       -13.5360
  50   2.0000      -0.492641       -13.4055
  51   2.0000      -0.473678       -12.8894
  52   2.0000      -0.469136       -12.7658
  53   2.0000      -0.463205       -12.6045
  54   2.0000      -0.460182       -12.5222
  55   2.0000      -0.453500       -12.3404
  56   2.0000      -0.445548       -12.1240
  57   2.0000      -0.441471       -12.0130
  58   2.0000      -0.433351       -11.7921
  59   2.0000      -0.423110       -11.5134
  60   2.0000      -0.415812       -11.3148
  61   2.0000      -0.413668       -11.2565
  62   2.0000      -0.410163       -11.1611
  63   2.0000      -0.356197        -9.6926
  64   2.0000      -0.333030        -9.0622
  65   2.0000      -0.328573        -8.9409
  66   2.0000      -0.282881        -7.6976
  67   0.0000       0.019337         0.5262
  68   0.0000       0.072193         1.9645
  69   0.0000       0.102532         2.7900
  70   0.0000       0.114453         3.1144
  71   0.0000       0.130075         3.5395

MULLIKEN ATOMIC CHARGES
-----------------------
   0 S :    0.098338
   1 C :   -0.115898
   2 C :   -0.099225
   3 C :    0.007433
   4 C :   -0.106878
   5 H :    0.001181
   6 C :    0.126394
   7 H :    0.033183
   8 H :   -0.028258
   9 C :   -0.052087
  10 H :    0.019424
  11 H :    0.021240
  12 C :   -0.052244
  13 H :    0.025180
  14 H :    0.041564
  15 H :    0.024906
  16 S :    0.097493
  17 C :   -0.061287
  18 C :   -0.059271
  19 C :   -0.087497
  20 C :   -0.107454
  21 H :    0.038678
  22 C :    0.110247
  23 H :    0.017685
  24 H :    0.005627
  25 C :   -0.111361
  26 H :    0.037675
  27 H :    0.027251
  28 C :    0.018581
  29 H :    0.015024
  30 H :    0.009150
  31 H :    0.028927
  32 H :    0.039307
  33 H :    0.036971
Sum of atomic charges:    0.0000000

LOEWDIN ATOMIC CHARGES
----------------------
   0 S :    0.413440
   1 C :   -0.191008
   2 C :   -0.048641
   3 C :   -0.068021
   4 C :   -0.197480
   5 H :    0.021682
   6 C :   -0.014851
   7 H :    0.041688
   8 H :    0.002841
   9 C :   -0.032777
  10 H :    0.021960
  11 H :    0.017937
  12 C :   -0.064727
  13 H :    0.019274
  14 H :    0.034286
  15 H :    0.020161
  16 S :    0.380166
  17 C :   -0.171216
  18 C :   -0.074016
  19 C :   -0.047802
  20 C :   -0.182142
  21 H :    0.038966
  22 C :   -0.035099
  23 H :    0.030347
  24 H :    0.024766
  25 C :   -0.045699
  26 H :    0.035213
  27 H :    0.023004
  28 C :   -0.066892
  29 H :    0.022970
  30 H :    0.021389
  31 H :    0.029915
  32 H :    0.018856
  33 H :    0.021510

  Mayer bond orders larger than 0.100000
B(  0-S ,  1-C ) :   1.1343 B(  0-S ,  4-C ) :   1.1650 B(  1-C ,  2-C ) :   1.5769
B(  1-C , 32-H ) :   0.9815 B(  2-C ,  3-C ) :   1.2662 B(  2-C ,  6-C ) :   1.0167
B(  3-C ,  4-C ) :   1.5322 B(  3-C ,  5-H ) :   0.9936 B(  4-C , 20-C ) :   1.0693
B(  6-C ,  7-H ) :   0.9393 B(  6-C ,  8-H ) :   0.9320 B(  6-C ,  9-C ) :   1.0829
B(  9-C , 10-H ) :   0.9504 B(  9-C , 11-H ) :   0.9551 B(  9-C , 12-C ) :   1.0820
B( 12-C , 13-H ) :   0.9706 B( 12-C , 14-H ) :   0.9718 B( 12-C , 15-H ) :   0.9767
B( 16-S , 17-C ) :   1.1451 B( 16-S , 20-C ) :   1.1127 B( 17-C , 18-C ) :   1.6424
B( 17-C , 33-H ) :   0.9663 B( 18-C , 19-C ) :   1.2144 B( 18-C , 21-H ) :   0.9791
B( 19-C , 20-C ) :   1.6072 B( 19-C , 22-C ) :   1.0326 B( 22-C , 23-H ) :   0.9351
B( 22-C , 24-H ) :   0.9140 B( 22-C , 25-C ) :   1.0854 B( 25-C , 26-H ) :   0.9471
B( 25-C , 27-H ) :   0.9436 B( 25-C , 28-C ) :   1.0971 B( 28-C , 29-H ) :   0.9681
B( 28-C , 30-H ) :   0.9665 B( 28-C , 31-H ) :   0.9610

Dispersion correction           -0.014340436
FINAL SINGLE POINT ENERGY     -1339.852955455521

DIPOLE MOMENT
-------------
                                X             Y             Z
Electronic contribution:     16.04685      12.77165     -14.76368
Nuclear contribution   :    -16.13001     -13.15294      15.32077
                        -----------------------------------------
Total Dipole Moment    :     -0.08316      -0.38130       0.55710
                        -----------------------------------------
Magnitude (a.u.)       :      0.68019
Magnitude (Debye)      :      1.72890

Rotational constants in cm-1:     0.021533     0.008033     0.006457
Rotational constants in MHz :   645.534272   240.817153   193.587026

                             ****ORCA TERMINATED NORMALLY****
TOTAL RUN TIME: 0 days 0 hours 0 minutes 21 seconds 727 msec
