                         Program Version 4.2.1 -  RELEASE  -
|  1> ! wB97X-D3 SP def2-SVP
|  2> %pal
|  3> nprocs 24
|  4> end
|  5>
|  6> * xyz 0 1
|  7> S 	 -29.7751 	 8.50499 	 4.11601
|  8> C 	 -29.0831 	 9.79178 	 3.15537
|  9> C 	 -28.8122 	 10.8721 	 3.99567
| 10> C 	 -29.4299 	 10.6852 	 5.32895
| 11> C 	 -30.1558 	 9.52418 	 5.44786
| 12> H 	 -29.3603 	 11.3981 	 6.13714
| 13> C 	 -28.1694 	 12.1904 	 3.46053
| 14> H 	 -28.1837 	 12.0524 	 2.3769
| 15> H 	 -27.1469 	 12.1204 	 3.88105
| 16> C 	 -28.8792 	 13.5248 	 3.89348
| 17> H 	 -29.9532 	 13.5316 	 3.74283
| 18> H 	 -28.7229 	 13.6008 	 4.9492
| 19> C 	 -28.2681 	 14.6003 	 3.08812
| 20> H 	 -28.3369 	 15.5086 	 3.78902
| 21> H 	 -27.1639 	 14.4239 	 2.9947
| 22> H 	 -28.6896 	 14.6183 	 2.08153
| 23> S 	 -32.6975 	 9.66674 	 6.41838
| 24> C 	 -33.1298 	 8.60413 	 7.7279
| 25> C 	 -32.0175 	 7.94368 	 8.22403
| 26> C 	 -30.7883 	 8.21542 	 7.55197
| 27> C 	 -31.0008 	 9.08997 	 6.52584
| 28> H 	 -32.1179 	 7.29497 	 9.14701
| 29> C 	 -29.4766 	 7.51918 	 7.81903
| 30> H 	 -28.8582 	 7.62632 	 6.99797
| 31> H 	 -29.726 	 6.48638 	 7.7596
| 32> C 	 -28.7517 	 8.06348 	 9.11495
| 33> H 	 -27.8275 	 7.56731 	 9.43752
| 34> H 	 -29.4095 	 7.91037 	 9.91641
| 35> C 	 -28.43 	 9.58097 	 8.8788
| 36> H 	 -27.9695 	 9.92866 	 9.79912
| 37> H 	 -29.277 	 10.1706 	 8.8304
| 38> H 	 -27.6923 	 9.82336 	 8.16544
| 39> H 	 -28.7266 	 9.66391 	 2.1139
| 40> H 	 -34.1617 	 8.62804 	 8.09189
| 41> *
| 42>
| 43>                          ****END OF INPUT****

CARTESIAN COORDINATES (ANGSTROEM)
---------------------------------
  S    -29.775100    8.504990    4.116010
  C    -29.083100    9.791780    3.155370
  C    -28.812200   10.872100    3.995670
  C    -29.429900   10.685200    5.328950
  C    -30.155800    9.524180    5.447860
  H    -29.360300   11.398100    6.137140
  C    -28.169400   12.190400    3.460530
  H    -28.183700   12.052400    2.376900
  H    -27.146900   12.120400    3.881050
  C    -28.879200   13.524800    3.893480
  H    -29.953200   13.531600    3.742830
  H    -28.722900   13.600800    4.949200
  C    -28.268100   14.600300    3.088120
  H    -28.336900   15.508600    3.789020
  H    -27.163900   14.423900    2.994700
  H    -28.689600   14.618300    2.081530
  S    -32.697500    9.666740    6.418380
  C    -33.129800    8.604130    7.727900
  C    -32.017500    7.943680    8.224030
  C    -30.788300    8.215420    7.551970
  C    -31.000800    9.089970    6.525840
  H    -32.117900    7.294970    9.147010
  C    -29.476600    7.519180    7.819030
  H    -28.858200    7.626320    6.997970
  H    -29.726000    6.486380    7.759600
  C    -28.751700    8.063480    9.114950
  H    -27.827500    7.567310    9.437520
  H    -29.409500    7.910370    9.916410
  C    -28.430000    9.580970    8.878800
  H    -27.969500    9.928660    9.799120
  H    -29.277000   10.170600    8.830400
  H    -27.692300    9.823360    8.165440
  H    -28.726600    9.663910    2.113900
  H    -34.161700    8.628040    8.091890

 Total Charge           Charge          ....    0
 Multiplicity           Mult            ....    1
 Number of Electrons    NEL             ....  134
 Basis Dimension        Dim             ....  322

ORBITAL ENERGIES
----------------

  NO   OCC          E(Eh)            E(eV)
   0   2.0000     -88.961919     -2420.7769
   1   2.0000     -88.957180     -2420.6479
   2   2.0000     -10.321932      -280.8740
   3   2.0000     -10.321608      -280.8652
   4   2.0000     -10.319866      -280.8178
   5   2.0000     -10.314186      -280.6633
   6   2.0000     -10.304807      -280.4081
   7   2.0000     -10.301885      -280.3285
   8   2.0000     -10.299053      -280.2515
   9   2.0000     -10.297844      -280.2186
  10   2.0000     -10.295208      -280.1469
  11   2.0000     -10.290114      -280.0082
  12   2.0000     -10.283921      -279.8397
  13   2.0000     -10.283689      -279.8334
  14   2.0000     -10.282625      -279.8044
  15   2.0000     -10.265841      -279.3477
  16   2.0000      -8.076609      -219.7757
  17   2.0000      -8.072665      -219.6684
  18   2.0000      -6.035069      -164.2226
  19   2.0000      -6.031236      -164.1183
  20   2.0000      -6.031180      -164.1167
  21   2.0000      -6.027364      -164.0129
  22   2.0000      -6.027104      -164.0058
  23   2.0000      -6.023261      -163.9013
  24   2.0000      -1.005433       -27.3592
  25   2.0000      -0.980555       -26.6823
  26   2.0000      -0.912157       -24.8210
  27   2.0000      -0.906120       -24.6568
  28   2.0000      -0.870202       -23.6794
  29   2.0000      -0.847831       -23.0707
  30   2.0000      -0.839930       -22.8557
  31   2.0000      -0.809750       -22.0344
  32   2.0000      -0.785727       -21.3807
  33   2.0000      -0.763893       -20.7866
  34   2.0000      -0.713938       -19.4272
  35   2.0000      -0.703525       -19.1439
  36   2.0000      -0.686631       -18.6842
  37   2.0000      -0.657361       -17.8877
  38   2.0000      -0.638551       -17.3759
  39   2.0000      -0.612447       -16.6655
  40   2.0000      -0.597622       -16.2621
  41   2.0000      -0.576334       -15.6828
  42   2.0000      -0.560643       -15.2559
  43   2.0000      -0.551354       -15.0031
  44   2.0000      -0.545595       -14.8464
  45   2.0000      -0.520999       -14.1771
  46   2.0000      -0.517882       -14.0923
  47   2.0000      -0.509990       -13.8775
  48   2.0000      -0.502028       -13.6609
  49   2.0000      -0.491844       -13.3838
  50   2.0000      -0.488760       -13.2998
  51   2.0000      -0.481654       -13.1065
  52   2.0000      -0.471812       -12.8387
  53   2.0000      -0.466630       -12.6976
  54   2.0000      -0.455358       -12.3909
  55   2.0000      -0.445900       -12.1335
  56   2.0000      -0.441396       -12.0110
  57   2.0000      -0.435534       -11.8515
  58   2.0000      -0.429498       -11.6872
  59   2.0000      -0.426388       -11.6026
  60   2.0000      -0.423564       -11.5258
  61   2.0000      -0.419449       -11.4138
  62   2.0000      -0.398378       -10.8404
  63   2.0000      -0.332991        -9.0611
  64   2.0000      -0.325789        -8.8652
  65   2.0000      -0.318822        -8.6756
  66   2.0000      -0.307519        -8.3680
  67   0.0000       0.048907         1.3308
  68   0.0000       0.051017         1.3882
  69   0.0000       0.108204         2.9444
  70   0.0000       0.120444         3.2774
  71   0.0000       0.131821         3.5870

MULLIKEN ATOMIC CHARGES
-----------------------
   0 S :    0.109611
   1 C :   -0.147231
   2 C :   -0.105024
   3 C :    0.049842
   4 C :   -0.172046
   5 H :    0.006273
   6 C :    0.026095
   7 H :    0.023738
   8 H :    0.050695
   9 C :   -0.065532
  10 H :    0.039318
  11 H :    0.026741
  12 C :   -0.057832
  13 H :    0.043352
  14 H :    0.029621
  15 H :    0.049748
  16 S :    0.105225
  17 C :   -0.103957
  18 C :   -0.055792
  19 C :   -0.034090
  20 C :   -0.197744
  21 H :    0.038766
  22 C :    0.144033
  23 H :   -0.004625
  24 H :    0.023138
  25 C :   -0.051565
  26 H :    0.034707
  27 H :    0.014842
  28 C :   -0.029090
  29 H :    0.010320
  30 H :    0.030247
  31 H :    0.032879
  32 H :    0.066332
  33 H :    0.069004
Sum of atomic charges:    0.0000000

LOEWDIN ATOMIC CHARGES
----------------------
   0 S :    0.408342
   1 C :   -0.210248
   2 C :   -0.063812
   3 C :   -0.063298
   4 C :   -0.208907
   5 H :    0.025959
   6 C :   -0.031000
   7 H :    0.027547
   8 H :    0.038410
   9 C :   -0.043947
  10 H :    0.027707
  11 H :    0.019174
  12 C :   -0.071552
  13 H :    0.039171
  14 H :    0.027056
  15 H :    0.029990
  16 S :    0.391818
  17 C :   -0.184615
  18 C :   -0.080737
  19 C :   -0.049834
  20 C :   -0.187549
  21 H :    0.039536
  22 C :   -0.021336
  23 H :    0.016542
  24 H :    0.030249
  25 C :   -0.022932
  26 H :    0.027046
  27 H :    0.014704
  28 C :   -0.056692
  29 H :    0.026990
  30 H :    0.016252
  31 H :    0.022172
  32 H :    0.035871
  33 H :    0.031921

  Mayer bond orders larger than 0.100000
B(  0-S ,  1-C ) :   1.1343 B(  0-S ,  4-C ) :   1.1475 B(  1-C ,  2-C ) :   1.6194
B(  1-C , 32-H ) :   0.9650 B(  2-C ,  3-C ) :   1.2100 B(  2-C ,  6-C ) :   1.0096
B(  3-C ,  4-C ) :   1.5979 B(  3-C ,  5-H ) :   0.9967 B(  4-C , 20-C ) :   1.0173
B(  6-C ,  7-H ) :   0.9552 B(  6-C ,  8-H ) :   0.9291 B(  6-C ,  9-C ) :   1.0656
B(  9-C , 10-H ) :   0.9590 B(  9-C , 11-H ) :   0.9507 B(  9-C , 12-C ) :   1.0858
B( 12-C , 13-H ) :   0.9708 B( 12-C , 14-H ) :   0.9703 B( 12-C , 15-H ) :   0.9751
B( 16-S , 17-C ) :   1.1543 B( 16-S , 20-C ) :   1.1409 B( 17-C , 18-C ) :   1.6110
B( 17-C , 20-C ) :   0.1024 B( 17-C , 33-H ) :   0.9688 B( 18-C , 19-C ) :   1.2168
B( 18-C , 21-H ) :   0.9788 B( 19-C , 20-C ) :   1.6198 B( 19-C , 22-C ) :   1.0312
B( 22-C , 23-H ) :   0.9261 B( 22-C , 24-H ) :   0.9352 B( 22-C , 25-C ) :   1.0480
B( 25-C , 26-H ) :   0.9628 B( 25-C , 27-H ) :   0.9631 B( 25-C , 28-C ) :   1.0740
B( 28-C , 29-H ) :   0.9668 B( 28-C , 30-H ) :   0.9749 B( 28-C , 31-H ) :   0.9777

Dispersion correction           -0.015083959
FINAL SINGLE POINT ENERGY     -1339.857805190154

DIPOLE MOMENT
-------------
                                X             Y             Z
Electronic contribution:    -16.64400     -14.33355      -4.65732
Nuclear contribution   :     17.00267      14.57950       4.95376
                        -----------------------------------------
Total Dipole Moment    :      0.35867       0.24595       0.29644
                        -----------------------------------------
Magnitude (a.u.)       :      0.52632
Magnitude (Debye)      :      1.33779

Rotational constants in cm-1:     0.020383     0.007872     0.007414
Rotational constants in MHz :   611.074903   236.006246   222.266083

                             ****ORCA TERMINATED NORMALLY****
TOTAL RUN TIME: 0 days 0 hours 0 minutes 21 seconds 635 msec
