                         Program Version 4.2.1 -  RELEASE  -
|  1> ! wB97X-D3 SP def2-SVP
|  2> %pal
|  3> nprocs 24
|  4> end
|  5>
|  6> * xyz 0 1
|  7> S 	 -136.821 	 7.67514 	 8.85457
|  8> C 	 -135.952 	 6.96653 	 7.48316
|  9> C 	 -134.629 	 6.7782 	 7.73785
| 10> C 	 -134.308 	 7.19331 	 9.09618
| 11> C 	 -135.367 	 7.72243 	 9.82577
| 12> H 	 -133.349 	 7.02759 	 9.61002
| 13> C 	 -133.586 	 6.30999 	 6.83651
| 14> H 	 -133.978 	 5.60898 	 6.12731
| 15> H 	 -132.871 	 5.73663 	 7.45211
| 16> C 	 -132.698 	 7.35457 	 6.08448
| 17> H 	 -133.34 	 8.126 	 5.66828
| 18> H 	 -132.06 	 7.86946 	 6.80332
| 19> C 	 -131.973 	 6.83975 	 4.83826
| 20> H 	 -132.737 	 6.52902 	 4.09716
| 21> H 	 -131.36 	 7.62297 	 4.4759
| 22> H 	 -131.345 	 5.9399 	 5.07438
| 23> S 	 -136.615 	 7.20274 	 12.2246
| 24> C 	 -135.831 	 7.70607 	 13.7015
| 25> C 	 -134.784 	 8.62319 	 13.3782
| 26> C 	 -134.492 	 8.7164 	 11.999
| 27> C 	 -135.383 	 8.02116 	 11.2386
| 28> H 	 -134.324 	 9.14938 	 14.1278
| 29> C 	 -133.329 	 9.50219 	 11.4534
| 30> H 	 -133.577 	 9.60587 	 10.3739
| 31> H 	 -132.396 	 8.94744 	 11.4354
| 32> C 	 -132.919 	 10.8253 	 12.2014
| 33> H 	 -132.02 	 11.2538 	 11.7029
| 34> H 	 -132.712 	 10.5309 	 13.1981
| 35> C 	 -134.031 	 11.9099 	 12.2287
| 36> H 	 -133.708 	 12.7826 	 12.8494
| 37> H 	 -135.044 	 11.4667 	 12.5125
| 38> H 	 -134.071 	 12.2343 	 11.2352
| 39> H 	 -136.341 	 6.5128 	 6.58316
| 40> H 	 -136.276 	 7.46213 	 14.688
| 41> *
| 42>
| 43>                          ****END OF INPUT****

CARTESIAN COORDINATES (ANGSTROEM)
---------------------------------
  S    -136.821000    7.675140    8.854570
  C    -135.952000    6.966530    7.483160
  C    -134.629000    6.778200    7.737850
  C    -134.308000    7.193310    9.096180
  C    -135.367000    7.722430    9.825770
  H    -133.349000    7.027590    9.610020
  C    -133.586000    6.309990    6.836510
  H    -133.978000    5.608980    6.127310
  H    -132.871000    5.736630    7.452110
  C    -132.698000    7.354570    6.084480
  H    -133.340000    8.126000    5.668280
  H    -132.060000    7.869460    6.803320
  C    -131.973000    6.839750    4.838260
  H    -132.737000    6.529020    4.097160
  H    -131.360000    7.622970    4.475900
  H    -131.345000    5.939900    5.074380
  S    -136.615000    7.202740   12.224600
  C    -135.831000    7.706070   13.701500
  C    -134.784000    8.623190   13.378200
  C    -134.492000    8.716400   11.999000
  C    -135.383000    8.021160   11.238600
  H    -134.324000    9.149380   14.127800
  C    -133.329000    9.502190   11.453400
  H    -133.577000    9.605870   10.373900
  H    -132.396000    8.947440   11.435400
  C    -132.919000   10.825300   12.201400
  H    -132.020000   11.253800   11.702900
  H    -132.712000   10.530900   13.198100
  C    -134.031000   11.909900   12.228700
  H    -133.708000   12.782600   12.849400
  H    -135.044000   11.466700   12.512500
  H    -134.071000   12.234300   11.235200
  H    -136.341000    6.512800    6.583160
  H    -136.276000    7.462130   14.688000

 Total Charge           Charge          ....    0
 Multiplicity           Mult            ....    1
 Number of Electrons    NEL             ....  134
 Basis Dimension        Dim             ....  322

ORBITAL ENERGIES
----------------

  NO   OCC          E(Eh)            E(eV)
   0   2.0000     -88.966972     -2420.9144
   1   2.0000     -88.966313     -2420.8965
   2   2.0000     -10.329358      -281.0761
   3   2.0000     -10.326717      -281.0042
   4   2.0000     -10.325163      -280.9620
   5   2.0000     -10.312446      -280.6159
   6   2.0000     -10.301585      -280.3204
   7   2.0000     -10.298305      -280.2311
   8   2.0000     -10.296134      -280.1720
   9   2.0000     -10.293309      -280.0952
  10   2.0000     -10.293248      -280.0935
  11   2.0000     -10.290561      -280.0204
  12   2.0000     -10.290033      -280.0060
  13   2.0000     -10.287558      -279.9387
  14   2.0000     -10.283372      -279.8248
  15   2.0000     -10.277741      -279.6716
  16   2.0000      -8.081269      -219.9025
  17   2.0000      -8.080743      -219.8882
  18   2.0000      -6.039974      -164.3561
  19   2.0000      -6.039228      -164.3357
  20   2.0000      -6.035861      -164.2441
  21   2.0000      -6.035239      -164.2272
  22   2.0000      -6.031817      -164.1341
  23   2.0000      -6.031594      -164.1280
  24   2.0000      -1.006953       -27.4006
  25   2.0000      -0.982933       -26.7470
  26   2.0000      -0.914244       -24.8778
  27   2.0000      -0.905402       -24.6372
  28   2.0000      -0.871860       -23.7245
  29   2.0000      -0.853154       -23.2155
  30   2.0000      -0.843979       -22.9658
  31   2.0000      -0.810557       -22.0564
  32   2.0000      -0.784306       -21.3420
  33   2.0000      -0.775486       -21.1021
  34   2.0000      -0.706821       -19.2336
  35   2.0000      -0.699175       -19.0255
  36   2.0000      -0.697767       -18.9872
  37   2.0000      -0.662760       -18.0346
  38   2.0000      -0.638747       -17.3812
  39   2.0000      -0.617368       -16.7994
  40   2.0000      -0.599428       -16.3113
  41   2.0000      -0.572032       -15.5658
  42   2.0000      -0.560922       -15.2635
  43   2.0000      -0.546999       -14.8846
  44   2.0000      -0.540022       -14.6947
  45   2.0000      -0.530218       -14.4280
  46   2.0000      -0.525039       -14.2870
  47   2.0000      -0.510108       -13.8807
  48   2.0000      -0.504258       -13.7216
  49   2.0000      -0.503917       -13.7123
  50   2.0000      -0.489440       -13.3183
  51   2.0000      -0.479854       -13.0575
  52   2.0000      -0.467315       -12.7163
  53   2.0000      -0.463914       -12.6237
  54   2.0000      -0.458923       -12.4879
  55   2.0000      -0.444956       -12.1079
  56   2.0000      -0.443892       -12.0789
  57   2.0000      -0.436278       -11.8717
  58   2.0000      -0.431975       -11.7546
  59   2.0000      -0.427670       -11.6375
  60   2.0000      -0.422471       -11.4960
  61   2.0000      -0.421727       -11.4758
  62   2.0000      -0.412923       -11.2362
  63   2.0000      -0.346667        -9.4333
  64   2.0000      -0.332087        -9.0365
  65   2.0000      -0.327547        -8.9130
  66   2.0000      -0.291388        -7.9291
  67   0.0000       0.026364         0.7174
  68   0.0000       0.067001         1.8232
  69   0.0000       0.111147         3.0245
  70   0.0000       0.120759         3.2860
  71   0.0000       0.127710         3.4752

MULLIKEN ATOMIC CHARGES
-----------------------
   0 S :    0.102951
   1 C :   -0.101788
   2 C :   -0.082469
   3 C :    0.009357
   4 C :   -0.160530
   5 H :    0.022341
   6 C :    0.068363
   7 H :    0.006210
   8 H :    0.023992
   9 C :   -0.073929
  10 H :    0.024562
  11 H :    0.026838
  12 C :   -0.050685
  13 H :    0.039601
  14 H :    0.037666
  15 H :    0.035046
  16 S :    0.108620
  17 C :   -0.117797
  18 C :   -0.011303
  19 C :   -0.018531
  20 C :   -0.148612
  21 H :   -0.013889
  22 C :    0.043462
  23 H :    0.033977
  24 H :    0.040225
  25 C :   -0.086780
  26 H :    0.038865
  27 H :    0.024471
  28 C :   -0.058055
  29 H :    0.043676
  30 H :    0.057015
  31 H :    0.019518
  32 H :    0.039363
  33 H :    0.078250
Sum of atomic charges:    0.0000000

LOEWDIN ATOMIC CHARGES
----------------------
   0 S :    0.393038
   1 C :   -0.190268
   2 C :   -0.064594
   3 C :   -0.062004
   4 C :   -0.195774
   5 H :    0.033050
   6 C :   -0.036864
   7 H :    0.025031
   8 H :    0.035343
   9 C :   -0.038347
  10 H :    0.023590
  11 H :    0.021327
  12 C :   -0.062243
  13 H :    0.029739
  14 H :    0.024300
  15 H :    0.026446
  16 S :    0.401056
  17 C :   -0.186729
  18 C :   -0.059978
  19 C :   -0.057813
  20 C :   -0.192150
  21 H :    0.013778
  22 C :   -0.036600
  23 H :    0.033701
  24 H :    0.033314
  25 C :   -0.035397
  26 H :    0.031625
  27 H :    0.012803
  28 C :   -0.070271
  29 H :    0.030997
  30 H :    0.036152
  31 H :    0.016459
  32 H :    0.030803
  33 H :    0.036478

  Mayer bond orders larger than 0.100000
B(  0-S ,  1-C ) :   1.1145 B(  0-S ,  4-C ) :   1.1328 B(  1-C ,  2-C ) :   1.6470
B(  1-C , 32-H ) :   0.9611 B(  2-C ,  3-C ) :   1.2117 B(  2-C ,  6-C ) :   1.0549
B(  3-C ,  4-C ) :   1.5849 B(  3-C ,  5-H ) :   0.9859 B(  4-C , 20-C ) :   1.0499
B(  6-C ,  7-H ) :   0.9351 B(  6-C ,  8-H ) :   0.9284 B(  6-C ,  9-C ) :   1.0530
B(  9-C , 10-H ) :   0.9578 B(  9-C , 11-H ) :   0.9554 B(  9-C , 12-C ) :   1.0821
B( 12-C , 13-H ) :   0.9744 B( 12-C , 14-H ) :   0.9734 B( 12-C , 15-H ) :   0.9763
B( 16-S , 17-C ) :   1.1729 B( 16-S , 20-C ) :   1.1357 B( 17-C , 18-C ) :   1.5631
B( 17-C , 20-C ) :   0.1066 B( 17-C , 33-H ) :   0.9659 B( 18-C , 19-C ) :   1.2416
B( 18-C , 21-H ) :   1.0046 B( 19-C , 20-C ) :   1.5960 B( 19-C , 22-C ) :   1.0419
B( 22-C , 23-H ) :   0.9307 B( 22-C , 24-H ) :   0.9304 B( 22-C , 25-C ) :   1.0644
B( 25-C , 26-H ) :   0.9561 B( 25-C , 27-H ) :   0.9536 B( 25-C , 28-C ) :   1.0741
B( 28-C , 29-H ) :   0.9747 B( 28-C , 30-H ) :   0.9733 B( 28-C , 31-H ) :   0.9766

Dispersion correction           -0.013911671
FINAL SINGLE POINT ENERGY     -1339.878624474375

DIPOLE MOMENT
-------------
                                X             Y             Z
Electronic contribution:    -22.96698      -9.47712      11.16644
Nuclear contribution   :     23.65063       9.51537     -11.25745
                        -----------------------------------------
Total Dipole Moment    :      0.68364       0.03826      -0.09101
                        -----------------------------------------
Magnitude (a.u.)       :      0.69073
Magnitude (Debye)      :      1.75571

Rotational constants in cm-1:     0.019403     0.007917     0.006323
Rotational constants in MHz :   581.687563   237.357970   189.554353

                             ****ORCA TERMINATED NORMALLY****
TOTAL RUN TIME: 0 days 0 hours 0 minutes 20 seconds 185 msec
