                         Program Version 4.2.1 -  RELEASE  -
|  1> ! wB97X-D3 SP def2-SVP
|  2> %pal
|  3> nprocs 24
|  4> end
|  5>
|  6> * xyz 0 1
|  7> S 	 -56.7314 	 2.67286 	 -20.2308
|  8> C 	 -58.159 	 3.65311 	 -20.7044
|  9> C 	 -59.0444 	 2.87556 	 -21.454
| 10> C 	 -58.6599 	 1.56771 	 -21.5879
| 11> C 	 -57.4499 	 1.21922 	 -20.965
| 12> H 	 -59.1022 	 0.720655 	 -22.0908
| 13> C 	 -60.302 	 3.43092 	 -22.0763
| 14> H 	 -60.9506 	 3.98156 	 -21.3849
| 15> H 	 -60.8692 	 2.59373 	 -22.5425
| 16> C 	 -60.0716 	 4.30773 	 -23.2798
| 17> H 	 -59.4897 	 5.12481 	 -22.9468
| 18> H 	 -59.3237 	 3.88083 	 -24.0154
| 19> C 	 -61.461 	 4.769 	 -23.8645
| 20> H 	 -61.8991 	 4.07105 	 -24.4667
| 21> H 	 -62.2499 	 5.06581 	 -23.1826
| 22> H 	 -61.2875 	 5.64521 	 -24.4696
| 23> S 	 -55.5456 	 -0.0585228 	 -22.4733
| 24> C 	 -55.1864 	 -1.7625 	 -22.1312
| 25> C 	 -55.6775 	 -2.13038 	 -20.9155
| 26> C 	 -56.6705 	 -1.15504 	 -20.4234
| 27> C 	 -56.7171 	 0.0435383 	 -21.191
| 28> H 	 -55.4376 	 -3.05263 	 -20.3934
| 29> C 	 -57.2601 	 -1.33212 	 -19.0949
| 30> H 	 -57.6841 	 -0.428911 	 -18.6902
| 31> H 	 -56.5113 	 -1.63584 	 -18.4244
| 32> C 	 -58.2431 	 -2.50478 	 -18.9234
| 33> H 	 -58.6483 	 -2.47837 	 -17.9372
| 34> H 	 -57.7175 	 -3.51964 	 -18.9612
| 35> C 	 -59.4479 	 -2.3626 	 -19.837
| 36> H 	 -60.2661 	 -3.07624 	 -19.5546
| 37> H 	 -59.1704 	 -2.55235 	 -20.8416
| 38> H 	 -59.7696 	 -1.34414 	 -19.7676
| 39> H 	 -58.378 	 4.60725 	 -20.2898
| 40> H 	 -54.578 	 -2.4424 	 -22.6865
| 41> *
| 42>
| 43>                          ****END OF INPUT****

CARTESIAN COORDINATES (ANGSTROEM)
---------------------------------
  S    -56.731400    2.672860  -20.230800
  C    -58.159000    3.653110  -20.704400
  C    -59.044400    2.875560  -21.454000
  C    -58.659900    1.567710  -21.587900
  C    -57.449900    1.219220  -20.965000
  H    -59.102200    0.720655  -22.090800
  C    -60.302000    3.430920  -22.076300
  H    -60.950600    3.981560  -21.384900
  H    -60.869200    2.593730  -22.542500
  C    -60.071600    4.307730  -23.279800
  H    -59.489700    5.124810  -22.946800
  H    -59.323700    3.880830  -24.015400
  C    -61.461000    4.769000  -23.864500
  H    -61.899100    4.071050  -24.466700
  H    -62.249900    5.065810  -23.182600
  H    -61.287500    5.645210  -24.469600
  S    -55.545600   -0.058523  -22.473300
  C    -55.186400   -1.762500  -22.131200
  C    -55.677500   -2.130380  -20.915500
  C    -56.670500   -1.155040  -20.423400
  C    -56.717100    0.043538  -21.191000
  H    -55.437600   -3.052630  -20.393400
  C    -57.260100   -1.332120  -19.094900
  H    -57.684100   -0.428911  -18.690200
  H    -56.511300   -1.635840  -18.424400
  C    -58.243100   -2.504780  -18.923400
  H    -58.648300   -2.478370  -17.937200
  H    -57.717500   -3.519640  -18.961200
  C    -59.447900   -2.362600  -19.837000
  H    -60.266100   -3.076240  -19.554600
  H    -59.170400   -2.552350  -20.841600
  H    -59.769600   -1.344140  -19.767600
  H    -58.378000    4.607250  -20.289800
  H    -54.578000   -2.442400  -22.686500

 Total Charge           Charge          ....    0
 Multiplicity           Mult            ....    1
 Number of Electrons    NEL             ....  134
 Basis Dimension        Dim             ....  322

ORBITAL ENERGIES
----------------

  NO   OCC          E(Eh)            E(eV)
   0   2.0000     -88.968268     -2420.9497
   1   2.0000     -88.963908     -2420.8310
   2   2.0000     -10.326712      -281.0041
   3   2.0000     -10.323193      -280.9084
   4   2.0000     -10.319299      -280.8024
   5   2.0000     -10.318528      -280.7814
   6   2.0000     -10.305459      -280.4258
   7   2.0000     -10.300431      -280.2890
   8   2.0000     -10.296333      -280.1775
   9   2.0000     -10.292559      -280.0748
  10   2.0000     -10.290354      -280.0148
  11   2.0000     -10.286651      -279.9140
  12   2.0000     -10.283168      -279.8192
  13   2.0000     -10.278203      -279.6841
  14   2.0000     -10.272787      -279.5367
  15   2.0000     -10.267442      -279.3913
  16   2.0000      -8.081666      -219.9133
  17   2.0000      -8.078499      -219.8271
  18   2.0000      -6.040088      -164.3592
  19   2.0000      -6.037201      -164.2806
  20   2.0000      -6.036252      -164.2548
  21   2.0000      -6.033044      -164.1675
  22   2.0000      -6.032696      -164.1580
  23   2.0000      -6.029025      -164.0581
  24   2.0000      -1.004364       -27.3301
  25   2.0000      -0.980135       -26.6708
  26   2.0000      -0.914258       -24.8782
  27   2.0000      -0.912485       -24.8300
  28   2.0000      -0.874038       -23.7838
  29   2.0000      -0.848377       -23.0855
  30   2.0000      -0.843804       -22.9611
  31   2.0000      -0.816002       -22.2045
  32   2.0000      -0.785169       -21.3655
  33   2.0000      -0.770080       -20.9549
  34   2.0000      -0.712127       -19.3779
  35   2.0000      -0.706212       -19.2170
  36   2.0000      -0.691284       -18.8108
  37   2.0000      -0.657036       -17.8789
  38   2.0000      -0.649106       -17.6631
  39   2.0000      -0.615477       -16.7480
  40   2.0000      -0.595946       -16.2165
  41   2.0000      -0.573232       -15.5984
  42   2.0000      -0.560447       -15.2505
  43   2.0000      -0.552257       -15.0277
  44   2.0000      -0.547157       -14.8889
  45   2.0000      -0.525920       -14.3110
  46   2.0000      -0.515992       -14.0409
  47   2.0000      -0.511917       -13.9300
  48   2.0000      -0.505549       -13.7567
  49   2.0000      -0.500997       -13.6328
  50   2.0000      -0.496927       -13.5221
  51   2.0000      -0.479263       -13.0414
  52   2.0000      -0.473933       -12.8964
  53   2.0000      -0.464601       -12.6424
  54   2.0000      -0.457801       -12.4574
  55   2.0000      -0.445171       -12.1137
  56   2.0000      -0.443256       -12.0616
  57   2.0000      -0.436234       -11.8705
  58   2.0000      -0.428644       -11.6640
  59   2.0000      -0.421828       -11.4785
  60   2.0000      -0.419384       -11.4120
  61   2.0000      -0.414165       -11.2700
  62   2.0000      -0.410150       -11.1607
  63   2.0000      -0.341261        -9.2862
  64   2.0000      -0.329274        -8.9600
  65   2.0000      -0.314970        -8.5708
  66   2.0000      -0.302734        -8.2378
  67   0.0000       0.033131         0.9015
  68   0.0000       0.045541         1.2392
  69   0.0000       0.102611         2.7922
  70   0.0000       0.116477         3.1695
  71   0.0000       0.129353         3.5199

MULLIKEN ATOMIC CHARGES
-----------------------
   0 S :    0.106734
   1 C :   -0.118191
   2 C :   -0.037975
   3 C :    0.044187
   4 C :   -0.207020
   5 H :    0.014664
   6 C :    0.047664
   7 H :    0.034238
   8 H :    0.023614
   9 C :   -0.079044
  10 H :    0.006278
  11 H :    0.038983
  12 C :   -0.011769
  13 H :    0.016485
  14 H :    0.026005
  15 H :    0.027388
  16 S :    0.117043
  17 C :   -0.077574
  18 C :   -0.022802
  19 C :   -0.032335
  20 C :   -0.160225
  21 H :    0.027755
  22 C :    0.075485
  23 H :    0.024562
  24 H :    0.017301
  25 C :   -0.103461
  26 H :    0.017824
  27 H :    0.030016
  28 C :   -0.031587
  29 H :    0.038178
  30 H :    0.029114
  31 H :    0.022967
  32 H :    0.046914
  33 H :    0.048586
Sum of atomic charges:   -0.0000000

LOEWDIN ATOMIC CHARGES
----------------------
   0 S :    0.386334
   1 C :   -0.174768
   2 C :   -0.066569
   3 C :   -0.050699
   4 C :   -0.196646
   5 H :    0.036143
   6 C :   -0.034737
   7 H :    0.031204
   8 H :    0.032678
   9 C :   -0.039586
  10 H :    0.011637
  11 H :    0.034573
  12 C :   -0.058651
  13 H :    0.013384
  14 H :    0.028059
  15 H :    0.028637
  16 S :    0.400363
  17 C :   -0.170341
  18 C :   -0.065357
  19 C :   -0.043060
  20 C :   -0.220565
  21 H :    0.032843
  22 C :   -0.035519
  23 H :    0.028827
  24 H :    0.032122
  25 C :   -0.041851
  26 H :    0.019335
  27 H :    0.023967
  28 C :   -0.063435
  29 H :    0.030366
  30 H :    0.017905
  31 H :    0.022690
  32 H :    0.022974
  33 H :    0.027743

  Mayer bond orders larger than 0.100000
B(  0-S ,  1-C ) :   1.1521 B(  0-S ,  4-C ) :   1.1485 B(  1-C ,  2-C ) :   1.5506
B(  1-C ,  4-C ) :   0.1232 B(  1-C , 32-H ) :   0.9739 B(  2-C ,  3-C ) :   1.2780
B(  2-C ,  6-C ) :   1.0156 B(  3-C ,  4-C ) :   1.5454 B(  3-C ,  5-H ) :   0.9968
B(  4-C , 20-C ) :   1.0694 B(  6-C ,  7-H ) :   0.9412 B(  6-C ,  8-H ) :   0.9487
B(  6-C ,  9-C ) :   1.0609 B(  9-C , 10-H ) :   0.9571 B(  9-C , 11-H ) :   0.9531
B(  9-C , 12-C ) :   1.0611 B( 12-C , 13-H ) :   0.9778 B( 12-C , 14-H ) :   0.9748
B( 12-C , 15-H ) :   0.9739 B( 16-S , 17-C ) :   1.1426 B( 16-S , 20-C ) :   1.1222
B( 17-C , 18-C ) :   1.6326 B( 17-C , 33-H ) :   0.9697 B( 18-C , 19-C ) :   1.2164
B( 18-C , 21-H ) :   0.9846 B( 19-C , 20-C ) :   1.5761 B( 19-C , 22-C ) :   1.0733
B( 22-C , 23-H ) :   0.9302 B( 22-C , 24-H ) :   0.9282 B( 22-C , 25-C ) :   1.0768
B( 25-C , 26-H ) :   0.9533 B( 25-C , 27-H ) :   0.9548 B( 25-C , 28-C ) :   1.0736
B( 28-C , 29-H ) :   0.9745 B( 28-C , 30-H ) :   0.9729 B( 28-C , 31-H ) :   0.9718

Dispersion correction           -0.014447812
FINAL SINGLE POINT ENERGY     -1339.854822324211

DIPOLE MOMENT
-------------
                                X             Y             Z
Electronic contribution:     22.67925       0.93590       0.63686
Nuclear contribution   :    -23.05999      -1.08429      -0.53018
                        -----------------------------------------
Total Dipole Moment    :     -0.38074      -0.14839       0.10668
                        -----------------------------------------
Magnitude (a.u.)       :      0.42233
Magnitude (Debye)      :      1.07348

Rotational constants in cm-1:     0.020984     0.007498     0.006822
Rotational constants in MHz :   629.093959   224.774489   204.511005

                             ****ORCA TERMINATED NORMALLY****
TOTAL RUN TIME: 0 days 0 hours 0 minutes 21 seconds 222 msec
