                         Program Version 4.2.1 -  RELEASE  -
|  1> ! wB97X-D3 SP def2-SVP
|  2> %pal
|  3> nprocs 24
|  4> end
|  5>
|  6> * xyz 0 1
|  7> S 	 -56.252 	 15.4263 	 -85.9167
|  8> C 	 -57.8968 	 15.7325 	 -86.3034
|  9> C 	 -58.2648 	 17.0304 	 -86.0975
| 10> C 	 -57.2178 	 17.7808 	 -85.5961
| 11> C 	 -56.0398 	 17.1113 	 -85.4736
| 12> H 	 -57.1645 	 18.7448 	 -85.1675
| 13> C 	 -59.6206 	 17.5512 	 -86.3681
| 14> H 	 -59.847 	 18.3134 	 -85.5933
| 15> H 	 -60.3309 	 16.7288 	 -86.3629
| 16> C 	 -59.7523 	 18.342 	 -87.685
| 17> H 	 -58.8652 	 19.0432 	 -87.6784
| 18> H 	 -59.5742 	 17.7056 	 -88.6051
| 19> C 	 -60.9794 	 19.1882 	 -87.8001
| 20> H 	 -61.4825 	 19.2315 	 -86.8252
| 21> H 	 -60.9778 	 20.2375 	 -88.0963
| 22> H 	 -61.7374 	 18.6965 	 -88.3926
| 23> S 	 -53.987 	 16.8147 	 -83.696
| 24> C 	 -52.7377 	 18.0606 	 -83.6316
| 25> C 	 -52.9787 	 18.9583 	 -84.6131
| 26> C 	 -54.1571 	 18.8167 	 -85.4209
| 27> C 	 -54.7262 	 17.6238 	 -85.0894
| 28> H 	 -52.1801 	 19.7547 	 -84.6538
| 29> C 	 -54.5567 	 19.7763 	 -86.4588
| 30> H 	 -55.568 	 19.9435 	 -86.1178
| 31> H 	 -54.5434 	 19.3913 	 -87.4775
| 32> C 	 -53.7988 	 21.1085 	 -86.5213
| 33> H 	 -52.75 	 20.8714 	 -86.6304
| 34> H 	 -53.857 	 21.5438 	 -85.5276
| 35> C 	 -54.2401 	 22.1209 	 -87.5554
| 36> H 	 -53.9654 	 21.7642 	 -88.5342
| 37> H 	 -53.5655 	 22.9413 	 -87.4645
| 38> H 	 -55.2296 	 22.57 	 -87.3831
| 39> H 	 -58.6654 	 14.9184 	 -86.3763
| 40> H 	 -51.9499 	 18.1636 	 -82.9072
| 41> *
| 42>
| 43>                          ****END OF INPUT****

CARTESIAN COORDINATES (ANGSTROEM)
---------------------------------
  S    -56.252000   15.426300  -85.916700
  C    -57.896800   15.732500  -86.303400
  C    -58.264800   17.030400  -86.097500
  C    -57.217800   17.780800  -85.596100
  C    -56.039800   17.111300  -85.473600
  H    -57.164500   18.744800  -85.167500
  C    -59.620600   17.551200  -86.368100
  H    -59.847000   18.313400  -85.593300
  H    -60.330900   16.728800  -86.362900
  C    -59.752300   18.342000  -87.685000
  H    -58.865200   19.043200  -87.678400
  H    -59.574200   17.705600  -88.605100
  C    -60.979400   19.188200  -87.800100
  H    -61.482500   19.231500  -86.825200
  H    -60.977800   20.237500  -88.096300
  H    -61.737400   18.696500  -88.392600
  S    -53.987000   16.814700  -83.696000
  C    -52.737700   18.060600  -83.631600
  C    -52.978700   18.958300  -84.613100
  C    -54.157100   18.816700  -85.420900
  C    -54.726200   17.623800  -85.089400
  H    -52.180100   19.754700  -84.653800
  C    -54.556700   19.776300  -86.458800
  H    -55.568000   19.943500  -86.117800
  H    -54.543400   19.391300  -87.477500
  C    -53.798800   21.108500  -86.521300
  H    -52.750000   20.871400  -86.630400
  H    -53.857000   21.543800  -85.527600
  C    -54.240100   22.120900  -87.555400
  H    -53.965400   21.764200  -88.534200
  H    -53.565500   22.941300  -87.464500
  H    -55.229600   22.570000  -87.383100
  H    -58.665400   14.918400  -86.376300
  H    -51.949900   18.163600  -82.907200

 Total Charge           Charge          ....    0
 Multiplicity           Mult            ....    1
 Number of Electrons    NEL             ....  134
 Basis Dimension        Dim             ....  322

ORBITAL ENERGIES
----------------

  NO   OCC          E(Eh)            E(eV)
   0   2.0000     -88.962713     -2420.7985
   1   2.0000     -88.961300     -2420.7600
   2   2.0000     -10.323939      -280.9287
   3   2.0000     -10.321871      -280.8724
   4   2.0000     -10.314283      -280.6659
   5   2.0000     -10.308866      -280.5185
   6   2.0000     -10.303632      -280.3761
   7   2.0000     -10.293518      -280.1009
   8   2.0000     -10.292135      -280.0632
   9   2.0000     -10.291880      -280.0563
  10   2.0000     -10.291216      -280.0382
  11   2.0000     -10.288669      -279.9689
  12   2.0000     -10.285328      -279.8780
  13   2.0000     -10.283557      -279.8298
  14   2.0000     -10.278973      -279.7051
  15   2.0000     -10.274240      -279.5763
  16   2.0000      -8.077124      -219.7897
  17   2.0000      -8.076906      -219.7838
  18   2.0000      -6.035716      -164.2402
  19   2.0000      -6.035187      -164.2258
  20   2.0000      -6.031725      -164.1316
  21   2.0000      -6.031329      -164.1208
  22   2.0000      -6.027828      -164.0255
  23   2.0000      -6.027755      -164.0235
  24   2.0000      -1.013266       -27.5724
  25   2.0000      -0.990625       -26.9563
  26   2.0000      -0.917899       -24.9773
  27   2.0000      -0.915172       -24.9031
  28   2.0000      -0.873735       -23.7755
  29   2.0000      -0.859616       -23.3913
  30   2.0000      -0.850743       -23.1499
  31   2.0000      -0.819701       -22.3052
  32   2.0000      -0.788630       -21.4597
  33   2.0000      -0.773887       -21.0585
  34   2.0000      -0.709442       -19.3049
  35   2.0000      -0.703456       -19.1420
  36   2.0000      -0.693318       -18.8661
  37   2.0000      -0.653043       -17.7702
  38   2.0000      -0.642492       -17.4831
  39   2.0000      -0.621293       -16.9062
  40   2.0000      -0.602602       -16.3976
  41   2.0000      -0.582018       -15.8375
  42   2.0000      -0.572309       -15.5733
  43   2.0000      -0.554905       -15.0997
  44   2.0000      -0.533540       -14.5184
  45   2.0000      -0.524586       -14.2747
  46   2.0000      -0.520756       -14.1705
  47   2.0000      -0.514158       -13.9909
  48   2.0000      -0.504531       -13.7290
  49   2.0000      -0.498953       -13.5772
  50   2.0000      -0.492999       -13.4152
  51   2.0000      -0.482933       -13.1413
  52   2.0000      -0.473179       -12.8758
  53   2.0000      -0.468465       -12.7476
  54   2.0000      -0.464533       -12.6406
  55   2.0000      -0.451010       -12.2726
  56   2.0000      -0.448032       -12.1916
  57   2.0000      -0.432219       -11.7613
  58   2.0000      -0.427016       -11.6197
  59   2.0000      -0.425620       -11.5817
  60   2.0000      -0.420811       -11.4509
  61   2.0000      -0.413685       -11.2569
  62   2.0000      -0.409884       -11.1535
  63   2.0000      -0.346866        -9.4387
  64   2.0000      -0.332603        -9.0506
  65   2.0000      -0.329695        -8.9714
  66   2.0000      -0.292695        -7.9646
  67   0.0000       0.031206         0.8492
  68   0.0000       0.073942         2.0121
  69   0.0000       0.113729         3.0947
  70   0.0000       0.127172         3.4605
  71   0.0000       0.132007         3.5921

MULLIKEN ATOMIC CHARGES
-----------------------
   0 S :    0.109430
   1 C :   -0.132283
   2 C :   -0.071691
   3 C :    0.024093
   4 C :   -0.182333
   5 H :    0.004390
   6 C :    0.087633
   7 H :    0.024879
   8 H :    0.018348
   9 C :   -0.105093
  10 H :    0.027835
  11 H :    0.041200
  12 C :   -0.029576
  13 H :    0.011630
  14 H :    0.041649
  15 H :    0.024826
  16 S :    0.094207
  17 C :   -0.078067
  18 C :   -0.075265
  19 C :   -0.035063
  20 C :   -0.141464
  21 H :    0.030402
  22 C :    0.124351
  23 H :    0.008902
  24 H :    0.044677
  25 C :   -0.135192
  26 H :    0.027120
  27 H :    0.018381
  28 C :    0.025528
  29 H :    0.025325
  30 H :    0.012885
  31 H :    0.044672
  32 H :    0.065064
  33 H :    0.048601
Sum of atomic charges:    0.0000000

LOEWDIN ATOMIC CHARGES
----------------------
   0 S :    0.411477
   1 C :   -0.213031
   2 C :   -0.070547
   3 C :   -0.063999
   4 C :   -0.187437
   5 H :    0.027816
   6 C :   -0.027817
   7 H :    0.034716
   8 H :    0.026400
   9 C :   -0.050415
  10 H :    0.028360
  11 H :    0.030279
  12 C :   -0.078574
  13 H :    0.026660
  14 H :    0.030039
  15 H :    0.025913
  16 S :    0.383985
  17 C :   -0.179457
  18 C :   -0.080903
  19 C :   -0.053351
  20 C :   -0.190308
  21 H :    0.037350
  22 C :   -0.033139
  23 H :    0.033647
  24 H :    0.038535
  25 C :   -0.043386
  26 H :    0.021489
  27 H :    0.021118
  28 C :   -0.060281
  29 H :    0.026640
  30 H :    0.027532
  31 H :    0.032184
  32 H :    0.037830
  33 H :    0.030674

  Mayer bond orders larger than 0.100000
B(  0-S ,  1-C ) :   1.1499 B(  0-S ,  4-C ) :   1.1569 B(  1-C ,  2-C ) :   1.6106
B(  1-C , 32-H ) :   0.9541 B(  2-C ,  3-C ) :   1.2392 B(  2-C ,  6-C ) :   1.0437
B(  3-C ,  4-C ) :   1.5957 B(  3-C ,  5-H ) :   0.9980 B(  4-C , 20-C ) :   1.0048
B(  6-C ,  7-H ) :   0.9304 B(  6-C ,  8-H ) :   0.9322 B(  6-C ,  9-C ) :   1.0682
B(  9-C , 10-H ) :   0.9595 B(  9-C , 11-H ) :   0.9557 B(  9-C , 12-C ) :   1.0642
B( 12-C , 13-H ) :   0.9701 B( 12-C , 14-H ) :   0.9765 B( 12-C , 15-H ) :   0.9713
B( 16-S , 17-C ) :   1.1255 B( 16-S , 20-C ) :   1.1417 B( 17-C , 18-C ) :   1.6576
B( 17-C , 33-H ) :   0.9646 B( 18-C , 19-C ) :   1.1985 B( 18-C , 21-H ) :   0.9730
B( 19-C , 20-C ) :   1.6292 B( 19-C , 22-C ) :   1.0229 B( 22-C , 23-H ) :   0.9098
B( 22-C , 24-H ) :   0.9277 B( 22-C , 25-C ) :   1.0985 B( 25-C , 26-H ) :   0.9432
B( 25-C , 27-H ) :   0.9495 B( 25-C , 28-C ) :   1.0992 B( 28-C , 29-H ) :   0.9670
B( 28-C , 30-H ) :   0.9624 B( 28-C , 31-H ) :   0.9716

Dispersion correction           -0.013446323
FINAL SINGLE POINT ENERGY     -1339.866431907899

DIPOLE MOMENT
-------------
                                X             Y             Z
Electronic contribution:     13.70987     -24.72003      14.88527
Nuclear contribution   :    -13.85741      25.51665     -14.98253
                        -----------------------------------------
Total Dipole Moment    :     -0.14753       0.79662      -0.09725
                        -----------------------------------------
Magnitude (a.u.)       :      0.81599
Magnitude (Debye)      :      2.07407

Rotational constants in cm-1:     0.016125     0.009223     0.006262
Rotational constants in MHz :   483.404753   276.503593   187.734735

                             ****ORCA TERMINATED NORMALLY****
TOTAL RUN TIME: 0 days 0 hours 0 minutes 21 seconds 431 msec
