                         Program Version 4.2.1 -  RELEASE  -
|  1> ! wB97X-D3 SP def2-SVP
|  2> %pal
|  3> nprocs 24
|  4> end
|  5>
|  6> * xyz 0 1
|  7> S 	 -116.633 	 57.2698 	 -77.9969
|  8> C 	 -117.767 	 57.3897 	 -79.268
|  9> C 	 -117.177 	 57.3635 	 -80.5122
| 10> C 	 -115.74 	 57.2218 	 -80.3676
| 11> C 	 -115.296 	 57.3409 	 -79.0805
| 12> H 	 -115.022 	 57.1586 	 -81.1614
| 13> C 	 -117.864 	 57.4525 	 -81.7977
| 14> H 	 -117.927 	 56.4282 	 -82.1464
| 15> H 	 -117.091 	 57.8841 	 -82.5365
| 16> C 	 -119.178 	 58.1153 	 -81.8322
| 17> H 	 -119.697 	 57.894 	 -82.7672
| 18> H 	 -119.748 	 57.6052 	 -81.0813
| 19> C 	 -119.23 	 59.6221 	 -81.6842
| 20> H 	 -120.28 	 60.0332 	 -81.6693
| 21> H 	 -118.809 	 60.007 	 -80.7892
| 22> H 	 -118.802 	 60.1231 	 -82.5779
| 23> S 	 -113.349 	 55.5647 	 -78.5221
| 24> C 	 -111.793 	 56.1067 	 -77.9517
| 25> C 	 -111.706 	 57.4975 	 -77.8463
| 26> C 	 -112.936 	 58.1622 	 -78.1965
| 27> C 	 -113.951 	 57.2116 	 -78.5393
| 28> H 	 -110.833 	 58.0009 	 -77.6099
| 29> C 	 -113.03 	 59.6748 	 -78.3357
| 30> H 	 -112.585 	 60.1335 	 -77.4838
| 31> H 	 -114.044 	 59.9515 	 -78.3744
| 32> C 	 -112.439 	 60.2768 	 -79.6257
| 33> H 	 -113.174 	 60.16 	 -80.3965
| 34> H 	 -111.62 	 59.7858 	 -79.9874
| 35> C 	 -111.911 	 61.6352 	 -79.5672
| 36> H 	 -112.667 	 62.4335 	 -79.5378
| 37> H 	 -111.359 	 61.9375 	 -80.4883
| 38> H 	 -111.169 	 61.6973 	 -78.7073
| 39> H 	 -118.823 	 57.6457 	 -79.107
| 40> H 	 -110.927 	 55.414 	 -77.5922
| 41> *
| 42>
| 43>                          ****END OF INPUT****

CARTESIAN COORDINATES (ANGSTROEM)
---------------------------------
  S    -116.633000   57.269800  -77.996900
  C    -117.767000   57.389700  -79.268000
  C    -117.177000   57.363500  -80.512200
  C    -115.740000   57.221800  -80.367600
  C    -115.296000   57.340900  -79.080500
  H    -115.022000   57.158600  -81.161400
  C    -117.864000   57.452500  -81.797700
  H    -117.927000   56.428200  -82.146400
  H    -117.091000   57.884100  -82.536500
  C    -119.178000   58.115300  -81.832200
  H    -119.697000   57.894000  -82.767200
  H    -119.748000   57.605200  -81.081300
  C    -119.230000   59.622100  -81.684200
  H    -120.280000   60.033200  -81.669300
  H    -118.809000   60.007000  -80.789200
  H    -118.802000   60.123100  -82.577900
  S    -113.349000   55.564700  -78.522100
  C    -111.793000   56.106700  -77.951700
  C    -111.706000   57.497500  -77.846300
  C    -112.936000   58.162200  -78.196500
  C    -113.951000   57.211600  -78.539300
  H    -110.833000   58.000900  -77.609900
  C    -113.030000   59.674800  -78.335700
  H    -112.585000   60.133500  -77.483800
  H    -114.044000   59.951500  -78.374400
  C    -112.439000   60.276800  -79.625700
  H    -113.174000   60.160000  -80.396500
  H    -111.620000   59.785800  -79.987400
  C    -111.911000   61.635200  -79.567200
  H    -112.667000   62.433500  -79.537800
  H    -111.359000   61.937500  -80.488300
  H    -111.169000   61.697300  -78.707300
  H    -118.823000   57.645700  -79.107000
  H    -110.927000   55.414000  -77.592200

 Total Charge           Charge          ....    0
 Multiplicity           Mult            ....    1
 Number of Electrons    NEL             ....  134
 Basis Dimension        Dim             ....  322

ORBITAL ENERGIES
----------------

  NO   OCC          E(Eh)            E(eV)
   0   2.0000     -88.968072     -2420.9443
   1   2.0000     -88.958582     -2420.6861
   2   2.0000     -10.327398      -281.0228
   3   2.0000     -10.325880      -280.9815
   4   2.0000     -10.321978      -280.8753
   5   2.0000     -10.310443      -280.5614
   6   2.0000     -10.307049      -280.4691
   7   2.0000     -10.297527      -280.2100
   8   2.0000     -10.291688      -280.0511
   9   2.0000     -10.291621      -280.0493
  10   2.0000     -10.290504      -280.0189
  11   2.0000     -10.284802      -279.8637
  12   2.0000     -10.284142      -279.8457
  13   2.0000     -10.280966      -279.7593
  14   2.0000     -10.279837      -279.7286
  15   2.0000     -10.269513      -279.4477
  16   2.0000      -8.082578      -219.9381
  17   2.0000      -8.074886      -219.7288
  18   2.0000      -6.041050      -164.3853
  19   2.0000      -6.037032      -164.2760
  20   2.0000      -6.033478      -164.1793
  21   2.0000      -6.033315      -164.1749
  22   2.0000      -6.029101      -164.0602
  23   2.0000      -6.025717      -163.9681
  24   2.0000      -1.009239       -27.4628
  25   2.0000      -0.982702       -26.7407
  26   2.0000      -0.925272       -25.1779
  27   2.0000      -0.916129       -24.9291
  28   2.0000      -0.867669       -23.6105
  29   2.0000      -0.855387       -23.2763
  30   2.0000      -0.850755       -23.1502
  31   2.0000      -0.813244       -22.1295
  32   2.0000      -0.788387       -21.4531
  33   2.0000      -0.769699       -20.9446
  34   2.0000      -0.711304       -19.3556
  35   2.0000      -0.701310       -19.0836
  36   2.0000      -0.688562       -18.7367
  37   2.0000      -0.660686       -17.9782
  38   2.0000      -0.643002       -17.4970
  39   2.0000      -0.608024       -16.5452
  40   2.0000      -0.594883       -16.1876
  41   2.0000      -0.581672       -15.8281
  42   2.0000      -0.574109       -15.6223
  43   2.0000      -0.559318       -15.2198
  44   2.0000      -0.541198       -14.7268
  45   2.0000      -0.522039       -14.2054
  46   2.0000      -0.518493       -14.1089
  47   2.0000      -0.515372       -14.0240
  48   2.0000      -0.510017       -13.8783
  49   2.0000      -0.494376       -13.4527
  50   2.0000      -0.493082       -13.4175
  51   2.0000      -0.477323       -12.9886
  52   2.0000      -0.469021       -12.7627
  53   2.0000      -0.462220       -12.5776
  54   2.0000      -0.459701       -12.5091
  55   2.0000      -0.455947       -12.4070
  56   2.0000      -0.444205       -12.0874
  57   2.0000      -0.438622       -11.9355
  58   2.0000      -0.430294       -11.7089
  59   2.0000      -0.426217       -11.5979
  60   2.0000      -0.423152       -11.5145
  61   2.0000      -0.415920       -11.3178
  62   2.0000      -0.410913       -11.1815
  63   2.0000      -0.336003        -9.1431
  64   2.0000      -0.325628        -8.8608
  65   2.0000      -0.316233        -8.6051
  66   2.0000      -0.308076        -8.3832
  67   0.0000       0.045232         1.2308
  68   0.0000       0.056884         1.5479
  69   0.0000       0.113140         3.0787
  70   0.0000       0.124394         3.3849
  71   0.0000       0.129194         3.5156

MULLIKEN ATOMIC CHARGES
-----------------------
   0 S :    0.117074
   1 C :   -0.141322
   2 C :   -0.107520
   3 C :    0.042005
   4 C :   -0.168066
   5 H :    0.003053
   6 C :    0.072571
   7 H :    0.040056
   8 H :    0.025173
   9 C :   -0.052774
  10 H :    0.024635
  11 H :    0.017899
  12 C :   -0.048587
  13 H :    0.032568
  14 H :    0.030263
  15 H :    0.032964
  16 S :    0.131845
  17 C :   -0.123846
  18 C :   -0.010665
  19 C :   -0.030884
  20 C :   -0.197232
  21 H :   -0.009004
  22 C :    0.131682
  23 H :    0.010541
  24 H :    0.015164
  25 C :   -0.015354
  26 H :    0.015176
  27 H :    0.000028
  28 C :   -0.084095
  29 H :    0.027381
  30 H :    0.033100
  31 H :    0.036721
  32 H :    0.058318
  33 H :    0.091132
Sum of atomic charges:   -0.0000000

LOEWDIN ATOMIC CHARGES
----------------------
   0 S :    0.430411
   1 C :   -0.220970
   2 C :   -0.064556
   3 C :   -0.057461
   4 C :   -0.214550
   5 H :    0.027104
   6 C :   -0.041773
   7 H :    0.041488
   8 H :    0.036539
   9 C :   -0.046154
  10 H :    0.031351
  11 H :    0.021626
  12 C :   -0.066329
  13 H :    0.033254
  14 H :    0.018072
  15 H :    0.029735
  16 S :    0.421959
  17 C :   -0.204657
  18 C :   -0.066840
  19 C :   -0.040131
  20 C :   -0.213076
  21 H :    0.018851
  22 C :   -0.019412
  23 H :    0.025513
  24 H :    0.028726
  25 C :   -0.041431
  26 H :    0.023805
  27 H :    0.014658
  28 C :   -0.067914
  29 H :    0.020337
  30 H :    0.031312
  31 H :    0.030411
  32 H :    0.029428
  33 H :    0.050676

  Mayer bond orders larger than 0.100000
B(  0-S ,  1-C ) :   1.1464 B(  0-S ,  4-C ) :   1.1666 B(  1-C ,  2-C ) :   1.6106
B(  1-C , 32-H ) :   0.9568 B(  2-C ,  3-C ) :   1.2254 B(  2-C ,  6-C ) :   1.0209
B(  3-C ,  4-C ) :   1.6012 B(  3-C ,  5-H ) :   1.0004 B(  4-C , 20-C ) :   0.9922
B(  6-C ,  7-H ) :   0.9149 B(  6-C ,  8-H ) :   0.9375 B(  6-C ,  9-C ) :   1.0917
B(  9-C , 10-H ) :   0.9448 B(  9-C , 11-H ) :   0.9424 B(  9-C , 12-C ) :   1.0869
B( 12-C , 13-H ) :   0.9725 B( 12-C , 14-H ) :   0.9767 B( 12-C , 15-H ) :   0.9716
B( 16-S , 17-C ) :   1.1641 B( 16-S , 20-C ) :   1.1653 B( 17-C , 18-C ) :   1.5926
B( 17-C , 20-C ) :   0.1047 B( 17-C , 33-H ) :   0.9523 B( 18-C , 19-C ) :   1.2557
B( 18-C , 21-H ) :   0.9984 B( 19-C , 20-C ) :   1.5703 B( 19-C , 22-C ) :   1.0633
B( 22-C , 23-H ) :   0.9347 B( 22-C , 24-H ) :   0.9242 B( 22-C , 25-C ) :   1.0543
B( 25-C , 26-H ) :   0.9467 B( 25-C , 27-H ) :   0.9561 B( 25-C , 28-C ) :   1.0921
B( 28-C , 29-H ) :   0.9732 B( 28-C , 30-H ) :   0.9705 B( 28-C , 31-H ) :   0.9713

Dispersion correction           -0.013942993
FINAL SINGLE POINT ENERGY     -1339.868102515592

DIPOLE MOMENT
-------------
                                X             Y             Z
Electronic contribution:      4.07809     -21.76328      14.94609
Nuclear contribution   :     -4.00875      22.09720     -15.44961
                        -----------------------------------------
Total Dipole Moment    :      0.06934       0.33392      -0.50352
                        -----------------------------------------
Magnitude (a.u.)       :      0.60814
Magnitude (Debye)      :      1.54578

Rotational constants in cm-1:     0.018913     0.008251     0.006511
Rotational constants in MHz :   566.997657   247.346611   195.183795

                             ****ORCA TERMINATED NORMALLY****
TOTAL RUN TIME: 0 days 0 hours 0 minutes 21 seconds 254 msec
