                         Program Version 4.2.1 -  RELEASE  -
|  1> ! wB97X-D3 SP def2-SVP
|  2> %pal
|  3> nprocs 24
|  4> end
|  5>
|  6> * xyz 0 1
|  7> S 	 -109.189 	 29.7451 	 -17.1314
|  8> C 	 -109.022 	 28.7147 	 -18.4645
|  9> C 	 -108.101 	 29.248 	 -19.4209
| 10> C 	 -107.488 	 30.5411 	 -18.9585
| 11> C 	 -108.018 	 30.9343 	 -17.7417
| 12> H 	 -106.815 	 31.3501 	 -19.3653
| 13> C 	 -107.849 	 28.7841 	 -20.8425
| 14> H 	 -107.436 	 27.7667 	 -20.7939
| 15> H 	 -107.066 	 29.4942 	 -21.2504
| 16> C 	 -109.07 	 28.8814 	 -21.7624
| 17> H 	 -109.922 	 28.4544 	 -21.2158
| 18> H 	 -109.325 	 29.9563 	 -21.7652
| 19> C 	 -108.706 	 28.4774 	 -23.1686
| 20> H 	 -108.429 	 27.4355 	 -23.2731
| 21> H 	 -109.601 	 28.4699 	 -23.7787
| 22> H 	 -107.933 	 28.9853 	 -23.7098
| 23> S 	 -106.161 	 32.6182 	 -16.6308
| 24> C 	 -106.674 	 33.9786 	 -15.6247
| 25> C 	 -108.029 	 34.1057 	 -15.7355
| 26> C 	 -108.74 	 33.0814 	 -16.4529
| 27> C 	 -107.781 	 32.158 	 -16.9716
| 28> H 	 -108.609 	 34.8361 	 -15.1397
| 29> C 	 -110.241 	 33.0198 	 -16.686
| 30> H 	 -110.806 	 33.6255 	 -15.9455
| 31> H 	 -110.687 	 31.9932 	 -16.6157
| 32> C 	 -110.757 	 33.6006 	 -17.9978
| 33> H 	 -110.521 	 32.8571 	 -18.8044
| 34> H 	 -110.266 	 34.5532 	 -18.3109
| 35> C 	 -112.295 	 34.0239 	 -18.1609
| 36> H 	 -112.973 	 33.1362 	 -17.9759
| 37> H 	 -112.525 	 34.2909 	 -19.1648
| 38> H 	 -112.697 	 34.7383 	 -17.47
| 39> H 	 -109.653 	 27.8149 	 -18.6044
| 40> H 	 -106.073 	 34.6724 	 -15.1046
| 41> *
| 42>
| 43>                          ****END OF INPUT****

CARTESIAN COORDINATES (ANGSTROEM)
---------------------------------
  S    -109.189000   29.745100  -17.131400
  C    -109.022000   28.714700  -18.464500
  C    -108.101000   29.248000  -19.420900
  C    -107.488000   30.541100  -18.958500
  C    -108.018000   30.934300  -17.741700
  H    -106.815000   31.350100  -19.365300
  C    -107.849000   28.784100  -20.842500
  H    -107.436000   27.766700  -20.793900
  H    -107.066000   29.494200  -21.250400
  C    -109.070000   28.881400  -21.762400
  H    -109.922000   28.454400  -21.215800
  H    -109.325000   29.956300  -21.765200
  C    -108.706000   28.477400  -23.168600
  H    -108.429000   27.435500  -23.273100
  H    -109.601000   28.469900  -23.778700
  H    -107.933000   28.985300  -23.709800
  S    -106.161000   32.618200  -16.630800
  C    -106.674000   33.978600  -15.624700
  C    -108.029000   34.105700  -15.735500
  C    -108.740000   33.081400  -16.452900
  C    -107.781000   32.158000  -16.971600
  H    -108.609000   34.836100  -15.139700
  C    -110.241000   33.019800  -16.686000
  H    -110.806000   33.625500  -15.945500
  H    -110.687000   31.993200  -16.615700
  C    -110.757000   33.600600  -17.997800
  H    -110.521000   32.857100  -18.804400
  H    -110.266000   34.553200  -18.310900
  C    -112.295000   34.023900  -18.160900
  H    -112.973000   33.136200  -17.975900
  H    -112.525000   34.290900  -19.164800
  H    -112.697000   34.738300  -17.470000
  H    -109.653000   27.814900  -18.604400
  H    -106.073000   34.672400  -15.104600

 Total Charge           Charge          ....    0
 Multiplicity           Mult            ....    1
 Number of Electrons    NEL             ....  134
 Basis Dimension        Dim             ....  322

ORBITAL ENERGIES
----------------

  NO   OCC          E(Eh)            E(eV)
   0   2.0000     -88.970714     -2421.0162
   1   2.0000     -88.966333     -2420.8970
   2   2.0000     -10.331409      -281.1319
   3   2.0000     -10.330832      -281.1162
   4   2.0000     -10.320612      -280.8381
   5   2.0000     -10.316838      -280.7354
   6   2.0000     -10.315479      -280.6984
   7   2.0000     -10.310892      -280.5736
   8   2.0000     -10.306470      -280.4533
   9   2.0000     -10.298507      -280.2366
  10   2.0000     -10.297808      -280.2176
  11   2.0000     -10.292999      -280.0868
  12   2.0000     -10.292025      -280.0602
  13   2.0000     -10.288627      -279.9678
  14   2.0000     -10.280549      -279.7480
  15   2.0000     -10.275311      -279.6054
  16   2.0000      -8.085355      -220.0137
  17   2.0000      -8.081253      -219.9021
  18   2.0000      -6.043838      -164.4612
  19   2.0000      -6.039778      -164.3507
  20   2.0000      -6.039715      -164.3490
  21   2.0000      -6.036239      -164.2544
  22   2.0000      -6.035584      -164.2366
  23   2.0000      -6.032198      -164.1445
  24   2.0000      -1.005347       -27.3569
  25   2.0000      -0.981379       -26.7047
  26   2.0000      -0.911836       -24.8123
  27   2.0000      -0.900801       -24.5121
  28   2.0000      -0.872678       -23.7468
  29   2.0000      -0.848449       -23.0875
  30   2.0000      -0.842466       -22.9247
  31   2.0000      -0.815833       -22.1999
  32   2.0000      -0.782362       -21.2892
  33   2.0000      -0.768146       -20.9023
  34   2.0000      -0.706204       -19.2168
  35   2.0000      -0.700792       -19.0695
  36   2.0000      -0.686640       -18.6844
  37   2.0000      -0.662504       -18.0277
  38   2.0000      -0.642553       -17.4848
  39   2.0000      -0.608050       -16.5459
  40   2.0000      -0.595729       -16.2106
  41   2.0000      -0.570136       -15.5142
  42   2.0000      -0.557656       -15.1746
  43   2.0000      -0.555301       -15.1105
  44   2.0000      -0.521976       -14.2037
  45   2.0000      -0.518718       -14.1150
  46   2.0000      -0.515991       -14.0408
  47   2.0000      -0.513201       -13.9649
  48   2.0000      -0.507667       -13.8143
  49   2.0000      -0.497682       -13.5426
  50   2.0000      -0.493574       -13.4308
  51   2.0000      -0.483355       -13.1528
  52   2.0000      -0.473396       -12.8817
  53   2.0000      -0.462899       -12.5961
  54   2.0000      -0.458861       -12.4862
  55   2.0000      -0.455530       -12.3956
  56   2.0000      -0.448414       -12.2020
  57   2.0000      -0.434251       -11.8166
  58   2.0000      -0.425086       -11.5672
  59   2.0000      -0.419759       -11.4222
  60   2.0000      -0.414143       -11.2694
  61   2.0000      -0.410958       -11.1827
  62   2.0000      -0.406123       -11.0512
  63   2.0000      -0.352525        -9.5927
  64   2.0000      -0.334746        -9.1089
  65   2.0000      -0.322917        -8.7870
  66   2.0000      -0.290854        -7.9145
  67   0.0000       0.027267         0.7420
  68   0.0000       0.071025         1.9327
  69   0.0000       0.107471         2.9244
  70   0.0000       0.118469         3.2237
  71   0.0000       0.129502         3.5239

MULLIKEN ATOMIC CHARGES
-----------------------
   0 S :    0.115040
   1 C :   -0.131628
   2 C :   -0.105748
   3 C :    0.015096
   4 C :   -0.171942
   5 H :    0.043354
   6 C :    0.026461
   7 H :    0.039529
   8 H :    0.032991
   9 C :   -0.063615
  10 H :    0.027993
  11 H :    0.027132
  12 C :   -0.013826
  13 H :    0.015284
  14 H :    0.025187
  15 H :    0.033579
  16 S :    0.118828
  17 C :   -0.072901
  18 C :   -0.035364
  19 C :   -0.022993
  20 C :   -0.162517
  21 H :    0.027271
  22 C :    0.063800
  23 H :    0.016705
  24 H :    0.042419
  25 C :   -0.109405
  26 H :    0.040680
  27 H :    0.036265
  28 C :   -0.059413
  29 H :    0.021503
  30 H :    0.032651
  31 H :    0.031813
  32 H :    0.071571
  33 H :    0.044195
Sum of atomic charges:   -0.0000000

LOEWDIN ATOMIC CHARGES
----------------------
   0 S :    0.428982
   1 C :   -0.228508
   2 C :   -0.057760
   3 C :   -0.076603
   4 C :   -0.190421
   5 H :    0.047477
   6 C :   -0.041574
   7 H :    0.030058
   8 H :    0.036007
   9 C :   -0.043748
  10 H :    0.025922
  11 H :    0.029837
  12 C :   -0.068977
  13 H :    0.024658
  14 H :    0.029004
  15 H :    0.027441
  16 S :    0.423243
  17 C :   -0.182820
  18 C :   -0.067160
  19 C :   -0.057006
  20 C :   -0.209095
  21 H :    0.034497
  22 C :   -0.047390
  23 H :    0.032352
  24 H :    0.030172
  25 C :   -0.046018
  26 H :    0.028211
  27 H :    0.026203
  28 C :   -0.070994
  29 H :    0.026366
  30 H :    0.024171
  31 H :    0.019733
  32 H :    0.037646
  33 H :    0.026093

  Mayer bond orders larger than 0.100000
B(  0-S ,  1-C ) :   1.1573 B(  0-S ,  4-C ) :   1.1475 B(  1-C ,  2-C ) :   1.5912
B(  1-C , 32-H ) :   0.9667 B(  2-C ,  3-C ) :   1.2110 B(  2-C ,  6-C ) :   1.0273
B(  3-C ,  4-C ) :   1.6164 B(  3-C ,  5-H ) :   0.9738 B(  4-C , 20-C ) :   1.0261
B(  6-C ,  7-H ) :   0.9370 B(  6-C ,  8-H ) :   0.9485 B(  6-C ,  9-C ) :   1.0605
B(  9-C , 10-H ) :   0.9583 B(  9-C , 11-H ) :   0.9510 B(  9-C , 12-C ) :   1.0756
B( 12-C , 13-H ) :   0.9709 B( 12-C , 14-H ) :   0.9697 B( 12-C , 15-H ) :   0.9736
B( 16-S , 17-C ) :   1.1358 B( 16-S , 20-C ) :   1.1726 B( 17-C , 18-C ) :   1.6077
B( 17-C , 33-H ) :   0.9751 B( 18-C , 19-C ) :   1.2771 B( 18-C , 21-H ) :   0.9732
B( 19-C , 20-C ) :   1.5285 B( 19-C , 22-C ) :   1.0563 B( 22-C , 23-H ) :   0.9322
B( 22-C , 24-H ) :   0.9275 B( 22-C , 25-C ) :   1.0508 B( 25-C , 26-H ) :   0.9564
B( 25-C , 27-H ) :   0.9600 B( 25-C , 28-C ) :   1.0727 B( 28-C , 29-H ) :   0.9751
B( 28-C , 30-H ) :   0.9763 B( 28-C , 31-H ) :   0.9765

Dispersion correction           -0.014030617
FINAL SINGLE POINT ENERGY     -1339.866295737696

DIPOLE MOMENT
-------------
                                X             Y             Z
Electronic contribution:     16.19335      -0.16908      20.80654
Nuclear contribution   :    -16.52004       0.32466     -21.19361
                        -----------------------------------------
Total Dipole Moment    :     -0.32669       0.15557      -0.38707
                        -----------------------------------------
Magnitude (a.u.)       :      0.52986
Magnitude (Debye)      :      1.34680

Rotational constants in cm-1:     0.018218     0.008085     0.006721
Rotational constants in MHz :   546.160130   242.392431   201.486274

                             ****ORCA TERMINATED NORMALLY****
TOTAL RUN TIME: 0 days 0 hours 0 minutes 20 seconds 119 msec
