                         Program Version 4.2.1 -  RELEASE  -
|  1> ! wB97X-D3 SP def2-SVP
|  2> %pal
|  3> nprocs 24
|  4> end
|  5>
|  6> * xyz 0 1
|  7> S 	 -125.079 	 18.9385 	 -23.3227
|  8> C 	 -125.114 	 20.0321 	 -21.8531
|  9> C 	 -124.3 	 21.0981 	 -22.0745
| 10> C 	 -123.565 	 21.0093 	 -23.3042
| 11> C 	 -123.882 	 19.9058 	 -24.0631
| 12> H 	 -122.878 	 21.6985 	 -23.6819
| 13> C 	 -124.205 	 22.2474 	 -20.989
| 14> H 	 -124.371 	 21.878 	 -20.0257
| 15> H 	 -125.007 	 22.9617 	 -21.1992
| 16> C 	 -122.831 	 22.9651 	 -21.0497
| 17> H 	 -122.08 	 22.2451 	 -20.9247
| 18> H 	 -122.766 	 23.4632 	 -22.0036
| 19> C 	 -122.807 	 24.1186 	 -20.0127
| 20> H 	 -122.028 	 24.8197 	 -20.2713
| 21> H 	 -123.781 	 24.6401 	 -19.9645
| 22> H 	 -122.539 	 23.6673 	 -19.0458
| 23> S 	 -124.798 	 20.078 	 -26.6673
| 24> C 	 -123.677 	 20.1492 	 -27.9599
| 25> C 	 -122.428 	 19.8032 	 -27.5718
| 26> C 	 -122.291 	 19.7801 	 -26.1671
| 27> C 	 -123.521 	 19.8398 	 -25.4668
| 28> H 	 -121.698 	 19.6642 	 -28.4123
| 29> C 	 -120.94 	 19.5905 	 -25.571
| 30> H 	 -121.027 	 19.951 	 -24.5111
| 31> H 	 -120.252 	 20.1958 	 -26.1152
| 32> C 	 -120.26 	 18.1475 	 -25.7123
| 33> H 	 -119.291 	 18.1324 	 -25.2592
| 34> H 	 -120.196 	 17.7492 	 -26.7153
| 35> C 	 -120.927 	 17.0846 	 -24.8994
| 36> H 	 -121.998 	 16.9094 	 -25.2648
| 37> H 	 -120.978 	 17.5289 	 -23.9103
| 38> H 	 -120.292 	 16.236 	 -24.9005
| 39> H 	 -125.827 	 20.0143 	 -21.0441
| 40> H 	 -123.982 	 20.1964 	 -28.9906
| 41> *
| 42>
| 43>                          ****END OF INPUT****

CARTESIAN COORDINATES (ANGSTROEM)
---------------------------------
  S    -125.079000   18.938500  -23.322700
  C    -125.114000   20.032100  -21.853100
  C    -124.300000   21.098100  -22.074500
  C    -123.565000   21.009300  -23.304200
  C    -123.882000   19.905800  -24.063100
  H    -122.878000   21.698500  -23.681900
  C    -124.205000   22.247400  -20.989000
  H    -124.371000   21.878000  -20.025700
  H    -125.007000   22.961700  -21.199200
  C    -122.831000   22.965100  -21.049700
  H    -122.080000   22.245100  -20.924700
  H    -122.766000   23.463200  -22.003600
  C    -122.807000   24.118600  -20.012700
  H    -122.028000   24.819700  -20.271300
  H    -123.781000   24.640100  -19.964500
  H    -122.539000   23.667300  -19.045800
  S    -124.798000   20.078000  -26.667300
  C    -123.677000   20.149200  -27.959900
  C    -122.428000   19.803200  -27.571800
  C    -122.291000   19.780100  -26.167100
  C    -123.521000   19.839800  -25.466800
  H    -121.698000   19.664200  -28.412300
  C    -120.940000   19.590500  -25.571000
  H    -121.027000   19.951000  -24.511100
  H    -120.252000   20.195800  -26.115200
  C    -120.260000   18.147500  -25.712300
  H    -119.291000   18.132400  -25.259200
  H    -120.196000   17.749200  -26.715300
  C    -120.927000   17.084600  -24.899400
  H    -121.998000   16.909400  -25.264800
  H    -120.978000   17.528900  -23.910300
  H    -120.292000   16.236000  -24.900500
  H    -125.827000   20.014300  -21.044100
  H    -123.982000   20.196400  -28.990600

 Total Charge           Charge          ....    0
 Multiplicity           Mult            ....    1
 Number of Electrons    NEL             ....  134
 Basis Dimension        Dim             ....  322

ORBITAL ENERGIES
----------------

  NO   OCC          E(Eh)            E(eV)
   0   2.0000     -88.966967     -2420.9142
   1   2.0000     -88.961416     -2420.7632
   2   2.0000     -10.329447      -281.0785
   3   2.0000     -10.327436      -281.0238
   4   2.0000     -10.315364      -280.6953
   5   2.0000     -10.309482      -280.5353
   6   2.0000     -10.304271      -280.3935
   7   2.0000     -10.303547      -280.3738
   8   2.0000     -10.294191      -280.1192
   9   2.0000     -10.291120      -280.0356
  10   2.0000     -10.290962      -280.0313
  11   2.0000     -10.290107      -280.0080
  12   2.0000     -10.283245      -279.8213
  13   2.0000     -10.281474      -279.7731
  14   2.0000     -10.280222      -279.7391
  15   2.0000     -10.266223      -279.3581
  16   2.0000      -8.081187      -219.9003
  17   2.0000      -8.076833      -219.7818
  18   2.0000      -6.039743      -164.3498
  19   2.0000      -6.035786      -164.2421
  20   2.0000      -6.035295      -164.2287
  21   2.0000      -6.031878      -164.1357
  22   2.0000      -6.031169      -164.1165
  23   2.0000      -6.027675      -164.0214
  24   2.0000      -1.008927       -27.4543
  25   2.0000      -0.985507       -26.8170
  26   2.0000      -0.911049       -24.7909
  27   2.0000      -0.906842       -24.6764
  28   2.0000      -0.873313       -23.7641
  29   2.0000      -0.854687       -23.2572
  30   2.0000      -0.842423       -22.9235
  31   2.0000      -0.816351       -22.2140
  32   2.0000      -0.781646       -21.2697
  33   2.0000      -0.770122       -20.9561
  34   2.0000      -0.713163       -19.4062
  35   2.0000      -0.692896       -18.8547
  36   2.0000      -0.687597       -18.7105
  37   2.0000      -0.651554       -17.7297
  38   2.0000      -0.642728       -17.4895
  39   2.0000      -0.618927       -16.8418
  40   2.0000      -0.594352       -16.1731
  41   2.0000      -0.578369       -15.7382
  42   2.0000      -0.568563       -15.4714
  43   2.0000      -0.550947       -14.9920
  44   2.0000      -0.544857       -14.8263
  45   2.0000      -0.526474       -14.3261
  46   2.0000      -0.519033       -14.1236
  47   2.0000      -0.510316       -13.8864
  48   2.0000      -0.506783       -13.7903
  49   2.0000      -0.499418       -13.5899
  50   2.0000      -0.491961       -13.3869
  51   2.0000      -0.482966       -13.1422
  52   2.0000      -0.471573       -12.8321
  53   2.0000      -0.460917       -12.5422
  54   2.0000      -0.453177       -12.3316
  55   2.0000      -0.451399       -12.2832
  56   2.0000      -0.441595       -12.0164
  57   2.0000      -0.436481       -11.8772
  58   2.0000      -0.428331       -11.6555
  59   2.0000      -0.426749       -11.6124
  60   2.0000      -0.421565       -11.4714
  61   2.0000      -0.412692       -11.2299
  62   2.0000      -0.407861       -11.0985
  63   2.0000      -0.342638        -9.3237
  64   2.0000      -0.334699        -9.1076
  65   2.0000      -0.325322        -8.8525
  66   2.0000      -0.295984        -8.0541
  67   0.0000       0.034495         0.9387
  68   0.0000       0.063397         1.7251
  69   0.0000       0.112657         3.0656
  70   0.0000       0.125948         3.4272
  71   0.0000       0.131714         3.5841

MULLIKEN ATOMIC CHARGES
-----------------------
   0 S :    0.099252
   1 C :   -0.125686
   2 C :   -0.074360
   3 C :    0.041039
   4 C :   -0.139489
   5 H :   -0.005807
   6 C :    0.077438
   7 H :    0.013083
   8 H :    0.038229
   9 C :   -0.097032
  10 H :    0.030844
  11 H :    0.035519
  12 C :   -0.040749
  13 H :    0.033257
  14 H :    0.037591
  15 H :    0.033500
  16 S :    0.105041
  17 C :   -0.090978
  18 C :   -0.051316
  19 C :   -0.049854
  20 C :   -0.150700
  21 H :    0.039511
  22 C :    0.073799
  23 H :    0.030024
  24 H :    0.019243
  25 C :   -0.072703
  26 H :    0.021563
  27 H :    0.027004
  28 C :   -0.052199
  29 H :    0.047236
  30 H :    0.021077
  31 H :    0.028366
  32 H :    0.045779
  33 H :    0.052476
Sum of atomic charges:    0.0000000

LOEWDIN ATOMIC CHARGES
----------------------
   0 S :    0.392750
   1 C :   -0.176910
   2 C :   -0.055529
   3 C :   -0.058566
   4 C :   -0.208539
   5 H :    0.020979
   6 C :   -0.016660
   7 H :    0.018541
   8 H :    0.032802
   9 C :   -0.034603
  10 H :    0.018098
  11 H :    0.022208
  12 C :   -0.062659
  13 H :    0.024012
  14 H :    0.028724
  15 H :    0.026199
  16 S :    0.412536
  17 C :   -0.191220
  18 C :   -0.081895
  19 C :   -0.058901
  20 C :   -0.196284
  21 H :    0.044093
  22 C :   -0.031681
  23 H :    0.034771
  24 H :    0.027660
  25 C :   -0.036901
  26 H :    0.023030
  27 H :    0.020213
  28 C :   -0.064807
  29 H :    0.031021
  30 H :    0.022339
  31 H :    0.019101
  32 H :    0.028919
  33 H :    0.027158

  Mayer bond orders larger than 0.100000
B(  0-S ,  1-C ) :   1.1052 B(  0-S ,  4-C ) :   1.1569 B(  1-C ,  2-C ) :   1.6584
B(  1-C , 32-H ) :   0.9707 B(  2-C ,  3-C ) :   1.2290 B(  2-C ,  6-C ) :   0.9912
B(  3-C ,  4-C ) :   1.5651 B(  3-C ,  5-H ) :   1.0023 B(  4-C , 20-C ) :   1.0302
B(  6-C ,  7-H ) :   0.9533 B(  6-C ,  8-H ) :   0.9350 B(  6-C ,  9-C ) :   1.0787
B(  9-C , 10-H ) :   0.9655 B(  9-C , 11-H ) :   0.9494 B(  9-C , 12-C ) :   1.0803
B( 12-C , 13-H ) :   0.9762 B( 12-C , 14-H ) :   0.9742 B( 12-C , 15-H ) :   0.9768
B( 16-S , 17-C ) :   1.1742 B( 16-S , 20-C ) :   1.1383 B( 17-C , 18-C ) :   1.6191
B( 17-C , 33-H ) :   0.9630 B( 18-C , 19-C ) :   1.2341 B( 18-C , 21-H ) :   0.9846
B( 19-C , 20-C ) :   1.5705 B( 19-C , 22-C ) :   1.0641 B( 22-C , 23-H ) :   0.9341
B( 22-C , 24-H ) :   0.9258 B( 22-C , 25-C ) :   1.0679 B( 25-C , 26-H ) :   0.9570
B( 25-C , 27-H ) :   0.9578 B( 25-C , 28-C ) :   1.0752 B( 28-C , 29-H ) :   0.9747
B( 28-C , 30-H ) :   0.9764 B( 28-C , 31-H ) :   0.9745

Dispersion correction           -0.014159002
FINAL SINGLE POINT ENERGY     -1339.862004632687

DIPOLE MOMENT
-------------
                                X             Y             Z
Electronic contribution:    -18.34804      -7.45403     -13.29166
Nuclear contribution   :     18.77843       7.89167      13.40126
                        -----------------------------------------
Total Dipole Moment    :      0.43038       0.43763       0.10960
                        -----------------------------------------
Magnitude (a.u.)       :      0.62351
Magnitude (Debye)      :      1.58484

Rotational constants in cm-1:     0.018600     0.007877     0.007249
Rotational constants in MHz :   557.613787   236.152228   217.324273

                             ****ORCA TERMINATED NORMALLY****
TOTAL RUN TIME: 0 days 0 hours 0 minutes 21 seconds 477 msec
