                         Program Version 4.2.1 -  RELEASE  -
|  1> ! wB97X-D3 SP def2-SVP
|  2> %pal
|  3> nprocs 24
|  4> end
|  5>
|  6> * xyz 0 1
|  7> S 	 -50.18 	 17.4519 	 22.7343
|  8> C 	 -51.6379 	 16.581 	 22.6677
|  9> C 	 -51.4524 	 15.3867 	 23.3881
| 10> C 	 -50.1664 	 15.2331 	 23.945
| 11> C 	 -49.4126 	 16.4069 	 23.9232
| 12> H 	 -49.7683 	 14.4245 	 24.5609
| 13> C 	 -52.539 	 14.3909 	 23.3873
| 14> H 	 -52.8205 	 14.1147 	 22.3572
| 15> H 	 -53.4571 	 14.7404 	 23.7642
| 16> C 	 -52.3061 	 13.0895 	 24.267
| 17> H 	 -51.3534 	 12.6391 	 24.0511
| 18> H 	 -52.2377 	 13.318 	 25.3338
| 19> C 	 -53.4867 	 12.0771 	 24.1396
| 20> H 	 -53.4413 	 11.313 	 24.8263
| 21> H 	 -54.3948 	 12.5844 	 24.3986
| 22> H 	 -53.63 	 11.5306 	 23.2085
| 23> S 	 -46.6995 	 16.3533 	 23.5431
| 24> C 	 -45.6102 	 16.7376 	 24.862
| 25> C 	 -46.3769 	 16.9756 	 25.9732
| 26> C 	 -47.7706 	 16.7156 	 25.878
| 27> C 	 -48.1343 	 16.6611 	 24.5674
| 28> H 	 -45.8397 	 17.2358 	 26.8767
| 29> C 	 -48.8024 	 16.7747 	 27.0508
| 30> H 	 -49.7398 	 16.56 	 26.6233
| 31> H 	 -48.9705 	 17.8188 	 27.3618
| 32> C 	 -48.351 	 15.837 	 28.225
| 33> H 	 -48.9249 	 16.0324 	 29.1086
| 34> H 	 -47.2741 	 15.9851 	 28.3944
| 35> C 	 -48.466 	 14.3139 	 27.9351
| 36> H 	 -47.6706 	 14.0036 	 27.2231
| 37> H 	 -49.4846 	 14.2275 	 27.4949
| 38> H 	 -48.4719 	 13.7771 	 28.8594
| 39> H 	 -52.5172 	 16.9061 	 22.1225
| 40> H 	 -44.5117 	 16.6517 	 24.791
| 41> *
| 42>
| 43>                          ****END OF INPUT****

CARTESIAN COORDINATES (ANGSTROEM)
---------------------------------
  S    -50.180000   17.451900   22.734300
  C    -51.637900   16.581000   22.667700
  C    -51.452400   15.386700   23.388100
  C    -50.166400   15.233100   23.945000
  C    -49.412600   16.406900   23.923200
  H    -49.768300   14.424500   24.560900
  C    -52.539000   14.390900   23.387300
  H    -52.820500   14.114700   22.357200
  H    -53.457100   14.740400   23.764200
  C    -52.306100   13.089500   24.267000
  H    -51.353400   12.639100   24.051100
  H    -52.237700   13.318000   25.333800
  C    -53.486700   12.077100   24.139600
  H    -53.441300   11.313000   24.826300
  H    -54.394800   12.584400   24.398600
  H    -53.630000   11.530600   23.208500
  S    -46.699500   16.353300   23.543100
  C    -45.610200   16.737600   24.862000
  C    -46.376900   16.975600   25.973200
  C    -47.770600   16.715600   25.878000
  C    -48.134300   16.661100   24.567400
  H    -45.839700   17.235800   26.876700
  C    -48.802400   16.774700   27.050800
  H    -49.739800   16.560000   26.623300
  H    -48.970500   17.818800   27.361800
  C    -48.351000   15.837000   28.225000
  H    -48.924900   16.032400   29.108600
  H    -47.274100   15.985100   28.394400
  C    -48.466000   14.313900   27.935100
  H    -47.670600   14.003600   27.223100
  H    -49.484600   14.227500   27.494900
  H    -48.471900   13.777100   28.859400
  H    -52.517200   16.906100   22.122500
  H    -44.511700   16.651700   24.791000

 Total Charge           Charge          ....    0
 Multiplicity           Mult            ....    1
 Number of Electrons    NEL             ....  134
 Basis Dimension        Dim             ....  322

ORBITAL ENERGIES
----------------

  NO   OCC          E(Eh)            E(eV)
   0   2.0000     -88.963390     -2420.8169
   1   2.0000     -88.958922     -2420.6953
   2   2.0000     -10.327700      -281.0310
   3   2.0000     -10.325972      -280.9840
   4   2.0000     -10.320202      -280.8270
   5   2.0000     -10.312019      -280.6043
   6   2.0000     -10.306525      -280.4548
   7   2.0000     -10.299658      -280.2679
   8   2.0000     -10.295572      -280.1568
   9   2.0000     -10.295436      -280.1531
  10   2.0000     -10.292836      -280.0823
  11   2.0000     -10.289577      -279.9936
  12   2.0000     -10.289268      -279.9852
  13   2.0000     -10.286969      -279.9226
  14   2.0000     -10.280117      -279.7362
  15   2.0000     -10.271023      -279.4888
  16   2.0000      -8.078716      -219.8330
  17   2.0000      -8.073573      -219.6931
  18   2.0000      -6.037001      -164.2751
  19   2.0000      -6.032919      -164.1641
  20   2.0000      -6.032175      -164.1438
  21   2.0000      -6.029884      -164.0815
  22   2.0000      -6.028139      -164.0340
  23   2.0000      -6.024169      -163.9260
  24   2.0000      -1.008704       -27.4482
  25   2.0000      -0.988091       -26.8873
  26   2.0000      -0.906387       -24.6640
  27   2.0000      -0.902766       -24.5655
  28   2.0000      -0.872033       -23.7292
  29   2.0000      -0.848473       -23.0881
  30   2.0000      -0.844286       -22.9742
  31   2.0000      -0.817180       -22.2366
  32   2.0000      -0.783088       -21.3089
  33   2.0000      -0.770939       -20.9783
  34   2.0000      -0.717050       -19.5119
  35   2.0000      -0.697410       -18.9775
  36   2.0000      -0.691578       -18.8188
  37   2.0000      -0.651707       -17.7339
  38   2.0000      -0.647587       -17.6217
  39   2.0000      -0.618242       -16.8232
  40   2.0000      -0.601907       -16.3787
  41   2.0000      -0.569293       -15.4912
  42   2.0000      -0.560322       -15.2471
  43   2.0000      -0.554566       -15.0905
  44   2.0000      -0.540519       -14.7083
  45   2.0000      -0.525642       -14.3034
  46   2.0000      -0.523150       -14.2356
  47   2.0000      -0.507569       -13.8116
  48   2.0000      -0.505511       -13.7557
  49   2.0000      -0.498404       -13.5623
  50   2.0000      -0.489398       -13.3172
  51   2.0000      -0.483416       -13.1544
  52   2.0000      -0.472153       -12.8479
  53   2.0000      -0.469526       -12.7765
  54   2.0000      -0.458415       -12.4741
  55   2.0000      -0.451171       -12.2770
  56   2.0000      -0.440567       -11.9884
  57   2.0000      -0.440290       -11.9809
  58   2.0000      -0.430372       -11.7110
  59   2.0000      -0.427176       -11.6241
  60   2.0000      -0.415475       -11.3057
  61   2.0000      -0.413684       -11.2569
  62   2.0000      -0.407711       -11.0944
  63   2.0000      -0.338046        -9.1987
  64   2.0000      -0.328806        -8.9473
  65   2.0000      -0.323208        -8.7949
  66   2.0000      -0.299982        -8.1629
  67   0.0000       0.036481         0.9927
  68   0.0000       0.051152         1.3919
  69   0.0000       0.113946         3.1006
  70   0.0000       0.124296         3.3823
  71   0.0000       0.129646         3.5279

MULLIKEN ATOMIC CHARGES
-----------------------
   0 S :    0.123025
   1 C :   -0.117222
   2 C :   -0.072086
   3 C :    0.043745
   4 C :   -0.197933
   5 H :    0.023130
   6 C :    0.061060
   7 H :    0.035446
   8 H :    0.010796
   9 C :   -0.101650
  10 H :    0.030631
  11 H :    0.030154
  12 C :   -0.005780
  13 H :    0.004192
  14 H :    0.015600
  15 H :    0.032214
  16 S :    0.085652
  17 C :   -0.101780
  18 C :   -0.036019
  19 C :   -0.042234
  20 C :   -0.156996
  21 H :    0.019483
  22 C :    0.101747
  23 H :    0.008776
  24 H :    0.043555
  25 C :   -0.089908
  26 H :    0.028983
  27 H :    0.032198
  28 C :   -0.065210
  29 H :    0.056936
  30 H :    0.030061
  31 H :    0.037387
  32 H :    0.056625
  33 H :    0.075427
Sum of atomic charges:   -0.0000000

LOEWDIN ATOMIC CHARGES
----------------------
   0 S :    0.434669
   1 C :   -0.211433
   2 C :   -0.071376
   3 C :   -0.062449
   4 C :   -0.206050
   5 H :    0.035451
   6 C :   -0.034312
   7 H :    0.035631
   8 H :    0.024726
   9 C :   -0.034884
  10 H :    0.016590
  11 H :    0.025133
  12 C :   -0.061044
  13 H :    0.015518
  14 H :    0.022849
  15 H :    0.026581
  16 S :    0.381150
  17 C :   -0.182951
  18 C :   -0.078429
  19 C :   -0.050600
  20 C :   -0.186925
  21 H :    0.028519
  22 C :   -0.020762
  23 H :    0.021159
  24 H :    0.038733
  25 C :   -0.038162
  26 H :    0.020456
  27 H :    0.023892
  28 C :   -0.065905
  29 H :    0.031924
  30 H :    0.025694
  31 H :    0.023700
  32 H :    0.033478
  33 H :    0.039431

  Mayer bond orders larger than 0.100000
B(  0-S ,  1-C ) :   1.1769 B(  0-S ,  4-C ) :   1.1765 B(  1-C ,  2-C ) :   1.5282
B(  1-C ,  4-C ) :   0.1169 B(  1-C , 32-H ) :   0.9809 B(  2-C ,  3-C ) :   1.2913
B(  2-C ,  6-C ) :   1.0259 B(  3-C ,  4-C ) :   1.5146 B(  3-C ,  5-H ) :   0.9897
B(  4-C , 20-C ) :   1.0204 B(  6-C ,  7-H ) :   0.9417 B(  6-C ,  8-H ) :   0.9360
B(  6-C ,  9-C ) :   1.0672 B(  9-C , 10-H ) :   0.9540 B(  9-C , 11-H ) :   0.9571
B(  9-C , 12-C ) :   1.0833 B( 12-C , 13-H ) :   0.9702 B( 12-C , 14-H ) :   0.9723
B( 12-C , 15-H ) :   0.9767 B( 16-S , 17-C ) :   1.1451 B( 16-S , 20-C ) :   1.1420
B( 17-C , 18-C ) :   1.6239 B( 17-C , 20-C ) :   0.1027 B( 17-C , 33-H ) :   0.9661
B( 18-C , 19-C ) :   1.2095 B( 18-C , 21-H ) :   0.9861 B( 19-C , 20-C ) :   1.6221
B( 19-C , 22-C ) :   1.0269 B( 22-C , 23-H ) :   0.9360 B( 22-C , 24-H ) :   0.9437
B( 22-C , 25-C ) :   1.0532 B( 25-C , 26-H ) :   0.9604 B( 25-C , 27-H ) :   0.9627
B( 25-C , 28-C ) :   1.0696 B( 28-C , 29-H ) :   0.9757 B( 28-C , 30-H ) :   0.9764
B( 28-C , 31-H ) :   0.9750

Dispersion correction           -0.014563058
FINAL SINGLE POINT ENERGY     -1339.860351253363

DIPOLE MOMENT
-------------
                                X             Y             Z
Electronic contribution:     14.86626      19.06664     -17.25627
Nuclear contribution   :    -15.16721     -19.44704      17.84430
                        -----------------------------------------
Total Dipole Moment    :     -0.30095      -0.38040       0.58804
                        -----------------------------------------
Magnitude (a.u.)       :      0.76228
Magnitude (Debye)      :      1.93756

Rotational constants in cm-1:     0.017646     0.009033     0.006942
Rotational constants in MHz :   529.021750   270.809692   208.104797

                             ****ORCA TERMINATED NORMALLY****
TOTAL RUN TIME: 0 days 0 hours 0 minutes 20 seconds 742 msec
