                         Program Version 4.2.1 -  RELEASE  -
|  1> ! wB97X-D3 SP def2-SVP
|  2> %pal
|  3> nprocs 24
|  4> end
|  5>
|  6> * xyz 0 1
|  7> S 	 -124.819 	 62.3243 	 -54.0891
|  8> C 	 -123.701 	 63.4159 	 -54.9641
|  9> C 	 -122.82 	 64.1704 	 -54.2038
| 10> C 	 -123.089 	 63.7988 	 -52.8314
| 11> C 	 -124.166 	 62.9203 	 -52.5963
| 12> H 	 -122.651 	 64.2083 	 -51.8778
| 13> C 	 -121.847 	 65.197 	 -54.8161
| 14> H 	 -120.901 	 64.6614 	 -55.18
| 15> H 	 -121.533 	 65.9334 	 -54.0413
| 16> C 	 -122.227 	 65.9374 	 -56.0676
| 17> H 	 -121.39 	 66.5587 	 -56.3972
| 18> H 	 -122.534 	 65.3061 	 -56.9093
| 19> C 	 -123.442 	 66.8582 	 -55.893
| 20> H 	 -123.68 	 67.38 	 -56.8113
| 21> H 	 -124.266 	 66.1243 	 -55.7681
| 22> H 	 -123.352 	 67.5281 	 -55.0629
| 23> S 	 -126.544 	 62.4451 	 -51.3698
| 24> C 	 -126.558 	 61.9182 	 -49.7435
| 25> C 	 -125.338 	 61.9804 	 -49.1227
| 26> C 	 -124.305 	 62.3316 	 -50.0507
| 27> C 	 -124.775 	 62.5328 	 -51.3586
| 28> H 	 -125.209 	 61.7466 	 -48.0966
| 29> C 	 -122.773 	 62.1943 	 -49.7085
| 30> H 	 -122.169 	 62.0174 	 -50.592
| 31> H 	 -122.779 	 61.2614 	 -49.1722
| 32> C 	 -122.121 	 63.3327 	 -48.8672
| 33> H 	 -122.695 	 63.4863 	 -48.022
| 34> H 	 -122.153 	 64.2211 	 -49.5275
| 35> C 	 -120.727 	 63.1076 	 -48.3217
| 36> H 	 -120.185 	 64.0237 	 -48.3912
| 37> H 	 -120.195 	 62.3797 	 -48.9288
| 38> H 	 -120.708 	 62.7889 	 -47.2556
| 39> H 	 -123.843 	 63.6389 	 -56.0198
| 40> H 	 -127.396 	 61.8552 	 -49.051
| 41> *
| 42>
| 43>                          ****END OF INPUT****

CARTESIAN COORDINATES (ANGSTROEM)
---------------------------------
  S    -124.819000   62.324300  -54.089100
  C    -123.701000   63.415900  -54.964100
  C    -122.820000   64.170400  -54.203800
  C    -123.089000   63.798800  -52.831400
  C    -124.166000   62.920300  -52.596300
  H    -122.651000   64.208300  -51.877800
  C    -121.847000   65.197000  -54.816100
  H    -120.901000   64.661400  -55.180000
  H    -121.533000   65.933400  -54.041300
  C    -122.227000   65.937400  -56.067600
  H    -121.390000   66.558700  -56.397200
  H    -122.534000   65.306100  -56.909300
  C    -123.442000   66.858200  -55.893000
  H    -123.680000   67.380000  -56.811300
  H    -124.266000   66.124300  -55.768100
  H    -123.352000   67.528100  -55.062900
  S    -126.544000   62.445100  -51.369800
  C    -126.558000   61.918200  -49.743500
  C    -125.338000   61.980400  -49.122700
  C    -124.305000   62.331600  -50.050700
  C    -124.775000   62.532800  -51.358600
  H    -125.209000   61.746600  -48.096600
  C    -122.773000   62.194300  -49.708500
  H    -122.169000   62.017400  -50.592000
  H    -122.779000   61.261400  -49.172200
  C    -122.121000   63.332700  -48.867200
  H    -122.695000   63.486300  -48.022000
  H    -122.153000   64.221100  -49.527500
  C    -120.727000   63.107600  -48.321700
  H    -120.185000   64.023700  -48.391200
  H    -120.195000   62.379700  -48.928800
  H    -120.708000   62.788900  -47.255600
  H    -123.843000   63.638900  -56.019800
  H    -127.396000   61.855200  -49.051000

 Total Charge           Charge          ....    0
 Multiplicity           Mult            ....    1
 Number of Electrons    NEL             ....  134
 Basis Dimension        Dim             ....  322

ORBITAL ENERGIES
----------------

  NO   OCC          E(Eh)            E(eV)
   0   2.0000     -88.968968     -2420.9687
   1   2.0000     -88.967768     -2420.9360
   2   2.0000     -10.330245      -281.1003
   3   2.0000     -10.328192      -281.0444
   4   2.0000     -10.315781      -280.7067
   5   2.0000     -10.313141      -280.6348
   6   2.0000     -10.313019      -280.6315
   7   2.0000     -10.308625      -280.5119
   8   2.0000     -10.308187      -280.5000
   9   2.0000     -10.304402      -280.3970
  10   2.0000     -10.292286      -280.0673
  11   2.0000     -10.291702      -280.0515
  12   2.0000     -10.289115      -279.9810
  13   2.0000     -10.281943      -279.7859
  14   2.0000     -10.276545      -279.6390
  15   2.0000     -10.272545      -279.5302
  16   2.0000      -8.083307      -219.9580
  17   2.0000      -8.082845      -219.9454
  18   2.0000      -6.041756      -164.4045
  19   2.0000      -6.041311      -164.3924
  20   2.0000      -6.038015      -164.3027
  21   2.0000      -6.037348      -164.2846
  22   2.0000      -6.033991      -164.1932
  23   2.0000      -6.033563      -164.1816
  24   2.0000      -1.007654       -27.4197
  25   2.0000      -0.981888       -26.7185
  26   2.0000      -0.918175       -24.9848
  27   2.0000      -0.905182       -24.6313
  28   2.0000      -0.872749       -23.7487
  29   2.0000      -0.854418       -23.2499
  30   2.0000      -0.843458       -22.9517
  31   2.0000      -0.810145       -22.0452
  32   2.0000      -0.788362       -21.4524
  33   2.0000      -0.774098       -21.0643
  34   2.0000      -0.705740       -19.2042
  35   2.0000      -0.700009       -19.0482
  36   2.0000      -0.693391       -18.8681
  37   2.0000      -0.662941       -18.0395
  38   2.0000      -0.633807       -17.2468
  39   2.0000      -0.608398       -16.5553
  40   2.0000      -0.592052       -16.1106
  41   2.0000      -0.583113       -15.8673
  42   2.0000      -0.568369       -15.4661
  43   2.0000      -0.551055       -14.9950
  44   2.0000      -0.541787       -14.7428
  45   2.0000      -0.523796       -14.2532
  46   2.0000      -0.519099       -14.1254
  47   2.0000      -0.513264       -13.9666
  48   2.0000      -0.504718       -13.7341
  49   2.0000      -0.495202       -13.4751
  50   2.0000      -0.491726       -13.3806
  51   2.0000      -0.475931       -12.9507
  52   2.0000      -0.473203       -12.8765
  53   2.0000      -0.467701       -12.7268
  54   2.0000      -0.457955       -12.4616
  55   2.0000      -0.455909       -12.4059
  56   2.0000      -0.438896       -11.9430
  57   2.0000      -0.436183       -11.8691
  58   2.0000      -0.428276       -11.6540
  59   2.0000      -0.425214       -11.5707
  60   2.0000      -0.422823       -11.5056
  61   2.0000      -0.418080       -11.3765
  62   2.0000      -0.414606       -11.2820
  63   2.0000      -0.352731        -9.5983
  64   2.0000      -0.334702        -9.1077
  65   2.0000      -0.331992        -9.0340
  66   2.0000      -0.283319        -7.7095
  67   0.0000       0.021504         0.5852
  68   0.0000       0.072566         1.9746
  69   0.0000       0.103795         2.8244
  70   0.0000       0.114824         3.1245
  71   0.0000       0.131526         3.5790

MULLIKEN ATOMIC CHARGES
-----------------------
   0 S :    0.110570
   1 C :   -0.130819
   2 C :   -0.065439
   3 C :    0.003640
   4 C :   -0.159834
   5 H :    0.014434
   6 C :    0.061072
   7 H :    0.061637
   8 H :    0.037200
   9 C :   -0.111857
  10 H :    0.034244
  11 H :    0.031496
  12 C :   -0.043312
  13 H :    0.031471
  14 H :    0.029172
  15 H :    0.030560
  16 S :    0.110344
  17 C :   -0.063944
  18 C :   -0.048449
  19 C :   -0.024393
  20 C :   -0.148557
  21 H :    0.009629
  22 C :    0.024820
  23 H :    0.030505
  24 H :    0.022669
  25 C :   -0.049002
  26 H :    0.007731
  27 H :    0.031826
  28 C :   -0.035776
  29 H :    0.027980
  30 H :    0.024777
  31 H :    0.040506
  32 H :    0.047836
  33 H :    0.057266
Sum of atomic charges:    0.0000000

LOEWDIN ATOMIC CHARGES
----------------------
   0 S :    0.395721
   1 C :   -0.186252
   2 C :   -0.058404
   3 C :   -0.069713
   4 C :   -0.201260
   5 H :    0.034516
   6 C :   -0.035460
   7 H :    0.050473
   8 H :    0.036316
   9 C :   -0.048220
  10 H :    0.027268
  11 H :    0.024496
  12 C :   -0.064707
  13 H :    0.023817
  14 H :    0.028236
  15 H :    0.018548
  16 S :    0.415479
  17 C :   -0.200642
  18 C :   -0.068841
  19 C :   -0.049884
  20 C :   -0.195008
  21 H :    0.027327
  22 C :   -0.028942
  23 H :    0.026756
  24 H :    0.027046
  25 C :   -0.039104
  26 H :    0.014193
  27 H :    0.024255
  28 C :   -0.064144
  29 H :    0.026327
  30 H :    0.023687
  31 H :    0.031115
  32 H :    0.020259
  33 H :    0.034748

  Mayer bond orders larger than 0.100000
B(  0-S ,  1-C ) :   1.1298 B(  0-S ,  4-C ) :   1.1381 B(  1-C ,  2-C ) :   1.6327
B(  1-C , 32-H ) :   0.9549 B(  2-C ,  3-C ) :   1.2278 B(  2-C ,  6-C ) :   1.0053
B(  3-C ,  4-C ) :   1.5856 B(  3-C ,  5-H ) :   0.9784 B(  4-C , 20-C ) :   1.0802
B(  6-C ,  7-H ) :   0.9328 B(  6-C ,  8-H ) :   0.9438 B(  6-C ,  9-C ) :   1.0844
B(  9-C , 10-H ) :   0.9514 B(  9-C , 11-H ) :   0.9507 B(  9-C , 12-C ) :   1.0789
B( 12-C , 13-H ) :   0.9744 B( 12-C , 14-H ) :   0.9742 B( 12-C , 15-H ) :   0.9770
B( 16-S , 17-C ) :   1.1570 B( 16-S , 20-C ) :   1.1315 B( 17-C , 18-C ) :   1.6175
B( 17-C , 33-H ) :   0.9577 B( 18-C , 19-C ) :   1.2517 B( 18-C , 21-H ) :   0.9925
B( 19-C , 20-C ) :   1.5810 B( 19-C , 22-C ) :   1.0173 B( 22-C , 23-H ) :   0.9424
B( 22-C , 24-H ) :   0.9442 B( 22-C , 25-C ) :   1.0664 B( 25-C , 26-H ) :   0.9553
B( 25-C , 27-H ) :   0.9576 B( 25-C , 28-C ) :   1.0769 B( 28-C , 29-H ) :   0.9736
B( 28-C , 30-H ) :   0.9761 B( 28-C , 31-H ) :   0.9779

Dispersion correction           -0.013755688
FINAL SINGLE POINT ENERGY     -1339.866649909704

DIPOLE MOMENT
-------------
                                X             Y             Z
Electronic contribution:    -21.52881     -14.46954      -2.41608
Nuclear contribution   :     22.00070      14.85833       2.66416
                        -----------------------------------------
Total Dipole Moment    :      0.47189       0.38879       0.24807
                        -----------------------------------------
Magnitude (a.u.)       :      0.65983
Magnitude (Debye)      :      1.67716

Rotational constants in cm-1:     0.017928     0.008386     0.006281
Rotational constants in MHz :   537.463200   251.404504   188.302505

                             ****ORCA TERMINATED NORMALLY****
TOTAL RUN TIME: 0 days 0 hours 0 minutes 21 seconds 152 msec
