                         Program Version 4.2.1 -  RELEASE  -
|  1> ! wB97X-D3 SP def2-SVP
|  2> %pal
|  3> nprocs 24
|  4> end
|  5>
|  6> * xyz 0 1
|  7> S 	 -109.856 	 54.9568 	 -75.8452
|  8> C 	 -109.471 	 54.1562 	 -77.3178
|  9> C 	 -108.411 	 54.7712 	 -77.9084
| 10> C 	 -107.843 	 55.8647 	 -77.1375
| 11> C 	 -108.599 	 56.1811 	 -76.0675
| 12> H 	 -106.975 	 56.5096 	 -77.404
| 13> C 	 -107.772 	 54.4306 	 -79.2526
| 14> H 	 -106.635 	 54.456 	 -79.2055
| 15> H 	 -108.005 	 55.1709 	 -80.0127
| 16> C 	 -108.075 	 53.0196 	 -79.8301
| 17> H 	 -108.114 	 52.2435 	 -79.1087
| 18> H 	 -109.104 	 53.0986 	 -80.1897
| 19> C 	 -107.065 	 52.6032 	 -80.9532
| 20> H 	 -107.175 	 53.3593 	 -81.7291
| 21> H 	 -106.082 	 52.6801 	 -80.6331
| 22> H 	 -107.114 	 51.5777 	 -81.3598
| 23> S 	 -106.653 	 57.8335 	 -75.1528
| 24> C 	 -106.946 	 59.072 	 -73.9915
| 25> C 	 -108.17 	 58.8738 	 -73.4197
| 26> C 	 -108.946 	 57.8591 	 -74.148
| 27> C 	 -108.309 	 57.2445 	 -75.1526
| 28> H 	 -108.521 	 59.4661 	 -72.6014
| 29> C 	 -110.373 	 57.563 	 -73.6957
| 30> H 	 -110.383 	 57.756 	 -72.6468
| 31> H 	 -110.64 	 56.4408 	 -73.6559
| 32> C 	 -111.428 	 58.2801 	 -74.4811
| 33> H 	 -111.279 	 58.2076 	 -75.5572
| 34> H 	 -111.073 	 59.2763 	 -74.2966
| 35> C 	 -112.881 	 58.1259 	 -74.0683
| 36> H 	 -113.03 	 58.325 	 -73.0132
| 37> H 	 -113.174 	 57.1244 	 -74.4021
| 38> H 	 -113.451 	 58.8399 	 -74.6588
| 39> H 	 -109.988 	 53.3787 	 -77.9504
| 40> H 	 -106.272 	 59.8479 	 -73.6978
| 41> *
| 42>
| 43>                          ****END OF INPUT****

CARTESIAN COORDINATES (ANGSTROEM)
---------------------------------
  S    -109.856000   54.956800  -75.845200
  C    -109.471000   54.156200  -77.317800
  C    -108.411000   54.771200  -77.908400
  C    -107.843000   55.864700  -77.137500
  C    -108.599000   56.181100  -76.067500
  H    -106.975000   56.509600  -77.404000
  C    -107.772000   54.430600  -79.252600
  H    -106.635000   54.456000  -79.205500
  H    -108.005000   55.170900  -80.012700
  C    -108.075000   53.019600  -79.830100
  H    -108.114000   52.243500  -79.108700
  H    -109.104000   53.098600  -80.189700
  C    -107.065000   52.603200  -80.953200
  H    -107.175000   53.359300  -81.729100
  H    -106.082000   52.680100  -80.633100
  H    -107.114000   51.577700  -81.359800
  S    -106.653000   57.833500  -75.152800
  C    -106.946000   59.072000  -73.991500
  C    -108.170000   58.873800  -73.419700
  C    -108.946000   57.859100  -74.148000
  C    -108.309000   57.244500  -75.152600
  H    -108.521000   59.466100  -72.601400
  C    -110.373000   57.563000  -73.695700
  H    -110.383000   57.756000  -72.646800
  H    -110.640000   56.440800  -73.655900
  C    -111.428000   58.280100  -74.481100
  H    -111.279000   58.207600  -75.557200
  H    -111.073000   59.276300  -74.296600
  C    -112.881000   58.125900  -74.068300
  H    -113.030000   58.325000  -73.013200
  H    -113.174000   57.124400  -74.402100
  H    -113.451000   58.839900  -74.658800
  H    -109.988000   53.378700  -77.950400
  H    -106.272000   59.847900  -73.697800

 Total Charge           Charge          ....    0
 Multiplicity           Mult            ....    1
 Number of Electrons    NEL             ....  134
 Basis Dimension        Dim             ....  322

ORBITAL ENERGIES
----------------

  NO   OCC          E(Eh)            E(eV)
   0   2.0000     -88.967892     -2420.9394
   1   2.0000     -88.960514     -2420.7387
   2   2.0000     -10.329859      -281.0897
   3   2.0000     -10.323933      -280.9285
   4   2.0000     -10.317471      -280.7527
   5   2.0000     -10.314857      -280.6815
   6   2.0000     -10.302359      -280.3414
   7   2.0000     -10.301905      -280.3291
   8   2.0000     -10.297855      -280.2189
   9   2.0000     -10.296086      -280.1707
  10   2.0000     -10.294176      -280.1188
  11   2.0000     -10.288649      -279.9684
  12   2.0000     -10.287471      -279.9363
  13   2.0000     -10.278006      -279.6788
  14   2.0000     -10.276088      -279.6266
  15   2.0000     -10.274968      -279.5961
  16   2.0000      -8.082145      -219.9264
  17   2.0000      -8.076098      -219.7618
  18   2.0000      -6.041015      -164.3844
  19   2.0000      -6.036671      -164.2662
  20   2.0000      -6.034783      -164.2148
  21   2.0000      -6.032568      -164.1545
  22   2.0000      -6.030556      -164.0998
  23   2.0000      -6.026528      -163.9902
  24   2.0000      -1.015870       -27.6432
  25   2.0000      -0.991479       -26.9795
  26   2.0000      -0.912885       -24.8409
  27   2.0000      -0.908156       -24.7122
  28   2.0000      -0.880404       -23.9570
  29   2.0000      -0.853214       -23.2171
  30   2.0000      -0.843704       -22.9583
  31   2.0000      -0.818512       -22.2728
  32   2.0000      -0.782693       -21.2982
  33   2.0000      -0.773007       -21.0346
  34   2.0000      -0.717014       -19.5110
  35   2.0000      -0.704228       -19.1630
  36   2.0000      -0.691605       -18.8195
  37   2.0000      -0.673384       -18.3237
  38   2.0000      -0.631710       -17.1897
  39   2.0000      -0.611748       -16.6465
  40   2.0000      -0.598189       -16.2776
  41   2.0000      -0.576835       -15.6965
  42   2.0000      -0.564829       -15.3698
  43   2.0000      -0.561165       -15.2701
  44   2.0000      -0.528664       -14.3857
  45   2.0000      -0.525170       -14.2906
  46   2.0000      -0.522880       -14.2283
  47   2.0000      -0.514353       -13.9963
  48   2.0000      -0.508350       -13.8329
  49   2.0000      -0.501599       -13.6492
  50   2.0000      -0.493745       -13.4355
  51   2.0000      -0.480097       -13.0641
  52   2.0000      -0.480010       -13.0617
  53   2.0000      -0.469648       -12.7798
  54   2.0000      -0.461622       -12.5614
  55   2.0000      -0.449730       -12.2378
  56   2.0000      -0.445336       -12.1182
  57   2.0000      -0.437756       -11.9120
  58   2.0000      -0.437464       -11.9040
  59   2.0000      -0.423477       -11.5234
  60   2.0000      -0.412460       -11.2236
  61   2.0000      -0.409630       -11.1466
  62   2.0000      -0.395213       -10.7543
  63   2.0000      -0.367625       -10.0036
  64   2.0000      -0.329959        -8.9786
  65   2.0000      -0.326125        -8.8743
  66   2.0000      -0.293387        -7.9835
  67   0.0000       0.023257         0.6329
  68   0.0000       0.089363         2.4317
  69   0.0000       0.110067         2.9951
  70   0.0000       0.122439         3.3317
  71   0.0000       0.129997         3.5374

MULLIKEN ATOMIC CHARGES
-----------------------
   0 S :    0.105065
   1 C :   -0.105343
   2 C :   -0.079320
   3 C :   -0.047331
   4 C :   -0.081198
   5 H :    0.043760
   6 C :    0.009682
   7 H :    0.035593
   8 H :    0.043630
   9 C :   -0.087590
  10 H :    0.024551
  11 H :    0.029292
  12 C :   -0.029349
  13 H :    0.025757
  14 H :    0.014715
  15 H :    0.042510
  16 S :    0.067157
  17 C :   -0.063475
  18 C :   -0.014856
  19 C :   -0.115460
  20 C :   -0.080475
  21 H :    0.015059
  22 C :    0.025826
  23 H :    0.006231
  24 H :    0.028590
  25 C :   -0.064369
  26 H :    0.029095
  27 H :   -0.000531
  28 C :    0.001967
  29 H :    0.033386
  30 H :    0.034860
  31 H :    0.032169
  32 H :    0.065771
  33 H :    0.054631
Sum of atomic charges:    0.0000000

LOEWDIN ATOMIC CHARGES
----------------------
   0 S :    0.412822
   1 C :   -0.221862
   2 C :   -0.064447
   3 C :   -0.072607
   4 C :   -0.178790
   5 H :    0.034554
   6 C :   -0.036720
   7 H :    0.035646
   8 H :    0.032692
   9 C :   -0.041961
  10 H :    0.014896
  11 H :    0.020831
  12 C :   -0.060732
  13 H :    0.025955
  14 H :    0.014616
  15 H :    0.032382
  16 S :    0.407287
  17 C :   -0.178902
  18 C :   -0.067880
  19 C :   -0.060128
  20 C :   -0.181592
  21 H :    0.028451
  22 C :   -0.042217
  23 H :    0.023276
  24 H :    0.021408
  25 C :   -0.050314
  26 H :    0.026441
  27 H :    0.018669
  28 C :   -0.056737
  29 H :    0.025501
  30 H :    0.028501
  31 H :    0.029724
  32 H :    0.050382
  33 H :    0.030858

  Mayer bond orders larger than 0.100000
B(  0-S ,  1-C ) :   1.1058 B(  0-S ,  4-C ) :   1.1149 B(  1-C ,  2-C ) :   1.6749
B(  1-C , 32-H ) :   0.9473 B(  2-C ,  3-C ) :   1.2108 B(  2-C ,  6-C ) :   1.0101
B(  3-C ,  4-C ) :   1.5931 B(  3-C ,  5-H ) :   0.9802 B(  4-C , 20-C ) :   1.1086
B(  6-C ,  7-H ) :   0.9539 B(  6-C ,  8-H ) :   0.9360 B(  6-C ,  9-C ) :   1.0570
B(  9-C , 10-H ) :   0.9637 B(  9-C , 11-H ) :   0.9519 B(  9-C , 12-C ) :   1.0752
B( 12-C , 13-H ) :   0.9768 B( 12-C , 14-H ) :   0.9758 B( 12-C , 15-H ) :   0.9753
B( 16-S , 17-C ) :   1.1497 B( 16-S , 20-C ) :   1.1053 B( 17-C , 18-C ) :   1.6215
B( 17-C , 33-H ) :   0.9711 B( 18-C , 19-C ) :   1.2127 B( 18-C , 21-H ) :   0.9943
B( 19-C , 20-C ) :   1.6410 B( 19-C , 22-C ) :   1.0422 B( 22-C , 23-H ) :   0.9277
B( 22-C , 24-H ) :   0.9370 B( 22-C , 25-C ) :   1.0497 B( 25-C , 26-H ) :   0.9550
B( 25-C , 27-H ) :   0.9443 B( 25-C , 28-C ) :   1.0852 B( 28-C , 29-H ) :   0.9732
B( 28-C , 30-H ) :   0.9729 B( 28-C , 31-H ) :   0.9714

Dispersion correction           -0.013621592
FINAL SINGLE POINT ENERGY     -1339.868813302744

DIPOLE MOMENT
-------------
                                X             Y             Z
Electronic contribution:      8.97000       5.38897      11.55144
Nuclear contribution   :     -9.00199      -5.20105     -11.71703
                        -----------------------------------------
Total Dipole Moment    :     -0.03198       0.18791      -0.16559
                        -----------------------------------------
Magnitude (a.u.)       :      0.25249
Magnitude (Debye)      :      0.64179

Rotational constants in cm-1:     0.022366     0.007469     0.005878
Rotational constants in MHz :   670.502754   223.907379   176.211306

                             ****ORCA TERMINATED NORMALLY****
TOTAL RUN TIME: 0 days 0 hours 0 minutes 20 seconds 891 msec
