                         Program Version 4.2.1 -  RELEASE  -
|  1> ! wB97X-D3 SP def2-SVP
|  2> %pal
|  3> nprocs 24
|  4> end
|  5>
|  6> * xyz 0 1
|  7> S 	 20.0819 	 -6.05005 	 -115.858
|  8> C 	 21.6976 	 -6.34267 	 -115.391
|  9> C 	 22.6139 	 -6.18119 	 -116.436
| 10> C 	 21.9328 	 -5.638 	 -117.567
| 11> C 	 20.5558 	 -5.58253 	 -117.44
| 12> H 	 22.4903 	 -5.26233 	 -118.432
| 13> C 	 24.1325 	 -6.62466 	 -116.428
| 14> H 	 24.7695 	 -5.78794 	 -116.241
| 15> H 	 24.4451 	 -6.83155 	 -117.469
| 16> C 	 24.5772 	 -7.85812 	 -115.561
| 17> H 	 24.4123 	 -7.58743 	 -114.48
| 18> H 	 24.0524 	 -8.81175 	 -115.768
| 19> C 	 26.0815 	 -8.17132 	 -115.686
| 20> H 	 26.7555 	 -7.5853 	 -115.112
| 21> H 	 26.1651 	 -9.18674 	 -115.258
| 22> H 	 26.2454 	 -8.14495 	 -116.74
| 23> S 	 19.7723 	 -5.61537 	 -120.139
| 24> C 	 18.5216 	 -4.60942 	 -120.734
| 25> C 	 17.8306 	 -3.98894 	 -119.702
| 26> C 	 18.4245 	 -4.28189 	 -118.384
| 27> C 	 19.5742 	 -5.10016 	 -118.466
| 28> H 	 17.0872 	 -3.319 	 -119.978
| 29> C 	 17.8193 	 -3.57914 	 -117.108
| 30> H 	 17.8679 	 -4.07462 	 -116.16
| 31> H 	 16.7856 	 -3.69317 	 -117.197
| 32> C 	 18.1695 	 -2.07498 	 -117.044
| 33> H 	 17.9606 	 -1.62513 	 -118
| 34> H 	 19.2562 	 -1.82471 	 -116.885
| 35> C 	 17.3614 	 -1.27956 	 -115.979
| 36> H 	 17.6623 	 -1.74639 	 -115.05
| 37> H 	 16.267 	 -1.34757 	 -116.146
| 38> H 	 17.6632 	 -0.318905 	 -116.024
| 39> H 	 21.9497 	 -6.82741 	 -114.435
| 40> H 	 18.2499 	 -4.37572 	 -121.719
| 41> *
| 42>
| 43>                          ****END OF INPUT****

CARTESIAN COORDINATES (ANGSTROEM)
---------------------------------
  S     20.081900   -6.050050  -115.858000
  C     21.697600   -6.342670  -115.391000
  C     22.613900   -6.181190  -116.436000
  C     21.932800   -5.638000  -117.567000
  C     20.555800   -5.582530  -117.440000
  H     22.490300   -5.262330  -118.432000
  C     24.132500   -6.624660  -116.428000
  H     24.769500   -5.787940  -116.241000
  H     24.445100   -6.831550  -117.469000
  C     24.577200   -7.858120  -115.561000
  H     24.412300   -7.587430  -114.480000
  H     24.052400   -8.811750  -115.768000
  C     26.081500   -8.171320  -115.686000
  H     26.755500   -7.585300  -115.112000
  H     26.165100   -9.186740  -115.258000
  H     26.245400   -8.144950  -116.740000
  S     19.772300   -5.615370  -120.139000
  C     18.521600   -4.609420  -120.734000
  C     17.830600   -3.988940  -119.702000
  C     18.424500   -4.281890  -118.384000
  C     19.574200   -5.100160  -118.466000
  H     17.087200   -3.319000  -119.978000
  C     17.819300   -3.579140  -117.108000
  H     17.867900   -4.074620  -116.160000
  H     16.785600   -3.693170  -117.197000
  C     18.169500   -2.074980  -117.044000
  H     17.960600   -1.625130  -118.000000
  H     19.256200   -1.824710  -116.885000
  C     17.361400   -1.279560  -115.979000
  H     17.662300   -1.746390  -115.050000
  H     16.267000   -1.347570  -116.146000
  H     17.663200   -0.318905  -116.024000
  H     21.949700   -6.827410  -114.435000
  H     18.249900   -4.375720  -121.719000

 Total Charge           Charge          ....    0
 Multiplicity           Mult            ....    1
 Number of Electrons    NEL             ....  134
 Basis Dimension        Dim             ....  322

ORBITAL ENERGIES
----------------

  NO   OCC          E(Eh)            E(eV)
   0   2.0000     -88.968123     -2420.9457
   1   2.0000     -88.965304     -2420.8690
   2   2.0000     -10.334198      -281.2078
   3   2.0000     -10.331499      -281.1344
   4   2.0000     -10.314787      -280.6796
   5   2.0000     -10.312945      -280.6295
   6   2.0000     -10.310955      -280.5753
   7   2.0000     -10.306703      -280.4596
   8   2.0000     -10.301340      -280.3137
   9   2.0000     -10.296866      -280.1920
  10   2.0000     -10.294885      -280.1381
  11   2.0000     -10.292308      -280.0679
  12   2.0000     -10.287922      -279.9486
  13   2.0000     -10.284769      -279.8628
  14   2.0000     -10.277280      -279.6590
  15   2.0000     -10.269139      -279.4375
  16   2.0000      -8.083769      -219.9705
  17   2.0000      -8.080127      -219.8714
  18   2.0000      -6.042116      -164.4143
  19   2.0000      -6.038717      -164.3218
  20   2.0000      -6.038078      -164.3044
  21   2.0000      -6.034728      -164.2133
  22   2.0000      -6.034475      -164.2064
  23   2.0000      -6.030943      -164.1103
  24   2.0000      -1.006709       -27.3939
  25   2.0000      -0.984248       -26.7827
  26   2.0000      -0.903647       -24.5895
  27   2.0000      -0.901245       -24.5241
  28   2.0000      -0.865706       -23.5571
  29   2.0000      -0.853383       -23.2217
  30   2.0000      -0.842803       -22.9338
  31   2.0000      -0.813141       -22.1267
  32   2.0000      -0.785368       -21.3709
  33   2.0000      -0.773030       -21.0352
  34   2.0000      -0.702605       -19.1189
  35   2.0000      -0.696881       -18.9631
  36   2.0000      -0.689829       -18.7712
  37   2.0000      -0.661305       -17.9950
  38   2.0000      -0.638198       -17.3662
  39   2.0000      -0.617429       -16.8011
  40   2.0000      -0.595669       -16.2090
  41   2.0000      -0.574382       -15.6297
  42   2.0000      -0.564751       -15.3676
  43   2.0000      -0.552724       -15.0404
  44   2.0000      -0.531954       -14.4752
  45   2.0000      -0.526548       -14.3281
  46   2.0000      -0.518767       -14.1164
  47   2.0000      -0.508654       -13.8412
  48   2.0000      -0.505965       -13.7680
  49   2.0000      -0.500200       -13.6111
  50   2.0000      -0.488589       -13.2952
  51   2.0000      -0.476411       -12.9638
  52   2.0000      -0.470038       -12.7904
  53   2.0000      -0.465090       -12.6558
  54   2.0000      -0.460448       -12.5294
  55   2.0000      -0.445565       -12.1244
  56   2.0000      -0.441419       -12.0116
  57   2.0000      -0.437827       -11.9139
  58   2.0000      -0.434082       -11.8120
  59   2.0000      -0.428179       -11.6513
  60   2.0000      -0.417170       -11.3518
  61   2.0000      -0.414933       -11.2909
  62   2.0000      -0.407922       -11.1001
  63   2.0000      -0.350249        -9.5308
  64   2.0000      -0.331133        -9.0106
  65   2.0000      -0.326665        -8.8890
  66   2.0000      -0.291255        -7.9255
  67   0.0000       0.031441         0.8556
  68   0.0000       0.081594         2.2203
  69   0.0000       0.117465         3.1964
  70   0.0000       0.121571         3.3081
  71   0.0000       0.127140         3.4596

MULLIKEN ATOMIC CHARGES
-----------------------
   0 S :    0.132062
   1 C :   -0.143676
   2 C :   -0.073567
   3 C :   -0.003989
   4 C :   -0.131301
   5 H :    0.020867
   6 C :    0.067076
   7 H :    0.030151
   8 H :    0.017227
   9 C :   -0.124256
  10 H :    0.035308
  11 H :    0.049117
  12 C :   -0.031085
  13 H :    0.033141
  14 H :    0.034208
  15 H :    0.027894
  16 S :    0.113719
  17 C :   -0.069660
  18 C :   -0.029339
  19 C :   -0.044989
  20 C :   -0.140012
  21 H :    0.001430
  22 C :    0.107880
  23 H :    0.007966
  24 H :   -0.002038
  25 C :   -0.104444
  26 H :    0.014193
  27 H :    0.040348
  28 C :   -0.007998
  29 H :    0.029679
  30 H :    0.034866
  31 H :    0.013443
  32 H :    0.059126
  33 H :    0.036651
Sum of atomic charges:   -0.0000000

LOEWDIN ATOMIC CHARGES
----------------------
   0 S :    0.450303
   1 C :   -0.216331
   2 C :   -0.061915
   3 C :   -0.068773
   4 C :   -0.207303
   5 H :    0.033429
   6 C :   -0.034101
   7 H :    0.029526
   8 H :    0.029711
   9 C :   -0.044053
  10 H :    0.024692
  11 H :    0.029741
  12 C :   -0.058882
  13 H :    0.019509
  14 H :    0.033680
  15 H :    0.021084
  16 S :    0.420166
  17 C :   -0.192396
  18 C :   -0.064092
  19 C :   -0.048869
  20 C :   -0.197322
  21 H :    0.020559
  22 C :   -0.036412
  23 H :    0.020238
  24 H :    0.025467
  25 C :   -0.037416
  26 H :    0.015640
  27 H :    0.030919
  28 C :   -0.052949
  29 H :    0.025359
  30 H :    0.027243
  31 H :    0.010318
  32 H :    0.030045
  33 H :    0.023184

  Mayer bond orders larger than 0.100000
B(  0-S ,  1-C ) :   1.1675 B(  0-S ,  4-C ) :   1.1730 B(  1-C ,  2-C ) :   1.5917
B(  1-C , 32-H ) :   0.9612 B(  2-C ,  3-C ) :   1.2852 B(  2-C ,  6-C ) :   0.9988
B(  3-C ,  4-C ) :   1.5474 B(  3-C ,  5-H ) :   0.9890 B(  4-C , 20-C ) :   1.0283
B(  6-C ,  7-H ) :   0.9387 B(  6-C ,  8-H ) :   0.9458 B(  6-C ,  9-C ) :   1.0583
B(  9-C , 10-H ) :   0.9523 B(  9-C , 11-H ) :   0.9655 B(  9-C , 12-C ) :   1.0763
B( 12-C , 13-H ) :   0.9775 B( 12-C , 14-H ) :   0.9750 B( 12-C , 15-H ) :   0.9775
B( 16-S , 17-C ) :   1.1595 B( 16-S , 20-C ) :   1.1433 B( 17-C , 18-C ) :   1.6209
B( 17-C , 33-H ) :   0.9707 B( 18-C , 19-C ) :   1.2309 B( 18-C , 21-H ) :   0.9971
B( 19-C , 20-C ) :   1.5887 B( 19-C , 22-C ) :   1.0275 B( 22-C , 23-H ) :   0.9409
B( 22-C , 24-H ) :   0.9252 B( 22-C , 25-C ) :   1.0537 B( 25-C , 26-H ) :   0.9581
B( 25-C , 27-H ) :   0.9582 B( 25-C , 28-C ) :   1.0792 B( 28-C , 29-H ) :   0.9774
B( 28-C , 30-H ) :   0.9766 B( 28-C , 31-H ) :   0.9734

Dispersion correction           -0.013286169
FINAL SINGLE POINT ENERGY     -1339.861172401961

DIPOLE MOMENT
-------------
                                X             Y             Z
Electronic contribution:    -10.07941      -5.92255     -11.68685
Nuclear contribution   :     10.30041       6.13169      11.79992
                        -----------------------------------------
Total Dipole Moment    :      0.22100       0.20914       0.11307
                        -----------------------------------------
Magnitude (a.u.)       :      0.32460
Magnitude (Debye)      :      0.82507

Rotational constants in cm-1:     0.022283     0.006766     0.005600
Rotational constants in MHz :   668.024154   202.831006   167.895950

                             ****ORCA TERMINATED NORMALLY****
TOTAL RUN TIME: 0 days 0 hours 0 minutes 20 seconds 192 msec
