                         Program Version 4.2.1 -  RELEASE  -
|  1> ! wB97X-D3 SP def2-SVP
|  2> %pal
|  3> nprocs 24
|  4> end
|  5>
|  6> * xyz 0 1
|  7> S 	 -93.0148 	 3.54253 	 -2.61002
|  8> C 	 -91.494 	 3.26828 	 -3.39502
|  9> C 	 -90.5054 	 3.92017 	 -2.69182
| 10> C 	 -90.973 	 4.7105 	 -1.6095
| 11> C 	 -92.3219 	 4.62888 	 -1.41807
| 12> H 	 -90.4247 	 5.35253 	 -0.918243
| 13> C 	 -89.0438 	 3.85379 	 -3.05811
| 14> H 	 -88.8074 	 4.83128 	 -3.44782
| 15> H 	 -88.8452 	 2.99125 	 -3.8038
| 16> C 	 -88.0263 	 3.68975 	 -1.9871
| 17> H 	 -88.1178 	 4.43698 	 -1.2363
| 18> H 	 -88.2333 	 2.77899 	 -1.42671
| 19> C 	 -86.5589 	 3.51905 	 -2.34581
| 20> H 	 -86.3784 	 4.43549 	 -2.88535
| 21> H 	 -85.8448 	 3.55213 	 -1.48762
| 22> H 	 -86.4677 	 2.59703 	 -2.92629
| 23> S 	 -94.5407 	 6.01935 	 -0.648664
| 24> C 	 -94.8328 	 6.29418 	 1.04883
| 25> C 	 -93.9373 	 5.60317 	 1.81832
| 26> C 	 -92.8452 	 5.08125 	 1.07686
| 27> C 	 -93.0637 	 5.16669 	 -0.310396
| 28> H 	 -94.0475 	 5.58269 	 2.88005
| 29> C 	 -91.5985 	 4.52388 	 1.67932
| 30> H 	 -90.9174 	 5.26866 	 1.97962
| 31> H 	 -91.0842 	 3.85807 	 0.96659
| 32> C 	 -91.9502 	 3.51103 	 2.8599
| 33> H 	 -92.5626 	 4.05564 	 3.59447
| 34> H 	 -90.9683 	 3.38573 	 3.35009
| 35> C 	 -92.5627 	 2.18581 	 2.4382
| 36> H 	 -91.7538 	 1.53096 	 2.02507
| 37> H 	 -93.3121 	 2.36549 	 1.65885
| 38> H 	 -93.1631 	 1.68404 	 3.1893
| 39> H 	 -91.3009 	 2.60929 	 -4.2083
| 40> H 	 -95.6775 	 6.72217 	 1.53858
| 41> *
| 42>
| 43>                          ****END OF INPUT****

CARTESIAN COORDINATES (ANGSTROEM)
---------------------------------
  S    -93.014800    3.542530   -2.610020
  C    -91.494000    3.268280   -3.395020
  C    -90.505400    3.920170   -2.691820
  C    -90.973000    4.710500   -1.609500
  C    -92.321900    4.628880   -1.418070
  H    -90.424700    5.352530   -0.918243
  C    -89.043800    3.853790   -3.058110
  H    -88.807400    4.831280   -3.447820
  H    -88.845200    2.991250   -3.803800
  C    -88.026300    3.689750   -1.987100
  H    -88.117800    4.436980   -1.236300
  H    -88.233300    2.778990   -1.426710
  C    -86.558900    3.519050   -2.345810
  H    -86.378400    4.435490   -2.885350
  H    -85.844800    3.552130   -1.487620
  H    -86.467700    2.597030   -2.926290
  S    -94.540700    6.019350   -0.648664
  C    -94.832800    6.294180    1.048830
  C    -93.937300    5.603170    1.818320
  C    -92.845200    5.081250    1.076860
  C    -93.063700    5.166690   -0.310396
  H    -94.047500    5.582690    2.880050
  C    -91.598500    4.523880    1.679320
  H    -90.917400    5.268660    1.979620
  H    -91.084200    3.858070    0.966590
  C    -91.950200    3.511030    2.859900
  H    -92.562600    4.055640    3.594470
  H    -90.968300    3.385730    3.350090
  C    -92.562700    2.185810    2.438200
  H    -91.753800    1.530960    2.025070
  H    -93.312100    2.365490    1.658850
  H    -93.163100    1.684040    3.189300
  H    -91.300900    2.609290   -4.208300
  H    -95.677500    6.722170    1.538580

 Total Charge           Charge          ....    0
 Multiplicity           Mult            ....    1
 Number of Electrons    NEL             ....  134
 Basis Dimension        Dim             ....  322

ORBITAL ENERGIES
----------------

  NO   OCC          E(Eh)            E(eV)
   0   2.0000     -88.966804     -2420.9098
   1   2.0000     -88.964972     -2420.8600
   2   2.0000     -10.326455      -280.9971
   3   2.0000     -10.325013      -280.9579
   4   2.0000     -10.314230      -280.6645
   5   2.0000     -10.311777      -280.5977
   6   2.0000     -10.303575      -280.3745
   7   2.0000     -10.301036      -280.3055
   8   2.0000     -10.294673      -280.1323
   9   2.0000     -10.292090      -280.0620
  10   2.0000     -10.290903      -280.0297
  11   2.0000     -10.289501      -279.9916
  12   2.0000     -10.289325      -279.9868
  13   2.0000     -10.281427      -279.7719
  14   2.0000     -10.278327      -279.6875
  15   2.0000     -10.276252      -279.6310
  16   2.0000      -8.081760      -219.9159
  17   2.0000      -8.079910      -219.8655
  18   2.0000      -6.040223      -164.3628
  19   2.0000      -6.038452      -164.3146
  20   2.0000      -6.036199      -164.2533
  21   2.0000      -6.034318      -164.2021
  22   2.0000      -6.032588      -164.1551
  23   2.0000      -6.030683      -164.1032
  24   2.0000      -1.012041       -27.5390
  25   2.0000      -0.989467       -26.9248
  26   2.0000      -0.919567       -25.0227
  27   2.0000      -0.907113       -24.6838
  28   2.0000      -0.878188       -23.8967
  29   2.0000      -0.852161       -23.1885
  30   2.0000      -0.845540       -23.0083
  31   2.0000      -0.821027       -22.3413
  32   2.0000      -0.784332       -21.3428
  33   2.0000      -0.772883       -21.0312
  34   2.0000      -0.712108       -19.3774
  35   2.0000      -0.698201       -18.9990
  36   2.0000      -0.690425       -18.7874
  37   2.0000      -0.654871       -17.8200
  38   2.0000      -0.645862       -17.5748
  39   2.0000      -0.622515       -16.9395
  40   2.0000      -0.600931       -16.3522
  41   2.0000      -0.580940       -15.8082
  42   2.0000      -0.571493       -15.5511
  43   2.0000      -0.558852       -15.2071
  44   2.0000      -0.535195       -14.5634
  45   2.0000      -0.525487       -14.2992
  46   2.0000      -0.520140       -14.1537
  47   2.0000      -0.514097       -13.9893
  48   2.0000      -0.508655       -13.8412
  49   2.0000      -0.502101       -13.6629
  50   2.0000      -0.492862       -13.4115
  51   2.0000      -0.477748       -13.0002
  52   2.0000      -0.474418       -12.9096
  53   2.0000      -0.467462       -12.7203
  54   2.0000      -0.462450       -12.5839
  55   2.0000      -0.455527       -12.3955
  56   2.0000      -0.451672       -12.2906
  57   2.0000      -0.443414       -12.0659
  58   2.0000      -0.425502       -11.5785
  59   2.0000      -0.422759       -11.5039
  60   2.0000      -0.419072       -11.4035
  61   2.0000      -0.403567       -10.9816
  62   2.0000      -0.402411       -10.9501
  63   2.0000      -0.351003        -9.5513
  64   2.0000      -0.330967        -9.0061
  65   2.0000      -0.329854        -8.9758
  66   2.0000      -0.293001        -7.9730
  67   0.0000       0.030528         0.8307
  68   0.0000       0.071103         1.9348
  69   0.0000       0.119359         3.2479
  70   0.0000       0.126820         3.4509
  71   0.0000       0.127808         3.4778

MULLIKEN ATOMIC CHARGES
-----------------------
   0 S :    0.110661
   1 C :   -0.106399
   2 C :   -0.068681
   3 C :    0.003977
   4 C :   -0.124578
   5 H :    0.021759
   6 C :    0.083055
   7 H :    0.028447
   8 H :    0.028606
   9 C :   -0.106743
  10 H :    0.010361
  11 H :    0.012281
  12 C :   -0.038244
  13 H :    0.020231
  14 H :    0.043979
  15 H :    0.040035
  16 S :    0.116643
  17 C :   -0.060560
  18 C :   -0.052734
  19 C :   -0.020401
  20 C :   -0.186446
  21 H :    0.012388
  22 C :    0.058641
  23 H :    0.036011
  24 H :    0.033443
  25 C :   -0.109104
  26 H :    0.025133
  27 H :    0.026725
  28 C :   -0.037526
  29 H :    0.045485
  30 H :    0.035643
  31 H :    0.035569
  32 H :    0.037580
  33 H :    0.044764
Sum of atomic charges:   -0.0000000

LOEWDIN ATOMIC CHARGES
----------------------
   0 S :    0.409081
   1 C :   -0.198112
   2 C :   -0.062835
   3 C :   -0.066536
   4 C :   -0.191191
   5 H :    0.034714
   6 C :   -0.034012
   7 H :    0.032074
   8 H :    0.037451
   9 C :   -0.054141
  10 H :    0.013463
  11 H :    0.018408
  12 C :   -0.060087
  13 H :    0.021122
  14 H :    0.034631
  15 H :    0.026636
  16 S :    0.418117
  17 C :   -0.183321
  18 C :   -0.068645
  19 C :   -0.052731
  20 C :   -0.207540
  21 H :    0.027567
  22 C :   -0.028851
  23 H :    0.026236
  24 H :    0.034215
  25 C :   -0.041880
  26 H :    0.016455
  27 H :    0.023671
  28 C :   -0.071195
  29 H :    0.034136
  30 H :    0.029501
  31 H :    0.028393
  32 H :    0.027114
  33 H :    0.028091

  Mayer bond orders larger than 0.100000
B(  0-S ,  1-C ) :   1.1318 B(  0-S ,  4-C ) :   1.1522 B(  1-C ,  2-C ) :   1.6075
B(  1-C , 32-H ) :   0.9751 B(  2-C ,  3-C ) :   1.2174 B(  2-C ,  6-C ) :   1.0326
B(  3-C ,  4-C ) :   1.5764 B(  3-C ,  5-H ) :   1.0004 B(  4-C , 20-C ) :   1.0529
B(  6-C ,  7-H ) :   0.9254 B(  6-C ,  8-H ) :   0.9440 B(  6-C ,  9-C ) :   1.0681
B(  9-C , 10-H ) :   0.9461 B(  9-C , 11-H ) :   0.9534 B(  9-C , 12-C ) :   1.0857
B( 12-C , 13-H ) :   0.9755 B( 12-C , 14-H ) :   0.9721 B( 12-C , 15-H ) :   0.9757
B( 16-S , 17-C ) :   1.1516 B( 16-S , 20-C ) :   1.1495 B( 17-C , 18-C ) :   1.6204
B( 17-C , 20-C ) :   0.1007 B( 17-C , 33-H ) :   0.9643 B( 18-C , 19-C ) :   1.2451
B( 18-C , 21-H ) :   0.9905 B( 19-C , 20-C ) :   1.5579 B( 19-C , 22-C ) :   1.0469
B( 22-C , 23-H ) :   0.9338 B( 22-C , 24-H ) :   0.9327 B( 22-C , 25-C ) :   1.0640
B( 25-C , 26-H ) :   0.9587 B( 25-C , 27-H ) :   0.9580 B( 25-C , 28-C ) :   1.0703
B( 28-C , 29-H ) :   0.9721 B( 28-C , 30-H ) :   0.9738 B( 28-C , 31-H ) :   0.9729

Dispersion correction           -0.014372474
FINAL SINGLE POINT ENERGY     -1339.877763383144

DIPOLE MOMENT
-------------
                                X             Y             Z
Electronic contribution:    -25.00865       9.94625     -10.39882
Nuclear contribution   :     25.52825     -10.05233      10.86558
                        -----------------------------------------
Total Dipole Moment    :      0.51959      -0.10608       0.46676
                        -----------------------------------------
Magnitude (a.u.)       :      0.70646
Magnitude (Debye)      :      1.79569

Rotational constants in cm-1:     0.018892     0.008685     0.006994
Rotational constants in MHz :   566.373898   260.376468   209.688533

                             ****ORCA TERMINATED NORMALLY****
TOTAL RUN TIME: 0 days 0 hours 0 minutes 22 seconds 63 msec
