                         Program Version 4.2.1 -  RELEASE  -
|  1> ! wB97X-D3 SP def2-SVP
|  2> %pal
|  3> nprocs 24
|  4> end
|  5>
|  6> * xyz 0 1
|  7> S 	 -107.748 	 54.461 	 -85.4924
|  8> C 	 -109.242 	 55.2327 	 -84.9248
|  9> C 	 -109.422 	 56.4011 	 -85.6766
| 10> C 	 -108.279 	 56.8102 	 -86.3691
| 11> C 	 -107.261 	 55.9095 	 -86.4362
| 12> H 	 -108.3 	 57.6985 	 -86.9185
| 13> C 	 -110.661 	 57.3421 	 -85.7005
| 14> H 	 -111.357 	 56.7027 	 -86.2261
| 15> H 	 -110.452 	 58.0776 	 -86.4333
| 16> C 	 -111.135 	 57.927 	 -84.4137
| 17> H 	 -110.322 	 58.472 	 -84.0393
| 18> H 	 -111.958 	 58.5681 	 -84.5804
| 19> C 	 -111.734 	 56.8887 	 -83.4167
| 20> H 	 -112.578 	 56.3852 	 -83.8369
| 21> H 	 -111.019 	 56.1349 	 -82.982
| 22> H 	 -112.145 	 57.1681 	 -82.4616
| 23> S 	 -104.992 	 54.4891 	 -87.2905
| 24> C 	 -103.716 	 55.3142 	 -88.0915
| 25> C 	 -103.93 	 56.6516 	 -88.1421
| 26> C 	 -105.16 	 57.088 	 -87.5538
| 27> C 	 -105.891 	 56.0185 	 -86.9672
| 28> H 	 -103.248 	 57.3075 	 -88.7349
| 29> C 	 -105.663 	 58.4698 	 -87.6167
| 30> H 	 -106.73 	 58.371 	 -87.8792
| 31> H 	 -105.13 	 59.0035 	 -88.4012
| 32> C 	 -105.416 	 59.088 	 -86.2528
| 33> H 	 -104.334 	 58.9747 	 -86.0399
| 34> H 	 -105.94 	 58.6006 	 -85.4388
| 35> C 	 -105.85 	 60.56 	 -86.2056
| 36> H 	 -105.082 	 61.01 	 -86.8926
| 37> H 	 -106.062 	 60.9126 	 -85.2208
| 38> H 	 -106.703 	 60.5857 	 -86.7997
| 39> H 	 -109.995 	 54.681 	 -84.4227
| 40> H 	 -102.848 	 54.8432 	 -88.5252
| 41> *
| 42>
| 43>                          ****END OF INPUT****

CARTESIAN COORDINATES (ANGSTROEM)
---------------------------------
  S    -107.748000   54.461000  -85.492400
  C    -109.242000   55.232700  -84.924800
  C    -109.422000   56.401100  -85.676600
  C    -108.279000   56.810200  -86.369100
  C    -107.261000   55.909500  -86.436200
  H    -108.300000   57.698500  -86.918500
  C    -110.661000   57.342100  -85.700500
  H    -111.357000   56.702700  -86.226100
  H    -110.452000   58.077600  -86.433300
  C    -111.135000   57.927000  -84.413700
  H    -110.322000   58.472000  -84.039300
  H    -111.958000   58.568100  -84.580400
  C    -111.734000   56.888700  -83.416700
  H    -112.578000   56.385200  -83.836900
  H    -111.019000   56.134900  -82.982000
  H    -112.145000   57.168100  -82.461600
  S    -104.992000   54.489100  -87.290500
  C    -103.716000   55.314200  -88.091500
  C    -103.930000   56.651600  -88.142100
  C    -105.160000   57.088000  -87.553800
  C    -105.891000   56.018500  -86.967200
  H    -103.248000   57.307500  -88.734900
  C    -105.663000   58.469800  -87.616700
  H    -106.730000   58.371000  -87.879200
  H    -105.130000   59.003500  -88.401200
  C    -105.416000   59.088000  -86.252800
  H    -104.334000   58.974700  -86.039900
  H    -105.940000   58.600600  -85.438800
  C    -105.850000   60.560000  -86.205600
  H    -105.082000   61.010000  -86.892600
  H    -106.062000   60.912600  -85.220800
  H    -106.703000   60.585700  -86.799700
  H    -109.995000   54.681000  -84.422700
  H    -102.848000   54.843200  -88.525200

 Total Charge           Charge          ....    0
 Multiplicity           Mult            ....    1
 Number of Electrons    NEL             ....  134
 Basis Dimension        Dim             ....  322

ORBITAL ENERGIES
----------------

  NO   OCC          E(Eh)            E(eV)
   0   2.0000     -88.965208     -2420.8664
   1   2.0000     -88.962382     -2420.7895
   2   2.0000     -10.336406      -281.2679
   3   2.0000     -10.334452      -281.2147
   4   2.0000     -10.315632      -280.7026
   5   2.0000     -10.314503      -280.6719
   6   2.0000     -10.306555      -280.4556
   7   2.0000     -10.301317      -280.3131
   8   2.0000     -10.295208      -280.1469
   9   2.0000     -10.292152      -280.0637
  10   2.0000     -10.288966      -279.9770
  11   2.0000     -10.285410      -279.8802
  12   2.0000     -10.285360      -279.8789
  13   2.0000     -10.282789      -279.8089
  14   2.0000     -10.279697      -279.7248
  15   2.0000     -10.272244      -279.5220
  16   2.0000      -8.079737      -219.8608
  17   2.0000      -8.076223      -219.7652
  18   2.0000      -6.038313      -164.3109
  19   2.0000      -6.034890      -164.2177
  20   2.0000      -6.034254      -164.2004
  21   2.0000      -6.030898      -164.1091
  22   2.0000      -6.030470      -164.0974
  23   2.0000      -6.026825      -163.9982
  24   2.0000      -1.003722       -27.3127
  25   2.0000      -0.983859       -26.7722
  26   2.0000      -0.921805       -25.0836
  27   2.0000      -0.914753       -24.8917
  28   2.0000      -0.866862       -23.5885
  29   2.0000      -0.855368       -23.2757
  30   2.0000      -0.846827       -23.0433
  31   2.0000      -0.814940       -22.1756
  32   2.0000      -0.787902       -21.4399
  33   2.0000      -0.774017       -21.0621
  34   2.0000      -0.714191       -19.4341
  35   2.0000      -0.706651       -19.2289
  36   2.0000      -0.694608       -18.9012
  37   2.0000      -0.662636       -18.0312
  38   2.0000      -0.641254       -17.4494
  39   2.0000      -0.627625       -17.0785
  40   2.0000      -0.597126       -16.2486
  41   2.0000      -0.576102       -15.6765
  42   2.0000      -0.573363       -15.6020
  43   2.0000      -0.555599       -15.1186
  44   2.0000      -0.541689       -14.7401
  45   2.0000      -0.530787       -14.4434
  46   2.0000      -0.519167       -14.1273
  47   2.0000      -0.513147       -13.9634
  48   2.0000      -0.511892       -13.9293
  49   2.0000      -0.500411       -13.6169
  50   2.0000      -0.490345       -13.3430
  51   2.0000      -0.486479       -13.2378
  52   2.0000      -0.477245       -12.9865
  53   2.0000      -0.460760       -12.5379
  54   2.0000      -0.457707       -12.4548
  55   2.0000      -0.448407       -12.2018
  56   2.0000      -0.443056       -12.0562
  57   2.0000      -0.440684       -11.9916
  58   2.0000      -0.432865       -11.7789
  59   2.0000      -0.426550       -11.6070
  60   2.0000      -0.421109       -11.4590
  61   2.0000      -0.411387       -11.1944
  62   2.0000      -0.404611       -11.0100
  63   2.0000      -0.361031        -9.8241
  64   2.0000      -0.335384        -9.1263
  65   2.0000      -0.327014        -8.8985
  66   2.0000      -0.279751        -7.6124
  67   0.0000       0.014764         0.4018
  68   0.0000       0.077663         2.1133
  69   0.0000       0.098091         2.6692
  70   0.0000       0.126000         3.4286
  71   0.0000       0.130908         3.5622

MULLIKEN ATOMIC CHARGES
-----------------------
   0 S :    0.076890
   1 C :   -0.115310
   2 C :   -0.125758
   3 C :   -0.020745
   4 C :   -0.057551
   5 H :   -0.023994
   6 C :    0.086568
   7 H :    0.025772
   8 H :    0.000626
   9 C :    0.035338
  10 H :    0.022630
  11 H :    0.024975
  12 C :   -0.090984
  13 H :    0.022769
  14 H :    0.035178
  15 H :    0.018559
  16 S :    0.089625
  17 C :   -0.072507
  18 C :   -0.035366
  19 C :   -0.099605
  20 C :   -0.104899
  21 H :    0.028156
  22 C :    0.068442
  23 H :    0.038326
  24 H :    0.016057
  25 C :   -0.125430
  26 H :    0.033824
  27 H :    0.037034
  28 C :    0.037076
  29 H :    0.025922
  30 H :    0.042447
  31 H :   -0.003559
  32 H :    0.053281
  33 H :    0.056214
Sum of atomic charges:   -0.0000000

LOEWDIN ATOMIC CHARGES
----------------------
   0 S :    0.372892
   1 C :   -0.189164
   2 C :   -0.053044
   3 C :   -0.079035
   4 C :   -0.162402
   5 H :    0.017641
   6 C :   -0.025247
   7 H :    0.032304
   8 H :    0.023728
   9 C :   -0.025106
  10 H :    0.022742
  11 H :    0.026140
  12 C :   -0.078021
  13 H :    0.021834
  14 H :    0.030739
  15 H :    0.025325
  16 S :    0.396350
  17 C :   -0.186869
  18 C :   -0.085334
  19 C :   -0.045866
  20 C :   -0.184636
  21 H :    0.038115
  22 C :   -0.033497
  23 H :    0.032832
  24 H :    0.030127
  25 C :   -0.037978
  26 H :    0.026709
  27 H :    0.023921
  28 C :   -0.060415
  29 H :    0.034242
  30 H :    0.025348
  31 H :    0.012891
  32 H :    0.020030
  33 H :    0.032705

  Mayer bond orders larger than 0.100000
B(  0-S ,  1-C ) :   1.1305 B(  0-S ,  4-C ) :   1.1385 B(  1-C ,  2-C ) :   1.5955
B(  1-C ,  4-C ) :   0.1078 B(  1-C , 32-H ) :   0.9640 B(  2-C ,  3-C ) :   1.2795
B(  2-C ,  6-C ) :   1.0003 B(  3-C ,  4-C ) :   1.5557 B(  3-C ,  5-H ) :   0.9926
B(  4-C , 20-C ) :   1.0721 B(  6-C ,  7-H ) :   0.9307 B(  6-C ,  8-H ) :   0.9375
B(  6-C ,  9-C ) :   1.0786 B(  9-C , 10-H ) :   0.9540 B(  9-C , 11-H ) :   0.9496
B(  9-C , 12-C ) :   1.0662 B( 12-C , 13-H ) :   0.9767 B( 12-C , 14-H ) :   0.9696
B( 12-C , 15-H ) :   0.9721 B( 16-S , 17-C ) :   1.1678 B( 16-S , 20-C ) :   1.1213
B( 17-C , 18-C ) :   1.6021 B( 17-C , 33-H ) :   0.9639 B( 18-C , 19-C ) :   1.2672
B( 18-C , 21-H ) :   0.9824 B( 19-C , 20-C ) :   1.5596 B( 19-C , 22-C ) :   1.0514
B( 22-C , 23-H ) :   0.9228 B( 22-C , 24-H ) :   0.9252 B( 22-C , 25-C ) :   1.0676
B( 25-C , 26-H ) :   0.9568 B( 25-C , 27-H ) :   0.9569 B( 25-C , 28-C ) :   1.0706
B( 28-C , 29-H ) :   0.9723 B( 28-C , 30-H ) :   0.9744 B( 28-C , 31-H ) :   0.9675

Dispersion correction           -0.014407932
FINAL SINGLE POINT ENERGY     -1339.853963155760

DIPOLE MOMENT
-------------
                                X             Y             Z
Electronic contribution:     13.98202     -24.20403      -6.88754
Nuclear contribution   :    -14.26919      24.88316       6.63658
                        -----------------------------------------
Total Dipole Moment    :     -0.28717       0.67913      -0.25095
                        -----------------------------------------
Magnitude (a.u.)       :      0.77888
Magnitude (Debye)      :      1.97977

Rotational constants in cm-1:     0.020275     0.008806     0.006462
Rotational constants in MHz :   607.836535   263.984945   193.720785

                             ****ORCA TERMINATED NORMALLY****
TOTAL RUN TIME: 0 days 0 hours 0 minutes 22 seconds 126 msec
