                         Program Version 4.2.1 -  RELEASE  -
|  1> ! wB97X-D3 SP def2-SVP
|  2> %pal
|  3> nprocs 24
|  4> end
|  5>
|  6> * xyz 0 1
|  7> S 	 -92.9232 	 -24.7552 	 -67.3287
|  8> C 	 -94.5088 	 -24.8733 	 -67.9097
|  9> C 	 -95.3349 	 -25.5723 	 -67.0785
| 10> C 	 -94.7088 	 -26.047 	 -65.8674
| 11> C 	 -93.3996 	 -25.6198 	 -65.8836
| 12> H 	 -95.1549 	 -26.5598 	 -65.0849
| 13> C 	 -96.768 	 -25.8672 	 -67.475
| 14> H 	 -97.0381 	 -26.9713 	 -67.4555
| 15> H 	 -96.8138 	 -25.5178 	 -68.5085
| 16> C 	 -97.7805 	 -24.8857 	 -66.7913
| 17> H 	 -97.5911 	 -23.8417 	 -67.1885
| 18> H 	 -98.7118 	 -25.2308 	 -67.1954
| 19> C 	 -97.9208 	 -24.8636 	 -65.323
| 20> H 	 -98.8293 	 -24.2762 	 -65.0529
| 21> H 	 -98.0016 	 -25.8467 	 -64.8483
| 22> H 	 -97.1114 	 -24.4399 	 -64.8162
| 23> S 	 -90.9924 	 -26.9465 	 -65.364
| 24> C 	 -90.3158 	 -26.7879 	 -63.8674
| 25> C 	 -91.0357 	 -25.9188 	 -63.041
| 26> C 	 -92.241 	 -25.452 	 -63.5948
| 27> C 	 -92.3284 	 -25.8514 	 -64.9123
| 28> H 	 -90.599 	 -25.842 	 -62.1241
| 29> C 	 -93.1605 	 -24.666 	 -62.6717
| 30> H 	 -93.0344 	 -25.0509 	 -61.6549
| 31> H 	 -94.1395 	 -24.8594 	 -62.9784
| 32> C 	 -92.9172 	 -23.1563 	 -62.6974
| 33> H 	 -93.4665 	 -22.9671 	 -63.5973
| 34> H 	 -91.8951 	 -22.8491 	 -62.8905
| 35> C 	 -93.6098 	 -22.3357 	 -61.5577
| 36> H 	 -93.3832 	 -21.2501 	 -61.5001
| 37> H 	 -93.2794 	 -22.7221 	 -60.5847
| 38> H 	 -94.728 	 -22.3723 	 -61.7113
| 39> H 	 -94.8028 	 -24.307 	 -68.7645
| 40> H 	 -89.3303 	 -27.238 	 -63.5318
| 41> *
| 42>
| 43>                          ****END OF INPUT****

CARTESIAN COORDINATES (ANGSTROEM)
---------------------------------
  S    -92.923200  -24.755200  -67.328700
  C    -94.508800  -24.873300  -67.909700
  C    -95.334900  -25.572300  -67.078500
  C    -94.708800  -26.047000  -65.867400
  C    -93.399600  -25.619800  -65.883600
  H    -95.154900  -26.559800  -65.084900
  C    -96.768000  -25.867200  -67.475000
  H    -97.038100  -26.971300  -67.455500
  H    -96.813800  -25.517800  -68.508500
  C    -97.780500  -24.885700  -66.791300
  H    -97.591100  -23.841700  -67.188500
  H    -98.711800  -25.230800  -67.195400
  C    -97.920800  -24.863600  -65.323000
  H    -98.829300  -24.276200  -65.052900
  H    -98.001600  -25.846700  -64.848300
  H    -97.111400  -24.439900  -64.816200
  S    -90.992400  -26.946500  -65.364000
  C    -90.315800  -26.787900  -63.867400
  C    -91.035700  -25.918800  -63.041000
  C    -92.241000  -25.452000  -63.594800
  C    -92.328400  -25.851400  -64.912300
  H    -90.599000  -25.842000  -62.124100
  C    -93.160500  -24.666000  -62.671700
  H    -93.034400  -25.050900  -61.654900
  H    -94.139500  -24.859400  -62.978400
  C    -92.917200  -23.156300  -62.697400
  H    -93.466500  -22.967100  -63.597300
  H    -91.895100  -22.849100  -62.890500
  C    -93.609800  -22.335700  -61.557700
  H    -93.383200  -21.250100  -61.500100
  H    -93.279400  -22.722100  -60.584700
  H    -94.728000  -22.372300  -61.711300
  H    -94.802800  -24.307000  -68.764500
  H    -89.330300  -27.238000  -63.531800

 Total Charge           Charge          ....    0
 Multiplicity           Mult            ....    1
 Number of Electrons    NEL             ....  134
 Basis Dimension        Dim             ....  322

ORBITAL ENERGIES
----------------

  NO   OCC          E(Eh)            E(eV)
   0   2.0000     -88.964814     -2420.8556
   1   2.0000     -88.962412     -2420.7903
   2   2.0000     -10.325976      -280.9841
   3   2.0000     -10.322086      -280.8782
   4   2.0000     -10.310985      -280.5762
   5   2.0000     -10.302775      -280.3528
   6   2.0000     -10.301149      -280.3085
   7   2.0000     -10.296403      -280.1794
   8   2.0000     -10.294437      -280.1259
   9   2.0000     -10.292706      -280.0788
  10   2.0000     -10.288655      -279.9685
  11   2.0000     -10.286819      -279.9186
  12   2.0000     -10.286392      -279.9069
  13   2.0000     -10.281825      -279.7827
  14   2.0000     -10.278164      -279.6831
  15   2.0000     -10.271548      -279.5030
  16   2.0000      -8.080920      -219.8930
  17   2.0000      -8.078660      -219.8315
  18   2.0000      -6.039141      -164.3334
  19   2.0000      -6.036911      -164.2727
  20   2.0000      -6.035217      -164.2266
  21   2.0000      -6.033030      -164.1671
  22   2.0000      -6.031911      -164.1366
  23   2.0000      -6.029531      -164.0719
  24   2.0000      -1.011633       -27.5279
  25   2.0000      -0.991696       -26.9854
  26   2.0000      -0.911822       -24.8119
  27   2.0000      -0.910684       -24.7810
  28   2.0000      -0.868419       -23.6309
  29   2.0000      -0.854419       -23.2499
  30   2.0000      -0.850330       -23.1387
  31   2.0000      -0.815539       -22.1919
  32   2.0000      -0.787360       -21.4252
  33   2.0000      -0.770675       -20.9711
  34   2.0000      -0.705497       -19.1975
  35   2.0000      -0.694628       -18.9018
  36   2.0000      -0.689187       -18.7537
  37   2.0000      -0.660227       -17.9657
  38   2.0000      -0.648863       -17.6564
  39   2.0000      -0.618183       -16.8216
  40   2.0000      -0.596960       -16.2441
  41   2.0000      -0.573251       -15.5989
  42   2.0000      -0.564537       -15.3618
  43   2.0000      -0.544629       -14.8201
  44   2.0000      -0.539831       -14.6895
  45   2.0000      -0.521628       -14.1942
  46   2.0000      -0.518486       -14.1087
  47   2.0000      -0.514014       -13.9870
  48   2.0000      -0.506829       -13.7915
  49   2.0000      -0.498629       -13.5684
  50   2.0000      -0.490985       -13.3604
  51   2.0000      -0.483268       -13.1504
  52   2.0000      -0.477043       -12.9810
  53   2.0000      -0.466994       -12.7075
  54   2.0000      -0.460015       -12.5176
  55   2.0000      -0.447658       -12.1814
  56   2.0000      -0.445332       -12.1181
  57   2.0000      -0.432582       -11.7712
  58   2.0000      -0.429406       -11.6847
  59   2.0000      -0.427223       -11.6253
  60   2.0000      -0.422707       -11.5025
  61   2.0000      -0.410736       -11.1767
  62   2.0000      -0.408731       -11.1221
  63   2.0000      -0.341899        -9.3035
  64   2.0000      -0.335690        -9.1346
  65   2.0000      -0.323177        -8.7941
  66   2.0000      -0.294100        -8.0029
  67   0.0000       0.045122         1.2278
  68   0.0000       0.064454         1.7539
  69   0.0000       0.117475         3.1967
  70   0.0000       0.121922         3.3177
  71   0.0000       0.127372         3.4660

MULLIKEN ATOMIC CHARGES
-----------------------
   0 S :    0.118611
   1 C :   -0.107964
   2 C :   -0.104987
   3 C :    0.087367
   4 C :   -0.190432
   5 H :   -0.010706
   6 C :    0.040836
   7 H :    0.054348
   8 H :    0.014395
   9 C :   -0.072170
  10 H :    0.033388
  11 H :    0.021023
  12 C :   -0.029057
  13 H :    0.038122
  14 H :    0.020461
  15 H :    0.019036
  16 S :    0.137959
  17 C :   -0.122193
  18 C :   -0.029802
  19 C :    0.001954
  20 C :   -0.198236
  21 H :   -0.026049
  22 C :    0.141686
  23 H :    0.018913
  24 H :   -0.004387
  25 C :   -0.074728
  26 H :    0.024151
  27 H :    0.037308
  28 C :   -0.068900
  29 H :    0.040684
  30 H :    0.032491
  31 H :    0.041422
  32 H :    0.040347
  33 H :    0.075109
Sum of atomic charges:   -0.0000000

LOEWDIN ATOMIC CHARGES
----------------------
   0 S :    0.428037
   1 C :   -0.214208
   2 C :   -0.064829
   3 C :   -0.048715
   4 C :   -0.186837
   5 H :    0.023511
   6 C :   -0.037104
   7 H :    0.038464
   8 H :    0.032183
   9 C :   -0.042590
  10 H :    0.031468
  11 H :    0.020595
  12 C :   -0.070470
  13 H :    0.035468
  14 H :    0.024494
  15 H :    0.014313
  16 S :    0.438573
  17 C :   -0.226281
  18 C :   -0.071868
  19 C :   -0.045445
  20 C :   -0.208293
  21 H :    0.013176
  22 C :   -0.015421
  23 H :    0.027975
  24 H :    0.019172
  25 C :   -0.041354
  26 H :    0.026518
  27 H :    0.023769
  28 C :   -0.073708
  29 H :    0.030541
  30 H :    0.022082
  31 H :    0.032243
  32 H :    0.021584
  33 H :    0.042957

  Mayer bond orders larger than 0.100000
B(  0-S ,  1-C ) :   1.1400 B(  0-S ,  4-C ) :   1.1796 B(  1-C ,  2-C ) :   1.6355
B(  1-C , 32-H ) :   0.9650 B(  2-C ,  3-C ) :   1.2075 B(  2-C ,  6-C ) :   1.0196
B(  3-C ,  4-C ) :   1.5846 B(  3-C ,  5-H ) :   1.0134 B(  4-C , 20-C ) :   0.9975
B(  6-C ,  7-H ) :   0.9473 B(  6-C ,  8-H ) :   0.9361 B(  6-C ,  9-C ) :   1.0674
B(  9-C , 10-H ) :   0.9522 B(  9-C , 11-H ) :   0.9543 B(  9-C , 12-C ) :   1.0981
B( 12-C , 13-H ) :   0.9679 B( 12-C , 14-H ) :   0.9692 B( 12-C , 15-H ) :   0.9685
B( 16-S , 17-C ) :   1.1871 B( 16-S , 20-C ) :   1.1576 B( 17-C , 18-C ) :   1.5980
B( 17-C , 20-C ) :   0.1003 B( 17-C , 33-H ) :   0.9548 B( 18-C , 19-C ) :   1.2301
B( 18-C , 21-H ) :   1.0084 B( 19-C , 20-C ) :   1.5882 B( 19-C , 22-C ) :   1.0383
B( 22-C , 23-H ) :   0.9378 B( 22-C , 24-H ) :   0.9256 B( 22-C , 25-C ) :   1.0430
B( 25-C , 26-H ) :   0.9589 B( 25-C , 27-H ) :   0.9665 B( 25-C , 28-C ) :   1.0711
B( 28-C , 29-H ) :   0.9763 B( 28-C , 30-H ) :   0.9778 B( 28-C , 31-H ) :   0.9757

Dispersion correction           -0.014463014
FINAL SINGLE POINT ENERGY     -1339.863711469439

DIPOLE MOMENT
-------------
                                X             Y             Z
Electronic contribution:     22.32778     -11.96620     -13.65930
Nuclear contribution   :    -22.74315      12.08667      13.95685
                        -----------------------------------------
Total Dipole Moment    :     -0.41537       0.12047       0.29755
                        -----------------------------------------
Magnitude (a.u.)       :      0.52496
Magnitude (Debye)      :      1.33434

Rotational constants in cm-1:     0.016840     0.009608     0.007108
Rotational constants in MHz :   504.843420   288.025835   213.102697

                             ****ORCA TERMINATED NORMALLY****
TOTAL RUN TIME: 0 days 0 hours 0 minutes 21 seconds 629 msec
