                         Program Version 4.2.1 -  RELEASE  -
|  1> ! wB97X-D3 SP def2-SVP
|  2> %pal
|  3> nprocs 24
|  4> end
|  5>
|  6> * xyz 0 1
|  7> S 	 -102.692 	 46.3116 	 -84.2603
|  8> C 	 -101.217 	 46.7809 	 -85.027
|  9> C 	 -101.481 	 47.8531 	 -85.8969
| 10> C 	 -102.886 	 48.1961 	 -85.9285
| 11> C 	 -103.654 	 47.3607 	 -85.1735
| 12> H 	 -103.28 	 48.9622 	 -86.6241
| 13> C 	 -100.471 	 48.623 	 -86.6816
| 14> H 	 -99.842 	 48.8209 	 -85.8303
| 15> H 	 -100.845 	 49.5939 	 -87.0746
| 16> C 	 -99.6825 	 47.7768 	 -87.7212
| 17> H 	 -99.1471 	 46.8822 	 -87.2885
| 18> H 	 -100.442 	 47.5178 	 -88.4503
| 19> C 	 -98.5607 	 48.6004 	 -88.4141
| 20> H 	 -97.6971 	 48.7671 	 -87.7253
| 21> H 	 -98.0995 	 48.3021 	 -89.4111
| 22> H 	 -98.8712 	 49.5906 	 -88.5985
| 23> S 	 -105.748 	 48.3574 	 -83.8047
| 24> C 	 -107.336 	 47.6349 	 -83.9683
| 25> C 	 -107.293 	 46.7872 	 -85.0479
| 26> C 	 -105.998 	 46.5702 	 -85.5837
| 27> C 	 -105.078 	 47.2789 	 -84.9886
| 28> H 	 -108.217 	 46.4404 	 -85.4666
| 29> C 	 -105.638 	 45.551 	 -86.6879
| 30> H 	 -104.519 	 45.3905 	 -86.7577
| 31> H 	 -106.121 	 45.8866 	 -87.6154
| 32> C 	 -106.215 	 44.1513 	 -86.3891
| 33> H 	 -105.898 	 43.501 	 -87.234
| 34> H 	 -107.333 	 44.1327 	 -86.424
| 35> C 	 -105.674 	 43.4565 	 -85.1695
| 36> H 	 -105.689 	 44.2286 	 -84.3365
| 37> H 	 -104.625 	 43.1502 	 -85.3098
| 38> H 	 -106.3 	 42.6629 	 -84.7928
| 39> H 	 -100.202 	 46.3228 	 -84.9205
| 40> H 	 -108.285 	 47.9453 	 -83.5868
| 41> *
| 42>
| 43>                          ****END OF INPUT****

CARTESIAN COORDINATES (ANGSTROEM)
---------------------------------
  S    -102.692000   46.311600  -84.260300
  C    -101.217000   46.780900  -85.027000
  C    -101.481000   47.853100  -85.896900
  C    -102.886000   48.196100  -85.928500
  C    -103.654000   47.360700  -85.173500
  H    -103.280000   48.962200  -86.624100
  C    -100.471000   48.623000  -86.681600
  H    -99.842000   48.820900  -85.830300
  H    -100.845000   49.593900  -87.074600
  C    -99.682500   47.776800  -87.721200
  H    -99.147100   46.882200  -87.288500
  H    -100.442000   47.517800  -88.450300
  C    -98.560700   48.600400  -88.414100
  H    -97.697100   48.767100  -87.725300
  H    -98.099500   48.302100  -89.411100
  H    -98.871200   49.590600  -88.598500
  S    -105.748000   48.357400  -83.804700
  C    -107.336000   47.634900  -83.968300
  C    -107.293000   46.787200  -85.047900
  C    -105.998000   46.570200  -85.583700
  C    -105.078000   47.278900  -84.988600
  H    -108.217000   46.440400  -85.466600
  C    -105.638000   45.551000  -86.687900
  H    -104.519000   45.390500  -86.757700
  H    -106.121000   45.886600  -87.615400
  C    -106.215000   44.151300  -86.389100
  H    -105.898000   43.501000  -87.234000
  H    -107.333000   44.132700  -86.424000
  C    -105.674000   43.456500  -85.169500
  H    -105.689000   44.228600  -84.336500
  H    -104.625000   43.150200  -85.309800
  H    -106.300000   42.662900  -84.792800
  H    -100.202000   46.322800  -84.920500
  H    -108.285000   47.945300  -83.586800

 Total Charge           Charge          ....    0
 Multiplicity           Mult            ....    1
 Number of Electrons    NEL             ....  134
 Basis Dimension        Dim             ....  322

ORBITAL ENERGIES
----------------

  NO   OCC          E(Eh)            E(eV)
   0   2.0000     -88.964815     -2420.8557
   1   2.0000     -88.959954     -2420.7234
   2   2.0000     -10.321068      -280.8506
   3   2.0000     -10.315572      -280.7010
   4   2.0000     -10.315053      -280.6869
   5   2.0000     -10.313101      -280.6337
   6   2.0000     -10.302477      -280.3446
   7   2.0000     -10.297820      -280.2179
   8   2.0000     -10.297119      -280.1989
   9   2.0000     -10.294455      -280.1264
  10   2.0000     -10.293736      -280.1068
  11   2.0000     -10.293418      -280.0982
  12   2.0000     -10.290043      -280.0063
  13   2.0000     -10.284456      -279.8543
  14   2.0000     -10.282213      -279.7932
  15   2.0000     -10.272284      -279.5231
  16   2.0000      -8.080734      -219.8880
  17   2.0000      -8.075317      -219.7405
  18   2.0000      -6.039179      -164.3344
  19   2.0000      -6.034803      -164.2153
  20   2.0000      -6.033945      -164.1920
  21   2.0000      -6.031747      -164.1322
  22   2.0000      -6.029783      -164.0787
  23   2.0000      -6.025837      -163.9714
  24   2.0000      -1.019748       -27.7488
  25   2.0000      -0.993054       -27.0224
  26   2.0000      -0.914398       -24.8820
  27   2.0000      -0.905887       -24.6504
  28   2.0000      -0.872524       -23.7426
  29   2.0000      -0.848622       -23.0922
  30   2.0000      -0.845334       -23.0027
  31   2.0000      -0.817755       -22.2522
  32   2.0000      -0.780877       -21.2487
  33   2.0000      -0.771986       -21.0068
  34   2.0000      -0.706836       -19.2340
  35   2.0000      -0.702232       -19.1087
  36   2.0000      -0.687581       -18.7100
  37   2.0000      -0.660363       -17.9694
  38   2.0000      -0.639443       -17.4001
  39   2.0000      -0.616101       -16.7650
  40   2.0000      -0.592731       -16.1290
  41   2.0000      -0.576785       -15.6951
  42   2.0000      -0.563200       -15.3255
  43   2.0000      -0.555603       -15.1187
  44   2.0000      -0.540957       -14.7202
  45   2.0000      -0.525252       -14.2928
  46   2.0000      -0.519663       -14.1408
  47   2.0000      -0.513127       -13.9629
  48   2.0000      -0.505374       -13.7519
  49   2.0000      -0.498902       -13.5758
  50   2.0000      -0.482909       -13.1406
  51   2.0000      -0.478551       -13.0220
  52   2.0000      -0.472582       -12.8596
  53   2.0000      -0.464060       -12.6277
  54   2.0000      -0.458097       -12.4655
  55   2.0000      -0.445205       -12.1146
  56   2.0000      -0.439435       -11.9576
  57   2.0000      -0.432165       -11.7598
  58   2.0000      -0.429330       -11.6827
  59   2.0000      -0.428340       -11.6557
  60   2.0000      -0.420976       -11.4553
  61   2.0000      -0.417754       -11.3677
  62   2.0000      -0.399276       -10.8649
  63   2.0000      -0.334844        -9.1116
  64   2.0000      -0.328042        -8.9265
  65   2.0000      -0.325797        -8.8654
  66   2.0000      -0.312128        -8.4934
  67   0.0000       0.049493         1.3468
  68   0.0000       0.058395         1.5890
  69   0.0000       0.115903         3.1539
  70   0.0000       0.123458         3.3595
  71   0.0000       0.136274         3.7082

MULLIKEN ATOMIC CHARGES
-----------------------
   0 S :    0.135793
   1 C :   -0.141778
   2 C :   -0.119190
   3 C :    0.046370
   4 C :   -0.190298
   5 H :    0.021749
   6 C :    0.046273
   7 H :    0.034928
   8 H :    0.034316
   9 C :   -0.071762
  10 H :    0.047835
  11 H :    0.038135
  12 C :   -0.062141
  13 H :    0.027940
  14 H :    0.046433
  15 H :    0.007672
  16 S :    0.108824
  17 C :   -0.063537
  18 C :   -0.055105
  19 C :    0.004282
  20 C :   -0.188962
  21 H :    0.009459
  22 C :    0.088912
  23 H :    0.051546
  24 H :    0.034428
  25 C :   -0.119836
  26 H :    0.029484
  27 H :    0.030499
  28 C :   -0.049829
  29 H :    0.034233
  30 H :    0.037084
  31 H :    0.034636
  32 H :    0.063180
  33 H :    0.048428
Sum of atomic charges:   -0.0000000

LOEWDIN ATOMIC CHARGES
----------------------
   0 S :    0.452756
   1 C :   -0.227004
   2 C :   -0.060457
   3 C :   -0.069073
   4 C :   -0.216812
   5 H :    0.037470
   6 C :   -0.039373
   7 H :    0.036544
   8 H :    0.035129
   9 C :   -0.036770
  10 H :    0.032865
  11 H :    0.025692
  12 C :   -0.081071
  13 H :    0.027666
  14 H :    0.034513
  15 H :    0.013609
  16 S :    0.405009
  17 C :   -0.178200
  18 C :   -0.068179
  19 C :   -0.064931
  20 C :   -0.208320
  21 H :    0.026274
  22 C :   -0.023352
  23 H :    0.040365
  24 H :    0.035427
  25 C :   -0.055266
  26 H :    0.025748
  27 H :    0.021862
  28 C :   -0.072674
  29 H :    0.029049
  30 H :    0.027120
  31 H :    0.025743
  32 H :    0.039249
  33 H :    0.029391

  Mayer bond orders larger than 0.100000
B(  0-S ,  1-C ) :   1.1477 B(  0-S ,  4-C ) :   1.1944 B(  1-C ,  2-C ) :   1.5834
B(  1-C ,  4-C ) :   0.1020 B(  1-C , 32-H ) :   0.9657 B(  2-C ,  3-C ) :   1.2614
B(  2-C ,  6-C ) :   1.0020 B(  3-C ,  4-C ) :   1.5702 B(  3-C ,  5-H ) :   0.9957
B(  4-C , 20-C ) :   0.9661 B(  6-C ,  7-H ) :   0.9344 B(  6-C ,  8-H ) :   0.9483
B(  6-C ,  9-C ) :   1.0553 B(  9-C , 10-H ) :   0.9596 B(  9-C , 11-H ) :   0.9600
B(  9-C , 12-C ) :   1.0675 B( 12-C , 13-H ) :   0.9759 B( 12-C , 14-H ) :   0.9766
B( 12-C , 15-H ) :   0.9723 B( 16-S , 17-C ) :   1.1395 B( 16-S , 20-C ) :   1.1377
B( 17-C , 18-C ) :   1.6429 B( 17-C , 33-H ) :   0.9671 B( 18-C , 19-C ) :   1.2035
B( 18-C , 21-H ) :   0.9895 B( 19-C , 20-C ) :   1.6790 B( 19-C , 22-C ) :   1.0315
B( 22-C , 23-H ) :   0.9387 B( 22-C , 24-H ) :   0.9269 B( 22-C , 25-C ) :   1.0760
B( 25-C , 26-H ) :   0.9558 B( 25-C , 27-H ) :   0.9532 B( 25-C , 28-C ) :   1.0750
B( 28-C , 29-H ) :   0.9738 B( 28-C , 30-H ) :   0.9721 B( 28-C , 31-H ) :   0.9718

Dispersion correction           -0.014805441
FINAL SINGLE POINT ENERGY     -1339.869499696381

DIPOLE MOMENT
-------------
                                X             Y             Z
Electronic contribution:    -11.45960       7.25269      17.31125
Nuclear contribution   :     11.51144      -7.22600     -17.88229
                        -----------------------------------------
Total Dipole Moment    :      0.05184       0.02669      -0.57104
                        -----------------------------------------
Magnitude (a.u.)       :      0.57401
Magnitude (Debye)      :      1.45902

Rotational constants in cm-1:     0.023566     0.007475     0.006680
Rotational constants in MHz :   706.478416   224.093366   200.254965

                             ****ORCA TERMINATED NORMALLY****
TOTAL RUN TIME: 0 days 0 hours 0 minutes 21 seconds 724 msec
