                         Program Version 4.2.1 -  RELEASE  -
|  1> ! wB97X-D3 SP def2-SVP
|  2> %pal
|  3> nprocs 24
|  4> end
|  5>
|  6> * xyz 0 1
|  7> S 	 -122.715 	 57.7534 	 -31.7204
|  8> C 	 -121.195 	 56.9365 	 -31.8976
|  9> C 	 -120.793 	 56.858 	 -33.2323
| 10> C 	 -121.812 	 57.4631 	 -34.0779
| 11> C 	 -122.959 	 57.7469 	 -33.4334
| 12> H 	 -121.732 	 57.6647 	 -35.1217
| 13> C 	 -119.418 	 56.3783 	 -33.6455
| 14> H 	 -119.056 	 55.5869 	 -32.9889
| 15> H 	 -118.741 	 57.142 	 -33.3868
| 16> C 	 -119.211 	 55.9898 	 -35.112
| 17> H 	 -119.618 	 56.7987 	 -35.7828
| 18> H 	 -118.146 	 55.9927 	 -35.3302
| 19> C 	 -119.79 	 54.5504 	 -35.4502
| 20> H 	 -119.684 	 54.302 	 -36.5201
| 21> H 	 -119.385 	 53.7291 	 -34.9395
| 22> H 	 -120.821 	 54.5586 	 -35.3718
| 23> S 	 -125.16 	 59.3895 	 -33.2235
| 24> C 	 -126.415 	 59.3007 	 -34.5121
| 25> C 	 -126.112 	 58.3659 	 -35.4426
| 26> C 	 -124.806 	 57.8061 	 -35.2903
| 27> C 	 -124.179 	 58.1934 	 -34.0917
| 28> H 	 -126.825 	 58.1354 	 -36.2133
| 29> C 	 -124.229 	 56.8102 	 -36.2603
| 30> H 	 -124.031 	 55.8631 	 -35.7404
| 31> H 	 -123.216 	 57.178 	 -36.6298
| 32> C 	 -125.124 	 56.4273 	 -37.4854
| 33> H 	 -125.435 	 57.2956 	 -38.0635
| 34> H 	 -126.064 	 56.0992 	 -37.1331
| 35> C 	 -124.448 	 55.3305 	 -38.3265
| 36> H 	 -125.161 	 55.3036 	 -39.1408
| 37> H 	 -124.422 	 54.4178 	 -37.7224
| 38> H 	 -123.422 	 55.58 	 -38.6835
| 39> H 	 -120.672 	 56.5695 	 -31.0496
| 40> H 	 -127.281 	 59.8988 	 -34.5339
| 41> *
| 42>
| 43>                          ****END OF INPUT****

CARTESIAN COORDINATES (ANGSTROEM)
---------------------------------
  S    -122.715000   57.753400  -31.720400
  C    -121.195000   56.936500  -31.897600
  C    -120.793000   56.858000  -33.232300
  C    -121.812000   57.463100  -34.077900
  C    -122.959000   57.746900  -33.433400
  H    -121.732000   57.664700  -35.121700
  C    -119.418000   56.378300  -33.645500
  H    -119.056000   55.586900  -32.988900
  H    -118.741000   57.142000  -33.386800
  C    -119.211000   55.989800  -35.112000
  H    -119.618000   56.798700  -35.782800
  H    -118.146000   55.992700  -35.330200
  C    -119.790000   54.550400  -35.450200
  H    -119.684000   54.302000  -36.520100
  H    -119.385000   53.729100  -34.939500
  H    -120.821000   54.558600  -35.371800
  S    -125.160000   59.389500  -33.223500
  C    -126.415000   59.300700  -34.512100
  C    -126.112000   58.365900  -35.442600
  C    -124.806000   57.806100  -35.290300
  C    -124.179000   58.193400  -34.091700
  H    -126.825000   58.135400  -36.213300
  C    -124.229000   56.810200  -36.260300
  H    -124.031000   55.863100  -35.740400
  H    -123.216000   57.178000  -36.629800
  C    -125.124000   56.427300  -37.485400
  H    -125.435000   57.295600  -38.063500
  H    -126.064000   56.099200  -37.133100
  C    -124.448000   55.330500  -38.326500
  H    -125.161000   55.303600  -39.140800
  H    -124.422000   54.417800  -37.722400
  H    -123.422000   55.580000  -38.683500
  H    -120.672000   56.569500  -31.049600
  H    -127.281000   59.898800  -34.533900

 Total Charge           Charge          ....    0
 Multiplicity           Mult            ....    1
 Number of Electrons    NEL             ....  134
 Basis Dimension        Dim             ....  322

ORBITAL ENERGIES
----------------

  NO   OCC          E(Eh)            E(eV)
   0   2.0000     -88.963069     -2420.8082
   1   2.0000     -88.963023     -2420.8069
   2   2.0000     -10.328733      -281.0591
   3   2.0000     -10.323258      -280.9101
   4   2.0000     -10.314961      -280.6844
   5   2.0000     -10.309282      -280.5298
   6   2.0000     -10.305302      -280.4215
   7   2.0000     -10.305150      -280.4174
   8   2.0000     -10.296873      -280.1922
   9   2.0000     -10.296504      -280.1821
  10   2.0000     -10.292453      -280.0719
  11   2.0000     -10.289506      -279.9917
  12   2.0000     -10.288794      -279.9723
  13   2.0000     -10.286438      -279.9082
  14   2.0000     -10.284297      -279.8499
  15   2.0000     -10.272025      -279.5160
  16   2.0000      -8.078653      -219.8313
  17   2.0000      -8.076851      -219.7823
  18   2.0000      -6.037176      -164.2799
  19   2.0000      -6.035487      -164.2339
  20   2.0000      -6.033230      -164.1725
  21   2.0000      -6.031533      -164.1263
  22   2.0000      -6.029163      -164.0619
  23   2.0000      -6.027519      -164.0171
  24   2.0000      -1.007398       -27.4127
  25   2.0000      -0.980886       -26.6913
  26   2.0000      -0.910168       -24.7669
  27   2.0000      -0.906562       -24.6688
  28   2.0000      -0.871574       -23.7167
  29   2.0000      -0.851678       -23.1753
  30   2.0000      -0.840682       -22.8761
  31   2.0000      -0.820748       -22.3337
  32   2.0000      -0.785657       -21.3788
  33   2.0000      -0.768465       -20.9110
  34   2.0000      -0.714626       -19.4460
  35   2.0000      -0.706273       -19.2187
  36   2.0000      -0.694323       -18.8935
  37   2.0000      -0.652828       -17.7644
  38   2.0000      -0.643761       -17.5176
  39   2.0000      -0.625687       -17.0258
  40   2.0000      -0.599657       -16.3175
  41   2.0000      -0.567443       -15.4409
  42   2.0000      -0.565576       -15.3901
  43   2.0000      -0.550966       -14.9925
  44   2.0000      -0.537843       -14.6355
  45   2.0000      -0.531854       -14.4725
  46   2.0000      -0.517030       -14.0691
  47   2.0000      -0.510360       -13.8876
  48   2.0000      -0.501473       -13.6458
  49   2.0000      -0.499904       -13.6031
  50   2.0000      -0.488859       -13.3025
  51   2.0000      -0.484856       -13.1936
  52   2.0000      -0.479422       -13.0457
  53   2.0000      -0.463563       -12.6142
  54   2.0000      -0.457585       -12.4515
  55   2.0000      -0.453871       -12.3505
  56   2.0000      -0.444571       -12.0974
  57   2.0000      -0.435429       -11.8486
  58   2.0000      -0.434412       -11.8210
  59   2.0000      -0.429677       -11.6921
  60   2.0000      -0.425739       -11.5849
  61   2.0000      -0.419613       -11.4183
  62   2.0000      -0.408817       -11.1245
  63   2.0000      -0.356036        -9.6882
  64   2.0000      -0.332255        -9.0411
  65   2.0000      -0.322936        -8.7875
  66   2.0000      -0.281785        -7.6678
  67   0.0000       0.023519         0.6400
  68   0.0000       0.075773         2.0619
  69   0.0000       0.102268         2.7829
  70   0.0000       0.125101         3.4042
  71   0.0000       0.126543         3.4434

MULLIKEN ATOMIC CHARGES
-----------------------
   0 S :    0.109014
   1 C :   -0.118780
   2 C :   -0.064629
   3 C :   -0.013335
   4 C :   -0.105880
   5 H :   -0.000348
   6 C :    0.083563
   7 H :    0.018322
   8 H :    0.028983
   9 C :   -0.090602
  10 H :    0.036375
  11 H :    0.028166
  12 C :   -0.015289
  13 H :    0.022452
  14 H :    0.026781
  15 H :    0.014839
  16 S :    0.078603
  17 C :   -0.061182
  18 C :   -0.035255
  19 C :   -0.024068
  20 C :   -0.143513
  21 H :    0.017224
  22 C :    0.007046
  23 H :    0.041997
  24 H :    0.043824
  25 C :   -0.099706
  26 H :    0.026830
  27 H :    0.016129
  28 C :   -0.019718
  29 H :    0.034948
  30 H :    0.040494
  31 H :    0.041674
  32 H :    0.037727
  33 H :    0.037312
Sum of atomic charges:    0.0000000

LOEWDIN ATOMIC CHARGES
----------------------
   0 S :    0.409742
   1 C :   -0.195366
   2 C :   -0.053052
   3 C :   -0.065274
   4 C :   -0.195980
   5 H :    0.024092
   6 C :   -0.036227
   7 H :    0.034018
   8 H :    0.031816
   9 C :   -0.038721
  10 H :    0.029065
  11 H :    0.024528
  12 C :   -0.059957
  13 H :    0.029596
  14 H :    0.019749
  15 H :    0.015564
  16 S :    0.365335
  17 C :   -0.156875
  18 C :   -0.069598
  19 C :   -0.058209
  20 C :   -0.180578
  21 H :    0.033024
  22 C :   -0.039608
  23 H :    0.035910
  24 H :    0.034209
  25 C :   -0.042011
  26 H :    0.020102
  27 H :    0.016320
  28 C :   -0.058327
  29 H :    0.029376
  30 H :    0.028203
  31 H :    0.028819
  32 H :    0.019891
  33 H :    0.020425

  Mayer bond orders larger than 0.100000
B(  0-S ,  1-C ) :   1.1367 B(  0-S ,  4-C ) :   1.1419 B(  1-C ,  2-C ) :   1.6068
B(  1-C , 32-H ) :   0.9777 B(  2-C ,  3-C ) :   1.2167 B(  2-C ,  6-C ) :   1.0172
B(  3-C ,  4-C ) :   1.5804 B(  3-C ,  5-H ) :   0.9977 B(  4-C , 20-C ) :   1.0770
B(  6-C ,  7-H ) :   0.9360 B(  6-C ,  8-H ) :   0.9305 B(  6-C ,  9-C ) :   1.0846
B(  9-C , 10-H ) :   0.9527 B(  9-C , 11-H ) :   0.9554 B(  9-C , 12-C ) :   1.0678
B( 12-C , 13-H ) :   0.9735 B( 12-C , 14-H ) :   0.9770 B( 12-C , 15-H ) :   0.9779
B( 16-S , 17-C ) :   1.1304 B( 16-S , 20-C ) :   1.1252 B( 17-C , 18-C ) :   1.6300
B( 17-C , 33-H ) :   0.9679 B( 18-C , 19-C ) :   1.2398 B( 18-C , 21-H ) :   0.9857
B( 19-C , 20-C ) :   1.5958 B( 19-C , 22-C ) :   1.0338 B( 22-C , 23-H ) :   0.9293
B( 22-C , 24-H ) :   0.9328 B( 22-C , 25-C ) :   1.0844 B( 25-C , 26-H ) :   0.9533
B( 25-C , 27-H ) :   0.9426 B( 25-C , 28-C ) :   1.0745 B( 28-C , 29-H ) :   0.9731
B( 28-C , 30-H ) :   0.9744 B( 28-C , 31-H ) :   0.9761

Dispersion correction           -0.014052939
FINAL SINGLE POINT ENERGY     -1339.873200142360

DIPOLE MOMENT
-------------
                                X             Y             Z
Electronic contribution:    -11.58718      18.70450      24.32247
Nuclear contribution   :     11.83109     -19.07480     -24.93902
                        -----------------------------------------
Total Dipole Moment    :      0.24392      -0.37030      -0.61654
                        -----------------------------------------
Magnitude (a.u.)       :      0.75944
Magnitude (Debye)      :      1.93034

Rotational constants in cm-1:     0.015456     0.010565     0.006555
Rotational constants in MHz :   463.368037   316.743895   196.507891

                             ****ORCA TERMINATED NORMALLY****
TOTAL RUN TIME: 0 days 0 hours 0 minutes 21 seconds 882 msec
