                         Program Version 4.2.1 -  RELEASE  -
|  1> ! wB97X-D3 SP def2-SVP
|  2> %pal
|  3> nprocs 24
|  4> end
|  5>
|  6> * xyz 0 1
|  7> S 	 14.322 	 -13.2193 	 -121.727
|  8> C 	 13.7666 	 -12.7177 	 -123.289
|  9> C 	 14.6042 	 -11.8198 	 -123.873
| 10> C 	 15.7077 	 -11.5145 	 -123.018
| 11> C 	 15.7211 	 -12.1673 	 -121.828
| 12> H 	 16.6308 	 -10.8956 	 -123.29
| 13> C 	 14.2897 	 -11.1855 	 -125.17
| 14> H 	 13.2415 	 -11.3793 	 -125.308
| 15> H 	 14.8639 	 -11.7735 	 -125.888
| 16> C 	 14.4828 	 -9.65089 	 -125.113
| 17> H 	 13.8691 	 -9.20915 	 -124.261
| 18> H 	 15.5422 	 -9.49511 	 -124.816
| 19> C 	 14.2594 	 -8.98218 	 -126.45
| 20> H 	 14.5401 	 -7.90639 	 -126.377
| 21> H 	 14.7014 	 -9.42306 	 -127.328
| 22> H 	 13.216 	 -8.97291 	 -126.587
| 23> S 	 15.9804 	 -11.7783 	 -119.184
| 24> C 	 17.5771 	 -11.5002 	 -118.496
| 25> C 	 18.5158 	 -11.831 	 -119.443
| 26> C 	 18.0444 	 -11.986 	 -120.77
| 27> C 	 16.6458 	 -12.0388 	 -120.736
| 28> H 	 19.5264 	 -11.8429 	 -119.12
| 29> C 	 18.9515 	 -12.2002 	 -121.956
| 30> H 	 19.9563 	 -11.8108 	 -121.578
| 31> H 	 18.6869 	 -11.5002 	 -122.69
| 32> C 	 18.9059 	 -13.6244 	 -122.464
| 33> H 	 17.9252 	 -13.8279 	 -122.825
| 34> H 	 19.1073 	 -14.2785 	 -121.633
| 35> C 	 19.9507 	 -13.7733 	 -123.556
| 36> H 	 19.8149 	 -14.7645 	 -124.078
| 37> H 	 21.0349 	 -13.5965 	 -123.326
| 38> H 	 19.6196 	 -12.9495 	 -124.301
| 39> H 	 12.8852 	 -13.0887 	 -123.738
| 40> H 	 17.8932 	 -11.347 	 -117.502
| 41> *
| 42>
| 43>                          ****END OF INPUT****

CARTESIAN COORDINATES (ANGSTROEM)
---------------------------------
  S     14.322000  -13.219300  -121.727000
  C     13.766600  -12.717700  -123.289000
  C     14.604200  -11.819800  -123.873000
  C     15.707700  -11.514500  -123.018000
  C     15.721100  -12.167300  -121.828000
  H     16.630800  -10.895600  -123.290000
  C     14.289700  -11.185500  -125.170000
  H     13.241500  -11.379300  -125.308000
  H     14.863900  -11.773500  -125.888000
  C     14.482800   -9.650890  -125.113000
  H     13.869100   -9.209150  -124.261000
  H     15.542200   -9.495110  -124.816000
  C     14.259400   -8.982180  -126.450000
  H     14.540100   -7.906390  -126.377000
  H     14.701400   -9.423060  -127.328000
  H     13.216000   -8.972910  -126.587000
  S     15.980400  -11.778300  -119.184000
  C     17.577100  -11.500200  -118.496000
  C     18.515800  -11.831000  -119.443000
  C     18.044400  -11.986000  -120.770000
  C     16.645800  -12.038800  -120.736000
  H     19.526400  -11.842900  -119.120000
  C     18.951500  -12.200200  -121.956000
  H     19.956300  -11.810800  -121.578000
  H     18.686900  -11.500200  -122.690000
  C     18.905900  -13.624400  -122.464000
  H     17.925200  -13.827900  -122.825000
  H     19.107300  -14.278500  -121.633000
  C     19.950700  -13.773300  -123.556000
  H     19.814900  -14.764500  -124.078000
  H     21.034900  -13.596500  -123.326000
  H     19.619600  -12.949500  -124.301000
  H     12.885200  -13.088700  -123.738000
  H     17.893200  -11.347000  -117.502000

 Total Charge           Charge          ....    0
 Multiplicity           Mult            ....    1
 Number of Electrons    NEL             ....  134
 Basis Dimension        Dim             ....  322

ORBITAL ENERGIES
----------------

  NO   OCC          E(Eh)            E(eV)
   0   2.0000     -88.967052     -2420.9166
   1   2.0000     -88.961365     -2420.7618
   2   2.0000     -10.323896      -280.9275
   3   2.0000     -10.321385      -280.8592
   4   2.0000     -10.309828      -280.5447
   5   2.0000     -10.304165      -280.3906
   6   2.0000     -10.299136      -280.2537
   7   2.0000     -10.294511      -280.1279
   8   2.0000     -10.293709      -280.1061
   9   2.0000     -10.293396      -280.0975
  10   2.0000     -10.291092      -280.0349
  11   2.0000     -10.289093      -279.9805
  12   2.0000     -10.287998      -279.9507
  13   2.0000     -10.286848      -279.9194
  14   2.0000     -10.280321      -279.7418
  15   2.0000     -10.274401      -279.5807
  16   2.0000      -8.082019      -219.9229
  17   2.0000      -8.076663      -219.7772
  18   2.0000      -6.040538      -164.3714
  19   2.0000      -6.036450      -164.2602
  20   2.0000      -6.035133      -164.2243
  21   2.0000      -6.032791      -164.1606
  22   2.0000      -6.031080      -164.1140
  23   2.0000      -6.027458      -164.0155
  24   2.0000      -1.013470       -27.5779
  25   2.0000      -0.989324       -26.9209
  26   2.0000      -0.917575       -24.9685
  27   2.0000      -0.916244       -24.9323
  28   2.0000      -0.875215       -23.8158
  29   2.0000      -0.852427       -23.1957
  30   2.0000      -0.847361       -23.0579
  31   2.0000      -0.820369       -22.3234
  32   2.0000      -0.780806       -21.2468
  33   2.0000      -0.767975       -20.8977
  34   2.0000      -0.714656       -19.4468
  35   2.0000      -0.699571       -19.0363
  36   2.0000      -0.690795       -18.7975
  37   2.0000      -0.662797       -18.0356
  38   2.0000      -0.642051       -17.4711
  39   2.0000      -0.619864       -16.8674
  40   2.0000      -0.596551       -16.2330
  41   2.0000      -0.568390       -15.4667
  42   2.0000      -0.567298       -15.4370
  43   2.0000      -0.562207       -15.2984
  44   2.0000      -0.530313       -14.4306
  45   2.0000      -0.526066       -14.3150
  46   2.0000      -0.518807       -14.1175
  47   2.0000      -0.515985       -14.0407
  48   2.0000      -0.505918       -13.7667
  49   2.0000      -0.503323       -13.6961
  50   2.0000      -0.492900       -13.4125
  51   2.0000      -0.483816       -13.1653
  52   2.0000      -0.470870       -12.8130
  53   2.0000      -0.464735       -12.6461
  54   2.0000      -0.460750       -12.5377
  55   2.0000      -0.451024       -12.2730
  56   2.0000      -0.442699       -12.0464
  57   2.0000      -0.440193       -11.9783
  58   2.0000      -0.434562       -11.8250
  59   2.0000      -0.422421       -11.4946
  60   2.0000      -0.419842       -11.4245
  61   2.0000      -0.414166       -11.2700
  62   2.0000      -0.409744       -11.1497
  63   2.0000      -0.352144        -9.5823
  64   2.0000      -0.331234        -9.0133
  65   2.0000      -0.327597        -8.9144
  66   2.0000      -0.288682        -7.8554
  67   0.0000       0.031970         0.8699
  68   0.0000       0.076180         2.0730
  69   0.0000       0.117236         3.1902
  70   0.0000       0.123755         3.3675
  71   0.0000       0.135867         3.6971

MULLIKEN ATOMIC CHARGES
-----------------------
   0 S :    0.099729
   1 C :   -0.113964
   2 C :   -0.104086
   3 C :   -0.014350
   4 C :   -0.158319
   5 H :    0.036008
   6 C :    0.115578
   7 H :    0.008346
   8 H :    0.041477
   9 C :   -0.138783
  10 H :    0.053595
  11 H :    0.032054
  12 C :   -0.003733
  13 H :    0.036143
  14 H :    0.032699
  15 H :    0.014242
  16 S :    0.123057
  17 C :   -0.072531
  18 C :   -0.042435
  19 C :   -0.048284
  20 C :   -0.149518
  21 H :    0.001424
  22 C :    0.076791
  23 H :    0.023374
  24 H :    0.000652
  25 C :   -0.019702
  26 H :    0.037304
  27 H :    0.027009
  28 C :   -0.082414
  29 H :    0.045853
  30 H :    0.049728
  31 H :    0.027855
  32 H :    0.028308
  33 H :    0.036890
Sum of atomic charges:   -0.0000000

LOEWDIN ATOMIC CHARGES
----------------------
   0 S :    0.398270
   1 C :   -0.196299
   2 C :   -0.067412
   3 C :   -0.078175
   4 C :   -0.192932
   5 H :    0.040465
   6 C :   -0.029688
   7 H :    0.026901
   8 H :    0.036399
   9 C :   -0.043420
  10 H :    0.039184
  11 H :    0.020893
  12 C :   -0.065489
  13 H :    0.032911
  14 H :    0.025430
  15 H :    0.018910
  16 S :    0.428058
  17 C :   -0.187757
  18 C :   -0.063919
  19 C :   -0.056469
  20 C :   -0.211759
  21 H :    0.023652
  22 C :   -0.029333
  23 H :    0.037876
  24 H :    0.017585
  25 C :   -0.033466
  26 H :    0.027990
  27 H :    0.023523
  28 C :   -0.076910
  29 H :    0.030256
  30 H :    0.029670
  31 H :    0.031738
  32 H :    0.019316
  33 H :    0.024002

  Mayer bond orders larger than 0.100000
B(  0-S ,  1-C ) :   1.1293 B(  0-S ,  4-C ) :   1.1408 B(  1-C ,  2-C ) :   1.6326
B(  1-C , 32-H ) :   0.9718 B(  2-C ,  3-C ) :   1.2226 B(  2-C ,  6-C ) :   1.0167
B(  3-C ,  4-C ) :   1.6076 B(  3-C ,  5-H ) :   0.9753 B(  4-C , 20-C ) :   1.0397
B(  6-C ,  7-H ) :   0.9397 B(  6-C ,  8-H ) :   0.9243 B(  6-C ,  9-C ) :   1.0633
B(  9-C , 10-H ) :   0.9552 B(  9-C , 11-H ) :   0.9542 B(  9-C , 12-C ) :   1.0848
B( 12-C , 13-H ) :   0.9712 B( 12-C , 14-H ) :   0.9737 B( 12-C , 15-H ) :   0.9717
B( 16-S , 17-C ) :   1.1402 B( 16-S , 20-C ) :   1.1673 B( 17-C , 18-C ) :   1.6182
B( 17-C , 20-C ) :   0.1065 B( 17-C , 33-H ) :   0.9702 B( 18-C , 19-C ) :   1.2596
B( 18-C , 21-H ) :   0.9872 B( 19-C , 20-C ) :   1.5482 B( 19-C , 22-C ) :   1.0443
B( 22-C , 23-H ) :   0.9307 B( 22-C , 24-H ) :   0.9164 B( 22-C , 25-C ) :   1.0656
B( 25-C , 26-H ) :   0.9483 B( 25-C , 27-H ) :   0.9528 B( 25-C , 28-C ) :   1.0798
B( 28-C , 29-H ) :   0.9724 B( 28-C , 30-H ) :   0.9759 B( 28-C , 31-H ) :   0.9704

Dispersion correction           -0.014279832
FINAL SINGLE POINT ENERGY     -1339.876712944310

DIPOLE MOMENT
-------------
                                X             Y             Z
Electronic contribution:    -10.47838      -6.49622      24.60554
Nuclear contribution   :     10.81949       6.65998     -25.09105
                        -----------------------------------------
Total Dipole Moment    :      0.34111       0.16377      -0.48552
                        -----------------------------------------
Magnitude (a.u.)       :      0.61555
Magnitude (Debye)      :      1.56460

Rotational constants in cm-1:     0.017491     0.008747     0.007300
Rotational constants in MHz :   524.373225   262.220972   218.841040

                             ****ORCA TERMINATED NORMALLY****
TOTAL RUN TIME: 0 days 0 hours 0 minutes 20 seconds 889 msec
