                         Program Version 4.2.1 -  RELEASE  -
|  1> ! wB97X-D3 SP def2-SVP
|  2> %pal
|  3> nprocs 24
|  4> end
|  5>
|  6> * xyz 0 1
|  7> S 	 -47.2313 	 11.0933 	 32.8668
|  8> C 	 -45.7528 	 11.4642 	 31.9904
|  9> C 	 -45.916 	 12.4812 	 31.0542
| 10> C 	 -47.2752 	 12.9286 	 31.0211
| 11> C 	 -48.0644 	 12.3739 	 32.0291
| 12> H 	 -47.8377 	 13.5388 	 30.3339
| 13> C 	 -44.8854 	 12.9931 	 30.0321
| 14> H 	 -44.0716 	 12.2454 	 30.1617
| 15> H 	 -44.4381 	 13.9617 	 30.315
| 16> C 	 -45.2518 	 12.975 	 28.5979
| 17> H 	 -46.262 	 13.3948 	 28.4584
| 18> H 	 -44.5945 	 13.6033 	 27.9576
| 19> C 	 -45.1788 	 11.5246 	 27.9868
| 20> H 	 -45.6433 	 11.4971 	 27.017
| 21> H 	 -44.1864 	 11.2337 	 27.7595
| 22> H 	 -45.6921 	 10.8314 	 28.6414
| 23> S 	 -50.5727 	 11.4417 	 31.4977
| 24> C 	 -51.9126 	 12.3477 	 31.9521
| 25> C 	 -51.585 	 13.4779 	 32.7157
| 26> C 	 -50.2433 	 13.6844 	 32.6919
| 27> C 	 -49.5265 	 12.5511 	 32.2358
| 28> H 	 -52.2838 	 14.1155 	 33.1712
| 29> C 	 -49.5975 	 14.8186 	 33.4246
| 30> H 	 -48.4857 	 14.767 	 33.4226
| 31> H 	 -49.8964 	 14.7084 	 34.4475
| 32> C 	 -49.9486 	 16.2476 	 33.06
| 33> H 	 -49.5995 	 16.9655 	 33.7716
| 34> H 	 -50.9912 	 16.3635 	 33.2847
| 35> C 	 -49.5588 	 16.7708 	 31.62
| 36> H 	 -48.489 	 16.6704 	 31.4182
| 37> H 	 -49.8498 	 17.7755 	 31.384
| 38> H 	 -50.0076 	 15.9661 	 30.9484
| 39> H 	 -44.8373 	 10.8669 	 31.9581
| 40> H 	 -52.8873 	 11.9192 	 31.8736
| 41> *
| 42>
| 43>                          ****END OF INPUT****

CARTESIAN COORDINATES (ANGSTROEM)
---------------------------------
  S    -47.231300   11.093300   32.866800
  C    -45.752800   11.464200   31.990400
  C    -45.916000   12.481200   31.054200
  C    -47.275200   12.928600   31.021100
  C    -48.064400   12.373900   32.029100
  H    -47.837700   13.538800   30.333900
  C    -44.885400   12.993100   30.032100
  H    -44.071600   12.245400   30.161700
  H    -44.438100   13.961700   30.315000
  C    -45.251800   12.975000   28.597900
  H    -46.262000   13.394800   28.458400
  H    -44.594500   13.603300   27.957600
  C    -45.178800   11.524600   27.986800
  H    -45.643300   11.497100   27.017000
  H    -44.186400   11.233700   27.759500
  H    -45.692100   10.831400   28.641400
  S    -50.572700   11.441700   31.497700
  C    -51.912600   12.347700   31.952100
  C    -51.585000   13.477900   32.715700
  C    -50.243300   13.684400   32.691900
  C    -49.526500   12.551100   32.235800
  H    -52.283800   14.115500   33.171200
  C    -49.597500   14.818600   33.424600
  H    -48.485700   14.767000   33.422600
  H    -49.896400   14.708400   34.447500
  C    -49.948600   16.247600   33.060000
  H    -49.599500   16.965500   33.771600
  H    -50.991200   16.363500   33.284700
  C    -49.558800   16.770800   31.620000
  H    -48.489000   16.670400   31.418200
  H    -49.849800   17.775500   31.384000
  H    -50.007600   15.966100   30.948400
  H    -44.837300   10.866900   31.958100
  H    -52.887300   11.919200   31.873600

 Total Charge           Charge          ....    0
 Multiplicity           Mult            ....    1
 Number of Electrons    NEL             ....  134
 Basis Dimension        Dim             ....  322

ORBITAL ENERGIES
----------------

  NO   OCC          E(Eh)            E(eV)
   0   2.0000     -88.969690     -2420.9883
   1   2.0000     -88.968345     -2420.9517
   2   2.0000     -10.327023      -281.0126
   3   2.0000     -10.319975      -280.8208
   4   2.0000     -10.316780      -280.7339
   5   2.0000     -10.311140      -280.5804
   6   2.0000     -10.305645      -280.4309
   7   2.0000     -10.297232      -280.2019
   8   2.0000     -10.294132      -280.1176
   9   2.0000     -10.293196      -280.0921
  10   2.0000     -10.289272      -279.9853
  11   2.0000     -10.286907      -279.9210
  12   2.0000     -10.285605      -279.8856
  13   2.0000     -10.281398      -279.7711
  14   2.0000     -10.281034      -279.7612
  15   2.0000     -10.271419      -279.4995
  16   2.0000      -8.086477      -220.0442
  17   2.0000      -8.082823      -219.9448
  18   2.0000      -6.044478      -164.4786
  19   2.0000      -6.041278      -164.3915
  20   2.0000      -6.040497      -164.3703
  21   2.0000      -6.037862      -164.2986
  22   2.0000      -6.037345      -164.2845
  23   2.0000      -6.033681      -164.1848
  24   2.0000      -1.017239       -27.6805
  25   2.0000      -0.988170       -26.8895
  26   2.0000      -0.913324       -24.8528
  27   2.0000      -0.911603       -24.8060
  28   2.0000      -0.866513       -23.5790
  29   2.0000      -0.853357       -23.2210
  30   2.0000      -0.843435       -22.9510
  31   2.0000      -0.810137       -22.0450
  32   2.0000      -0.785481       -21.3740
  33   2.0000      -0.775275       -21.0963
  34   2.0000      -0.708539       -19.2803
  35   2.0000      -0.700187       -19.0530
  36   2.0000      -0.688273       -18.7289
  37   2.0000      -0.662743       -18.0341
  38   2.0000      -0.641462       -17.4551
  39   2.0000      -0.617709       -16.8087
  40   2.0000      -0.601425       -16.3656
  41   2.0000      -0.570140       -15.5143
  42   2.0000      -0.558263       -15.1911
  43   2.0000      -0.555030       -15.1031
  44   2.0000      -0.537787       -14.6339
  45   2.0000      -0.534218       -14.5368
  46   2.0000      -0.512929       -13.9575
  47   2.0000      -0.508536       -13.8380
  48   2.0000      -0.501074       -13.6349
  49   2.0000      -0.494731       -13.4623
  50   2.0000      -0.487155       -13.2562
  51   2.0000      -0.472773       -12.8648
  52   2.0000      -0.471971       -12.8430
  53   2.0000      -0.465557       -12.6685
  54   2.0000      -0.461793       -12.5660
  55   2.0000      -0.456959       -12.4345
  56   2.0000      -0.449407       -12.2290
  57   2.0000      -0.443902       -12.0792
  58   2.0000      -0.436304       -11.8724
  59   2.0000      -0.420683       -11.4474
  60   2.0000      -0.419059       -11.4032
  61   2.0000      -0.414272       -11.2729
  62   2.0000      -0.404010       -10.9937
  63   2.0000      -0.342808        -9.3283
  64   2.0000      -0.331229        -9.0132
  65   2.0000      -0.321668        -8.7530
  66   2.0000      -0.303267        -8.2523
  67   0.0000       0.039042         1.0624
  68   0.0000       0.058833         1.6009
  69   0.0000       0.112085         3.0500
  70   0.0000       0.123549         3.3619
  71   0.0000       0.129555         3.5254

MULLIKEN ATOMIC CHARGES
-----------------------
   0 S :    0.117199
   1 C :   -0.112297
   2 C :   -0.100911
   3 C :    0.048592
   4 C :   -0.195318
   5 H :    0.012692
   6 C :    0.080034
   7 H :    0.008253
   8 H :    0.047554
   9 C :   -0.090678
  10 H :    0.034496
  11 H :    0.031758
  12 C :   -0.042814
  13 H :    0.023047
  14 H :    0.022661
  15 H :    0.040559
  16 S :    0.152826
  17 C :   -0.092507
  18 C :   -0.014157
  19 C :   -0.005831
  20 C :   -0.184980
  21 H :    0.002769
  22 C :    0.043483
  23 H :    0.036728
  24 H :    0.029851
  25 C :   -0.062637
  26 H :    0.013790
  27 H :    0.002633
  28 C :   -0.061010
  29 H :    0.029780
  30 H :    0.041539
  31 H :    0.041169
  32 H :    0.051512
  33 H :    0.050213
Sum of atomic charges:   -0.0000000

LOEWDIN ATOMIC CHARGES
----------------------
   0 S :    0.410689
   1 C :   -0.202793
   2 C :   -0.061914
   3 C :   -0.061766
   4 C :   -0.201894
   5 H :    0.030646
   6 C :   -0.036725
   7 H :    0.030168
   8 H :    0.036622
   9 C :   -0.044277
  10 H :    0.023208
  11 H :    0.029176
  12 C :   -0.059683
  13 H :    0.024477
  14 H :    0.018941
  15 H :    0.025384
  16 S :    0.481446
  17 C :   -0.203638
  18 C :   -0.062009
  19 C :   -0.056786
  20 C :   -0.238129
  21 H :    0.025665
  22 C :   -0.032278
  23 H :    0.034258
  24 H :    0.036612
  25 C :   -0.045304
  26 H :    0.021163
  27 H :    0.015728
  28 C :   -0.069589
  29 H :    0.024132
  30 H :    0.023303
  31 H :    0.033660
  32 H :    0.031405
  33 H :    0.020101

  Mayer bond orders larger than 0.100000
B(  0-S ,  1-C ) :   1.1434 B(  0-S ,  4-C ) :   1.1594 B(  1-C ,  2-C ) :   1.6266
B(  1-C , 32-H ) :   0.9573 B(  2-C ,  3-C ) :   1.2155 B(  2-C ,  6-C ) :   1.0117
B(  3-C ,  4-C ) :   1.6019 B(  3-C ,  5-H ) :   0.9925 B(  4-C , 20-C ) :   0.9833
B(  6-C ,  7-H ) :   0.9403 B(  6-C ,  8-H ) :   0.9367 B(  6-C ,  9-C ) :   1.0741
B(  9-C , 10-H ) :   0.9571 B(  9-C , 11-H ) :   0.9524 B(  9-C , 12-C ) :   1.0747
B( 12-C , 13-H ) :   0.9732 B( 12-C , 14-H ) :   0.9742 B( 12-C , 15-H ) :   0.9810
B( 16-S , 17-C ) :   1.2242 B( 16-S , 20-C ) :   1.2024 B( 17-C , 18-C ) :   1.5054
B( 17-C , 20-C ) :   0.1176 B( 17-C , 33-H ) :   0.9691 B( 18-C , 19-C ) :   1.3186
B( 18-C , 21-H ) :   1.0020 B( 19-C , 20-C ) :   1.5055 B( 19-C , 22-C ) :   1.0486
B( 22-C , 23-H ) :   0.9395 B( 22-C , 24-H ) :   0.9327 B( 22-C , 25-C ) :   1.0847
B( 25-C , 26-H ) :   0.9492 B( 25-C , 27-H ) :   0.9503 B( 25-C , 28-C ) :   1.0599
B( 28-C , 29-H ) :   0.9757 B( 28-C , 30-H ) :   0.9763 B( 28-C , 31-H ) :   0.9770

Dispersion correction           -0.014694935
FINAL SINGLE POINT ENERGY     -1339.868067449070

DIPOLE MOMENT
-------------
                                X             Y             Z
Electronic contribution:     -9.54851     -17.80019      11.58387
Nuclear contribution   :      9.55120      18.11778     -11.79696
                        -----------------------------------------
Total Dipole Moment    :      0.00269       0.31760      -0.21310
                        -----------------------------------------
Magnitude (a.u.)       :      0.38247
Magnitude (Debye)      :      0.97217

Rotational constants in cm-1:     0.018620     0.008636     0.007467
Rotational constants in MHz :   558.217183   258.910787   223.843610

                             ****ORCA TERMINATED NORMALLY****
TOTAL RUN TIME: 0 days 0 hours 0 minutes 21 seconds 871 msec
