                         Program Version 4.2.1 -  RELEASE  -
|  1> ! wB97X-D3 SP def2-SVP
|  2> %pal
|  3> nprocs 24
|  4> end
|  5>
|  6> * xyz 0 1
|  7> S 	 -32.9735 	 18.656 	 5.22247
|  8> C 	 -33.5089 	 17.1914 	 4.42114
|  9> C 	 -32.6806 	 16.1481 	 4.60035
| 10> C 	 -31.4872 	 16.6026 	 5.29322
| 11> C 	 -31.4483 	 17.8904 	 5.68349
| 12> H 	 -30.6556 	 16.0224 	 5.52694
| 13> C 	 -32.9034 	 14.7411 	 4.18775
| 14> H 	 -33.1171 	 14.8781 	 3.10093
| 15> H 	 -33.8309 	 14.3845 	 4.68718
| 16> C 	 -31.7862 	 13.786 	 4.37694
| 17> H 	 -30.8014 	 14.2055 	 4.04863
| 18> H 	 -31.5839 	 13.6761 	 5.49734
| 19> C 	 -32.016 	 12.3152 	 3.90436
| 20> H 	 -31.1826 	 11.7306 	 3.74008
| 21> H 	 -32.667 	 11.726 	 4.57665
| 22> H 	 -32.4981 	 12.3446 	 2.91245
| 23> S 	 -30.6464 	 19.549 	 7.77794
| 24> C 	 -28.9574 	 19.9821 	 8.00288
| 25> C 	 -28.1307 	 19.285 	 7.1032
| 26> C 	 -28.8895 	 18.4659 	 6.18496
| 27> C 	 -30.2945 	 18.5337 	 6.39282
| 28> H 	 -27.0384 	 19.392 	 7.14896
| 29> C 	 -28.1 	 17.7689 	 5.13846
| 30> H 	 -27.1819 	 18.3964 	 4.99878
| 31> H 	 -28.6525 	 17.7464 	 4.23364
| 32> C 	 -27.6751 	 16.38 	 5.56902
| 33> H 	 -28.4512 	 15.7805 	 6.09306
| 34> H 	 -26.9333 	 16.6646 	 6.29427
| 35> C 	 -27.0886 	 15.5825 	 4.39586
| 36> H 	 -26.538 	 14.7369 	 4.85092
| 37> H 	 -26.293 	 16.0687 	 3.79902
| 38> H 	 -27.8697 	 15.2137 	 3.69572
| 39> H 	 -34.5083 	 17.1043 	 3.96552
| 40> H 	 -28.585 	 20.6168 	 8.74566
| 41> *
| 42>
| 43>                          ****END OF INPUT****

CARTESIAN COORDINATES (ANGSTROEM)
---------------------------------
  S    -32.973500   18.656000    5.222470
  C    -33.508900   17.191400    4.421140
  C    -32.680600   16.148100    4.600350
  C    -31.487200   16.602600    5.293220
  C    -31.448300   17.890400    5.683490
  H    -30.655600   16.022400    5.526940
  C    -32.903400   14.741100    4.187750
  H    -33.117100   14.878100    3.100930
  H    -33.830900   14.384500    4.687180
  C    -31.786200   13.786000    4.376940
  H    -30.801400   14.205500    4.048630
  H    -31.583900   13.676100    5.497340
  C    -32.016000   12.315200    3.904360
  H    -31.182600   11.730600    3.740080
  H    -32.667000   11.726000    4.576650
  H    -32.498100   12.344600    2.912450
  S    -30.646400   19.549000    7.777940
  C    -28.957400   19.982100    8.002880
  C    -28.130700   19.285000    7.103200
  C    -28.889500   18.465900    6.184960
  C    -30.294500   18.533700    6.392820
  H    -27.038400   19.392000    7.148960
  C    -28.100000   17.768900    5.138460
  H    -27.181900   18.396400    4.998780
  H    -28.652500   17.746400    4.233640
  C    -27.675100   16.380000    5.569020
  H    -28.451200   15.780500    6.093060
  H    -26.933300   16.664600    6.294270
  C    -27.088600   15.582500    4.395860
  H    -26.538000   14.736900    4.850920
  H    -26.293000   16.068700    3.799020
  H    -27.869700   15.213700    3.695720
  H    -34.508300   17.104300    3.965520
  H    -28.585000   20.616800    8.745660

 Total Charge           Charge          ....    0
 Multiplicity           Mult            ....    1
 Number of Electrons    NEL             ....  134
 Basis Dimension        Dim             ....  322

ORBITAL ENERGIES
----------------

  NO   OCC          E(Eh)            E(eV)
   0   2.0000     -88.967218     -2420.9211
   1   2.0000     -88.963336     -2420.8154
   2   2.0000     -10.334614      -281.2191
   3   2.0000     -10.329364      -281.0763
   4   2.0000     -10.317514      -280.7538
   5   2.0000     -10.311471      -280.5894
   6   2.0000     -10.305944      -280.4390
   7   2.0000     -10.299114      -280.2531
   8   2.0000     -10.298597      -280.2391
   9   2.0000     -10.298179      -280.2277
  10   2.0000     -10.296859      -280.1918
  11   2.0000     -10.287910      -279.9483
  12   2.0000     -10.285520      -279.8832
  13   2.0000     -10.285277      -279.8766
  14   2.0000     -10.284813      -279.8640
  15   2.0000     -10.281043      -279.7614
  16   2.0000      -8.081504      -219.9089
  17   2.0000      -8.077880      -219.8103
  18   2.0000      -6.039989      -164.3564
  19   2.0000      -6.036569      -164.2634
  20   2.0000      -6.035986      -164.2475
  21   2.0000      -6.032507      -164.1529
  22   2.0000      -6.032421      -164.1505
  23   2.0000      -6.028364      -164.0401
  24   2.0000      -1.003848       -27.3161
  25   2.0000      -0.982883       -26.7456
  26   2.0000      -0.918655       -24.9979
  27   2.0000      -0.915653       -24.9162
  28   2.0000      -0.869124       -23.6501
  29   2.0000      -0.849814       -23.1246
  30   2.0000      -0.844861       -22.9898
  31   2.0000      -0.817701       -22.2508
  32   2.0000      -0.784704       -21.3529
  33   2.0000      -0.772825       -21.0296
  34   2.0000      -0.712927       -19.3997
  35   2.0000      -0.699098       -19.0234
  36   2.0000      -0.688074       -18.7235
  37   2.0000      -0.662283       -18.0216
  38   2.0000      -0.642543       -17.4845
  39   2.0000      -0.622917       -16.9504
  40   2.0000      -0.596090       -16.2204
  41   2.0000      -0.573775       -15.6132
  42   2.0000      -0.571136       -15.5414
  43   2.0000      -0.566620       -15.4185
  44   2.0000      -0.526382       -14.3236
  45   2.0000      -0.520992       -14.1769
  46   2.0000      -0.514175       -13.9914
  47   2.0000      -0.512168       -13.9368
  48   2.0000      -0.508273       -13.8308
  49   2.0000      -0.498914       -13.5761
  50   2.0000      -0.496699       -13.5159
  51   2.0000      -0.484040       -13.1714
  52   2.0000      -0.472561       -12.8590
  53   2.0000      -0.466696       -12.6994
  54   2.0000      -0.460510       -12.5311
  55   2.0000      -0.452868       -12.3232
  56   2.0000      -0.446029       -12.1371
  57   2.0000      -0.439460       -11.9583
  58   2.0000      -0.433465       -11.7952
  59   2.0000      -0.423744       -11.5307
  60   2.0000      -0.421087       -11.4584
  61   2.0000      -0.414384       -11.2760
  62   2.0000      -0.410300       -11.1648
  63   2.0000      -0.350268        -9.5313
  64   2.0000      -0.328892        -8.9496
  65   2.0000      -0.327316        -8.9067
  66   2.0000      -0.291810        -7.9405
  67   0.0000       0.030681         0.8349
  68   0.0000       0.074043         2.0148
  69   0.0000       0.111627         3.0375
  70   0.0000       0.119746         3.2585
  71   0.0000       0.129258         3.5173

MULLIKEN ATOMIC CHARGES
-----------------------
   0 S :    0.103575
   1 C :   -0.151859
   2 C :   -0.066685
   3 C :    0.025400
   4 C :   -0.097310
   5 H :   -0.053443
   6 C :    0.089660
   7 H :    0.040964
   8 H :    0.047381
   9 C :   -0.141884
  10 H :    0.038524
  11 H :    0.038415
  12 C :   -0.001992
  13 H :    0.017504
  14 H :    0.037026
  15 H :    0.022494
  16 S :    0.105012
  17 C :   -0.072165
  18 C :   -0.052467
  19 C :   -0.052345
  20 C :   -0.157226
  21 H :    0.032871
  22 C :    0.066068
  23 H :    0.030610
  24 H :    0.017749
  25 C :   -0.082765
  26 H :    0.051727
  27 H :    0.013889
  28 C :   -0.053228
  29 H :    0.034898
  30 H :    0.031950
  31 H :    0.047263
  32 H :    0.051279
  33 H :    0.039110
Sum of atomic charges:    0.0000000

LOEWDIN ATOMIC CHARGES
----------------------
   0 S :    0.386728
   1 C :   -0.192894
   2 C :   -0.064634
   3 C :   -0.061031
   4 C :   -0.186282
   5 H :    0.014620
   6 C :   -0.041258
   7 H :    0.042573
   8 H :    0.041793
   9 C :   -0.054699
  10 H :    0.027198
  11 H :    0.031665
  12 C :   -0.061133
  13 H :    0.017301
  14 H :    0.030067
  15 H :    0.026875
  16 S :    0.407488
  17 C :   -0.176243
  18 C :   -0.072889
  19 C :   -0.053002
  20 C :   -0.197712
  21 H :    0.035425
  22 C :   -0.033462
  23 H :    0.037496
  24 H :    0.021559
  25 C :   -0.041308
  26 H :    0.027640
  27 H :    0.022998
  28 C :   -0.072650
  29 H :    0.029767
  30 H :    0.027527
  31 H :    0.029000
  32 H :    0.033165
  33 H :    0.018312

  Mayer bond orders larger than 0.100000
B(  0-S ,  1-C ) :   1.1273 B(  0-S ,  4-C ) :   1.1234 B(  1-C ,  2-C ) :   1.6562
B(  1-C , 32-H ) :   0.9654 B(  2-C ,  3-C ) :   1.2073 B(  2-C ,  6-C ) :   0.9985
B(  3-C ,  4-C ) :   1.6070 B(  3-C ,  5-H ) :   1.0079 B(  4-C , 20-C ) :   1.0240
B(  6-C ,  7-H ) :   0.9259 B(  6-C ,  8-H ) :   0.9301 B(  6-C ,  9-C ) :   1.1057
B(  9-C , 10-H ) :   0.9479 B(  9-C , 11-H ) :   0.9448 B(  9-C , 12-C ) :   1.0700
B( 12-C , 13-H ) :   0.9736 B( 12-C , 14-H ) :   0.9756 B( 12-C , 15-H ) :   0.9744
B( 16-S , 17-C ) :   1.1638 B( 16-S , 20-C ) :   1.1441 B( 17-C , 18-C ) :   1.5923
B( 17-C , 20-C ) :   0.1020 B( 17-C , 33-H ) :   0.9747 B( 18-C , 19-C ) :   1.2581
B( 18-C , 21-H ) :   0.9819 B( 19-C , 20-C ) :   1.5694 B( 19-C , 22-C ) :   1.0497
B( 22-C , 23-H ) :   0.9370 B( 22-C , 24-H ) :   0.9346 B( 22-C , 25-C ) :   1.0469
B( 25-C , 26-H ) :   0.9542 B( 25-C , 27-H ) :   0.9508 B( 25-C , 28-C ) :   1.0825
B( 28-C , 29-H ) :   0.9732 B( 28-C , 30-H ) :   0.9710 B( 28-C , 31-H ) :   0.9739

Dispersion correction           -0.014360825
FINAL SINGLE POINT ENERGY     -1339.876127090923

DIPOLE MOMENT
-------------
                                X             Y             Z
Electronic contribution:    -12.88344      27.87677      12.40457
Nuclear contribution   :     13.31626     -28.52847     -12.60707
                        -----------------------------------------
Total Dipole Moment    :      0.43282      -0.65170      -0.20250
                        -----------------------------------------
Magnitude (a.u.)       :      0.80812
Magnitude (Debye)      :      2.05407

Rotational constants in cm-1:     0.016722     0.009688     0.006641
Rotational constants in MHz :   501.321637   290.425646   199.086754

                             ****ORCA TERMINATED NORMALLY****
TOTAL RUN TIME: 0 days 0 hours 0 minutes 21 seconds 977 msec
