                         Program Version 4.2.1 -  RELEASE  -
|  1> ! wB97X-D3 SP def2-SVP
|  2> %pal
|  3> nprocs 24
|  4> end
|  5>
|  6> * xyz 0 1
|  7> S 	 -105.273 	 26.4646 	 -119.805
|  8> C 	 -104.986 	 28.2284 	 -119.8
|  9> C 	 -106.136 	 28.9733 	 -119.561
| 10> C 	 -107.254 	 28.1378 	 -119.288
| 11> C 	 -106.973 	 26.7754 	 -119.426
| 12> H 	 -108.239 	 28.3952 	 -118.943
| 13> C 	 -106.208 	 30.4615 	 -119.358
| 14> H 	 -107.218 	 30.7266 	 -119.503
| 15> H 	 -105.652 	 30.98 	 -120.138
| 16> C 	 -105.751 	 30.9136 	 -117.924
| 17> H 	 -104.692 	 30.6377 	 -117.98
| 18> H 	 -105.853 	 31.9372 	 -117.765
| 19> C 	 -106.455 	 30.2601 	 -116.742
| 20> H 	 -106.159 	 29.2225 	 -116.604
| 21> H 	 -106.232 	 30.7629 	 -115.795
| 22> H 	 -107.523 	 30.2743 	 -116.877
| 23> S 	 -107.797 	 24.5285 	 -120.685
| 24> C 	 -109.166 	 23.598 	 -120.178
| 25> C 	 -109.702 	 24.1742 	 -119.044
| 26> C 	 -108.918 	 25.2735 	 -118.563
| 27> C 	 -107.87 	 25.6819 	 -119.399
| 28> H 	 -110.519 	 23.767 	 -118.474
| 29> C 	 -109.285 	 26.0406 	 -117.361
| 30> H 	 -110.383 	 26.0796 	 -117.184
| 31> H 	 -108.988 	 27.0807 	 -117.504
| 32> C 	 -108.685 	 25.5031 	 -116.048
| 33> H 	 -109.011 	 24.4395 	 -115.833
| 34> H 	 -109.123 	 26.0446 	 -115.238
| 35> C 	 -107.168 	 25.5102 	 -116.044
| 36> H 	 -106.735 	 24.8007 	 -115.286
| 37> H 	 -106.706 	 26.5417 	 -115.95
| 38> H 	 -106.783 	 25.2636 	 -117.017
| 39> H 	 -103.999 	 28.6726 	 -120.058
| 40> H 	 -109.564 	 22.7076 	 -120.552
| 41> *
| 42>
| 43>                          ****END OF INPUT****

CARTESIAN COORDINATES (ANGSTROEM)
---------------------------------
  S    -105.273000   26.464600  -119.805000
  C    -104.986000   28.228400  -119.800000
  C    -106.136000   28.973300  -119.561000
  C    -107.254000   28.137800  -119.288000
  C    -106.973000   26.775400  -119.426000
  H    -108.239000   28.395200  -118.943000
  C    -106.208000   30.461500  -119.358000
  H    -107.218000   30.726600  -119.503000
  H    -105.652000   30.980000  -120.138000
  C    -105.751000   30.913600  -117.924000
  H    -104.692000   30.637700  -117.980000
  H    -105.853000   31.937200  -117.765000
  C    -106.455000   30.260100  -116.742000
  H    -106.159000   29.222500  -116.604000
  H    -106.232000   30.762900  -115.795000
  H    -107.523000   30.274300  -116.877000
  S    -107.797000   24.528500  -120.685000
  C    -109.166000   23.598000  -120.178000
  C    -109.702000   24.174200  -119.044000
  C    -108.918000   25.273500  -118.563000
  C    -107.870000   25.681900  -119.399000
  H    -110.519000   23.767000  -118.474000
  C    -109.285000   26.040600  -117.361000
  H    -110.383000   26.079600  -117.184000
  H    -108.988000   27.080700  -117.504000
  C    -108.685000   25.503100  -116.048000
  H    -109.011000   24.439500  -115.833000
  H    -109.123000   26.044600  -115.238000
  C    -107.168000   25.510200  -116.044000
  H    -106.735000   24.800700  -115.286000
  H    -106.706000   26.541700  -115.950000
  H    -106.783000   25.263600  -117.017000
  H    -103.999000   28.672600  -120.058000
  H    -109.564000   22.707600  -120.552000

 Total Charge           Charge          ....    0
 Multiplicity           Mult            ....    1
 Number of Electrons    NEL             ....  134
 Basis Dimension        Dim             ....  322

ORBITAL ENERGIES
----------------

  NO   OCC          E(Eh)            E(eV)
   0   2.0000     -88.972384     -2421.0616
   1   2.0000     -88.964034     -2420.8344
   2   2.0000     -10.332943      -281.1737
   3   2.0000     -10.323454      -280.9155
   4   2.0000     -10.322693      -280.8947
   5   2.0000     -10.313927      -280.6562
   6   2.0000     -10.305642      -280.4308
   7   2.0000     -10.298948      -280.2486
   8   2.0000     -10.298773      -280.2439
   9   2.0000     -10.292427      -280.0712
  10   2.0000     -10.291436      -280.0442
  11   2.0000     -10.287285      -279.9312
  12   2.0000     -10.285494      -279.8825
  13   2.0000     -10.283773      -279.8357
  14   2.0000     -10.276093      -279.6267
  15   2.0000     -10.272444      -279.5274
  16   2.0000      -8.086002      -220.0313
  17   2.0000      -8.079338      -219.8500
  18   2.0000      -6.044516      -164.4796
  19   2.0000      -6.040736      -164.3768
  20   2.0000      -6.037866      -164.2987
  21   2.0000      -6.036737      -164.2680
  22   2.0000      -6.033480      -164.1793
  23   2.0000      -6.030293      -164.0926
  24   2.0000      -1.011687       -27.5294
  25   2.0000      -0.983982       -26.7755
  26   2.0000      -0.914785       -24.8926
  27   2.0000      -0.910638       -24.7797
  28   2.0000      -0.874070       -23.7847
  29   2.0000      -0.851216       -23.1628
  30   2.0000      -0.842099       -22.9147
  31   2.0000      -0.817138       -22.2355
  32   2.0000      -0.785658       -21.3788
  33   2.0000      -0.770252       -20.9596
  34   2.0000      -0.709657       -19.3107
  35   2.0000      -0.707374       -19.2486
  36   2.0000      -0.695838       -18.9347
  37   2.0000      -0.662878       -18.0378
  38   2.0000      -0.642632       -17.4869
  39   2.0000      -0.616763       -16.7830
  40   2.0000      -0.595448       -16.2030
  41   2.0000      -0.580069       -15.7845
  42   2.0000      -0.554171       -15.0798
  43   2.0000      -0.549019       -14.9396
  44   2.0000      -0.546927       -14.8826
  45   2.0000      -0.533671       -14.5219
  46   2.0000      -0.518955       -14.1215
  47   2.0000      -0.515625       -14.0309
  48   2.0000      -0.504912       -13.7394
  49   2.0000      -0.500545       -13.6205
  50   2.0000      -0.492114       -13.3911
  51   2.0000      -0.480498       -13.0750
  52   2.0000      -0.468933       -12.7603
  53   2.0000      -0.463643       -12.6164
  54   2.0000      -0.461625       -12.5614
  55   2.0000      -0.447055       -12.1650
  56   2.0000      -0.444333       -12.0909
  57   2.0000      -0.439229       -11.9520
  58   2.0000      -0.429740       -11.6938
  59   2.0000      -0.428334       -11.6556
  60   2.0000      -0.420029       -11.4296
  61   2.0000      -0.413488       -11.2516
  62   2.0000      -0.404727       -11.0132
  63   2.0000      -0.350704        -9.5432
  64   2.0000      -0.336202        -9.1485
  65   2.0000      -0.327304        -8.9064
  66   2.0000      -0.288304        -7.8452
  67   0.0000       0.021489         0.5848
  68   0.0000       0.069080         1.8798
  69   0.0000       0.103182         2.8077
  70   0.0000       0.114778         3.1233
  71   0.0000       0.127963         3.4821

MULLIKEN ATOMIC CHARGES
-----------------------
   0 S :    0.116136
   1 C :   -0.141992
   2 C :   -0.083078
   3 C :    0.037182
   4 C :   -0.172701
   5 H :    0.014591
   6 C :    0.090304
   7 H :    0.005388
   8 H :    0.030522
   9 C :   -0.046100
  10 H :    0.025479
  11 H :    0.024216
  12 C :   -0.058524
  13 H :    0.044669
  14 H :    0.035913
  15 H :    0.022163
  16 S :    0.107964
  17 C :   -0.053405
  18 C :   -0.023481
  19 C :   -0.052866
  20 C :   -0.140620
  21 H :    0.014885
  22 C :    0.035209
  23 H :    0.027055
  24 H :    0.006272
  25 C :   -0.046295
  26 H :    0.024293
  27 H :    0.020600
  28 C :   -0.062104
  29 H :    0.043544
  30 H :    0.031854
  31 H :    0.025084
  32 H :    0.062323
  33 H :    0.035521
Sum of atomic charges:   -0.0000000

LOEWDIN ATOMIC CHARGES
----------------------
   0 S :    0.391186
   1 C :   -0.191128
   2 C :   -0.060488
   3 C :   -0.053030
   4 C :   -0.185524
   5 H :    0.028522
   6 C :   -0.025613
   7 H :    0.020024
   8 H :    0.033418
   9 C :   -0.029732
  10 H :    0.025446
  11 H :    0.016256
  12 C :   -0.065349
  13 H :    0.026469
  14 H :    0.030216
  15 H :    0.020467
  16 S :    0.427947
  17 C :   -0.183907
  18 C :   -0.066542
  19 C :   -0.062367
  20 C :   -0.215456
  21 H :    0.029815
  22 C :   -0.038944
  23 H :    0.034349
  24 H :    0.026039
  25 C :   -0.039685
  26 H :    0.027316
  27 H :    0.018065
  28 C :   -0.076838
  29 H :    0.031703
  30 H :    0.029675
  31 H :    0.020613
  32 H :    0.033848
  33 H :    0.023228

  Mayer bond orders larger than 0.100000
B(  0-S ,  1-C ) :   1.1287 B(  0-S ,  4-C ) :   1.1396 B(  1-C ,  2-C ) :   1.6099
B(  1-C ,  4-C ) :   0.1047 B(  1-C , 32-H ) :   0.9624 B(  2-C ,  3-C ) :   1.2320
B(  2-C ,  6-C ) :   1.0313 B(  3-C ,  4-C ) :   1.5722 B(  3-C ,  5-H ) :   0.9860
B(  4-C , 20-C ) :   1.0769 B(  6-C ,  7-H ) :   0.9345 B(  6-C ,  8-H ) :   0.9396
B(  6-C ,  9-C ) :   1.0626 B(  9-C , 10-H ) :   0.9572 B(  9-C , 11-H ) :   0.9603
B(  9-C , 12-C ) :   1.0825 B( 12-C , 13-H ) :   0.9709 B( 12-C , 14-H ) :   0.9720
B( 12-C , 15-H ) :   0.9737 B( 16-S , 17-C ) :   1.1661 B( 16-S , 20-C ) :   1.1374
B( 17-C , 18-C ) :   1.5679 B( 17-C , 20-C ) :   0.1011 B( 17-C , 33-H ) :   0.9760
B( 18-C , 19-C ) :   1.2846 B( 18-C , 21-H ) :   0.9881 B( 19-C , 20-C ) :   1.5367
B( 19-C , 22-C ) :   1.0607 B( 22-C , 23-H ) :   0.9332 B( 22-C , 24-H ) :   0.9344
B( 22-C , 25-C ) :   1.0752 B( 25-C , 26-H ) :   0.9558 B( 25-C , 27-H ) :   0.9546
B( 25-C , 28-C ) :   1.0698 B( 28-C , 29-H ) :   0.9727 B( 28-C , 30-H ) :   0.9703
B( 28-C , 31-H ) :   0.9721

Dispersion correction           -0.016421196
FINAL SINGLE POINT ENERGY     -1339.885334371394

DIPOLE MOMENT
-------------
                                X             Y             Z
Electronic contribution:      2.87890     -15.64581     -21.22197
Nuclear contribution   :     -3.16083      16.06530      21.59464
                        -----------------------------------------
Total Dipole Moment    :     -0.28193       0.41949       0.37266
                        -----------------------------------------
Magnitude (a.u.)       :      0.62796
Magnitude (Debye)      :      1.59614

Rotational constants in cm-1:     0.021185     0.009834     0.007864
Rotational constants in MHz :   635.120352   294.826238   235.759502

                             ****ORCA TERMINATED NORMALLY****
TOTAL RUN TIME: 0 days 0 hours 0 minutes 23 seconds 604 msec
