                         Program Version 4.2.1 -  RELEASE  -
|  1> ! wB97X-D3 SP def2-SVP
|  2> %pal
|  3> nprocs 24
|  4> end
|  5>
|  6> * xyz 0 1
|  7> S 	 -104.798 	 2.60324 	 -110.882
|  8> C 	 -106.33 	 3.36055 	 -110.884
|  9> C 	 -107.373 	 2.56132 	 -111.281
| 10> C 	 -106.926 	 1.20488 	 -111.634
| 11> C 	 -105.556 	 1.02521 	 -111.409
| 12> H 	 -107.553 	 0.423353 	 -112.005
| 13> C 	 -108.843 	 3.03281 	 -111.385
| 14> H 	 -109.183 	 3.41387 	 -110.475
| 15> H 	 -109.439 	 2.13729 	 -111.464
| 16> C 	 -109.157 	 3.91416 	 -112.547
| 17> H 	 -108.593 	 4.79824 	 -112.432
| 18> H 	 -108.839 	 3.45207 	 -113.492
| 19> C 	 -110.649 	 4.22634 	 -112.798
| 20> H 	 -111.227 	 3.36829 	 -112.705
| 21> H 	 -111.068 	 4.91368 	 -112.018
| 22> H 	 -110.979 	 4.73235 	 -113.681
| 23> S 	 -103.388 	 0.0333154 	 -112.806
| 24> C 	 -103.41 	 -1.69254 	 -113.082
| 25> C 	 -104.501 	 -2.37186 	 -112.488
| 26> C 	 -105.256 	 -1.46756 	 -111.733
| 27> C 	 -104.834 	 -0.152509 	 -111.861
| 28> H 	 -104.596 	 -3.44506 	 -112.681
| 29> C 	 -106.458 	 -2.04305 	 -111.01
| 30> H 	 -107.124 	 -2.47993 	 -111.759
| 31> H 	 -106.99 	 -1.24855 	 -110.535
| 32> C 	 -106.171 	 -3.05025 	 -109.915
| 33> H 	 -105.67 	 -3.94286 	 -110.32
| 34> H 	 -107.133 	 -3.46564 	 -109.477
| 35> C 	 -105.421 	 -2.48021 	 -108.69
| 36> H 	 -105.321 	 -3.27436 	 -107.917
| 37> H 	 -106.069 	 -1.7718 	 -108.283
| 38> H 	 -104.418 	 -2.05459 	 -108.913
| 39> H 	 -106.449 	 4.39408 	 -110.668
| 40> H 	 -102.758 	 -2.1359 	 -113.809
| 41> *
| 42>
| 43>                          ****END OF INPUT****

CARTESIAN COORDINATES (ANGSTROEM)
---------------------------------
  S    -104.798000    2.603240  -110.882000
  C    -106.330000    3.360550  -110.884000
  C    -107.373000    2.561320  -111.281000
  C    -106.926000    1.204880  -111.634000
  C    -105.556000    1.025210  -111.409000
  H    -107.553000    0.423353  -112.005000
  C    -108.843000    3.032810  -111.385000
  H    -109.183000    3.413870  -110.475000
  H    -109.439000    2.137290  -111.464000
  C    -109.157000    3.914160  -112.547000
  H    -108.593000    4.798240  -112.432000
  H    -108.839000    3.452070  -113.492000
  C    -110.649000    4.226340  -112.798000
  H    -111.227000    3.368290  -112.705000
  H    -111.068000    4.913680  -112.018000
  H    -110.979000    4.732350  -113.681000
  S    -103.388000    0.033315  -112.806000
  C    -103.410000   -1.692540  -113.082000
  C    -104.501000   -2.371860  -112.488000
  C    -105.256000   -1.467560  -111.733000
  C    -104.834000   -0.152509  -111.861000
  H    -104.596000   -3.445060  -112.681000
  C    -106.458000   -2.043050  -111.010000
  H    -107.124000   -2.479930  -111.759000
  H    -106.990000   -1.248550  -110.535000
  C    -106.171000   -3.050250  -109.915000
  H    -105.670000   -3.942860  -110.320000
  H    -107.133000   -3.465640  -109.477000
  C    -105.421000   -2.480210  -108.690000
  H    -105.321000   -3.274360  -107.917000
  H    -106.069000   -1.771800  -108.283000
  H    -104.418000   -2.054590  -108.913000
  H    -106.449000    4.394080  -110.668000
  H    -102.758000   -2.135900  -113.809000

 Total Charge           Charge          ....    0
 Multiplicity           Mult            ....    1
 Number of Electrons    NEL             ....  134
 Basis Dimension        Dim             ....  322

ORBITAL ENERGIES
----------------

  NO   OCC          E(Eh)            E(eV)
   0   2.0000     -88.970729     -2421.0166
   1   2.0000     -88.967522     -2420.9294
   2   2.0000     -10.334463      -281.2150
   3   2.0000     -10.325660      -280.9755
   4   2.0000     -10.317239      -280.7463
   5   2.0000     -10.309324      -280.5310
   6   2.0000     -10.303909      -280.3836
   7   2.0000     -10.300102      -280.2800
   8   2.0000     -10.299319      -280.2587
   9   2.0000     -10.296368      -280.1784
  10   2.0000     -10.288919      -279.9757
  11   2.0000     -10.287012      -279.9238
  12   2.0000     -10.286108      -279.8992
  13   2.0000     -10.282265      -279.7947
  14   2.0000     -10.273829      -279.5651
  15   2.0000     -10.272682      -279.5339
  16   2.0000      -8.085671      -220.0223
  17   2.0000      -8.081813      -219.9173
  18   2.0000      -6.043928      -164.4636
  19   2.0000      -6.040433      -164.3685
  20   2.0000      -6.040304      -164.3650
  21   2.0000      -6.036532      -164.2624
  22   2.0000      -6.036499      -164.2615
  23   2.0000      -6.032384      -164.1495
  24   2.0000      -1.005363       -27.3573
  25   2.0000      -0.980556       -26.6823
  26   2.0000      -0.913039       -24.8451
  27   2.0000      -0.910590       -24.7784
  28   2.0000      -0.869971       -23.6731
  29   2.0000      -0.853755       -23.2319
  30   2.0000      -0.844953       -22.9923
  31   2.0000      -0.809875       -22.0378
  32   2.0000      -0.785822       -21.3833
  33   2.0000      -0.773259       -21.0414
  34   2.0000      -0.708337       -19.2748
  35   2.0000      -0.702421       -19.1139
  36   2.0000      -0.691231       -18.8094
  37   2.0000      -0.662983       -18.0407
  38   2.0000      -0.642433       -17.4815
  39   2.0000      -0.618270       -16.8240
  40   2.0000      -0.596864       -16.2415
  41   2.0000      -0.571561       -15.5530
  42   2.0000      -0.560306       -15.2467
  43   2.0000      -0.553285       -15.0557
  44   2.0000      -0.541104       -14.7242
  45   2.0000      -0.523372       -14.2417
  46   2.0000      -0.518275       -14.1030
  47   2.0000      -0.513864       -13.9829
  48   2.0000      -0.501869       -13.6566
  49   2.0000      -0.492841       -13.4109
  50   2.0000      -0.491243       -13.3674
  51   2.0000      -0.480875       -13.0853
  52   2.0000      -0.470312       -12.7978
  53   2.0000      -0.461972       -12.5709
  54   2.0000      -0.457329       -12.4446
  55   2.0000      -0.453733       -12.3467
  56   2.0000      -0.447848       -12.1866
  57   2.0000      -0.437263       -11.8985
  58   2.0000      -0.436205       -11.8697
  59   2.0000      -0.424070       -11.5395
  60   2.0000      -0.420091       -11.4313
  61   2.0000      -0.414314       -11.2741
  62   2.0000      -0.411923       -11.2090
  63   2.0000      -0.354765        -9.6536
  64   2.0000      -0.337554        -9.1853
  65   2.0000      -0.328202        -8.9308
  66   2.0000      -0.283214        -7.7067
  67   0.0000       0.026266         0.7147
  68   0.0000       0.071666         1.9501
  69   0.0000       0.102472         2.7884
  70   0.0000       0.119586         3.2541
  71   0.0000       0.135314         3.6821

MULLIKEN ATOMIC CHARGES
-----------------------
   0 S :    0.101329
   1 C :   -0.105045
   2 C :   -0.101733
   3 C :    0.023757
   4 C :   -0.151889
   5 H :    0.019469
   6 C :    0.111041
   7 H :    0.013323
   8 H :   -0.003861
   9 C :   -0.043656
  10 H :    0.015166
  11 H :    0.029662
  12 C :   -0.032618
  13 H :    0.009491
  14 H :    0.017883
  15 H :    0.031360
  16 S :    0.125533
  17 C :   -0.104777
  18 C :   -0.049200
  19 C :   -0.048891
  20 C :   -0.138194
  21 H :    0.035247
  22 C :    0.093434
  23 H :    0.037300
  24 H :    0.006993
  25 C :   -0.096805
  26 H :    0.023488
  27 H :    0.030327
  28 C :   -0.044925
  29 H :    0.033527
  30 H :    0.018662
  31 H :    0.054930
  32 H :    0.038997
  33 H :    0.050676
Sum of atomic charges:    0.0000000

LOEWDIN ATOMIC CHARGES
----------------------
   0 S :    0.383511
   1 C :   -0.199590
   2 C :   -0.058685
   3 C :   -0.050371
   4 C :   -0.171267
   5 H :    0.029118
   6 C :   -0.026012
   7 H :    0.022941
   8 H :    0.026115
   9 C :   -0.035518
  10 H :    0.016370
  11 H :    0.029482
  12 C :   -0.066045
  13 H :    0.014426
  14 H :    0.027228
  15 H :    0.025689
  16 S :    0.419425
  17 C :   -0.182561
  18 C :   -0.064685
  19 C :   -0.059080
  20 C :   -0.205545
  21 H :    0.039110
  22 C :   -0.033797
  23 H :    0.035060
  24 H :    0.022424
  25 C :   -0.043091
  26 H :    0.016394
  27 H :    0.030856
  28 C :   -0.062453
  29 H :    0.029993
  30 H :    0.016422
  31 H :    0.031471
  32 H :    0.022587
  33 H :    0.020077

  Mayer bond orders larger than 0.100000
B(  0-S ,  1-C ) :   1.1372 B(  0-S ,  4-C ) :   1.1233 B(  1-C ,  2-C ) :   1.6354
B(  1-C , 32-H ) :   0.9678 B(  2-C ,  3-C ) :   1.2330 B(  2-C ,  6-C ) :   1.0172
B(  3-C ,  4-C ) :   1.5778 B(  3-C ,  5-H ) :   0.9875 B(  4-C , 20-C ) :   1.0682
B(  6-C ,  7-H ) :   0.9388 B(  6-C ,  8-H ) :   0.9312 B(  6-C ,  9-C ) :   1.0675
B(  9-C , 10-H ) :   0.9577 B(  9-C , 11-H ) :   0.9552 B(  9-C , 12-C ) :   1.0752
B( 12-C , 13-H ) :   0.9741 B( 12-C , 14-H ) :   0.9724 B( 12-C , 15-H ) :   0.9776
B( 16-S , 17-C ) :   1.1683 B( 16-S , 20-C ) :   1.1440 B( 17-C , 18-C ) :   1.5929
B( 17-C , 33-H ) :   0.9681 B( 18-C , 19-C ) :   1.2391 B( 18-C , 21-H ) :   0.9931
B( 19-C , 20-C ) :   1.5792 B( 19-C , 22-C ) :   1.0375 B( 22-C , 23-H ) :   0.9334
B( 22-C , 24-H ) :   0.9237 B( 22-C , 25-C ) :   1.0816 B( 25-C , 26-H ) :   0.9553
B( 25-C , 27-H ) :   0.9529 B( 25-C , 28-C ) :   1.0717 B( 28-C , 29-H ) :   0.9733
B( 28-C , 30-H ) :   0.9743 B( 28-C , 31-H ) :   0.9763

Dispersion correction           -0.013974420
FINAL SINGLE POINT ENERGY     -1339.876630153891

DIPOLE MOMENT
-------------
                                X             Y             Z
Electronic contribution:     24.25707       3.61318      -5.22064
Nuclear contribution   :    -24.88731      -3.85246       5.07415
                        -----------------------------------------
Total Dipole Moment    :     -0.63024      -0.23929      -0.14649
                        -----------------------------------------
Magnitude (a.u.)       :      0.68987
Magnitude (Debye)      :      1.75351

Rotational constants in cm-1:     0.019796     0.007540     0.006648
Rotational constants in MHz :   593.456878   226.047869   199.311964

                             ****ORCA TERMINATED NORMALLY****
TOTAL RUN TIME: 0 days 0 hours 0 minutes 21 seconds 366 msec
