                         Program Version 4.2.1 -  RELEASE  -
|  1> ! wB97X-D3 SP def2-SVP
|  2> %pal
|  3> nprocs 24
|  4> end
|  5>
|  6> * xyz 0 1
|  7> S 	 -38.2855 	 -3.17184 	 -5.52095
|  8> C 	 -36.8748 	 -3.93555 	 -4.8794
|  9> C 	 -35.8374 	 -4.05141 	 -5.79082
| 10> C 	 -36.1862 	 -3.44637 	 -7.0667
| 11> C 	 -37.5314 	 -3.02779 	 -7.16261
| 12> H 	 -35.4964 	 -3.50228 	 -7.90704
| 13> C 	 -34.5459 	 -4.80479 	 -5.55054
| 14> H 	 -34.6018 	 -5.13077 	 -4.50801
| 15> H 	 -33.6926 	 -4.23575 	 -5.50956
| 16> C 	 -34.1905 	 -5.98857 	 -6.48954
| 17> H 	 -35.0052 	 -6.68717 	 -6.57723
| 18> H 	 -34.1022 	 -5.65445 	 -7.51923
| 19> C 	 -32.9073 	 -6.71803 	 -5.975
| 20> H 	 -32.0878 	 -5.97858 	 -5.74651
| 21> H 	 -33.1499 	 -7.21068 	 -4.97685
| 22> H 	 -32.5424 	 -7.47971 	 -6.59659
| 23> S 	 -38.9646 	 -0.947099 	 -8.28599
| 24> C 	 -39.6848 	 -1.21265 	 -9.86751
| 25> C 	 -39.3159 	 -2.40228 	 -10.4032
| 26> C 	 -38.3497 	 -3.07797 	 -9.62025
| 27> C 	 -38.1894 	 -2.54041 	 -8.34112
| 28> H 	 -39.8099 	 -2.72839 	 -11.2221
| 29> C 	 -37.8974 	 -4.47617 	 -10.0653
| 30> H 	 -38.5384 	 -5.15514 	 -9.43445
| 31> H 	 -36.8507 	 -4.36042 	 -9.67471
| 32> C 	 -37.8844 	 -4.93374 	 -11.5391
| 33> H 	 -37.1895 	 -4.28297 	 -12.1373
| 34> H 	 -38.8871 	 -4.90101 	 -12.0541
| 35> C 	 -37.5632 	 -6.46021 	 -11.6268
| 36> H 	 -37.1153 	 -6.76537 	 -12.5778
| 37> H 	 -38.4393 	 -7.1176 	 -11.6204
| 38> H 	 -36.9774 	 -6.82182 	 -10.7865
| 39> H 	 -36.9878 	 -4.38248 	 -3.86796
| 40> H 	 -40.3982 	 -0.680806 	 -10.3744
| 41> *
| 42>
| 43>                          ****END OF INPUT****

CARTESIAN COORDINATES (ANGSTROEM)
---------------------------------
  S    -38.285500   -3.171840   -5.520950
  C    -36.874800   -3.935550   -4.879400
  C    -35.837400   -4.051410   -5.790820
  C    -36.186200   -3.446370   -7.066700
  C    -37.531400   -3.027790   -7.162610
  H    -35.496400   -3.502280   -7.907040
  C    -34.545900   -4.804790   -5.550540
  H    -34.601800   -5.130770   -4.508010
  H    -33.692600   -4.235750   -5.509560
  C    -34.190500   -5.988570   -6.489540
  H    -35.005200   -6.687170   -6.577230
  H    -34.102200   -5.654450   -7.519230
  C    -32.907300   -6.718030   -5.975000
  H    -32.087800   -5.978580   -5.746510
  H    -33.149900   -7.210680   -4.976850
  H    -32.542400   -7.479710   -6.596590
  S    -38.964600   -0.947099   -8.285990
  C    -39.684800   -1.212650   -9.867510
  C    -39.315900   -2.402280  -10.403200
  C    -38.349700   -3.077970   -9.620250
  C    -38.189400   -2.540410   -8.341120
  H    -39.809900   -2.728390  -11.222100
  C    -37.897400   -4.476170  -10.065300
  H    -38.538400   -5.155140   -9.434450
  H    -36.850700   -4.360420   -9.674710
  C    -37.884400   -4.933740  -11.539100
  H    -37.189500   -4.282970  -12.137300
  H    -38.887100   -4.901010  -12.054100
  C    -37.563200   -6.460210  -11.626800
  H    -37.115300   -6.765370  -12.577800
  H    -38.439300   -7.117600  -11.620400
  H    -36.977400   -6.821820  -10.786500
  H    -36.987800   -4.382480   -3.867960
  H    -40.398200   -0.680806  -10.374400

 Total Charge           Charge          ....    0
 Multiplicity           Mult            ....    1
 Number of Electrons    NEL             ....  134
 Basis Dimension        Dim             ....  322

ORBITAL ENERGIES
----------------

  NO   OCC          E(Eh)            E(eV)
   0   2.0000     -88.967106     -2420.9180
   1   2.0000     -88.963695     -2420.8252
   2   2.0000     -10.336701      -281.2759
   3   2.0000     -10.326219      -280.9907
   4   2.0000     -10.319313      -280.8028
   5   2.0000     -10.306141      -280.4444
   6   2.0000     -10.306036      -280.4415
   7   2.0000     -10.303753      -280.3794
   8   2.0000     -10.302480      -280.3447
   9   2.0000     -10.301827      -280.3270
  10   2.0000     -10.299233      -280.2564
  11   2.0000     -10.290368      -280.0151
  12   2.0000     -10.288152      -279.9549
  13   2.0000     -10.287787      -279.9449
  14   2.0000     -10.281430      -279.7719
  15   2.0000     -10.278574      -279.6942
  16   2.0000      -8.081417      -219.9065
  17   2.0000      -8.077929      -219.8116
  18   2.0000      -6.040024      -164.3574
  19   2.0000      -6.036536      -164.2625
  20   2.0000      -6.035932      -164.2461
  21   2.0000      -6.032561      -164.1543
  22   2.0000      -6.032141      -164.1429
  23   2.0000      -6.028563      -164.0455
  24   2.0000      -1.001662       -27.2566
  25   2.0000      -0.980230       -26.6734
  26   2.0000      -0.908705       -24.7271
  27   2.0000      -0.901969       -24.5438
  28   2.0000      -0.874076       -23.7848
  29   2.0000      -0.849556       -23.1176
  30   2.0000      -0.844391       -22.9770
  31   2.0000      -0.816545       -22.2193
  32   2.0000      -0.779816       -21.2199
  33   2.0000      -0.767539       -20.8858
  34   2.0000      -0.716125       -19.4867
  35   2.0000      -0.702498       -19.1160
  36   2.0000      -0.699038       -19.0218
  37   2.0000      -0.658714       -17.9245
  38   2.0000      -0.642925       -17.4949
  39   2.0000      -0.622918       -16.9505
  40   2.0000      -0.589077       -16.0296
  41   2.0000      -0.576520       -15.6879
  42   2.0000      -0.565750       -15.3948
  43   2.0000      -0.554888       -15.0993
  44   2.0000      -0.529105       -14.3977
  45   2.0000      -0.525210       -14.2917
  46   2.0000      -0.518362       -14.1054
  47   2.0000      -0.506997       -13.7961
  48   2.0000      -0.505781       -13.7630
  49   2.0000      -0.499731       -13.5984
  50   2.0000      -0.486422       -13.2362
  51   2.0000      -0.480446       -13.0736
  52   2.0000      -0.469480       -12.7752
  53   2.0000      -0.462936       -12.5971
  54   2.0000      -0.454769       -12.3749
  55   2.0000      -0.453598       -12.3430
  56   2.0000      -0.444912       -12.1067
  57   2.0000      -0.443255       -12.0616
  58   2.0000      -0.430729       -11.7207
  59   2.0000      -0.426527       -11.6064
  60   2.0000      -0.424468       -11.5504
  61   2.0000      -0.418647       -11.3920
  62   2.0000      -0.402559       -10.9542
  63   2.0000      -0.346576        -9.4308
  64   2.0000      -0.329579        -8.9683
  65   2.0000      -0.328345        -8.9347
  66   2.0000      -0.288945        -7.8626
  67   0.0000       0.024885         0.6772
  68   0.0000       0.064886         1.7656
  69   0.0000       0.116268         3.1638
  70   0.0000       0.125047         3.4027
  71   0.0000       0.128794         3.5047

MULLIKEN ATOMIC CHARGES
-----------------------
   0 S :    0.109795
   1 C :   -0.145504
   2 C :   -0.076128
   3 C :    0.038597
   4 C :   -0.167566
   5 H :    0.024987
   6 C :    0.097249
   7 H :    0.004134
   8 H :    0.007551
   9 C :   -0.065657
  10 H :    0.025533
  11 H :    0.024431
  12 C :   -0.071124
  13 H :    0.038211
  14 H :    0.038250
  15 H :    0.033513
  16 S :    0.104607
  17 C :   -0.028715
  18 C :   -0.018432
  19 C :   -0.024215
  20 C :   -0.165722
  21 H :   -0.025448
  22 C :    0.016347
  23 H :    0.063023
  24 H :    0.035009
  25 C :   -0.082586
  26 H :    0.046364
  27 H :    0.041972
  28 C :   -0.056197
  29 H :    0.032159
  30 H :    0.029054
  31 H :    0.032349
  32 H :    0.071588
  33 H :    0.012571
Sum of atomic charges:    0.0000000

LOEWDIN ATOMIC CHARGES
----------------------
   0 S :    0.392107
   1 C :   -0.202395
   2 C :   -0.064756
   3 C :   -0.051816
   4 C :   -0.182957
   5 H :    0.029669
   6 C :   -0.029331
   7 H :    0.031726
   8 H :    0.019681
   9 C :   -0.036144
  10 H :    0.021523
  11 H :    0.019803
  12 C :   -0.066149
  13 H :    0.029803
  14 H :    0.033167
  15 H :    0.017897
  16 S :    0.392559
  17 C :   -0.163329
  18 C :   -0.061124
  19 C :   -0.051504
  20 C :   -0.201936
  21 H :    0.014070
  22 C :   -0.044622
  23 H :    0.045187
  24 H :    0.039504
  25 C :   -0.048478
  26 H :    0.031098
  27 H :    0.029889
  28 C :   -0.071017
  29 H :    0.028154
  30 H :    0.026981
  31 H :    0.023676
  32 H :    0.035672
  33 H :    0.013394

  Mayer bond orders larger than 0.100000
B(  0-S ,  1-C ) :   1.1488 B(  0-S ,  4-C ) :   1.1322 B(  1-C ,  2-C ) :   1.6082
B(  1-C , 32-H ) :   0.9579 B(  2-C ,  3-C ) :   1.2421 B(  2-C ,  6-C ) :   1.0309
B(  3-C ,  4-C ) :   1.5646 B(  3-C ,  5-H ) :   0.9834 B(  4-C , 20-C ) :   1.0883
B(  6-C ,  7-H ) :   0.9392 B(  6-C ,  8-H ) :   0.9335 B(  6-C ,  9-C ) :   1.0475
B(  9-C , 10-H ) :   0.9582 B(  9-C , 11-H ) :   0.9548 B(  9-C , 12-C ) :   1.0753
B( 12-C , 13-H ) :   0.9760 B( 12-C , 14-H ) :   0.9759 B( 12-C , 15-H ) :   0.9762
B( 16-S , 17-C ) :   1.1399 B( 16-S , 20-C ) :   1.1257 B( 17-C , 18-C ) :   1.6428
B( 17-C , 33-H ) :   0.9680 B( 18-C , 19-C ) :   1.2241 B( 18-C , 21-H ) :   1.0051
B( 19-C , 20-C ) :   1.5919 B( 19-C , 22-C ) :   1.0132 B( 22-C , 23-H ) :   0.9419
B( 22-C , 24-H ) :   0.9281 B( 22-C , 25-C ) :   1.0773 B( 25-C , 26-H ) :   0.9592
B( 25-C , 27-H ) :   0.9522 B( 25-C , 28-C ) :   1.0613 B( 28-C , 29-H ) :   0.9740
B( 28-C , 30-H ) :   0.9772 B( 28-C , 31-H ) :   0.9779

Dispersion correction           -0.013519114
FINAL SINGLE POINT ENERGY     -1339.853700590451

DIPOLE MOMENT
-------------
                                X             Y             Z
Electronic contribution:    -18.30645      25.23793      10.43302
Nuclear contribution   :     18.55342     -25.95067     -10.78209
                        -----------------------------------------
Total Dipole Moment    :      0.24698      -0.71274      -0.34907
                        -----------------------------------------
Magnitude (a.u.)       :      0.83117
Magnitude (Debye)      :      2.11268

Rotational constants in cm-1:     0.015833     0.008928     0.006154
Rotational constants in MHz :   474.648946   267.649325   184.499082

                             ****ORCA TERMINATED NORMALLY****
TOTAL RUN TIME: 0 days 0 hours 0 minutes 21 seconds 36 msec
