                         Program Version 4.2.1 -  RELEASE  -
|  1> ! wB97X-D3 SP def2-SVP
|  2> %pal
|  3> nprocs 24
|  4> end
|  5>
|  6> * xyz 0 1
|  7> S 	 -142.181 	 30.6142 	 -15.459
|  8> C 	 -140.684 	 30.7142 	 -14.5016
|  9> C 	 -139.749 	 29.7845 	 -14.8806
| 10> C 	 -140.247 	 28.9175 	 -15.9678
| 11> C 	 -141.546 	 29.1775 	 -16.3101
| 12> H 	 -139.714 	 28.0842 	 -16.4923
| 13> C 	 -138.374 	 29.607 	 -14.4034
| 14> H 	 -137.86 	 30.6015 	 -14.2208
| 15> H 	 -137.867 	 29.0851 	 -15.25
| 16> C 	 -138.232 	 28.8809 	 -13.0917
| 17> H 	 -137.214 	 29.0751 	 -12.7328
| 18> H 	 -138.986 	 29.2336 	 -12.3854
| 19> C 	 -138.177 	 27.3556 	 -13.1221
| 20> H 	 -139.133 	 26.9363 	 -13.3168
| 21> H 	 -137.478 	 26.9522 	 -13.8448
| 22> H 	 -137.896 	 26.9106 	 -12.1037
| 23> S 	 -143.064 	 29.2556 	 -18.6139
| 24> C 	 -143.436 	 27.7844 	 -19.4955
| 25> C 	 -142.941 	 26.7009 	 -18.7408
| 26> C 	 -142.359 	 27.0358 	 -17.4214
| 27> C 	 -142.287 	 28.3675 	 -17.306
| 28> H 	 -143.042 	 25.7349 	 -19.2286
| 29> C 	 -141.864 	 26.0295 	 -16.4415
| 30> H 	 -142.746 	 25.614 	 -15.8909
| 31> H 	 -141.212 	 26.4841 	 -15.7313
| 32> C 	 -141.129 	 24.8808 	 -17.0364
| 33> H 	 -140.347 	 25.38 	 -17.6508
| 34> H 	 -141.657 	 24.3991 	 -17.8433
| 35> C 	 -140.604 	 23.7645 	 -16.1111
| 36> H 	 -139.72 	 24.0003 	 -15.4557
| 37> H 	 -140.33 	 23.0131 	 -16.8521
| 38> H 	 -141.409 	 23.2645 	 -15.5718
| 39> H 	 -140.593 	 31.4114 	 -13.7067
| 40> H 	 -143.776 	 27.4811 	 -20.4561
| 41> *
| 42>
| 43>                          ****END OF INPUT****

CARTESIAN COORDINATES (ANGSTROEM)
---------------------------------
  S    -142.181000   30.614200  -15.459000
  C    -140.684000   30.714200  -14.501600
  C    -139.749000   29.784500  -14.880600
  C    -140.247000   28.917500  -15.967800
  C    -141.546000   29.177500  -16.310100
  H    -139.714000   28.084200  -16.492300
  C    -138.374000   29.607000  -14.403400
  H    -137.860000   30.601500  -14.220800
  H    -137.867000   29.085100  -15.250000
  C    -138.232000   28.880900  -13.091700
  H    -137.214000   29.075100  -12.732800
  H    -138.986000   29.233600  -12.385400
  C    -138.177000   27.355600  -13.122100
  H    -139.133000   26.936300  -13.316800
  H    -137.478000   26.952200  -13.844800
  H    -137.896000   26.910600  -12.103700
  S    -143.064000   29.255600  -18.613900
  C    -143.436000   27.784400  -19.495500
  C    -142.941000   26.700900  -18.740800
  C    -142.359000   27.035800  -17.421400
  C    -142.287000   28.367500  -17.306000
  H    -143.042000   25.734900  -19.228600
  C    -141.864000   26.029500  -16.441500
  H    -142.746000   25.614000  -15.890900
  H    -141.212000   26.484100  -15.731300
  C    -141.129000   24.880800  -17.036400
  H    -140.347000   25.380000  -17.650800
  H    -141.657000   24.399100  -17.843300
  C    -140.604000   23.764500  -16.111100
  H    -139.720000   24.000300  -15.455700
  H    -140.330000   23.013100  -16.852100
  H    -141.409000   23.264500  -15.571800
  H    -140.593000   31.411400  -13.706700
  H    -143.776000   27.481100  -20.456100

 Total Charge           Charge          ....    0
 Multiplicity           Mult            ....    1
 Number of Electrons    NEL             ....  134
 Basis Dimension        Dim             ....  322

ORBITAL ENERGIES
----------------

  NO   OCC          E(Eh)            E(eV)
   0   2.0000     -88.966897     -2420.9123
   1   2.0000     -88.966585     -2420.9039
   2   2.0000     -10.332701      -281.1671
   3   2.0000     -10.326077      -280.9868
   4   2.0000     -10.318204      -280.7726
   5   2.0000     -10.315689      -280.7042
   6   2.0000     -10.304090      -280.3885
   7   2.0000     -10.303579      -280.3746
   8   2.0000     -10.300198      -280.2826
   9   2.0000     -10.298858      -280.2462
  10   2.0000     -10.294987      -280.1408
  11   2.0000     -10.286770      -279.9172
  12   2.0000     -10.286646      -279.9139
  13   2.0000     -10.285797      -279.8908
  14   2.0000     -10.285409      -279.8802
  15   2.0000     -10.279073      -279.7078
  16   2.0000      -8.080770      -219.8889
  17   2.0000      -8.080691      -219.8868
  18   2.0000      -6.039598      -164.3458
  19   2.0000      -6.039444      -164.3416
  20   2.0000      -6.035409      -164.2318
  21   2.0000      -6.035305      -164.2290
  22   2.0000      -6.031245      -164.1185
  23   2.0000      -6.031173      -164.1166
  24   2.0000      -1.003846       -27.3160
  25   2.0000      -0.979835       -26.6627
  26   2.0000      -0.917693       -24.9717
  27   2.0000      -0.916781       -24.9469
  28   2.0000      -0.870639       -23.6913
  29   2.0000      -0.851677       -23.1753
  30   2.0000      -0.843273       -22.9466
  31   2.0000      -0.816428       -22.2161
  32   2.0000      -0.785874       -21.3847
  33   2.0000      -0.777427       -21.1549
  34   2.0000      -0.707227       -19.2446
  35   2.0000      -0.702545       -19.1172
  36   2.0000      -0.696280       -18.9468
  37   2.0000      -0.655469       -17.8362
  38   2.0000      -0.641272       -17.4499
  39   2.0000      -0.612993       -16.6804
  40   2.0000      -0.596322       -16.2267
  41   2.0000      -0.579128       -15.7589
  42   2.0000      -0.568714       -15.4755
  43   2.0000      -0.544945       -14.8287
  44   2.0000      -0.542942       -14.7742
  45   2.0000      -0.529836       -14.4176
  46   2.0000      -0.518838       -14.1183
  47   2.0000      -0.511434       -13.9168
  48   2.0000      -0.509193       -13.8559
  49   2.0000      -0.497747       -13.5444
  50   2.0000      -0.490963       -13.3598
  51   2.0000      -0.486918       -13.2497
  52   2.0000      -0.472421       -12.8552
  53   2.0000      -0.464313       -12.6346
  54   2.0000      -0.459736       -12.5100
  55   2.0000      -0.447923       -12.1886
  56   2.0000      -0.444801       -12.1037
  57   2.0000      -0.435497       -11.8505
  58   2.0000      -0.430714       -11.7203
  59   2.0000      -0.426391       -11.6027
  60   2.0000      -0.418911       -11.3992
  61   2.0000      -0.413604       -11.2547
  62   2.0000      -0.407414       -11.0863
  63   2.0000      -0.349600        -9.5131
  64   2.0000      -0.328432        -8.9371
  65   2.0000      -0.327537        -8.9127
  66   2.0000      -0.297281        -8.0894
  67   0.0000       0.033088         0.9004
  68   0.0000       0.067711         1.8425
  69   0.0000       0.102309         2.7840
  70   0.0000       0.118168         3.2155
  71   0.0000       0.123579         3.3627

MULLIKEN ATOMIC CHARGES
-----------------------
   0 S :    0.099092
   1 C :   -0.112469
   2 C :   -0.067560
   3 C :   -0.000449
   4 C :   -0.144698
   5 H :    0.042213
   6 C :    0.039663
   7 H :    0.043137
   8 H :    0.030806
   9 C :   -0.056282
  10 H :    0.028212
  11 H :    0.034388
  12 C :   -0.064080
  13 H :    0.023755
  14 H :    0.026203
  15 H :    0.038652
  16 S :    0.111024
  17 C :   -0.058409
  18 C :   -0.094472
  19 C :   -0.035500
  20 C :   -0.154787
  21 H :    0.022632
  22 C :    0.140481
  23 H :    0.035493
  24 H :    0.012925
  25 C :   -0.145252
  26 H :    0.018764
  27 H :    0.019970
  28 C :   -0.025281
  29 H :    0.053907
  30 H :    0.027784
  31 H :    0.032088
  32 H :    0.035538
  33 H :    0.042512
Sum of atomic charges:    0.0000000

LOEWDIN ATOMIC CHARGES
----------------------
   0 S :    0.370709
   1 C :   -0.177047
   2 C :   -0.062749
   3 C :   -0.066130
   4 C :   -0.179031
   5 H :    0.041627
   6 C :   -0.042009
   7 H :    0.042856
   8 H :    0.036538
   9 C :   -0.042105
  10 H :    0.027341
  11 H :    0.027637
  12 C :   -0.068982
  13 H :    0.014378
  14 H :    0.021590
  15 H :    0.034964
  16 S :    0.396815
  17 C :   -0.192689
  18 C :   -0.068928
  19 C :   -0.056739
  20 C :   -0.186057
  21 H :    0.026520
  22 C :   -0.033616
  23 H :    0.038972
  24 H :    0.025153
  25 C :   -0.051501
  26 H :    0.025524
  27 H :    0.019028
  28 C :   -0.067737
  29 H :    0.032504
  30 H :    0.032320
  31 H :    0.027181
  32 H :    0.020710
  33 H :    0.032953

  Mayer bond orders larger than 0.100000
B(  0-S ,  1-C ) :   1.1114 B(  0-S ,  4-C ) :   1.1280 B(  1-C ,  2-C ) :   1.6500
B(  1-C , 32-H ) :   0.9746 B(  2-C ,  3-C ) :   1.1860 B(  2-C ,  6-C ) :   1.0293
B(  3-C ,  4-C ) :   1.6319 B(  3-C ,  5-H ) :   0.9768 B(  4-C , 20-C ) :   1.0102
B(  6-C ,  7-H ) :   0.9372 B(  6-C ,  8-H ) :   0.9404 B(  6-C ,  9-C ) :   1.0702
B(  9-C , 10-H ) :   0.9561 B(  9-C , 11-H ) :   0.9541 B(  9-C , 12-C ) :   1.0836
B( 12-C , 13-H ) :   0.9765 B( 12-C , 14-H ) :   0.9735 B( 12-C , 15-H ) :   0.9731
B( 16-S , 17-C ) :   1.1226 B( 16-S , 20-C ) :   1.1201 B( 17-C , 18-C ) :   1.6772
B( 17-C , 33-H ) :   0.9659 B( 18-C , 19-C ) :   1.1651 B( 18-C , 21-H ) :   0.9825
B( 19-C , 20-C ) :   1.6573 B( 19-C , 22-C ) :   1.0565 B( 22-C , 23-H ) :   0.9114
B( 22-C , 24-H ) :   0.9301 B( 22-C , 25-C ) :   1.0639 B( 25-C , 26-H ) :   0.9515
B( 25-C , 27-H ) :   0.9509 B( 25-C , 28-C ) :   1.0824 B( 28-C , 29-H ) :   0.9743
B( 28-C , 30-H ) :   0.9722 B( 28-C , 31-H ) :   0.9696

Dispersion correction           -0.014452795
FINAL SINGLE POINT ENERGY     -1339.866544716833

DIPOLE MOMENT
-------------
                                X             Y             Z
Electronic contribution:    -19.43164      23.09541     -13.09037
Nuclear contribution   :     19.98649     -23.73240      13.26175
                        -----------------------------------------
Total Dipole Moment    :      0.55485      -0.63699       0.17137
                        -----------------------------------------
Magnitude (a.u.)       :      0.86197
Magnitude (Debye)      :      2.19094

Rotational constants in cm-1:     0.016156     0.010370     0.006717
Rotational constants in MHz :   484.339701   310.887735   201.367796

                             ****ORCA TERMINATED NORMALLY****
TOTAL RUN TIME: 0 days 0 hours 0 minutes 20 seconds 909 msec
