                         Program Version 4.2.1 -  RELEASE  -
|  1> ! wB97X-D3 SP def2-SVP
|  2> %pal
|  3> nprocs 24
|  4> end
|  5>
|  6> * xyz 0 1
|  7> S 	 -127.08 	 64.5454 	 -50.3182
|  8> C 	 -126.72 	 66.243 	 -49.7701
|  9> C 	 -127.648 	 67.1781 	 -50.2071
| 10> C 	 -128.661 	 66.5077 	 -50.9807
| 11> C 	 -128.451 	 65.1768 	 -51.1709
| 12> H 	 -129.586 	 66.9926 	 -51.2613
| 13> C 	 -127.596 	 68.6826 	 -50.0026
| 14> H 	 -127.559 	 68.9746 	 -48.989
| 15> H 	 -128.568 	 69.0819 	 -50.3601
| 16> C 	 -126.514 	 69.3311 	 -50.7863
| 17> H 	 -125.459 	 68.9302 	 -50.5629
| 18> H 	 -126.694 	 69.1102 	 -51.8064
| 19> C 	 -126.535 	 70.8917 	 -50.4879
| 20> H 	 -127.495 	 71.2257 	 -50.9096
| 21> H 	 -126.501 	 71.287 	 -49.4384
| 22> H 	 -125.718 	 71.4063 	 -50.9688
| 23> S 	 -128.686 	 63.1565 	 -53.0619
| 24> C 	 -130.2 	 62.2941 	 -53.1535
| 25> C 	 -131.145 	 62.8972 	 -52.3575
| 26> C 	 -130.658 	 64.0569 	 -51.7316
| 27> C 	 -129.308 	 64.1961 	 -51.8511
| 28> H 	 -132.177 	 62.4882 	 -52.3638
| 29> C 	 -131.515 	 64.9585 	 -50.9086
| 30> H 	 -131.107 	 65.2233 	 -50.0161
| 31> H 	 -132.375 	 64.3568 	 -50.6228
| 32> C 	 -132.205 	 66.048 	 -51.7538
| 33> H 	 -132.807 	 65.6047 	 -52.5082
| 34> H 	 -131.474 	 66.689 	 -52.1606
| 35> C 	 -133.139 	 67.0196 	 -51.0459
| 36> H 	 -132.658 	 67.5119 	 -50.1884
| 37> H 	 -133.99 	 66.4469 	 -50.6285
| 38> H 	 -133.603 	 67.9194 	 -51.4931
| 39> H 	 -125.846 	 66.4401 	 -49.1619
| 40> H 	 -130.404 	 61.3719 	 -53.6693
| 41> *
| 42>
| 43>                          ****END OF INPUT****

CARTESIAN COORDINATES (ANGSTROEM)
---------------------------------
  S    -127.080000   64.545400  -50.318200
  C    -126.720000   66.243000  -49.770100
  C    -127.648000   67.178100  -50.207100
  C    -128.661000   66.507700  -50.980700
  C    -128.451000   65.176800  -51.170900
  H    -129.586000   66.992600  -51.261300
  C    -127.596000   68.682600  -50.002600
  H    -127.559000   68.974600  -48.989000
  H    -128.568000   69.081900  -50.360100
  C    -126.514000   69.331100  -50.786300
  H    -125.459000   68.930200  -50.562900
  H    -126.694000   69.110200  -51.806400
  C    -126.535000   70.891700  -50.487900
  H    -127.495000   71.225700  -50.909600
  H    -126.501000   71.287000  -49.438400
  H    -125.718000   71.406300  -50.968800
  S    -128.686000   63.156500  -53.061900
  C    -130.200000   62.294100  -53.153500
  C    -131.145000   62.897200  -52.357500
  C    -130.658000   64.056900  -51.731600
  C    -129.308000   64.196100  -51.851100
  H    -132.177000   62.488200  -52.363800
  C    -131.515000   64.958500  -50.908600
  H    -131.107000   65.223300  -50.016100
  H    -132.375000   64.356800  -50.622800
  C    -132.205000   66.048000  -51.753800
  H    -132.807000   65.604700  -52.508200
  H    -131.474000   66.689000  -52.160600
  C    -133.139000   67.019600  -51.045900
  H    -132.658000   67.511900  -50.188400
  H    -133.990000   66.446900  -50.628500
  H    -133.603000   67.919400  -51.493100
  H    -125.846000   66.440100  -49.161900
  H    -130.404000   61.371900  -53.669300

 Total Charge           Charge          ....    0
 Multiplicity           Mult            ....    1
 Number of Electrons    NEL             ....  134
 Basis Dimension        Dim             ....  322

ORBITAL ENERGIES
----------------

  NO   OCC          E(Eh)            E(eV)
   0   2.0000     -88.966738     -2420.9080
   1   2.0000     -88.965665     -2420.8788
   2   2.0000     -10.326392      -280.9954
   3   2.0000     -10.318280      -280.7747
   4   2.0000     -10.318185      -280.7721
   5   2.0000     -10.313286      -280.6388
   6   2.0000     -10.304714      -280.4055
   7   2.0000     -10.294127      -280.1174
   8   2.0000     -10.292678      -280.0780
   9   2.0000     -10.292646      -280.0771
  10   2.0000     -10.292506      -280.0733
  11   2.0000     -10.291672      -280.0506
  12   2.0000     -10.285343      -279.8784
  13   2.0000     -10.282471      -279.8003
  14   2.0000     -10.281577      -279.7759
  15   2.0000     -10.279953      -279.7318
  16   2.0000      -8.081116      -219.8984
  17   2.0000      -8.080908      -219.8927
  18   2.0000      -6.039562      -164.3448
  19   2.0000      -6.039395      -164.3403
  20   2.0000      -6.035659      -164.2386
  21   2.0000      -6.035536      -164.2353
  22   2.0000      -6.031884      -164.1359
  23   2.0000      -6.031557      -164.1270
  24   2.0000      -1.013372       -27.5753
  25   2.0000      -0.984678       -26.7945
  26   2.0000      -0.918284       -24.9878
  27   2.0000      -0.915243       -24.9050
  28   2.0000      -0.866796       -23.5867
  29   2.0000      -0.855455       -23.2781
  30   2.0000      -0.843660       -22.9572
  31   2.0000      -0.813695       -22.1418
  32   2.0000      -0.785466       -21.3736
  33   2.0000      -0.774155       -21.0658
  34   2.0000      -0.706340       -19.2205
  35   2.0000      -0.705524       -19.1983
  36   2.0000      -0.697035       -18.9673
  37   2.0000      -0.664009       -18.0686
  38   2.0000      -0.642856       -17.4930
  39   2.0000      -0.623884       -16.9767
  40   2.0000      -0.599654       -16.3174
  41   2.0000      -0.575085       -15.6489
  42   2.0000      -0.570969       -15.5369
  43   2.0000      -0.560319       -15.2471
  44   2.0000      -0.531589       -14.4653
  45   2.0000      -0.524913       -14.2836
  46   2.0000      -0.517194       -14.0736
  47   2.0000      -0.514535       -14.0012
  48   2.0000      -0.511183       -13.9100
  49   2.0000      -0.495565       -13.4850
  50   2.0000      -0.485224       -13.2036
  51   2.0000      -0.478783       -13.0284
  52   2.0000      -0.472159       -12.8481
  53   2.0000      -0.465069       -12.6552
  54   2.0000      -0.457854       -12.4589
  55   2.0000      -0.448912       -12.2155
  56   2.0000      -0.446306       -12.1446
  57   2.0000      -0.442888       -12.0516
  58   2.0000      -0.432724       -11.7750
  59   2.0000      -0.431203       -11.7336
  60   2.0000      -0.426177       -11.5969
  61   2.0000      -0.412468       -11.2238
  62   2.0000      -0.410240       -11.1632
  63   2.0000      -0.343390        -9.3441
  64   2.0000      -0.336025        -9.1437
  65   2.0000      -0.329869        -8.9762
  66   2.0000      -0.294554        -8.0152
  67   0.0000       0.033053         0.8994
  68   0.0000       0.071507         1.9458
  69   0.0000       0.102931         2.8009
  70   0.0000       0.121922         3.3177
  71   0.0000       0.129540         3.5250

MULLIKEN ATOMIC CHARGES
-----------------------
   0 S :    0.103507
   1 C :   -0.137606
   2 C :   -0.071868
   3 C :    0.026843
   4 C :   -0.137237
   5 H :   -0.005088
   6 C :    0.098772
   7 H :    0.021221
   8 H :    0.011713
   9 C :   -0.083633
  10 H :    0.042007
  11 H :    0.029403
  12 C :   -0.066125
  13 H :    0.027207
  14 H :    0.041596
  15 H :    0.035555
  16 S :    0.122209
  17 C :   -0.090302
  18 C :   -0.048020
  19 C :   -0.038440
  20 C :   -0.153945
  21 H :    0.030711
  22 C :    0.116122
  23 H :    0.010764
  24 H :   -0.000790
  25 C :   -0.031727
  26 H :    0.024158
  27 H :    0.018670
  28 C :   -0.074003
  29 H :    0.017371
  30 H :    0.023390
  31 H :    0.041107
  32 H :    0.045585
  33 H :    0.050875
Sum of atomic charges:    0.0000000

LOEWDIN ATOMIC CHARGES
----------------------
   0 S :    0.386939
   1 C :   -0.171409
   2 C :   -0.054766
   3 C :   -0.066061
   4 C :   -0.188794
   5 H :    0.028858
   6 C :   -0.029517
   7 H :    0.025199
   8 H :    0.031964
   9 C :   -0.034594
  10 H :    0.029414
  11 H :    0.022897
  12 C :   -0.072752
  13 H :    0.024882
  14 H :    0.031101
  15 H :    0.023103
  16 S :    0.423531
  17 C :   -0.188954
  18 C :   -0.072608
  19 C :   -0.058636
  20 C :   -0.214310
  21 H :    0.039349
  22 C :   -0.020028
  23 H :    0.017223
  24 H :    0.032232
  25 C :   -0.030299
  26 H :    0.024307
  27 H :    0.012233
  28 C :   -0.078993
  29 H :    0.021995
  30 H :    0.022823
  31 H :    0.032115
  32 H :    0.022196
  33 H :    0.029360

  Mayer bond orders larger than 0.100000
B(  0-S ,  1-C ) :   1.1219 B(  0-S ,  4-C ) :   1.1550 B(  1-C ,  2-C ) :   1.6298
B(  1-C , 32-H ) :   0.9719 B(  2-C ,  3-C ) :   1.2259 B(  2-C ,  6-C ) :   1.0109
B(  3-C ,  4-C ) :   1.6041 B(  3-C ,  5-H ) :   0.9910 B(  4-C , 20-C ) :   1.0046
B(  6-C ,  7-H ) :   0.9379 B(  6-C ,  8-H ) :   0.9366 B(  6-C ,  9-C ) :   1.0660
B(  9-C , 10-H ) :   0.9599 B(  9-C , 11-H ) :   0.9544 B(  9-C , 12-C ) :   1.0627
B( 12-C , 13-H ) :   0.9752 B( 12-C , 14-H ) :   0.9785 B( 12-C , 15-H ) :   0.9770
B( 16-S , 17-C ) :   1.1517 B( 16-S , 20-C ) :   1.1551 B( 17-C , 18-C ) :   1.6115
B( 17-C , 33-H ) :   0.9668 B( 18-C , 19-C ) :   1.2554 B( 18-C , 21-H ) :   0.9843
B( 19-C , 20-C ) :   1.5895 B( 19-C , 22-C ) :   1.0603 B( 22-C , 23-H ) :   0.9321
B( 22-C , 24-H ) :   0.9205 B( 22-C , 25-C ) :   1.0494 B( 25-C , 26-H ) :   0.9539
B( 25-C , 27-H ) :   0.9558 B( 25-C , 28-C ) :   1.0742 B( 28-C , 29-H ) :   0.9726
B( 28-C , 30-H ) :   0.9742 B( 28-C , 31-H ) :   0.9763

Dispersion correction           -0.014215332
FINAL SINGLE POINT ENERGY     -1339.866306896212

DIPOLE MOMENT
-------------
                                X             Y             Z
Electronic contribution:     11.45756     -27.78168      -5.40288
Nuclear contribution   :    -11.87459      28.26208       5.57084
                        -----------------------------------------
Total Dipole Moment    :     -0.41703       0.48040       0.16796
                        -----------------------------------------
Magnitude (a.u.)       :      0.65796
Magnitude (Debye)      :      1.67241

Rotational constants in cm-1:     0.018676     0.008549     0.006495
Rotational constants in MHz :   559.906789   256.284914   194.707396

                             ****ORCA TERMINATED NORMALLY****
TOTAL RUN TIME: 0 days 0 hours 0 minutes 21 seconds 544 msec
