                         Program Version 4.2.1 -  RELEASE  -
|  1> ! wB97X-D3 SP def2-SVP
|  2> %pal
|  3> nprocs 24
|  4> end
|  5>
|  6> * xyz 0 1
|  7> S 	 -81.4027 	 -11.6844 	 -59.6038
|  8> C 	 -81.4351 	 -10.0446 	 -60.1265
|  9> C 	 -81.5387 	 -9.13365 	 -59.0629
| 10> C 	 -82.0108 	 -9.89502 	 -57.879
| 11> C 	 -82.1225 	 -11.253 	 -58.1164
| 12> H 	 -82.3053 	 -9.48565 	 -56.9045
| 13> C 	 -81.5007 	 -7.68474 	 -59.1109
| 14> H 	 -80.6222 	 -7.39403 	 -59.6898
| 15> H 	 -81.3704 	 -7.27211 	 -58.0743
| 16> C 	 -82.6931 	 -6.94708 	 -59.7699
| 17> H 	 -82.9241 	 -7.30047 	 -60.8111
| 18> H 	 -83.6035 	 -7.27861 	 -59.2239
| 19> C 	 -82.7079 	 -5.39977 	 -59.6914
| 20> H 	 -83.0352 	 -4.97463 	 -58.7541
| 21> H 	 -81.8166 	 -4.96509 	 -60.0758
| 22> H 	 -83.4206 	 -5.13918 	 -60.4146
| 23> S 	 -81.3924 	 -13.3657 	 -56.4959
| 24> C 	 -82.5991 	 -14.1376 	 -55.5157
| 25> C 	 -83.8412 	 -13.5096 	 -55.6706
| 26> C 	 -83.7746 	 -12.3516 	 -56.4888
| 27> C 	 -82.5902 	 -12.2135 	 -57.1726
| 28> H 	 -84.675 	 -13.8136 	 -55.1066
| 29> C 	 -85.0066 	 -11.5552 	 -56.8841
| 30> H 	 -84.6402 	 -10.6096 	 -57.44
| 31> H 	 -85.6967 	 -11.3665 	 -55.9998
| 32> C 	 -86.015 	 -12.4147 	 -57.8433
| 33> H 	 -86.8841 	 -11.7379 	 -57.9925
| 34> H 	 -86.4249 	 -13.28 	 -57.3709
| 35> C 	 -85.5653 	 -12.5957 	 -59.2957
| 36> H 	 -85.0167 	 -11.7047 	 -59.5317
| 37> H 	 -86.3162 	 -12.66 	 -60.0594
| 38> H 	 -84.8156 	 -13.4062 	 -59.4466
| 39> H 	 -81.3868 	 -9.8078 	 -61.2441
| 40> H 	 -82.5492 	 -15.0053 	 -54.912
| 41> *
| 42>
| 43>                          ****END OF INPUT****

CARTESIAN COORDINATES (ANGSTROEM)
---------------------------------
  S    -81.402700  -11.684400  -59.603800
  C    -81.435100  -10.044600  -60.126500
  C    -81.538700   -9.133650  -59.062900
  C    -82.010800   -9.895020  -57.879000
  C    -82.122500  -11.253000  -58.116400
  H    -82.305300   -9.485650  -56.904500
  C    -81.500700   -7.684740  -59.110900
  H    -80.622200   -7.394030  -59.689800
  H    -81.370400   -7.272110  -58.074300
  C    -82.693100   -6.947080  -59.769900
  H    -82.924100   -7.300470  -60.811100
  H    -83.603500   -7.278610  -59.223900
  C    -82.707900   -5.399770  -59.691400
  H    -83.035200   -4.974630  -58.754100
  H    -81.816600   -4.965090  -60.075800
  H    -83.420600   -5.139180  -60.414600
  S    -81.392400  -13.365700  -56.495900
  C    -82.599100  -14.137600  -55.515700
  C    -83.841200  -13.509600  -55.670600
  C    -83.774600  -12.351600  -56.488800
  C    -82.590200  -12.213500  -57.172600
  H    -84.675000  -13.813600  -55.106600
  C    -85.006600  -11.555200  -56.884100
  H    -84.640200  -10.609600  -57.440000
  H    -85.696700  -11.366500  -55.999800
  C    -86.015000  -12.414700  -57.843300
  H    -86.884100  -11.737900  -57.992500
  H    -86.424900  -13.280000  -57.370900
  C    -85.565300  -12.595700  -59.295700
  H    -85.016700  -11.704700  -59.531700
  H    -86.316200  -12.660000  -60.059400
  H    -84.815600  -13.406200  -59.446600
  H    -81.386800   -9.807800  -61.244100
  H    -82.549200  -15.005300  -54.912000

 Total Charge           Charge          ....    0
 Multiplicity           Mult            ....    1
 Number of Electrons    NEL             ....  134
 Basis Dimension        Dim             ....  322

ORBITAL ENERGIES
----------------

  NO   OCC          E(Eh)            E(eV)
   0   2.0000     -88.966361     -2420.8978
   1   2.0000     -88.963284     -2420.8140
   2   2.0000     -10.323039      -280.9042
   3   2.0000     -10.322693      -280.8948
   4   2.0000     -10.321222      -280.8547
   5   2.0000     -10.314518      -280.6723
   6   2.0000     -10.308518      -280.5090
   7   2.0000     -10.306140      -280.4443
   8   2.0000     -10.300761      -280.2980
   9   2.0000     -10.299278      -280.2576
  10   2.0000     -10.295812      -280.1633
  11   2.0000     -10.294015      -280.1144
  12   2.0000     -10.288581      -279.9665
  13   2.0000     -10.287955      -279.9495
  14   2.0000     -10.274781      -279.5910
  15   2.0000     -10.267494      -279.3927
  16   2.0000      -8.082553      -219.9375
  17   2.0000      -8.077586      -219.8023
  18   2.0000      -6.040961      -164.3829
  19   2.0000      -6.037003      -164.2752
  20   2.0000      -6.036132      -164.2515
  21   2.0000      -6.033180      -164.1712
  22   2.0000      -6.032141      -164.1429
  23   2.0000      -6.028347      -164.0397
  24   2.0000      -1.010742       -27.5037
  25   2.0000      -0.983693       -26.7676
  26   2.0000      -0.914986       -24.8980
  27   2.0000      -0.894423       -24.3385
  28   2.0000      -0.871123       -23.7045
  29   2.0000      -0.854119       -23.2418
  30   2.0000      -0.844152       -22.9705
  31   2.0000      -0.812235       -22.1020
  32   2.0000      -0.783339       -21.3157
  33   2.0000      -0.766606       -20.8604
  34   2.0000      -0.705652       -19.2018
  35   2.0000      -0.700534       -19.0625
  36   2.0000      -0.693136       -18.8612
  37   2.0000      -0.660613       -17.9762
  38   2.0000      -0.643011       -17.4972
  39   2.0000      -0.615813       -16.7571
  40   2.0000      -0.585228       -15.9249
  41   2.0000      -0.571711       -15.5570
  42   2.0000      -0.560356       -15.2480
  43   2.0000      -0.544581       -14.8188
  44   2.0000      -0.534793       -14.5525
  45   2.0000      -0.524314       -14.2673
  46   2.0000      -0.517921       -14.0933
  47   2.0000      -0.516765       -14.0619
  48   2.0000      -0.507306       -13.8045
  49   2.0000      -0.497404       -13.5351
  50   2.0000      -0.492285       -13.3957
  51   2.0000      -0.475112       -12.9285
  52   2.0000      -0.470021       -12.7899
  53   2.0000      -0.465185       -12.6583
  54   2.0000      -0.452889       -12.3237
  55   2.0000      -0.451314       -12.2809
  56   2.0000      -0.441076       -12.0023
  57   2.0000      -0.437668       -11.9095
  58   2.0000      -0.432713       -11.7747
  59   2.0000      -0.425093       -11.5674
  60   2.0000      -0.422388       -11.4938
  61   2.0000      -0.415461       -11.3053
  62   2.0000      -0.403564       -10.9815
  63   2.0000      -0.340182        -9.2568
  64   2.0000      -0.328144        -8.9292
  65   2.0000      -0.324837        -8.8393
  66   2.0000      -0.290576        -7.9070
  67   0.0000       0.032546         0.8856
  68   0.0000       0.055064         1.4984
  69   0.0000       0.106005         2.8845
  70   0.0000       0.116634         3.1738
  71   0.0000       0.126366         3.4386

MULLIKEN ATOMIC CHARGES
-----------------------
   0 S :    0.134248
   1 C :   -0.163814
   2 C :   -0.063038
   3 C :    0.031716
   4 C :   -0.188038
   5 H :    0.024688
   6 C :    0.067254
   7 H :    0.028254
   8 H :    0.032754
   9 C :   -0.122041
  10 H :    0.030346
  11 H :    0.022535
  12 C :    0.006035
  13 H :    0.039699
  14 H :    0.021021
  15 H :    0.015207
  16 S :    0.101818
  17 C :   -0.063081
  18 C :   -0.036406
  19 C :    0.007738
  20 C :   -0.152697
  21 H :    0.002258
  22 C :   -0.011501
  23 H :    0.051827
  24 H :    0.041218
  25 C :   -0.081446
  26 H :    0.027467
  27 H :    0.027431
  28 C :   -0.036041
  29 H :    0.011716
  30 H :    0.030749
  31 H :    0.038686
  32 H :    0.080795
  33 H :    0.042644
Sum of atomic charges:   -0.0000000

LOEWDIN ATOMIC CHARGES
----------------------
   0 S :    0.434824
   1 C :   -0.211359
   2 C :   -0.061042
   3 C :   -0.053006
   4 C :   -0.220055
   5 H :    0.034542
   6 C :   -0.047102
   7 H :    0.033192
   8 H :    0.039716
   9 C :   -0.042332
  10 H :    0.025976
  11 H :    0.025091
  12 C :   -0.059315
  13 H :    0.026825
  14 H :    0.020785
  15 H :    0.025987
  16 S :    0.390334
  17 C :   -0.182083
  18 C :   -0.066395
  19 C :   -0.064359
  20 C :   -0.187775
  21 H :    0.022847
  22 C :   -0.036382
  23 H :    0.039977
  24 H :    0.037974
  25 C :   -0.038452
  26 H :    0.027765
  27 H :    0.015585
  28 C :   -0.071837
  29 H :    0.023530
  30 H :    0.022572
  31 H :    0.027154
  32 H :    0.041608
  33 H :    0.025212

  Mayer bond orders larger than 0.100000
B(  0-S ,  1-C ) :   1.1559 B(  0-S ,  4-C ) :   1.1518 B(  1-C ,  2-C ) :   1.5844
B(  1-C , 32-H ) :   0.9634 B(  2-C ,  3-C ) :   1.2021 B(  2-C ,  6-C ) :   1.0643
B(  3-C ,  4-C ) :   1.5785 B(  3-C ,  5-H ) :   0.9926 B(  4-C , 20-C ) :   1.0404
B(  6-C ,  7-H ) :   0.9227 B(  6-C ,  8-H ) :   0.9369 B(  6-C ,  9-C ) :   1.0607
B(  9-C , 10-H ) :   0.9589 B(  9-C , 11-H ) :   0.9539 B(  9-C , 12-C ) :   1.0790
B( 12-C , 13-H ) :   0.9763 B( 12-C , 14-H ) :   0.9740 B( 12-C , 15-H ) :   0.9684
B( 16-S , 17-C ) :   1.1529 B( 16-S , 20-C ) :   1.1223 B( 17-C , 18-C ) :   1.6157
B( 17-C , 20-C ) :   0.1060 B( 17-C , 33-H ) :   0.9697 B( 18-C , 19-C ) :   1.2241
B( 18-C , 21-H ) :   0.9934 B( 19-C , 20-C ) :   1.6077 B( 19-C , 22-C ) :   1.0610
B( 22-C , 23-H ) :   0.9345 B( 22-C , 24-H ) :   0.9327 B( 22-C , 25-C ) :   1.0658
B( 25-C , 26-H ) :   0.9579 B( 25-C , 27-H ) :   0.9598 B( 25-C , 28-C ) :   1.0631
B( 28-C , 29-H ) :   0.9696 B( 28-C , 30-H ) :   0.9779 B( 28-C , 31-H ) :   0.9750

Dispersion correction           -0.015058815
FINAL SINGLE POINT ENERGY     -1339.856372039801

DIPOLE MOMENT
-------------
                                X             Y             Z
Electronic contribution:     17.14053     -20.27129       7.08991
Nuclear contribution   :    -17.62102      20.83743      -7.15445
                        -----------------------------------------
Total Dipole Moment    :     -0.48049       0.56615      -0.06454
                        -----------------------------------------
Magnitude (a.u.)       :      0.74536
Magnitude (Debye)      :      1.89455

Rotational constants in cm-1:     0.021040     0.008084     0.007116
Rotational constants in MHz :   630.759871   242.348700   213.346781

                             ****ORCA TERMINATED NORMALLY****
TOTAL RUN TIME: 0 days 0 hours 0 minutes 20 seconds 964 msec
