                         Program Version 4.2.1 -  RELEASE  -
|  1> ! wB97X-D3 SP def2-SVP
|  2> %pal
|  3> nprocs 24
|  4> end
|  5>
|  6> * xyz 0 1
|  7> S 	 -137.595 	 6.37045 	 -14.8288
|  8> C 	 -138.732 	 7.73643 	 -15.1259
|  9> C 	 -138.076 	 8.94765 	 -14.9677
| 10> C 	 -136.721 	 8.78525 	 -14.6275
| 11> C 	 -136.273 	 7.48714 	 -14.4177
| 12> H 	 -135.925 	 9.56627 	 -14.6298
| 13> C 	 -138.659 	 10.3097 	 -15.3588
| 14> H 	 -139.639 	 10.4126 	 -14.8306
| 15> H 	 -138.812 	 10.4252 	 -16.4398
| 16> C 	 -137.822 	 11.5275 	 -14.7972
| 17> H 	 -137.612 	 11.3396 	 -13.6932
| 18> H 	 -136.849 	 11.6869 	 -15.3097
| 19> C 	 -138.689 	 12.7951 	 -14.8509
| 20> H 	 -138.044 	 13.6368 	 -14.6458
| 21> H 	 -139.021 	 12.9097 	 -15.8062
| 22> H 	 -139.474 	 12.8973 	 -14.1121
| 23> S 	 -134.252 	 5.59826 	 -14.956
| 24> C 	 -132.631 	 5.79628 	 -14.3634
| 25> C 	 -132.5 	 6.93631 	 -13.5637
| 26> C 	 -133.754 	 7.6949 	 -13.5481
| 27> C 	 -134.836 	 7.12439 	 -14.2674
| 28> H 	 -131.581 	 7.11421 	 -13.0664
| 29> C 	 -133.956 	 8.84052 	 -12.6282
| 30> H 	 -133.642 	 8.67706 	 -11.5809
| 31> H 	 -134.989 	 9.14267 	 -12.7021
| 32> C 	 -133.155 	 10.0792 	 -12.868
| 33> H 	 -133.477 	 10.4134 	 -13.8486
| 34> H 	 -132.077 	 9.67747 	 -12.8774
| 35> C 	 -133.338 	 11.229 	 -11.8941
| 36> H 	 -132.67 	 12.0715 	 -12.0548
| 37> H 	 -133.28 	 10.9432 	 -10.8283
| 38> H 	 -134.383 	 11.5771 	 -11.909
| 39> H 	 -139.704 	 7.61522 	 -15.6446
| 40> H 	 -131.937 	 5.00238 	 -14.4371
| 41> *
| 42>
| 43>                          ****END OF INPUT****

CARTESIAN COORDINATES (ANGSTROEM)
---------------------------------
  S    -137.595000    6.370450  -14.828800
  C    -138.732000    7.736430  -15.125900
  C    -138.076000    8.947650  -14.967700
  C    -136.721000    8.785250  -14.627500
  C    -136.273000    7.487140  -14.417700
  H    -135.925000    9.566270  -14.629800
  C    -138.659000   10.309700  -15.358800
  H    -139.639000   10.412600  -14.830600
  H    -138.812000   10.425200  -16.439800
  C    -137.822000   11.527500  -14.797200
  H    -137.612000   11.339600  -13.693200
  H    -136.849000   11.686900  -15.309700
  C    -138.689000   12.795100  -14.850900
  H    -138.044000   13.636800  -14.645800
  H    -139.021000   12.909700  -15.806200
  H    -139.474000   12.897300  -14.112100
  S    -134.252000    5.598260  -14.956000
  C    -132.631000    5.796280  -14.363400
  C    -132.500000    6.936310  -13.563700
  C    -133.754000    7.694900  -13.548100
  C    -134.836000    7.124390  -14.267400
  H    -131.581000    7.114210  -13.066400
  C    -133.956000    8.840520  -12.628200
  H    -133.642000    8.677060  -11.580900
  H    -134.989000    9.142670  -12.702100
  C    -133.155000   10.079200  -12.868000
  H    -133.477000   10.413400  -13.848600
  H    -132.077000    9.677470  -12.877400
  C    -133.338000   11.229000  -11.894100
  H    -132.670000   12.071500  -12.054800
  H    -133.280000   10.943200  -10.828300
  H    -134.383000   11.577100  -11.909000
  H    -139.704000    7.615220  -15.644600
  H    -131.937000    5.002380  -14.437100

 Total Charge           Charge          ....    0
 Multiplicity           Mult            ....    1
 Number of Electrons    NEL             ....  134
 Basis Dimension        Dim             ....  322

ORBITAL ENERGIES
----------------

  NO   OCC          E(Eh)            E(eV)
   0   2.0000     -88.971181     -2421.0289
   1   2.0000     -88.965309     -2420.8691
   2   2.0000     -10.339490      -281.3518
   3   2.0000     -10.339069      -281.3404
   4   2.0000     -10.323688      -280.9218
   5   2.0000     -10.320179      -280.8263
   6   2.0000     -10.311830      -280.5991
   7   2.0000     -10.305901      -280.4378
   8   2.0000     -10.302581      -280.3475
   9   2.0000     -10.301803      -280.3263
  10   2.0000     -10.298822      -280.2452
  11   2.0000     -10.297938      -280.2211
  12   2.0000     -10.286584      -279.9122
  13   2.0000     -10.281537      -279.7749
  14   2.0000     -10.281320      -279.7689
  15   2.0000     -10.271309      -279.4965
  16   2.0000      -8.084344      -219.9862
  17   2.0000      -8.080038      -219.8690
  18   2.0000      -6.043097      -164.4410
  19   2.0000      -6.039081      -164.3317
  20   2.0000      -6.038581      -164.3181
  21   2.0000      -6.034900      -164.2180
  22   2.0000      -6.034429      -164.2052
  23   2.0000      -6.030884      -164.1087
  24   2.0000      -1.001092       -27.2411
  25   2.0000      -0.980746       -26.6875
  26   2.0000      -0.918318       -24.9887
  27   2.0000      -0.908126       -24.7114
  28   2.0000      -0.870141       -23.6777
  29   2.0000      -0.851854       -23.1801
  30   2.0000      -0.843705       -22.9584
  31   2.0000      -0.816836       -22.2272
  32   2.0000      -0.782562       -21.2946
  33   2.0000      -0.773467       -21.0471
  34   2.0000      -0.710208       -19.3257
  35   2.0000      -0.692880       -18.8542
  36   2.0000      -0.691135       -18.8067
  37   2.0000      -0.658914       -17.9300
  38   2.0000      -0.638920       -17.3859
  39   2.0000      -0.620440       -16.8830
  40   2.0000      -0.599702       -16.3187
  41   2.0000      -0.579077       -15.7575
  42   2.0000      -0.575225       -15.6527
  43   2.0000      -0.566591       -15.4177
  44   2.0000      -0.528561       -14.3829
  45   2.0000      -0.523344       -14.2409
  46   2.0000      -0.517098       -14.0709
  47   2.0000      -0.513238       -13.9659
  48   2.0000      -0.501539       -13.6476
  49   2.0000      -0.500881       -13.6297
  50   2.0000      -0.489712       -13.3258
  51   2.0000      -0.484852       -13.1935
  52   2.0000      -0.475072       -12.9274
  53   2.0000      -0.464794       -12.6477
  54   2.0000      -0.462118       -12.5749
  55   2.0000      -0.452976       -12.3261
  56   2.0000      -0.447184       -12.1685
  57   2.0000      -0.434642       -11.8272
  58   2.0000      -0.428563       -11.6618
  59   2.0000      -0.423117       -11.5136
  60   2.0000      -0.415490       -11.3060
  61   2.0000      -0.412968       -11.2374
  62   2.0000      -0.411819       -11.2062
  63   2.0000      -0.355834        -9.6827
  64   2.0000      -0.335351        -9.1254
  65   2.0000      -0.327297        -8.9062
  66   2.0000      -0.287093        -7.8122
  67   0.0000       0.015094         0.4107
  68   0.0000       0.073656         2.0043
  69   0.0000       0.104486         2.8432
  70   0.0000       0.110087         2.9956
  71   0.0000       0.126385         3.4391

MULLIKEN ATOMIC CHARGES
-----------------------
   0 S :    0.095972
   1 C :   -0.142587
   2 C :   -0.061047
   3 C :   -0.025176
   4 C :   -0.097348
   5 H :    0.032234
   6 C :    0.042219
   7 H :    0.041522
   8 H :    0.055299
   9 C :   -0.162769
  10 H :    0.045530
  11 H :    0.049936
  12 C :    0.016178
  13 H :    0.018526
  14 H :    0.008403
  15 H :    0.036165
  16 S :    0.087782
  17 C :   -0.084119
  18 C :   -0.010454
  19 C :   -0.035560
  20 C :   -0.135568
  21 H :    0.018922
  22 C :    0.047637
  23 H :    0.025368
  24 H :    0.006081
  25 C :   -0.106176
  26 H :    0.017226
  27 H :    0.033020
  28 C :   -0.027292
  29 H :    0.046256
  30 H :    0.020429
  31 H :    0.021468
  32 H :    0.068752
  33 H :    0.053168
Sum of atomic charges:    0.0000000

LOEWDIN ATOMIC CHARGES
----------------------
   0 S :    0.378391
   1 C :   -0.185449
   2 C :   -0.069319
   3 C :   -0.069629
   4 C :   -0.183455
   5 H :    0.036962
   6 C :   -0.032903
   7 H :    0.039834
   8 H :    0.034660
   9 C :   -0.047053
  10 H :    0.031202
  11 H :    0.025384
  12 C :   -0.056914
  13 H :    0.027338
  14 H :    0.010514
  15 H :    0.026777
  16 S :    0.400041
  17 C :   -0.175670
  18 C :   -0.063138
  19 C :   -0.052426
  20 C :   -0.186462
  21 H :    0.029242
  22 C :   -0.043665
  23 H :    0.033647
  24 H :    0.021819
  25 C :   -0.045783
  26 H :    0.016167
  27 H :    0.026885
  28 C :   -0.070915
  29 H :    0.030039
  30 H :    0.025179
  31 H :    0.027627
  32 H :    0.039231
  33 H :    0.021844

  Mayer bond orders larger than 0.100000
B(  0-S ,  1-C ) :   1.1303 B(  0-S ,  4-C ) :   1.1383 B(  1-C ,  2-C ) :   1.6041
B(  1-C , 32-H ) :   0.9665 B(  2-C ,  3-C ) :   1.2784 B(  2-C ,  6-C ) :   1.0041
B(  3-C ,  4-C ) :   1.5432 B(  3-C ,  5-H ) :   0.9740 B(  4-C , 20-C ) :   1.0710
B(  6-C ,  7-H ) :   0.9454 B(  6-C ,  8-H ) :   0.9398 B(  6-C ,  9-C ) :   1.0726
B(  9-C , 10-H ) :   0.9593 B(  9-C , 11-H ) :   0.9486 B(  9-C , 12-C ) :   1.0839
B( 12-C , 13-H ) :   0.9683 B( 12-C , 14-H ) :   0.9716 B( 12-C , 15-H ) :   0.9749
B( 16-S , 17-C ) :   1.1755 B( 16-S , 20-C ) :   1.1234 B( 17-C , 18-C ) :   1.5904
B( 17-C , 33-H ) :   0.9709 B( 18-C , 19-C ) :   1.2272 B( 18-C , 21-H ) :   0.9989
B( 19-C , 20-C ) :   1.5651 B( 19-C , 22-C ) :   1.0726 B( 22-C , 23-H ) :   0.9348
B( 22-C , 24-H ) :   0.9291 B( 22-C , 25-C ) :   1.0465 B( 25-C , 26-H ) :   0.9504
B( 25-C , 27-H ) :   0.9565 B( 25-C , 28-C ) :   1.0893 B( 28-C , 29-H ) :   0.9741
B( 28-C , 30-H ) :   0.9686 B( 28-C , 31-H ) :   0.9672

Dispersion correction           -0.013759755
FINAL SINGLE POINT ENERGY     -1339.864232588438

DIPOLE MOMENT
-------------
                                X             Y             Z
Electronic contribution:      0.05559     -33.16936      -8.00346
Nuclear contribution   :     -0.00424      33.85763       8.04854
                        -----------------------------------------
Total Dipole Moment    :      0.05135       0.68828       0.04508
                        -----------------------------------------
Magnitude (a.u.)       :      0.69166
Magnitude (Debye)      :      1.75806

Rotational constants in cm-1:     0.015896     0.009797     0.006348
Rotational constants in MHz :   476.535746   293.715874   190.322440

                             ****ORCA TERMINATED NORMALLY****
TOTAL RUN TIME: 0 days 0 hours 0 minutes 21 seconds 657 msec
