                         Program Version 4.2.1 -  RELEASE  -
|  1> ! wB97X-D3 SP def2-SVP
|  2> %pal
|  3> nprocs 24
|  4> end
|  5>
|  6> * xyz 0 1
|  7> S 	 -97.6999 	 15.2215 	 -119.442
|  8> C 	 -96.0273 	 15.8538 	 -119.669
|  9> C 	 -95.108 	 14.9757 	 -119.128
| 10> C 	 -95.6891 	 13.7737 	 -118.745
| 11> C 	 -97.0609 	 13.6402 	 -118.961
| 12> H 	 -95.2958 	 12.9191 	 -118.243
| 13> C 	 -93.6557 	 15.207 	 -118.967
| 14> H 	 -93.5068 	 15.2711 	 -117.855
| 15> H 	 -93.2094 	 16.1345 	 -119.262
| 16> C 	 -92.7343 	 14.1489 	 -119.608
| 17> H 	 -91.8139 	 14.2605 	 -119.129
| 18> H 	 -93.1679 	 13.1423 	 -119.355
| 19> C 	 -92.5035 	 14.3836 	 -121.185
| 20> H 	 -93.4308 	 14.6839 	 -121.67
| 21> H 	 -91.7028 	 15.0632 	 -121.509
| 22> H 	 -92.172 	 13.4048 	 -121.647
| 23> S 	 -99.5637 	 12.9452 	 -117.924
| 24> C 	 -99.9084 	 11.249 	 -117.666
| 25> C 	 -98.8506 	 10.4498 	 -118.055
| 26> C 	 -97.7138 	 11.1192 	 -118.657
| 27> C 	 -97.9374 	 12.5369 	 -118.537
| 28> H 	 -98.9087 	 9.40462 	 -117.832
| 29> C 	 -96.4376 	 10.3301 	 -119.07
| 30> H 	 -96.4749 	 9.32194 	 -118.555
| 31> H 	 -95.5349 	 10.8299 	 -118.827
| 32> C 	 -96.2258 	 10.2177 	 -120.607
| 33> H 	 -95.2647 	 9.74551 	 -120.808
| 34> H 	 -96.3237 	 11.1693 	 -121.106
| 35> C 	 -97.33 	 9.45222 	 -121.243
| 36> H 	 -97.5261 	 8.5309 	 -120.746
| 37> H 	 -97.1729 	 9.22567 	 -122.244
| 38> H 	 -98.2319 	 10.0326 	 -121.228
| 39> H 	 -95.8652 	 16.9327 	 -119.864
| 40> H 	 -100.761 	 10.8045 	 -117.275
| 41> *
| 42>
| 43>                          ****END OF INPUT****

CARTESIAN COORDINATES (ANGSTROEM)
---------------------------------
  S    -97.699900   15.221500  -119.442000
  C    -96.027300   15.853800  -119.669000
  C    -95.108000   14.975700  -119.128000
  C    -95.689100   13.773700  -118.745000
  C    -97.060900   13.640200  -118.961000
  H    -95.295800   12.919100  -118.243000
  C    -93.655700   15.207000  -118.967000
  H    -93.506800   15.271100  -117.855000
  H    -93.209400   16.134500  -119.262000
  C    -92.734300   14.148900  -119.608000
  H    -91.813900   14.260500  -119.129000
  H    -93.167900   13.142300  -119.355000
  C    -92.503500   14.383600  -121.185000
  H    -93.430800   14.683900  -121.670000
  H    -91.702800   15.063200  -121.509000
  H    -92.172000   13.404800  -121.647000
  S    -99.563700   12.945200  -117.924000
  C    -99.908400   11.249000  -117.666000
  C    -98.850600   10.449800  -118.055000
  C    -97.713800   11.119200  -118.657000
  C    -97.937400   12.536900  -118.537000
  H    -98.908700    9.404620  -117.832000
  C    -96.437600   10.330100  -119.070000
  H    -96.474900    9.321940  -118.555000
  H    -95.534900   10.829900  -118.827000
  C    -96.225800   10.217700  -120.607000
  H    -95.264700    9.745510  -120.808000
  H    -96.323700   11.169300  -121.106000
  C    -97.330000    9.452220  -121.243000
  H    -97.526100    8.530900  -120.746000
  H    -97.172900    9.225670  -122.244000
  H    -98.231900   10.032600  -121.228000
  H    -95.865200   16.932700  -119.864000
  H    -100.761000   10.804500  -117.275000

 Total Charge           Charge          ....    0
 Multiplicity           Mult            ....    1
 Number of Electrons    NEL             ....  134
 Basis Dimension        Dim             ....  322

ORBITAL ENERGIES
----------------

  NO   OCC          E(Eh)            E(eV)
   0   2.0000     -88.972957     -2421.0772
   1   2.0000     -88.963817     -2420.8285
   2   2.0000     -10.339990      -281.3654
   3   2.0000     -10.333637      -281.1925
   4   2.0000     -10.319269      -280.8016
   5   2.0000     -10.317317      -280.7485
   6   2.0000     -10.314460      -280.6707
   7   2.0000     -10.302305      -280.3400
   8   2.0000     -10.302286      -280.3394
   9   2.0000     -10.295276      -280.1487
  10   2.0000     -10.292906      -280.0842
  11   2.0000     -10.291870      -280.0560
  12   2.0000     -10.289998      -280.0051
  13   2.0000     -10.286567      -279.9117
  14   2.0000     -10.280784      -279.7544
  15   2.0000     -10.255938      -279.0783
  16   2.0000      -8.086744      -220.0515
  17   2.0000      -8.077585      -219.8023
  18   2.0000      -6.045350      -164.5023
  19   2.0000      -6.041427      -164.3956
  20   2.0000      -6.037420      -164.2866
  21   2.0000      -6.036129      -164.2514
  22   2.0000      -6.032395      -164.1498
  23   2.0000      -6.028210      -164.0359
  24   2.0000      -1.001085       -27.2409
  25   2.0000      -0.979543       -26.6547
  26   2.0000      -0.912616       -24.8336
  27   2.0000      -0.910086       -24.7647
  28   2.0000      -0.864398       -23.5215
  29   2.0000      -0.851922       -23.1820
  30   2.0000      -0.839297       -22.8384
  31   2.0000      -0.812653       -22.1134
  32   2.0000      -0.786714       -21.4076
  33   2.0000      -0.775253       -21.0957
  34   2.0000      -0.713249       -19.4085
  35   2.0000      -0.699718       -19.0403
  36   2.0000      -0.687870       -18.7179
  37   2.0000      -0.658331       -17.9141
  38   2.0000      -0.644274       -17.5316
  39   2.0000      -0.624998       -17.0071
  40   2.0000      -0.597841       -16.2681
  41   2.0000      -0.568126       -15.4595
  42   2.0000      -0.559851       -15.2343
  43   2.0000      -0.551114       -14.9966
  44   2.0000      -0.545921       -14.8553
  45   2.0000      -0.526235       -14.3196
  46   2.0000      -0.518393       -14.1062
  47   2.0000      -0.509890       -13.8748
  48   2.0000      -0.501825       -13.6554
  49   2.0000      -0.489858       -13.3297
  50   2.0000      -0.485893       -13.2218
  51   2.0000      -0.481407       -13.0997
  52   2.0000      -0.476437       -12.9645
  53   2.0000      -0.466062       -12.6822
  54   2.0000      -0.461375       -12.5547
  55   2.0000      -0.446520       -12.1504
  56   2.0000      -0.442929       -12.0527
  57   2.0000      -0.433974       -11.8090
  58   2.0000      -0.429678       -11.6921
  59   2.0000      -0.429100       -11.6764
  60   2.0000      -0.424551       -11.5526
  61   2.0000      -0.417513       -11.3611
  62   2.0000      -0.407766       -11.0959
  63   2.0000      -0.352122        -9.5817
  64   2.0000      -0.335445        -9.1279
  65   2.0000      -0.329455        -8.9649
  66   2.0000      -0.283243        -7.7074
  67   0.0000       0.014657         0.3988
  68   0.0000       0.072390         1.9698
  69   0.0000       0.094671         2.5761
  70   0.0000       0.117882         3.2077
  71   0.0000       0.127526         3.4702

MULLIKEN ATOMIC CHARGES
-----------------------
   0 S :    0.072116
   1 C :   -0.135665
   2 C :   -0.019779
   3 C :   -0.004446
   4 C :   -0.124326
   5 H :    0.004272
   6 C :    0.034767
   7 H :    0.043423
   8 H :    0.007600
   9 C :   -0.054213
  10 H :    0.019627
  11 H :    0.037210
  12 C :   -0.086586
  13 H :    0.044460
  14 H :    0.040255
  15 H :    0.038452
  16 S :    0.114242
  17 C :   -0.057525
  18 C :   -0.039671
  19 C :   -0.031972
  20 C :   -0.162886
  21 H :    0.013305
  22 C :    0.056646
  23 H :    0.044137
  24 H :    0.018502
  25 C :   -0.077247
  26 H :    0.030948
  27 H :    0.041512
  28 C :   -0.009416
  29 H :    0.004077
  30 H :    0.012048
  31 H :    0.030347
  32 H :    0.066233
  33 H :    0.029552
Sum of atomic charges:    0.0000000

LOEWDIN ATOMIC CHARGES
----------------------
   0 S :    0.365261
   1 C :   -0.186278
   2 C :   -0.064731
   3 C :   -0.066958
   4 C :   -0.177627
   5 H :    0.026768
   6 C :   -0.038735
   7 H :    0.042998
   8 H :    0.025221
   9 C :   -0.030081
  10 H :    0.016755
  11 H :    0.026312
  12 C :   -0.075229
  13 H :    0.025509
  14 H :    0.027005
  15 H :    0.033041
  16 S :    0.398116
  17 C :   -0.180957
  18 C :   -0.065887
  19 C :   -0.050003
  20 C :   -0.185089
  21 H :    0.026665
  22 C :   -0.025709
  23 H :    0.039554
  24 H :    0.022906
  25 C :   -0.035016
  26 H :    0.023127
  27 H :    0.031220
  28 C :   -0.060155
  29 H :    0.014686
  30 H :    0.016167
  31 H :    0.026468
  32 H :    0.035279
  33 H :    0.019398

  Mayer bond orders larger than 0.100000
B(  0-S ,  1-C ) :   1.1240 B(  0-S ,  4-C ) :   1.1432 B(  1-C ,  2-C ) :   1.5896
B(  1-C ,  4-C ) :   0.1002 B(  1-C , 32-H ) :   0.9655 B(  2-C ,  3-C ) :   1.2361
B(  2-C ,  6-C ) :   1.0301 B(  3-C ,  4-C ) :   1.5643 B(  3-C ,  5-H ) :   0.9921
B(  4-C , 20-C ) :   1.0787 B(  6-C ,  7-H ) :   0.9326 B(  6-C ,  8-H ) :   0.9457
B(  6-C ,  9-C ) :   1.0716 B(  9-C , 10-H ) :   0.9543 B(  9-C , 11-H ) :   0.9625
B(  9-C , 12-C ) :   1.0529 B( 12-C , 13-H ) :   0.9818 B( 12-C , 14-H ) :   0.9775
B( 12-C , 15-H ) :   0.9775 B( 16-S , 17-C ) :   1.1323 B( 16-S , 20-C ) :   1.1454
B( 17-C , 18-C ) :   1.6379 B( 17-C , 33-H ) :   0.9727 B( 18-C , 19-C ) :   1.2322
B( 18-C , 21-H ) :   0.9838 B( 19-C , 20-C ) :   1.5621 B( 19-C , 22-C ) :   1.0227
B( 22-C , 23-H ) :   0.9448 B( 22-C , 24-H ) :   0.9409 B( 22-C , 25-C ) :   1.0642
B( 25-C , 26-H ) :   0.9575 B( 25-C , 27-H ) :   0.9561 B( 25-C , 28-C ) :   1.0868
B( 28-C , 29-H ) :   0.9726 B( 28-C , 30-H ) :   0.9697 B( 28-C , 31-H ) :   0.9705

Dispersion correction           -0.014641322
FINAL SINGLE POINT ENERGY     -1339.857267212515

DIPOLE MOMENT
-------------
                                X             Y             Z
Electronic contribution:    -23.58309      12.02667      11.39451
Nuclear contribution   :     24.19096     -12.39044     -11.26790
                        -----------------------------------------
Total Dipole Moment    :      0.60787      -0.36376       0.12662
                        -----------------------------------------
Magnitude (a.u.)       :      0.71962
Magnitude (Debye)      :      1.82914

Rotational constants in cm-1:     0.018521     0.009488     0.007035
Rotational constants in MHz :   555.241276   284.457294   210.918444

                             ****ORCA TERMINATED NORMALLY****
TOTAL RUN TIME: 0 days 0 hours 0 minutes 22 seconds 238 msec
