                         Program Version 4.2.1 -  RELEASE  -
|  1> ! wB97X-D3 SP def2-SVP
|  2> %pal
|  3> nprocs 24
|  4> end
|  5>
|  6> * xyz 0 1
|  7> S 	 -1.44896 	 -24.78 	 -111.071
|  8> C 	 -2.90523 	 -24.1535 	 -111.828
|  9> C 	 -2.97422 	 -22.7783 	 -111.62
| 10> C 	 -2.17917 	 -22.3885 	 -110.491
| 11> C 	 -1.27012 	 -23.3449 	 -110.033
| 12> H 	 -2.25609 	 -21.4858 	 -109.955
| 13> C 	 -3.903 	 -21.9125 	 -112.391
| 14> H 	 -3.68284 	 -21.9259 	 -113.446
| 15> H 	 -3.70855 	 -20.8412 	 -112.075
| 16> C 	 -5.40399 	 -22.2669 	 -112.124
| 17> H 	 -5.62517 	 -23.2439 	 -112.526
| 18> H 	 -5.63752 	 -22.2016 	 -111.043
| 19> C 	 -6.3109 	 -21.3199 	 -112.896
| 20> H 	 -7.31637 	 -21.5374 	 -112.739
| 21> H 	 -6.19226 	 -20.3425 	 -112.539
| 22> H 	 -6.09136 	 -21.2817 	 -113.949
| 23> S 	 0.978166 	 -22.4766 	 -108.66
| 24> C 	 1.16168 	 -22.8054 	 -106.944
| 25> C 	 0.0309723 	 -23.4618 	 -106.493
| 26> C 	 -0.922298 	 -23.7544 	 -107.526
| 27> C 	 -0.551571 	 -23.3511 	 -108.801
| 28> H 	 -0.0918762 	 -23.6234 	 -105.395
| 29> C 	 -2.34907 	 -24.3823 	 -107.226
| 30> H 	 -2.60224 	 -24.988 	 -108.088
| 31> H 	 -3.008 	 -23.5532 	 -107.193
| 32> C 	 -2.37008 	 -25.3821 	 -106.086
| 33> H 	 -1.89463 	 -24.9975 	 -105.194
| 34> H 	 -1.82773 	 -26.2646 	 -106.319
| 35> C 	 -3.83602 	 -25.6313 	 -105.621
| 36> H 	 -4.53368 	 -24.7583 	 -105.61
| 37> H 	 -3.98625 	 -25.9574 	 -104.636
| 38> H 	 -4.35309 	 -26.3675 	 -106.348
| 39> H 	 -3.40585 	 -24.6927 	 -112.617
| 40> H 	 1.87414 	 -22.2801 	 -106.247
| 41> *
| 42>
| 43>                          ****END OF INPUT****

CARTESIAN COORDINATES (ANGSTROEM)
---------------------------------
  S     -1.448960  -24.780000  -111.071000
  C     -2.905230  -24.153500  -111.828000
  C     -2.974220  -22.778300  -111.620000
  C     -2.179170  -22.388500  -110.491000
  C     -1.270120  -23.344900  -110.033000
  H     -2.256090  -21.485800  -109.955000
  C     -3.903000  -21.912500  -112.391000
  H     -3.682840  -21.925900  -113.446000
  H     -3.708550  -20.841200  -112.075000
  C     -5.403990  -22.266900  -112.124000
  H     -5.625170  -23.243900  -112.526000
  H     -5.637520  -22.201600  -111.043000
  C     -6.310900  -21.319900  -112.896000
  H     -7.316370  -21.537400  -112.739000
  H     -6.192260  -20.342500  -112.539000
  H     -6.091360  -21.281700  -113.949000
  S      0.978166  -22.476600  -108.660000
  C      1.161680  -22.805400  -106.944000
  C      0.030972  -23.461800  -106.493000
  C     -0.922298  -23.754400  -107.526000
  C     -0.551571  -23.351100  -108.801000
  H     -0.091876  -23.623400  -105.395000
  C     -2.349070  -24.382300  -107.226000
  H     -2.602240  -24.988000  -108.088000
  H     -3.008000  -23.553200  -107.193000
  C     -2.370080  -25.382100  -106.086000
  H     -1.894630  -24.997500  -105.194000
  H     -1.827730  -26.264600  -106.319000
  C     -3.836020  -25.631300  -105.621000
  H     -4.533680  -24.758300  -105.610000
  H     -3.986250  -25.957400  -104.636000
  H     -4.353090  -26.367500  -106.348000
  H     -3.405850  -24.692700  -112.617000
  H      1.874140  -22.280100  -106.247000

 Total Charge           Charge          ....    0
 Multiplicity           Mult            ....    1
 Number of Electrons    NEL             ....  134
 Basis Dimension        Dim             ....  322

ORBITAL ENERGIES
----------------

  NO   OCC          E(Eh)            E(eV)
   0   2.0000     -88.963256     -2420.8133
   1   2.0000     -88.961147     -2420.7559
   2   2.0000     -10.329323      -281.0752
   3   2.0000     -10.324056      -280.9318
   4   2.0000     -10.322603      -280.8923
   5   2.0000     -10.316663      -280.7307
   6   2.0000     -10.306334      -280.4496
   7   2.0000     -10.303319      -280.3676
   8   2.0000     -10.297361      -280.2054
   9   2.0000     -10.297054      -280.1971
  10   2.0000     -10.296430      -280.1801
  11   2.0000     -10.290989      -280.0321
  12   2.0000     -10.287251      -279.9303
  13   2.0000     -10.283950      -279.8405
  14   2.0000     -10.281339      -279.7695
  15   2.0000     -10.266149      -279.3561
  16   2.0000      -8.077362      -219.7962
  17   2.0000      -8.075611      -219.7486
  18   2.0000      -6.035903      -164.2453
  19   2.0000      -6.034149      -164.1975
  20   2.0000      -6.031890      -164.1361
  21   2.0000      -6.030030      -164.0855
  22   2.0000      -6.028160      -164.0346
  23   2.0000      -6.026451      -163.9881
  24   2.0000      -1.002407       -27.2769
  25   2.0000      -0.980726       -26.6869
  26   2.0000      -0.914001       -24.8712
  27   2.0000      -0.903620       -24.5888
  28   2.0000      -0.873100       -23.7583
  29   2.0000      -0.849542       -23.1172
  30   2.0000      -0.838720       -22.8227
  31   2.0000      -0.815467       -22.1900
  32   2.0000      -0.780189       -21.2300
  33   2.0000      -0.767728       -20.8909
  34   2.0000      -0.707734       -19.2584
  35   2.0000      -0.706206       -19.2168
  36   2.0000      -0.700395       -19.0587
  37   2.0000      -0.651193       -17.7199
  38   2.0000      -0.644637       -17.5415
  39   2.0000      -0.615987       -16.7619
  40   2.0000      -0.591366       -16.0919
  41   2.0000      -0.572074       -15.5669
  42   2.0000      -0.567100       -15.4316
  43   2.0000      -0.562468       -15.3055
  44   2.0000      -0.531892       -14.4735
  45   2.0000      -0.522770       -14.2253
  46   2.0000      -0.519962       -14.1489
  47   2.0000      -0.510433       -13.8896
  48   2.0000      -0.506687       -13.7876
  49   2.0000      -0.502696       -13.6790
  50   2.0000      -0.497762       -13.5448
  51   2.0000      -0.473083       -12.8733
  52   2.0000      -0.464463       -12.6387
  53   2.0000      -0.463603       -12.6153
  54   2.0000      -0.461821       -12.5668
  55   2.0000      -0.446189       -12.1414
  56   2.0000      -0.444366       -12.0918
  57   2.0000      -0.436279       -11.8718
  58   2.0000      -0.434089       -11.8122
  59   2.0000      -0.430266       -11.7081
  60   2.0000      -0.419279       -11.4092
  61   2.0000      -0.416712       -11.3393
  62   2.0000      -0.400124       -10.8879
  63   2.0000      -0.332895        -9.0585
  64   2.0000      -0.329244        -8.9592
  65   2.0000      -0.315034        -8.5725
  66   2.0000      -0.310894        -8.4599
  67   0.0000       0.032537         0.8854
  68   0.0000       0.052077         1.4171
  69   0.0000       0.104749         2.8504
  70   0.0000       0.123693         3.3659
  71   0.0000       0.136246         3.7074

MULLIKEN ATOMIC CHARGES
-----------------------
   0 S :    0.102798
   1 C :   -0.126823
   2 C :   -0.070784
   3 C :    0.065280
   4 C :   -0.181337
   5 H :   -0.002414
   6 C :    0.040529
   7 H :    0.033381
   8 H :    0.025454
   9 C :   -0.090116
  10 H :    0.028361
  11 H :    0.041478
  12 C :    0.013261
  13 H :    0.018370
  14 H :    0.005886
  15 H :    0.021754
  16 S :    0.094292
  17 C :   -0.109131
  18 C :   -0.067347
  19 C :   -0.047978
  20 C :   -0.160730
  21 H :    0.040140
  22 C :    0.115618
  23 H :    0.027813
  24 H :    0.030482
  25 C :   -0.054430
  26 H :    0.019392
  27 H :    0.035388
  28 C :   -0.073040
  29 H :    0.026309
  30 H :    0.020495
  31 H :    0.038326
  32 H :    0.056026
  33 H :    0.083297
Sum of atomic charges:   -0.0000000

LOEWDIN ATOMIC CHARGES
----------------------
   0 S :    0.392764
   1 C :   -0.184467
   2 C :   -0.065351
   3 C :   -0.043423
   4 C :   -0.195639
   5 H :    0.024767
   6 C :   -0.035842
   7 H :    0.030487
   8 H :    0.034364
   9 C :   -0.029343
  10 H :    0.020354
  11 H :    0.030643
  12 C :   -0.057332
  13 H :    0.018767
  14 H :    0.016813
  15 H :    0.023840
  16 S :    0.396978
  17 C :   -0.195015
  18 C :   -0.086841
  19 C :   -0.047538
  20 C :   -0.210430
  21 H :    0.038491
  22 C :   -0.019191
  23 H :    0.031992
  24 H :    0.027625
  25 C :   -0.036176
  26 H :    0.017696
  27 H :    0.026530
  28 C :   -0.072639
  29 H :    0.028792
  30 H :    0.014993
  31 H :    0.032210
  32 H :    0.024945
  33 H :    0.046177

  Mayer bond orders larger than 0.100000
B(  0-S ,  1-C ) :   1.1551 B(  0-S ,  4-C ) :   1.1294 B(  1-C ,  2-C ) :   1.5781
B(  1-C ,  4-C ) :   0.1040 B(  1-C , 32-H ) :   0.9708 B(  2-C ,  3-C ) :   1.2322
B(  2-C ,  6-C ) :   1.0340 B(  3-C ,  4-C ) :   1.5906 B(  3-C ,  5-H ) :   0.9981
B(  4-C , 20-C ) :   1.0333 B(  6-C ,  7-H ) :   0.9348 B(  6-C ,  8-H ) :   0.9461
B(  6-C ,  9-C ) :   1.0648 B(  9-C , 10-H ) :   0.9551 B(  9-C , 11-H ) :   0.9582
B(  9-C , 12-C ) :   1.0907 B( 12-C , 13-H ) :   0.9711 B( 12-C , 14-H ) :   0.9707
B( 12-C , 15-H ) :   0.9714 B( 16-S , 17-C ) :   1.1675 B( 16-S , 20-C ) :   1.1297
B( 17-C , 18-C ) :   1.6000 B( 17-C , 20-C ) :   0.1009 B( 17-C , 33-H ) :   0.9555
B( 18-C , 19-C ) :   1.2592 B( 18-C , 21-H ) :   0.9801 B( 19-C , 20-C ) :   1.5987
B( 19-C , 22-C ) :   1.0104 B( 22-C , 23-H ) :   0.9324 B( 22-C , 24-H ) :   0.9420
B( 22-C , 25-C ) :   1.0643 B( 25-C , 26-H ) :   0.9564 B( 25-C , 27-H ) :   0.9606
B( 25-C , 28-C ) :   1.0659 B( 28-C , 29-H ) :   0.9768 B( 28-C , 30-H ) :   0.9781
B( 28-C , 31-H ) :   0.9762

Dispersion correction           -0.013840119
FINAL SINGLE POINT ENERGY     -1339.861073429716

DIPOLE MOMENT
-------------
                                X             Y             Z
Electronic contribution:     26.95099      -0.89656      -3.48661
Nuclear contribution   :    -27.70566       1.20474       3.66183
                        -----------------------------------------
Total Dipole Moment    :     -0.75467       0.30819       0.17522
                        -----------------------------------------
Magnitude (a.u.)       :      0.83379
Magnitude (Debye)      :      2.11932

Rotational constants in cm-1:     0.017985     0.007699     0.006380
Rotational constants in MHz :   539.181514   230.795498   191.254435

                             ****ORCA TERMINATED NORMALLY****
TOTAL RUN TIME: 0 days 0 hours 0 minutes 20 seconds 878 msec
