                         Program Version 4.2.1 -  RELEASE  -
|  1> ! wB97X-D3 SP def2-SVP
|  2> %pal
|  3> nprocs 24
|  4> end
|  5>
|  6> * xyz 0 1
|  7> S 	 32.4322 	 -38.8149 	 -128.006
|  8> C 	 32.6246 	 -38.0035 	 -126.473
|  9> C 	 32.4082 	 -36.6308 	 -126.607
| 10> C 	 32.1006 	 -36.2681 	 -127.939
| 11> C 	 32.0555 	 -37.2534 	 -128.796
| 12> H 	 31.7529 	 -35.2516 	 -128.241
| 13> C 	 32.4433 	 -35.6022 	 -125.431
| 14> H 	 33.287 	 -34.9712 	 -125.622
| 15> H 	 32.8602 	 -36.0563 	 -124.55
| 16> C 	 31.0883 	 -34.8336 	 -125.235
| 17> H 	 31.1344 	 -34.0805 	 -124.433
| 18> H 	 30.9308 	 -34.333 	 -126.126
| 19> C 	 29.8329 	 -35.7518 	 -125.17
| 20> H 	 29.9399 	 -36.6952 	 -125.762
| 21> H 	 29.5343 	 -36.0507 	 -124.174
| 22> H 	 29.0161 	 -35.2475 	 -125.693
| 23> S 	 29.9046 	 -37.5053 	 -130.596
| 24> C 	 30.3156 	 -37.7148 	 -132.307
| 25> C 	 31.6773 	 -37.4094 	 -132.561
| 26> C 	 32.4238 	 -37.1571 	 -131.373
| 27> C 	 31.6381 	 -37.1674 	 -130.222
| 28> H 	 32.1316 	 -37.4557 	 -133.598
| 29> C 	 33.9617 	 -36.9628 	 -131.29
| 30> H 	 34.4808 	 -37.964 	 -131.049
| 31> H 	 34.3292 	 -36.1776 	 -130.596
| 32> C 	 34.5891 	 -36.5899 	 -132.663
| 33> H 	 34.1755 	 -35.6286 	 -132.935
| 34> H 	 34.3028 	 -37.3049 	 -133.419
| 35> C 	 36.1391 	 -36.4906 	 -132.67
| 36> H 	 36.457 	 -36.1352 	 -133.639
| 37> H 	 36.6413 	 -37.4418 	 -132.471
| 38> H 	 36.5678 	 -35.782 	 -131.971
| 39> H 	 33.1119 	 -38.5527 	 -125.708
| 40> H 	 29.6857 	 -37.8766 	 -133.164
| 41> *
| 42>
| 43>                          ****END OF INPUT****

CARTESIAN COORDINATES (ANGSTROEM)
---------------------------------
  S     32.432200  -38.814900  -128.006000
  C     32.624600  -38.003500  -126.473000
  C     32.408200  -36.630800  -126.607000
  C     32.100600  -36.268100  -127.939000
  C     32.055500  -37.253400  -128.796000
  H     31.752900  -35.251600  -128.241000
  C     32.443300  -35.602200  -125.431000
  H     33.287000  -34.971200  -125.622000
  H     32.860200  -36.056300  -124.550000
  C     31.088300  -34.833600  -125.235000
  H     31.134400  -34.080500  -124.433000
  H     30.930800  -34.333000  -126.126000
  C     29.832900  -35.751800  -125.170000
  H     29.939900  -36.695200  -125.762000
  H     29.534300  -36.050700  -124.174000
  H     29.016100  -35.247500  -125.693000
  S     29.904600  -37.505300  -130.596000
  C     30.315600  -37.714800  -132.307000
  C     31.677300  -37.409400  -132.561000
  C     32.423800  -37.157100  -131.373000
  C     31.638100  -37.167400  -130.222000
  H     32.131600  -37.455700  -133.598000
  C     33.961700  -36.962800  -131.290000
  H     34.480800  -37.964000  -131.049000
  H     34.329200  -36.177600  -130.596000
  C     34.589100  -36.589900  -132.663000
  H     34.175500  -35.628600  -132.935000
  H     34.302800  -37.304900  -133.419000
  C     36.139100  -36.490600  -132.670000
  H     36.457000  -36.135200  -133.639000
  H     36.641300  -37.441800  -132.471000
  H     36.567800  -35.782000  -131.971000
  H     33.111900  -38.552700  -125.708000
  H     29.685700  -37.876600  -133.164000

 Total Charge           Charge          ....    0
 Multiplicity           Mult            ....    1
 Number of Electrons    NEL             ....  134
 Basis Dimension        Dim             ....  322

ORBITAL ENERGIES
----------------

  NO   OCC          E(Eh)            E(eV)
   0   2.0000     -88.970777     -2421.0179
   1   2.0000     -88.960718     -2420.7442
   2   2.0000     -10.328968      -281.0655
   3   2.0000     -10.324919      -280.9553
   4   2.0000     -10.324647      -280.9479
   5   2.0000     -10.313947      -280.6568
   6   2.0000     -10.309721      -280.5418
   7   2.0000     -10.304029      -280.3869
   8   2.0000     -10.303912      -280.3837
   9   2.0000     -10.302269      -280.3390
  10   2.0000     -10.292192      -280.0648
  11   2.0000     -10.289235      -279.9843
  12   2.0000     -10.287635      -279.9408
  13   2.0000     -10.286279      -279.9039
  14   2.0000     -10.278260      -279.6857
  15   2.0000     -10.274534      -279.5843
  16   2.0000      -8.083904      -219.9742
  17   2.0000      -8.075466      -219.7446
  18   2.0000      -6.042488      -164.4245
  19   2.0000      -6.038641      -164.3198
  20   2.0000      -6.034660      -164.2115
  21   2.0000      -6.033982      -164.1930
  22   2.0000      -6.030031      -164.0855
  23   2.0000      -6.026158      -163.9801
  24   2.0000      -1.002784       -27.2871
  25   2.0000      -0.977675       -26.6039
  26   2.0000      -0.901864       -24.5410
  27   2.0000      -0.901121       -24.5207
  28   2.0000      -0.865556       -23.5530
  29   2.0000      -0.845811       -23.0157
  30   2.0000      -0.842790       -22.9335
  31   2.0000      -0.813339       -22.1321
  32   2.0000      -0.780965       -21.2511
  33   2.0000      -0.769308       -20.9339
  34   2.0000      -0.704606       -19.1733
  35   2.0000      -0.698649       -19.0112
  36   2.0000      -0.692975       -18.8568
  37   2.0000      -0.654469       -17.8090
  38   2.0000      -0.641239       -17.4490
  39   2.0000      -0.621242       -16.9049
  40   2.0000      -0.594698       -16.1825
  41   2.0000      -0.567761       -15.4496
  42   2.0000      -0.560185       -15.2434
  43   2.0000      -0.544217       -14.8089
  44   2.0000      -0.538143       -14.6436
  45   2.0000      -0.519481       -14.1358
  46   2.0000      -0.515285       -14.0216
  47   2.0000      -0.507791       -13.8177
  48   2.0000      -0.495244       -13.4763
  49   2.0000      -0.492455       -13.4004
  50   2.0000      -0.481311       -13.0971
  51   2.0000      -0.478471       -13.0199
  52   2.0000      -0.467701       -12.7268
  53   2.0000      -0.461910       -12.5692
  54   2.0000      -0.456881       -12.4324
  55   2.0000      -0.454175       -12.3587
  56   2.0000      -0.445673       -12.1274
  57   2.0000      -0.432179       -11.7602
  58   2.0000      -0.428263       -11.6536
  59   2.0000      -0.423829       -11.5330
  60   2.0000      -0.419176       -11.4064
  61   2.0000      -0.416674       -11.3383
  62   2.0000      -0.413061       -11.2400
  63   2.0000      -0.341626        -9.2961
  64   2.0000      -0.335579        -9.1316
  65   2.0000      -0.314401        -8.5553
  66   2.0000      -0.311898        -8.4872
  67   0.0000       0.038884         1.0581
  68   0.0000       0.050544         1.3754
  69   0.0000       0.112132         3.0513
  70   0.0000       0.118349         3.2205
  71   0.0000       0.128141         3.4869

MULLIKEN ATOMIC CHARGES
-----------------------
   0 S :    0.096869
   1 C :   -0.124434
   2 C :   -0.117123
   3 C :    0.019643
   4 C :   -0.138974
   5 H :    0.031125
   6 C :    0.115556
   7 H :    0.020326
   8 H :    0.002164
   9 C :   -0.045814
  10 H :    0.039600
  11 H :    0.010243
  12 C :   -0.073622
  13 H :    0.049543
  14 H :    0.034003
  15 H :    0.029721
  16 S :    0.115379
  17 C :   -0.078574
  18 C :   -0.082480
  19 C :   -0.005648
  20 C :   -0.191384
  21 H :    0.046632
  22 C :    0.044450
  23 H :    0.050230
  24 H :    0.048264
  25 C :   -0.121060
  26 H :    0.028472
  27 H :    0.033733
  28 C :   -0.023553
  29 H :    0.026035
  30 H :    0.031359
  31 H :    0.024667
  32 H :    0.049791
  33 H :    0.054861
Sum of atomic charges:   -0.0000000

LOEWDIN ATOMIC CHARGES
----------------------
   0 S :    0.382719
   1 C :   -0.186956
   2 C :   -0.061967
   3 C :   -0.068778
   4 C :   -0.181704
   5 H :    0.042570
   6 C :   -0.029170
   7 H :    0.029052
   8 H :    0.023863
   9 C :   -0.033864
  10 H :    0.029703
  11 H :    0.013539
  12 C :   -0.069696
  13 H :    0.035367
  14 H :    0.020576
  15 H :    0.027119
  16 S :    0.386475
  17 C :   -0.179704
  18 C :   -0.081285
  19 C :   -0.053306
  20 C :   -0.188547
  21 H :    0.042565
  22 C :   -0.035066
  23 H :    0.042605
  24 H :    0.036585
  25 C :   -0.043675
  26 H :    0.020775
  27 H :    0.018786
  28 C :   -0.063380
  29 H :    0.025857
  30 H :    0.025224
  31 H :    0.022720
  32 H :    0.020861
  33 H :    0.030138

  Mayer bond orders larger than 0.100000
B(  0-S ,  1-C ) :   1.1469 B(  0-S ,  4-C ) :   1.1216 B(  1-C ,  2-C ) :   1.6118
B(  1-C , 32-H ) :   0.9726 B(  2-C ,  3-C ) :   1.2201 B(  2-C ,  6-C ) :   1.0109
B(  3-C ,  4-C ) :   1.6509 B(  3-C ,  5-H ) :   0.9851 B(  4-C , 20-C ) :   1.0014
B(  6-C ,  7-H ) :   0.9395 B(  6-C ,  8-H ) :   0.9433 B(  6-C ,  9-C ) :   1.0511
B(  9-C , 10-H ) :   0.9597 B(  9-C , 11-H ) :   0.9614 B(  9-C , 12-C ) :   1.0680
B( 12-C , 13-H ) :   0.9707 B( 12-C , 14-H ) :   0.9796 B( 12-C , 15-H ) :   0.9794
B( 16-S , 17-C ) :   1.1592 B( 16-S , 20-C ) :   1.1333 B( 17-C , 18-C ) :   1.6046
B( 17-C , 20-C ) :   0.1060 B( 17-C , 33-H ) :   0.9610 B( 18-C , 19-C ) :   1.2610
B( 18-C , 21-H ) :   0.9707 B( 19-C , 20-C ) :   1.6111 B( 19-C , 22-C ) :   1.0235
B( 22-C , 23-H ) :   0.9315 B( 22-C , 24-H ) :   0.9464 B( 22-C , 25-C ) :   1.0685
B( 25-C , 26-H ) :   0.9596 B( 25-C , 27-H ) :   0.9479 B( 25-C , 28-C ) :   1.0882
B( 28-C , 29-H ) :   0.9723 B( 28-C , 30-H ) :   0.9743 B( 28-C , 31-H ) :   0.9745

Dispersion correction           -0.014308478
FINAL SINGLE POINT ENERGY     -1339.868527272618

DIPOLE MOMENT
-------------
                                X             Y             Z
Electronic contribution:    -11.44677     -12.65475      -2.61466
Nuclear contribution   :     11.83637      13.01579       2.52191
                        -----------------------------------------
Total Dipole Moment    :      0.38961       0.36104      -0.09275
                        -----------------------------------------
Magnitude (a.u.)       :      0.53921
Magnitude (Debye)      :      1.37055

Rotational constants in cm-1:     0.019440     0.007933     0.006734
Rotational constants in MHz :   582.798416   237.836782   201.882714

                             ****ORCA TERMINATED NORMALLY****
TOTAL RUN TIME: 0 days 0 hours 0 minutes 21 seconds 38 msec
