                         Program Version 4.2.1 -  RELEASE  -
|  1> ! wB97X-D3 SP def2-SVP
|  2> %pal
|  3> nprocs 24
|  4> end
|  5>
|  6> * xyz 0 1
|  7> S 	 -136.799 	 2.10633 	 4.36428
|  8> C 	 -136.019 	 0.64538 	 3.77703
|  9> C 	 -134.663 	 0.758166 	 3.58778
| 10> C 	 -134.234 	 2.03128 	 3.99634
| 11> C 	 -135.252 	 2.93057 	 4.38898
| 12> H 	 -133.2 	 2.4233 	 4.06017
| 13> C 	 -133.707 	 -0.260575 	 3.05973
| 14> H 	 -133.712 	 -1.24016 	 3.554
| 15> H 	 -132.759 	 0.143575 	 3.30434
| 16> C 	 -133.679 	 -0.595919 	 1.57081
| 17> H 	 -132.778 	 -1.27238 	 1.43735
| 18> H 	 -134.478 	 -1.26251 	 1.2926
| 19> C 	 -133.925 	 0.619315 	 0.668976
| 20> H 	 -134.997 	 0.937847 	 0.785159
| 21> H 	 -133.227 	 1.47528 	 0.669006
| 22> H 	 -133.993 	 0.232827 	 -0.366443
| 23> S 	 -136.093 	 5.38713 	 3.69249
| 24> C 	 -135.413 	 6.74089 	 4.50373
| 25> C 	 -134.46 	 6.43746 	 5.49467
| 26> C 	 -134.281 	 5.03263 	 5.59108
| 27> C 	 -135.043 	 4.32775 	 4.61715
| 28> H 	 -134.021 	 7.31407 	 6.01201
| 29> C 	 -133.428 	 4.32719 	 6.58388
| 30> H 	 -133.518 	 3.18977 	 6.42066
| 31> H 	 -133.885 	 4.56552 	 7.60446
| 32> C 	 -131.994 	 4.77301 	 6.71061
| 33> H 	 -131.474 	 4.26571 	 7.54061
| 34> H 	 -132.02 	 5.80759 	 7.08946
| 35> C 	 -131.201 	 4.76287 	 5.46669
| 36> H 	 -131.511 	 5.45017 	 4.65693
| 37> H 	 -131.069 	 3.78682 	 5.00937
| 38> H 	 -130.125 	 5.06325 	 5.58964
| 39> H 	 -136.567 	 -0.299985 	 3.63119
| 40> H 	 -135.491 	 7.79143 	 4.32341
| 41> *
| 42>
| 43>                          ****END OF INPUT****

CARTESIAN COORDINATES (ANGSTROEM)
---------------------------------
  S    -136.799000    2.106330    4.364280
  C    -136.019000    0.645380    3.777030
  C    -134.663000    0.758166    3.587780
  C    -134.234000    2.031280    3.996340
  C    -135.252000    2.930570    4.388980
  H    -133.200000    2.423300    4.060170
  C    -133.707000   -0.260575    3.059730
  H    -133.712000   -1.240160    3.554000
  H    -132.759000    0.143575    3.304340
  C    -133.679000   -0.595919    1.570810
  H    -132.778000   -1.272380    1.437350
  H    -134.478000   -1.262510    1.292600
  C    -133.925000    0.619315    0.668976
  H    -134.997000    0.937847    0.785159
  H    -133.227000    1.475280    0.669006
  H    -133.993000    0.232827   -0.366443
  S    -136.093000    5.387130    3.692490
  C    -135.413000    6.740890    4.503730
  C    -134.460000    6.437460    5.494670
  C    -134.281000    5.032630    5.591080
  C    -135.043000    4.327750    4.617150
  H    -134.021000    7.314070    6.012010
  C    -133.428000    4.327190    6.583880
  H    -133.518000    3.189770    6.420660
  H    -133.885000    4.565520    7.604460
  C    -131.994000    4.773010    6.710610
  H    -131.474000    4.265710    7.540610
  H    -132.020000    5.807590    7.089460
  C    -131.201000    4.762870    5.466690
  H    -131.511000    5.450170    4.656930
  H    -131.069000    3.786820    5.009370
  H    -130.125000    5.063250    5.589640
  H    -136.567000   -0.299985    3.631190
  H    -135.491000    7.791430    4.323410

 Total Charge           Charge          ....    0
 Multiplicity           Mult            ....    1
 Number of Electrons    NEL             ....  134
 Basis Dimension        Dim             ....  322

ORBITAL ENERGIES
----------------

  NO   OCC          E(Eh)            E(eV)
   0   2.0000     -88.970258     -2421.0038
   1   2.0000     -88.970138     -2421.0005
   2   2.0000     -10.326338      -280.9940
   3   2.0000     -10.324656      -280.9482
   4   2.0000     -10.314219      -280.6642
   5   2.0000     -10.313209      -280.6367
   6   2.0000     -10.306824      -280.4629
   7   2.0000     -10.297455      -280.2080
   8   2.0000     -10.297252      -280.2025
   9   2.0000     -10.295628      -280.1583
  10   2.0000     -10.293246      -280.0935
  11   2.0000     -10.289815      -280.0001
  12   2.0000     -10.285603      -279.8855
  13   2.0000     -10.285203      -279.8746
  14   2.0000     -10.280290      -279.7409
  15   2.0000     -10.275673      -279.6153
  16   2.0000      -8.085092      -220.0065
  17   2.0000      -8.084384      -219.9873
  18   2.0000      -6.043474      -164.4513
  19   2.0000      -6.042808      -164.4332
  20   2.0000      -6.039565      -164.3449
  21   2.0000      -6.038982      -164.3291
  22   2.0000      -6.036000      -164.2479
  23   2.0000      -6.035243      -164.2273
  24   2.0000      -1.006662       -27.3927
  25   2.0000      -0.983491       -26.7622
  26   2.0000      -0.916298       -24.9337
  27   2.0000      -0.913191       -24.8492
  28   2.0000      -0.868474       -23.6324
  29   2.0000      -0.853686       -23.2300
  30   2.0000      -0.846858       -23.0442
  31   2.0000      -0.808482       -21.9999
  32   2.0000      -0.786558       -21.4033
  33   2.0000      -0.772980       -21.0338
  34   2.0000      -0.708564       -19.2810
  35   2.0000      -0.702100       -19.1051
  36   2.0000      -0.691439       -18.8150
  37   2.0000      -0.653632       -17.7862
  38   2.0000      -0.635619       -17.2961
  39   2.0000      -0.611260       -16.6332
  40   2.0000      -0.587931       -15.9984
  41   2.0000      -0.572358       -15.5747
  42   2.0000      -0.554188       -15.0802
  43   2.0000      -0.549431       -14.9508
  44   2.0000      -0.543676       -14.7942
  45   2.0000      -0.536763       -14.6061
  46   2.0000      -0.516579       -14.0568
  47   2.0000      -0.511115       -13.9081
  48   2.0000      -0.498576       -13.5669
  49   2.0000      -0.493029       -13.4160
  50   2.0000      -0.488372       -13.2893
  51   2.0000      -0.474122       -12.9015
  52   2.0000      -0.470227       -12.7955
  53   2.0000      -0.465243       -12.6599
  54   2.0000      -0.458387       -12.4733
  55   2.0000      -0.449735       -12.2379
  56   2.0000      -0.442091       -12.0299
  57   2.0000      -0.436315       -11.8727
  58   2.0000      -0.430255       -11.7078
  59   2.0000      -0.424774       -11.5587
  60   2.0000      -0.420873       -11.4525
  61   2.0000      -0.408207       -11.1079
  62   2.0000      -0.406328       -11.0567
  63   2.0000      -0.341834        -9.3018
  64   2.0000      -0.335030        -9.1166
  65   2.0000      -0.332008        -9.0344
  66   2.0000      -0.283119        -7.7041
  67   0.0000       0.030429         0.8280
  68   0.0000       0.061098         1.6626
  69   0.0000       0.112941         3.0733
  70   0.0000       0.120303         3.2736
  71   0.0000       0.123501         3.3606

MULLIKEN ATOMIC CHARGES
-----------------------
   0 S :    0.126446
   1 C :   -0.148172
   2 C :   -0.060487
   3 C :    0.008291
   4 C :   -0.174337
   5 H :    0.019949
   6 C :    0.106547
   7 H :    0.030256
   8 H :    0.002542
   9 C :   -0.083552
  10 H :    0.036719
  11 H :    0.018233
  12 C :   -0.067588
  13 H :    0.047584
  14 H :    0.048424
  15 H :    0.025991
  16 S :    0.130320
  17 C :   -0.073866
  18 C :   -0.085755
  19 C :    0.005660
  20 C :   -0.185787
  21 H :    0.036190
  22 C :    0.020542
  23 H :    0.047023
  24 H :    0.046373
  25 C :   -0.045940
  26 H :    0.031801
  27 H :    0.018979
  28 C :   -0.068479
  29 H :    0.042890
  30 H :    0.023772
  31 H :    0.026618
  32 H :    0.053277
  33 H :    0.039536
Sum of atomic charges:   -0.0000000

LOEWDIN ATOMIC CHARGES
----------------------
   0 S :    0.407818
   1 C :   -0.195482
   2 C :   -0.069109
   3 C :   -0.060599
   4 C :   -0.207867
   5 H :    0.033196
   6 C :   -0.034909
   7 H :    0.035584
   8 H :    0.025228
   9 C :   -0.045165
  10 H :    0.031863
  11 H :    0.020936
  12 C :   -0.077200
  13 H :    0.038241
  14 H :    0.025701
  15 H :    0.028511
  16 S :    0.427923
  17 C :   -0.196436
  18 C :   -0.078111
  19 C :   -0.051316
  20 C :   -0.202694
  21 H :    0.040549
  22 C :   -0.044528
  23 H :    0.038738
  24 H :    0.044870
  25 C :   -0.052393
  26 H :    0.031212
  27 H :    0.025287
  28 C :   -0.079458
  29 H :    0.031160
  30 H :    0.020095
  31 H :    0.032019
  32 H :    0.031038
  33 H :    0.025299

  Mayer bond orders larger than 0.100000
B(  0-S ,  1-C ) :   1.1450 B(  0-S ,  4-C ) :   1.1511 B(  1-C ,  2-C ) :   1.5808
B(  1-C , 32-H ) :   0.9654 B(  2-C ,  3-C ) :   1.2686 B(  2-C ,  6-C ) :   1.0174
B(  3-C ,  4-C ) :   1.5395 B(  3-C ,  5-H ) :   0.9836 B(  4-C , 20-C ) :   1.0778
B(  6-C ,  7-H ) :   0.9353 B(  6-C ,  8-H ) :   0.9328 B(  6-C ,  9-C ) :   1.0750
B(  9-C , 10-H ) :   0.9563 B(  9-C , 11-H ) :   0.9518 B(  9-C , 12-C ) :   1.0789
B( 12-C , 13-H ) :   0.9602 B( 12-C , 14-H ) :   0.9804 B( 12-C , 15-H ) :   0.9719
B( 16-S , 17-C ) :   1.1678 B( 16-S , 20-C ) :   1.1426 B( 17-C , 18-C ) :   1.6180
B( 17-C , 20-C ) :   0.1032 B( 17-C , 33-H ) :   0.9619 B( 18-C , 19-C ) :   1.2330
B( 18-C , 21-H ) :   0.9859 B( 19-C , 20-C ) :   1.5514 B( 19-C , 22-C ) :   1.0470
B( 22-C , 23-H ) :   0.9326 B( 22-C , 24-H ) :   0.9269 B( 22-C , 25-C ) :   1.0782
B( 25-C , 26-H ) :   0.9500 B( 25-C , 27-H ) :   0.9434 B( 25-C , 28-C ) :   1.0904
B( 28-C , 29-H ) :   0.9679 B( 28-C , 30-H ) :   0.9702 B( 28-C , 31-H ) :   0.9669

Dispersion correction           -0.015060165
FINAL SINGLE POINT ENERGY     -1339.872592287118

DIPOLE MOMENT
-------------
                                X             Y             Z
Electronic contribution:    -22.69062       8.47691       2.89427
Nuclear contribution   :     23.19836      -8.58754      -2.83246
                        -----------------------------------------
Total Dipole Moment    :      0.50774      -0.11063       0.06182
                        -----------------------------------------
Magnitude (a.u.)       :      0.52332
Magnitude (Debye)      :      1.33017

Rotational constants in cm-1:     0.019167     0.008991     0.007454
Rotational constants in MHz :   574.608151   269.532745   223.468429

                             ****ORCA TERMINATED NORMALLY****
TOTAL RUN TIME: 0 days 0 hours 0 minutes 22 seconds 340 msec
