                         Program Version 4.2.1 -  RELEASE  -
|  1> ! wB97X-D3 SP def2-SVP
|  2> %pal
|  3> nprocs 24
|  4> end
|  5>
|  6> * xyz 0 1
|  7> S 	 -122.278 	 60.8595 	 -35.5892
|  8> C 	 -123.61 	 61.9397 	 -35.2633
|  9> C 	 -123.438 	 63.2411 	 -35.6874
| 10> C 	 -122.078 	 63.4224 	 -36.1661
| 11> C 	 -121.374 	 62.2665 	 -36.1125
| 12> H 	 -121.591 	 64.2807 	 -36.5611
| 13> C 	 -124.382 	 64.3654 	 -35.4492
| 14> H 	 -123.856 	 65.1908 	 -34.9858
| 15> H 	 -125.107 	 64.043 	 -34.6736
| 16> C 	 -125.085 	 64.9817 	 -36.6681
| 17> H 	 -125.753 	 65.7597 	 -36.371
| 18> H 	 -124.361 	 65.3668 	 -37.3736
| 19> C 	 -125.986 	 64.0649 	 -37.4197
| 20> H 	 -125.388 	 63.178 	 -37.6851
| 21> H 	 -126.819 	 63.9047 	 -36.9409
| 22> H 	 -126.313 	 64.5386 	 -38.3979
| 23> S 	 -120.191 	 62.0365 	 -38.5755
| 24> C 	 -118.481 	 61.8362 	 -38.6267
| 25> C 	 -117.927 	 61.8283 	 -37.3764
| 26> C 	 -118.806 	 61.9534 	 -36.2771
| 27> C 	 -120.118 	 62.1241 	 -36.7983
| 28> H 	 -116.909 	 61.5633 	 -37.1852
| 29> C 	 -118.398 	 61.8522 	 -34.8298
| 30> H 	 -117.544 	 61.1467 	 -34.6089
| 31> H 	 -119.056 	 61.2912 	 -34.1562
| 32> C 	 -117.999 	 63.1072 	 -34.107
| 33> H 	 -118.631 	 64.0093 	 -34.2519
| 34> H 	 -117.079 	 63.4728 	 -34.637
| 35> C 	 -117.587 	 62.8877 	 -32.6219
| 36> H 	 -116.897 	 62.0528 	 -32.4259
| 37> H 	 -118.517 	 62.7084 	 -32.1097
| 38> H 	 -117.189 	 63.7964 	 -32.1938
| 39> H 	 -124.395 	 61.6113 	 -34.6034
| 40> H 	 -117.924 	 61.4601 	 -39.5414
| 41> *
| 42>
| 43>                          ****END OF INPUT****

CARTESIAN COORDINATES (ANGSTROEM)
---------------------------------
  S    -122.278000   60.859500  -35.589200
  C    -123.610000   61.939700  -35.263300
  C    -123.438000   63.241100  -35.687400
  C    -122.078000   63.422400  -36.166100
  C    -121.374000   62.266500  -36.112500
  H    -121.591000   64.280700  -36.561100
  C    -124.382000   64.365400  -35.449200
  H    -123.856000   65.190800  -34.985800
  H    -125.107000   64.043000  -34.673600
  C    -125.085000   64.981700  -36.668100
  H    -125.753000   65.759700  -36.371000
  H    -124.361000   65.366800  -37.373600
  C    -125.986000   64.064900  -37.419700
  H    -125.388000   63.178000  -37.685100
  H    -126.819000   63.904700  -36.940900
  H    -126.313000   64.538600  -38.397900
  S    -120.191000   62.036500  -38.575500
  C    -118.481000   61.836200  -38.626700
  C    -117.927000   61.828300  -37.376400
  C    -118.806000   61.953400  -36.277100
  C    -120.118000   62.124100  -36.798300
  H    -116.909000   61.563300  -37.185200
  C    -118.398000   61.852200  -34.829800
  H    -117.544000   61.146700  -34.608900
  H    -119.056000   61.291200  -34.156200
  C    -117.999000   63.107200  -34.107000
  H    -118.631000   64.009300  -34.251900
  H    -117.079000   63.472800  -34.637000
  C    -117.587000   62.887700  -32.621900
  H    -116.897000   62.052800  -32.425900
  H    -118.517000   62.708400  -32.109700
  H    -117.189000   63.796400  -32.193800
  H    -124.395000   61.611300  -34.603400
  H    -117.924000   61.460100  -39.541400

 Total Charge           Charge          ....    0
 Multiplicity           Mult            ....    1
 Number of Electrons    NEL             ....  134
 Basis Dimension        Dim             ....  322

ORBITAL ENERGIES
----------------

  NO   OCC          E(Eh)            E(eV)
   0   2.0000     -88.967742     -2420.9353
   1   2.0000     -88.965126     -2420.8642
   2   2.0000     -10.325338      -280.9667
   3   2.0000     -10.318290      -280.7749
   4   2.0000     -10.316916      -280.7376
   5   2.0000     -10.312243      -280.6104
   6   2.0000     -10.306937      -280.4660
   7   2.0000     -10.302606      -280.3481
   8   2.0000     -10.295841      -280.1641
   9   2.0000     -10.290252      -280.0120
  10   2.0000     -10.290161      -280.0095
  11   2.0000     -10.288027      -279.9514
  12   2.0000     -10.287781      -279.9448
  13   2.0000     -10.278986      -279.7054
  14   2.0000     -10.277257      -279.6584
  15   2.0000     -10.260853      -279.2120
  16   2.0000      -8.082416      -219.9337
  17   2.0000      -8.080241      -219.8745
  18   2.0000      -6.040770      -164.3777
  19   2.0000      -6.038690      -164.3211
  20   2.0000      -6.036982      -164.2746
  21   2.0000      -6.034941      -164.2191
  22   2.0000      -6.033298      -164.1744
  23   2.0000      -6.030798      -164.1064
  24   2.0000      -1.007532       -27.4163
  25   2.0000      -0.983580       -26.7646
  26   2.0000      -0.916407       -24.9367
  27   2.0000      -0.910160       -24.7667
  28   2.0000      -0.871126       -23.7046
  29   2.0000      -0.854671       -23.2568
  30   2.0000      -0.851430       -23.1686
  31   2.0000      -0.811300       -22.0766
  32   2.0000      -0.787235       -21.4218
  33   2.0000      -0.771528       -20.9943
  34   2.0000      -0.704375       -19.1670
  35   2.0000      -0.695955       -18.9379
  36   2.0000      -0.687919       -18.7192
  37   2.0000      -0.657766       -17.8987
  38   2.0000      -0.646590       -17.5946
  39   2.0000      -0.620359       -16.8808
  40   2.0000      -0.606644       -16.5076
  41   2.0000      -0.569881       -15.5073
  42   2.0000      -0.553169       -15.0525
  43   2.0000      -0.550026       -14.9670
  44   2.0000      -0.545554       -14.8453
  45   2.0000      -0.522157       -14.2086
  46   2.0000      -0.520190       -14.1551
  47   2.0000      -0.514288       -13.9945
  48   2.0000      -0.505803       -13.7636
  49   2.0000      -0.493140       -13.4190
  50   2.0000      -0.491457       -13.3732
  51   2.0000      -0.474708       -12.9174
  52   2.0000      -0.467528       -12.7221
  53   2.0000      -0.460473       -12.5301
  54   2.0000      -0.454787       -12.3754
  55   2.0000      -0.451399       -12.2832
  56   2.0000      -0.449158       -12.2222
  57   2.0000      -0.442566       -12.0428
  58   2.0000      -0.433452       -11.7948
  59   2.0000      -0.428093       -11.6490
  60   2.0000      -0.425347       -11.5743
  61   2.0000      -0.414728       -11.2853
  62   2.0000      -0.392802       -10.6887
  63   2.0000      -0.340055        -9.2534
  64   2.0000      -0.330036        -8.9807
  65   2.0000      -0.320301        -8.7158
  66   2.0000      -0.306257        -8.3337
  67   0.0000       0.040726         1.1082
  68   0.0000       0.054439         1.4814
  69   0.0000       0.107165         2.9161
  70   0.0000       0.116180         3.1614
  71   0.0000       0.122816         3.3420

MULLIKEN ATOMIC CHARGES
-----------------------
   0 S :    0.115051
   1 C :   -0.123353
   2 C :   -0.061607
   3 C :    0.023273
   4 C :   -0.142345
   5 H :    0.007921
   6 C :    0.064834
   7 H :    0.028618
   8 H :    0.017886
   9 C :   -0.061945
  10 H :    0.019153
  11 H :    0.025470
  12 C :   -0.012382
  13 H :    0.039328
  14 H :   -0.009836
  15 H :    0.026697
  16 S :    0.130813
  17 C :   -0.109678
  18 C :   -0.020028
  19 C :    0.043041
  20 C :   -0.220111
  21 H :    0.004188
  22 C :    0.040499
  23 H :    0.016734
  24 H :    0.013059
  25 C :   -0.097146
  26 H :    0.034581
  27 H :    0.016895
  28 C :   -0.043039
  29 H :    0.037809
  30 H :    0.031102
  31 H :    0.034476
  32 H :    0.047468
  33 H :    0.082573
Sum of atomic charges:    0.0000000

LOEWDIN ATOMIC CHARGES
----------------------
   0 S :    0.400000
   1 C :   -0.189292
   2 C :   -0.060258
   3 C :   -0.050349
   4 C :   -0.200406
   5 H :    0.029762
   6 C :   -0.034473
   7 H :    0.033640
   8 H :    0.032252
   9 C :   -0.038309
  10 H :    0.022574
  11 H :    0.022850
  12 C :   -0.052701
  13 H :    0.028970
  14 H :   -0.003729
  15 H :    0.033466
  16 S :    0.415210
  17 C :   -0.211305
  18 C :   -0.070507
  19 C :   -0.048339
  20 C :   -0.189243
  21 H :    0.026089
  22 C :   -0.048288
  23 H :    0.039561
  24 H :    0.029147
  25 C :   -0.047584
  26 H :    0.026943
  27 H :    0.021457
  28 C :   -0.064120
  29 H :    0.027245
  30 H :    0.024257
  31 H :    0.027768
  32 H :    0.022253
  33 H :    0.045461

  Mayer bond orders larger than 0.100000
B(  0-S ,  1-C ) :   1.1344 B(  0-S ,  4-C ) :   1.1367 B(  1-C ,  2-C ) :   1.6314
B(  1-C , 32-H ) :   0.9648 B(  2-C ,  3-C ) :   1.1793 B(  2-C ,  6-C ) :   1.0341
B(  3-C ,  4-C ) :   1.6206 B(  3-C ,  5-H ) :   1.0047 B(  4-C , 20-C ) :   1.0327
B(  6-C ,  7-H ) :   0.9382 B(  6-C ,  8-H ) :   0.9412 B(  6-C ,  9-C ) :   1.0707
B(  9-C , 10-H ) :   0.9534 B(  9-C , 11-H ) :   0.9580 B(  9-C , 12-C ) :   1.0908
B( 12-C , 13-H ) :   0.9734 B( 12-C , 14-H ) :   0.9750 B( 12-C , 15-H ) :   0.9695
B( 16-S , 17-C ) :   1.1531 B( 16-S , 20-C ) :   1.1628 B( 17-C , 18-C ) :   1.5988
B( 17-C , 33-H ) :   0.9551 B( 18-C , 19-C ) :   1.2795 B( 18-C , 21-H ) :   0.9828
B( 19-C , 20-C ) :   1.5578 B( 19-C , 22-C ) :   1.0328 B( 22-C , 23-H ) :   0.9307
B( 22-C , 24-H ) :   0.9348 B( 22-C , 25-C ) :   1.0559 B( 25-C , 26-H ) :   0.9566
B( 25-C , 27-H ) :   0.9528 B( 25-C , 28-C ) :   1.0737 B( 28-C , 29-H ) :   0.9745
B( 28-C , 30-H ) :   0.9759 B( 28-C , 31-H ) :   0.9732

Dispersion correction           -0.014002359
FINAL SINGLE POINT ENERGY     -1339.859740884134

DIPOLE MOMENT
-------------
                                X             Y             Z
Electronic contribution:      2.64603     -12.95183     -12.03234
Nuclear contribution   :     -2.59013      13.17460      12.33815
                        -----------------------------------------
Total Dipole Moment    :      0.05590       0.22277       0.30581
                        -----------------------------------------
Magnitude (a.u.)       :      0.38245
Magnitude (Debye)      :      0.97212

Rotational constants in cm-1:     0.019173     0.008216     0.006863
Rotational constants in MHz :   574.778748   246.304485   205.745057

                             ****ORCA TERMINATED NORMALLY****
TOTAL RUN TIME: 0 days 0 hours 0 minutes 21 seconds 121 msec
