                         Program Version 4.2.1 -  RELEASE  -
|  1> ! wB97X-D3 SP def2-SVP
|  2> %pal
|  3> nprocs 24
|  4> end
|  5>
|  6> * xyz 0 1
|  7> S 	 19.1508 	 -11.6584 	 -124.913
|  8> C 	 18.4464 	 -10.2619 	 -125.57
|  9> C 	 17.7551 	 -10.4901 	 -126.691
| 10> C 	 17.5594 	 -11.8774 	 -126.982
| 11> C 	 18.3202 	 -12.6208 	 -126.091
| 12> H 	 16.9536 	 -12.4063 	 -127.745
| 13> C 	 17.0553 	 -9.3537 	 -127.465
| 14> H 	 17.7331 	 -9.08673 	 -128.253
| 15> H 	 16.8862 	 -8.46288 	 -126.863
| 16> C 	 15.748 	 -9.74606 	 -128.268
| 17> H 	 16.0851 	 -10.5178 	 -128.906
| 18> H 	 15.0219 	 -10.1303 	 -127.53
| 19> C 	 15.1671 	 -8.53089 	 -129.067
| 20> H 	 14.2462 	 -8.72512 	 -129.61
| 21> H 	 14.8059 	 -7.76453 	 -128.391
| 22> H 	 15.8621 	 -8.21175 	 -129.869
| 23> S 	 19.3125 	 -14.9698 	 -127.194
| 24> C 	 18.8437 	 -16.5267 	 -126.556
| 25> C 	 17.7835 	 -16.414 	 -125.692
| 26> C 	 17.592 	 -15.0348 	 -125.296
| 27> C 	 18.3242 	 -14.0942 	 -126.027
| 28> H 	 17.5529 	 -17.3942 	 -125.312
| 29> C 	 16.7484 	 -14.7313 	 -124.081
| 30> H 	 16.9791 	 -13.7671 	 -123.59
| 31> H 	 16.929 	 -15.4698 	 -123.331
| 32> C 	 15.2145 	 -14.7207 	 -124.358
| 33> H 	 14.607 	 -14.6558 	 -123.486
| 34> H 	 14.9601 	 -15.74 	 -124.883
| 35> C 	 14.6948 	 -13.642 	 -125.407
| 36> H 	 15.4143 	 -13.542 	 -126.222
| 37> H 	 14.6186 	 -12.6369 	 -125.09
| 38> H 	 13.6765 	 -13.9025 	 -125.813
| 39> H 	 18.7595 	 -9.27824 	 -125.262
| 40> H 	 19.2355 	 -17.5078 	 -126.867
| 41> *
| 42>
| 43>                          ****END OF INPUT****

CARTESIAN COORDINATES (ANGSTROEM)
---------------------------------
  S     19.150800  -11.658400  -124.913000
  C     18.446400  -10.261900  -125.570000
  C     17.755100  -10.490100  -126.691000
  C     17.559400  -11.877400  -126.982000
  C     18.320200  -12.620800  -126.091000
  H     16.953600  -12.406300  -127.745000
  C     17.055300   -9.353700  -127.465000
  H     17.733100   -9.086730  -128.253000
  H     16.886200   -8.462880  -126.863000
  C     15.748000   -9.746060  -128.268000
  H     16.085100  -10.517800  -128.906000
  H     15.021900  -10.130300  -127.530000
  C     15.167100   -8.530890  -129.067000
  H     14.246200   -8.725120  -129.610000
  H     14.805900   -7.764530  -128.391000
  H     15.862100   -8.211750  -129.869000
  S     19.312500  -14.969800  -127.194000
  C     18.843700  -16.526700  -126.556000
  C     17.783500  -16.414000  -125.692000
  C     17.592000  -15.034800  -125.296000
  C     18.324200  -14.094200  -126.027000
  H     17.552900  -17.394200  -125.312000
  C     16.748400  -14.731300  -124.081000
  H     16.979100  -13.767100  -123.590000
  H     16.929000  -15.469800  -123.331000
  C     15.214500  -14.720700  -124.358000
  H     14.607000  -14.655800  -123.486000
  H     14.960100  -15.740000  -124.883000
  C     14.694800  -13.642000  -125.407000
  H     15.414300  -13.542000  -126.222000
  H     14.618600  -12.636900  -125.090000
  H     13.676500  -13.902500  -125.813000
  H     18.759500   -9.278240  -125.262000
  H     19.235500  -17.507800  -126.867000

 Total Charge           Charge          ....    0
 Multiplicity           Mult            ....    1
 Number of Electrons    NEL             ....  134
 Basis Dimension        Dim             ....  322

ORBITAL ENERGIES
----------------

  NO   OCC          E(Eh)            E(eV)
   0   2.0000     -88.967576     -2420.9308
   1   2.0000     -88.960709     -2420.7440
   2   2.0000     -10.329504      -281.0801
   3   2.0000     -10.327664      -281.0300
   4   2.0000     -10.317882      -280.7638
   5   2.0000     -10.310060      -280.5510
   6   2.0000     -10.304403      -280.3971
   7   2.0000     -10.300782      -280.2985
   8   2.0000     -10.299559      -280.2652
   9   2.0000     -10.293718      -280.1063
  10   2.0000     -10.292771      -280.0805
  11   2.0000     -10.291191      -280.0375
  12   2.0000     -10.290960      -280.0312
  13   2.0000     -10.288797      -279.9724
  14   2.0000     -10.283862      -279.8381
  15   2.0000     -10.271994      -279.5152
  16   2.0000      -8.083591      -219.9657
  17   2.0000      -8.075562      -219.7472
  18   2.0000      -6.041840      -164.4068
  19   2.0000      -6.037962      -164.3013
  20   2.0000      -6.034498      -164.2070
  21   2.0000      -6.034048      -164.1948
  22   2.0000      -6.029973      -164.0839
  23   2.0000      -6.026410      -163.9869
  24   2.0000      -1.012897       -27.5623
  25   2.0000      -0.988344       -26.8942
  26   2.0000      -0.904728       -24.6189
  27   2.0000      -0.896984       -24.4082
  28   2.0000      -0.872687       -23.7470
  29   2.0000      -0.850726       -23.1494
  30   2.0000      -0.835148       -22.7255
  31   2.0000      -0.819065       -22.2879
  32   2.0000      -0.781404       -21.2631
  33   2.0000      -0.771160       -20.9843
  34   2.0000      -0.713854       -19.4250
  35   2.0000      -0.693664       -18.8755
  36   2.0000      -0.685220       -18.6458
  37   2.0000      -0.654569       -17.8117
  38   2.0000      -0.646211       -17.5843
  39   2.0000      -0.619512       -16.8578
  40   2.0000      -0.591612       -16.0986
  41   2.0000      -0.574597       -15.6356
  42   2.0000      -0.570870       -15.5342
  43   2.0000      -0.543441       -14.7878
  44   2.0000      -0.532054       -14.4779
  45   2.0000      -0.517651       -14.0860
  46   2.0000      -0.510504       -13.8915
  47   2.0000      -0.506249       -13.7757
  48   2.0000      -0.505502       -13.7554
  49   2.0000      -0.498023       -13.5519
  50   2.0000      -0.487853       -13.2751
  51   2.0000      -0.479234       -13.0406
  52   2.0000      -0.471398       -12.8274
  53   2.0000      -0.463771       -12.6199
  54   2.0000      -0.457931       -12.4609
  55   2.0000      -0.455545       -12.3960
  56   2.0000      -0.440794       -11.9946
  57   2.0000      -0.438639       -11.9360
  58   2.0000      -0.428190       -11.6516
  59   2.0000      -0.424929       -11.5629
  60   2.0000      -0.415717       -11.3122
  61   2.0000      -0.412374       -11.2213
  62   2.0000      -0.407476       -11.0880
  63   2.0000      -0.338439        -9.2094
  64   2.0000      -0.332740        -9.0543
  65   2.0000      -0.322967        -8.7884
  66   2.0000      -0.309092        -8.4108
  67   0.0000       0.048509         1.3200
  68   0.0000       0.054366         1.4794
  69   0.0000       0.116741         3.1767
  70   0.0000       0.124390         3.3848
  71   0.0000       0.132533         3.6064

MULLIKEN ATOMIC CHARGES
-----------------------
   0 S :    0.135077
   1 C :   -0.124751
   2 C :   -0.048102
   3 C :    0.016157
   4 C :   -0.179536
   5 H :    0.049082
   6 C :    0.052759
   7 H :    0.026305
   8 H :    0.024941
   9 C :   -0.101305
  10 H :    0.033153
  11 H :    0.043326
  12 C :   -0.046054
  13 H :    0.026642
  14 H :    0.034029
  15 H :    0.041246
  16 S :    0.098486
  17 C :   -0.118983
  18 C :   -0.023419
  19 C :   -0.016596
  20 C :   -0.174129
  21 H :    0.023948
  22 C :    0.085701
  23 H :    0.026808
  24 H :    0.023216
  25 C :   -0.101924
  26 H :    0.031674
  27 H :    0.034533
  28 C :   -0.050426
  29 H :    0.014837
  30 H :    0.019114
  31 H :    0.037041
  32 H :    0.041668
  33 H :    0.065480
Sum of atomic charges:   -0.0000000

LOEWDIN ATOMIC CHARGES
----------------------
   0 S :    0.439961
   1 C :   -0.209885
   2 C :   -0.065080
   3 C :   -0.058602
   4 C :   -0.202492
   5 H :    0.043039
   6 C :   -0.028804
   7 H :    0.028955
   8 H :    0.025512
   9 C :   -0.035925
  10 H :    0.016237
  11 H :    0.026133
  12 C :   -0.070404
  13 H :    0.026901
  14 H :    0.027068
  15 H :    0.030920
  16 S :    0.395245
  17 C :   -0.181250
  18 C :   -0.079027
  19 C :   -0.049369
  20 C :   -0.205137
  21 H :    0.036322
  22 C :   -0.033545
  23 H :    0.029479
  24 H :    0.029033
  25 C :   -0.037364
  26 H :    0.016676
  27 H :    0.030634
  28 C :   -0.073624
  29 H :    0.021519
  30 H :    0.015039
  31 H :    0.030924
  32 H :    0.026189
  33 H :    0.034722

  Mayer bond orders larger than 0.100000
B(  0-S ,  1-C ) :   1.1401 B(  0-S ,  4-C ) :   1.1782 B(  1-C ,  2-C ) :   1.6480
B(  1-C , 32-H ) :   0.9659 B(  2-C ,  3-C ) :   1.2189 B(  2-C ,  6-C ) :   1.0048
B(  3-C ,  4-C ) :   1.5901 B(  3-C ,  5-H ) :   0.9793 B(  4-C , 20-C ) :   0.9977
B(  6-C ,  7-H ) :   0.9293 B(  6-C ,  8-H ) :   0.9560 B(  6-C ,  9-C ) :   1.0642
B(  9-C , 10-H ) :   0.9481 B(  9-C , 11-H ) :   0.9637 B(  9-C , 12-C ) :   1.0844
B( 12-C , 13-H ) :   0.9730 B( 12-C , 14-H ) :   0.9747 B( 12-C , 15-H ) :   0.9745
B( 16-S , 17-C ) :   1.1607 B( 16-S , 20-C ) :   1.1346 B( 17-C , 18-C ) :   1.6456
B( 17-C , 33-H ) :   0.9615 B( 18-C , 19-C ) :   1.1994 B( 18-C , 21-H ) :   0.9884
B( 19-C , 20-C ) :   1.6140 B( 19-C , 22-C ) :   1.0451 B( 22-C , 23-H ) :   0.9414
B( 22-C , 24-H ) :   0.9362 B( 22-C , 25-C ) :   1.0642 B( 25-C , 26-H ) :   0.9614
B( 25-C , 27-H ) :   0.9606 B( 25-C , 28-C ) :   1.0600 B( 28-C , 29-H ) :   0.9731
B( 28-C , 30-H ) :   0.9765 B( 28-C , 31-H ) :   0.9755

Dispersion correction           -0.015402102
FINAL SINGLE POINT ENERGY     -1339.868302505681

DIPOLE MOMENT
-------------
                                X             Y             Z
Electronic contribution:     24.03009     -10.94261       4.73302
Nuclear contribution   :    -24.39952      11.06151      -4.75393
                        -----------------------------------------
Total Dipole Moment    :     -0.36943       0.11890      -0.02091
                        -----------------------------------------
Magnitude (a.u.)       :      0.38866
Magnitude (Debye)      :      0.98789

Rotational constants in cm-1:     0.019409     0.008324     0.007605
Rotational constants in MHz :   581.874858   249.545727   227.985268

                             ****ORCA TERMINATED NORMALLY****
TOTAL RUN TIME: 0 days 0 hours 0 minutes 22 seconds 39 msec
