                         Program Version 4.2.1 -  RELEASE  -
|  1> ! wB97X-D3 SP def2-SVP
|  2> %pal
|  3> nprocs 24
|  4> end
|  5>
|  6> * xyz 0 1
|  7> S 	 -118.58 	 16.9211 	 -112.807
|  8> C 	 -117.18 	 18.046 	 -112.715
|  9> C 	 -115.967 	 17.3572 	 -112.768
| 10> C 	 -116.181 	 15.9132 	 -112.899
| 11> C 	 -117.546 	 15.5573 	 -113.004
| 12> H 	 -115.363 	 15.2727 	 -112.901
| 13> C 	 -114.586 	 17.9008 	 -112.805
| 14> H 	 -113.998 	 17.3089 	 -112.092
| 15> H 	 -114.715 	 18.8973 	 -112.425
| 16> C 	 -113.839 	 17.7861 	 -114.169
| 17> H 	 -113.313 	 16.8691 	 -114.153
| 18> H 	 -114.47 	 17.8369 	 -115.019
| 19> C 	 -112.615 	 18.7252 	 -114.208
| 20> H 	 -112.139 	 18.4439 	 -115.182
| 21> H 	 -112.883 	 19.7682 	 -114.094
| 22> H 	 -111.886 	 18.4265 	 -113.398
| 23> S 	 -119.395 	 13.5495 	 -112.135
| 24> C 	 -119.076 	 11.8964 	 -112.647
| 25> C 	 -118.185 	 11.8087 	 -113.667
| 26> C 	 -117.656 	 13.1041 	 -113.969
| 27> C 	 -118.05 	 14.1762 	 -113.172
| 28> H 	 -117.883 	 10.8691 	 -114.11
| 29> C 	 -116.639 	 13.2991 	 -115.128
| 30> H 	 -116.363 	 12.3064 	 -115.39
| 31> H 	 -115.677 	 13.62 	 -114.583
| 32> C 	 -116.926 	 14.1438 	 -116.352
| 33> H 	 -117.408 	 15.0121 	 -116.058
| 34> H 	 -117.466 	 13.5882 	 -117.102
| 35> C 	 -115.679 	 14.6246 	 -117.058
| 36> H 	 -115.833 	 15.4486 	 -117.732
| 37> H 	 -115.317 	 13.7542 	 -117.548
| 38> H 	 -115.037 	 15.0225 	 -116.278
| 39> H 	 -117.291 	 19.0869 	 -112.389
| 40> H 	 -119.697 	 11.069 	 -112.309
| 41> *
| 42>
| 43>                          ****END OF INPUT****

CARTESIAN COORDINATES (ANGSTROEM)
---------------------------------
  S    -118.580000   16.921100  -112.807000
  C    -117.180000   18.046000  -112.715000
  C    -115.967000   17.357200  -112.768000
  C    -116.181000   15.913200  -112.899000
  C    -117.546000   15.557300  -113.004000
  H    -115.363000   15.272700  -112.901000
  C    -114.586000   17.900800  -112.805000
  H    -113.998000   17.308900  -112.092000
  H    -114.715000   18.897300  -112.425000
  C    -113.839000   17.786100  -114.169000
  H    -113.313000   16.869100  -114.153000
  H    -114.470000   17.836900  -115.019000
  C    -112.615000   18.725200  -114.208000
  H    -112.139000   18.443900  -115.182000
  H    -112.883000   19.768200  -114.094000
  H    -111.886000   18.426500  -113.398000
  S    -119.395000   13.549500  -112.135000
  C    -119.076000   11.896400  -112.647000
  C    -118.185000   11.808700  -113.667000
  C    -117.656000   13.104100  -113.969000
  C    -118.050000   14.176200  -113.172000
  H    -117.883000   10.869100  -114.110000
  C    -116.639000   13.299100  -115.128000
  H    -116.363000   12.306400  -115.390000
  H    -115.677000   13.620000  -114.583000
  C    -116.926000   14.143800  -116.352000
  H    -117.408000   15.012100  -116.058000
  H    -117.466000   13.588200  -117.102000
  C    -115.679000   14.624600  -117.058000
  H    -115.833000   15.448600  -117.732000
  H    -115.317000   13.754200  -117.548000
  H    -115.037000   15.022500  -116.278000
  H    -117.291000   19.086900  -112.389000
  H    -119.697000   11.069000  -112.309000

 Total Charge           Charge          ....    0
 Multiplicity           Mult            ....    1
 Number of Electrons    NEL             ....  134
 Basis Dimension        Dim             ....  322

ORBITAL ENERGIES
----------------

  NO   OCC          E(Eh)            E(eV)
   0   2.0000     -88.969095     -2420.9722
   1   2.0000     -88.962134     -2420.7827
   2   2.0000     -10.338455      -281.3237
   3   2.0000     -10.332226      -281.1542
   4   2.0000     -10.320228      -280.8277
   5   2.0000     -10.319700      -280.8133
   6   2.0000     -10.307337      -280.4769
   7   2.0000     -10.304945      -280.4118
   8   2.0000     -10.295447      -280.1534
   9   2.0000     -10.294875      -280.1378
  10   2.0000     -10.292888      -280.0837
  11   2.0000     -10.290318      -280.0138
  12   2.0000     -10.288168      -279.9553
  13   2.0000     -10.285995      -279.8962
  14   2.0000     -10.271963      -279.5143
  15   2.0000     -10.267597      -279.3955
  16   2.0000      -8.083411      -219.9608
  17   2.0000      -8.076232      -219.7654
  18   2.0000      -6.042081      -164.4134
  19   2.0000      -6.037934      -164.3005
  20   2.0000      -6.034860      -164.2169
  21   2.0000      -6.034082      -164.1957
  22   2.0000      -6.030885      -164.1087
  23   2.0000      -6.026853      -163.9990
  24   2.0000      -0.999074       -27.1862
  25   2.0000      -0.978957       -26.6388
  26   2.0000      -0.916385       -24.9361
  27   2.0000      -0.909484       -24.7483
  28   2.0000      -0.869004       -23.6468
  29   2.0000      -0.852251       -23.1909
  30   2.0000      -0.846657       -23.0387
  31   2.0000      -0.813120       -22.1261
  32   2.0000      -0.780674       -21.2432
  33   2.0000      -0.769134       -20.9292
  34   2.0000      -0.709843       -19.3158
  35   2.0000      -0.700428       -19.0596
  36   2.0000      -0.688931       -18.7468
  37   2.0000      -0.661727       -18.0065
  38   2.0000      -0.638475       -17.3738
  39   2.0000      -0.621324       -16.9071
  40   2.0000      -0.591497       -16.0955
  41   2.0000      -0.580916       -15.8075
  42   2.0000      -0.577765       -15.7218
  43   2.0000      -0.562863       -15.3163
  44   2.0000      -0.532560       -14.4917
  45   2.0000      -0.521811       -14.1992
  46   2.0000      -0.516763       -14.0618
  47   2.0000      -0.512286       -13.9400
  48   2.0000      -0.507410       -13.8073
  49   2.0000      -0.496790       -13.5183
  50   2.0000      -0.494528       -13.4568
  51   2.0000      -0.479999       -13.0614
  52   2.0000      -0.470572       -12.8049
  53   2.0000      -0.465569       -12.6688
  54   2.0000      -0.457020       -12.4361
  55   2.0000      -0.451364       -12.2822
  56   2.0000      -0.444549       -12.0968
  57   2.0000      -0.440077       -11.9751
  58   2.0000      -0.429557       -11.6888
  59   2.0000      -0.426196       -11.5974
  60   2.0000      -0.417445       -11.3593
  61   2.0000      -0.416738       -11.3400
  62   2.0000      -0.405354       -11.0302
  63   2.0000      -0.346714        -9.4346
  64   2.0000      -0.330377        -8.9900
  65   2.0000      -0.327405        -8.9091
  66   2.0000      -0.290625        -7.9083
  67   0.0000       0.022410         0.6098
  68   0.0000       0.070497         1.9183
  69   0.0000       0.103044         2.8040
  70   0.0000       0.114383         3.1125
  71   0.0000       0.125115         3.4045

MULLIKEN ATOMIC CHARGES
-----------------------
   0 S :    0.105156
   1 C :   -0.137354
   2 C :   -0.107343
   3 C :    0.038440
   4 C :   -0.123521
   5 H :   -0.013524
   6 C :    0.073247
   7 H :    0.029932
   8 H :    0.012757
   9 C :   -0.050814
  10 H :    0.019044
  11 H :    0.041666
  12 C :   -0.079476
  13 H :    0.044723
  14 H :    0.042760
  15 H :    0.037656
  16 S :    0.079929
  17 C :   -0.087188
  18 C :   -0.010677
  19 C :   -0.077251
  20 C :   -0.125470
  21 H :    0.023126
  22 C :    0.044616
  23 H :   -0.013506
  24 H :    0.024852
  25 C :    0.012529
  26 H :    0.015772
  27 H :    0.026402
  28 C :   -0.045750
  29 H :    0.031564
  30 H :    0.025466
  31 H :    0.018767
  32 H :    0.060591
  33 H :    0.062877
Sum of atomic charges:   -0.0000000

LOEWDIN ATOMIC CHARGES
----------------------
   0 S :    0.400267
   1 C :   -0.197929
   2 C :   -0.055079
   3 C :   -0.054341
   4 C :   -0.195560
   5 H :    0.015589
   6 C :   -0.033151
   7 H :    0.036281
   8 H :    0.025364
   9 C :   -0.031474
  10 H :    0.022515
  11 H :    0.020165
  12 C :   -0.063962
  13 H :    0.033725
  14 H :    0.019804
  15 H :    0.030808
  16 S :    0.367611
  17 C :   -0.167891
  18 C :   -0.076378
  19 C :   -0.050864
  20 C :   -0.184975
  21 H :    0.036114
  22 C :   -0.036214
  23 H :    0.017553
  24 H :    0.036751
  25 C :   -0.031851
  26 H :    0.016980
  27 H :    0.024800
  28 C :   -0.053608
  29 H :    0.024809
  30 H :    0.019783
  31 H :    0.021497
  32 H :    0.031471
  33 H :    0.031391

  Mayer bond orders larger than 0.100000
B(  0-S ,  1-C ) :   1.1153 B(  0-S ,  4-C ) :   1.1621 B(  1-C ,  2-C ) :   1.6171
B(  1-C , 32-H ) :   0.9615 B(  2-C ,  3-C ) :   1.2329 B(  2-C ,  6-C ) :   1.0438
B(  3-C ,  4-C ) :   1.5393 B(  3-C ,  5-H ) :   1.0053 B(  4-C , 20-C ) :   1.0508
B(  6-C ,  7-H ) :   0.9295 B(  6-C ,  8-H ) :   0.9440 B(  6-C ,  9-C ) :   1.0513
B(  9-C , 10-H ) :   0.9501 B(  9-C , 11-H ) :   0.9666 B(  9-C , 12-C ) :   1.0758
B( 12-C , 13-H ) :   0.9758 B( 12-C , 14-H ) :   0.9796 B( 12-C , 15-H ) :   0.9751
B( 16-S , 17-C ) :   1.1642 B( 16-S , 20-C ) :   1.0977 B( 17-C , 18-C ) :   1.6083
B( 17-C , 33-H ) :   0.9608 B( 18-C , 19-C ) :   1.2440 B( 18-C , 21-H ) :   0.9931
B( 19-C , 20-C ) :   1.6122 B( 19-C , 22-C ) :   1.0270 B( 22-C , 23-H ) :   0.9246
B( 22-C , 24-H ) :   0.9364 B( 22-C , 25-C ) :   1.0601 B( 25-C , 26-H ) :   0.9537
B( 25-C , 27-H ) :   0.9568 B( 25-C , 28-C ) :   1.0810 B( 28-C , 29-H ) :   0.9735
B( 28-C , 30-H ) :   0.9817 B( 28-C , 31-H ) :   0.9749

Dispersion correction           -0.014604272
FINAL SINGLE POINT ENERGY     -1339.859135935935

DIPOLE MOMENT
-------------
                                X             Y             Z
Electronic contribution:    -27.09247      -6.56495      16.92685
Nuclear contribution   :     27.79265       6.43815     -17.20728
                        -----------------------------------------
Total Dipole Moment    :      0.70018      -0.12680      -0.28043
                        -----------------------------------------
Magnitude (a.u.)       :      0.76484
Magnitude (Debye)      :      1.94406

Rotational constants in cm-1:     0.019329     0.008855     0.006853
Rotational constants in MHz :   579.473886   265.461167   205.457099

                             ****ORCA TERMINATED NORMALLY****
TOTAL RUN TIME: 0 days 0 hours 0 minutes 22 seconds 188 msec
