                         Program Version 4.2.1 -  RELEASE  -
|  1> ! wB97X-D3 SP def2-SVP
|  2> %pal
|  3> nprocs 24
|  4> end
|  5>
|  6> * xyz 0 1
|  7> S 	 -103.325 	 -4.30364 	 -109.786
|  8> C 	 -104.937 	 -4.11529 	 -109.055
|  9> C 	 -104.853 	 -3.1675 	 -108.008
| 10> C 	 -103.608 	 -2.47277 	 -107.902
| 11> C 	 -102.672 	 -3.03085 	 -108.757
| 12> H 	 -103.291 	 -1.68209 	 -107.21
| 13> C 	 -105.926 	 -2.78573 	 -107.066
| 14> H 	 -106.963 	 -3.09198 	 -107.332
| 15> H 	 -106 	 -1.64885 	 -107.08
| 16> C 	 -105.667 	 -3.34927 	 -105.616
| 17> H 	 -105.686 	 -4.39445 	 -105.689
| 18> H 	 -104.647 	 -3.05824 	 -105.26
| 19> C 	 -106.842 	 -3.04461 	 -104.686
| 20> H 	 -107.749 	 -3.26435 	 -105.238
| 21> H 	 -106.893 	 -3.53766 	 -103.748
| 22> H 	 -106.88 	 -2.02106 	 -104.349
| 23> S 	 -100.702 	 -2.20246 	 -110.595
| 24> C 	 -99.1718 	 -1.71068 	 -109.985
| 25> C 	 -99.0712 	 -1.9391 	 -108.655
| 26> C 	 -100.276 	 -2.36872 	 -108.039
| 27> C 	 -101.294 	 -2.61121 	 -108.963
| 28> H 	 -98.1506 	 -1.74246 	 -108.055
| 29> C 	 -100.401 	 -2.41071 	 -106.565
| 30> H 	 -99.6896 	 -3.18101 	 -106.117
| 31> H 	 -101.477 	 -2.62808 	 -106.251
| 32> C 	 -99.9588 	 -1.11366 	 -105.777
| 33> H 	 -100.572 	 -0.247267 	 -106.057
| 34> H 	 -98.9209 	 -0.946415 	 -106.057
| 35> C 	 -100.073 	 -1.1886 	 -104.261
| 36> H 	 -101.053 	 -1.43329 	 -103.915
| 37> H 	 -99.8034 	 -0.261049 	 -103.807
| 38> H 	 -99.4423 	 -1.94269 	 -103.73
| 39> H 	 -105.863 	 -4.5947 	 -109.325
| 40> H 	 -98.4009 	 -1.25485 	 -110.522
| 41> *
| 42>
| 43>                          ****END OF INPUT****

CARTESIAN COORDINATES (ANGSTROEM)
---------------------------------
  S    -103.325000   -4.303640  -109.786000
  C    -104.937000   -4.115290  -109.055000
  C    -104.853000   -3.167500  -108.008000
  C    -103.608000   -2.472770  -107.902000
  C    -102.672000   -3.030850  -108.757000
  H    -103.291000   -1.682090  -107.210000
  C    -105.926000   -2.785730  -107.066000
  H    -106.963000   -3.091980  -107.332000
  H    -106.000000   -1.648850  -107.080000
  C    -105.667000   -3.349270  -105.616000
  H    -105.686000   -4.394450  -105.689000
  H    -104.647000   -3.058240  -105.260000
  C    -106.842000   -3.044610  -104.686000
  H    -107.749000   -3.264350  -105.238000
  H    -106.893000   -3.537660  -103.748000
  H    -106.880000   -2.021060  -104.349000
  S    -100.702000   -2.202460  -110.595000
  C    -99.171800   -1.710680  -109.985000
  C    -99.071200   -1.939100  -108.655000
  C    -100.276000   -2.368720  -108.039000
  C    -101.294000   -2.611210  -108.963000
  H    -98.150600   -1.742460  -108.055000
  C    -100.401000   -2.410710  -106.565000
  H    -99.689600   -3.181010  -106.117000
  H    -101.477000   -2.628080  -106.251000
  C    -99.958800   -1.113660  -105.777000
  H    -100.572000   -0.247267  -106.057000
  H    -98.920900   -0.946415  -106.057000
  C    -100.073000   -1.188600  -104.261000
  H    -101.053000   -1.433290  -103.915000
  H    -99.803400   -0.261049  -103.807000
  H    -99.442300   -1.942690  -103.730000
  H    -105.863000   -4.594700  -109.325000
  H    -98.400900   -1.254850  -110.522000

 Total Charge           Charge          ....    0
 Multiplicity           Mult            ....    1
 Number of Electrons    NEL             ....  134
 Basis Dimension        Dim             ....  322

ORBITAL ENERGIES
----------------

  NO   OCC          E(Eh)            E(eV)
   0   2.0000     -88.968580     -2420.9582
   1   2.0000     -88.966121     -2420.8912
   2   2.0000     -10.332169      -281.1526
   3   2.0000     -10.328402      -281.0501
   4   2.0000     -10.318022      -280.7676
   5   2.0000     -10.311966      -280.6029
   6   2.0000     -10.304261      -280.3932
   7   2.0000     -10.302400      -280.3426
   8   2.0000     -10.301418      -280.3158
   9   2.0000     -10.297541      -280.2103
  10   2.0000     -10.297251      -280.2025
  11   2.0000     -10.292463      -280.0722
  12   2.0000     -10.292303      -280.0678
  13   2.0000     -10.288478      -279.9637
  14   2.0000     -10.277948      -279.6772
  15   2.0000     -10.273230      -279.5488
  16   2.0000      -8.082356      -219.9321
  17   2.0000      -8.080872      -219.8917
  18   2.0000      -6.040982      -164.3835
  19   2.0000      -6.039405      -164.3406
  20   2.0000      -6.036982      -164.2746
  21   2.0000      -6.035342      -164.2300
  22   2.0000      -6.033064      -164.1680
  23   2.0000      -6.031631      -164.1290
  24   2.0000      -1.006611       -27.3913
  25   2.0000      -0.983134       -26.7524
  26   2.0000      -0.910606       -24.7788
  27   2.0000      -0.908288       -24.7158
  28   2.0000      -0.869809       -23.6687
  29   2.0000      -0.856415       -23.3042
  30   2.0000      -0.848194       -23.0805
  31   2.0000      -0.815115       -22.1804
  32   2.0000      -0.781409       -21.2632
  33   2.0000      -0.768726       -20.9181
  34   2.0000      -0.709179       -19.2977
  35   2.0000      -0.702081       -19.1046
  36   2.0000      -0.699853       -19.0440
  37   2.0000      -0.656902       -17.8752
  38   2.0000      -0.642864       -17.4932
  39   2.0000      -0.620147       -16.8751
  40   2.0000      -0.601279       -16.3616
  41   2.0000      -0.566538       -15.4163
  42   2.0000      -0.565325       -15.3833
  43   2.0000      -0.559324       -15.2200
  44   2.0000      -0.526005       -14.3133
  45   2.0000      -0.523184       -14.2366
  46   2.0000      -0.519367       -14.1327
  47   2.0000      -0.514096       -13.9893
  48   2.0000      -0.507542       -13.8109
  49   2.0000      -0.500290       -13.6136
  50   2.0000      -0.494739       -13.4625
  51   2.0000      -0.480703       -13.0806
  52   2.0000      -0.469805       -12.7841
  53   2.0000      -0.463445       -12.6110
  54   2.0000      -0.459876       -12.5139
  55   2.0000      -0.453734       -12.3467
  56   2.0000      -0.448980       -12.2174
  57   2.0000      -0.436381       -11.8745
  58   2.0000      -0.427383       -11.6297
  59   2.0000      -0.426506       -11.6058
  60   2.0000      -0.423972       -11.5369
  61   2.0000      -0.419715       -11.4210
  62   2.0000      -0.414630       -11.2827
  63   2.0000      -0.347564        -9.4577
  64   2.0000      -0.329599        -8.9688
  65   2.0000      -0.328862        -8.9488
  66   2.0000      -0.290658        -7.9092
  67   0.0000       0.028807         0.7839
  68   0.0000       0.068916         1.8753
  69   0.0000       0.109584         2.9819
  70   0.0000       0.119684         3.2568
  71   0.0000       0.121134         3.2962

MULLIKEN ATOMIC CHARGES
-----------------------
   0 S :    0.109274
   1 C :   -0.105319
   2 C :   -0.071707
   3 C :    0.022279
   4 C :   -0.160876
   5 H :    0.032700
   6 C :    0.005016
   7 H :    0.013733
   8 H :    0.042193
   9 C :   -0.059134
  10 H :    0.021602
  11 H :    0.034332
  12 C :   -0.021261
  13 H :    0.022129
  14 H :    0.025091
  15 H :    0.020168
  16 S :    0.113332
  17 C :   -0.060904
  18 C :   -0.048643
  19 C :    0.014612
  20 C :   -0.156916
  21 H :    0.032687
  22 C :    0.000961
  23 H :    0.042765
  24 H :    0.032972
  25 C :   -0.083567
  26 H :    0.034599
  27 H :    0.025596
  28 C :   -0.030449
  29 H :    0.016888
  30 H :    0.028852
  31 H :    0.024966
  32 H :    0.044719
  33 H :    0.037310
Sum of atomic charges:    0.0000000

LOEWDIN ATOMIC CHARGES
----------------------
   0 S :    0.393984
   1 C :   -0.198563
   2 C :   -0.059040
   3 C :   -0.064907
   4 C :   -0.178732
   5 H :    0.039203
   6 C :   -0.040350
   7 H :    0.026114
   8 H :    0.036889
   9 C :   -0.032884
  10 H :    0.020209
  11 H :    0.024625
  12 C :   -0.065129
  13 H :    0.025648
  14 H :    0.022408
  15 H :    0.022373
  16 S :    0.405867
  17 C :   -0.180179
  18 C :   -0.075426
  19 C :   -0.058009
  20 C :   -0.197004
  21 H :    0.037228
  22 C :   -0.042636
  23 H :    0.041215
  24 H :    0.032721
  25 C :   -0.038399
  26 H :    0.025828
  27 H :    0.019565
  28 C :   -0.066836
  29 H :    0.019496
  30 H :    0.025533
  31 H :    0.027154
  32 H :    0.029328
  33 H :    0.022706

  Mayer bond orders larger than 0.100000
B(  0-S ,  1-C ) :   1.1143 B(  0-S ,  4-C ) :   1.1566 B(  1-C ,  2-C ) :   1.6082
B(  1-C , 32-H ) :   0.9724 B(  2-C ,  3-C ) :   1.2155 B(  2-C ,  6-C ) :   1.0441
B(  3-C ,  4-C ) :   1.5754 B(  3-C ,  5-H ) :   0.9859 B(  4-C , 20-C ) :   1.0431
B(  6-C ,  7-H ) :   0.9423 B(  6-C ,  8-H ) :   0.9421 B(  6-C ,  9-C ) :   1.0469
B(  9-C , 10-H ) :   0.9544 B(  9-C , 11-H ) :   0.9587 B(  9-C , 12-C ) :   1.0790
B( 12-C , 13-H ) :   0.9703 B( 12-C , 14-H ) :   0.9748 B( 12-C , 15-H ) :   0.9747
B( 16-S , 17-C ) :   1.1582 B( 16-S , 20-C ) :   1.1289 B( 17-C , 18-C ) :   1.6090
B( 17-C , 33-H ) :   0.9726 B( 18-C , 19-C ) :   1.2448 B( 18-C , 21-H ) :   0.9796
B( 19-C , 20-C ) :   1.5816 B( 19-C , 22-C ) :   1.0689 B( 22-C , 23-H ) :   0.9259
B( 22-C , 24-H ) :   0.9361 B( 22-C , 25-C ) :   1.0549 B( 25-C , 26-H ) :   0.9555
B( 25-C , 27-H ) :   0.9509 B( 25-C , 28-C ) :   1.0911 B( 28-C , 29-H ) :   0.9731
B( 28-C , 30-H ) :   0.9725 B( 28-C , 31-H ) :   0.9716

Dispersion correction           -0.013777592
FINAL SINGLE POINT ENERGY     -1339.881451447541

DIPOLE MOMENT
-------------
                                X             Y             Z
Electronic contribution:      7.97001      -6.75454     -31.68343
Nuclear contribution   :     -7.96762       7.08004      32.39103
                        -----------------------------------------
Total Dipole Moment    :      0.00238       0.32550       0.70760
                        -----------------------------------------
Magnitude (a.u.)       :      0.77888
Magnitude (Debye)      :      1.97976

Rotational constants in cm-1:     0.016469     0.009379     0.006284
Rotational constants in MHz :   493.730395   281.175939   188.378918

                             ****ORCA TERMINATED NORMALLY****
TOTAL RUN TIME: 0 days 0 hours 0 minutes 20 seconds 310 msec
