                         Program Version 4.2.1 -  RELEASE  -
|  1> ! wB97X-D3 SP def2-SVP
|  2> %pal
|  3> nprocs 24
|  4> end
|  5>
|  6> * xyz 0 1
|  7> S 	 -81.9849 	 -7.94216 	 -56.9293
|  8> C 	 -82.9132 	 -9.40351 	 -56.7886
|  9> C 	 -84.2746 	 -9.1958 	 -57.0733
| 10> C 	 -84.5323 	 -7.8452 	 -57.3786
| 11> C 	 -83.3883 	 -7.05594 	 -57.4776
| 12> H 	 -85.4879 	 -7.38881 	 -57.5724
| 13> C 	 -85.4281 	 -10.2474 	 -56.8653
| 14> H 	 -85.5116 	 -10.4211 	 -55.7886
| 15> H 	 -85.0161 	 -11.1707 	 -57.1147
| 16> C 	 -86.7536 	 -10.0442 	 -57.4854
| 17> H 	 -87.291 	 -9.13394 	 -57.154
| 18> H 	 -86.5463 	 -9.85802 	 -58.5013
| 19> C 	 -87.6384 	 -11.2861 	 -57.2565
| 20> H 	 -88.6103 	 -10.993 	 -57.4233
| 21> H 	 -87.3948 	 -12.1962 	 -57.8112
| 22> H 	 -87.7728 	 -11.6087 	 -56.2391
| 23> S 	 -82.5871 	 -4.61215 	 -56.5254
| 24> C 	 -82.9492 	 -3.20192 	 -57.5167
| 25> C 	 -83.8616 	 -3.47764 	 -58.5019
| 26> C 	 -84.0211 	 -4.88541 	 -58.6867
| 27> C 	 -83.3164 	 -5.62758 	 -57.7267
| 28> H 	 -84.1498 	 -2.60986 	 -59.1022
| 29> C 	 -84.5909 	 -5.40448 	 -59.9843
| 30> H 	 -85.0071 	 -4.52363 	 -60.4871
| 31> H 	 -85.3304 	 -6.1771 	 -59.7822
| 32> C 	 -83.5266 	 -5.98612 	 -60.869
| 33> H 	 -82.9856 	 -6.72922 	 -60.2855
| 34> H 	 -82.6541 	 -5.33942 	 -61.1203
| 35> C 	 -84.1439 	 -6.70192 	 -62.0745
| 36> H 	 -85.038 	 -7.28699 	 -61.8887
| 37> H 	 -83.4605 	 -7.25095 	 -62.707
| 38> H 	 -84.5148 	 -5.95442 	 -62.8165
| 39> H 	 -82.4498 	 -10.3236 	 -56.5445
| 40> H 	 -82.6063 	 -2.18095 	 -57.3358
| 41> *
| 42>
| 43>                          ****END OF INPUT****

CARTESIAN COORDINATES (ANGSTROEM)
---------------------------------
  S    -81.984900   -7.942160  -56.929300
  C    -82.913200   -9.403510  -56.788600
  C    -84.274600   -9.195800  -57.073300
  C    -84.532300   -7.845200  -57.378600
  C    -83.388300   -7.055940  -57.477600
  H    -85.487900   -7.388810  -57.572400
  C    -85.428100  -10.247400  -56.865300
  H    -85.511600  -10.421100  -55.788600
  H    -85.016100  -11.170700  -57.114700
  C    -86.753600  -10.044200  -57.485400
  H    -87.291000   -9.133940  -57.154000
  H    -86.546300   -9.858020  -58.501300
  C    -87.638400  -11.286100  -57.256500
  H    -88.610300  -10.993000  -57.423300
  H    -87.394800  -12.196200  -57.811200
  H    -87.772800  -11.608700  -56.239100
  S    -82.587100   -4.612150  -56.525400
  C    -82.949200   -3.201920  -57.516700
  C    -83.861600   -3.477640  -58.501900
  C    -84.021100   -4.885410  -58.686700
  C    -83.316400   -5.627580  -57.726700
  H    -84.149800   -2.609860  -59.102200
  C    -84.590900   -5.404480  -59.984300
  H    -85.007100   -4.523630  -60.487100
  H    -85.330400   -6.177100  -59.782200
  C    -83.526600   -5.986120  -60.869000
  H    -82.985600   -6.729220  -60.285500
  H    -82.654100   -5.339420  -61.120300
  C    -84.143900   -6.701920  -62.074500
  H    -85.038000   -7.286990  -61.888700
  H    -83.460500   -7.250950  -62.707000
  H    -84.514800   -5.954420  -62.816500
  H    -82.449800  -10.323600  -56.544500
  H    -82.606300   -2.180950  -57.335800

 Total Charge           Charge          ....    0
 Multiplicity           Mult            ....    1
 Number of Electrons    NEL             ....  134
 Basis Dimension        Dim             ....  322

ORBITAL ENERGIES
----------------

  NO   OCC          E(Eh)            E(eV)
   0   2.0000     -88.967589     -2420.9312
   1   2.0000     -88.965459     -2420.8732
   2   2.0000     -10.326458      -280.9972
   3   2.0000     -10.322486      -280.8891
   4   2.0000     -10.314283      -280.6659
   5   2.0000     -10.312949      -280.6296
   6   2.0000     -10.305331      -280.4223
   7   2.0000     -10.301040      -280.3055
   8   2.0000     -10.292452      -280.0718
   9   2.0000     -10.292162      -280.0640
  10   2.0000     -10.287983      -279.9502
  11   2.0000     -10.286788      -279.9177
  12   2.0000     -10.286572      -279.9119
  13   2.0000     -10.280829      -279.7556
  14   2.0000     -10.274176      -279.5745
  15   2.0000     -10.274131      -279.5733
  16   2.0000      -8.082409      -219.9335
  17   2.0000      -8.080285      -219.8757
  18   2.0000      -6.040758      -164.3774
  19   2.0000      -6.038770      -164.3233
  20   2.0000      -6.036829      -164.2705
  21   2.0000      -6.034883      -164.2175
  22   2.0000      -6.033435      -164.1781
  23   2.0000      -6.030964      -164.1109
  24   2.0000      -1.007294       -27.4099
  25   2.0000      -0.983681       -26.7673
  26   2.0000      -0.917526       -24.9671
  27   2.0000      -0.911552       -24.8046
  28   2.0000      -0.870664       -23.6920
  29   2.0000      -0.851062       -23.1586
  30   2.0000      -0.845523       -23.0078
  31   2.0000      -0.813961       -22.1490
  32   2.0000      -0.786822       -21.4105
  33   2.0000      -0.769328       -20.9345
  34   2.0000      -0.718089       -19.5402
  35   2.0000      -0.702981       -19.1291
  36   2.0000      -0.688177       -18.7262
  37   2.0000      -0.659641       -17.9498
  38   2.0000      -0.643869       -17.5206
  39   2.0000      -0.622641       -16.9429
  40   2.0000      -0.594325       -16.1724
  41   2.0000      -0.570708       -15.5298
  42   2.0000      -0.566956       -15.4277
  43   2.0000      -0.557933       -15.1821
  44   2.0000      -0.529166       -14.3993
  45   2.0000      -0.519328       -14.1316
  46   2.0000      -0.512563       -13.9475
  47   2.0000      -0.509174       -13.8553
  48   2.0000      -0.500902       -13.6302
  49   2.0000      -0.498252       -13.5581
  50   2.0000      -0.490353       -13.3432
  51   2.0000      -0.485475       -13.2104
  52   2.0000      -0.478736       -13.0271
  53   2.0000      -0.464630       -12.6432
  54   2.0000      -0.459129       -12.4935
  55   2.0000      -0.450398       -12.2559
  56   2.0000      -0.444857       -12.1052
  57   2.0000      -0.443535       -12.0692
  58   2.0000      -0.437174       -11.8961
  59   2.0000      -0.426399       -11.6029
  60   2.0000      -0.422220       -11.4892
  61   2.0000      -0.417160       -11.3515
  62   2.0000      -0.401254       -10.9187
  63   2.0000      -0.346436        -9.4270
  64   2.0000      -0.332692        -9.0530
  65   2.0000      -0.328297        -8.9334
  66   2.0000      -0.285295        -7.7633
  67   0.0000       0.024439         0.6650
  68   0.0000       0.072343         1.9686
  69   0.0000       0.107621         2.9285
  70   0.0000       0.126584         3.4445
  71   0.0000       0.134780         3.6675

MULLIKEN ATOMIC CHARGES
-----------------------
   0 S :    0.114005
   1 C :   -0.122788
   2 C :   -0.066353
   3 C :    0.019790
   4 C :   -0.178484
   5 H :    0.013107
   6 C :    0.088304
   7 H :    0.028889
   8 H :   -0.005492
   9 C :   -0.060594
  10 H :    0.036661
  11 H :    0.020016
  12 C :   -0.005749
  13 H :    0.004037
  14 H :    0.040692
  15 H :    0.015155
  16 S :    0.113269
  17 C :   -0.105224
  18 C :   -0.043499
  19 C :   -0.045171
  20 C :   -0.138836
  21 H :    0.029022
  22 C :    0.100625
  23 H :    0.021410
  24 H :    0.017329
  25 C :   -0.071133
  26 H :    0.026331
  27 H :    0.031120
  28 C :   -0.039041
  29 H :    0.027744
  30 H :    0.028865
  31 H :    0.015906
  32 H :    0.035908
  33 H :    0.054182
Sum of atomic charges:   -0.0000000

LOEWDIN ATOMIC CHARGES
----------------------
   0 S :    0.419125
   1 C :   -0.198137
   2 C :   -0.056358
   3 C :   -0.062458
   4 C :   -0.200432
   5 H :    0.029359
   6 C :   -0.031555
   7 H :    0.034515
   8 H :    0.021886
   9 C :   -0.038656
  10 H :    0.029072
  11 H :    0.021960
  12 C :   -0.058196
  13 H :    0.018278
  14 H :    0.029966
  15 H :    0.026589
  16 S :    0.406071
  17 C :   -0.182582
  18 C :   -0.073342
  19 C :   -0.057299
  20 C :   -0.210328
  21 H :    0.037977
  22 C :   -0.027006
  23 H :    0.031017
  24 H :    0.028644
  25 C :   -0.045377
  26 H :    0.024548
  27 H :    0.031782
  28 C :   -0.071148
  29 H :    0.023946
  30 H :    0.024574
  31 H :    0.025760
  32 H :    0.018210
  33 H :    0.029597

  Mayer bond orders larger than 0.100000
B(  0-S ,  1-C ) :   1.1600 B(  0-S ,  4-C ) :   1.1626 B(  1-C ,  2-C ) :   1.5696
B(  1-C ,  4-C ) :   0.1097 B(  1-C , 32-H ) :   0.9789 B(  2-C ,  3-C ) :   1.2783
B(  2-C ,  6-C ) :   0.9961 B(  3-C ,  4-C ) :   1.5421 B(  3-C ,  5-H ) :   0.9894
B(  4-C , 20-C ) :   1.0446 B(  6-C ,  7-H ) :   0.9332 B(  6-C ,  8-H ) :   0.9340
B(  6-C ,  9-C ) :   1.0789 B(  9-C , 10-H ) :   0.9451 B(  9-C , 11-H ) :   0.9540
B(  9-C , 12-C ) :   1.0839 B( 12-C , 13-H ) :   0.9679 B( 12-C , 14-H ) :   0.9754
B( 12-C , 15-H ) :   0.9703 B( 16-S , 17-C ) :   1.1443 B( 16-S , 20-C ) :   1.1502
B( 17-C , 18-C ) :   1.6395 B( 17-C , 33-H ) :   0.9642 B( 18-C , 19-C ) :   1.2336
B( 18-C , 21-H ) :   0.9855 B( 19-C , 20-C ) :   1.5713 B( 19-C , 22-C ) :   1.0549
B( 22-C , 23-H ) :   0.9370 B( 22-C , 24-H ) :   0.9194 B( 22-C , 25-C ) :   1.0725
B( 25-C , 26-H ) :   0.9517 B( 25-C , 27-H ) :   0.9504 B( 25-C , 28-C ) :   1.0776
B( 28-C , 29-H ) :   0.9744 B( 28-C , 30-H ) :   0.9731 B( 28-C , 31-H ) :   0.9714

Dispersion correction           -0.014195427
FINAL SINGLE POINT ENERGY     -1339.867810229439

DIPOLE MOMENT
-------------
                                X             Y             Z
Electronic contribution:     19.91653      14.23191      15.98447
Nuclear contribution   :    -20.43445     -14.43326     -16.22668
                        -----------------------------------------
Total Dipole Moment    :     -0.51792      -0.20134      -0.24221
                        -----------------------------------------
Magnitude (a.u.)       :      0.60618
Magnitude (Debye)      :      1.54077

Rotational constants in cm-1:     0.017763     0.008604     0.007101
Rotational constants in MHz :   532.528752   257.955574   212.872525

                             ****ORCA TERMINATED NORMALLY****
TOTAL RUN TIME: 0 days 0 hours 0 minutes 21 seconds 838 msec
