                         Program Version 4.2.1 -  RELEASE  -
|  1> ! wB97X-D3 SP def2-SVP
|  2> %pal
|  3> nprocs 24
|  4> end
|  5>
|  6> * xyz 0 1
|  7> S 	 -50.7564 	 16.3077 	 -86.7849
|  8> C 	 -49.7865 	 17.6746 	 -87.3026
|  9> C 	 -49.6822 	 17.6836 	 -88.715
| 10> C 	 -50.0914 	 16.4454 	 -89.2899
| 11> C 	 -50.444 	 15.4795 	 -88.3638
| 12> H 	 -49.9848 	 16.2256 	 -90.331
| 13> C 	 -49.1507 	 18.7389 	 -89.571
| 14> H 	 -49.2966 	 19.709 	 -89.1856
| 15> H 	 -49.9387 	 18.656 	 -90.2584
| 16> C 	 -47.8104 	 18.4484 	 -90.2219
| 17> H 	 -47.8792 	 17.4748 	 -90.8704
| 18> H 	 -47.4238 	 19.2076 	 -90.8704
| 19> C 	 -46.7327 	 18.3062 	 -89.1028
| 20> H 	 -46.7198 	 17.34 	 -88.6825
| 21> H 	 -45.7482 	 18.4911 	 -89.5326
| 22> H 	 -46.7424 	 18.9689 	 -88.2538
| 23> S 	 -51.0447 	 13.0607 	 -87.1444
| 24> C 	 -51.314 	 11.6859 	 -88.1255
| 25> C 	 -50.8578 	 11.8554 	 -89.4098
| 26> C 	 -50.466 	 13.1995 	 -89.6962
| 27> C 	 -50.6447 	 14.0413 	 -88.6135
| 28> H 	 -50.9177 	 10.9698 	 -90.017
| 29> C 	 -49.9753 	 13.6242 	 -91.0685
| 30> H 	 -50.3676 	 14.5872 	 -91.3625
| 31> H 	 -50.4103 	 12.9755 	 -91.7701
| 32> C 	 -48.4696 	 13.5766 	 -91.2346
| 33> H 	 -47.9778 	 12.6597 	 -91.0282
| 34> H 	 -47.9751 	 14.2327 	 -90.4893
| 35> C 	 -48.044 	 13.8706 	 -92.6413
| 36> H 	 -48.3909 	 13.0362 	 -93.1993
| 37> H 	 -46.9897 	 13.9508 	 -92.8523
| 38> H 	 -48.5495 	 14.7641 	 -93.0304
| 39> H 	 -49.648 	 18.6281 	 -86.7764
| 40> H 	 -51.6725 	 10.7047 	 -87.8351
| 41> *
| 42>
| 43>                          ****END OF INPUT****

CARTESIAN COORDINATES (ANGSTROEM)
---------------------------------
  S    -50.756400   16.307700  -86.784900
  C    -49.786500   17.674600  -87.302600
  C    -49.682200   17.683600  -88.715000
  C    -50.091400   16.445400  -89.289900
  C    -50.444000   15.479500  -88.363800
  H    -49.984800   16.225600  -90.331000
  C    -49.150700   18.738900  -89.571000
  H    -49.296600   19.709000  -89.185600
  H    -49.938700   18.656000  -90.258400
  C    -47.810400   18.448400  -90.221900
  H    -47.879200   17.474800  -90.870400
  H    -47.423800   19.207600  -90.870400
  C    -46.732700   18.306200  -89.102800
  H    -46.719800   17.340000  -88.682500
  H    -45.748200   18.491100  -89.532600
  H    -46.742400   18.968900  -88.253800
  S    -51.044700   13.060700  -87.144400
  C    -51.314000   11.685900  -88.125500
  C    -50.857800   11.855400  -89.409800
  C    -50.466000   13.199500  -89.696200
  C    -50.644700   14.041300  -88.613500
  H    -50.917700   10.969800  -90.017000
  C    -49.975300   13.624200  -91.068500
  H    -50.367600   14.587200  -91.362500
  H    -50.410300   12.975500  -91.770100
  C    -48.469600   13.576600  -91.234600
  H    -47.977800   12.659700  -91.028200
  H    -47.975100   14.232700  -90.489300
  C    -48.044000   13.870600  -92.641300
  H    -48.390900   13.036200  -93.199300
  H    -46.989700   13.950800  -92.852300
  H    -48.549500   14.764100  -93.030400
  H    -49.648000   18.628100  -86.776400
  H    -51.672500   10.704700  -87.835100

 Total Charge           Charge          ....    0
 Multiplicity           Mult            ....    1
 Number of Electrons    NEL             ....  134
 Basis Dimension        Dim             ....  322

ORBITAL ENERGIES
----------------

  NO   OCC          E(Eh)            E(eV)
   0   2.0000     -88.966352     -2420.8975
   1   2.0000     -88.965088     -2420.8631
   2   2.0000     -10.338541      -281.3260
   3   2.0000     -10.334663      -281.2205
   4   2.0000     -10.314225      -280.6643
   5   2.0000     -10.313477      -280.6440
   6   2.0000     -10.309127      -280.5256
   7   2.0000     -10.299922      -280.2751
   8   2.0000     -10.297398      -280.2064
   9   2.0000     -10.292550      -280.0745
  10   2.0000     -10.291738      -280.0524
  11   2.0000     -10.290635      -280.0224
  12   2.0000     -10.282292      -279.7954
  13   2.0000     -10.280123      -279.7364
  14   2.0000     -10.273808      -279.5645
  15   2.0000     -10.268612      -279.4231
  16   2.0000      -8.079808      -219.8628
  17   2.0000      -8.079747      -219.8611
  18   2.0000      -6.038582      -164.3182
  19   2.0000      -6.038309      -164.3107
  20   2.0000      -6.034794      -164.2151
  21   2.0000      -6.034419      -164.2049
  22   2.0000      -6.030319      -164.0933
  23   2.0000      -6.030045      -164.0859
  24   2.0000      -1.003882       -27.3170
  25   2.0000      -0.983479       -26.7618
  26   2.0000      -0.920776       -25.0556
  27   2.0000      -0.918257       -24.9870
  28   2.0000      -0.866959       -23.5912
  29   2.0000      -0.857469       -23.3329
  30   2.0000      -0.845108       -22.9965
  31   2.0000      -0.815903       -22.2018
  32   2.0000      -0.787890       -21.4396
  33   2.0000      -0.774710       -21.0809
  34   2.0000      -0.712447       -19.3867
  35   2.0000      -0.705463       -19.1966
  36   2.0000      -0.698603       -19.0100
  37   2.0000      -0.662195       -18.0192
  38   2.0000      -0.632858       -17.2209
  39   2.0000      -0.628847       -17.1118
  40   2.0000      -0.600796       -16.3485
  41   2.0000      -0.571757       -15.5583
  42   2.0000      -0.567172       -15.4335
  43   2.0000      -0.552569       -15.0362
  44   2.0000      -0.541895       -14.7457
  45   2.0000      -0.532081       -14.4787
  46   2.0000      -0.520363       -14.1598
  47   2.0000      -0.514819       -14.0089
  48   2.0000      -0.501251       -13.6397
  49   2.0000      -0.500589       -13.6217
  50   2.0000      -0.489595       -13.3226
  51   2.0000      -0.486028       -13.2255
  52   2.0000      -0.469299       -12.7703
  53   2.0000      -0.462941       -12.5973
  54   2.0000      -0.459638       -12.5074
  55   2.0000      -0.452472       -12.3124
  56   2.0000      -0.446801       -12.1581
  57   2.0000      -0.441796       -12.0219
  58   2.0000      -0.435404       -11.8479
  59   2.0000      -0.427761       -11.6400
  60   2.0000      -0.420566       -11.4442
  61   2.0000      -0.414244       -11.2722
  62   2.0000      -0.405916       -11.0455
  63   2.0000      -0.363306        -9.8860
  64   2.0000      -0.333222        -9.0674
  65   2.0000      -0.324324        -8.8253
  66   2.0000      -0.276968        -7.5367
  67   0.0000       0.011646         0.3169
  68   0.0000       0.082898         2.2558
  69   0.0000       0.086488         2.3535
  70   0.0000       0.113054         3.0764
  71   0.0000       0.118967         3.2373

MULLIKEN ATOMIC CHARGES
-----------------------
   0 S :    0.099424
   1 C :   -0.104713
   2 C :   -0.128777
   3 C :   -0.007216
   4 C :   -0.083025
   5 H :   -0.013358
   6 C :    0.118388
   7 H :    0.006236
   8 H :    0.012437
   9 C :   -0.074788
  10 H :    0.045417
  11 H :    0.032008
  12 C :   -0.043817
  13 H :    0.035102
  14 H :    0.020471
  15 H :    0.022342
  16 S :    0.094134
  17 C :   -0.073248
  18 C :   -0.044932
  19 C :   -0.047616
  20 C :   -0.121782
  21 H :    0.012787
  22 C :    0.087813
  23 H :    0.020355
  24 H :   -0.004909
  25 C :   -0.055361
  26 H :    0.014014
  27 H :    0.028573
  28 C :   -0.021500
  29 H :    0.016460
  30 H :    0.035813
  31 H :    0.019212
  32 H :    0.053698
  33 H :    0.050357
Sum of atomic charges:   -0.0000000

LOEWDIN ATOMIC CHARGES
----------------------
   0 S :    0.371182
   1 C :   -0.211629
   2 C :   -0.051400
   3 C :   -0.067734
   4 C :   -0.159025
   5 H :    0.022079
   6 C :   -0.038301
   7 H :    0.025366
   8 H :    0.033605
   9 C :   -0.034290
  10 H :    0.036459
  11 H :    0.021450
  12 C :   -0.065854
  13 H :    0.022146
  14 H :    0.024290
  15 H :    0.023096
  16 S :    0.391864
  17 C :   -0.190220
  18 C :   -0.074680
  19 C :   -0.050502
  20 C :   -0.167734
  21 H :    0.031971
  22 C :   -0.021670
  23 H :    0.027074
  24 H :    0.023925
  25 C :   -0.041570
  26 H :    0.022425
  27 H :    0.025135
  28 C :   -0.060775
  29 H :    0.021566
  30 H :    0.026771
  31 H :    0.021174
  32 H :    0.032193
  33 H :    0.031614

  Mayer bond orders larger than 0.100000
B(  0-S ,  1-C ) :   1.1143 B(  0-S ,  4-C ) :   1.1270 B(  1-C ,  2-C ) :   1.5973
B(  1-C , 32-H ) :   0.9611 B(  2-C ,  3-C ) :   1.2407 B(  2-C ,  6-C ) :   1.0128
B(  3-C ,  4-C ) :   1.5640 B(  3-C ,  5-H ) :   0.9919 B(  4-C , 20-C ) :   1.1066
B(  6-C ,  7-H ) :   0.9373 B(  6-C ,  8-H ) :   0.9274 B(  6-C ,  9-C ) :   1.0738
B(  9-C , 10-H ) :   0.9521 B(  9-C , 11-H ) :   0.9618 B(  9-C , 12-C ) :   1.0594
B( 12-C , 13-H ) :   0.9758 B( 12-C , 14-H ) :   0.9769 B( 12-C , 15-H ) :   0.9774
B( 16-S , 17-C ) :   1.1544 B( 16-S , 20-C ) :   1.1145 B( 17-C , 18-C ) :   1.6357
B( 17-C , 33-H ) :   0.9627 B( 18-C , 19-C ) :   1.2185 B( 18-C , 21-H ) :   0.9955
B( 19-C , 20-C ) :   1.6037 B( 19-C , 22-C ) :   1.0340 B( 22-C , 23-H ) :   0.9355
B( 22-C , 24-H ) :   0.9226 B( 22-C , 25-C ) :   1.0629 B( 25-C , 26-H ) :   0.9520
B( 25-C , 27-H ) :   0.9513 B( 25-C , 28-C ) :   1.0796 B( 28-C , 29-H ) :   0.9732
B( 28-C , 30-H ) :   0.9729 B( 28-C , 31-H ) :   0.9726

Dispersion correction           -0.015037350
FINAL SINGLE POINT ENERGY     -1339.848762834788

DIPOLE MOMENT
-------------
                                X             Y             Z
Electronic contribution:    -18.71643      -8.58890      23.34459
Nuclear contribution   :     19.00099       8.59335     -24.14143
                        -----------------------------------------
Total Dipole Moment    :      0.28456       0.00445      -0.79684
                        -----------------------------------------
Magnitude (a.u.)       :      0.84613
Magnitude (Debye)      :      2.15070

Rotational constants in cm-1:     0.017120     0.010688     0.007086
Rotational constants in MHz :   513.236106   320.432209   212.426904

                             ****ORCA TERMINATED NORMALLY****
TOTAL RUN TIME: 0 days 0 hours 0 minutes 22 seconds 786 msec
