                         Program Version 4.2.1 -  RELEASE  -
|  1> ! wB97X-D3 SP def2-SVP
|  2> %pal
|  3> nprocs 24
|  4> end
|  5>
|  6> * xyz 0 1
|  7> S 	 -46.9827 	 7.00271 	 -20.0895
|  8> C 	 -47.2619 	 5.91099 	 -18.8153
|  9> C 	 -47.7744 	 6.56598 	 -17.7196
| 10> C 	 -48.087 	 7.97087 	 -17.9414
| 11> C 	 -47.699 	 8.34445 	 -19.1813
| 12> H 	 -48.6231 	 8.56599 	 -17.1707
| 13> C 	 -48.3694 	 5.82654 	 -16.5328
| 14> H 	 -48.828 	 6.62562 	 -15.9544
| 15> H 	 -47.5419 	 5.36594 	 -15.9679
| 16> C 	 -49.3665 	 4.75442 	 -17.0193
| 17> H 	 -48.7649 	 3.97123 	 -17.4986
| 18> H 	 -49.8839 	 4.36272 	 -16.1143
| 19> C 	 -50.4663 	 5.27789 	 -17.9948
| 20> H 	 -51.0871 	 4.49506 	 -18.226
| 21> H 	 -51.0463 	 6.093 	 -17.5764
| 22> H 	 -50.0299 	 5.69385 	 -18.8755
| 23> S 	 -46.183 	 10.3993 	 -20.3793
| 24> C 	 -46.9914 	 11.9178 	 -20.7377
| 25> C 	 -48.3333 	 11.8446 	 -20.4926
| 26> C 	 -48.7835 	 10.5645 	 -20.0168
| 27> C 	 -47.7014 	 9.62926 	 -19.8857
| 28> H 	 -49.0016 	 12.7583 	 -20.6156
| 29> C 	 -50.2791 	 10.3789 	 -19.5328
| 30> H 	 -50.5023 	 11.0592 	 -18.6778
| 31> H 	 -50.4289 	 9.36159 	 -19.1866
| 32> C 	 -51.326 	 10.8641 	 -20.6242
| 33> H 	 -50.9349 	 10.3434 	 -21.4935
| 34> H 	 -51.2785 	 11.9405 	 -20.7584
| 35> C 	 -52.7651 	 10.4651 	 -20.1985
| 36> H 	 -52.9469 	 11.0065 	 -19.2752
| 37> H 	 -52.8277 	 9.41886 	 -20.0206
| 38> H 	 -53.5606 	 10.6922 	 -20.9139
| 39> H 	 -47.1189 	 4.82042 	 -18.8666
| 40> H 	 -46.4785 	 12.845 	 -21.0256
| 41> *
| 42>
| 43>                          ****END OF INPUT****

CARTESIAN COORDINATES (ANGSTROEM)
---------------------------------
  S    -46.982700    7.002710  -20.089500
  C    -47.261900    5.910990  -18.815300
  C    -47.774400    6.565980  -17.719600
  C    -48.087000    7.970870  -17.941400
  C    -47.699000    8.344450  -19.181300
  H    -48.623100    8.565990  -17.170700
  C    -48.369400    5.826540  -16.532800
  H    -48.828000    6.625620  -15.954400
  H    -47.541900    5.365940  -15.967900
  C    -49.366500    4.754420  -17.019300
  H    -48.764900    3.971230  -17.498600
  H    -49.883900    4.362720  -16.114300
  C    -50.466300    5.277890  -17.994800
  H    -51.087100    4.495060  -18.226000
  H    -51.046300    6.093000  -17.576400
  H    -50.029900    5.693850  -18.875500
  S    -46.183000   10.399300  -20.379300
  C    -46.991400   11.917800  -20.737700
  C    -48.333300   11.844600  -20.492600
  C    -48.783500   10.564500  -20.016800
  C    -47.701400    9.629260  -19.885700
  H    -49.001600   12.758300  -20.615600
  C    -50.279100   10.378900  -19.532800
  H    -50.502300   11.059200  -18.677800
  H    -50.428900    9.361590  -19.186600
  C    -51.326000   10.864100  -20.624200
  H    -50.934900   10.343400  -21.493500
  H    -51.278500   11.940500  -20.758400
  C    -52.765100   10.465100  -20.198500
  H    -52.946900   11.006500  -19.275200
  H    -52.827700    9.418860  -20.020600
  H    -53.560600   10.692200  -20.913900
  H    -47.118900    4.820420  -18.866600
  H    -46.478500   12.845000  -21.025600

 Total Charge           Charge          ....    0
 Multiplicity           Mult            ....    1
 Number of Electrons    NEL             ....  134
 Basis Dimension        Dim             ....  322

ORBITAL ENERGIES
----------------

  NO   OCC          E(Eh)            E(eV)
   0   2.0000     -88.968082     -2420.9446
   1   2.0000     -88.962980     -2420.8058
   2   2.0000     -10.333102      -281.1780
   3   2.0000     -10.331301      -281.1290
   4   2.0000     -10.319460      -280.8068
   5   2.0000     -10.312920      -280.6288
   6   2.0000     -10.310403      -280.5603
   7   2.0000     -10.300891      -280.3015
   8   2.0000     -10.300465      -280.2899
   9   2.0000     -10.298957      -280.2489
  10   2.0000     -10.295825      -280.1636
  11   2.0000     -10.292436      -280.0714
  12   2.0000     -10.289995      -280.0050
  13   2.0000     -10.289585      -279.9938
  14   2.0000     -10.278031      -279.6794
  15   2.0000     -10.266881      -279.3760
  16   2.0000      -8.082126      -219.9258
  17   2.0000      -8.078557      -219.8287
  18   2.0000      -6.040735      -164.3768
  19   2.0000      -6.037024      -164.2758
  20   2.0000      -6.036691      -164.2667
  21   2.0000      -6.032898      -164.1635
  22   2.0000      -6.032850      -164.1622
  23   2.0000      -6.029348      -164.0669
  24   2.0000      -1.006237       -27.3811
  25   2.0000      -0.981551       -26.7094
  26   2.0000      -0.910226       -24.7685
  27   2.0000      -0.899552       -24.4781
  28   2.0000      -0.866684       -23.5837
  29   2.0000      -0.848615       -23.0920
  30   2.0000      -0.841821       -22.9071
  31   2.0000      -0.814413       -22.1613
  32   2.0000      -0.782091       -21.2818
  33   2.0000      -0.767790       -20.8926
  34   2.0000      -0.704230       -19.1631
  35   2.0000      -0.701700       -19.0942
  36   2.0000      -0.694795       -18.9063
  37   2.0000      -0.650356       -17.6971
  38   2.0000      -0.635189       -17.2844
  39   2.0000      -0.613950       -16.7064
  40   2.0000      -0.591899       -16.1064
  41   2.0000      -0.571365       -15.5476
  42   2.0000      -0.569613       -15.5000
  43   2.0000      -0.553358       -15.0576
  44   2.0000      -0.541016       -14.7218
  45   2.0000      -0.518612       -14.1122
  46   2.0000      -0.514498       -14.0002
  47   2.0000      -0.511326       -13.9139
  48   2.0000      -0.503554       -13.7024
  49   2.0000      -0.494699       -13.4614
  50   2.0000      -0.485757       -13.2181
  51   2.0000      -0.478469       -13.0198
  52   2.0000      -0.476738       -12.9727
  53   2.0000      -0.463030       -12.5997
  54   2.0000      -0.458103       -12.4656
  55   2.0000      -0.448060       -12.1923
  56   2.0000      -0.442666       -12.0456
  57   2.0000      -0.439617       -11.9626
  58   2.0000      -0.436327       -11.8731
  59   2.0000      -0.428399       -11.6573
  60   2.0000      -0.420337       -11.4379
  61   2.0000      -0.414909       -11.2902
  62   2.0000      -0.408930       -11.1276
  63   2.0000      -0.351327        -9.5601
  64   2.0000      -0.330543        -8.9945
  65   2.0000      -0.325849        -8.8668
  66   2.0000      -0.293449        -7.9851
  67   0.0000       0.034599         0.9415
  68   0.0000       0.062548         1.7020
  69   0.0000       0.114660         3.1200
  70   0.0000       0.114811         3.1242
  71   0.0000       0.130066         3.5393

MULLIKEN ATOMIC CHARGES
-----------------------
   0 S :    0.108085
   1 C :   -0.123795
   2 C :   -0.151914
   3 C :    0.030522
   4 C :   -0.165784
   5 H :    0.035570
   6 C :    0.080529
   7 H :    0.012624
   8 H :    0.042965
   9 C :   -0.107440
  10 H :    0.029897
  11 H :    0.037938
  12 C :   -0.004902
  13 H :    0.021338
  14 H :    0.020817
  15 H :    0.035623
  16 S :    0.114087
  17 C :   -0.104209
  18 C :   -0.053398
  19 C :   -0.030448
  20 C :   -0.138773
  21 H :    0.046451
  22 C :    0.035172
  23 H :    0.037269
  24 H :    0.027340
  25 C :   -0.107935
  26 H :    0.041121
  27 H :    0.037299
  28 C :   -0.022956
  29 H :    0.024538
  30 H :    0.024562
  31 H :    0.040828
  32 H :    0.059486
  33 H :    0.067493
Sum of atomic charges:   -0.0000000

LOEWDIN ATOMIC CHARGES
----------------------
   0 S :    0.415587
   1 C :   -0.215478
   2 C :   -0.070519
   3 C :   -0.064880
   4 C :   -0.182035
   5 H :    0.042292
   6 C :   -0.034742
   7 H :    0.023762
   8 H :    0.035236
   9 C :   -0.035663
  10 H :    0.021363
  11 H :    0.027368
  12 C :   -0.055290
  13 H :    0.015790
  14 H :    0.024378
  15 H :    0.023979
  16 S :    0.399941
  17 C :   -0.188007
  18 C :   -0.082694
  19 C :   -0.052138
  20 C :   -0.208360
  21 H :    0.043293
  22 C :   -0.029099
  23 H :    0.031521
  24 H :    0.024580
  25 C :   -0.037433
  26 H :    0.023631
  27 H :    0.020477
  28 C :   -0.062054
  29 H :    0.025190
  30 H :    0.020966
  31 H :    0.028329
  32 H :    0.034030
  33 H :    0.036681

  Mayer bond orders larger than 0.100000
B(  0-S ,  1-C ) :   1.1392 B(  0-S ,  4-C ) :   1.1569 B(  1-C ,  2-C ) :   1.6157
B(  1-C , 32-H ) :   0.9680 B(  2-C ,  3-C ) :   1.2281 B(  2-C ,  6-C ) :   1.0174
B(  3-C ,  4-C ) :   1.5958 B(  3-C ,  5-H ) :   0.9905 B(  4-C , 20-C ) :   1.0087
B(  6-C ,  7-H ) :   0.9455 B(  6-C ,  8-H ) :   0.9358 B(  6-C ,  9-C ) :   1.0734
B(  9-C , 10-H ) :   0.9534 B(  9-C , 11-H ) :   0.9572 B(  9-C , 12-C ) :   1.0745
B( 12-C , 13-H ) :   0.9732 B( 12-C , 14-H ) :   0.9756 B( 12-C , 15-H ) :   0.9707
B( 16-S , 17-C ) :   1.1486 B( 16-S , 20-C ) :   1.1451 B( 17-C , 18-C ) :   1.6219
B( 17-C , 33-H ) :   0.9635 B( 18-C , 19-C ) :   1.2461 B( 18-C , 21-H ) :   0.9749
B( 19-C , 20-C ) :   1.5784 B( 19-C , 22-C ) :   1.0387 B( 22-C , 23-H ) :   0.9429
B( 22-C , 24-H ) :   0.9439 B( 22-C , 25-C ) :   1.0380 B( 25-C , 26-H ) :   0.9658
B( 25-C , 27-H ) :   0.9559 B( 25-C , 28-C ) :   1.0787 B( 28-C , 29-H ) :   0.9724
B( 28-C , 30-H ) :   0.9772 B( 28-C , 31-H ) :   0.9756

Dispersion correction           -0.014617678
FINAL SINGLE POINT ENERGY     -1339.881212581452

DIPOLE MOMENT
-------------
                                X             Y             Z
Electronic contribution:     27.01688       5.13046      -8.85273
Nuclear contribution   :    -27.63533      -5.05628       9.24226
                        -----------------------------------------
Total Dipole Moment    :     -0.61845       0.07418       0.38953
                        -----------------------------------------
Magnitude (a.u.)       :      0.73465
Magnitude (Debye)      :      1.86734

Rotational constants in cm-1:     0.017383     0.009478     0.006751
Rotational constants in MHz :   521.138581   284.148283   202.396099

                             ****ORCA TERMINATED NORMALLY****
TOTAL RUN TIME: 0 days 0 hours 0 minutes 21 seconds 793 msec
