                         Program Version 4.2.1 -  RELEASE  -
|  1> ! wB97X-D3 SP def2-SVP
|  2> %pal
|  3> nprocs 24
|  4> end
|  5>
|  6> * xyz 0 1
|  7> S 	 -147.295 	 6.72181 	 5.05347
|  8> C 	 -147.615 	 6.6805 	 6.77379
|  9> C 	 -147.02 	 7.78543 	 7.43978
| 10> C 	 -146.114 	 8.50219 	 6.62205
| 11> C 	 -146.118 	 7.96437 	 5.32873
| 12> H 	 -145.426 	 9.27772 	 6.90371
| 13> C 	 -147.158 	 8.24653 	 8.85927
| 14> H 	 -147.525 	 9.30666 	 8.95383
| 15> H 	 -146.147 	 8.14346 	 9.34738
| 16> C 	 -148.098 	 7.3796 	 9.68342
| 17> H 	 -148.027 	 6.28852 	 9.51485
| 18> H 	 -147.928 	 7.59609 	 10.7937
| 19> C 	 -149.561 	 7.691 	 9.35867
| 20> H 	 -149.741 	 7.91061 	 8.25732
| 21> H 	 -150.265 	 6.88439 	 9.63468
| 22> H 	 -150.035 	 8.54719 	 9.80561
| 23> S 	 -146.481 	 9.29285 	 2.92402
| 24> C 	 -145.091 	 9.6878 	 1.90131
| 25> C 	 -143.911 	 9.37487 	 2.52329
| 26> C 	 -144.13 	 8.63424 	 3.7837
| 27> C 	 -145.446 	 8.54436 	 4.1607
| 28> H 	 -143.025 	 9.62854 	 1.89917
| 29> C 	 -142.925 	 8.09133 	 4.53622
| 30> H 	 -143.355 	 7.28307 	 5.07909
| 31> H 	 -142.614 	 8.79796 	 5.30502
| 32> C 	 -141.755 	 7.71086 	 3.69051
| 33> H 	 -141.329 	 8.63453 	 3.26031
| 34> H 	 -142.135 	 7.15746 	 2.81082
| 35> C 	 -140.582 	 7.00373 	 4.3324
| 36> H 	 -139.947 	 7.54159 	 4.97241
| 37> H 	 -139.803 	 6.56128 	 3.6851
| 38> H 	 -141.025 	 6.1399 	 4.8427
| 39> H 	 -148.384 	 6.07709 	 7.21646
| 40> H 	 -145.092 	 10.1427 	 0.896927
| 41> *
| 42>
| 43>                          ****END OF INPUT****

CARTESIAN COORDINATES (ANGSTROEM)
---------------------------------
  S    -147.295000    6.721810    5.053470
  C    -147.615000    6.680500    6.773790
  C    -147.020000    7.785430    7.439780
  C    -146.114000    8.502190    6.622050
  C    -146.118000    7.964370    5.328730
  H    -145.426000    9.277720    6.903710
  C    -147.158000    8.246530    8.859270
  H    -147.525000    9.306660    8.953830
  H    -146.147000    8.143460    9.347380
  C    -148.098000    7.379600    9.683420
  H    -148.027000    6.288520    9.514850
  H    -147.928000    7.596090   10.793700
  C    -149.561000    7.691000    9.358670
  H    -149.741000    7.910610    8.257320
  H    -150.265000    6.884390    9.634680
  H    -150.035000    8.547190    9.805610
  S    -146.481000    9.292850    2.924020
  C    -145.091000    9.687800    1.901310
  C    -143.911000    9.374870    2.523290
  C    -144.130000    8.634240    3.783700
  C    -145.446000    8.544360    4.160700
  H    -143.025000    9.628540    1.899170
  C    -142.925000    8.091330    4.536220
  H    -143.355000    7.283070    5.079090
  H    -142.614000    8.797960    5.305020
  C    -141.755000    7.710860    3.690510
  H    -141.329000    8.634530    3.260310
  H    -142.135000    7.157460    2.810820
  C    -140.582000    7.003730    4.332400
  H    -139.947000    7.541590    4.972410
  H    -139.803000    6.561280    3.685100
  H    -141.025000    6.139900    4.842700
  H    -148.384000    6.077090    7.216460
  H    -145.092000   10.142700    0.896927

 Total Charge           Charge          ....    0
 Multiplicity           Mult            ....    1
 Number of Electrons    NEL             ....  134
 Basis Dimension        Dim             ....  322

ORBITAL ENERGIES
----------------

  NO   OCC          E(Eh)            E(eV)
   0   2.0000     -88.972689     -2421.0700
   1   2.0000     -88.959996     -2420.7246
   2   2.0000     -10.330919      -281.1186
   3   2.0000     -10.325349      -280.9670
   4   2.0000     -10.318025      -280.7677
   5   2.0000     -10.316814      -280.7348
   6   2.0000     -10.306825      -280.4630
   7   2.0000     -10.305872      -280.4370
   8   2.0000     -10.300608      -280.2938
   9   2.0000     -10.296412      -280.1796
  10   2.0000     -10.295902      -280.1657
  11   2.0000     -10.294002      -280.1140
  12   2.0000     -10.284688      -279.8606
  13   2.0000     -10.283852      -279.8378
  14   2.0000     -10.278003      -279.6787
  15   2.0000     -10.274198      -279.5751
  16   2.0000      -8.087400      -220.0693
  17   2.0000      -8.074240      -219.7112
  18   2.0000      -6.045703      -164.5120
  19   2.0000      -6.042014      -164.4116
  20   2.0000      -6.038256      -164.3093
  21   2.0000      -6.032964      -164.1653
  22   2.0000      -6.028837      -164.0530
  23   2.0000      -6.024769      -163.9423
  24   2.0000      -1.005257       -27.3544
  25   2.0000      -0.979328       -26.6489
  26   2.0000      -0.916241       -24.9322
  27   2.0000      -0.911197       -24.7949
  28   2.0000      -0.864631       -23.5278
  29   2.0000      -0.856287       -23.3008
  30   2.0000      -0.843679       -22.9577
  31   2.0000      -0.810010       -22.0415
  32   2.0000      -0.782835       -21.3020
  33   2.0000      -0.773562       -21.0497
  34   2.0000      -0.705885       -19.2081
  35   2.0000      -0.703135       -19.1333
  36   2.0000      -0.692467       -18.8430
  37   2.0000      -0.649453       -17.6725
  38   2.0000      -0.640119       -17.4185
  39   2.0000      -0.613576       -16.6963
  40   2.0000      -0.592761       -16.1298
  41   2.0000      -0.574786       -15.6407
  42   2.0000      -0.570692       -15.5293
  43   2.0000      -0.555477       -15.1153
  44   2.0000      -0.535116       -14.5612
  45   2.0000      -0.521903       -14.2017
  46   2.0000      -0.518518       -14.1096
  47   2.0000      -0.509205       -13.8562
  48   2.0000      -0.508039       -13.8244
  49   2.0000      -0.496473       -13.5097
  50   2.0000      -0.486005       -13.2249
  51   2.0000      -0.482361       -13.1257
  52   2.0000      -0.471925       -12.8417
  53   2.0000      -0.462596       -12.5879
  54   2.0000      -0.457029       -12.4364
  55   2.0000      -0.447658       -12.1814
  56   2.0000      -0.444737       -12.1019
  57   2.0000      -0.435508       -11.8508
  58   2.0000      -0.425895       -11.5892
  59   2.0000      -0.423470       -11.5232
  60   2.0000      -0.419453       -11.4139
  61   2.0000      -0.415167       -11.2973
  62   2.0000      -0.406713       -11.0672
  63   2.0000      -0.341046        -9.2803
  64   2.0000      -0.329929        -8.9778
  65   2.0000      -0.324215        -8.8223
  66   2.0000      -0.299410        -8.1474
  67   0.0000       0.033294         0.9060
  68   0.0000       0.063860         1.7377
  69   0.0000       0.108601         2.9552
  70   0.0000       0.122472         3.3326
  71   0.0000       0.125257         3.4084

MULLIKEN ATOMIC CHARGES
-----------------------
   0 S :    0.133773
   1 C :   -0.105874
   2 C :   -0.098668
   3 C :    0.053892
   4 C :   -0.179588
   5 H :    0.018819
   6 C :    0.029470
   7 H :    0.057569
   8 H :    0.052034
   9 C :   -0.080101
  10 H :    0.038510
  11 H :    0.044221
  12 C :   -0.104705
  13 H :    0.040491
  14 H :    0.033337
  15 H :    0.023459
  16 S :    0.090214
  17 C :   -0.109488
  18 C :   -0.057568
  19 C :   -0.060225
  20 C :   -0.153831
  21 H :    0.040412
  22 C :    0.133147
  23 H :    0.012223
  24 H :    0.031512
  25 C :   -0.113243
  26 H :    0.027270
  27 H :    0.036169
  28 C :   -0.015889
  29 H :    0.018544
  30 H :    0.028031
  31 H :    0.024755
  32 H :    0.046812
  33 H :    0.064516
Sum of atomic charges:    0.0000000

LOEWDIN ATOMIC CHARGES
----------------------
   0 S :    0.430618
   1 C :   -0.204393
   2 C :   -0.059004
   3 C :   -0.047508
   4 C :   -0.199272
   5 H :    0.035649
   6 C :   -0.040522
   7 H :    0.044051
   8 H :    0.042485
   9 C :   -0.052638
  10 H :    0.027401
  11 H :    0.034425
  12 C :   -0.086597
  13 H :    0.031086
  14 H :    0.026616
  15 H :    0.019661
  16 S :    0.372161
  17 C :   -0.183384
  18 C :   -0.084436
  19 C :   -0.051302
  20 C :   -0.198681
  21 H :    0.042228
  22 C :   -0.032185
  23 H :    0.026395
  24 H :    0.033434
  25 C :   -0.049189
  26 H :    0.023597
  27 H :    0.030052
  28 C :   -0.067385
  29 H :    0.017384
  30 H :    0.033000
  31 H :    0.027152
  32 H :    0.021732
  33 H :    0.037369

  Mayer bond orders larger than 0.100000
B(  0-S ,  1-C ) :   1.1395 B(  0-S ,  4-C ) :   1.1764 B(  1-C ,  2-C ) :   1.5902
B(  1-C ,  4-C ) :   0.1006 B(  1-C , 32-H ) :   0.9644 B(  2-C ,  3-C ) :   1.2539
B(  2-C ,  6-C ) :   1.0189 B(  3-C ,  4-C ) :   1.5529 B(  3-C ,  5-H ) :   0.9997
B(  4-C , 20-C ) :   1.0193 B(  6-C ,  7-H ) :   0.9408 B(  6-C ,  8-H ) :   0.9394
B(  6-C ,  9-C ) :   1.0815 B(  9-C , 10-H ) :   0.9561 B(  9-C , 11-H ) :   0.9550
B(  9-C , 12-C ) :   1.0579 B( 12-C , 13-H ) :   0.9763 B( 12-C , 14-H ) :   0.9774
B( 12-C , 15-H ) :   0.9737 B( 16-S , 17-C ) :   1.1312 B( 16-S , 20-C ) :   1.1138
B( 17-C , 18-C ) :   1.6801 B( 17-C , 33-H ) :   0.9580 B( 18-C , 19-C ) :   1.1679
B( 18-C , 21-H ) :   0.9801 B( 19-C , 20-C ) :   1.6688 B( 19-C , 22-C ) :   1.0384
B( 22-C , 23-H ) :   0.9218 B( 22-C , 24-H ) :   0.9234 B( 22-C , 25-C ) :   1.0816
B( 25-C , 26-H ) :   0.9390 B( 25-C , 27-H ) :   0.9584 B( 25-C , 28-C ) :   1.0842
B( 28-C , 29-H ) :   0.9736 B( 28-C , 30-H ) :   0.9709 B( 28-C , 31-H ) :   0.9735

Dispersion correction           -0.013708612
FINAL SINGLE POINT ENERGY     -1339.868657915507

DIPOLE MOMENT
-------------
                                X             Y             Z
Electronic contribution:    -10.76570       3.02952     -16.94849
Nuclear contribution   :     11.13458      -2.89037      17.33229
                        -----------------------------------------
Total Dipole Moment    :      0.36888       0.13915       0.38380
                        -----------------------------------------
Magnitude (a.u.)       :      0.55022
Magnitude (Debye)      :      1.39854

Rotational constants in cm-1:     0.021909     0.007235     0.006054
Rotational constants in MHz :   656.812089   216.907898   181.483743

                             ****ORCA TERMINATED NORMALLY****
TOTAL RUN TIME: 0 days 0 hours 0 minutes 20 seconds 880 msec
