                         Program Version 4.2.1 -  RELEASE  -
|  1> ! wB97X-D3 SP def2-SVP
|  2> %pal
|  3> nprocs 24
|  4> end
|  5>
|  6> * xyz 0 1
|  7> S 	 -106.568 	 32.4078 	 -23.929
|  8> C 	 -105.072 	 32.2814 	 -23.1429
|  9> C 	 -104.779 	 33.4498 	 -22.3809
| 10> C 	 -105.912 	 34.3094 	 -22.3335
| 11> C 	 -106.992 	 33.8116 	 -22.9938
| 12> H 	 -105.931 	 35.1931 	 -21.7157
| 13> C 	 -103.566 	 33.6604 	 -21.5292
| 14> H 	 -103.501 	 34.7675 	 -21.5352
| 15> H 	 -102.74 	 33.2339 	 -22.1298
| 16> C 	 -103.637 	 33.1132 	 -20.0589
| 17> H 	 -104.531 	 33.5034 	 -19.6432
| 18> H 	 -103.816 	 32.0691 	 -20.2156
| 19> C 	 -102.37 	 33.3148 	 -19.2657
| 20> H 	 -102.366 	 34.2814 	 -18.7423
| 21> H 	 -102.309 	 32.5167 	 -18.4697
| 22> H 	 -101.582 	 33.1277 	 -19.9234
| 23> S 	 -108.79 	 35.0327 	 -21.3588
| 24> C 	 -110.451 	 35.3153 	 -21.9804
| 25> C 	 -110.586 	 35.1328 	 -23.3051
| 26> C 	 -109.44 	 34.455 	 -23.8698
| 27> C 	 -108.337 	 34.39 	 -22.9494
| 28> H 	 -111.555 	 35.2767 	 -23.7361
| 29> C 	 -109.439 	 34.018 	 -25.2891
| 30> H 	 -108.348 	 34.1057 	 -25.5491
| 31> H 	 -109.876 	 34.8023 	 -25.9052
| 32> C 	 -110.1 	 32.7519 	 -25.6515
| 33> H 	 -109.756 	 31.9485 	 -25.0317
| 34> H 	 -109.805 	 32.6115 	 -26.6668
| 35> C 	 -111.619 	 32.6674 	 -25.6586
| 36> H 	 -112.062 	 31.7878 	 -26.0376
| 37> H 	 -112.062 	 33.4683 	 -26.3008
| 38> H 	 -112.049 	 32.7908 	 -24.6596
| 39> H 	 -104.345 	 31.4821 	 -23.357
| 40> H 	 -111.236 	 35.9047 	 -21.4312
| 41> *
| 42>
| 43>                          ****END OF INPUT****

CARTESIAN COORDINATES (ANGSTROEM)
---------------------------------
  S    -106.568000   32.407800  -23.929000
  C    -105.072000   32.281400  -23.142900
  C    -104.779000   33.449800  -22.380900
  C    -105.912000   34.309400  -22.333500
  C    -106.992000   33.811600  -22.993800
  H    -105.931000   35.193100  -21.715700
  C    -103.566000   33.660400  -21.529200
  H    -103.501000   34.767500  -21.535200
  H    -102.740000   33.233900  -22.129800
  C    -103.637000   33.113200  -20.058900
  H    -104.531000   33.503400  -19.643200
  H    -103.816000   32.069100  -20.215600
  C    -102.370000   33.314800  -19.265700
  H    -102.366000   34.281400  -18.742300
  H    -102.309000   32.516700  -18.469700
  H    -101.582000   33.127700  -19.923400
  S    -108.790000   35.032700  -21.358800
  C    -110.451000   35.315300  -21.980400
  C    -110.586000   35.132800  -23.305100
  C    -109.440000   34.455000  -23.869800
  C    -108.337000   34.390000  -22.949400
  H    -111.555000   35.276700  -23.736100
  C    -109.439000   34.018000  -25.289100
  H    -108.348000   34.105700  -25.549100
  H    -109.876000   34.802300  -25.905200
  C    -110.100000   32.751900  -25.651500
  H    -109.756000   31.948500  -25.031700
  H    -109.805000   32.611500  -26.666800
  C    -111.619000   32.667400  -25.658600
  H    -112.062000   31.787800  -26.037600
  H    -112.062000   33.468300  -26.300800
  H    -112.049000   32.790800  -24.659600
  H    -104.345000   31.482100  -23.357000
  H    -111.236000   35.904700  -21.431200

 Total Charge           Charge          ....    0
 Multiplicity           Mult            ....    1
 Number of Electrons    NEL             ....  134
 Basis Dimension        Dim             ....  322

ORBITAL ENERGIES
----------------

  NO   OCC          E(Eh)            E(eV)
   0   2.0000     -88.969386     -2420.9801
   1   2.0000     -88.965655     -2420.8786
   2   2.0000     -10.333544      -281.1900
   3   2.0000     -10.327688      -281.0307
   4   2.0000     -10.317233      -280.7462
   5   2.0000     -10.314075      -280.6603
   6   2.0000     -10.305756      -280.4339
   7   2.0000     -10.300585      -280.2932
   8   2.0000     -10.293003      -280.0869
   9   2.0000     -10.289915      -280.0028
  10   2.0000     -10.289644      -279.9954
  11   2.0000     -10.287108      -279.9264
  12   2.0000     -10.281295      -279.7683
  13   2.0000     -10.278631      -279.6958
  14   2.0000     -10.277288      -279.6592
  15   2.0000     -10.275421      -279.6084
  16   2.0000      -8.084823      -219.9992
  17   2.0000      -8.079245      -219.8474
  18   2.0000      -6.043208      -164.4440
  19   2.0000      -6.039230      -164.3358
  20   2.0000      -6.037901      -164.2996
  21   2.0000      -6.035694      -164.2396
  22   2.0000      -6.034120      -164.1968
  23   2.0000      -6.029726      -164.0772
  24   2.0000      -1.008901       -27.4536
  25   2.0000      -0.980732       -26.6871
  26   2.0000      -0.916916       -24.9505
  27   2.0000      -0.911574       -24.8052
  28   2.0000      -0.873142       -23.7594
  29   2.0000      -0.858494       -23.3608
  30   2.0000      -0.844945       -22.9921
  31   2.0000      -0.817733       -22.2516
  32   2.0000      -0.784349       -21.3432
  33   2.0000      -0.765933       -20.8421
  34   2.0000      -0.709411       -19.3041
  35   2.0000      -0.702997       -19.1295
  36   2.0000      -0.686227       -18.6732
  37   2.0000      -0.662687       -18.0326
  38   2.0000      -0.639016       -17.3885
  39   2.0000      -0.616775       -16.7833
  40   2.0000      -0.597631       -16.2624
  41   2.0000      -0.568780       -15.4773
  42   2.0000      -0.563719       -15.3396
  43   2.0000      -0.550252       -14.9731
  44   2.0000      -0.547649       -14.9023
  45   2.0000      -0.524725       -14.2785
  46   2.0000      -0.517568       -14.0837
  47   2.0000      -0.509091       -13.8531
  48   2.0000      -0.507536       -13.8108
  49   2.0000      -0.497359       -13.5338
  50   2.0000      -0.485877       -13.2214
  51   2.0000      -0.480096       -13.0641
  52   2.0000      -0.474436       -12.9101
  53   2.0000      -0.467134       -12.7114
  54   2.0000      -0.461809       -12.5665
  55   2.0000      -0.453222       -12.3328
  56   2.0000      -0.443902       -12.0792
  57   2.0000      -0.438729       -11.9384
  58   2.0000      -0.436515       -11.8782
  59   2.0000      -0.426739       -11.6122
  60   2.0000      -0.418376       -11.3846
  61   2.0000      -0.413023       -11.2389
  62   2.0000      -0.403519       -10.9803
  63   2.0000      -0.358552        -9.7567
  64   2.0000      -0.332513        -9.0481
  65   2.0000      -0.326517        -8.8850
  66   2.0000      -0.280932        -7.6446
  67   0.0000       0.023774         0.6469
  68   0.0000       0.074059         2.0153
  69   0.0000       0.094709         2.5772
  70   0.0000       0.117954         3.2097
  71   0.0000       0.132711         3.6113

MULLIKEN ATOMIC CHARGES
-----------------------
   0 S :    0.131790
   1 C :   -0.132472
   2 C :   -0.106980
   3 C :   -0.003619
   4 C :   -0.117436
   5 H :    0.014268
   6 C :    0.019375
   7 H :    0.027494
   8 H :    0.027765
   9 C :   -0.034362
  10 H :    0.016347
  11 H :    0.015849
  12 C :   -0.011680
  13 H :    0.045458
  14 H :    0.035566
  15 H :    0.019632
  16 S :    0.082661
  17 C :   -0.099748
  18 C :   -0.015190
  19 C :   -0.071720
  20 C :   -0.130445
  21 H :    0.021071
  22 C :    0.022610
  23 H :    0.030422
  24 H :    0.017557
  25 C :    0.005828
  26 H :    0.022086
  27 H :    0.022799
  28 C :   -0.055916
  29 H :    0.026268
  30 H :    0.017578
  31 H :    0.031527
  32 H :    0.057447
  33 H :    0.068170
Sum of atomic charges:    0.0000000

LOEWDIN ATOMIC CHARGES
----------------------
   0 S :    0.442019
   1 C :   -0.223897
   2 C :   -0.063218
   3 C :   -0.071639
   4 C :   -0.198713
   5 H :    0.027910
   6 C :   -0.038779
   7 H :    0.031156
   8 H :    0.030298
   9 C :   -0.033309
  10 H :    0.019316
  11 H :    0.022130
  12 C :   -0.060073
  13 H :    0.030823
  14 H :    0.034725
  15 H :    0.018454
  16 S :    0.376737
  17 C :   -0.177829
  18 C :   -0.068796
  19 C :   -0.056749
  20 C :   -0.181584
  21 H :    0.033024
  22 C :   -0.046949
  23 H :    0.034806
  24 H :    0.032778
  25 C :   -0.036715
  26 H :    0.022102
  27 H :    0.027423
  28 C :   -0.065560
  29 H :    0.022177
  30 H :    0.024787
  31 H :    0.023938
  32 H :    0.031216
  33 H :    0.037991

  Mayer bond orders larger than 0.100000
B(  0-S ,  1-C ) :   1.1626 B(  0-S ,  4-C ) :   1.1549 B(  1-C ,  2-C ) :   1.5584
B(  1-C , 32-H ) :   0.9669 B(  2-C ,  3-C ) :   1.2717 B(  2-C ,  6-C ) :   1.0401
B(  3-C ,  4-C ) :   1.5282 B(  3-C ,  5-H ) :   0.9935 B(  4-C , 20-C ) :   1.0622
B(  6-C ,  7-H ) :   0.9387 B(  6-C ,  8-H ) :   0.9331 B(  6-C ,  9-C ) :   1.0563
B(  9-C , 10-H ) :   0.9557 B(  9-C , 11-H ) :   0.9531 B(  9-C , 12-C ) :   1.0797
B( 12-C , 13-H ) :   0.9762 B( 12-C , 14-H ) :   0.9735 B( 12-C , 15-H ) :   0.9721
B( 16-S , 17-C ) :   1.1231 B( 16-S , 20-C ) :   1.1305 B( 17-C , 18-C ) :   1.6765
B( 17-C , 33-H ) :   0.9502 B( 18-C , 19-C ) :   1.2075 B( 18-C , 21-H ) :   0.9824
B( 19-C , 20-C ) :   1.5824 B( 19-C , 22-C ) :   1.0490 B( 22-C , 23-H ) :   0.9313
B( 22-C , 24-H ) :   0.9274 B( 22-C , 25-C ) :   1.0761 B( 25-C , 26-H ) :   0.9476
B( 25-C , 27-H ) :   0.9466 B( 25-C , 28-C ) :   1.0884 B( 28-C , 29-H ) :   0.9719
B( 28-C , 30-H ) :   0.9709 B( 28-C , 31-H ) :   0.9718

Dispersion correction           -0.014177927
FINAL SINGLE POINT ENERGY     -1339.869108559449

DIPOLE MOMENT
-------------
                                X             Y             Z
Electronic contribution:     -4.76288       4.01784       0.18547
Nuclear contribution   :      4.80847      -4.03718      -0.27174
                        -----------------------------------------
Total Dipole Moment    :      0.04559      -0.01933      -0.08628
                        -----------------------------------------
Magnitude (a.u.)       :      0.09948
Magnitude (Debye)      :      0.25285

Rotational constants in cm-1:     0.026418     0.007255     0.005946
Rotational constants in MHz :   791.987305   217.497200   178.257793

                             ****ORCA TERMINATED NORMALLY****
TOTAL RUN TIME: 0 days 0 hours 0 minutes 22 seconds 299 msec
