                         Program Version 4.2.1 -  RELEASE  -
|  1> ! wB97X-D3 SP def2-SVP
|  2> %pal
|  3> nprocs 24
|  4> end
|  5>
|  6> * xyz 0 1
|  7> S 	 -94.3676 	 46.6832 	 -91.6074
|  8> C 	 -93.7161 	 45.0656 	 -91.4387
|  9> C 	 -94.5407 	 44.289 	 -90.634
| 10> C 	 -95.8088 	 44.9266 	 -90.4046
| 11> C 	 -95.9347 	 46.149 	 -90.9763
| 12> H 	 -96.6544 	 44.5633 	 -89.83
| 13> C 	 -94.2351 	 42.866 	 -90.173
| 14> H 	 -94.2942 	 42.7356 	 -89.0966
| 15> H 	 -93.1666 	 42.7458 	 -90.4049
| 16> C 	 -94.89 	 41.7862 	 -91.1005
| 17> H 	 -94.7801 	 42.247 	 -92.095
| 18> H 	 -94.26 	 40.8871 	 -91.2131
| 19> C 	 -96.3807 	 41.435 	 -90.8357
| 20> H 	 -96.8096 	 41.005 	 -91.7236
| 21> H 	 -96.5198 	 40.6506 	 -90.1032
| 22> H 	 -97.0426 	 42.2551 	 -90.4848
| 23> S 	 -96.8027 	 48.7477 	 -90.5286
| 24> C 	 -98.5037 	 49.0803 	 -90.7023
| 25> C 	 -99.2198 	 47.9689 	 -91.1349
| 26> C 	 -98.4297 	 46.7742 	 -91.1249
| 27> C 	 -97.1036 	 47.0799 	 -90.9822
| 28> H 	 -100.282 	 48.1591 	 -91.3859
| 29> C 	 -99.0632 	 45.4114 	 -91.355
| 30> H 	 -98.3527 	 44.7523 	 -91.7599
| 31> H 	 -99.9176 	 45.5272 	 -92.0515
| 32> C 	 -99.6331 	 44.8994 	 -90.0232
| 33> H 	 -100.234 	 45.7401 	 -89.6515
| 34> H 	 -98.7957 	 44.7402 	 -89.3323
| 35> C 	 -100.314 	 43.5538 	 -90.2012
| 36> H 	 -101.183 	 43.6845 	 -90.8561
| 37> H 	 -100.655 	 43.151 	 -89.285
| 38> H 	 -99.6049 	 42.8169 	 -90.6539
| 39> H 	 -92.8552 	 44.6015 	 -91.8471
| 40> H 	 -98.9085 	 50.0669 	 -90.4388
| 41> *
| 42>
| 43>                          ****END OF INPUT****

CARTESIAN COORDINATES (ANGSTROEM)
---------------------------------
  S    -94.367600   46.683200  -91.607400
  C    -93.716100   45.065600  -91.438700
  C    -94.540700   44.289000  -90.634000
  C    -95.808800   44.926600  -90.404600
  C    -95.934700   46.149000  -90.976300
  H    -96.654400   44.563300  -89.830000
  C    -94.235100   42.866000  -90.173000
  H    -94.294200   42.735600  -89.096600
  H    -93.166600   42.745800  -90.404900
  C    -94.890000   41.786200  -91.100500
  H    -94.780100   42.247000  -92.095000
  H    -94.260000   40.887100  -91.213100
  C    -96.380700   41.435000  -90.835700
  H    -96.809600   41.005000  -91.723600
  H    -96.519800   40.650600  -90.103200
  H    -97.042600   42.255100  -90.484800
  S    -96.802700   48.747700  -90.528600
  C    -98.503700   49.080300  -90.702300
  C    -99.219800   47.968900  -91.134900
  C    -98.429700   46.774200  -91.124900
  C    -97.103600   47.079900  -90.982200
  H    -100.282000   48.159100  -91.385900
  C    -99.063200   45.411400  -91.355000
  H    -98.352700   44.752300  -91.759900
  H    -99.917600   45.527200  -92.051500
  C    -99.633100   44.899400  -90.023200
  H    -100.234000   45.740100  -89.651500
  H    -98.795700   44.740200  -89.332300
  C    -100.314000   43.553800  -90.201200
  H    -101.183000   43.684500  -90.856100
  H    -100.655000   43.151000  -89.285000
  H    -99.604900   42.816900  -90.653900
  H    -92.855200   44.601500  -91.847100
  H    -98.908500   50.066900  -90.438800

 Total Charge           Charge          ....    0
 Multiplicity           Mult            ....    1
 Number of Electrons    NEL             ....  134
 Basis Dimension        Dim             ....  322

ORBITAL ENERGIES
----------------

  NO   OCC          E(Eh)            E(eV)
   0   2.0000     -88.966160     -2420.8923
   1   2.0000     -88.964622     -2420.8504
   2   2.0000     -10.329593      -281.0825
   3   2.0000     -10.327694      -281.0308
   4   2.0000     -10.319265      -280.8015
   5   2.0000     -10.311926      -280.6018
   6   2.0000     -10.304465      -280.3988
   7   2.0000     -10.302356      -280.3413
   8   2.0000     -10.299005      -280.2502
   9   2.0000     -10.296041      -280.1695
  10   2.0000     -10.295019      -280.1417
  11   2.0000     -10.290753      -280.0256
  12   2.0000     -10.290284      -280.0129
  13   2.0000     -10.288307      -279.9591
  14   2.0000     -10.280560      -279.7483
  15   2.0000     -10.280201      -279.7385
  16   2.0000      -8.081237      -219.9016
  17   2.0000      -8.079017      -219.8412
  18   2.0000      -6.039717      -164.3491
  19   2.0000      -6.037738      -164.2952
  20   2.0000      -6.035822      -164.2431
  21   2.0000      -6.033745      -164.1865
  22   2.0000      -6.031892      -164.1361
  23   2.0000      -6.029405      -164.0684
  24   2.0000      -1.006996       -27.4018
  25   2.0000      -0.984877       -26.7999
  26   2.0000      -0.916133       -24.9292
  27   2.0000      -0.905069       -24.6282
  28   2.0000      -0.864446       -23.5228
  29   2.0000      -0.854648       -23.2562
  30   2.0000      -0.840784       -22.8789
  31   2.0000      -0.817278       -22.2393
  32   2.0000      -0.785791       -21.3825
  33   2.0000      -0.774559       -21.0768
  34   2.0000      -0.703242       -19.1362
  35   2.0000      -0.700772       -19.0690
  36   2.0000      -0.694251       -18.8915
  37   2.0000      -0.662681       -18.0325
  38   2.0000      -0.640174       -17.4200
  39   2.0000      -0.618503       -16.8303
  40   2.0000      -0.597649       -16.2628
  41   2.0000      -0.573181       -15.5970
  42   2.0000      -0.568381       -15.4664
  43   2.0000      -0.541364       -14.7313
  44   2.0000      -0.534190       -14.5360
  45   2.0000      -0.523751       -14.2520
  46   2.0000      -0.519649       -14.1404
  47   2.0000      -0.514156       -13.9909
  48   2.0000      -0.508335       -13.8325
  49   2.0000      -0.498815       -13.5734
  50   2.0000      -0.492180       -13.3929
  51   2.0000      -0.485001       -13.1975
  52   2.0000      -0.471671       -12.8348
  53   2.0000      -0.465391       -12.6639
  54   2.0000      -0.459344       -12.4994
  55   2.0000      -0.449452       -12.2302
  56   2.0000      -0.441394       -12.0109
  57   2.0000      -0.435767       -11.8578
  58   2.0000      -0.433203       -11.7880
  59   2.0000      -0.429565       -11.6891
  60   2.0000      -0.424516       -11.5517
  61   2.0000      -0.421198       -11.4614
  62   2.0000      -0.413238       -11.2448
  63   2.0000      -0.351487        -9.5644
  64   2.0000      -0.333041        -9.0625
  65   2.0000      -0.328573        -8.9409
  66   2.0000      -0.287597        -7.8259
  67   0.0000       0.031839         0.8664
  68   0.0000       0.066714         1.8154
  69   0.0000       0.105812         2.8793
  70   0.0000       0.121574         3.3082
  71   0.0000       0.124147         3.3782

MULLIKEN ATOMIC CHARGES
-----------------------
   0 S :    0.100651
   1 C :   -0.081489
   2 C :   -0.120102
   3 C :    0.026785
   4 C :   -0.137046
   5 H :   -0.004609
   6 C :    0.065834
   7 H :    0.043491
   8 H :    0.010446
   9 C :   -0.070346
  10 H :    0.025897
  11 H :    0.034661
  12 C :   -0.042119
  13 H :    0.029225
  14 H :    0.025757
  15 H :    0.027660
  16 S :    0.105929
  17 C :   -0.114381
  18 C :   -0.041489
  19 C :   -0.060623
  20 C :   -0.123816
  21 H :    0.035574
  22 C :    0.086586
  23 H :    0.013740
  24 H :    0.026192
  25 C :   -0.105237
  26 H :    0.033509
  27 H :    0.028279
  28 C :   -0.005180
  29 H :    0.027451
  30 H :    0.028167
  31 H :    0.036607
  32 H :    0.028712
  33 H :    0.065282
Sum of atomic charges:    0.0000000

LOEWDIN ATOMIC CHARGES
----------------------
   0 S :    0.385883
   1 C :   -0.193218
   2 C :   -0.058070
   3 C :   -0.072775
   4 C :   -0.173694
   5 H :    0.027927
   6 C :   -0.034230
   7 H :    0.030763
   8 H :    0.032761
   9 C :   -0.040463
  10 H :    0.028343
  11 H :    0.027083
  12 C :   -0.072624
  13 H :    0.026061
  14 H :    0.023505
  15 H :    0.025040
  16 S :    0.400602
  17 C :   -0.187701
  18 C :   -0.075488
  19 C :   -0.053617
  20 C :   -0.194501
  21 H :    0.039675
  22 C :   -0.021922
  23 H :    0.019307
  24 H :    0.033327
  25 C :   -0.039439
  26 H :    0.026879
  27 H :    0.019696
  28 C :   -0.061644
  29 H :    0.025669
  30 H :    0.020181
  31 H :    0.031747
  32 H :    0.023981
  33 H :    0.030953

  Mayer bond orders larger than 0.100000
B(  0-S ,  1-C ) :   1.1249 B(  0-S ,  4-C ) :   1.1314 B(  1-C ,  2-C ) :   1.6395
B(  1-C , 32-H ) :   0.9650 B(  2-C ,  3-C ) :   1.1996 B(  2-C ,  6-C ) :   1.0408
B(  3-C ,  4-C ) :   1.6127 B(  3-C ,  5-H ) :   0.9913 B(  4-C , 20-C ) :   1.0111
B(  6-C ,  7-H ) :   0.9489 B(  6-C ,  8-H ) :   0.9316 B(  6-C ,  9-C ) :   1.0514
B(  9-C , 10-H ) :   0.9553 B(  9-C , 11-H ) :   0.9597 B(  9-C , 12-C ) :   1.0680
B( 12-C , 13-H ) :   0.9749 B( 12-C , 14-H ) :   0.9741 B( 12-C , 15-H ) :   0.9735
B( 16-S , 17-C ) :   1.1542 B( 16-S , 20-C ) :   1.1361 B( 17-C , 18-C ) :   1.6229
B( 17-C , 33-H ) :   0.9659 B( 18-C , 19-C ) :   1.2045 B( 18-C , 21-H ) :   0.9866
B( 19-C , 20-C ) :   1.6398 B( 19-C , 22-C ) :   1.0498 B( 22-C , 23-H ) :   0.9271
B( 22-C , 24-H ) :   0.9363 B( 22-C , 25-C ) :   1.0589 B( 25-C , 26-H ) :   0.9547
B( 25-C , 27-H ) :   0.9495 B( 25-C , 28-C ) :   1.0837 B( 28-C , 29-H ) :   0.9708
B( 28-C , 30-H ) :   0.9726 B( 28-C , 31-H ) :   0.9676

Dispersion correction           -0.015420767
FINAL SINGLE POINT ENERGY     -1339.880332935443

DIPOLE MOMENT
-------------
                                X             Y             Z
Electronic contribution:     13.15721      29.41204      -2.86346
Nuclear contribution   :    -13.60026     -30.01817       2.98222
                        -----------------------------------------
Total Dipole Moment    :     -0.44305      -0.60613       0.11876
                        -----------------------------------------
Magnitude (a.u.)       :      0.76013
Magnitude (Debye)      :      1.93209

Rotational constants in cm-1:     0.016925     0.010909     0.006955
Rotational constants in MHz :   507.387629   327.032005   208.506091

                             ****ORCA TERMINATED NORMALLY****
TOTAL RUN TIME: 0 days 0 hours 0 minutes 22 seconds 691 msec
