                         Program Version 4.2.1 -  RELEASE  -
|  1> ! wB97X-D3 SP def2-SVP
|  2> %pal
|  3> nprocs 24
|  4> end
|  5>
|  6> * xyz 0 1
|  7> S 	 -86.0843 	 -47.6786 	 -72.2991
|  8> C 	 -84.8391 	 -48.8045 	 -71.8153
|  9> C 	 -85.2807 	 -50.0776 	 -71.5521
| 10> C 	 -86.6615 	 -50.1971 	 -71.9465
| 11> C 	 -87.2007 	 -49.0459 	 -72.4963
| 12> H 	 -87.2597 	 -50.9766 	 -71.7024
| 13> C 	 -84.4342 	 -51.2868 	 -71.05
| 14> H 	 -85.0433 	 -51.6069 	 -70.1572
| 15> H 	 -83.5056 	 -50.9753 	 -70.5861
| 16> C 	 -84.2731 	 -52.4277 	 -72.0545
| 17> H 	 -83.7735 	 -53.3889 	 -71.7152
| 18> H 	 -85.3076 	 -52.6715 	 -72.2846
| 19> C 	 -83.5166 	 -52.0132 	 -73.3179
| 20> H 	 -83.7148 	 -50.9264 	 -73.4791
| 21> H 	 -82.4167 	 -51.9435 	 -73.2636
| 22> H 	 -83.8352 	 -52.6949 	 -74.139
| 23> S 	 -89.6777 	 -48.0425 	 -71.767
| 24> C 	 -91.0664 	 -48.3909 	 -72.7315
| 25> C 	 -90.7283 	 -49.1002 	 -73.8471
| 26> C 	 -89.3165 	 -49.4149 	 -73.9447
| 27> C 	 -88.5885 	 -48.8494 	 -72.8592
| 28> H 	 -91.553 	 -49.3468 	 -74.4716
| 29> C 	 -88.7845 	 -50.3963 	 -74.9226
| 30> H 	 -89.5807 	 -51.0452 	 -75.2348
| 31> H 	 -88.0116 	 -50.9498 	 -74.3844
| 32> C 	 -88.2928 	 -49.6575 	 -76.1187
| 33> H 	 -87.7906 	 -50.4189 	 -76.6293
| 34> H 	 -87.4471 	 -48.9647 	 -75.8972
| 35> C 	 -89.3153 	 -49.0864 	 -77.0415
| 36> H 	 -89.6105 	 -48.0401 	 -76.8301
| 37> H 	 -90.1428 	 -49.7027 	 -77.1596
| 38> H 	 -88.9124 	 -48.9848 	 -78.0782
| 39> H 	 -83.8013 	 -48.5802 	 -71.7676
| 40> H 	 -92.0757 	 -48.068 	 -72.4899
| 41> *
| 42>
| 43>                          ****END OF INPUT****

CARTESIAN COORDINATES (ANGSTROEM)
---------------------------------
  S    -86.084300  -47.678600  -72.299100
  C    -84.839100  -48.804500  -71.815300
  C    -85.280700  -50.077600  -71.552100
  C    -86.661500  -50.197100  -71.946500
  C    -87.200700  -49.045900  -72.496300
  H    -87.259700  -50.976600  -71.702400
  C    -84.434200  -51.286800  -71.050000
  H    -85.043300  -51.606900  -70.157200
  H    -83.505600  -50.975300  -70.586100
  C    -84.273100  -52.427700  -72.054500
  H    -83.773500  -53.388900  -71.715200
  H    -85.307600  -52.671500  -72.284600
  C    -83.516600  -52.013200  -73.317900
  H    -83.714800  -50.926400  -73.479100
  H    -82.416700  -51.943500  -73.263600
  H    -83.835200  -52.694900  -74.139000
  S    -89.677700  -48.042500  -71.767000
  C    -91.066400  -48.390900  -72.731500
  C    -90.728300  -49.100200  -73.847100
  C    -89.316500  -49.414900  -73.944700
  C    -88.588500  -48.849400  -72.859200
  H    -91.553000  -49.346800  -74.471600
  C    -88.784500  -50.396300  -74.922600
  H    -89.580700  -51.045200  -75.234800
  H    -88.011600  -50.949800  -74.384400
  C    -88.292800  -49.657500  -76.118700
  H    -87.790600  -50.418900  -76.629300
  H    -87.447100  -48.964700  -75.897200
  C    -89.315300  -49.086400  -77.041500
  H    -89.610500  -48.040100  -76.830100
  H    -90.142800  -49.702700  -77.159600
  H    -88.912400  -48.984800  -78.078200
  H    -83.801300  -48.580200  -71.767600
  H    -92.075700  -48.068000  -72.489900

 Total Charge           Charge          ....    0
 Multiplicity           Mult            ....    1
 Number of Electrons    NEL             ....  134
 Basis Dimension        Dim             ....  322

ORBITAL ENERGIES
----------------

  NO   OCC          E(Eh)            E(eV)
   0   2.0000     -88.967842     -2420.9381
   1   2.0000     -88.961584     -2420.7678
   2   2.0000     -10.330761      -281.1143
   3   2.0000     -10.322493      -280.8893
   4   2.0000     -10.312481      -280.6169
   5   2.0000     -10.311890      -280.6008
   6   2.0000     -10.305403      -280.4243
   7   2.0000     -10.302882      -280.3557
   8   2.0000     -10.301675      -280.3228
   9   2.0000     -10.293093      -280.0893
  10   2.0000     -10.291256      -280.0393
  11   2.0000     -10.288396      -279.9615
  12   2.0000     -10.281938      -279.7858
  13   2.0000     -10.280193      -279.7383
  14   2.0000     -10.272698      -279.5343
  15   2.0000     -10.271747      -279.5084
  16   2.0000      -8.082349      -219.9319
  17   2.0000      -8.076884      -219.7832
  18   2.0000      -6.040878      -164.3806
  19   2.0000      -6.037064      -164.2769
  20   2.0000      -6.035403      -164.2317
  21   2.0000      -6.032914      -164.1639
  22   2.0000      -6.031159      -164.1162
  23   2.0000      -6.027767      -164.0239
  24   2.0000      -1.004975       -27.3467
  25   2.0000      -0.983185       -26.7538
  26   2.0000      -0.921124       -25.0651
  27   2.0000      -0.910410       -24.7735
  28   2.0000      -0.870492       -23.6873
  29   2.0000      -0.848714       -23.0947
  30   2.0000      -0.844841       -22.9893
  31   2.0000      -0.815202       -22.1828
  32   2.0000      -0.785432       -21.3727
  33   2.0000      -0.774062       -21.0633
  34   2.0000      -0.712673       -19.3928
  35   2.0000      -0.694429       -18.8964
  36   2.0000      -0.688978       -18.7481
  37   2.0000      -0.657082       -17.8801
  38   2.0000      -0.646366       -17.5885
  39   2.0000      -0.624155       -16.9841
  40   2.0000      -0.593969       -16.1627
  41   2.0000      -0.571062       -15.5394
  42   2.0000      -0.561384       -15.2760
  43   2.0000      -0.551639       -15.0109
  44   2.0000      -0.542177       -14.7534
  45   2.0000      -0.538530       -14.6541
  46   2.0000      -0.521060       -14.1788
  47   2.0000      -0.513931       -13.9848
  48   2.0000      -0.501542       -13.6476
  49   2.0000      -0.494790       -13.4639
  50   2.0000      -0.486183       -13.2297
  51   2.0000      -0.480066       -13.0632
  52   2.0000      -0.477503       -12.9935
  53   2.0000      -0.464127       -12.6295
  54   2.0000      -0.456129       -12.4119
  55   2.0000      -0.445851       -12.1322
  56   2.0000      -0.442558       -12.0426
  57   2.0000      -0.441308       -12.0086
  58   2.0000      -0.435381       -11.8473
  59   2.0000      -0.426008       -11.5923
  60   2.0000      -0.423551       -11.5254
  61   2.0000      -0.406358       -11.0576
  62   2.0000      -0.400280       -10.8922
  63   2.0000      -0.341065        -9.2809
  64   2.0000      -0.330095        -8.9823
  65   2.0000      -0.322330        -8.7710
  66   2.0000      -0.298162        -8.1134
  67   0.0000       0.037466         1.0195
  68   0.0000       0.057616         1.5678
  69   0.0000       0.110349         3.0028
  70   0.0000       0.121603         3.3090
  71   0.0000       0.130852         3.5607

MULLIKEN ATOMIC CHARGES
-----------------------
   0 S :    0.115027
   1 C :   -0.099099
   2 C :   -0.107547
   3 C :    0.077061
   4 C :   -0.178647
   5 H :   -0.017018
   6 C :    0.055444
   7 H :    0.042372
   8 H :    0.018216
   9 C :   -0.060486
  10 H :    0.045424
  11 H :    0.024767
  12 C :   -0.077422
  13 H :    0.032178
  14 H :    0.030490
  15 H :    0.049726
  16 S :    0.112437
  17 C :   -0.099713
  18 C :   -0.031534
  19 C :   -0.041847
  20 C :   -0.168439
  21 H :    0.006863
  22 C :    0.102370
  23 H :    0.016372
  24 H :    0.021875
  25 C :   -0.046393
  26 H :    0.001982
  27 H :    0.034207
  28 C :   -0.023946
  29 H :    0.040940
  30 H :    0.007598
  31 H :    0.028139
  32 H :    0.032918
  33 H :    0.055683
Sum of atomic charges:    0.0000000

LOEWDIN ATOMIC CHARGES
----------------------
   0 S :    0.396380
   1 C :   -0.188882
   2 C :   -0.061400
   3 C :   -0.042688
   4 C :   -0.185276
   5 H :    0.013903
   6 C :   -0.033361
   7 H :    0.041508
   8 H :    0.023899
   9 C :   -0.048834
  10 H :    0.033627
  11 H :    0.022765
  12 C :   -0.078969
  13 H :    0.029509
  14 H :    0.025219
  15 H :    0.033344
  16 S :    0.416539
  17 C :   -0.192178
  18 C :   -0.076952
  19 C :   -0.041815
  20 C :   -0.221426
  21 H :    0.027577
  22 C :   -0.028567
  23 H :    0.028758
  24 H :    0.034223
  25 C :   -0.042992
  26 H :    0.016913
  27 H :    0.032799
  28 C :   -0.063374
  29 H :    0.030750
  30 H :    0.013101
  31 H :    0.034252
  32 H :    0.020592
  33 H :    0.031056

  Mayer bond orders larger than 0.100000
B(  0-S ,  1-C ) :   1.1392 B(  0-S ,  4-C ) :   1.1312 B(  1-C ,  2-C ) :   1.6342
B(  1-C , 32-H ) :   0.9658 B(  2-C ,  3-C ) :   1.2155 B(  2-C ,  6-C ) :   1.0113
B(  3-C ,  4-C ) :   1.6023 B(  3-C ,  5-H ) :   1.0000 B(  4-C , 20-C ) :   1.0314
B(  6-C ,  7-H ) :   0.9393 B(  6-C ,  8-H ) :   0.9485 B(  6-C ,  9-C ) :   1.0614
B(  9-C , 10-H ) :   0.9556 B(  9-C , 11-H ) :   0.9559 B(  9-C , 12-C ) :   1.0675
B( 12-C , 13-H ) :   0.9741 B( 12-C , 14-H ) :   0.9737 B( 12-C , 15-H ) :   0.9744
B( 16-S , 17-C ) :   1.1626 B( 16-S , 20-C ) :   1.1531 B( 17-C , 18-C ) :   1.6171
B( 17-C , 33-H ) :   0.9648 B( 18-C , 19-C ) :   1.2303 B( 18-C , 21-H ) :   0.9971
B( 19-C , 20-C ) :   1.5733 B( 19-C , 22-C ) :   1.0422 B( 22-C , 23-H ) :   0.9325
B( 22-C , 24-H ) :   0.9213 B( 22-C , 25-C ) :   1.0971 B( 25-C , 26-H ) :   0.9461
B( 25-C , 27-H ) :   0.9481 B( 25-C , 28-C ) :   1.0842 B( 28-C , 29-H ) :   0.9703
B( 28-C , 30-H ) :   0.9697 B( 28-C , 31-H ) :   0.9701

Dispersion correction           -0.014979060
FINAL SINGLE POINT ENERGY     -1339.864286311007

DIPOLE MOMENT
-------------
                                X             Y             Z
Electronic contribution:     -9.22088      17.81706      15.21252
Nuclear contribution   :      9.24741     -18.43556     -15.39968
                        -----------------------------------------
Total Dipole Moment    :      0.02654      -0.61850      -0.18716
                        -----------------------------------------
Magnitude (a.u.)       :      0.64674
Magnitude (Debye)      :      1.64389

Rotational constants in cm-1:     0.019449     0.008863     0.007322
Rotational constants in MHz :   583.073977   265.711222   219.520752

                             ****ORCA TERMINATED NORMALLY****
TOTAL RUN TIME: 0 days 0 hours 0 minutes 22 seconds 311 msec
