                         Program Version 4.2.1 -  RELEASE  -
|  1> ! wB97X-D3 SP def2-SVP
|  2> %pal
|  3> nprocs 24
|  4> end
|  5>
|  6> * xyz 0 1
|  7> S 	 -58.313 	 9.25892 	 -19.0317
|  8> C 	 -57.8794 	 7.58772 	 -19.2466
|  9> C 	 -58.6 	 6.7513 	 -18.3728
| 10> C 	 -59.5669 	 7.49324 	 -17.6255
| 11> C 	 -59.5221 	 8.85379 	 -17.8665
| 12> H 	 -60.2209 	 7.13922 	 -16.8552
| 13> C 	 -58.1992 	 5.3246 	 -18.0808
| 14> H 	 -58.5406 	 4.93149 	 -17.1043
| 15> H 	 -57.1417 	 5.26361 	 -17.867
| 16> C 	 -58.5027 	 4.32187 	 -19.1616
| 17> H 	 -59.5662 	 4.2648 	 -19.2702
| 18> H 	 -58.0832 	 4.74452 	 -20.0808
| 19> C 	 -57.9413 	 2.99179 	 -18.9491
| 20> H 	 -58.3663 	 2.5377 	 -18.0367
| 21> H 	 -58.2577 	 2.38608 	 -19.7896
| 22> H 	 -56.8693 	 2.95475 	 -18.8586
| 23> S 	 -59.5148 	 10.9457 	 -16.0412
| 24> C 	 -61.0175 	 11.7526 	 -15.67
| 25> C 	 -62.0725 	 11.2056 	 -16.3057
| 26> C 	 -61.6504 	 10.0711 	 -17.1105
| 27> C 	 -60.287 	 9.82721 	 -17.1487
| 28> H 	 -63.0072 	 11.6087 	 -16.0914
| 29> C 	 -62.6835 	 9.35753 	 -18.0219
| 30> H 	 -62.4188 	 8.28659 	 -18.2252
| 31> H 	 -62.6336 	 9.83102 	 -18.9676
| 32> C 	 -64.102 	 9.37883 	 -17.4654
| 33> H 	 -64.7477 	 8.88079 	 -18.275
| 34> H 	 -64.4761 	 10.3549 	 -17.2122
| 35> C 	 -64.2532 	 8.59787 	 -16.1346
| 36> H 	 -63.5607 	 9.09336 	 -15.4577
| 37> H 	 -63.8955 	 7.59346 	 -16.25
| 38> H 	 -65.2734 	 8.54898 	 -15.8518
| 39> H 	 -56.9909 	 7.24214 	 -19.6846
| 40> H 	 -60.9982 	 12.745 	 -15.1556
| 41> *
| 42>
| 43>                          ****END OF INPUT****

CARTESIAN COORDINATES (ANGSTROEM)
---------------------------------
  S    -58.313000    9.258920  -19.031700
  C    -57.879400    7.587720  -19.246600
  C    -58.600000    6.751300  -18.372800
  C    -59.566900    7.493240  -17.625500
  C    -59.522100    8.853790  -17.866500
  H    -60.220900    7.139220  -16.855200
  C    -58.199200    5.324600  -18.080800
  H    -58.540600    4.931490  -17.104300
  H    -57.141700    5.263610  -17.867000
  C    -58.502700    4.321870  -19.161600
  H    -59.566200    4.264800  -19.270200
  H    -58.083200    4.744520  -20.080800
  C    -57.941300    2.991790  -18.949100
  H    -58.366300    2.537700  -18.036700
  H    -58.257700    2.386080  -19.789600
  H    -56.869300    2.954750  -18.858600
  S    -59.514800   10.945700  -16.041200
  C    -61.017500   11.752600  -15.670000
  C    -62.072500   11.205600  -16.305700
  C    -61.650400   10.071100  -17.110500
  C    -60.287000    9.827210  -17.148700
  H    -63.007200   11.608700  -16.091400
  C    -62.683500    9.357530  -18.021900
  H    -62.418800    8.286590  -18.225200
  H    -62.633600    9.831020  -18.967600
  C    -64.102000    9.378830  -17.465400
  H    -64.747700    8.880790  -18.275000
  H    -64.476100   10.354900  -17.212200
  C    -64.253200    8.597870  -16.134600
  H    -63.560700    9.093360  -15.457700
  H    -63.895500    7.593460  -16.250000
  H    -65.273400    8.548980  -15.851800
  H    -56.990900    7.242140  -19.684600
  H    -60.998200   12.745000  -15.155600

 Total Charge           Charge          ....    0
 Multiplicity           Mult            ....    1
 Number of Electrons    NEL             ....  134
 Basis Dimension        Dim             ....  322

ORBITAL ENERGIES
----------------

  NO   OCC          E(Eh)            E(eV)
   0   2.0000     -88.970497     -2421.0103
   1   2.0000     -88.960079     -2420.7268
   2   2.0000     -10.325193      -280.9628
   3   2.0000     -10.323129      -280.9066
   4   2.0000     -10.318035      -280.7680
   5   2.0000     -10.312126      -280.6072
   6   2.0000     -10.307498      -280.4813
   7   2.0000     -10.304595      -280.4023
   8   2.0000     -10.293603      -280.1032
   9   2.0000     -10.291384      -280.0428
  10   2.0000     -10.288716      -279.9702
  11   2.0000     -10.288059      -279.9523
  12   2.0000     -10.287470      -279.9363
  13   2.0000     -10.276141      -279.6280
  14   2.0000     -10.273329      -279.5515
  15   2.0000     -10.268815      -279.4287
  16   2.0000      -8.085465      -220.0167
  17   2.0000      -8.075393      -219.7426
  18   2.0000      -6.043809      -164.4604
  19   2.0000      -6.039898      -164.3540
  20   2.0000      -6.036416      -164.2592
  21   2.0000      -6.033931      -164.1916
  22   2.0000      -6.029731      -164.0773
  23   2.0000      -6.026182      -163.9807
  24   2.0000      -1.009623       -27.4732
  25   2.0000      -0.986460       -26.8429
  26   2.0000      -0.923070       -25.1180
  27   2.0000      -0.906409       -24.6646
  28   2.0000      -0.878215       -23.8974
  29   2.0000      -0.855617       -23.2825
  30   2.0000      -0.840113       -22.8606
  31   2.0000      -0.820134       -22.3170
  32   2.0000      -0.785739       -21.3810
  33   2.0000      -0.772771       -21.0282
  34   2.0000      -0.706388       -19.2218
  35   2.0000      -0.698887       -19.0177
  36   2.0000      -0.689547       -18.7635
  37   2.0000      -0.654938       -17.8218
  38   2.0000      -0.648352       -17.6425
  39   2.0000      -0.620613       -16.8877
  40   2.0000      -0.602442       -16.3933
  41   2.0000      -0.580857       -15.8059
  42   2.0000      -0.569266       -15.4905
  43   2.0000      -0.556288       -15.1374
  44   2.0000      -0.535567       -14.5735
  45   2.0000      -0.530860       -14.4454
  46   2.0000      -0.526187       -14.3183
  47   2.0000      -0.509461       -13.8631
  48   2.0000      -0.506669       -13.7872
  49   2.0000      -0.501928       -13.6581
  50   2.0000      -0.496709       -13.5161
  51   2.0000      -0.479896       -13.0586
  52   2.0000      -0.469463       -12.7747
  53   2.0000      -0.462675       -12.5900
  54   2.0000      -0.460800       -12.5390
  55   2.0000      -0.447367       -12.1735
  56   2.0000      -0.444237       -12.0883
  57   2.0000      -0.436902       -11.8887
  58   2.0000      -0.431775       -11.7492
  59   2.0000      -0.429598       -11.6899
  60   2.0000      -0.422582       -11.4990
  61   2.0000      -0.412949       -11.2369
  62   2.0000      -0.404970       -11.0198
  63   2.0000      -0.341958        -9.3052
  64   2.0000      -0.331646        -9.0245
  65   2.0000      -0.326895        -8.8953
  66   2.0000      -0.301130        -8.1942
  67   0.0000       0.031865         0.8671
  68   0.0000       0.066122         1.7993
  69   0.0000       0.115285         3.1371
  70   0.0000       0.124182         3.3792
  71   0.0000       0.132673         3.6102

MULLIKEN ATOMIC CHARGES
-----------------------
   0 S :    0.132893
   1 C :   -0.087110
   2 C :   -0.075897
   3 C :    0.055483
   4 C :   -0.189006
   5 H :    0.008218
   6 C :    0.043571
   7 H :    0.009879
   8 H :    0.014998
   9 C :   -0.062608
  10 H :    0.022047
  11 H :    0.018420
  12 C :   -0.020501
  13 H :    0.023832
  14 H :    0.034380
  15 H :    0.025977
  16 S :    0.095345
  17 C :   -0.111785
  18 C :   -0.008895
  19 C :   -0.060722
  20 C :   -0.150378
  21 H :    0.001991
  22 C :    0.099601
  23 H :    0.028384
  24 H :    0.037104
  25 C :   -0.125831
  26 H :    0.040577
  27 H :    0.027516
  28 C :   -0.025682
  29 H :    0.036109
  30 H :    0.014309
  31 H :    0.034494
  32 H :    0.035458
  33 H :    0.077832
Sum of atomic charges:   -0.0000000

LOEWDIN ATOMIC CHARGES
----------------------
   0 S :    0.433288
   1 C :   -0.196866
   2 C :   -0.055157
   3 C :   -0.051077
   4 C :   -0.209149
   5 H :    0.030959
   6 C :   -0.038726
   7 H :    0.028748
   8 H :    0.028306
   9 C :   -0.042851
  10 H :    0.022896
  11 H :    0.023278
  12 C :   -0.061778
  13 H :    0.026171
  14 H :    0.030591
  15 H :    0.021794
  16 S :    0.395812
  17 C :   -0.181110
  18 C :   -0.073639
  19 C :   -0.050089
  20 C :   -0.208383
  21 H :    0.025048
  22 C :   -0.031388
  23 H :    0.034708
  24 H :    0.030643
  25 C :   -0.044929
  26 H :    0.032016
  27 H :    0.015414
  28 C :   -0.059174
  29 H :    0.026467
  30 H :    0.018632
  31 H :    0.021825
  32 H :    0.017771
  33 H :    0.039950

  Mayer bond orders larger than 0.100000
B(  0-S ,  1-C ) :   1.1540 B(  0-S ,  4-C ) :   1.1646 B(  1-C ,  2-C ) :   1.5868
B(  1-C ,  4-C ) :   0.1012 B(  1-C , 32-H ) :   0.9678 B(  2-C ,  3-C ) :   1.2612
B(  2-C ,  6-C ) :   1.0156 B(  3-C ,  4-C ) :   1.5586 B(  3-C ,  5-H ) :   0.9988
B(  4-C , 20-C ) :   1.0426 B(  6-C ,  7-H ) :   0.9427 B(  6-C ,  8-H ) :   0.9401
B(  6-C ,  9-C ) :   1.0662 B(  9-C , 10-H ) :   0.9498 B(  9-C , 11-H ) :   0.9520
B(  9-C , 12-C ) :   1.1024 B( 12-C , 13-H ) :   0.9681 B( 12-C , 14-H ) :   0.9687
B( 12-C , 15-H ) :   0.9710 B( 16-S , 17-C ) :   1.1628 B( 16-S , 20-C ) :   1.1269
B( 17-C , 18-C ) :   1.6310 B( 17-C , 33-H ) :   0.9540 B( 18-C , 19-C ) :   1.2009
B( 18-C , 21-H ) :   1.0035 B( 19-C , 20-C ) :   1.6269 B( 19-C , 22-C ) :   1.0244
B( 22-C , 23-H ) :   0.9350 B( 22-C , 24-H ) :   0.9348 B( 22-C , 25-C ) :   1.0778
B( 25-C , 26-H ) :   0.9545 B( 25-C , 27-H ) :   0.9510 B( 25-C , 28-C ) :   1.0767
B( 28-C , 29-H ) :   0.9725 B( 28-C , 30-H ) :   0.9733 B( 28-C , 31-H ) :   0.9754

Dispersion correction           -0.013944213
FINAL SINGLE POINT ENERGY     -1339.879741690763

DIPOLE MOMENT
-------------
                                X             Y             Z
Electronic contribution:     12.53374      23.62479       1.65178
Nuclear contribution   :    -12.77403     -23.97645      -1.60841
                        -----------------------------------------
Total Dipole Moment    :     -0.24028      -0.35167       0.04337
                        -----------------------------------------
Magnitude (a.u.)       :      0.42812
Magnitude (Debye)      :      1.08820

Rotational constants in cm-1:     0.020715     0.007560     0.006176
Rotational constants in MHz :   621.034874   226.654501   185.158748

                             ****ORCA TERMINATED NORMALLY****
TOTAL RUN TIME: 0 days 0 hours 0 minutes 21 seconds 267 msec
