                         Program Version 4.2.1 -  RELEASE  -
|  1> ! wB97X-D3 SP def2-SVP
|  2> %pal
|  3> nprocs 24
|  4> end
|  5>
|  6> * xyz 0 1
|  7> S 	 -109.323 	 41.2137 	 -12.8472
|  8> C 	 -107.75 	 41.3486 	 -12.1671
|  9> C 	 -107.794 	 41.1259 	 -10.8422
| 10> C 	 -109.113 	 40.6799 	 -10.3565
| 11> C 	 -110.115 	 40.7164 	 -11.3165
| 12> H 	 -109.362 	 40.2644 	 -9.45127
| 13> C 	 -106.628 	 41.3601 	 -9.91413
| 14> H 	 -105.8 	 40.6568 	 -10.2727
| 15> H 	 -106.845 	 40.8938 	 -8.94136
| 16> C 	 -106.098 	 42.7636 	 -9.77152
| 17> H 	 -104.997 	 42.7222 	 -9.5102
| 18> H 	 -106.143 	 43.2063 	 -10.7304
| 19> C 	 -106.891 	 43.4224 	 -8.64991
| 20> H 	 -107.969 	 43.4272 	 -8.87492
| 21> H 	 -106.707 	 42.9105 	 -7.77611
| 22> H 	 -106.699 	 44.478 	 -8.58835
| 23> S 	 -112.53 	 39.7319 	 -12.3746
| 24> C 	 -113.883 	 39.4824 	 -11.3907
| 25> C 	 -113.635 	 40.0415 	 -10.215
| 26> C 	 -112.35 	 40.631 	 -9.95229
| 27> C 	 -111.547 	 40.452 	 -11.0563
| 28> H 	 -114.522 	 40.0485 	 -9.60688
| 29> C 	 -112.014 	 41.3551 	 -8.58396
| 30> H 	 -111.018 	 40.9802 	 -8.25587
| 31> H 	 -112.695 	 41.0383 	 -7.82759
| 32> C 	 -111.972 	 42.9195 	 -8.68995
| 33> H 	 -112.817 	 43.17 	 -9.39783
| 34> H 	 -111.154 	 43.164 	 -9.28277
| 35> C 	 -111.979 	 43.5286 	 -7.29445
| 36> H 	 -111.01 	 43.5126 	 -6.91919
| 37> H 	 -112.585 	 43.163 	 -6.43009
| 38> H 	 -112.196 	 44.6053 	 -7.38561
| 39> H 	 -106.829 	 41.5429 	 -12.636
| 40> H 	 -114.765 	 38.9573 	 -11.5886
| 41> *
| 42>
| 43>                          ****END OF INPUT****

CARTESIAN COORDINATES (ANGSTROEM)
---------------------------------
  S    -109.323000   41.213700  -12.847200
  C    -107.750000   41.348600  -12.167100
  C    -107.794000   41.125900  -10.842200
  C    -109.113000   40.679900  -10.356500
  C    -110.115000   40.716400  -11.316500
  H    -109.362000   40.264400   -9.451270
  C    -106.628000   41.360100   -9.914130
  H    -105.800000   40.656800  -10.272700
  H    -106.845000   40.893800   -8.941360
  C    -106.098000   42.763600   -9.771520
  H    -104.997000   42.722200   -9.510200
  H    -106.143000   43.206300  -10.730400
  C    -106.891000   43.422400   -8.649910
  H    -107.969000   43.427200   -8.874920
  H    -106.707000   42.910500   -7.776110
  H    -106.699000   44.478000   -8.588350
  S    -112.530000   39.731900  -12.374600
  C    -113.883000   39.482400  -11.390700
  C    -113.635000   40.041500  -10.215000
  C    -112.350000   40.631000   -9.952290
  C    -111.547000   40.452000  -11.056300
  H    -114.522000   40.048500   -9.606880
  C    -112.014000   41.355100   -8.583960
  H    -111.018000   40.980200   -8.255870
  H    -112.695000   41.038300   -7.827590
  C    -111.972000   42.919500   -8.689950
  H    -112.817000   43.170000   -9.397830
  H    -111.154000   43.164000   -9.282770
  C    -111.979000   43.528600   -7.294450
  H    -111.010000   43.512600   -6.919190
  H    -112.585000   43.163000   -6.430090
  H    -112.196000   44.605300   -7.385610
  H    -106.829000   41.542900  -12.636000
  H    -114.765000   38.957300  -11.588600

 Total Charge           Charge          ....    0
 Multiplicity           Mult            ....    1
 Number of Electrons    NEL             ....  134
 Basis Dimension        Dim             ....  322

ORBITAL ENERGIES
----------------

  NO   OCC          E(Eh)            E(eV)
   0   2.0000     -88.964628     -2420.8506
   1   2.0000     -88.960148     -2420.7287
   2   2.0000     -10.337418      -281.2954
   3   2.0000     -10.336358      -281.2666
   4   2.0000     -10.311998      -280.6037
   5   2.0000     -10.307072      -280.4697
   6   2.0000     -10.306166      -280.4450
   7   2.0000     -10.299670      -280.2683
   8   2.0000     -10.299439      -280.2620
   9   2.0000     -10.292232      -280.0659
  10   2.0000     -10.292000      -280.0596
  11   2.0000     -10.288763      -279.9715
  12   2.0000     -10.286411      -279.9075
  13   2.0000     -10.285091      -279.8716
  14   2.0000     -10.279097      -279.7084
  15   2.0000     -10.271262      -279.4952
  16   2.0000      -8.079087      -219.8431
  17   2.0000      -8.075816      -219.7541
  18   2.0000      -6.037931      -164.3005
  19   2.0000      -6.034395      -164.2042
  20   2.0000      -6.033541      -164.1810
  21   2.0000      -6.030166      -164.0892
  22   2.0000      -6.029564      -164.0728
  23   2.0000      -6.026442      -163.9878
  24   2.0000      -1.008961       -27.4552
  25   2.0000      -0.990252       -26.9461
  26   2.0000      -0.917351       -24.9624
  27   2.0000      -0.905842       -24.6492
  28   2.0000      -0.877759       -23.8850
  29   2.0000      -0.849844       -23.1254
  30   2.0000      -0.841705       -22.9040
  31   2.0000      -0.823144       -22.3989
  32   2.0000      -0.783875       -21.3303
  33   2.0000      -0.774941       -21.0872
  34   2.0000      -0.715568       -19.4716
  35   2.0000      -0.708000       -19.2657
  36   2.0000      -0.700417       -19.0593
  37   2.0000      -0.661984       -18.0135
  38   2.0000      -0.643878       -17.5208
  39   2.0000      -0.613750       -16.7010
  40   2.0000      -0.595384       -16.2012
  41   2.0000      -0.584192       -15.8967
  42   2.0000      -0.559607       -15.2277
  43   2.0000      -0.552563       -15.0360
  44   2.0000      -0.540522       -14.7084
  45   2.0000      -0.529611       -14.4114
  46   2.0000      -0.522817       -14.2266
  47   2.0000      -0.517313       -14.0768
  48   2.0000      -0.511508       -13.9189
  49   2.0000      -0.501083       -13.6352
  50   2.0000      -0.492703       -13.4071
  51   2.0000      -0.486614       -13.2414
  52   2.0000      -0.475179       -12.9303
  53   2.0000      -0.471075       -12.8186
  54   2.0000      -0.459834       -12.5127
  55   2.0000      -0.456188       -12.4135
  56   2.0000      -0.444191       -12.0870
  57   2.0000      -0.432546       -11.7702
  58   2.0000      -0.428597       -11.6627
  59   2.0000      -0.420011       -11.4291
  60   2.0000      -0.415999       -11.3199
  61   2.0000      -0.412124       -11.2145
  62   2.0000      -0.408375       -11.1125
  63   2.0000      -0.363327        -9.8866
  64   2.0000      -0.329582        -8.9684
  65   2.0000      -0.323428        -8.8009
  66   2.0000      -0.293327        -7.9818
  67   0.0000       0.024106         0.6560
  68   0.0000       0.082936         2.2568
  69   0.0000       0.112385         3.0582
  70   0.0000       0.122279         3.3274
  71   0.0000       0.128808         3.5050

MULLIKEN ATOMIC CHARGES
-----------------------
   0 S :    0.104377
   1 C :   -0.086035
   2 C :   -0.090127
   3 C :    0.023519
   4 C :   -0.101002
   5 H :   -0.015911
   6 C :    0.002513
   7 H :    0.037461
   8 H :    0.011527
   9 C :   -0.026504
  10 H :    0.033673
  11 H :    0.014600
  12 C :   -0.013544
  13 H :    0.030763
  14 H :    0.017932
  15 H :    0.025033
  16 S :    0.091099
  17 C :   -0.049220
  18 C :   -0.057486
  19 C :   -0.030240
  20 C :   -0.172199
  21 H :    0.006337
  22 C :    0.069754
  23 H :    0.020350
  24 H :    0.014973
  25 C :   -0.047327
  26 H :    0.039252
  27 H :    0.023758
  28 C :   -0.037195
  29 H :    0.014767
  30 H :    0.042960
  31 H :    0.035273
  32 H :    0.030688
  33 H :    0.036180
Sum of atomic charges:    0.0000000

LOEWDIN ATOMIC CHARGES
----------------------
   0 S :    0.394084
   1 C :   -0.196287
   2 C :   -0.065858
   3 C :   -0.056851
   4 C :   -0.176524
   5 H :    0.013779
   6 C :   -0.043807
   7 H :    0.038027
   8 H :    0.025894
   9 C :   -0.037363
  10 H :    0.031525
  11 H :    0.016430
  12 C :   -0.054712
  13 H :    0.030150
  14 H :    0.015082
  15 H :    0.023175
  16 S :    0.400785
  17 C :   -0.188540
  18 C :   -0.082081
  19 C :   -0.053038
  20 C :   -0.178524
  21 H :    0.027723
  22 C :   -0.020253
  23 H :    0.027311
  24 H :    0.022845
  25 C :   -0.033543
  26 H :    0.031485
  27 H :    0.019602
  28 C :   -0.071539
  29 H :    0.019417
  30 H :    0.033986
  31 H :    0.032817
  32 H :    0.026905
  33 H :    0.027897

  Mayer bond orders larger than 0.100000
B(  0-S ,  1-C ) :   1.1217 B(  0-S ,  4-C ) :   1.1281 B(  1-C ,  2-C ) :   1.6421
B(  1-C , 32-H ) :   0.9719 B(  2-C ,  3-C ) :   1.2071 B(  2-C ,  6-C ) :   1.0323
B(  3-C ,  4-C ) :   1.5900 B(  3-C ,  5-H ) :   1.0081 B(  4-C , 20-C ) :   1.0645
B(  6-C ,  7-H ) :   0.9337 B(  6-C ,  8-H ) :   0.9442 B(  6-C ,  9-C ) :   1.0606
B(  9-C , 10-H ) :   0.9516 B(  9-C , 11-H ) :   0.9556 B(  9-C , 12-C ) :   1.0765
B( 12-C , 13-H ) :   0.9761 B( 12-C , 14-H ) :   0.9756 B( 12-C , 15-H ) :   0.9703
B( 16-S , 17-C ) :   1.1430 B( 16-S , 20-C ) :   1.1323 B( 17-C , 18-C ) :   1.6481
B( 17-C , 33-H ) :   0.9723 B( 18-C , 19-C ) :   1.2156 B( 18-C , 21-H ) :   0.9892
B( 19-C , 20-C ) :   1.5994 B( 19-C , 22-C ) :   1.0238 B( 22-C , 23-H ) :   0.9389
B( 22-C , 24-H ) :   0.9431 B( 22-C , 25-C ) :   1.0504 B( 25-C , 26-H ) :   0.9614
B( 25-C , 27-H ) :   0.9527 B( 25-C , 28-C ) :   1.0672 B( 28-C , 29-H ) :   0.9712
B( 28-C , 30-H ) :   0.9782 B( 28-C , 31-H ) :   0.9722

Dispersion correction           -0.014504346
FINAL SINGLE POINT ENERGY     -1339.848807375834

DIPOLE MOMENT
-------------
                                X             Y             Z
Electronic contribution:    -10.47642     -15.45460     -25.18311
Nuclear contribution   :     10.59826      15.65272      25.94710
                        -----------------------------------------
Total Dipole Moment    :      0.12184       0.19811       0.76399
                        -----------------------------------------
Magnitude (a.u.)       :      0.79861
Magnitude (Debye)      :      2.02991

Rotational constants in cm-1:     0.017761     0.009697     0.006752
Rotational constants in MHz :   532.451783   290.722747   202.431070

                             ****ORCA TERMINATED NORMALLY****
TOTAL RUN TIME: 0 days 0 hours 0 minutes 22 seconds 182 msec
