                         Program Version 4.2.1 -  RELEASE  -
|  1> ! wB97X-D3 SP def2-SVP
|  2> %pal
|  3> nprocs 24
|  4> end
|  5>
|  6> * xyz 0 1
|  7> S 	 -80.5613 	 -44.277 	 -86.0352
|  8> C 	 -79.391 	 -44.0279 	 -84.7345
|  9> C 	 -79.717 	 -44.7641 	 -83.6201
| 10> C 	 -80.9599 	 -45.4746 	 -83.7873
| 11> C 	 -81.5721 	 -45.3304 	 -85.0327
| 12> H 	 -81.5084 	 -46.0523 	 -83.0336
| 13> C 	 -78.9488 	 -44.8699 	 -82.3289
| 14> H 	 -77.954 	 -44.6496 	 -82.5729
| 15> H 	 -79.0522 	 -45.9739 	 -82.0506
| 16> C 	 -79.3682 	 -43.8827 	 -81.2608
| 17> H 	 -79.4874 	 -42.9294 	 -81.7144
| 18> H 	 -80.3544 	 -44.1706 	 -80.9809
| 19> C 	 -78.3971 	 -43.7217 	 -80.1152
| 20> H 	 -78.27 	 -44.6564 	 -79.6495
| 21> H 	 -77.4143 	 -43.3366 	 -80.5391
| 22> H 	 -78.7213 	 -43.0727 	 -79.338
| 23> S 	 -84.2656 	 -44.9375 	 -85.3173
| 24> C 	 -85.2168 	 -46.0214 	 -86.2918
| 25> C 	 -84.4788 	 -47.0649 	 -86.7555
| 26> C 	 -83.1986 	 -47.1201 	 -86.0551
| 27> C 	 -82.8523 	 -45.915 	 -85.4668
| 28> H 	 -85.034 	 -47.7376 	 -87.4185
| 29> C 	 -82.3373 	 -48.3053 	 -86.3166
| 30> H 	 -83.1069 	 -49.1613 	 -86.2776
| 31> H 	 -81.8307 	 -48.4182 	 -85.3936
| 32> C 	 -81.2695 	 -48.3728 	 -87.4921
| 33> H 	 -80.6631 	 -49.2867 	 -87.4782
| 34> H 	 -80.6541 	 -47.5499 	 -87.1878
| 35> C 	 -81.8025 	 -48.2043 	 -88.9048
| 36> H 	 -80.9577 	 -48.3837 	 -89.6352
| 37> H 	 -82.2617 	 -47.2718 	 -88.9311
| 38> H 	 -82.6833 	 -48.9054 	 -89.1831
| 39> H 	 -78.4902 	 -43.4283 	 -84.7604
| 40> H 	 -86.2575 	 -45.9152 	 -86.4836
| 41> *
| 42>
| 43>                          ****END OF INPUT****

CARTESIAN COORDINATES (ANGSTROEM)
---------------------------------
  S    -80.561300  -44.277000  -86.035200
  C    -79.391000  -44.027900  -84.734500
  C    -79.717000  -44.764100  -83.620100
  C    -80.959900  -45.474600  -83.787300
  C    -81.572100  -45.330400  -85.032700
  H    -81.508400  -46.052300  -83.033600
  C    -78.948800  -44.869900  -82.328900
  H    -77.954000  -44.649600  -82.572900
  H    -79.052200  -45.973900  -82.050600
  C    -79.368200  -43.882700  -81.260800
  H    -79.487400  -42.929400  -81.714400
  H    -80.354400  -44.170600  -80.980900
  C    -78.397100  -43.721700  -80.115200
  H    -78.270000  -44.656400  -79.649500
  H    -77.414300  -43.336600  -80.539100
  H    -78.721300  -43.072700  -79.338000
  S    -84.265600  -44.937500  -85.317300
  C    -85.216800  -46.021400  -86.291800
  C    -84.478800  -47.064900  -86.755500
  C    -83.198600  -47.120100  -86.055100
  C    -82.852300  -45.915000  -85.466800
  H    -85.034000  -47.737600  -87.418500
  C    -82.337300  -48.305300  -86.316600
  H    -83.106900  -49.161300  -86.277600
  H    -81.830700  -48.418200  -85.393600
  C    -81.269500  -48.372800  -87.492100
  H    -80.663100  -49.286700  -87.478200
  H    -80.654100  -47.549900  -87.187800
  C    -81.802500  -48.204300  -88.904800
  H    -80.957700  -48.383700  -89.635200
  H    -82.261700  -47.271800  -88.931100
  H    -82.683300  -48.905400  -89.183100
  H    -78.490200  -43.428300  -84.760400
  H    -86.257500  -45.915200  -86.483600

 Total Charge           Charge          ....    0
 Multiplicity           Mult            ....    1
 Number of Electrons    NEL             ....  134
 Basis Dimension        Dim             ....  322

ORBITAL ENERGIES
----------------

  NO   OCC          E(Eh)            E(eV)
   0   2.0000     -88.968836     -2420.9651
   1   2.0000     -88.960610     -2420.7413
   2   2.0000     -10.334963      -281.2287
   3   2.0000     -10.326671      -281.0030
   4   2.0000     -10.317864      -280.7634
   5   2.0000     -10.311996      -280.6037
   6   2.0000     -10.307193      -280.4730
   7   2.0000     -10.301370      -280.3145
   8   2.0000     -10.298023      -280.2234
   9   2.0000     -10.293904      -280.1114
  10   2.0000     -10.291236      -280.0388
  11   2.0000     -10.288705      -279.9699
  12   2.0000     -10.286238      -279.9028
  13   2.0000     -10.278401      -279.6895
  14   2.0000     -10.277979      -279.6780
  15   2.0000     -10.276812      -279.6463
  16   2.0000      -8.082559      -219.9376
  17   2.0000      -8.076410      -219.7703
  18   2.0000      -6.041207      -164.3896
  19   2.0000      -6.037106      -164.2780
  20   2.0000      -6.034879      -164.2174
  21   2.0000      -6.033299      -164.1744
  22   2.0000      -6.030704      -164.1038
  23   2.0000      -6.027194      -164.0083
  24   2.0000      -1.007116       -27.4050
  25   2.0000      -0.985024       -26.8039
  26   2.0000      -0.918733       -25.0000
  27   2.0000      -0.902031       -24.5455
  28   2.0000      -0.872959       -23.7544
  29   2.0000      -0.848977       -23.1018
  30   2.0000      -0.847741       -23.0682
  31   2.0000      -0.818931       -22.2842
  32   2.0000      -0.783321       -21.3152
  33   2.0000      -0.770461       -20.9653
  34   2.0000      -0.710974       -19.3466
  35   2.0000      -0.703782       -19.1509
  36   2.0000      -0.690005       -18.7760
  37   2.0000      -0.659169       -17.9369
  38   2.0000      -0.641545       -17.4573
  39   2.0000      -0.619841       -16.8667
  40   2.0000      -0.583154       -15.8684
  41   2.0000      -0.573517       -15.6062
  42   2.0000      -0.569540       -15.4980
  43   2.0000      -0.558184       -15.1890
  44   2.0000      -0.539587       -14.6829
  45   2.0000      -0.525847       -14.3090
  46   2.0000      -0.517318       -14.0769
  47   2.0000      -0.512485       -13.9454
  48   2.0000      -0.508094       -13.8259
  49   2.0000      -0.500082       -13.6079
  50   2.0000      -0.486419       -13.2361
  51   2.0000      -0.476325       -12.9615
  52   2.0000      -0.468325       -12.7438
  53   2.0000      -0.467496       -12.7212
  54   2.0000      -0.461044       -12.5456
  55   2.0000      -0.447901       -12.1880
  56   2.0000      -0.444825       -12.1043
  57   2.0000      -0.435218       -11.8429
  58   2.0000      -0.428772       -11.6675
  59   2.0000      -0.424983       -11.5644
  60   2.0000      -0.418352       -11.3839
  61   2.0000      -0.416556       -11.3351
  62   2.0000      -0.405702       -11.0397
  63   2.0000      -0.335272        -9.1232
  64   2.0000      -0.327513        -8.9121
  65   2.0000      -0.323915        -8.8142
  66   2.0000      -0.310973        -8.4620
  67   0.0000       0.044464         1.2099
  68   0.0000       0.049732         1.3533
  69   0.0000       0.111207         3.0261
  70   0.0000       0.116740         3.1767
  71   0.0000       0.130148         3.5415

MULLIKEN ATOMIC CHARGES
-----------------------
   0 S :    0.119442
   1 C :   -0.117290
   2 C :   -0.105106
   3 C :    0.038227
   4 C :   -0.167879
   5 H :    0.021076
   6 C :    0.076982
   7 H :   -0.008055
   8 H :    0.044742
   9 C :   -0.034718
  10 H :    0.015041
  11 H :    0.009241
  12 C :   -0.014113
  13 H :    0.017566
  14 H :    0.035511
  15 H :    0.031080
  16 S :    0.111576
  17 C :   -0.088777
  18 C :   -0.038836
  19 C :   -0.066174
  20 C :   -0.169751
  21 H :    0.031169
  22 C :    0.051052
  23 H :    0.027233
  24 H :    0.010604
  25 C :   -0.029435
  26 H :    0.033759
  27 H :    0.027233
  28 C :   -0.064987
  29 H :    0.052012
  30 H :    0.026913
  31 H :    0.031700
  32 H :    0.045353
  33 H :    0.047610
Sum of atomic charges:   -0.0000000

LOEWDIN ATOMIC CHARGES
----------------------
   0 S :    0.395479
   1 C :   -0.191371
   2 C :   -0.064619
   3 C :   -0.060789
   4 C :   -0.196759
   5 H :    0.034200
   6 C :   -0.028342
   7 H :    0.017985
   8 H :    0.041391
   9 C :   -0.037317
  10 H :    0.021720
  11 H :    0.018418
  12 C :   -0.057541
  13 H :    0.018356
  14 H :    0.033044
  15 H :    0.024349
  16 S :    0.415882
  17 C :   -0.178485
  18 C :   -0.076111
  19 C :   -0.053658
  20 C :   -0.216114
  21 H :    0.038526
  22 C :   -0.042999
  23 H :    0.035495
  24 H :    0.025997
  25 C :   -0.033021
  26 H :    0.026457
  27 H :    0.023825
  28 C :   -0.072016
  29 H :    0.036193
  30 H :    0.015573
  31 H :    0.030979
  32 H :    0.031191
  33 H :    0.024081

  Mayer bond orders larger than 0.100000
B(  0-S ,  1-C ) :   1.1323 B(  0-S ,  4-C ) :   1.1355 B(  1-C ,  2-C ) :   1.6308
B(  1-C , 32-H ) :   0.9646 B(  2-C ,  3-C ) :   1.2216 B(  2-C ,  6-C ) :   1.0243
B(  3-C ,  4-C ) :   1.6095 B(  3-C ,  5-H ) :   0.9865 B(  4-C , 20-C ) :   1.0173
B(  6-C ,  7-H ) :   0.9293 B(  6-C ,  8-H ) :   0.9385 B(  6-C ,  9-C ) :   1.0640
B(  9-C , 10-H ) :   0.9522 B(  9-C , 11-H ) :   0.9500 B(  9-C , 12-C ) :   1.0892
B( 12-C , 13-H ) :   0.9730 B( 12-C , 14-H ) :   0.9725 B( 12-C , 15-H ) :   0.9729
B( 16-S , 17-C ) :   1.1547 B( 16-S , 20-C ) :   1.1455 B( 17-C , 18-C ) :   1.6423
B( 17-C , 33-H ) :   0.9686 B( 18-C , 19-C ) :   1.1998 B( 18-C , 21-H ) :   0.9863
B( 19-C , 20-C ) :   1.5988 B( 19-C , 22-C ) :   1.0545 B( 22-C , 23-H ) :   0.9324
B( 22-C , 24-H ) :   0.9270 B( 22-C , 25-C ) :   1.0506 B( 25-C , 26-H ) :   0.9574
B( 25-C , 27-H ) :   0.9516 B( 25-C , 28-C ) :   1.0800 B( 28-C , 29-H ) :   0.9724
B( 28-C , 30-H ) :   0.9735 B( 28-C , 31-H ) :   0.9735

Dispersion correction           -0.014492362
FINAL SINGLE POINT ENERGY     -1339.857913167566

DIPOLE MOMENT
-------------
                                X             Y             Z
Electronic contribution:    -13.32622       9.09026      -7.58902
Nuclear contribution   :     13.49159      -9.35272       7.88652
                        -----------------------------------------
Total Dipole Moment    :      0.16537      -0.26246       0.29749
                        -----------------------------------------
Magnitude (a.u.)       :      0.42981
Magnitude (Debye)      :      1.09248

Rotational constants in cm-1:     0.022757     0.007244     0.006450
Rotational constants in MHz :   682.229664   217.159042   193.375913

                             ****ORCA TERMINATED NORMALLY****
TOTAL RUN TIME: 0 days 0 hours 0 minutes 21 seconds 207 msec
