                         Program Version 4.2.1 -  RELEASE  -
|  1> ! wB97X-D3 SP def2-SVP
|  2> %pal
|  3> nprocs 24
|  4> end
|  5>
|  6> * xyz 0 1
|  7> S 	 -33.8667 	 -31.6779 	 -91.8545
|  8> C 	 -33.8615 	 -29.886 	 -91.9433
|  9> C 	 -32.5993 	 -29.3176 	 -91.6301
| 10> C 	 -31.718 	 -30.3498 	 -91.1779
| 11> C 	 -32.2402 	 -31.6087 	 -91.2025
| 12> H 	 -30.6702 	 -30.1213 	 -90.8698
| 13> C 	 -32.3507 	 -27.8168 	 -91.4442
| 14> H 	 -31.409 	 -27.6634 	 -90.8414
| 15> H 	 -33.2154 	 -27.3884 	 -90.9027
| 16> C 	 -32.2895 	 -26.9321 	 -92.6997
| 17> H 	 -33.3375 	 -26.8344 	 -93.2218
| 18> H 	 -32.1331 	 -25.9312 	 -92.4089
| 19> C 	 -31.2238 	 -27.4231 	 -93.6869
| 20> H 	 -31.6231 	 -28.2703 	 -94.1396
| 21> H 	 -30.7905 	 -26.6707 	 -94.331
| 22> H 	 -30.2714 	 -27.6659 	 -93.1257
| 23> S 	 -32.3817 	 -34.0569 	 -90.0584
| 24> C 	 -31.0578 	 -35.1633 	 -90.0528
| 25> C 	 -29.8934 	 -34.5268 	 -90.4962
| 26> C 	 -30.1468 	 -33.1812 	 -90.9095
| 27> C 	 -31.488 	 -32.8407 	 -90.9147
| 28> H 	 -28.9212 	 -35.0632 	 -90.5627
| 29> C 	 -29.0452 	 -32.3239 	 -91.4352
| 30> H 	 -28.0805 	 -32.7744 	 -91.133
| 31> H 	 -28.95 	 -31.3499 	 -90.8945
| 32> C 	 -29.0295 	 -31.9645 	 -92.8932
| 33> H 	 -29.9812 	 -31.7601 	 -93.2516
| 34> H 	 -28.7213 	 -32.8224 	 -93.5303
| 35> C 	 -28.0623 	 -30.8225 	 -93.1765
| 36> H 	 -27.1126 	 -31.0954 	 -92.7906
| 37> H 	 -28.3186 	 -29.9247 	 -92.6274
| 38> H 	 -27.9872 	 -30.6318 	 -94.3042
| 39> H 	 -34.7529 	 -29.4062 	 -92.333
| 40> H 	 -31.0245 	 -36.1724 	 -89.7457
| 41> *
| 42>
| 43>                          ****END OF INPUT****

CARTESIAN COORDINATES (ANGSTROEM)
---------------------------------
  S    -33.866700  -31.677900  -91.854500
  C    -33.861500  -29.886000  -91.943300
  C    -32.599300  -29.317600  -91.630100
  C    -31.718000  -30.349800  -91.177900
  C    -32.240200  -31.608700  -91.202500
  H    -30.670200  -30.121300  -90.869800
  C    -32.350700  -27.816800  -91.444200
  H    -31.409000  -27.663400  -90.841400
  H    -33.215400  -27.388400  -90.902700
  C    -32.289500  -26.932100  -92.699700
  H    -33.337500  -26.834400  -93.221800
  H    -32.133100  -25.931200  -92.408900
  C    -31.223800  -27.423100  -93.686900
  H    -31.623100  -28.270300  -94.139600
  H    -30.790500  -26.670700  -94.331000
  H    -30.271400  -27.665900  -93.125700
  S    -32.381700  -34.056900  -90.058400
  C    -31.057800  -35.163300  -90.052800
  C    -29.893400  -34.526800  -90.496200
  C    -30.146800  -33.181200  -90.909500
  C    -31.488000  -32.840700  -90.914700
  H    -28.921200  -35.063200  -90.562700
  C    -29.045200  -32.323900  -91.435200
  H    -28.080500  -32.774400  -91.133000
  H    -28.950000  -31.349900  -90.894500
  C    -29.029500  -31.964500  -92.893200
  H    -29.981200  -31.760100  -93.251600
  H    -28.721300  -32.822400  -93.530300
  C    -28.062300  -30.822500  -93.176500
  H    -27.112600  -31.095400  -92.790600
  H    -28.318600  -29.924700  -92.627400
  H    -27.987200  -30.631800  -94.304200
  H    -34.752900  -29.406200  -92.333000
  H    -31.024500  -36.172400  -89.745700

 Total Charge           Charge          ....    0
 Multiplicity           Mult            ....    1
 Number of Electrons    NEL             ....  134
 Basis Dimension        Dim             ....  322

ORBITAL ENERGIES
----------------

  NO   OCC          E(Eh)            E(eV)
   0   2.0000     -88.971033     -2421.0249
   1   2.0000     -88.964693     -2420.8524
   2   2.0000     -10.330888      -281.1178
   3   2.0000     -10.324956      -280.9563
   4   2.0000     -10.323054      -280.9046
   5   2.0000     -10.313589      -280.6470
   6   2.0000     -10.310978      -280.5760
   7   2.0000     -10.302609      -280.3482
   8   2.0000     -10.301344      -280.3138
   9   2.0000     -10.297537      -280.2102
  10   2.0000     -10.297235      -280.2020
  11   2.0000     -10.292093      -280.0621
  12   2.0000     -10.290284      -280.0129
  13   2.0000     -10.278055      -279.6801
  14   2.0000     -10.276003      -279.6242
  15   2.0000     -10.274353      -279.5794
  16   2.0000      -8.084997      -220.0040
  17   2.0000      -8.080028      -219.8687
  18   2.0000      -6.043455      -164.4508
  19   2.0000      -6.039750      -164.3500
  20   2.0000      -6.038500      -164.3159
  21   2.0000      -6.035717      -164.2402
  22   2.0000      -6.034312      -164.2020
  23   2.0000      -6.030944      -164.1103
  24   2.0000      -1.008720       -27.4487
  25   2.0000      -0.982568       -26.7370
  26   2.0000      -0.915496       -24.9119
  27   2.0000      -0.910664       -24.7804
  28   2.0000      -0.865581       -23.5537
  29   2.0000      -0.854622       -23.2555
  30   2.0000      -0.846067       -23.0227
  31   2.0000      -0.812215       -22.1015
  32   2.0000      -0.781389       -21.2627
  33   2.0000      -0.770549       -20.9677
  34   2.0000      -0.707376       -19.2487
  35   2.0000      -0.703017       -19.1301
  36   2.0000      -0.691574       -18.8187
  37   2.0000      -0.665378       -18.1059
  38   2.0000      -0.637157       -17.3379
  39   2.0000      -0.619387       -16.8544
  40   2.0000      -0.598122       -16.2757
  41   2.0000      -0.573962       -15.6183
  42   2.0000      -0.562198       -15.2982
  43   2.0000      -0.550501       -14.9799
  44   2.0000      -0.544872       -14.8267
  45   2.0000      -0.526147       -14.3172
  46   2.0000      -0.512920       -13.9573
  47   2.0000      -0.507014       -13.7966
  48   2.0000      -0.503157       -13.6916
  49   2.0000      -0.494178       -13.4473
  50   2.0000      -0.491953       -13.3867
  51   2.0000      -0.482103       -13.1187
  52   2.0000      -0.473424       -12.8825
  53   2.0000      -0.462119       -12.5749
  54   2.0000      -0.457482       -12.4487
  55   2.0000      -0.451620       -12.2892
  56   2.0000      -0.444083       -12.0841
  57   2.0000      -0.436551       -11.8792
  58   2.0000      -0.432832       -11.7780
  59   2.0000      -0.426422       -11.6035
  60   2.0000      -0.422528       -11.4976
  61   2.0000      -0.414955       -11.2915
  62   2.0000      -0.408935       -11.1277
  63   2.0000      -0.350427        -9.5356
  64   2.0000      -0.335648        -9.1335
  65   2.0000      -0.329183        -8.9575
  66   2.0000      -0.287029        -7.8105
  67   0.0000       0.021447         0.5836
  68   0.0000       0.071272         1.9394
  69   0.0000       0.101046         2.7496
  70   0.0000       0.110998         3.0204
  71   0.0000       0.126267         3.4359

MULLIKEN ATOMIC CHARGES
-----------------------
   0 S :    0.109721
   1 C :   -0.137756
   2 C :   -0.052167
   3 C :   -0.019348
   4 C :   -0.099353
   5 H :    0.015018
   6 C :    0.017730
   7 H :    0.039929
   8 H :    0.047364
   9 C :   -0.086255
  10 H :    0.035479
  11 H :    0.016541
  12 C :   -0.036333
  13 H :    0.044536
  14 H :    0.032044
  15 H :    0.018664
  16 S :    0.103301
  17 C :   -0.067132
  18 C :   -0.054860
  19 C :   -0.031827
  20 C :   -0.125522
  21 H :    0.033661
  22 C :    0.012866
  23 H :    0.009189
  24 H :    0.019717
  25 C :   -0.021418
  26 H :    0.018989
  27 H :    0.023732
  28 C :   -0.047053
  29 H :    0.013633
  30 H :    0.020970
  31 H :    0.049520
  32 H :    0.055543
  33 H :    0.040878
Sum of atomic charges:    0.0000000

LOEWDIN ATOMIC CHARGES
----------------------
   0 S :    0.391646
   1 C :   -0.179370
   2 C :   -0.059256
   3 C :   -0.067795
   4 C :   -0.194519
   5 H :    0.036284
   6 C :   -0.034586
   7 H :    0.035543
   8 H :    0.040688
   9 C :   -0.045367
  10 H :    0.030503
  11 H :    0.015056
  12 C :   -0.066504
  13 H :    0.020939
  14 H :    0.026253
  15 H :    0.029091
  16 S :    0.424908
  17 C :   -0.191811
  18 C :   -0.071965
  19 C :   -0.063310
  20 C :   -0.197657
  21 H :    0.039111
  22 C :   -0.040663
  23 H :    0.030135
  24 H :    0.028257
  25 C :   -0.038126
  26 H :    0.014624
  27 H :    0.028812
  28 C :   -0.060619
  29 H :    0.016963
  30 H :    0.017973
  31 H :    0.037796
  32 H :    0.023197
  33 H :    0.023770

  Mayer bond orders larger than 0.100000
B(  0-S ,  1-C ) :   1.1384 B(  0-S ,  4-C ) :   1.1448 B(  1-C ,  2-C ) :   1.5827
B(  1-C ,  4-C ) :   0.1016 B(  1-C , 32-H ) :   0.9716 B(  2-C ,  3-C ) :   1.2481
B(  2-C ,  6-C ) :   1.0088 B(  3-C ,  4-C ) :   1.5853 B(  3-C ,  5-H ) :   0.9831
B(  4-C , 20-C ) :   1.0282 B(  6-C ,  7-H ) :   0.9477 B(  6-C ,  8-H ) :   0.9453
B(  6-C ,  9-C ) :   1.0769 B(  9-C , 10-H ) :   0.9563 B(  9-C , 11-H ) :   0.9549
B(  9-C , 12-C ) :   1.0641 B( 12-C , 13-H ) :   0.9751 B( 12-C , 14-H ) :   0.9735
B( 12-C , 15-H ) :   0.9728 B( 16-S , 17-C ) :   1.1681 B( 16-S , 20-C ) :   1.1479
B( 17-C , 18-C ) :   1.5846 B( 17-C , 20-C ) :   0.1032 B( 17-C , 33-H ) :   0.9722
B( 18-C , 19-C ) :   1.2684 B( 18-C , 21-H ) :   0.9835 B( 19-C , 20-C ) :   1.5730
B( 19-C , 22-C ) :   1.0516 B( 22-C , 23-H ) :   0.9215 B( 22-C , 24-H ) :   0.9334
B( 22-C , 25-C ) :   1.0646 B( 25-C , 26-H ) :   0.9552 B( 25-C , 27-H ) :   0.9461
B( 25-C , 28-C ) :   1.0814 B( 28-C , 29-H ) :   0.9718 B( 28-C , 30-H ) :   0.9732
B( 28-C , 31-H ) :   0.9722

Dispersion correction           -0.015197570
FINAL SINGLE POINT ENERGY     -1339.874701152235

DIPOLE MOMENT
-------------
                                X             Y             Z
Electronic contribution:    -18.92648     -22.16088      12.29786
Nuclear contribution   :     19.40203      22.60382     -12.42257
                        -----------------------------------------
Total Dipole Moment    :      0.47555       0.44295      -0.12471
                        -----------------------------------------
Magnitude (a.u.)       :      0.66174
Magnitude (Debye)      :      1.68202

Rotational constants in cm-1:     0.019793     0.009679     0.007002
Rotational constants in MHz :   593.366735   290.161960   209.909176

                             ****ORCA TERMINATED NORMALLY****
TOTAL RUN TIME: 0 days 0 hours 0 minutes 23 seconds 845 msec
