                         Program Version 4.2.1 -  RELEASE  -
|  1> ! wB97X-D3 SP def2-SVP
|  2> %pal
|  3> nprocs 24
|  4> end
|  5>
|  6> * xyz 0 1
|  7> S 	 -108.039 	 25.8849 	 -114.683
|  8> C 	 -108.173 	 27.5866 	 -114.268
|  9> C 	 -109.366 	 28.1908 	 -114.782
| 10> C 	 -110.015 	 27.2915 	 -115.729
| 11> C 	 -109.363 	 26.0291 	 -115.811
| 12> H 	 -110.866 	 27.4041 	 -116.407
| 13> C 	 -109.71 	 29.6883 	 -114.692
| 14> H 	 -110.739 	 29.7014 	 -114.914
| 15> H 	 -109.248 	 30.3233 	 -115.435
| 16> C 	 -109.539 	 30.2773 	 -113.219
| 17> H 	 -108.493 	 30.3429 	 -112.86
| 18> H 	 -109.865 	 31.3623 	 -113.272
| 19> C 	 -110.434 	 29.6277 	 -112.183
| 20> H 	 -110.375 	 28.5751 	 -112.395
| 21> H 	 -109.972 	 29.7055 	 -111.159
| 22> H 	 -111.397 	 30.0216 	 -112.06
| 23> S 	 -108.433 	 24.4731 	 -117.93
| 24> C 	 -109.464 	 23.2196 	 -118.574
| 25> C 	 -110.769 	 23.3614 	 -118.165
| 26> C 	 -110.886 	 24.4064 	 -117.196
| 27> C 	 -109.669 	 24.9719 	 -116.816
| 28> H 	 -111.48 	 22.6127 	 -118.452
| 29> C 	 -112.238 	 24.5917 	 -116.543
| 30> H 	 -112.841 	 25.0026 	 -117.322
| 31> H 	 -112.124 	 25.1994 	 -115.69
| 32> C 	 -112.87 	 23.2778 	 -116.008
| 33> H 	 -113.071 	 22.6279 	 -116.893
| 34> H 	 -113.904 	 23.3861 	 -115.542
| 35> C 	 -112.05 	 22.6509 	 -114.838
| 36> H 	 -111.51 	 23.3202 	 -114.24
| 37> H 	 -111.26 	 22.0226 	 -115.282
| 38> H 	 -112.602 	 22.072 	 -114.09
| 39> H 	 -107.387 	 28.2756 	 -113.866
| 40> H 	 -109.162 	 22.4972 	 -119.289
| 41> *
| 42>
| 43>                          ****END OF INPUT****

CARTESIAN COORDINATES (ANGSTROEM)
---------------------------------
  S    -108.039000   25.884900  -114.683000
  C    -108.173000   27.586600  -114.268000
  C    -109.366000   28.190800  -114.782000
  C    -110.015000   27.291500  -115.729000
  C    -109.363000   26.029100  -115.811000
  H    -110.866000   27.404100  -116.407000
  C    -109.710000   29.688300  -114.692000
  H    -110.739000   29.701400  -114.914000
  H    -109.248000   30.323300  -115.435000
  C    -109.539000   30.277300  -113.219000
  H    -108.493000   30.342900  -112.860000
  H    -109.865000   31.362300  -113.272000
  C    -110.434000   29.627700  -112.183000
  H    -110.375000   28.575100  -112.395000
  H    -109.972000   29.705500  -111.159000
  H    -111.397000   30.021600  -112.060000
  S    -108.433000   24.473100  -117.930000
  C    -109.464000   23.219600  -118.574000
  C    -110.769000   23.361400  -118.165000
  C    -110.886000   24.406400  -117.196000
  C    -109.669000   24.971900  -116.816000
  H    -111.480000   22.612700  -118.452000
  C    -112.238000   24.591700  -116.543000
  H    -112.841000   25.002600  -117.322000
  H    -112.124000   25.199400  -115.690000
  C    -112.870000   23.277800  -116.008000
  H    -113.071000   22.627900  -116.893000
  H    -113.904000   23.386100  -115.542000
  C    -112.050000   22.650900  -114.838000
  H    -111.510000   23.320200  -114.240000
  H    -111.260000   22.022600  -115.282000
  H    -112.602000   22.072000  -114.090000
  H    -107.387000   28.275600  -113.866000
  H    -109.162000   22.497200  -119.289000

 Total Charge           Charge          ....    0
 Multiplicity           Mult            ....    1
 Number of Electrons    NEL             ....  134
 Basis Dimension        Dim             ....  322

ORBITAL ENERGIES
----------------

  NO   OCC          E(Eh)            E(eV)
   0   2.0000     -88.973670     -2421.0966
   1   2.0000     -88.964632     -2420.8507
   2   2.0000     -10.334804      -281.2243
   3   2.0000     -10.328429      -281.0508
   4   2.0000     -10.322231      -280.8822
   5   2.0000     -10.314561      -280.6735
   6   2.0000     -10.313595      -280.6472
   7   2.0000     -10.304184      -280.3911
   8   2.0000     -10.303689      -280.3776
   9   2.0000     -10.295765      -280.1620
  10   2.0000     -10.295522      -280.1554
  11   2.0000     -10.294327      -280.1229
  12   2.0000     -10.291686      -280.0510
  13   2.0000     -10.285461      -279.8816
  14   2.0000     -10.271545      -279.5030
  15   2.0000     -10.269483      -279.4468
  16   2.0000      -8.087717      -220.0780
  17   2.0000      -8.079808      -219.8627
  18   2.0000      -6.046193      -164.5253
  19   2.0000      -6.042240      -164.4177
  20   2.0000      -6.038631      -164.3195
  21   2.0000      -6.038269      -164.3097
  22   2.0000      -6.034299      -164.2016
  23   2.0000      -6.030535      -164.0992
  24   2.0000      -1.004404       -27.3312
  25   2.0000      -0.980036       -26.6681
  26   2.0000      -0.907316       -24.6893
  27   2.0000      -0.905008       -24.6265
  28   2.0000      -0.863340       -23.4927
  29   2.0000      -0.848309       -23.0837
  30   2.0000      -0.841612       -22.9014
  31   2.0000      -0.810285       -22.0490
  32   2.0000      -0.783672       -21.3248
  33   2.0000      -0.772737       -21.0272
  34   2.0000      -0.703380       -19.1399
  35   2.0000      -0.700957       -19.0740
  36   2.0000      -0.691123       -18.8064
  37   2.0000      -0.658685       -17.9237
  38   2.0000      -0.635628       -17.2963
  39   2.0000      -0.607345       -16.5267
  40   2.0000      -0.593146       -16.1403
  41   2.0000      -0.575033       -15.6474
  42   2.0000      -0.559786       -15.2326
  43   2.0000      -0.552654       -15.0385
  44   2.0000      -0.543509       -14.7896
  45   2.0000      -0.532551       -14.4915
  46   2.0000      -0.514439       -13.9986
  47   2.0000      -0.506663       -13.7870
  48   2.0000      -0.497656       -13.5419
  49   2.0000      -0.495143       -13.4735
  50   2.0000      -0.489592       -13.3225
  51   2.0000      -0.472782       -12.8651
  52   2.0000      -0.467966       -12.7340
  53   2.0000      -0.466155       -12.6847
  54   2.0000      -0.457938       -12.4611
  55   2.0000      -0.447657       -12.1814
  56   2.0000      -0.446833       -12.1589
  57   2.0000      -0.440298       -11.9811
  58   2.0000      -0.435738       -11.8570
  59   2.0000      -0.425811       -11.5869
  60   2.0000      -0.417132       -11.3507
  61   2.0000      -0.412909       -11.2358
  62   2.0000      -0.398568       -10.8456
  63   2.0000      -0.342644        -9.3238
  64   2.0000      -0.331537        -9.0216
  65   2.0000      -0.327717        -8.9176
  66   2.0000      -0.292948        -7.9715
  67   0.0000       0.022071         0.6006
  68   0.0000       0.069817         1.8998
  69   0.0000       0.109196         2.9714
  70   0.0000       0.114553         3.1171
  71   0.0000       0.123323         3.3558

MULLIKEN ATOMIC CHARGES
-----------------------
   0 S :    0.137226
   1 C :   -0.135326
   2 C :   -0.125414
   3 C :    0.046189
   4 C :   -0.194453
   5 H :    0.025853
   6 C :    0.094512
   7 H :    0.010611
   8 H :    0.050738
   9 C :   -0.123878
  10 H :    0.038365
  11 H :    0.031362
  12 C :   -0.037904
  13 H :    0.037085
  14 H :    0.027823
  15 H :    0.030721
  16 S :    0.110993
  17 C :   -0.081310
  18 C :   -0.034102
  19 C :   -0.053301
  20 C :   -0.156583
  21 H :    0.021584
  22 C :    0.116632
  23 H :    0.032928
  24 H :    0.015728
  25 C :   -0.125592
  26 H :    0.033009
  27 H :    0.039228
  28 C :   -0.037012
  29 H :    0.016692
  30 H :    0.035643
  31 H :    0.033939
  32 H :    0.074247
  33 H :    0.043767
Sum of atomic charges:    0.0000000

LOEWDIN ATOMIC CHARGES
----------------------
   0 S :    0.416998
   1 C :   -0.214423
   2 C :   -0.061179
   3 C :   -0.060154
   4 C :   -0.201735
   5 H :    0.035922
   6 C :   -0.026852
   7 H :    0.025822
   8 H :    0.035083
   9 C :   -0.047909
  10 H :    0.023331
  11 H :    0.028603
  12 C :   -0.069095
  13 H :    0.025247
  14 H :    0.034383
  15 H :    0.017603
  16 S :    0.410547
  17 C :   -0.172276
  18 C :   -0.071049
  19 C :   -0.053678
  20 C :   -0.213152
  21 H :    0.031727
  22 C :   -0.025175
  23 H :    0.032162
  24 H :    0.021530
  25 C :   -0.045619
  26 H :    0.020729
  27 H :    0.030988
  28 C :   -0.069649
  29 H :    0.019603
  30 H :    0.030597
  31 H :    0.027364
  32 H :    0.041695
  33 H :    0.022010

  Mayer bond orders larger than 0.100000
B(  0-S ,  1-C ) :   1.1474 B(  0-S ,  4-C ) :   1.1591 B(  1-C ,  2-C ) :   1.5820
B(  1-C , 32-H ) :   0.9609 B(  2-C ,  3-C ) :   1.2356 B(  2-C ,  6-C ) :   1.0132
B(  3-C ,  4-C ) :   1.5691 B(  3-C ,  5-H ) :   0.9861 B(  4-C , 20-C ) :   1.0297
B(  6-C ,  7-H ) :   0.9373 B(  6-C ,  8-H ) :   0.9462 B(  6-C ,  9-C ) :   1.0643
B(  9-C , 10-H ) :   0.9634 B(  9-C , 11-H ) :   0.9583 B(  9-C , 12-C ) :   1.0702
B( 12-C , 13-H ) :   0.9741 B( 12-C , 14-H ) :   0.9717 B( 12-C , 15-H ) :   0.9783
B( 16-S , 17-C ) :   1.1592 B( 16-S , 20-C ) :   1.1432 B( 17-C , 18-C ) :   1.6196
B( 17-C , 33-H ) :   0.9701 B( 18-C , 19-C ) :   1.2226 B( 18-C , 21-H ) :   0.9932
B( 19-C , 20-C ) :   1.5910 B( 19-C , 22-C ) :   1.0413 B( 22-C , 23-H ) :   0.9269
B( 22-C , 24-H ) :   0.9389 B( 22-C , 25-C ) :   1.0786 B( 25-C , 26-H ) :   0.9568
B( 25-C , 27-H ) :   0.9613 B( 25-C , 28-C ) :   1.0493 B( 28-C , 29-H ) :   0.9762
B( 28-C , 30-H ) :   0.9739 B( 28-C , 31-H ) :   0.9801

Dispersion correction           -0.014716021
FINAL SINGLE POINT ENERGY     -1339.853976450504

DIPOLE MOMENT
-------------
                                X             Y             Z
Electronic contribution:     17.79216      -8.03582     -13.63693
Nuclear contribution   :    -18.21858       8.25661      13.55247
                        -----------------------------------------
Total Dipole Moment    :     -0.42642       0.22079      -0.08446
                        -----------------------------------------
Magnitude (a.u.)       :      0.48757
Magnitude (Debye)      :      1.23929

Rotational constants in cm-1:     0.022085     0.007789     0.006667
Rotational constants in MHz :   662.087364   233.501652   199.864885

                             ****ORCA TERMINATED NORMALLY****
TOTAL RUN TIME: 0 days 0 hours 0 minutes 21 seconds 461 msec
