                         Program Version 4.2.1 -  RELEASE  -
|  1> ! wB97X-D3 SP def2-SVP
|  2> %pal
|  3> nprocs 24
|  4> end
|  5>
|  6> * xyz 0 1
|  7> S 	 -56.7083 	 3.21636 	 -20.1758
|  8> C 	 -58.0634 	 2.54555 	 -19.3944
|  9> C 	 -58.2991 	 3.24766 	 -18.1948
| 10> C 	 -57.4165 	 4.28053 	 -17.9284
| 11> C 	 -56.4543 	 4.38684 	 -18.8847
| 12> H 	 -57.4993 	 4.98582 	 -17.1673
| 13> C 	 -59.3336 	 2.78366 	 -17.0832
| 14> H 	 -58.7412 	 2.77956 	 -16.2059
| 15> H 	 -59.5342 	 1.69356 	 -17.2166
| 16> C 	 -60.5858 	 3.65197 	 -17.0222
| 17> H 	 -60.3259 	 4.4975 	 -16.4736
| 18> H 	 -60.7099 	 4.01438 	 -18.0741
| 19> C 	 -61.7834 	 3.03274 	 -16.3386
| 20> H 	 -62.3248 	 2.27351 	 -16.9756
| 21> H 	 -61.396 	 2.50097 	 -15.4653
| 22> H 	 -62.4234 	 3.83839 	 -16.0422
| 23> S 	 -53.6446 	 4.45785 	 -18.532
| 24> C 	 -52.874 	 6.03753 	 -18.3312
| 25> C 	 -53.7904 	 7.03774 	 -18.2062
| 26> C 	 -55.1145 	 6.54008 	 -18.4756
| 27> C 	 -55.2623 	 5.16921 	 -18.6677
| 28> H 	 -53.3991 	 7.99105 	 -17.9758
| 29> C 	 -56.2697 	 7.5135 	 -18.4753
| 30> H 	 -56.0226 	 8.45077 	 -17.9744
| 31> H 	 -56.952 	 7.07715 	 -17.7605
| 32> C 	 -56.9267 	 7.85141 	 -19.7547
| 33> H 	 -57.5545 	 7.02291 	 -20.0707
| 34> H 	 -56.2297 	 7.9918 	 -20.5798
| 35> C 	 -57.8041 	 9.058 	 -19.8649
| 36> H 	 -58.4035 	 9.09522 	 -18.9945
| 37> H 	 -58.4956 	 9.09423 	 -20.7606
| 38> H 	 -57.182 	 9.93726 	 -19.9983
| 39> H 	 -58.5646 	 1.64916 	 -19.7131
| 40> H 	 -51.8051 	 6.15475 	 -18.1655
| 41> *
| 42>
| 43>                          ****END OF INPUT****

CARTESIAN COORDINATES (ANGSTROEM)
---------------------------------
  S    -56.708300    3.216360  -20.175800
  C    -58.063400    2.545550  -19.394400
  C    -58.299100    3.247660  -18.194800
  C    -57.416500    4.280530  -17.928400
  C    -56.454300    4.386840  -18.884700
  H    -57.499300    4.985820  -17.167300
  C    -59.333600    2.783660  -17.083200
  H    -58.741200    2.779560  -16.205900
  H    -59.534200    1.693560  -17.216600
  C    -60.585800    3.651970  -17.022200
  H    -60.325900    4.497500  -16.473600
  H    -60.709900    4.014380  -18.074100
  C    -61.783400    3.032740  -16.338600
  H    -62.324800    2.273510  -16.975600
  H    -61.396000    2.500970  -15.465300
  H    -62.423400    3.838390  -16.042200
  S    -53.644600    4.457850  -18.532000
  C    -52.874000    6.037530  -18.331200
  C    -53.790400    7.037740  -18.206200
  C    -55.114500    6.540080  -18.475600
  C    -55.262300    5.169210  -18.667700
  H    -53.399100    7.991050  -17.975800
  C    -56.269700    7.513500  -18.475300
  H    -56.022600    8.450770  -17.974400
  H    -56.952000    7.077150  -17.760500
  C    -56.926700    7.851410  -19.754700
  H    -57.554500    7.022910  -20.070700
  H    -56.229700    7.991800  -20.579800
  C    -57.804100    9.058000  -19.864900
  H    -58.403500    9.095220  -18.994500
  H    -58.495600    9.094230  -20.760600
  H    -57.182000    9.937260  -19.998300
  H    -58.564600    1.649160  -19.713100
  H    -51.805100    6.154750  -18.165500

 Total Charge           Charge          ....    0
 Multiplicity           Mult            ....    1
 Number of Electrons    NEL             ....  134
 Basis Dimension        Dim             ....  322

ORBITAL ENERGIES
----------------

  NO   OCC          E(Eh)            E(eV)
   0   2.0000     -88.970051     -2420.9982
   1   2.0000     -88.962115     -2420.7822
   2   2.0000     -10.327270      -281.0193
   3   2.0000     -10.326874      -281.0085
   4   2.0000     -10.316808      -280.7346
   5   2.0000     -10.315020      -280.6860
   6   2.0000     -10.303796      -280.3805
   7   2.0000     -10.300822      -280.2996
   8   2.0000     -10.290934      -280.0305
   9   2.0000     -10.290376      -280.0154
  10   2.0000     -10.287123      -279.9268
  11   2.0000     -10.283142      -279.8185
  12   2.0000     -10.281288      -279.7681
  13   2.0000     -10.280457      -279.7454
  14   2.0000     -10.271963      -279.5143
  15   2.0000     -10.271029      -279.4889
  16   2.0000      -8.085200      -220.0095
  17   2.0000      -8.076357      -219.7688
  18   2.0000      -6.043493      -164.4518
  19   2.0000      -6.039520      -164.3437
  20   2.0000      -6.036279      -164.2555
  21   2.0000      -6.035005      -164.2208
  22   2.0000      -6.030909      -164.1094
  23   2.0000      -6.027014      -164.0034
  24   2.0000      -1.011317       -27.5193
  25   2.0000      -0.985616       -26.8200
  26   2.0000      -0.913666       -24.8621
  27   2.0000      -0.909997       -24.7623
  28   2.0000      -0.877268       -23.8717
  29   2.0000      -0.857593       -23.3363
  30   2.0000      -0.848746       -23.0955
  31   2.0000      -0.818930       -22.2842
  32   2.0000      -0.782165       -21.2838
  33   2.0000      -0.768802       -20.9202
  34   2.0000      -0.708735       -19.2856
  35   2.0000      -0.697552       -18.9813
  36   2.0000      -0.688695       -18.7403
  37   2.0000      -0.663094       -18.0437
  38   2.0000      -0.649766       -17.6810
  39   2.0000      -0.624303       -16.9881
  40   2.0000      -0.595098       -16.1935
  41   2.0000      -0.574340       -15.6286
  42   2.0000      -0.569209       -15.4890
  43   2.0000      -0.560586       -15.2543
  44   2.0000      -0.531623       -14.4662
  45   2.0000      -0.528555       -14.3827
  46   2.0000      -0.521984       -14.2039
  47   2.0000      -0.516790       -14.0626
  48   2.0000      -0.508885       -13.8475
  49   2.0000      -0.506951       -13.7948
  50   2.0000      -0.487585       -13.2679
  51   2.0000      -0.486788       -13.2462
  52   2.0000      -0.476550       -12.9676
  53   2.0000      -0.464508       -12.6399
  54   2.0000      -0.459546       -12.5049
  55   2.0000      -0.453011       -12.3271
  56   2.0000      -0.446233       -12.1426
  57   2.0000      -0.434453       -11.8221
  58   2.0000      -0.426963       -11.6182
  59   2.0000      -0.423232       -11.5167
  60   2.0000      -0.409965       -11.1557
  61   2.0000      -0.409086       -11.1318
  62   2.0000      -0.398901       -10.8547
  63   2.0000      -0.350421        -9.5354
  64   2.0000      -0.331859        -9.0304
  65   2.0000      -0.327824        -8.9206
  66   2.0000      -0.294374        -8.0103
  67   0.0000       0.029116         0.7923
  68   0.0000       0.067785         1.8445
  69   0.0000       0.117432         3.1955
  70   0.0000       0.124230         3.3805
  71   0.0000       0.130501         3.5511

MULLIKEN ATOMIC CHARGES
-----------------------
   0 S :    0.132402
   1 C :   -0.122716
   2 C :   -0.099722
   3 C :    0.059151
   4 C :   -0.167641
   5 H :   -0.003252
   6 C :    0.046207
   7 H :    0.018926
   8 H :    0.019371
   9 C :   -0.058172
  10 H :    0.007908
  11 H :    0.040621
  12 C :   -0.036804
  13 H :    0.045828
  14 H :    0.030314
  15 H :    0.036540
  16 S :    0.094200
  17 C :   -0.102835
  18 C :   -0.006471
  19 C :   -0.062914
  20 C :   -0.127930
  21 H :    0.007619
  22 C :    0.107209
  23 H :    0.002351
  24 H :    0.003906
  25 C :   -0.055313
  26 H :    0.025605
  27 H :    0.020119
  28 C :   -0.050216
  29 H :    0.018168
  30 H :    0.039205
  31 H :    0.026121
  32 H :    0.051582
  33 H :    0.060635
Sum of atomic charges:   -0.0000000

LOEWDIN ATOMIC CHARGES
----------------------
   0 S :    0.433014
   1 C :   -0.212037
   2 C :   -0.061279
   3 C :   -0.047597
   4 C :   -0.194541
   5 H :    0.024175
   6 C :   -0.029628
   7 H :    0.021750
   8 H :    0.028088
   9 C :   -0.047239
  10 H :    0.015488
  11 H :    0.030589
  12 C :   -0.062187
  13 H :    0.031853
  14 H :    0.027911
  15 H :    0.025933
  16 S :    0.383538
  17 C :   -0.170939
  18 C :   -0.069462
  19 C :   -0.049700
  20 C :   -0.194530
  21 H :    0.029942
  22 C :   -0.037186
  23 H :    0.027314
  24 H :    0.027533
  25 C :   -0.050192
  26 H :    0.024833
  27 H :    0.025028
  28 C :   -0.062619
  29 H :    0.015353
  30 H :    0.035645
  31 H :    0.021503
  32 H :    0.028975
  33 H :    0.030670

  Mayer bond orders larger than 0.100000
B(  0-S ,  1-C ) :   1.1645 B(  0-S ,  4-C ) :   1.1588 B(  1-C ,  2-C ) :   1.5599
B(  1-C ,  4-C ) :   0.1003 B(  1-C , 32-H ) :   0.9733 B(  2-C ,  3-C ) :   1.2963
B(  2-C ,  6-C ) :   1.0093 B(  3-C ,  4-C ) :   1.5336 B(  3-C ,  5-H ) :   0.9996
B(  4-C , 20-C ) :   1.0647 B(  6-C ,  7-H ) :   0.9429 B(  6-C ,  8-H ) :   0.9540
B(  6-C ,  9-C ) :   1.0430 B(  9-C , 10-H ) :   0.9501 B(  9-C , 11-H ) :   0.9610
B(  9-C , 12-C ) :   1.0858 B( 12-C , 13-H ) :   0.9763 B( 12-C , 14-H ) :   0.9710
B( 12-C , 15-H ) :   0.9750 B( 16-S , 17-C ) :   1.1574 B( 16-S , 20-C ) :   1.1139
B( 17-C , 18-C ) :   1.6217 B( 17-C , 33-H ) :   0.9624 B( 18-C , 19-C ) :   1.2200
B( 18-C , 21-H ) :   1.0044 B( 19-C , 20-C ) :   1.6039 B( 19-C , 22-C ) :   1.0454
B( 22-C , 23-H ) :   0.9330 B( 22-C , 24-H ) :   0.9136 B( 22-C , 25-C ) :   1.0667
B( 25-C , 26-H ) :   0.9464 B( 25-C , 27-H ) :   0.9573 B( 25-C , 28-C ) :   1.0936
B( 28-C , 29-H ) :   0.9737 B( 28-C , 30-H ) :   0.9733 B( 28-C , 31-H ) :   0.9756

Dispersion correction           -0.014056998
FINAL SINGLE POINT ENERGY     -1339.862148834986

DIPOLE MOMENT
-------------
                                X             Y             Z
Electronic contribution:     24.79557     -11.89359      -7.82239
Nuclear contribution   :    -25.13661      12.16328       8.23864
                        -----------------------------------------
Total Dipole Moment    :     -0.34104       0.26969       0.41625
                        -----------------------------------------
Magnitude (a.u.)       :      0.60192
Magnitude (Debye)      :      1.52995

Rotational constants in cm-1:     0.017771     0.008344     0.006801
Rotational constants in MHz :   532.747036   250.156371   203.887529

                             ****ORCA TERMINATED NORMALLY****
TOTAL RUN TIME: 0 days 0 hours 0 minutes 20 seconds 272 msec
