                         Program Version 4.2.1 -  RELEASE  -
|  1> ! wB97X-D3 SP def2-SVP
|  2> %pal
|  3> nprocs 24
|  4> end
|  5>
|  6> * xyz 0 1
|  7> S 	 -45.4769 	 9.93916 	 -24.2999
|  8> C 	 -46.8272 	 8.93673 	 -23.8348
|  9> C 	 -47.7787 	 9.65391 	 -23.2235
| 10> C 	 -47.4481 	 11.0375 	 -23.1066
| 11> C 	 -46.244 	 11.4099 	 -23.7245
| 12> H 	 -48.1829 	 11.789 	 -22.7041
| 13> C 	 -49.0908 	 9.13084 	 -22.7093
| 14> H 	 -49.861 	 9.5989 	 -23.2562
| 15> H 	 -49.21 	 9.62943 	 -21.7583
| 16> C 	 -49.4548 	 7.66512 	 -22.4303
| 17> H 	 -49.2293 	 7.04571 	 -23.3478
| 18> H 	 -48.8476 	 7.35303 	 -21.5691
| 19> C 	 -50.9128 	 7.35795 	 -22.1497
| 20> H 	 -50.9788 	 6.36145 	 -21.8806
| 21> H 	 -51.1065 	 7.83783 	 -21.2158
| 22> H 	 -51.6325 	 7.66862 	 -22.9782
| 23> S 	 -45.7559 	 13.298 	 -25.7
| 24> C 	 -45.1407 	 14.8338 	 -25.3286
| 25> C 	 -44.9149 	 14.9179 	 -23.9851
| 26> C 	 -45.2077 	 13.7144 	 -23.1893
| 27> C 	 -45.7461 	 12.721 	 -24.0062
| 28> H 	 -44.4784 	 15.8422 	 -23.6489
| 29> C 	 -44.9543 	 13.5841 	 -21.7019
| 30> H 	 -44.3366 	 14.4295 	 -21.2991
| 31> H 	 -44.2244 	 12.666 	 -21.6772
| 32> C 	 -46.1425 	 13.2257 	 -20.6887
| 33> H 	 -46.4878 	 12.1622 	 -20.7512
| 34> H 	 -46.9602 	 13.7428 	 -21.1619
| 35> C 	 -45.884 	 13.6914 	 -19.2315
| 36> H 	 -45.1594 	 13.0502 	 -18.7015
| 37> H 	 -46.8276 	 13.7128 	 -18.6647
| 38> H 	 -45.5793 	 14.7632 	 -19.0799
| 39> H 	 -46.9216 	 7.84368 	 -23.9033
| 40> H 	 -45.0101 	 15.6558 	 -25.994
| 41> *
| 42>
| 43>                          ****END OF INPUT****

CARTESIAN COORDINATES (ANGSTROEM)
---------------------------------
  S    -45.476900    9.939160  -24.299900
  C    -46.827200    8.936730  -23.834800
  C    -47.778700    9.653910  -23.223500
  C    -47.448100   11.037500  -23.106600
  C    -46.244000   11.409900  -23.724500
  H    -48.182900   11.789000  -22.704100
  C    -49.090800    9.130840  -22.709300
  H    -49.861000    9.598900  -23.256200
  H    -49.210000    9.629430  -21.758300
  C    -49.454800    7.665120  -22.430300
  H    -49.229300    7.045710  -23.347800
  H    -48.847600    7.353030  -21.569100
  C    -50.912800    7.357950  -22.149700
  H    -50.978800    6.361450  -21.880600
  H    -51.106500    7.837830  -21.215800
  H    -51.632500    7.668620  -22.978200
  S    -45.755900   13.298000  -25.700000
  C    -45.140700   14.833800  -25.328600
  C    -44.914900   14.917900  -23.985100
  C    -45.207700   13.714400  -23.189300
  C    -45.746100   12.721000  -24.006200
  H    -44.478400   15.842200  -23.648900
  C    -44.954300   13.584100  -21.701900
  H    -44.336600   14.429500  -21.299100
  H    -44.224400   12.666000  -21.677200
  C    -46.142500   13.225700  -20.688700
  H    -46.487800   12.162200  -20.751200
  H    -46.960200   13.742800  -21.161900
  C    -45.884000   13.691400  -19.231500
  H    -45.159400   13.050200  -18.701500
  H    -46.827600   13.712800  -18.664700
  H    -45.579300   14.763200  -19.079900
  H    -46.921600    7.843680  -23.903300
  H    -45.010100   15.655800  -25.994000

 Total Charge           Charge          ....    0
 Multiplicity           Mult            ....    1
 Number of Electrons    NEL             ....  134
 Basis Dimension        Dim             ....  322

ORBITAL ENERGIES
----------------

  NO   OCC          E(Eh)            E(eV)
   0   2.0000     -88.964215     -2420.8394
   1   2.0000     -88.960580     -2420.7405
   2   2.0000     -10.331944      -281.1465
   3   2.0000     -10.327160      -281.0163
   4   2.0000     -10.312277      -280.6113
   5   2.0000     -10.311928      -280.6018
   6   2.0000     -10.309614      -280.5389
   7   2.0000     -10.304830      -280.4087
   8   2.0000     -10.300424      -280.2888
   9   2.0000     -10.296239      -280.1749
  10   2.0000     -10.294403      -280.1250
  11   2.0000     -10.293771      -280.1078
  12   2.0000     -10.292023      -280.0602
  13   2.0000     -10.286907      -279.9210
  14   2.0000     -10.286037      -279.8973
  15   2.0000     -10.279267      -279.7131
  16   2.0000      -8.078947      -219.8393
  17   2.0000      -8.075938      -219.7574
  18   2.0000      -6.037546      -164.2900
  19   2.0000      -6.034490      -164.2068
  20   2.0000      -6.033394      -164.1770
  21   2.0000      -6.030215      -164.0905
  22   2.0000      -6.029641      -164.0749
  23   2.0000      -6.026732      -163.9957
  24   2.0000      -1.006893       -27.3990
  25   2.0000      -0.986293       -26.8384
  26   2.0000      -0.916211       -24.9314
  27   2.0000      -0.897022       -24.4092
  28   2.0000      -0.875581       -23.8258
  29   2.0000      -0.852449       -23.1963
  30   2.0000      -0.843908       -22.9639
  31   2.0000      -0.813651       -22.1406
  32   2.0000      -0.786489       -21.4014
  33   2.0000      -0.771207       -20.9856
  34   2.0000      -0.715147       -19.4601
  35   2.0000      -0.702003       -19.1025
  36   2.0000      -0.693230       -18.8637
  37   2.0000      -0.656942       -17.8763
  38   2.0000      -0.633605       -17.2413
  39   2.0000      -0.611061       -16.6278
  40   2.0000      -0.588743       -16.0205
  41   2.0000      -0.577846       -15.7240
  42   2.0000      -0.574449       -15.6316
  43   2.0000      -0.550984       -14.9930
  44   2.0000      -0.527526       -14.3547
  45   2.0000      -0.524016       -14.2592
  46   2.0000      -0.518559       -14.1107
  47   2.0000      -0.510927       -13.9030
  48   2.0000      -0.508778       -13.8445
  49   2.0000      -0.502843       -13.6831
  50   2.0000      -0.493848       -13.4383
  51   2.0000      -0.478415       -13.0183
  52   2.0000      -0.472500       -12.8574
  53   2.0000      -0.462230       -12.5779
  54   2.0000      -0.460500       -12.5308
  55   2.0000      -0.450226       -12.2513
  56   2.0000      -0.449195       -12.2232
  57   2.0000      -0.434623       -11.8267
  58   2.0000      -0.427712       -11.6386
  59   2.0000      -0.425937       -11.5903
  60   2.0000      -0.418040       -11.3755
  61   2.0000      -0.410074       -11.1587
  62   2.0000      -0.408250       -11.1090
  63   2.0000      -0.338697        -9.2164
  64   2.0000      -0.328231        -8.9316
  65   2.0000      -0.321884        -8.7589
  66   2.0000      -0.303443        -8.2571
  67   0.0000       0.036688         0.9983
  68   0.0000       0.060077         1.6348
  69   0.0000       0.125090         3.4039
  70   0.0000       0.127487         3.4691
  71   0.0000       0.133326         3.6280

MULLIKEN ATOMIC CHARGES
-----------------------
   0 S :    0.115769
   1 C :   -0.133468
   2 C :   -0.075865
   3 C :    0.023309
   4 C :   -0.176950
   5 H :    0.032721
   6 C :    0.080340
   7 H :    0.016741
   8 H :    0.010820
   9 C :   -0.115690
  10 H :    0.034574
  11 H :    0.039174
  12 C :   -0.008824
  13 H :    0.018277
  14 H :    0.012347
  15 H :    0.056488
  16 S :    0.110380
  17 C :   -0.070763
  18 C :   -0.052920
  19 C :    0.001638
  20 C :   -0.178132
  21 H :    0.009284
  22 C :    0.009422
  23 H :    0.032868
  24 H :    0.053979
  25 C :   -0.071870
  26 H :    0.054106
  27 H :    0.025297
  28 C :   -0.072224
  29 H :    0.046784
  30 H :    0.033951
  31 H :    0.035420
  32 H :    0.051162
  33 H :    0.051857
Sum of atomic charges:    0.0000000

LOEWDIN ATOMIC CHARGES
----------------------
   0 S :    0.407190
   1 C :   -0.201515
   2 C :   -0.072405
   3 C :   -0.058074
   4 C :   -0.199649
   5 H :    0.038855
   6 C :   -0.039678
   7 H :    0.027428
   8 H :    0.031911
   9 C :   -0.044557
  10 H :    0.023952
  11 H :    0.028289
  12 C :   -0.058591
  13 H :    0.020711
  14 H :    0.021296
  15 H :    0.038062
  16 S :    0.412049
  17 C :   -0.195433
  18 C :   -0.079240
  19 C :   -0.049799
  20 C :   -0.199904
  21 H :    0.026190
  22 C :   -0.046335
  23 H :    0.034418
  24 H :    0.048247
  25 C :   -0.045654
  26 H :    0.032795
  27 H :    0.018870
  28 C :   -0.076192
  29 H :    0.028633
  30 H :    0.030227
  31 H :    0.030450
  32 H :    0.036192
  33 H :    0.031257

  Mayer bond orders larger than 0.100000
B(  0-S ,  1-C ) :   1.1228 B(  0-S ,  4-C ) :   1.1530 B(  1-C ,  2-C ) :   1.6480
B(  1-C , 32-H ) :   0.9572 B(  2-C ,  3-C ) :   1.2533 B(  2-C ,  6-C ) :   1.0024
B(  3-C ,  4-C ) :   1.5616 B(  3-C ,  5-H ) :   0.9825 B(  4-C , 20-C ) :   1.0610
B(  6-C ,  7-H ) :   0.9315 B(  6-C ,  8-H ) :   0.9321 B(  6-C ,  9-C ) :   1.0643
B(  9-C , 10-H ) :   0.9505 B(  9-C , 11-H ) :   0.9562 B(  9-C , 12-C ) :   1.0954
B( 12-C , 13-H ) :   0.9665 B( 12-C , 14-H ) :   0.9703 B( 12-C , 15-H ) :   0.9724
B( 16-S , 17-C ) :   1.1606 B( 16-S , 20-C ) :   1.1338 B( 17-C , 18-C ) :   1.6226
B( 17-C , 33-H ) :   0.9682 B( 18-C , 19-C ) :   1.2166 B( 18-C , 21-H ) :   0.9914
B( 19-C , 20-C ) :   1.5878 B( 19-C , 22-C ) :   1.0521 B( 22-C , 23-H ) :   0.9464
B( 22-C , 24-H ) :   0.9281 B( 22-C , 25-C ) :   1.0334 B( 25-C , 26-H ) :   0.9476
B( 25-C , 27-H ) :   0.9623 B( 25-C , 28-C ) :   1.0783 B( 28-C , 29-H ) :   0.9776
B( 28-C , 30-H ) :   0.9732 B( 28-C , 31-H ) :   0.9739

Dispersion correction           -0.013918256
FINAL SINGLE POINT ENERGY     -1339.865361538037

DIPOLE MOMENT
-------------
                                X             Y             Z
Electronic contribution:     15.26663       6.37516     -23.75148
Nuclear contribution   :    -15.72471      -6.31837      24.32655
                        -----------------------------------------
Total Dipole Moment    :     -0.45808       0.05679       0.57507
                        -----------------------------------------
Magnitude (a.u.)       :      0.73741
Magnitude (Debye)      :      1.87434

Rotational constants in cm-1:     0.018830     0.007751     0.006199
Rotational constants in MHz :   564.505997   232.369665   185.850369

                             ****ORCA TERMINATED NORMALLY****
TOTAL RUN TIME: 0 days 0 hours 0 minutes 21 seconds 46 msec
