                         Program Version 4.2.1 -  RELEASE  -
|  1> ! wB97X-D3 SP def2-SVP
|  2> %pal
|  3> nprocs 24
|  4> end
|  5>
|  6> * xyz 0 1
|  7> S 	 -116.655 	 61.0688 	 -40.2734
|  8> C 	 -117.501 	 60.5261 	 -41.6397
|  9> C 	 -118.493 	 59.631 	 -41.2635
| 10> C 	 -118.32 	 59.206 	 -39.9189
| 11> C 	 -117.468 	 60.0083 	 -39.1953
| 12> H 	 -118.82 	 58.4265 	 -39.3957
| 13> C 	 -119.461 	 58.9288 	 -42.17
| 14> H 	 -119.231 	 57.8728 	 -42.078
| 15> H 	 -119.137 	 59.1486 	 -43.1588
| 16> C 	 -120.97 	 58.9823 	 -41.9161
| 17> H 	 -121.507 	 58.2949 	 -42.6528
| 18> H 	 -121.288 	 58.6082 	 -40.9132
| 19> C 	 -121.469 	 60.4203 	 -42.0468
| 20> H 	 -121.425 	 60.8431 	 -42.9802
| 21> H 	 -122.519 	 60.4863 	 -41.9483
| 22> H 	 -120.935 	 61.0409 	 -41.2855
| 23> S 	 -118.365 	 61.0589 	 -36.7735
| 24> C 	 -117.594 	 60.4274 	 -35.3424
| 25> C 	 -116.845 	 59.2734 	 -35.6108
| 26> C 	 -116.786 	 58.9706 	 -36.9653
| 27> C 	 -117.272 	 60.0097 	 -37.7596
| 28> H 	 -116.678 	 58.5185 	 -34.8642
| 29> C 	 -116.018 	 57.8018 	 -37.4675
| 30> H 	 -115.224 	 57.6337 	 -36.8192
| 31> H 	 -115.583 	 57.9672 	 -38.3702
| 32> C 	 -116.834 	 56.5242 	 -37.742
| 33> H 	 -117.532 	 56.8574 	 -38.4747
| 34> H 	 -117.261 	 56.2007 	 -36.8677
| 35> C 	 -115.94 	 55.4047 	 -38.3137
| 36> H 	 -115.056 	 55.1713 	 -37.6525
| 37> H 	 -115.723 	 55.4889 	 -39.3443
| 38> H 	 -116.61 	 54.4983 	 -38.2871
| 39> H 	 -117.559 	 60.9038 	 -42.6242
| 40> H 	 -117.911 	 60.6361 	 -34.3511
| 41> *
| 42>
| 43>                          ****END OF INPUT****

CARTESIAN COORDINATES (ANGSTROEM)
---------------------------------
  S    -116.655000   61.068800  -40.273400
  C    -117.501000   60.526100  -41.639700
  C    -118.493000   59.631000  -41.263500
  C    -118.320000   59.206000  -39.918900
  C    -117.468000   60.008300  -39.195300
  H    -118.820000   58.426500  -39.395700
  C    -119.461000   58.928800  -42.170000
  H    -119.231000   57.872800  -42.078000
  H    -119.137000   59.148600  -43.158800
  C    -120.970000   58.982300  -41.916100
  H    -121.507000   58.294900  -42.652800
  H    -121.288000   58.608200  -40.913200
  C    -121.469000   60.420300  -42.046800
  H    -121.425000   60.843100  -42.980200
  H    -122.519000   60.486300  -41.948300
  H    -120.935000   61.040900  -41.285500
  S    -118.365000   61.058900  -36.773500
  C    -117.594000   60.427400  -35.342400
  C    -116.845000   59.273400  -35.610800
  C    -116.786000   58.970600  -36.965300
  C    -117.272000   60.009700  -37.759600
  H    -116.678000   58.518500  -34.864200
  C    -116.018000   57.801800  -37.467500
  H    -115.224000   57.633700  -36.819200
  H    -115.583000   57.967200  -38.370200
  C    -116.834000   56.524200  -37.742000
  H    -117.532000   56.857400  -38.474700
  H    -117.261000   56.200700  -36.867700
  C    -115.940000   55.404700  -38.313700
  H    -115.056000   55.171300  -37.652500
  H    -115.723000   55.488900  -39.344300
  H    -116.610000   54.498300  -38.287100
  H    -117.559000   60.903800  -42.624200
  H    -117.911000   60.636100  -34.351100

 Total Charge           Charge          ....    0
 Multiplicity           Mult            ....    1
 Number of Electrons    NEL             ....  134
 Basis Dimension        Dim             ....  322

ORBITAL ENERGIES
----------------

  NO   OCC          E(Eh)            E(eV)
   0   2.0000     -88.968124     -2420.9457
   1   2.0000     -88.964925     -2420.8587
   2   2.0000     -10.324752      -280.9508
   3   2.0000     -10.321215      -280.8545
   4   2.0000     -10.318321      -280.7758
   5   2.0000     -10.306898      -280.4649
   6   2.0000     -10.298173      -280.2275
   7   2.0000     -10.297002      -280.1957
   8   2.0000     -10.295986      -280.1680
   9   2.0000     -10.288738      -279.9708
  10   2.0000     -10.287273      -279.9309
  11   2.0000     -10.286338      -279.9055
  12   2.0000     -10.282898      -279.8119
  13   2.0000     -10.278593      -279.6947
  14   2.0000     -10.270616      -279.4777
  15   2.0000     -10.264843      -279.3206
  16   2.0000      -8.082052      -219.9238
  17   2.0000      -8.080900      -219.8925
  18   2.0000      -6.040405      -164.3678
  19   2.0000      -6.039296      -164.3376
  20   2.0000      -6.037043      -164.2763
  21   2.0000      -6.034993      -164.2205
  22   2.0000      -6.032629      -164.1562
  23   2.0000      -6.031930      -164.1372
  24   2.0000      -1.012515       -27.5519
  25   2.0000      -0.988452       -26.8972
  26   2.0000      -0.915878       -24.9223
  27   2.0000      -0.913383       -24.8544
  28   2.0000      -0.870694       -23.6928
  29   2.0000      -0.854876       -23.2624
  30   2.0000      -0.850221       -23.1357
  31   2.0000      -0.813043       -22.1240
  32   2.0000      -0.787604       -21.4318
  33   2.0000      -0.775470       -21.1016
  34   2.0000      -0.711435       -19.3591
  35   2.0000      -0.703481       -19.1427
  36   2.0000      -0.695027       -18.9126
  37   2.0000      -0.662916       -18.0389
  38   2.0000      -0.645416       -17.5627
  39   2.0000      -0.618859       -16.8400
  40   2.0000      -0.603507       -16.4223
  41   2.0000      -0.580861       -15.8060
  42   2.0000      -0.571372       -15.5478
  43   2.0000      -0.555800       -15.1241
  44   2.0000      -0.536219       -14.5912
  45   2.0000      -0.524009       -14.2590
  46   2.0000      -0.515732       -14.0338
  47   2.0000      -0.513073       -13.9614
  48   2.0000      -0.505563       -13.7571
  49   2.0000      -0.498996       -13.5784
  50   2.0000      -0.487575       -13.2676
  51   2.0000      -0.483131       -13.1467
  52   2.0000      -0.474747       -12.9185
  53   2.0000      -0.465456       -12.6657
  54   2.0000      -0.463243       -12.6055
  55   2.0000      -0.450538       -12.2598
  56   2.0000      -0.442868       -12.0511
  57   2.0000      -0.437422       -11.9028
  58   2.0000      -0.433231       -11.7888
  59   2.0000      -0.427762       -11.6400
  60   2.0000      -0.424500       -11.5512
  61   2.0000      -0.417077       -11.3493
  62   2.0000      -0.414428       -11.2772
  63   2.0000      -0.336023        -9.1436
  64   2.0000      -0.327873        -8.9219
  65   2.0000      -0.319853        -8.7036
  66   2.0000      -0.305054        -8.3009
  67   0.0000       0.032094         0.8733
  68   0.0000       0.053788         1.4636
  69   0.0000       0.098609         2.6833
  70   0.0000       0.113662         3.0929
  71   0.0000       0.136829         3.7233

MULLIKEN ATOMIC CHARGES
-----------------------
   0 S :    0.135545
   1 C :   -0.078107
   2 C :   -0.133644
   3 C :    0.036730
   4 C :   -0.190910
   5 H :    0.008775
   6 C :    0.095330
   7 H :    0.024072
   8 H :   -0.000642
   9 C :   -0.085245
  10 H :    0.036837
  11 H :    0.036186
  12 C :   -0.020588
  13 H :    0.002472
  14 H :    0.011668
  15 H :    0.052582
  16 S :    0.108745
  17 C :   -0.061016
  18 C :   -0.029688
  19 C :   -0.029229
  20 C :   -0.158433
  21 H :    0.020868
  22 C :    0.119132
  23 H :   -0.001745
  24 H :   -0.011039
  25 C :   -0.039313
  26 H :    0.014077
  27 H :    0.007533
  28 C :   -0.059279
  29 H :    0.045435
  30 H :    0.033412
  31 H :    0.031285
  32 H :    0.032180
  33 H :    0.046016
Sum of atomic charges:    0.0000000

LOEWDIN ATOMIC CHARGES
----------------------
   0 S :    0.450060
   1 C :   -0.215636
   2 C :   -0.065772
   3 C :   -0.059352
   4 C :   -0.216921
   5 H :    0.022661
   6 C :   -0.035559
   7 H :    0.035548
   8 H :    0.023938
   9 C :   -0.040783
  10 H :    0.031721
  11 H :    0.027911
  12 C :   -0.067512
  13 H :    0.012785
  14 H :    0.021089
  15 H :    0.035737
  16 S :    0.396514
  17 C :   -0.171855
  18 C :   -0.075366
  19 C :   -0.041874
  20 C :   -0.192205
  21 H :    0.030981
  22 C :   -0.021427
  23 H :    0.020191
  24 H :    0.019313
  25 C :   -0.019685
  26 H :    0.021371
  27 H :    0.008905
  28 C :   -0.065796
  29 H :    0.032484
  30 H :    0.019986
  31 H :    0.033040
  32 H :    0.024601
  33 H :    0.020908

  Mayer bond orders larger than 0.100000
B(  0-S ,  1-C ) :   1.1599 B(  0-S ,  4-C ) :   1.1637 B(  1-C ,  2-C ) :   1.5870
B(  1-C , 32-H ) :   0.9646 B(  2-C ,  3-C ) :   1.2456 B(  2-C ,  6-C ) :   1.0304
B(  3-C ,  4-C ) :   1.5706 B(  3-C ,  5-H ) :   0.9916 B(  4-C , 20-C ) :   1.0248
B(  6-C ,  7-H ) :   0.9334 B(  6-C ,  8-H ) :   0.9399 B(  6-C ,  9-C ) :   1.0679
B(  9-C , 10-H ) :   0.9530 B(  9-C , 11-H ) :   0.9551 B(  9-C , 12-C ) :   1.0783
B( 12-C , 13-H ) :   0.9715 B( 12-C , 14-H ) :   0.9687 B( 12-C , 15-H ) :   0.9740
B( 16-S , 17-C ) :   1.1767 B( 16-S , 20-C ) :   1.1369 B( 17-C , 18-C ) :   1.5780
B( 17-C , 20-C ) :   0.1122 B( 17-C , 33-H ) :   0.9663 B( 18-C , 19-C ) :   1.2920
B( 18-C , 21-H ) :   0.9782 B( 19-C , 20-C ) :   1.5588 B( 19-C , 22-C ) :   1.0580
B( 22-C , 23-H ) :   0.9374 B( 22-C , 24-H ) :   0.9237 B( 22-C , 25-C ) :   1.0545
B( 25-C , 26-H ) :   0.9489 B( 25-C , 27-H ) :   0.9584 B( 25-C , 28-C ) :   1.0952
B( 28-C , 29-H ) :   0.9734 B( 28-C , 30-H ) :   0.9736 B( 28-C , 31-H ) :   0.9737

Dispersion correction           -0.014816874
FINAL SINGLE POINT ENERGY     -1339.840201488620

DIPOLE MOMENT
-------------
                                X             Y             Z
Electronic contribution:      7.83269      20.05547       9.66397
Nuclear contribution   :     -8.19220     -20.77173      -9.75339
                        -----------------------------------------
Total Dipole Moment    :     -0.35951      -0.71626      -0.08942
                        -----------------------------------------
Magnitude (a.u.)       :      0.80640
Magnitude (Debye)      :      2.04970

Rotational constants in cm-1:     0.017144     0.009143     0.007683
Rotational constants in MHz :   513.973295   274.106469   230.330321

                             ****ORCA TERMINATED NORMALLY****
TOTAL RUN TIME: 0 days 0 hours 0 minutes 22 seconds 17 msec
