                         Program Version 4.2.1 -  RELEASE  -
|  1> ! wB97X-D3 SP def2-SVP
|  2> %pal
|  3> nprocs 24
|  4> end
|  5>
|  6> * xyz 0 1
|  7> S 	 -118.848 	 59.1667 	 -38.5804
|  8> C 	 -118.322 	 57.631 	 -38.0234
|  9> C 	 -117.077 	 57.7464 	 -37.4447
| 10> C 	 -116.542 	 59.0815 	 -37.5256
| 11> C 	 -117.316 	 59.901 	 -38.3782
| 12> H 	 -115.582 	 59.4198 	 -37.0713
| 13> C 	 -116.299 	 56.6143 	 -36.7608
| 14> H 	 -115.233 	 57.0034 	 -36.7916
| 15> H 	 -116.378 	 55.7223 	 -37.4111
| 16> C 	 -116.623 	 56.2886 	 -35.3656
| 17> H 	 -116.478 	 57.1503 	 -34.7442
| 18> H 	 -117.687 	 56.0459 	 -35.2323
| 19> C 	 -115.83 	 55.1819 	 -34.6818
| 20> H 	 -116.471 	 54.8965 	 -33.8067
| 21> H 	 -115.85 	 54.357 	 -35.3422
| 22> H 	 -114.853 	 55.4002 	 -34.2074
| 23> S 	 -115.647 	 61.9507 	 -39.2719
| 24> C 	 -116.107 	 63.5846 	 -38.8845
| 25> C 	 -117.359 	 63.7618 	 -38.4136
| 26> C 	 -117.94 	 62.4521 	 -38.1115
| 27> C 	 -117.116 	 61.3582 	 -38.5863
| 28> H 	 -117.751 	 64.7397 	 -38.2048
| 29> C 	 -119.286 	 62.4207 	 -37.4137
| 30> H 	 -119.78 	 61.4827 	 -37.4244
| 31> H 	 -119.913 	 63.0585 	 -37.958
| 32> C 	 -119.223 	 62.8603 	 -35.9497
| 33> H 	 -118.495 	 63.6232 	 -35.6984
| 34> H 	 -118.902 	 62.0182 	 -35.3429
| 35> C 	 -120.409 	 63.5144 	 -35.3054
| 36> H 	 -120.265 	 63.8888 	 -34.2055
| 37> H 	 -121.267 	 62.7941 	 -35.2626
| 38> H 	 -120.653 	 64.2944 	 -36.0031
| 39> H 	 -118.746 	 56.666 	 -38.0857
| 40> H 	 -115.39 	 64.4151 	 -39.0472
| 41> *
| 42>
| 43>                          ****END OF INPUT****

CARTESIAN COORDINATES (ANGSTROEM)
---------------------------------
  S    -118.848000   59.166700  -38.580400
  C    -118.322000   57.631000  -38.023400
  C    -117.077000   57.746400  -37.444700
  C    -116.542000   59.081500  -37.525600
  C    -117.316000   59.901000  -38.378200
  H    -115.582000   59.419800  -37.071300
  C    -116.299000   56.614300  -36.760800
  H    -115.233000   57.003400  -36.791600
  H    -116.378000   55.722300  -37.411100
  C    -116.623000   56.288600  -35.365600
  H    -116.478000   57.150300  -34.744200
  H    -117.687000   56.045900  -35.232300
  C    -115.830000   55.181900  -34.681800
  H    -116.471000   54.896500  -33.806700
  H    -115.850000   54.357000  -35.342200
  H    -114.853000   55.400200  -34.207400
  S    -115.647000   61.950700  -39.271900
  C    -116.107000   63.584600  -38.884500
  C    -117.359000   63.761800  -38.413600
  C    -117.940000   62.452100  -38.111500
  C    -117.116000   61.358200  -38.586300
  H    -117.751000   64.739700  -38.204800
  C    -119.286000   62.420700  -37.413700
  H    -119.780000   61.482700  -37.424400
  H    -119.913000   63.058500  -37.958000
  C    -119.223000   62.860300  -35.949700
  H    -118.495000   63.623200  -35.698400
  H    -118.902000   62.018200  -35.342900
  C    -120.409000   63.514400  -35.305400
  H    -120.265000   63.888800  -34.205500
  H    -121.267000   62.794100  -35.262600
  H    -120.653000   64.294400  -36.003100
  H    -118.746000   56.666000  -38.085700
  H    -115.390000   64.415100  -39.047200

 Total Charge           Charge          ....    0
 Multiplicity           Mult            ....    1
 Number of Electrons    NEL             ....  134
 Basis Dimension        Dim             ....  322

ORBITAL ENERGIES
----------------

  NO   OCC          E(Eh)            E(eV)
   0   2.0000     -88.968391     -2420.9530
   1   2.0000     -88.967940     -2420.9407
   2   2.0000     -10.332238      -281.1545
   3   2.0000     -10.331116      -281.1239
   4   2.0000     -10.316043      -280.7138
   5   2.0000     -10.312545      -280.6186
   6   2.0000     -10.308711      -280.5143
   7   2.0000     -10.300133      -280.2809
   8   2.0000     -10.299756      -280.2706
   9   2.0000     -10.294780      -280.1352
  10   2.0000     -10.294194      -280.1193
  11   2.0000     -10.284348      -279.8513
  12   2.0000     -10.283098      -279.8173
  13   2.0000     -10.279750      -279.7262
  14   2.0000     -10.278971      -279.7050
  15   2.0000     -10.276005      -279.6243
  16   2.0000      -8.083655      -219.9674
  17   2.0000      -8.083157      -219.9539
  18   2.0000      -6.042175      -164.4159
  19   2.0000      -6.041609      -164.4005
  20   2.0000      -6.038014      -164.3027
  21   2.0000      -6.037662      -164.2931
  22   2.0000      -6.034439      -164.2054
  23   2.0000      -6.033908      -164.1910
  24   2.0000      -1.008811       -27.4512
  25   2.0000      -0.987587       -26.8736
  26   2.0000      -0.917552       -24.9679
  27   2.0000      -0.912373       -24.8269
  28   2.0000      -0.871009       -23.7014
  29   2.0000      -0.854521       -23.2527
  30   2.0000      -0.845664       -23.0117
  31   2.0000      -0.816474       -22.2174
  32   2.0000      -0.785077       -21.3630
  33   2.0000      -0.769873       -20.9493
  34   2.0000      -0.700599       -19.0643
  35   2.0000      -0.695896       -18.9363
  36   2.0000      -0.687532       -18.7087
  37   2.0000      -0.659002       -17.9323
  38   2.0000      -0.635867       -17.3028
  39   2.0000      -0.620460       -16.8836
  40   2.0000      -0.600632       -16.3440
  41   2.0000      -0.572956       -15.5909
  42   2.0000      -0.568995       -15.4832
  43   2.0000      -0.563952       -15.3459
  44   2.0000      -0.527714       -14.3598
  45   2.0000      -0.524457       -14.2712
  46   2.0000      -0.519060       -14.1243
  47   2.0000      -0.517343       -14.0776
  48   2.0000      -0.507737       -13.8162
  49   2.0000      -0.498713       -13.5707
  50   2.0000      -0.492672       -13.4063
  51   2.0000      -0.478157       -13.0113
  52   2.0000      -0.466698       -12.6995
  53   2.0000      -0.464631       -12.6433
  54   2.0000      -0.462174       -12.5764
  55   2.0000      -0.455804       -12.4031
  56   2.0000      -0.450598       -12.2614
  57   2.0000      -0.435259       -11.8440
  58   2.0000      -0.428504       -11.6602
  59   2.0000      -0.421127       -11.4594
  60   2.0000      -0.414658       -11.2834
  61   2.0000      -0.411239       -11.1904
  62   2.0000      -0.404288       -11.0012
  63   2.0000      -0.346156        -9.4194
  64   2.0000      -0.332312        -9.0427
  65   2.0000      -0.326450        -8.8832
  66   2.0000      -0.290715        -7.9107
  67   0.0000       0.031051         0.8449
  68   0.0000       0.070547         1.9197
  69   0.0000       0.110707         3.0125
  70   0.0000       0.116829         3.1791
  71   0.0000       0.130981         3.5642

MULLIKEN ATOMIC CHARGES
-----------------------
   0 S :    0.119123
   1 C :   -0.077068
   2 C :   -0.115563
   3 C :    0.009315
   4 C :   -0.138965
   5 H :    0.034971
   6 C :    0.052756
   7 H :    0.028205
   8 H :    0.028187
   9 C :   -0.060412
  10 H :    0.013773
  11 H :    0.021206
  12 C :   -0.036805
  13 H :    0.029287
  14 H :    0.017635
  15 H :    0.046823
  16 S :    0.116656
  17 C :   -0.113007
  18 C :   -0.001219
  19 C :   -0.074596
  20 C :   -0.155633
  21 H :    0.021489
  22 C :    0.141405
  23 H :    0.009442
  24 H :    0.007129
  25 C :   -0.087091
  26 H :    0.021109
  27 H :    0.025138
  28 C :   -0.086070
  29 H :    0.057719
  30 H :    0.028369
  31 H :    0.025735
  32 H :    0.025225
  33 H :    0.065732
Sum of atomic charges:    0.0000000

LOEWDIN ATOMIC CHARGES
----------------------
   0 S :    0.453297
   1 C :   -0.207666
   2 C :   -0.064663
   3 C :   -0.063967
   4 C :   -0.211527
   5 H :    0.036766
   6 C :   -0.038519
   7 H :    0.037437
   8 H :    0.030674
   9 C :   -0.050931
  10 H :    0.022808
  11 H :    0.025131
  12 C :   -0.064260
  13 H :    0.034971
  14 H :    0.016240
  15 H :    0.029156
  16 S :    0.420115
  17 C :   -0.187353
  18 C :   -0.066321
  19 C :   -0.042210
  20 C :   -0.218795
  21 H :    0.034198
  22 C :   -0.028355
  23 H :    0.017298
  24 H :    0.024440
  25 C :   -0.050356
  26 H :    0.022975
  27 H :    0.023153
  28 C :   -0.072235
  29 H :    0.041234
  30 H :    0.020487
  31 H :    0.019069
  32 H :    0.025348
  33 H :    0.032361

  Mayer bond orders larger than 0.100000
B(  0-S ,  1-C ) :   1.1492 B(  0-S ,  4-C ) :   1.1812 B(  1-C ,  2-C ) :   1.5888
B(  1-C , 32-H ) :   0.9740 B(  2-C ,  3-C ) :   1.2803 B(  2-C ,  6-C ) :   1.0158
B(  3-C ,  4-C ) :   1.5302 B(  3-C ,  5-H ) :   0.9816 B(  4-C , 20-C ) :   1.0168
B(  6-C ,  7-H ) :   0.9390 B(  6-C ,  8-H ) :   0.9355 B(  6-C ,  9-C ) :   1.0883
B(  9-C , 10-H ) :   0.9455 B(  9-C , 11-H ) :   0.9529 B(  9-C , 12-C ) :   1.0829
B( 12-C , 13-H ) :   0.9726 B( 12-C , 14-H ) :   0.9733 B( 12-C , 15-H ) :   0.9764
B( 16-S , 17-C ) :   1.1591 B( 16-S , 20-C ) :   1.1454 B( 17-C , 18-C ) :   1.6318
B( 17-C , 33-H ) :   0.9585 B( 18-C , 19-C ) :   1.2220 B( 18-C , 21-H ) :   0.9910
B( 19-C , 20-C ) :   1.5822 B( 19-C , 22-C ) :   1.0515 B( 22-C , 23-H ) :   0.9265
B( 22-C , 24-H ) :   0.9339 B( 22-C , 25-C ) :   1.0421 B( 25-C , 26-H ) :   0.9655
B( 25-C , 27-H ) :   0.9516 B( 25-C , 28-C ) :   1.0705 B( 28-C , 29-H ) :   0.9724
B( 28-C , 30-H ) :   0.9745 B( 28-C , 31-H ) :   0.9759

Dispersion correction           -0.013628706
FINAL SINGLE POINT ENERGY     -1339.855424675279

DIPOLE MOMENT
-------------
                                X             Y             Z
Electronic contribution:      4.83952       7.00928     -22.49897
Nuclear contribution   :     -4.82607      -7.00667      23.03381
                        -----------------------------------------
Total Dipole Moment    :      0.01345       0.00260       0.53484
                        -----------------------------------------
Magnitude (a.u.)       :      0.53502
Magnitude (Debye)      :      1.35990

Rotational constants in cm-1:     0.018727     0.007477     0.006442
Rotational constants in MHz :   561.415808   224.157654   193.133201

                             ****ORCA TERMINATED NORMALLY****
TOTAL RUN TIME: 0 days 0 hours 0 minutes 20 seconds 939 msec
