                         Program Version 4.2.1 -  RELEASE  -
|  1> ! wB97X-D3 SP def2-SVP
|  2> %pal
|  3> nprocs 24
|  4> end
|  5>
|  6> * xyz 0 1
|  7> S 	 -48.9101 	 11.6479 	 22.2681
|  8> C 	 -49.217 	 9.97255 	 21.7633
|  9> C 	 -49.9826 	 9.2801 	 22.7376
| 10> C 	 -50.3499 	 10.0554 	 23.8317
| 11> C 	 -49.8711 	 11.3942 	 23.8142
| 12> H 	 -50.9836 	 9.70231 	 24.6147
| 13> C 	 -50.6234 	 7.88516 	 22.5487
| 14> H 	 -50.6723 	 7.37928 	 23.5229
| 15> H 	 -49.8427 	 7.31588 	 21.9937
| 16> C 	 -51.817 	 7.82429 	 21.5855
| 17> H 	 -52.6434 	 8.42585 	 21.947
| 18> H 	 -51.4682 	 8.09807 	 20.5869
| 19> C 	 -52.318 	 6.38273 	 21.6347
| 20> H 	 -53.4045 	 6.26743 	 21.2749
| 21> H 	 -51.7431 	 5.59731 	 21.1344
| 22> H 	 -52.3414 	 5.96199 	 22.6376
| 23> S 	 -50.8417 	 14.006 	 23.9535
| 24> C 	 -51.4748 	 14.5976 	 25.4353
| 25> C 	 -51.177 	 13.7273 	 26.4833
| 26> C 	 -50.5563 	 12.4841 	 26.067
| 27> C 	 -50.2781 	 12.4741 	 24.6901
| 28> H 	 -51.4543 	 13.9659 	 27.5245
| 29> C 	 -50.1722 	 11.3684 	 27.0241
| 30> H 	 -50.5086 	 10.5289 	 26.3926
| 31> H 	 -50.8994 	 11.332 	 27.8706
| 32> C 	 -48.7382 	 11.2465 	 27.5508
| 33> H 	 -48.5506 	 11.8275 	 28.3862
| 34> H 	 -48.0481 	 11.3077 	 26.7745
| 35> C 	 -48.6345 	 9.77114 	 28.0245
| 36> H 	 -47.5959 	 9.39551 	 28.2069
| 37> H 	 -49.0024 	 9.10038 	 27.2718
| 38> H 	 -49.111 	 9.72516 	 29.0263
| 39> H 	 -48.9308 	 9.37887 	 20.9426
| 40> H 	 -52.1031 	 15.485 	 25.5291
| 41> *
| 42>
| 43>                          ****END OF INPUT****

CARTESIAN COORDINATES (ANGSTROEM)
---------------------------------
  S    -48.910100   11.647900   22.268100
  C    -49.217000    9.972550   21.763300
  C    -49.982600    9.280100   22.737600
  C    -50.349900   10.055400   23.831700
  C    -49.871100   11.394200   23.814200
  H    -50.983600    9.702310   24.614700
  C    -50.623400    7.885160   22.548700
  H    -50.672300    7.379280   23.522900
  H    -49.842700    7.315880   21.993700
  C    -51.817000    7.824290   21.585500
  H    -52.643400    8.425850   21.947000
  H    -51.468200    8.098070   20.586900
  C    -52.318000    6.382730   21.634700
  H    -53.404500    6.267430   21.274900
  H    -51.743100    5.597310   21.134400
  H    -52.341400    5.961990   22.637600
  S    -50.841700   14.006000   23.953500
  C    -51.474800   14.597600   25.435300
  C    -51.177000   13.727300   26.483300
  C    -50.556300   12.484100   26.067000
  C    -50.278100   12.474100   24.690100
  H    -51.454300   13.965900   27.524500
  C    -50.172200   11.368400   27.024100
  H    -50.508600   10.528900   26.392600
  H    -50.899400   11.332000   27.870600
  C    -48.738200   11.246500   27.550800
  H    -48.550600   11.827500   28.386200
  H    -48.048100   11.307700   26.774500
  C    -48.634500    9.771140   28.024500
  H    -47.595900    9.395510   28.206900
  H    -49.002400    9.100380   27.271800
  H    -49.111000    9.725160   29.026300
  H    -48.930800    9.378870   20.942600
  H    -52.103100   15.485000   25.529100

 Total Charge           Charge          ....    0
 Multiplicity           Mult            ....    1
 Number of Electrons    NEL             ....  134
 Basis Dimension        Dim             ....  322

ORBITAL ENERGIES
----------------

  NO   OCC          E(Eh)            E(eV)
   0   2.0000     -88.975209     -2421.1385
   1   2.0000     -88.965745     -2420.8810
   2   2.0000     -10.342018      -281.4206
   3   2.0000     -10.331669      -281.1390
   4   2.0000     -10.319797      -280.8160
   5   2.0000     -10.317055      -280.7413
   6   2.0000     -10.307813      -280.4899
   7   2.0000     -10.300020      -280.2778
   8   2.0000     -10.298195      -280.2281
   9   2.0000     -10.297799      -280.2173
  10   2.0000     -10.294986      -280.1408
  11   2.0000     -10.294914      -280.1389
  12   2.0000     -10.292955      -280.0855
  13   2.0000     -10.283136      -279.8184
  14   2.0000     -10.278373      -279.6887
  15   2.0000     -10.278156      -279.6828
  16   2.0000      -8.087311      -220.0669
  17   2.0000      -8.080506      -219.8817
  18   2.0000      -6.046048      -164.5213
  19   2.0000      -6.042133      -164.4148
  20   2.0000      -6.039012      -164.3299
  21   2.0000      -6.038035      -164.3033
  22   2.0000      -6.034931      -164.2188
  23   2.0000      -6.031329      -164.1208
  24   2.0000      -0.998196       -27.1623
  25   2.0000      -0.974803       -26.5258
  26   2.0000      -0.912279       -24.8244
  27   2.0000      -0.911394       -24.8003
  28   2.0000      -0.867592       -23.6084
  29   2.0000      -0.853549       -23.2262
  30   2.0000      -0.845301       -23.0018
  31   2.0000      -0.807907       -21.9843
  32   2.0000      -0.776114       -21.1191
  33   2.0000      -0.763981       -20.7890
  34   2.0000      -0.711898       -19.3717
  35   2.0000      -0.706215       -19.2171
  36   2.0000      -0.699977       -19.0473
  37   2.0000      -0.659873       -17.9561
  38   2.0000      -0.635051       -17.2806
  39   2.0000      -0.620066       -16.8728
  40   2.0000      -0.590396       -16.0655
  41   2.0000      -0.581313       -15.8183
  42   2.0000      -0.571310       -15.5461
  43   2.0000      -0.558982       -15.2107
  44   2.0000      -0.522938       -14.2299
  45   2.0000      -0.520169       -14.1545
  46   2.0000      -0.516152       -14.0452
  47   2.0000      -0.511737       -13.9251
  48   2.0000      -0.504187       -13.7196
  49   2.0000      -0.497251       -13.5309
  50   2.0000      -0.491407       -13.3719
  51   2.0000      -0.478021       -13.0076
  52   2.0000      -0.469165       -12.7666
  53   2.0000      -0.462222       -12.5777
  54   2.0000      -0.457661       -12.4536
  55   2.0000      -0.450277       -12.2527
  56   2.0000      -0.444386       -12.0923
  57   2.0000      -0.439438       -11.9577
  58   2.0000      -0.428101       -11.6492
  59   2.0000      -0.423268       -11.5177
  60   2.0000      -0.419992       -11.4286
  61   2.0000      -0.415597       -11.3090
  62   2.0000      -0.410965       -11.1829
  63   2.0000      -0.354291        -9.6407
  64   2.0000      -0.334440        -9.1006
  65   2.0000      -0.329622        -8.9695
  66   2.0000      -0.278534        -7.5793
  67   0.0000       0.015921         0.4332
  68   0.0000       0.063973         1.7408
  69   0.0000       0.104239         2.8365
  70   0.0000       0.118038         3.2120
  71   0.0000       0.133309         3.6275

MULLIKEN ATOMIC CHARGES
-----------------------
   0 S :    0.112530
   1 C :   -0.084775
   2 C :   -0.095975
   3 C :    0.024434
   4 C :   -0.151072
   5 H :    0.019011
   6 C :   -0.013047
   7 H :    0.034071
   8 H :    0.022122
   9 C :    0.006499
  10 H :    0.037383
  11 H :    0.037675
  12 C :   -0.085910
  13 H :    0.041864
  14 H :    0.029397
  15 H :    0.019301
  16 S :    0.104039
  17 C :   -0.102007
  18 C :   -0.031614
  19 C :   -0.066376
  20 C :   -0.129270
  21 H :    0.024372
  22 C :    0.036201
  23 H :   -0.002703
  24 H :    0.019255
  25 C :    0.055106
  26 H :    0.022072
  27 H :    0.023121
  28 C :   -0.099159
  29 H :    0.031103
  30 H :    0.033754
  31 H :    0.034667
  32 H :    0.024055
  33 H :    0.069878
Sum of atomic charges:    0.0000000

LOEWDIN ATOMIC CHARGES
----------------------
   0 S :    0.376197
   1 C :   -0.194764
   2 C :   -0.065027
   3 C :   -0.061716
   4 C :   -0.167217
   5 H :    0.026202
   6 C :   -0.037539
   7 H :    0.030288
   8 H :    0.032882
   9 C :   -0.030066
  10 H :    0.027653
  11 H :    0.029895
  12 C :   -0.078896
  13 H :    0.033046
  14 H :    0.023624
  15 H :    0.022792
  16 S :    0.406060
  17 C :   -0.197177
  18 C :   -0.077363
  19 C :   -0.054165
  20 C :   -0.194717
  21 H :    0.033520
  22 C :   -0.037200
  23 H :    0.031920
  24 H :    0.032834
  25 C :   -0.016492
  26 H :    0.018960
  27 H :    0.021314
  28 C :   -0.064773
  29 H :    0.025476
  30 H :    0.020126
  31 H :    0.026376
  32 H :    0.022116
  33 H :    0.035831

  Mayer bond orders larger than 0.100000
B(  0-S ,  1-C ) :   1.1312 B(  0-S ,  4-C ) :   1.1334 B(  1-C ,  2-C ) :   1.5825
B(  1-C ,  4-C ) :   0.1155 B(  1-C , 32-H ) :   0.9667 B(  2-C ,  3-C ) :   1.3016
B(  2-C ,  6-C ) :   1.0231 B(  3-C ,  4-C ) :   1.5258 B(  3-C ,  5-H ) :   0.9785
B(  4-C , 20-C ) :   1.0848 B(  6-C ,  7-H ) :   0.9506 B(  6-C ,  8-H ) :   0.9392
B(  6-C ,  9-C ) :   1.0573 B(  9-C , 10-H ) :   0.9576 B(  9-C , 11-H ) :   0.9524
B(  9-C , 12-C ) :   1.0688 B( 12-C , 13-H ) :   0.9751 B( 12-C , 14-H ) :   0.9752
B( 12-C , 15-H ) :   0.9726 B( 16-S , 17-C ) :   1.1715 B( 16-S , 20-C ) :   1.1254
B( 17-C , 18-C ) :   1.5794 B( 17-C , 33-H ) :   0.9667 B( 18-C , 19-C ) :   1.2621
B( 18-C , 21-H ) :   0.9876 B( 19-C , 20-C ) :   1.5651 B( 19-C , 22-C ) :   1.0304
B( 22-C , 23-H ) :   0.9356 B( 22-C , 24-H ) :   0.9265 B( 22-C , 25-C ) :   1.0693
B( 25-C , 26-H ) :   0.9571 B( 25-C , 27-H ) :   0.9544 B( 25-C , 28-C ) :   1.0717
B( 28-C , 29-H ) :   0.9751 B( 28-C , 30-H ) :   0.9787 B( 28-C , 31-H ) :   0.9787

Dispersion correction           -0.013723500
FINAL SINGLE POINT ENERGY     -1339.853618067582

DIPOLE MOMENT
-------------
                                X             Y             Z
Electronic contribution:      4.09439      26.66714      -9.55637
Nuclear contribution   :     -4.43438     -27.18955       9.94909
                        -----------------------------------------
Total Dipole Moment    :     -0.33998      -0.52241       0.39272
                        -----------------------------------------
Magnitude (a.u.)       :      0.73670
Magnitude (Debye)      :      1.87254

Rotational constants in cm-1:     0.017024     0.008268     0.006833
Rotational constants in MHz :   510.377286   247.861303   204.842914

                             ****ORCA TERMINATED NORMALLY****
TOTAL RUN TIME: 0 days 0 hours 0 minutes 21 seconds 334 msec
