                         Program Version 4.2.1 -  RELEASE  -
|  1> ! wB97X-D3 SP def2-SVP
|  2> %pal
|  3> nprocs 24
|  4> end
|  5>
|  6> * xyz 0 1
|  7> S 	 36.2982 	 -4.3254 	 -120.396
|  8> C 	 36.2328 	 -5.71898 	 -121.367
|  9> C 	 37.4483 	 -6.01619 	 -121.915
| 10> C 	 38.2544 	 -4.78152 	 -122
| 11> C 	 37.6948 	 -3.79035 	 -121.195
| 12> H 	 39.1268 	 -4.60484 	 -122.647
| 13> C 	 37.8085 	 -7.36936 	 -122.583
| 14> H 	 37.4626 	 -8.19283 	 -121.932
| 15> H 	 38.8851 	 -7.65263 	 -122.574
| 16> C 	 37.4701 	 -7.53137 	 -124.032
| 17> H 	 36.405 	 -7.74891 	 -124.184
| 18> H 	 37.7798 	 -6.66947 	 -124.587
| 19> C 	 38.1243 	 -8.91133 	 -124.581
| 20> H 	 37.7122 	 -9.00376 	 -125.613
| 21> H 	 39.2033 	 -8.91774 	 -124.463
| 22> H 	 37.7176 	 -9.79984 	 -124.08
| 23> S 	 38.9729 	 -1.56531 	 -122.129
| 24> C 	 39.2361 	 -0.16137 	 -121.091
| 25> C 	 38.955 	 -0.551852 	 -119.808
| 26> C 	 38.4605 	 -1.87239 	 -119.657
| 27> C 	 38.4612 	 -2.60515 	 -120.856
| 28> H 	 39.0074 	 0.241796 	 -119.038
| 29> C 	 37.8994 	 -2.29429 	 -118.274
| 30> H 	 38.3056 	 -3.26953 	 -118.104
| 31> H 	 36.8418 	 -2.47804 	 -118.244
| 32> C 	 38.2764 	 -1.3801 	 -117.098
| 33> H 	 37.5648 	 -0.529576 	 -117.026
| 34> H 	 39.2637 	 -0.977975 	 -117.229
| 35> C 	 38.2241 	 -2.16255 	 -115.799
| 36> H 	 38.6502 	 -1.67166 	 -114.949
| 37> H 	 38.7965 	 -3.05161 	 -115.94
| 38> H 	 37.2701 	 -2.63249 	 -115.618
| 39> H 	 35.4829 	 -6.48186 	 -121.228
| 40> H 	 39.7741 	 0.758495 	 -121.251
| 41> *
| 42>
| 43>                          ****END OF INPUT****

CARTESIAN COORDINATES (ANGSTROEM)
---------------------------------
  S     36.298200   -4.325400  -120.396000
  C     36.232800   -5.718980  -121.367000
  C     37.448300   -6.016190  -121.915000
  C     38.254400   -4.781520  -122.000000
  C     37.694800   -3.790350  -121.195000
  H     39.126800   -4.604840  -122.647000
  C     37.808500   -7.369360  -122.583000
  H     37.462600   -8.192830  -121.932000
  H     38.885100   -7.652630  -122.574000
  C     37.470100   -7.531370  -124.032000
  H     36.405000   -7.748910  -124.184000
  H     37.779800   -6.669470  -124.587000
  C     38.124300   -8.911330  -124.581000
  H     37.712200   -9.003760  -125.613000
  H     39.203300   -8.917740  -124.463000
  H     37.717600   -9.799840  -124.080000
  S     38.972900   -1.565310  -122.129000
  C     39.236100   -0.161370  -121.091000
  C     38.955000   -0.551852  -119.808000
  C     38.460500   -1.872390  -119.657000
  C     38.461200   -2.605150  -120.856000
  H     39.007400    0.241796  -119.038000
  C     37.899400   -2.294290  -118.274000
  H     38.305600   -3.269530  -118.104000
  H     36.841800   -2.478040  -118.244000
  C     38.276400   -1.380100  -117.098000
  H     37.564800   -0.529576  -117.026000
  H     39.263700   -0.977975  -117.229000
  C     38.224100   -2.162550  -115.799000
  H     38.650200   -1.671660  -114.949000
  H     38.796500   -3.051610  -115.940000
  H     37.270100   -2.632490  -115.618000
  H     35.482900   -6.481860  -121.228000
  H     39.774100    0.758495  -121.251000

 Total Charge           Charge          ....    0
 Multiplicity           Mult            ....    1
 Number of Electrons    NEL             ....  134
 Basis Dimension        Dim             ....  322

ORBITAL ENERGIES
----------------

  NO   OCC          E(Eh)            E(eV)
   0   2.0000     -88.969331     -2420.9786
   1   2.0000     -88.963340     -2420.8155
   2   2.0000     -10.325834      -280.9802
   3   2.0000     -10.324691      -280.9491
   4   2.0000     -10.312483      -280.6169
   5   2.0000     -10.309473      -280.5350
   6   2.0000     -10.308471      -280.5078
   7   2.0000     -10.302287      -280.3395
   8   2.0000     -10.300523      -280.2915
   9   2.0000     -10.296228      -280.1746
  10   2.0000     -10.289738      -279.9980
  11   2.0000     -10.289487      -279.9912
  12   2.0000     -10.287950      -279.9493
  13   2.0000     -10.287172      -279.9282
  14   2.0000     -10.284991      -279.8688
  15   2.0000     -10.269052      -279.4351
  16   2.0000      -8.085554      -220.0191
  17   2.0000      -8.078008      -219.8138
  18   2.0000      -6.043922      -164.4635
  19   2.0000      -6.040052      -164.3582
  20   2.0000      -6.036720      -164.2675
  21   2.0000      -6.036170      -164.2525
  22   2.0000      -6.032336      -164.1482
  23   2.0000      -6.028729      -164.0500
  24   2.0000      -1.015940       -27.6451
  25   2.0000      -0.989483       -26.9252
  26   2.0000      -0.910894       -24.7867
  27   2.0000      -0.910340       -24.7716
  28   2.0000      -0.874750       -23.8032
  29   2.0000      -0.850640       -23.1471
  30   2.0000      -0.841419       -22.8962
  31   2.0000      -0.814471       -22.1629
  32   2.0000      -0.780153       -21.2290
  33   2.0000      -0.770897       -20.9772
  34   2.0000      -0.708823       -19.2880
  35   2.0000      -0.704096       -19.1594
  36   2.0000      -0.697069       -18.9682
  37   2.0000      -0.658063       -17.9068
  38   2.0000      -0.636156       -17.3107
  39   2.0000      -0.613844       -16.7035
  40   2.0000      -0.598428       -16.2840
  41   2.0000      -0.578037       -15.7292
  42   2.0000      -0.566301       -15.4098
  43   2.0000      -0.562078       -15.2949
  44   2.0000      -0.533239       -14.5102
  45   2.0000      -0.523649       -14.2492
  46   2.0000      -0.514557       -14.0018
  47   2.0000      -0.509165       -13.8551
  48   2.0000      -0.503491       -13.7007
  49   2.0000      -0.500334       -13.6148
  50   2.0000      -0.487315       -13.2605
  51   2.0000      -0.479363       -13.0441
  52   2.0000      -0.475872       -12.9491
  53   2.0000      -0.471262       -12.8237
  54   2.0000      -0.457625       -12.4526
  55   2.0000      -0.452529       -12.3139
  56   2.0000      -0.443899       -12.0791
  57   2.0000      -0.441836       -12.0230
  58   2.0000      -0.430638       -11.7183
  59   2.0000      -0.423020       -11.5110
  60   2.0000      -0.420383       -11.4392
  61   2.0000      -0.410266       -11.1639
  62   2.0000      -0.407736       -11.0950
  63   2.0000      -0.357198        -9.7199
  64   2.0000      -0.327914        -8.9230
  65   2.0000      -0.326079        -8.8731
  66   2.0000      -0.288366        -7.8468
  67   0.0000       0.028392         0.7726
  68   0.0000       0.072491         1.9726
  69   0.0000       0.100723         2.7408
  70   0.0000       0.129399         3.5211
  71   0.0000       0.131555         3.5798

MULLIKEN ATOMIC CHARGES
-----------------------
   0 S :    0.114730
   1 C :   -0.088388
   2 C :   -0.077843
   3 C :   -0.013767
   4 C :   -0.107538
   5 H :    0.034850
   6 C :    0.026538
   7 H :    0.023149
   8 H :    0.019187
   9 C :   -0.058150
  10 H :    0.031772
  11 H :    0.038260
  12 C :   -0.090418
  13 H :    0.044451
  14 H :    0.043946
  15 H :    0.032981
  16 S :    0.090432
  17 C :   -0.077110
  18 C :   -0.074508
  19 C :   -0.097263
  20 C :   -0.105394
  21 H :    0.035329
  22 C :    0.057186
  23 H :    0.017221
  24 H :    0.037737
  25 C :   -0.081281
  26 H :    0.038440
  27 H :    0.032255
  28 C :   -0.007054
  29 H :    0.033607
  30 H :    0.006711
  31 H :    0.018856
  32 H :    0.045856
  33 H :    0.055221
Sum of atomic charges:    0.0000000

LOEWDIN ATOMIC CHARGES
----------------------
   0 S :    0.455381
   1 C :   -0.208616
   2 C :   -0.053538
   3 C :   -0.059581
   4 C :   -0.213428
   5 H :    0.034789
   6 C :   -0.048849
   7 H :    0.032000
   8 H :    0.034001
   9 C :   -0.033464
  10 H :    0.024811
  11 H :    0.023783
  12 C :   -0.069247
  13 H :    0.032664
  14 H :    0.020719
  15 H :    0.025436
  16 S :    0.416968
  17 C :   -0.192934
  18 C :   -0.079192
  19 C :   -0.066993
  20 C :   -0.203949
  21 H :    0.036557
  22 C :   -0.035510
  23 H :    0.026227
  24 H :    0.024190
  25 C :   -0.039110
  26 H :    0.026749
  27 H :    0.021270
  28 C :   -0.061881
  29 H :    0.024534
  30 H :    0.021520
  31 H :    0.024715
  32 H :    0.025626
  33 H :    0.034351

  Mayer bond orders larger than 0.100000
B(  0-S ,  1-C ) :   1.1471 B(  0-S ,  4-C ) :   1.1638 B(  1-C ,  2-C ) :   1.6230
B(  1-C , 32-H ) :   0.9669 B(  2-C ,  3-C ) :   1.2268 B(  2-C ,  6-C ) :   1.0239
B(  3-C ,  4-C ) :   1.5339 B(  3-C ,  5-H ) :   0.9952 B(  4-C , 20-C ) :   1.0421
B(  6-C ,  7-H ) :   0.9384 B(  6-C ,  8-H ) :   0.9466 B(  6-C ,  9-C ) :   1.0663
B(  9-C , 10-H ) :   0.9568 B(  9-C , 11-H ) :   0.9583 B(  9-C , 12-C ) :   1.0652
B( 12-C , 13-H ) :   0.9765 B( 12-C , 14-H ) :   0.9775 B( 12-C , 15-H ) :   0.9777
B( 16-S , 17-C ) :   1.1504 B( 16-S , 20-C ) :   1.1542 B( 17-C , 18-C ) :   1.6021
B( 17-C , 20-C ) :   0.1018 B( 17-C , 33-H ) :   0.9571 B( 18-C , 19-C ) :   1.2889
B( 18-C , 21-H ) :   0.9747 B( 19-C , 20-C ) :   1.5620 B( 19-C , 22-C ) :   1.0054
B( 22-C , 23-H ) :   0.9398 B( 22-C , 24-H ) :   0.9274 B( 22-C , 25-C ) :   1.0829
B( 25-C , 26-H ) :   0.9479 B( 25-C , 27-H ) :   0.9529 B( 25-C , 28-C ) :   1.0861
B( 28-C , 29-H ) :   0.9720 B( 28-C , 30-H ) :   0.9705 B( 28-C , 31-H ) :   0.9701

Dispersion correction           -0.013212173
FINAL SINGLE POINT ENERGY     -1339.851113174078

DIPOLE MOMENT
-------------
                                X             Y             Z
Electronic contribution:     -2.19101      14.20216      -5.96237
Nuclear contribution   :      2.23854     -14.59279       6.21316
                        -----------------------------------------
Total Dipole Moment    :      0.04753      -0.39063       0.25079
                        -----------------------------------------
Magnitude (a.u.)       :      0.46663
Magnitude (Debye)      :      1.18608

Rotational constants in cm-1:     0.023466     0.006873     0.005722
Rotational constants in MHz :   703.488593   206.037812   171.527408

                             ****ORCA TERMINATED NORMALLY****
TOTAL RUN TIME: 0 days 0 hours 0 minutes 19 seconds 563 msec
