                         Program Version 4.2.1 -  RELEASE  -
|  1> ! wB97X-D3 SP def2-SVP
|  2> %pal
|  3> nprocs 24
|  4> end
|  5>
|  6> * xyz 0 1
|  7> S 	 31.8012 	 -7.42379 	 -115.344
|  8> C 	 32.6699 	 -7.48871 	 -116.922
|  9> C 	 33.8495 	 -6.78027 	 -116.923
| 10> C 	 34.1127 	 -6.27173 	 -115.602
| 11> C 	 33.1115 	 -6.51946 	 -114.665
| 12> H 	 35.0191 	 -5.68789 	 -115.307
| 13> C 	 34.8038 	 -6.71826 	 -118.073
| 14> H 	 35.5718 	 -5.91066 	 -118.048
| 15> H 	 34.3281 	 -6.46251 	 -119.022
| 16> C 	 35.4305 	 -8.16601 	 -118.277
| 17> H 	 35.9091 	 -8.54227 	 -117.358
| 18> H 	 34.7429 	 -8.93773 	 -118.545
| 19> C 	 36.472 	 -8.1621 	 -119.492
| 20> H 	 35.9123 	 -7.98752 	 -120.424
| 21> H 	 37.237 	 -7.41391 	 -119.368
| 22> H 	 37.0549 	 -9.11416 	 -119.671
| 23> S 	 33.4928 	 -4.45033 	 -113.007
| 24> C 	 33.2987 	 -4.62156 	 -111.254
| 25> C 	 32.8996 	 -5.928 	 -110.985
| 26> C 	 32.8393 	 -6.77817 	 -112.169
| 27> C 	 33.1269 	 -6.08526 	 -113.285
| 28> H 	 32.6283 	 -6.26595 	 -109.948
| 29> C 	 32.531 	 -8.20216 	 -112.07
| 30> H 	 33.0493 	 -8.45581 	 -111.114
| 31> H 	 33.0256 	 -8.80746 	 -112.86
| 32> C 	 31.0128 	 -8.55676 	 -111.998
| 33> H 	 30.8092 	 -9.61476 	 -112.066
| 34> H 	 30.49 	 -8.13927 	 -112.828
| 35> C 	 30.4099 	 -8.01599 	 -110.758
| 36> H 	 30.3928 	 -6.92132 	 -110.664
| 37> H 	 30.9438 	 -8.47238 	 -109.874
| 38> H 	 29.3726 	 -8.33034 	 -110.689
| 39> H 	 32.2565 	 -8.05979 	 -117.764
| 40> H 	 33.4732 	 -3.9209 	 -110.473
| 41> *
| 42>
| 43>                          ****END OF INPUT****

CARTESIAN COORDINATES (ANGSTROEM)
---------------------------------
  S     31.801200   -7.423790  -115.344000
  C     32.669900   -7.488710  -116.922000
  C     33.849500   -6.780270  -116.923000
  C     34.112700   -6.271730  -115.602000
  C     33.111500   -6.519460  -114.665000
  H     35.019100   -5.687890  -115.307000
  C     34.803800   -6.718260  -118.073000
  H     35.571800   -5.910660  -118.048000
  H     34.328100   -6.462510  -119.022000
  C     35.430500   -8.166010  -118.277000
  H     35.909100   -8.542270  -117.358000
  H     34.742900   -8.937730  -118.545000
  C     36.472000   -8.162100  -119.492000
  H     35.912300   -7.987520  -120.424000
  H     37.237000   -7.413910  -119.368000
  H     37.054900   -9.114160  -119.671000
  S     33.492800   -4.450330  -113.007000
  C     33.298700   -4.621560  -111.254000
  C     32.899600   -5.928000  -110.985000
  C     32.839300   -6.778170  -112.169000
  C     33.126900   -6.085260  -113.285000
  H     32.628300   -6.265950  -109.948000
  C     32.531000   -8.202160  -112.070000
  H     33.049300   -8.455810  -111.114000
  H     33.025600   -8.807460  -112.860000
  C     31.012800   -8.556760  -111.998000
  H     30.809200   -9.614760  -112.066000
  H     30.490000   -8.139270  -112.828000
  C     30.409900   -8.015990  -110.758000
  H     30.392800   -6.921320  -110.664000
  H     30.943800   -8.472380  -109.874000
  H     29.372600   -8.330340  -110.689000
  H     32.256500   -8.059790  -117.764000
  H     33.473200   -3.920900  -110.473000

 Total Charge           Charge          ....    0
 Multiplicity           Mult            ....    1
 Number of Electrons    NEL             ....  134
 Basis Dimension        Dim             ....  322

ORBITAL ENERGIES
----------------

  NO   OCC          E(Eh)            E(eV)
   0   2.0000     -88.969681     -2420.9881
   1   2.0000     -88.963577     -2420.8220
   2   2.0000     -10.327513      -281.0259
   3   2.0000     -10.318408      -280.7782
   4   2.0000     -10.317469      -280.7526
   5   2.0000     -10.315949      -280.7112
   6   2.0000     -10.305735      -280.4333
   7   2.0000     -10.302795      -280.3533
   8   2.0000     -10.299579      -280.2658
   9   2.0000     -10.298198      -280.2282
  10   2.0000     -10.295051      -280.1426
  11   2.0000     -10.293562      -280.1021
  12   2.0000     -10.289189      -279.9831
  13   2.0000     -10.284609      -279.8585
  14   2.0000     -10.278590      -279.6946
  15   2.0000     -10.273831      -279.5651
  16   2.0000      -8.083421      -219.9611
  17   2.0000      -8.078839      -219.8364
  18   2.0000      -6.041973      -164.4104
  19   2.0000      -6.038121      -164.3056
  20   2.0000      -6.037455      -164.2875
  21   2.0000      -6.034158      -164.1978
  22   2.0000      -6.033256      -164.1733
  23   2.0000      -6.029446      -164.0696
  24   2.0000      -1.011454       -27.5231
  25   2.0000      -0.982857       -26.7449
  26   2.0000      -0.914582       -24.8870
  27   2.0000      -0.907101       -24.6835
  28   2.0000      -0.865955       -23.5638
  29   2.0000      -0.852741       -23.2042
  30   2.0000      -0.842913       -22.9368
  31   2.0000      -0.809933       -22.0394
  32   2.0000      -0.780009       -21.2251
  33   2.0000      -0.768868       -20.9220
  34   2.0000      -0.707231       -19.2447
  35   2.0000      -0.705646       -19.2016
  36   2.0000      -0.691941       -18.8287
  37   2.0000      -0.669811       -18.2265
  38   2.0000      -0.636572       -17.3220
  39   2.0000      -0.613913       -16.7054
  40   2.0000      -0.591581       -16.0977
  41   2.0000      -0.567457       -15.4413
  42   2.0000      -0.555453       -15.1147
  43   2.0000      -0.552292       -15.0286
  44   2.0000      -0.548594       -14.9280
  45   2.0000      -0.523873       -14.2553
  46   2.0000      -0.517527       -14.0826
  47   2.0000      -0.510632       -13.8950
  48   2.0000      -0.502523       -13.6744
  49   2.0000      -0.499075       -13.5805
  50   2.0000      -0.483563       -13.1584
  51   2.0000      -0.477533       -12.9943
  52   2.0000      -0.467004       -12.7078
  53   2.0000      -0.464345       -12.6355
  54   2.0000      -0.459137       -12.4938
  55   2.0000      -0.442994       -12.0545
  56   2.0000      -0.437944       -11.9171
  57   2.0000      -0.436330       -11.8731
  58   2.0000      -0.432187       -11.7604
  59   2.0000      -0.428270       -11.6538
  60   2.0000      -0.425527       -11.5792
  61   2.0000      -0.421630       -11.4731
  62   2.0000      -0.413558       -11.2535
  63   2.0000      -0.344853        -9.3839
  64   2.0000      -0.332957        -9.0602
  65   2.0000      -0.325849        -8.8668
  66   2.0000      -0.294239        -8.0066
  67   0.0000       0.031529         0.8580
  68   0.0000       0.076819         2.0903
  69   0.0000       0.103576         2.8185
  70   0.0000       0.114434         3.1139
  71   0.0000       0.129331         3.5193

MULLIKEN ATOMIC CHARGES
-----------------------
   0 S :    0.109067
   1 C :   -0.149539
   2 C :   -0.028991
   3 C :   -0.010396
   4 C :   -0.151876
   5 H :    0.030306
   6 C :    0.054672
   7 H :    0.033894
   8 H :    0.026853
   9 C :   -0.083044
  10 H :    0.040134
  11 H :    0.031062
  12 C :   -0.081947
  13 H :    0.033360
  14 H :    0.029787
  15 H :    0.042114
  16 S :    0.112744
  17 C :   -0.082808
  18 C :   -0.059075
  19 C :   -0.050695
  20 C :   -0.132417
  21 H :    0.037672
  22 C :    0.022719
  23 H :    0.029349
  24 H :    0.038415
  25 C :   -0.007783
  26 H :    0.026726
  27 H :    0.015217
  28 C :   -0.080315
  29 H :    0.048935
  30 H :    0.026012
  31 H :    0.026839
  32 H :    0.056210
  33 H :    0.046799
Sum of atomic charges:   -0.0000000

LOEWDIN ATOMIC CHARGES
----------------------
   0 S :    0.406022
   1 C :   -0.180639
   2 C :   -0.060654
   3 C :   -0.070961
   4 C :   -0.197207
   5 H :    0.036285
   6 C :   -0.033424
   7 H :    0.036145
   8 H :    0.033196
   9 C :   -0.030673
  10 H :    0.026267
  11 H :    0.020377
  12 C :   -0.076784
  13 H :    0.024464
  14 H :    0.018067
  15 H :    0.031766
  16 S :    0.421468
  17 C :   -0.184068
  18 C :   -0.068557
  19 C :   -0.070572
  20 C :   -0.211766
  21 H :    0.037282
  22 C :   -0.040698
  23 H :    0.036320
  24 H :    0.032760
  25 C :   -0.036927
  26 H :    0.025442
  27 H :    0.013338
  28 C :   -0.069926
  29 H :    0.026994
  30 H :    0.026016
  31 H :    0.024710
  32 H :    0.028696
  33 H :    0.027240

  Mayer bond orders larger than 0.100000
B(  0-S ,  1-C ) :   1.1272 B(  0-S ,  4-C ) :   1.1513 B(  1-C ,  2-C ) :   1.6074
B(  1-C , 32-H ) :   0.9673 B(  2-C ,  3-C ) :   1.2347 B(  2-C ,  6-C ) :   1.0355
B(  3-C ,  4-C ) :   1.5699 B(  3-C ,  5-H ) :   0.9855 B(  4-C , 20-C ) :   1.0292
B(  6-C ,  7-H ) :   0.9495 B(  6-C ,  8-H ) :   0.9367 B(  6-C ,  9-C ) :   1.0385
B(  9-C , 10-H ) :   0.9632 B(  9-C , 11-H ) :   0.9619 B(  9-C , 12-C ) :   1.0651
B( 12-C , 13-H ) :   0.9774 B( 12-C , 14-H ) :   0.9798 B( 12-C , 15-H ) :   0.9771
B( 16-S , 17-C ) :   1.1346 B( 16-S , 20-C ) :   1.1429 B( 17-C , 18-C ) :   1.6262
B( 17-C , 33-H ) :   0.9728 B( 18-C , 19-C ) :   1.2204 B( 18-C , 21-H ) :   0.9737
B( 19-C , 20-C ) :   1.6138 B( 19-C , 22-C ) :   1.0465 B( 22-C , 23-H ) :   0.9379
B( 22-C , 24-H ) :   0.9304 B( 22-C , 25-C ) :   1.0624 B( 25-C , 26-H ) :   0.9535
B( 25-C , 27-H ) :   0.9464 B( 25-C , 28-C ) :   1.0946 B( 28-C , 29-H ) :   0.9680
B( 28-C , 30-H ) :   0.9720 B( 28-C , 31-H ) :   0.9672

Dispersion correction           -0.014575453
FINAL SINGLE POINT ENERGY     -1339.887666238607

DIPOLE MOMENT
-------------
                                X             Y             Z
Electronic contribution:     -4.85245      13.71431       6.10670
Nuclear contribution   :      5.00614     -14.01788      -6.21470
                        -----------------------------------------
Total Dipole Moment    :      0.15370      -0.30358      -0.10799
                        -----------------------------------------
Magnitude (a.u.)       :      0.35699
Magnitude (Debye)      :      0.90740

Rotational constants in cm-1:     0.025166     0.007368     0.006291
Rotational constants in MHz :   754.459606   220.893469   188.586506

                             ****ORCA TERMINATED NORMALLY****
TOTAL RUN TIME: 0 days 0 hours 0 minutes 21 seconds 398 msec
