                         Program Version 4.2.1 -  RELEASE  -
|  1> ! wB97X-D3 SP def2-SVP
|  2> %pal
|  3> nprocs 24
|  4> end
|  5>
|  6> * xyz 0 1
|  7> S 	 -3.37129 	 -27.1553 	 -112.693
|  8> C 	 -4.18444 	 -26.1195 	 -113.762
|  9> C 	 -5.52994 	 -26.4589 	 -113.974
| 10> C 	 -5.8425 	 -27.7378 	 -113.383
| 11> C 	 -4.79889 	 -28.1768 	 -112.622
| 12> H 	 -6.83966 	 -28.1792 	 -113.386
| 13> C 	 -6.60646 	 -25.564 	 -114.575
| 14> H 	 -7.30935 	 -26.1705 	 -115.012
| 15> H 	 -6.16656 	 -25.0208 	 -115.412
| 16> C 	 -7.23522 	 -24.5172 	 -113.58
| 17> H 	 -6.43981 	 -23.8376 	 -113.362
| 18> H 	 -8.0297 	 -24.0134 	 -114.147
| 19> C 	 -7.96857 	 -25.1083 	 -112.437
| 20> H 	 -7.36333 	 -25.743 	 -111.779
| 21> H 	 -8.26864 	 -24.2895 	 -111.745
| 22> H 	 -8.74927 	 -25.6382 	 -112.946
| 23> S 	 -3.94003 	 -30.874 	 -112.284
| 24> C 	 -4.41447 	 -31.6308 	 -110.756
| 25> C 	 -5.51097 	 -30.9438 	 -110.283
| 26> C 	 -5.67489 	 -29.6502 	 -110.762
| 27> C 	 -4.78118 	 -29.3624 	 -111.786
| 28> H 	 -6.06383 	 -31.3562 	 -109.432
| 29> C 	 -6.8746 	 -28.7796 	 -110.25
| 30> H 	 -6.54635 	 -27.8059 	 -110.478
| 31> H 	 -6.71025 	 -28.7207 	 -109.148
| 32> C 	 -8.25176 	 -29.0811 	 -110.751
| 33> H 	 -8.15822 	 -28.7524 	 -111.745
| 34> H 	 -9.02612 	 -28.4459 	 -110.236
| 35> C 	 -8.66732 	 -30.5406 	 -110.64
| 36> H 	 -8.36015 	 -31.1736 	 -111.499
| 37> H 	 -9.73489 	 -30.6559 	 -110.731
| 38> H 	 -8.35434 	 -31.0044 	 -109.739
| 39> H 	 -3.68621 	 -25.2319 	 -114.219
| 40> H 	 -4.28014 	 -32.7451 	 -110.553
| 41> *
| 42>
| 43>                          ****END OF INPUT****

CARTESIAN COORDINATES (ANGSTROEM)
---------------------------------
  S     -3.371290  -27.155300  -112.693000
  C     -4.184440  -26.119500  -113.762000
  C     -5.529940  -26.458900  -113.974000
  C     -5.842500  -27.737800  -113.383000
  C     -4.798890  -28.176800  -112.622000
  H     -6.839660  -28.179200  -113.386000
  C     -6.606460  -25.564000  -114.575000
  H     -7.309350  -26.170500  -115.012000
  H     -6.166560  -25.020800  -115.412000
  C     -7.235220  -24.517200  -113.580000
  H     -6.439810  -23.837600  -113.362000
  H     -8.029700  -24.013400  -114.147000
  C     -7.968570  -25.108300  -112.437000
  H     -7.363330  -25.743000  -111.779000
  H     -8.268640  -24.289500  -111.745000
  H     -8.749270  -25.638200  -112.946000
  S     -3.940030  -30.874000  -112.284000
  C     -4.414470  -31.630800  -110.756000
  C     -5.510970  -30.943800  -110.283000
  C     -5.674890  -29.650200  -110.762000
  C     -4.781180  -29.362400  -111.786000
  H     -6.063830  -31.356200  -109.432000
  C     -6.874600  -28.779600  -110.250000
  H     -6.546350  -27.805900  -110.478000
  H     -6.710250  -28.720700  -109.148000
  C     -8.251760  -29.081100  -110.751000
  H     -8.158220  -28.752400  -111.745000
  H     -9.026120  -28.445900  -110.236000
  C     -8.667320  -30.540600  -110.640000
  H     -8.360150  -31.173600  -111.499000
  H     -9.734890  -30.655900  -110.731000
  H     -8.354340  -31.004400  -109.739000
  H     -3.686210  -25.231900  -114.219000
  H     -4.280140  -32.745100  -110.553000

 Total Charge           Charge          ....    0
 Multiplicity           Mult            ....    1
 Number of Electrons    NEL             ....  134
 Basis Dimension        Dim             ....  322

ORBITAL ENERGIES
----------------

  NO   OCC          E(Eh)            E(eV)
   0   2.0000     -88.967268     -2420.9225
   1   2.0000     -88.961978     -2420.7785
   2   2.0000     -10.324931      -280.9557
   3   2.0000     -10.324150      -280.9344
   4   2.0000     -10.319047      -280.7956
   5   2.0000     -10.314494      -280.6716
   6   2.0000     -10.301582      -280.3203
   7   2.0000     -10.298955      -280.2488
   8   2.0000     -10.296506      -280.1822
   9   2.0000     -10.289232      -279.9842
  10   2.0000     -10.289102      -279.9807
  11   2.0000     -10.287860      -279.9469
  12   2.0000     -10.286646      -279.9139
  13   2.0000     -10.284741      -279.8620
  14   2.0000     -10.276935      -279.6496
  15   2.0000     -10.275443      -279.6090
  16   2.0000      -8.082972      -219.9489
  17   2.0000      -8.075819      -219.7542
  18   2.0000      -6.041262      -164.3911
  19   2.0000      -6.037355      -164.2848
  20   2.0000      -6.034383      -164.2039
  21   2.0000      -6.033893      -164.1906
  22   2.0000      -6.030816      -164.1068
  23   2.0000      -6.026193      -163.9810
  24   2.0000      -1.006777       -27.3958
  25   2.0000      -0.983839       -26.7716
  26   2.0000      -0.914384       -24.8817
  27   2.0000      -0.912134       -24.8204
  28   2.0000      -0.868644       -23.6370
  29   2.0000      -0.855794       -23.2873
  30   2.0000      -0.844195       -22.9717
  31   2.0000      -0.812550       -22.1106
  32   2.0000      -0.791052       -21.5256
  33   2.0000      -0.771468       -20.9927
  34   2.0000      -0.706779       -19.2324
  35   2.0000      -0.698868       -19.0172
  36   2.0000      -0.690491       -18.7892
  37   2.0000      -0.655443       -17.8355
  38   2.0000      -0.641509       -17.4564
  39   2.0000      -0.612071       -16.6553
  40   2.0000      -0.588930       -16.0256
  41   2.0000      -0.580358       -15.7923
  42   2.0000      -0.562113       -15.2959
  43   2.0000      -0.549984       -14.9658
  44   2.0000      -0.546801       -14.8792
  45   2.0000      -0.543197       -14.7811
  46   2.0000      -0.518238       -14.1020
  47   2.0000      -0.509037       -13.8516
  48   2.0000      -0.497999       -13.5513
  49   2.0000      -0.494377       -13.4527
  50   2.0000      -0.488232       -13.2855
  51   2.0000      -0.476896       -12.9770
  52   2.0000      -0.470755       -12.8099
  53   2.0000      -0.465309       -12.6617
  54   2.0000      -0.458904       -12.4874
  55   2.0000      -0.447217       -12.1694
  56   2.0000      -0.444926       -12.1071
  57   2.0000      -0.432962       -11.7815
  58   2.0000      -0.431956       -11.7541
  59   2.0000      -0.431182       -11.7331
  60   2.0000      -0.422500       -11.4968
  61   2.0000      -0.415241       -11.2993
  62   2.0000      -0.411548       -11.1988
  63   2.0000      -0.342319        -9.3150
  64   2.0000      -0.326301        -8.8791
  65   2.0000      -0.320927        -8.7329
  66   2.0000      -0.300536        -8.1780
  67   0.0000       0.029677         0.8076
  68   0.0000       0.058371         1.5884
  69   0.0000       0.104045         2.8312
  70   0.0000       0.116576         3.1722
  71   0.0000       0.124439         3.3861

MULLIKEN ATOMIC CHARGES
-----------------------
   0 S :    0.138590
   1 C :   -0.132701
   2 C :   -0.128691
   3 C :    0.045747
   4 C :   -0.199981
   5 H :    0.020668
   6 C :    0.091457
   7 H :   -0.007037
   8 H :    0.020177
   9 C :   -0.049053
  10 H :    0.022933
  11 H :    0.028697
  12 C :   -0.049286
  13 H :    0.039668
  14 H :    0.040397
  15 H :    0.028845
  16 S :    0.095346
  17 C :   -0.108813
  18 C :   -0.052847
  19 C :   -0.058336
  20 C :   -0.154416
  21 H :    0.024431
  22 C :    0.082632
  23 H :   -0.001607
  24 H :    0.024717
  25 C :    0.008939
  26 H :   -0.004487
  27 H :    0.044105
  28 C :   -0.043066
  29 H :    0.039535
  30 H :    0.022372
  31 H :    0.025222
  32 H :    0.061468
  33 H :    0.084376
Sum of atomic charges:   -0.0000000

LOEWDIN ATOMIC CHARGES
----------------------
   0 S :    0.433581
   1 C :   -0.220563
   2 C :   -0.064452
   3 C :   -0.053787
   4 C :   -0.198280
   5 H :    0.033989
   6 C :   -0.027108
   7 H :    0.012905
   8 H :    0.032409
   9 C :   -0.032354
  10 H :    0.017056
  11 H :    0.027781
  12 C :   -0.067003
  13 H :    0.022824
  14 H :    0.035053
  15 H :    0.025381
  16 S :    0.374654
  17 C :   -0.195364
  18 C :   -0.073233
  19 C :   -0.055229
  20 C :   -0.190894
  21 H :    0.030592
  22 C :   -0.031459
  23 H :    0.021227
  24 H :    0.032719
  25 C :   -0.035091
  26 H :    0.017011
  27 H :    0.037072
  28 C :   -0.066944
  29 H :    0.034466
  30 H :    0.025683
  31 H :    0.018467
  32 H :    0.033790
  33 H :    0.045097

  Mayer bond orders larger than 0.100000
B(  0-S ,  1-C ) :   1.1601 B(  0-S ,  4-C ) :   1.1611 B(  1-C ,  2-C ) :   1.5999
B(  1-C , 32-H ) :   0.9621 B(  2-C ,  3-C ) :   1.2389 B(  2-C ,  6-C ) :   1.0317
B(  3-C ,  4-C ) :   1.5827 B(  3-C ,  5-H ) :   0.9901 B(  4-C , 20-C ) :   1.0297
B(  6-C ,  7-H ) :   0.9347 B(  6-C ,  8-H ) :   0.9358 B(  6-C ,  9-C ) :   1.0673
B(  9-C , 10-H ) :   0.9556 B(  9-C , 11-H ) :   0.9560 B(  9-C , 12-C ) :   1.0778
B( 12-C , 13-H ) :   0.9725 B( 12-C , 14-H ) :   0.9661 B( 12-C , 15-H ) :   0.9767
B( 16-S , 17-C ) :   1.1396 B( 16-S , 20-C ) :   1.1500 B( 17-C , 18-C ) :   1.6054
B( 17-C , 20-C ) :   0.1093 B( 17-C , 33-H ) :   0.9544 B( 18-C , 19-C ) :   1.2706
B( 18-C , 21-H ) :   0.9769 B( 19-C , 20-C ) :   1.5809 B( 19-C , 22-C ) :   1.0201
B( 22-C , 23-H ) :   0.9260 B( 22-C , 24-H ) :   0.9280 B( 22-C , 25-C ) :   1.0675
B( 25-C , 26-H ) :   0.9458 B( 25-C , 27-H ) :   0.9495 B( 25-C , 28-C ) :   1.0920
B( 28-C , 29-H ) :   0.9662 B( 28-C , 30-H ) :   0.9696 B( 28-C , 31-H ) :   0.9752

Dispersion correction           -0.016643309
FINAL SINGLE POINT ENERGY     -1339.853886747481

DIPOLE MOMENT
-------------
                                X             Y             Z
Electronic contribution:     26.74166     -10.03808      -3.72319
Nuclear contribution   :    -27.57319      10.31988       3.76850
                        -----------------------------------------
Total Dipole Moment    :     -0.83154       0.28180       0.04531
                        -----------------------------------------
Magnitude (a.u.)       :      0.87916
Magnitude (Debye)      :      2.23464

Rotational constants in cm-1:     0.018978     0.010507     0.007436
Rotational constants in MHz :   568.940898   314.996206   222.934983

                             ****ORCA TERMINATED NORMALLY****
TOTAL RUN TIME: 0 days 0 hours 0 minutes 23 seconds 283 msec
