                         Program Version 4.2.1 -  RELEASE  -
|  1> ! wB97X-D3 SP def2-SVP
|  2> %pal
|  3> nprocs 24
|  4> end
|  5>
|  6> * xyz 0 1
|  7> S 	 -102.296 	 0.661139 	 -117.924
|  8> C 	 -103.263 	 2.1073 	 -118.254
|  9> C 	 -104.235 	 2.32393 	 -117.303
| 10> C 	 -104.286 	 1.25775 	 -116.407
| 11> C 	 -103.305 	 0.306968 	 -116.57
| 12> H 	 -105.059 	 1.21107 	 -115.669
| 13> C 	 -105.24 	 3.42193 	 -117.412
| 14> H 	 -104.818 	 3.99633 	 -118.25
| 15> H 	 -105.027 	 4.12855 	 -116.612
| 16> C 	 -106.753 	 3.14755 	 -117.635
| 17> H 	 -106.986 	 2.2988 	 -118.222
| 18> H 	 -107.128 	 2.94352 	 -116.702
| 19> C 	 -107.613 	 4.30361 	 -118.217
| 20> H 	 -108.608 	 4.01043 	 -118.155
| 21> H 	 -107.529 	 5.2567 	 -117.658
| 22> H 	 -107.254 	 4.52092 	 -119.204
| 23> S 	 -101.848 	 -0.894368 	 -114.638
| 24> C 	 -102.313 	 -2.38946 	 -113.973
| 25> C 	 -103.38 	 -2.8675 	 -114.686
| 26> C 	 -103.806 	 -2.06364 	 -115.795
| 27> C 	 -103.123 	 -0.908695 	 -115.846
| 28> H 	 -103.899 	 -3.76234 	 -114.406
| 29> C 	 -105.098 	 -2.57833 	 -116.599
| 30> H 	 -105.92 	 -1.97895 	 -116.222
| 31> H 	 -105.125 	 -3.61111 	 -116.227
| 32> C 	 -105.139 	 -2.46651 	 -118.174
| 33> H 	 -104.927 	 -1.41014 	 -118.435
| 34> H 	 -106.155 	 -2.66344 	 -118.594
| 35> C 	 -104.075 	 -3.26463 	 -118.949
| 36> H 	 -104.221 	 -4.31333 	 -118.725
| 37> H 	 -103.084 	 -2.96225 	 -118.76
| 38> H 	 -104.194 	 -2.95757 	 -119.979
| 39> H 	 -103.056 	 2.69018 	 -119.167
| 40> H 	 -101.937 	 -2.86063 	 -113.118
| 41> *
| 42>
| 43>                          ****END OF INPUT****

CARTESIAN COORDINATES (ANGSTROEM)
---------------------------------
  S    -102.296000    0.661139  -117.924000
  C    -103.263000    2.107300  -118.254000
  C    -104.235000    2.323930  -117.303000
  C    -104.286000    1.257750  -116.407000
  C    -103.305000    0.306968  -116.570000
  H    -105.059000    1.211070  -115.669000
  C    -105.240000    3.421930  -117.412000
  H    -104.818000    3.996330  -118.250000
  H    -105.027000    4.128550  -116.612000
  C    -106.753000    3.147550  -117.635000
  H    -106.986000    2.298800  -118.222000
  H    -107.128000    2.943520  -116.702000
  C    -107.613000    4.303610  -118.217000
  H    -108.608000    4.010430  -118.155000
  H    -107.529000    5.256700  -117.658000
  H    -107.254000    4.520920  -119.204000
  S    -101.848000   -0.894368  -114.638000
  C    -102.313000   -2.389460  -113.973000
  C    -103.380000   -2.867500  -114.686000
  C    -103.806000   -2.063640  -115.795000
  C    -103.123000   -0.908695  -115.846000
  H    -103.899000   -3.762340  -114.406000
  C    -105.098000   -2.578330  -116.599000
  H    -105.920000   -1.978950  -116.222000
  H    -105.125000   -3.611110  -116.227000
  C    -105.139000   -2.466510  -118.174000
  H    -104.927000   -1.410140  -118.435000
  H    -106.155000   -2.663440  -118.594000
  C    -104.075000   -3.264630  -118.949000
  H    -104.221000   -4.313330  -118.725000
  H    -103.084000   -2.962250  -118.760000
  H    -104.194000   -2.957570  -119.979000
  H    -103.056000    2.690180  -119.167000
  H    -101.937000   -2.860630  -113.118000

 Total Charge           Charge          ....    0
 Multiplicity           Mult            ....    1
 Number of Electrons    NEL             ....  134
 Basis Dimension        Dim             ....  322

ORBITAL ENERGIES
----------------

  NO   OCC          E(Eh)            E(eV)
   0   2.0000     -88.966172     -2420.8926
   1   2.0000     -88.958054     -2420.6717
   2   2.0000     -10.322396      -280.8867
   3   2.0000     -10.316605      -280.7291
   4   2.0000     -10.315238      -280.6919
   5   2.0000     -10.308017      -280.4954
   6   2.0000     -10.300915      -280.3022
   7   2.0000     -10.300319      -280.2859
   8   2.0000     -10.296493      -280.1818
   9   2.0000     -10.292711      -280.0789
  10   2.0000     -10.289454      -279.9903
  11   2.0000     -10.288288      -279.9585
  12   2.0000     -10.285712      -279.8885
  13   2.0000     -10.282663      -279.8055
  14   2.0000     -10.277374      -279.6616
  15   2.0000     -10.266508      -279.3659
  16   2.0000      -8.081073      -219.8972
  17   2.0000      -8.074076      -219.7068
  18   2.0000      -6.039377      -164.3398
  19   2.0000      -6.035550      -164.2357
  20   2.0000      -6.032572      -164.1546
  21   2.0000      -6.032057      -164.1406
  22   2.0000      -6.028238      -164.0367
  23   2.0000      -6.024927      -163.9466
  24   2.0000      -1.013373       -27.5753
  25   2.0000      -0.990006       -26.9394
  26   2.0000      -0.913249       -24.8508
  27   2.0000      -0.894415       -24.3383
  28   2.0000      -0.874212       -23.7885
  29   2.0000      -0.853297       -23.2194
  30   2.0000      -0.846565       -23.0362
  31   2.0000      -0.816022       -22.2051
  32   2.0000      -0.784291       -21.3417
  33   2.0000      -0.775788       -21.1103
  34   2.0000      -0.718751       -19.5582
  35   2.0000      -0.701402       -19.0861
  36   2.0000      -0.687063       -18.6959
  37   2.0000      -0.664358       -18.0781
  38   2.0000      -0.643687       -17.5156
  39   2.0000      -0.625231       -17.0134
  40   2.0000      -0.584376       -15.9017
  41   2.0000      -0.572483       -15.5780
  42   2.0000      -0.560877       -15.2622
  43   2.0000      -0.553930       -15.0732
  44   2.0000      -0.540309       -14.7026
  45   2.0000      -0.532553       -14.4915
  46   2.0000      -0.519228       -14.1289
  47   2.0000      -0.505591       -13.7578
  48   2.0000      -0.503204       -13.6929
  49   2.0000      -0.502493       -13.6735
  50   2.0000      -0.496696       -13.5158
  51   2.0000      -0.476495       -12.9661
  52   2.0000      -0.472964       -12.8700
  53   2.0000      -0.469888       -12.7863
  54   2.0000      -0.460397       -12.5281
  55   2.0000      -0.451566       -12.2877
  56   2.0000      -0.442721       -12.0471
  57   2.0000      -0.435767       -11.8578
  58   2.0000      -0.429318       -11.6823
  59   2.0000      -0.423760       -11.5311
  60   2.0000      -0.422558       -11.4984
  61   2.0000      -0.416013       -11.3203
  62   2.0000      -0.404255       -11.0003
  63   2.0000      -0.338236        -9.2039
  64   2.0000      -0.328773        -8.9464
  65   2.0000      -0.326756        -8.8915
  66   2.0000      -0.306511        -8.3406
  67   0.0000       0.047351         1.2885
  68   0.0000       0.058623         1.5952
  69   0.0000       0.119345         3.2475
  70   0.0000       0.128246         3.4898
  71   0.0000       0.131806         3.5866

MULLIKEN ATOMIC CHARGES
-----------------------
   0 S :    0.118465
   1 C :   -0.157977
   2 C :   -0.081285
   3 C :    0.055463
   4 C :   -0.171517
   5 H :   -0.004218
   6 C :    0.079023
   7 H :   -0.001599
   8 H :    0.032648
   9 C :   -0.013861
  10 H :    0.024838
  11 H :    0.006450
  12 C :   -0.045577
  13 H :    0.028761
  14 H :    0.029298
  15 H :    0.031991
  16 S :    0.108896
  17 C :   -0.049070
  18 C :   -0.063553
  19 C :   -0.011933
  20 C :   -0.207933
  21 H :    0.008056
  22 C :    0.097231
  23 H :    0.042412
  24 H :    0.019602
  25 C :   -0.105597
  26 H :    0.034936
  27 H :    0.035875
  28 C :   -0.020172
  29 H :    0.034238
  30 H :    0.023126
  31 H :    0.027882
  32 H :    0.059034
  33 H :    0.036066
Sum of atomic charges:   -0.0000000

LOEWDIN ATOMIC CHARGES
----------------------
   0 S :    0.412872
   1 C :   -0.190449
   2 C :   -0.068913
   3 C :   -0.053318
   4 C :   -0.206944
   5 H :    0.028105
   6 C :   -0.035915
   7 H :    0.029884
   8 H :    0.035812
   9 C :   -0.028325
  10 H :    0.023594
  11 H :    0.012540
  12 C :   -0.052199
  13 H :    0.020490
  14 H :    0.027600
  15 H :    0.022147
  16 S :    0.420029
  17 C :   -0.190011
  18 C :   -0.077355
  19 C :   -0.055215
  20 C :   -0.208580
  21 H :    0.023314
  22 C :   -0.021029
  23 H :    0.034204
  24 H :    0.027235
  25 C :   -0.046753
  26 H :    0.026947
  27 H :    0.027956
  28 C :   -0.061177
  29 H :    0.022820
  30 H :    0.019089
  31 H :    0.029307
  32 H :    0.029067
  33 H :    0.023170

  Mayer bond orders larger than 0.100000
B(  0-S ,  1-C ) :   1.1485 B(  0-S ,  4-C ) :   1.1672 B(  1-C ,  2-C ) :   1.5929
B(  1-C ,  4-C ) :   0.1059 B(  1-C , 32-H ) :   0.9621 B(  2-C ,  3-C ) :   1.2589
B(  2-C ,  6-C ) :   1.0316 B(  3-C ,  4-C ) :   1.5737 B(  3-C ,  5-H ) :   1.0089
B(  4-C , 20-C ) :   1.0011 B(  6-C ,  7-H ) :   0.9366 B(  6-C ,  8-H ) :   0.9230
B(  6-C ,  9-C ) :   1.0414 B(  9-C , 10-H ) :   0.9612 B(  9-C , 11-H ) :   0.9482
B(  9-C , 12-C ) :   1.0919 B( 12-C , 13-H ) :   0.9750 B( 12-C , 14-H ) :   0.9770
B( 12-C , 15-H ) :   0.9782 B( 16-S , 17-C ) :   1.1583 B( 16-S , 20-C ) :   1.1471
B( 17-C , 18-C ) :   1.6101 B( 17-C , 33-H ) :   0.9758 B( 18-C , 19-C ) :   1.2380
B( 18-C , 21-H ) :   0.9847 B( 19-C , 20-C ) :   1.6450 B( 19-C , 22-C ) :   0.9990
B( 22-C , 23-H ) :   0.9402 B( 22-C , 24-H ) :   0.9405 B( 22-C , 25-C ) :   1.0634
B( 25-C , 26-H ) :   0.9558 B( 25-C , 27-H ) :   0.9581 B( 25-C , 28-C ) :   1.0789
B( 28-C , 29-H ) :   0.9788 B( 28-C , 30-H ) :   0.9731 B( 28-C , 31-H ) :   0.9718

Dispersion correction           -0.014635005
FINAL SINGLE POINT ENERGY     -1339.867428657970

DIPOLE MOMENT
-------------
                                X             Y             Z
Electronic contribution:     23.08889      -4.07787      11.88468
Nuclear contribution   :    -23.83244       4.19160     -11.95448
                        -----------------------------------------
Total Dipole Moment    :     -0.74355       0.11373      -0.06980
                        -----------------------------------------
Magnitude (a.u.)       :      0.75543
Magnitude (Debye)      :      1.92014

Rotational constants in cm-1:     0.019488     0.008119     0.007291
Rotational constants in MHz :   584.240793   243.393865   218.577215

                             ****ORCA TERMINATED NORMALLY****
TOTAL RUN TIME: 0 days 0 hours 0 minutes 20 seconds 561 msec
