                         Program Version 4.2.1 -  RELEASE  -
|  1> ! wB97X-D3 SP def2-SVP
|  2> %pal
|  3> nprocs 24
|  4> end
|  5>
|  6> * xyz 0 1
|  7> S 	 -114.876 	 17.5807 	 -115.333
|  8> C 	 -114.627 	 18.5079 	 -116.768
|  9> C 	 -114.555 	 17.6694 	 -117.862
| 10> C 	 -114.401 	 16.2901 	 -117.498
| 11> C 	 -114.699 	 16.06 	 -116.136
| 12> H 	 -114.266 	 15.4109 	 -118.135
| 13> C 	 -114.28 	 18.0205 	 -119.282
| 14> H 	 -113.934 	 17.0691 	 -119.82
| 15> H 	 -113.264 	 18.5106 	 -119.341
| 16> C 	 -115.413 	 18.6707 	 -120.033
| 17> H 	 -116.329 	 18.1003 	 -120.012
| 18> H 	 -115.712 	 19.6185 	 -119.58
| 19> C 	 -114.974 	 18.8809 	 -121.52
| 20> H 	 -113.998 	 19.3421 	 -121.583
| 21> H 	 -114.716 	 17.8879 	 -121.957
| 22> H 	 -115.661 	 19.397 	 -122.133
| 23> S 	 -113.08 	 13.9669 	 -115.451
| 24> C 	 -113.615 	 12.7156 	 -114.331
| 25> C 	 -114.898 	 12.9504 	 -113.928
| 26> C 	 -115.487 	 14.1311 	 -114.522
| 27> C 	 -114.619 	 14.7726 	 -115.421
| 28> H 	 -115.479 	 12.3969 	 -113.216
| 29> C 	 -116.911 	 14.5877 	 -114.296
| 30> H 	 -117.069 	 15.2086 	 -115.156
| 31> H 	 -116.821 	 15.2949 	 -113.47
| 32> C 	 -118.105 	 13.5251 	 -114.298
| 33> H 	 -119.133 	 13.7867 	 -114.187
| 34> H 	 -118.005 	 12.8851 	 -113.481
| 35> C 	 -118.135 	 12.5317 	 -115.472
| 36> H 	 -117.27 	 11.904 	 -115.444
| 37> H 	 -118.183 	 12.999 	 -116.447
| 38> H 	 -119.014 	 11.8957 	 -115.427
| 39> H 	 -114.671 	 19.5872 	 -116.812
| 40> H 	 -113.029 	 11.8416 	 -114.017
| 41> *
| 42>
| 43>                          ****END OF INPUT****

CARTESIAN COORDINATES (ANGSTROEM)
---------------------------------
  S    -114.876000   17.580700  -115.333000
  C    -114.627000   18.507900  -116.768000
  C    -114.555000   17.669400  -117.862000
  C    -114.401000   16.290100  -117.498000
  C    -114.699000   16.060000  -116.136000
  H    -114.266000   15.410900  -118.135000
  C    -114.280000   18.020500  -119.282000
  H    -113.934000   17.069100  -119.820000
  H    -113.264000   18.510600  -119.341000
  C    -115.413000   18.670700  -120.033000
  H    -116.329000   18.100300  -120.012000
  H    -115.712000   19.618500  -119.580000
  C    -114.974000   18.880900  -121.520000
  H    -113.998000   19.342100  -121.583000
  H    -114.716000   17.887900  -121.957000
  H    -115.661000   19.397000  -122.133000
  S    -113.080000   13.966900  -115.451000
  C    -113.615000   12.715600  -114.331000
  C    -114.898000   12.950400  -113.928000
  C    -115.487000   14.131100  -114.522000
  C    -114.619000   14.772600  -115.421000
  H    -115.479000   12.396900  -113.216000
  C    -116.911000   14.587700  -114.296000
  H    -117.069000   15.208600  -115.156000
  H    -116.821000   15.294900  -113.470000
  C    -118.105000   13.525100  -114.298000
  H    -119.133000   13.786700  -114.187000
  H    -118.005000   12.885100  -113.481000
  C    -118.135000   12.531700  -115.472000
  H    -117.270000   11.904000  -115.444000
  H    -118.183000   12.999000  -116.447000
  H    -119.014000   11.895700  -115.427000
  H    -114.671000   19.587200  -116.812000
  H    -113.029000   11.841600  -114.017000

 Total Charge           Charge          ....    0
 Multiplicity           Mult            ....    1
 Number of Electrons    NEL             ....  134
 Basis Dimension        Dim             ....  322

ORBITAL ENERGIES
----------------

  NO   OCC          E(Eh)            E(eV)
   0   2.0000     -88.968309     -2420.9508
   1   2.0000     -88.964756     -2420.8541
   2   2.0000     -10.330822      -281.1160
   3   2.0000     -10.326925      -281.0099
   4   2.0000     -10.319996      -280.8214
   5   2.0000     -10.315105      -280.6883
   6   2.0000     -10.304558      -280.4013
   7   2.0000     -10.300213      -280.2830
   8   2.0000     -10.296944      -280.1941
   9   2.0000     -10.296086      -280.1707
  10   2.0000     -10.293325      -280.0956
  11   2.0000     -10.293103      -280.0896
  12   2.0000     -10.288153      -279.9549
  13   2.0000     -10.284270      -279.8492
  14   2.0000     -10.277183      -279.6564
  15   2.0000     -10.269643      -279.4512
  16   2.0000      -8.083438      -219.9615
  17   2.0000      -8.079429      -219.8524
  18   2.0000      -6.041893      -164.4083
  19   2.0000      -6.037985      -164.3019
  20   2.0000      -6.037691      -164.2939
  21   2.0000      -6.034426      -164.2051
  22   2.0000      -6.033901      -164.1908
  23   2.0000      -6.030163      -164.0891
  24   2.0000      -1.007431       -27.4136
  25   2.0000      -0.985718       -26.8227
  26   2.0000      -0.913445       -24.8561
  27   2.0000      -0.901936       -24.5429
  28   2.0000      -0.869858       -23.6700
  29   2.0000      -0.852042       -23.1852
  30   2.0000      -0.847809       -23.0700
  31   2.0000      -0.814352       -22.1596
  32   2.0000      -0.778992       -21.1975
  33   2.0000      -0.768218       -20.9043
  34   2.0000      -0.711474       -19.3602
  35   2.0000      -0.708311       -19.2741
  36   2.0000      -0.695978       -18.9385
  37   2.0000      -0.661536       -18.0013
  38   2.0000      -0.644466       -17.5368
  39   2.0000      -0.609195       -16.5770
  40   2.0000      -0.591406       -16.0930
  41   2.0000      -0.572428       -15.5766
  42   2.0000      -0.554103       -15.0779
  43   2.0000      -0.551860       -15.0169
  44   2.0000      -0.544803       -14.8248
  45   2.0000      -0.531149       -14.4533
  46   2.0000      -0.515607       -14.0304
  47   2.0000      -0.514849       -14.0098
  48   2.0000      -0.506148       -13.7730
  49   2.0000      -0.495998       -13.4968
  50   2.0000      -0.489683       -13.3250
  51   2.0000      -0.477502       -12.9935
  52   2.0000      -0.469481       -12.7752
  53   2.0000      -0.461929       -12.5697
  54   2.0000      -0.455158       -12.3855
  55   2.0000      -0.454139       -12.3578
  56   2.0000      -0.448812       -12.2128
  57   2.0000      -0.439948       -11.9716
  58   2.0000      -0.434546       -11.8246
  59   2.0000      -0.421873       -11.4798
  60   2.0000      -0.419042       -11.4027
  61   2.0000      -0.409578       -11.1452
  62   2.0000      -0.405963       -11.0468
  63   2.0000      -0.344028        -9.3615
  64   2.0000      -0.333113        -9.0645
  65   2.0000      -0.325603        -8.8601
  66   2.0000      -0.296879        -8.0785
  67   0.0000       0.033330         0.9069
  68   0.0000       0.066611         1.8126
  69   0.0000       0.109205         2.9716
  70   0.0000       0.120694         3.2842
  71   0.0000       0.130748         3.5578

MULLIKEN ATOMIC CHARGES
-----------------------
   0 S :    0.127452
   1 C :   -0.118286
   2 C :   -0.049222
   3 C :   -0.007094
   4 C :   -0.154652
   5 H :    0.029010
   6 C :   -0.018388
   7 H :    0.020783
   8 H :    0.045629
   9 C :   -0.039121
  10 H :    0.031654
  11 H :    0.025468
  12 C :   -0.029206
  13 H :    0.017313
  14 H :    0.021496
  15 H :    0.033768
  16 S :    0.112082
  17 C :   -0.095694
  18 C :   -0.004786
  19 C :   -0.105606
  20 C :   -0.160334
  21 H :    0.010721
  22 C :    0.102878
  23 H :    0.024856
  24 H :    0.045751
  25 C :   -0.033206
  26 H :    0.021874
  27 H :    0.002895
  28 C :   -0.060301
  29 H :    0.027483
  30 H :    0.028271
  31 H :    0.026427
  32 H :    0.052447
  33 H :    0.067636
Sum of atomic charges:   -0.0000000

LOEWDIN ATOMIC CHARGES
----------------------
   0 S :    0.435645
   1 C :   -0.201842
   2 C :   -0.068959
   3 C :   -0.064275
   4 C :   -0.210909
   5 H :    0.034907
   6 C :   -0.048044
   7 H :    0.035210
   8 H :    0.040517
   9 C :   -0.036891
  10 H :    0.026671
  11 H :    0.022268
  12 C :   -0.063060
  13 H :    0.022851
  14 H :    0.028215
  15 H :    0.018333
  16 S :    0.412319
  17 C :   -0.184560
  18 C :   -0.071041
  19 C :   -0.057092
  20 C :   -0.210526
  21 H :    0.028587
  22 C :   -0.033066
  23 H :    0.029645
  24 H :    0.037833
  25 C :   -0.037788
  26 H :    0.026847
  27 H :    0.013253
  28 C :   -0.059503
  29 H :    0.019327
  30 H :    0.021953
  31 H :    0.026461
  32 H :    0.029919
  33 H :    0.036794

  Mayer bond orders larger than 0.100000
B(  0-S ,  1-C ) :   1.1578 B(  0-S ,  4-C ) :   1.1697 B(  1-C ,  2-C ) :   1.5750
B(  1-C , 32-H ) :   0.9728 B(  2-C ,  3-C ) :   1.2609 B(  2-C ,  6-C ) :   1.0219
B(  3-C ,  4-C ) :   1.5416 B(  3-C ,  5-H ) :   0.9905 B(  4-C , 20-C ) :   1.0200
B(  6-C ,  7-H ) :   0.9476 B(  6-C ,  8-H ) :   0.9395 B(  6-C ,  9-C ) :   1.0479
B(  9-C , 10-H ) :   0.9555 B(  9-C , 11-H ) :   0.9577 B(  9-C , 12-C ) :   1.0758
B( 12-C , 13-H ) :   0.9736 B( 12-C , 14-H ) :   0.9727 B( 12-C , 15-H ) :   0.9764
B( 16-S , 17-C ) :   1.1505 B( 16-S , 20-C ) :   1.1478 B( 17-C , 18-C ) :   1.5920
B( 17-C , 33-H ) :   0.9660 B( 18-C , 19-C ) :   1.2554 B( 18-C , 21-H ) :   0.9911
B( 19-C , 20-C ) :   1.5879 B( 19-C , 22-C ) :   1.0284 B( 22-C , 23-H ) :   0.9372
B( 22-C , 24-H ) :   0.9330 B( 22-C , 25-C ) :   1.0374 B( 25-C , 26-H ) :   0.9640
B( 25-C , 27-H ) :   0.9550 B( 25-C , 28-C ) :   1.0825 B( 28-C , 29-H ) :   0.9752
B( 28-C , 30-H ) :   0.9773 B( 28-C , 31-H ) :   0.9737

Dispersion correction           -0.014065548
FINAL SINGLE POINT ENERGY     -1339.869001295599

DIPOLE MOMENT
-------------
                                X             Y             Z
Electronic contribution:     14.79845      -0.57129      15.84803
Nuclear contribution   :    -15.06315       0.53689     -16.04787
                        -----------------------------------------
Total Dipole Moment    :     -0.26470      -0.03440      -0.19984
                        -----------------------------------------
Magnitude (a.u.)       :      0.33344
Magnitude (Debye)      :      0.84755

Rotational constants in cm-1:     0.021396     0.006997     0.006452
Rotational constants in MHz :   641.434689   209.765768   193.411462

                             ****ORCA TERMINATED NORMALLY****
TOTAL RUN TIME: 0 days 0 hours 0 minutes 21 seconds 26 msec
