                         Program Version 4.2.1 -  RELEASE  -
|  1> ! wB97X-D3 SP def2-SVP
|  2> %pal
|  3> nprocs 24
|  4> end
|  5>
|  6> * xyz 0 1
|  7> S 	 -43.5861 	 -48.549 	 -78.4121
|  8> C 	 -43.4524 	 -50.1154 	 -79.3172
|  9> C 	 -42.4145 	 -50.0027 	 -80.2966
| 10> C 	 -41.7083 	 -48.7395 	 -80.192
| 11> C 	 -42.2177 	 -47.8541 	 -79.273
| 12> H 	 -40.9685 	 -48.3173 	 -80.869
| 13> C 	 -42.0024 	 -51.0981 	 -81.2596
| 14> H 	 -42.2555 	 -50.8752 	 -82.2209
| 15> H 	 -42.6359 	 -51.9716 	 -80.9978
| 16> C 	 -40.4853 	 -51.3704 	 -81.1888
| 17> H 	 -39.8665 	 -50.5337 	 -81.5138
| 18> H 	 -40.2087 	 -51.4781 	 -80.1459
| 19> C 	 -40.0823 	 -52.6459 	 -81.8785
| 20> H 	 -39.0624 	 -52.8124 	 -81.5479
| 21> H 	 -40.6573 	 -53.4941 	 -81.5295
| 22> H 	 -40.079 	 -52.7034 	 -83.0132
| 23> S 	 -40.2594 	 -46.1141 	 -78.304
| 24> C 	 -40.4599 	 -44.3737 	 -78.2205
| 25> C 	 -41.7007 	 -44.0354 	 -78.7288
| 26> C 	 -42.4652 	 -45.1881 	 -79.2343
| 27> C 	 -41.8185 	 -46.4085 	 -78.996
| 28> H 	 -42.0445 	 -43.0071 	 -78.673
| 29> C 	 -43.9036 	 -45.162 	 -79.7509
| 30> H 	 -44.5672 	 -44.9603 	 -78.9172
| 31> H 	 -44.1022 	 -46.1749 	 -80.0263
| 32> C 	 -44.2477 	 -44.1935 	 -80.8475
| 33> H 	 -43.5861 	 -44.2744 	 -81.669
| 34> H 	 -44.0614 	 -43.2202 	 -80.5386
| 35> C 	 -45.6459 	 -44.4772 	 -81.3475
| 36> H 	 -46.5078 	 -44.1542 	 -80.8318
| 37> H 	 -45.8517 	 -45.5726 	 -81.4584
| 38> H 	 -45.6499 	 -44.0436 	 -82.3434
| 39> H 	 -43.9882 	 -51.0977 	 -79.1971
| 40> H 	 -39.888 	 -43.649 	 -77.6966
| 41> *
| 42>
| 43>                          ****END OF INPUT****

CARTESIAN COORDINATES (ANGSTROEM)
---------------------------------
  S    -43.586100  -48.549000  -78.412100
  C    -43.452400  -50.115400  -79.317200
  C    -42.414500  -50.002700  -80.296600
  C    -41.708300  -48.739500  -80.192000
  C    -42.217700  -47.854100  -79.273000
  H    -40.968500  -48.317300  -80.869000
  C    -42.002400  -51.098100  -81.259600
  H    -42.255500  -50.875200  -82.220900
  H    -42.635900  -51.971600  -80.997800
  C    -40.485300  -51.370400  -81.188800
  H    -39.866500  -50.533700  -81.513800
  H    -40.208700  -51.478100  -80.145900
  C    -40.082300  -52.645900  -81.878500
  H    -39.062400  -52.812400  -81.547900
  H    -40.657300  -53.494100  -81.529500
  H    -40.079000  -52.703400  -83.013200
  S    -40.259400  -46.114100  -78.304000
  C    -40.459900  -44.373700  -78.220500
  C    -41.700700  -44.035400  -78.728800
  C    -42.465200  -45.188100  -79.234300
  C    -41.818500  -46.408500  -78.996000
  H    -42.044500  -43.007100  -78.673000
  C    -43.903600  -45.162000  -79.750900
  H    -44.567200  -44.960300  -78.917200
  H    -44.102200  -46.174900  -80.026300
  C    -44.247700  -44.193500  -80.847500
  H    -43.586100  -44.274400  -81.669000
  H    -44.061400  -43.220200  -80.538600
  C    -45.645900  -44.477200  -81.347500
  H    -46.507800  -44.154200  -80.831800
  H    -45.851700  -45.572600  -81.458400
  H    -45.649900  -44.043600  -82.343400
  H    -43.988200  -51.097700  -79.197100
  H    -39.888000  -43.649000  -77.696600

 Total Charge           Charge          ....    0
 Multiplicity           Mult            ....    1
 Number of Electrons    NEL             ....  134
 Basis Dimension        Dim             ....  322

ORBITAL ENERGIES
----------------

  NO   OCC          E(Eh)            E(eV)
   0   2.0000     -88.970156     -2421.0010
   1   2.0000     -88.964491     -2420.8469
   2   2.0000     -10.337956      -281.3101
   3   2.0000     -10.331752      -281.1413
   4   2.0000     -10.328833      -281.0618
   5   2.0000     -10.317143      -280.7437
   6   2.0000     -10.310630      -280.5665
   7   2.0000     -10.307634      -280.4850
   8   2.0000     -10.298764      -280.2436
   9   2.0000     -10.297872      -280.2193
  10   2.0000     -10.289100      -279.9807
  11   2.0000     -10.286070      -279.8982
  12   2.0000     -10.280219      -279.7390
  13   2.0000     -10.279705      -279.7250
  14   2.0000     -10.272180      -279.5202
  15   2.0000     -10.271688      -279.5068
  16   2.0000      -8.083003      -219.9497
  17   2.0000      -8.079242      -219.8474
  18   2.0000      -6.041730      -164.4038
  19   2.0000      -6.037827      -164.2976
  20   2.0000      -6.037679      -164.2936
  21   2.0000      -6.033698      -164.1853
  22   2.0000      -6.033570      -164.1818
  23   2.0000      -6.030075      -164.0867
  24   2.0000      -0.998667       -27.1751
  25   2.0000      -0.976289       -26.5662
  26   2.0000      -0.914423       -24.8827
  27   2.0000      -0.913196       -24.8493
  28   2.0000      -0.864651       -23.5284
  29   2.0000      -0.846562       -23.0361
  30   2.0000      -0.843812       -22.9613
  31   2.0000      -0.818303       -22.2672
  32   2.0000      -0.780331       -21.2339
  33   2.0000      -0.768746       -20.9186
  34   2.0000      -0.710304       -19.3284
  35   2.0000      -0.706424       -19.2228
  36   2.0000      -0.689110       -18.7516
  37   2.0000      -0.657336       -17.8870
  38   2.0000      -0.638204       -17.3664
  39   2.0000      -0.614920       -16.7328
  40   2.0000      -0.592897       -16.1336
  41   2.0000      -0.574896       -15.6437
  42   2.0000      -0.567691       -15.4476
  43   2.0000      -0.561938       -15.2911
  44   2.0000      -0.530194       -14.4273
  45   2.0000      -0.526069       -14.3151
  46   2.0000      -0.516113       -14.0442
  47   2.0000      -0.511272       -13.9124
  48   2.0000      -0.503599       -13.7036
  49   2.0000      -0.501657       -13.6508
  50   2.0000      -0.493699       -13.4342
  51   2.0000      -0.473018       -12.8715
  52   2.0000      -0.469902       -12.7867
  53   2.0000      -0.462817       -12.5939
  54   2.0000      -0.456098       -12.4111
  55   2.0000      -0.448438       -12.2026
  56   2.0000      -0.443077       -12.0567
  57   2.0000      -0.438523       -11.9328
  58   2.0000      -0.437917       -11.9163
  59   2.0000      -0.420939       -11.4543
  60   2.0000      -0.419146       -11.4055
  61   2.0000      -0.417260       -11.3542
  62   2.0000      -0.409338       -11.1387
  63   2.0000      -0.339818        -9.2469
  64   2.0000      -0.332298        -9.0423
  65   2.0000      -0.322171        -8.7667
  66   2.0000      -0.303638        -8.2624
  67   0.0000       0.038778         1.0552
  68   0.0000       0.058577         1.5940
  69   0.0000       0.111796         3.0421
  70   0.0000       0.119559         3.2534
  71   0.0000       0.127195         3.4612

MULLIKEN ATOMIC CHARGES
-----------------------
   0 S :    0.107164
   1 C :   -0.134704
   2 C :   -0.124877
   3 C :    0.046429
   4 C :   -0.173765
   5 H :    0.023133
   6 C :    0.131996
   7 H :    0.013584
   8 H :    0.011050
   9 C :   -0.103653
  10 H :    0.037260
  11 H :    0.031925
  12 C :   -0.046007
  13 H :    0.028003
  14 H :    0.025027
  15 H :    0.041690
  16 S :    0.109767
  17 C :   -0.078443
  18 C :   -0.042181
  19 C :   -0.035367
  20 C :   -0.163181
  21 H :    0.025664
  22 C :    0.067538
  23 H :    0.033691
  24 H :    0.010269
  25 C :   -0.019613
  26 H :    0.010607
  27 H :    0.005774
  28 C :   -0.041938
  29 H :    0.025828
  30 H :    0.029469
  31 H :    0.026572
  32 H :    0.070980
  33 H :    0.050308
Sum of atomic charges:    0.0000000

LOEWDIN ATOMIC CHARGES
----------------------
   0 S :    0.387692
   1 C :   -0.202182
   2 C :   -0.052963
   3 C :   -0.069197
   4 C :   -0.187464
   5 H :    0.035668
   6 C :   -0.024097
   7 H :    0.018641
   8 H :    0.032867
   9 C :   -0.041450
  10 H :    0.026577
  11 H :    0.028401
  12 C :   -0.069229
  13 H :    0.028025
  14 H :    0.022581
  15 H :    0.029846
  16 S :    0.415164
  17 C :   -0.185349
  18 C :   -0.071946
  19 C :   -0.053656
  20 C :   -0.212933
  21 H :    0.031141
  22 C :   -0.031815
  23 H :    0.033536
  24 H :    0.019669
  25 C :   -0.033848
  26 H :    0.022131
  27 H :    0.015011
  28 C :   -0.062190
  29 H :    0.017904
  30 H :    0.032451
  31 H :    0.028438
  32 H :    0.043806
  33 H :    0.028769

  Mayer bond orders larger than 0.100000
B(  0-S ,  1-C ) :   1.1209 B(  0-S ,  4-C ) :   1.1437 B(  1-C ,  2-C ) :   1.6261
B(  1-C , 32-H ) :   0.9574 B(  2-C ,  3-C ) :   1.2098 B(  2-C ,  6-C ) :   1.0351
B(  3-C ,  4-C ) :   1.6302 B(  3-C ,  5-H ) :   0.9836 B(  4-C , 20-C ) :   0.9671
B(  6-C ,  7-H ) :   0.9285 B(  6-C ,  8-H ) :   0.9396 B(  6-C ,  9-C ) :   1.0588
B(  9-C , 10-H ) :   0.9473 B(  9-C , 11-H ) :   0.9582 B(  9-C , 12-C ) :   1.0936
B( 12-C , 13-H ) :   0.9724 B( 12-C , 14-H ) :   0.9730 B( 12-C , 15-H ) :   0.9739
B( 16-S , 17-C ) :   1.1529 B( 16-S , 20-C ) :   1.1509 B( 17-C , 18-C ) :   1.6208
B( 17-C , 33-H ) :   0.9691 B( 18-C , 19-C ) :   1.2230 B( 18-C , 21-H ) :   0.9880
B( 19-C , 20-C ) :   1.5998 B( 19-C , 22-C ) :   1.0441 B( 22-C , 23-H ) :   0.9352
B( 22-C , 24-H ) :   0.9306 B( 22-C , 25-C ) :   1.0697 B( 25-C , 26-H ) :   0.9546
B( 25-C , 27-H ) :   0.9486 B( 25-C , 28-C ) :   1.0822 B( 28-C , 29-H ) :   0.9762
B( 28-C , 30-H ) :   0.9736 B( 28-C , 31-H ) :   0.9754

Dispersion correction           -0.013634067
FINAL SINGLE POINT ENERGY     -1339.866522762665

DIPOLE MOMENT
-------------
                                X             Y             Z
Electronic contribution:      5.22138       6.57610      17.82807
Nuclear contribution   :     -5.30833      -6.58806     -18.22223
                        -----------------------------------------
Total Dipole Moment    :     -0.08695      -0.01196      -0.39416
                        -----------------------------------------
Magnitude (a.u.)       :      0.40381
Magnitude (Debye)      :      1.02640

Rotational constants in cm-1:     0.018718     0.007565     0.006394
Rotational constants in MHz :   561.151262   226.803998   191.698359

                             ****ORCA TERMINATED NORMALLY****
TOTAL RUN TIME: 0 days 0 hours 0 minutes 20 seconds 756 msec
