                         Program Version 4.2.1 -  RELEASE  -
|  1> ! wB97X-D3 SP def2-SVP
|  2> %pal
|  3> nprocs 24
|  4> end
|  5>
|  6> * xyz 0 1
|  7> S 	 23.0198 	 -6.00459 	 -115.672
|  8> C 	 23.7368 	 -7.45303 	 -115
|  9> C 	 24.4801 	 -7.28524 	 -113.86
| 10> C 	 24.1843 	 -5.96635 	 -113.302
| 11> C 	 23.3567 	 -5.17342 	 -114.13
| 12> H 	 24.6144 	 -5.60404 	 -112.377
| 13> C 	 25.2385 	 -8.41612 	 -113.127
| 14> H 	 24.5058 	 -8.89461 	 -112.448
| 15> H 	 25.905 	 -7.96575 	 -112.452
| 16> C 	 25.9122 	 -9.5794 	 -113.932
| 17> H 	 25.244 	 -10.1019 	 -114.538
| 18> H 	 26.6891 	 -9.0767 	 -114.592
| 19> C 	 26.5069 	 -10.7123 	 -113.038
| 20> H 	 25.7239 	 -11.1665 	 -112.378
| 21> H 	 26.8898 	 -11.5065 	 -113.601
| 22> H 	 27.3663 	 -10.3642 	 -112.426
| 23> S 	 23.7018 	 -2.52431 	 -114.735
| 24> C 	 22.4791 	 -1.40383 	 -114.257
| 25> C 	 21.4493 	 -1.95949 	 -113.464
| 26> C 	 21.7058 	 -3.36261 	 -113.109
| 27> C 	 22.8238 	 -3.80686 	 -113.918
| 28> H 	 20.6358 	 -1.40775 	 -112.959
| 29> C 	 20.8386 	 -4.1716 	 -112.145
| 30> H 	 21.4522 	 -4.56336 	 -111.367
| 31> H 	 20.529 	 -5.11625 	 -112.624
| 32> C 	 19.634 	 -3.40627 	 -111.449
| 33> H 	 18.9735 	 -3.16721 	 -112.301
| 34> H 	 20.0918 	 -2.53363 	 -110.95
| 35> C 	 18.7905 	 -4.33927 	 -110.502
| 36> H 	 19.4358 	 -5.16742 	 -110.168
| 37> H 	 17.9358 	 -4.79769 	 -111.065
| 38> H 	 18.4466 	 -3.72846 	 -109.658
| 39> H 	 23.7598 	 -8.42528 	 -115.526
| 40> H 	 22.4996 	 -0.363274 	 -114.536
| 41> *
| 42>
| 43>                          ****END OF INPUT****

CARTESIAN COORDINATES (ANGSTROEM)
---------------------------------
  S     23.019800   -6.004590  -115.672000
  C     23.736800   -7.453030  -115.000000
  C     24.480100   -7.285240  -113.860000
  C     24.184300   -5.966350  -113.302000
  C     23.356700   -5.173420  -114.130000
  H     24.614400   -5.604040  -112.377000
  C     25.238500   -8.416120  -113.127000
  H     24.505800   -8.894610  -112.448000
  H     25.905000   -7.965750  -112.452000
  C     25.912200   -9.579400  -113.932000
  H     25.244000  -10.101900  -114.538000
  H     26.689100   -9.076700  -114.592000
  C     26.506900  -10.712300  -113.038000
  H     25.723900  -11.166500  -112.378000
  H     26.889800  -11.506500  -113.601000
  H     27.366300  -10.364200  -112.426000
  S     23.701800   -2.524310  -114.735000
  C     22.479100   -1.403830  -114.257000
  C     21.449300   -1.959490  -113.464000
  C     21.705800   -3.362610  -113.109000
  C     22.823800   -3.806860  -113.918000
  H     20.635800   -1.407750  -112.959000
  C     20.838600   -4.171600  -112.145000
  H     21.452200   -4.563360  -111.367000
  H     20.529000   -5.116250  -112.624000
  C     19.634000   -3.406270  -111.449000
  H     18.973500   -3.167210  -112.301000
  H     20.091800   -2.533630  -110.950000
  C     18.790500   -4.339270  -110.502000
  H     19.435800   -5.167420  -110.168000
  H     17.935800   -4.797690  -111.065000
  H     18.446600   -3.728460  -109.658000
  H     23.759800   -8.425280  -115.526000
  H     22.499600   -0.363274  -114.536000

 Total Charge           Charge          ....    0
 Multiplicity           Mult            ....    1
 Number of Electrons    NEL             ....  134
 Basis Dimension        Dim             ....  322

ORBITAL ENERGIES
----------------

  NO   OCC          E(Eh)            E(eV)
   0   2.0000     -88.969377     -2420.9798
   1   2.0000     -88.963889     -2420.8305
   2   2.0000     -10.331602      -281.1372
   3   2.0000     -10.328254      -281.0461
   4   2.0000     -10.316704      -280.7318
   5   2.0000     -10.314905      -280.6828
   6   2.0000     -10.310546      -280.5642
   7   2.0000     -10.303146      -280.3629
   8   2.0000     -10.300839      -280.3001
   9   2.0000     -10.300007      -280.2774
  10   2.0000     -10.297693      -280.2145
  11   2.0000     -10.296428      -280.1801
  12   2.0000     -10.294859      -280.1373
  13   2.0000     -10.294424      -280.1255
  14   2.0000     -10.288997      -279.9778
  15   2.0000     -10.284132      -279.8454
  16   2.0000      -8.084072      -219.9788
  17   2.0000      -8.078174      -219.8183
  18   2.0000      -6.042425      -164.4227
  19   2.0000      -6.038631      -164.3195
  20   2.0000      -6.036684      -164.2665
  21   2.0000      -6.034975      -164.2200
  22   2.0000      -6.032968      -164.1654
  23   2.0000      -6.028746      -164.0505
  24   2.0000      -0.993704       -27.0400
  25   2.0000      -0.973220       -26.4827
  26   2.0000      -0.903065       -24.5736
  27   2.0000      -0.901165       -24.5220
  28   2.0000      -0.858499       -23.3609
  29   2.0000      -0.845600       -23.0099
  30   2.0000      -0.842578       -22.9277
  31   2.0000      -0.804758       -21.8986
  32   2.0000      -0.782831       -21.3019
  33   2.0000      -0.765998       -20.8439
  34   2.0000      -0.708621       -19.2826
  35   2.0000      -0.702934       -19.1278
  36   2.0000      -0.687393       -18.7049
  37   2.0000      -0.643739       -17.5170
  38   2.0000      -0.632164       -17.2021
  39   2.0000      -0.610389       -16.6095
  40   2.0000      -0.594952       -16.1895
  41   2.0000      -0.568393       -15.4668
  42   2.0000      -0.567656       -15.4467
  43   2.0000      -0.555847       -15.1254
  44   2.0000      -0.521123       -14.1805
  45   2.0000      -0.520268       -14.1572
  46   2.0000      -0.509889       -13.8748
  47   2.0000      -0.508237       -13.8298
  48   2.0000      -0.496124       -13.5002
  49   2.0000      -0.491399       -13.3716
  50   2.0000      -0.481329       -13.0976
  51   2.0000      -0.475093       -12.9279
  52   2.0000      -0.467939       -12.7333
  53   2.0000      -0.461743       -12.5647
  54   2.0000      -0.457918       -12.4606
  55   2.0000      -0.454037       -12.3550
  56   2.0000      -0.445501       -12.1227
  57   2.0000      -0.437409       -11.9025
  58   2.0000      -0.433698       -11.8015
  59   2.0000      -0.427980       -11.6459
  60   2.0000      -0.427007       -11.6195
  61   2.0000      -0.423289       -11.5183
  62   2.0000      -0.415200       -11.2982
  63   2.0000      -0.332864        -9.0577
  64   2.0000      -0.325473        -8.8566
  65   2.0000      -0.318712        -8.6726
  66   2.0000      -0.295693        -8.0462
  67   0.0000       0.040968         1.1148
  68   0.0000       0.051672         1.4061
  69   0.0000       0.112804         3.0696
  70   0.0000       0.115010         3.1296
  71   0.0000       0.128684         3.5017

MULLIKEN ATOMIC CHARGES
-----------------------
   0 S :    0.116882
   1 C :   -0.138846
   2 C :   -0.080708
   3 C :    0.046344
   4 C :   -0.174871
   5 H :    0.010897
   6 C :    0.068204
   7 H :    0.037582
   8 H :    0.008521
   9 C :   -0.081600
  10 H :    0.023059
  11 H :    0.047464
  12 C :   -0.059332
  13 H :    0.038009
  14 H :    0.024989
  15 H :    0.036941
  16 S :    0.137819
  17 C :   -0.084883
  18 C :   -0.055341
  19 C :   -0.028740
  20 C :   -0.206498
  21 H :    0.035292
  22 C :    0.061892
  23 H :    0.020113
  24 H :    0.038775
  25 C :   -0.142790
  26 H :    0.051253
  27 H :    0.054136
  28 C :   -0.043209
  29 H :    0.035467
  30 H :    0.048546
  31 H :    0.046388
  32 H :    0.052946
  33 H :    0.055295
Sum of atomic charges:   -0.0000000

LOEWDIN ATOMIC CHARGES
----------------------
   0 S :    0.389435
   1 C :   -0.198917
   2 C :   -0.066954
   3 C :   -0.053947
   4 C :   -0.194847
   5 H :    0.029362
   6 C :   -0.030820
   7 H :    0.037285
   8 H :    0.021789
   9 C :   -0.037074
  10 H :    0.013572
  11 H :    0.033623
  12 C :   -0.064537
  13 H :    0.031052
  14 H :    0.019229
  15 H :    0.027774
  16 S :    0.428962
  17 C :   -0.198938
  18 C :   -0.078238
  19 C :   -0.039125
  20 C :   -0.218333
  21 H :    0.034630
  22 C :   -0.040148
  23 H :    0.027534
  24 H :    0.037714
  25 C :   -0.045246
  26 H :    0.029567
  27 H :    0.027308
  28 C :   -0.067030
  29 H :    0.026259
  30 H :    0.034386
  31 H :    0.030983
  32 H :    0.028725
  33 H :    0.024966

  Mayer bond orders larger than 0.100000
B(  0-S ,  1-C ) :   1.1383 B(  0-S ,  4-C ) :   1.1353 B(  1-C ,  2-C ) :   1.6471
B(  1-C , 32-H ) :   0.9583 B(  2-C ,  3-C ) :   1.2118 B(  2-C ,  6-C ) :   1.0147
B(  3-C ,  4-C ) :   1.6079 B(  3-C ,  5-H ) :   0.9943 B(  4-C , 20-C ) :   1.0194
B(  6-C ,  7-H ) :   0.9386 B(  6-C ,  8-H ) :   0.9416 B(  6-C ,  9-C ) :   1.0573
B(  9-C , 10-H ) :   0.9536 B(  9-C , 11-H ) :   0.9606 B(  9-C , 12-C ) :   1.0830
B( 12-C , 13-H ) :   0.9734 B( 12-C , 14-H ) :   0.9753 B( 12-C , 15-H ) :   0.9771
B( 16-S , 17-C ) :   1.1654 B( 16-S , 20-C ) :   1.1740 B( 17-C , 18-C ) :   1.5816
B( 17-C , 20-C ) :   0.1050 B( 17-C , 33-H ) :   0.9657 B( 18-C , 19-C ) :   1.2744
B( 18-C , 21-H ) :   0.9714 B( 19-C , 20-C ) :   1.5602 B( 19-C , 22-C ) :   1.0344
B( 22-C , 23-H ) :   0.9228 B( 22-C , 24-H ) :   0.9297 B( 22-C , 25-C ) :   1.0679
B( 25-C , 26-H ) :   0.9579 B( 25-C , 27-H ) :   0.9573 B( 25-C , 28-C ) :   1.0636
B( 28-C , 29-H ) :   0.9778 B( 28-C , 30-H ) :   0.9776 B( 28-C , 31-H ) :   0.9763

Dispersion correction           -0.013050159
FINAL SINGLE POINT ENERGY     -1339.862351938410

DIPOLE MOMENT
-------------
                                X             Y             Z
Electronic contribution:      3.68784      18.02153     -18.63321
Nuclear contribution   :     -3.75270     -18.38028      19.22556
                        -----------------------------------------
Total Dipole Moment    :     -0.06486      -0.35875       0.59236
                        -----------------------------------------
Magnitude (a.u.)       :      0.69556
Magnitude (Debye)      :      1.76796

Rotational constants in cm-1:     0.019360     0.006682     0.005500
Rotational constants in MHz :   580.409087   200.313906   164.888222

                             ****ORCA TERMINATED NORMALLY****
TOTAL RUN TIME: 0 days 0 hours 0 minutes 19 seconds 802 msec
