                         Program Version 4.2.1 -  RELEASE  -
|  1> ! wB97X-D3 SP def2-SVP
|  2> %pal
|  3> nprocs 24
|  4> end
|  5>
|  6> * xyz 0 1
|  7> S 	 -109.373 	 19.9505 	 -114.057
|  8> C 	 -108.078 	 18.7514 	 -114.271
|  9> C 	 -107.658 	 18.6679 	 -115.586
| 10> C 	 -108.158 	 19.796 	 -116.369
| 11> C 	 -109.138 	 20.5479 	 -115.741
| 12> H 	 -107.876 	 20.0361 	 -117.434
| 13> C 	 -106.684 	 17.67 	 -116.077
| 14> H 	 -107.046 	 17.196 	 -116.966
| 15> H 	 -106.53 	 16.8494 	 -115.455
| 16> C 	 -105.273 	 18.2675 	 -116.502
| 17> H 	 -104.545 	 17.4558 	 -116.701
| 18> H 	 -105.463 	 18.8215 	 -117.503
| 19> C 	 -104.507 	 19.157 	 -115.453
| 20> H 	 -103.488 	 19.3293 	 -115.9
| 21> H 	 -104.881 	 20.2023 	 -115.422
| 22> H 	 -104.597 	 18.6474 	 -114.561
| 23> S 	 -109.996 	 23.1676 	 -115.313
| 24> C 	 -110.65 	 24.1545 	 -116.623
| 25> C 	 -110.974 	 23.3733 	 -117.736
| 26> C 	 -110.488 	 21.9887 	 -117.591
| 27> C 	 -109.852 	 21.7706 	 -116.301
| 28> H 	 -111.501 	 23.7275 	 -118.586
| 29> C 	 -110.546 	 20.9134 	 -118.668
| 30> H 	 -111.525 	 20.8905 	 -119.239
| 31> H 	 -110.501 	 19.9359 	 -118.243
| 32> C 	 -109.337 	 20.7845 	 -119.715
| 33> H 	 -108.523 	 21.4381 	 -119.39
| 34> H 	 -109.778 	 21.1802 	 -120.635
| 35> C 	 -108.764 	 19.4094 	 -120.071
| 36> H 	 -107.854 	 19.4991 	 -120.671
| 37> H 	 -109.699 	 18.9807 	 -120.649
| 38> H 	 -108.677 	 18.919 	 -119.152
| 39> H 	 -107.701 	 18.0665 	 -113.521
| 40> H 	 -111 	 25.1879 	 -116.494
| 41> *
| 42>
| 43>                          ****END OF INPUT****

CARTESIAN COORDINATES (ANGSTROEM)
---------------------------------
  S    -109.373000   19.950500  -114.057000
  C    -108.078000   18.751400  -114.271000
  C    -107.658000   18.667900  -115.586000
  C    -108.158000   19.796000  -116.369000
  C    -109.138000   20.547900  -115.741000
  H    -107.876000   20.036100  -117.434000
  C    -106.684000   17.670000  -116.077000
  H    -107.046000   17.196000  -116.966000
  H    -106.530000   16.849400  -115.455000
  C    -105.273000   18.267500  -116.502000
  H    -104.545000   17.455800  -116.701000
  H    -105.463000   18.821500  -117.503000
  C    -104.507000   19.157000  -115.453000
  H    -103.488000   19.329300  -115.900000
  H    -104.881000   20.202300  -115.422000
  H    -104.597000   18.647400  -114.561000
  S    -109.996000   23.167600  -115.313000
  C    -110.650000   24.154500  -116.623000
  C    -110.974000   23.373300  -117.736000
  C    -110.488000   21.988700  -117.591000
  C    -109.852000   21.770600  -116.301000
  H    -111.501000   23.727500  -118.586000
  C    -110.546000   20.913400  -118.668000
  H    -111.525000   20.890500  -119.239000
  H    -110.501000   19.935900  -118.243000
  C    -109.337000   20.784500  -119.715000
  H    -108.523000   21.438100  -119.390000
  H    -109.778000   21.180200  -120.635000
  C    -108.764000   19.409400  -120.071000
  H    -107.854000   19.499100  -120.671000
  H    -109.699000   18.980700  -120.649000
  H    -108.677000   18.919000  -119.152000
  H    -107.701000   18.066500  -113.521000
  H    -111.000000   25.187900  -116.494000

 Total Charge           Charge          ....    0
 Multiplicity           Mult            ....    1
 Number of Electrons    NEL             ....  134
 Basis Dimension        Dim             ....  322

ORBITAL ENERGIES
----------------

  NO   OCC          E(Eh)            E(eV)
   0   2.0000     -88.970569     -2421.0123
   1   2.0000     -88.968553     -2420.9574
   2   2.0000     -10.342910      -281.4449
   3   2.0000     -10.338947      -281.3370
   4   2.0000     -10.324963      -280.9565
   5   2.0000     -10.319018      -280.7947
   6   2.0000     -10.319013      -280.7946
   7   2.0000     -10.306465      -280.4532
   8   2.0000     -10.305565      -280.4287
   9   2.0000     -10.303739      -280.3790
  10   2.0000     -10.299746      -280.2703
  11   2.0000     -10.297421      -280.2071
  12   2.0000     -10.289001      -279.9779
  13   2.0000     -10.287304      -279.9318
  14   2.0000     -10.286985      -279.9231
  15   2.0000     -10.278769      -279.6995
  16   2.0000      -8.085271      -220.0114
  17   2.0000      -8.081928      -219.9205
  18   2.0000      -6.043796      -164.4601
  19   2.0000      -6.040689      -164.3755
  20   2.0000      -6.039647      -164.3471
  21   2.0000      -6.036724      -164.2676
  22   2.0000      -6.036146      -164.2519
  23   2.0000      -6.032399      -164.1499
  24   2.0000      -0.997058       -27.1313
  25   2.0000      -0.977762       -26.6063
  26   2.0000      -0.905573       -24.6419
  27   2.0000      -0.902218       -24.5506
  28   2.0000      -0.861861       -23.4524
  29   2.0000      -0.849906       -23.1271
  30   2.0000      -0.840299       -22.8657
  31   2.0000      -0.818450       -22.2712
  32   2.0000      -0.784347       -21.3432
  33   2.0000      -0.768626       -20.9154
  34   2.0000      -0.701105       -19.0780
  35   2.0000      -0.689110       -18.7516
  36   2.0000      -0.687226       -18.7004
  37   2.0000      -0.658757       -17.9257
  38   2.0000      -0.638717       -17.3804
  39   2.0000      -0.620244       -16.8777
  40   2.0000      -0.597328       -16.2541
  41   2.0000      -0.567995       -15.4559
  42   2.0000      -0.562709       -15.3121
  43   2.0000      -0.555080       -15.1045
  44   2.0000      -0.534840       -14.5537
  45   2.0000      -0.533599       -14.5200
  46   2.0000      -0.519013       -14.1231
  47   2.0000      -0.515557       -14.0290
  48   2.0000      -0.504009       -13.7148
  49   2.0000      -0.494675       -13.4608
  50   2.0000      -0.487700       -13.2710
  51   2.0000      -0.475672       -12.9437
  52   2.0000      -0.472470       -12.8566
  53   2.0000      -0.467599       -12.7240
  54   2.0000      -0.459385       -12.5005
  55   2.0000      -0.445473       -12.1219
  56   2.0000      -0.441368       -12.0102
  57   2.0000      -0.434225       -11.8159
  58   2.0000      -0.431827       -11.7506
  59   2.0000      -0.419459       -11.4141
  60   2.0000      -0.416482       -11.3331
  61   2.0000      -0.413671       -11.2565
  62   2.0000      -0.406889       -11.0720
  63   2.0000      -0.350438        -9.5359
  64   2.0000      -0.329703        -8.9717
  65   2.0000      -0.325327        -8.8526
  66   2.0000      -0.294064        -8.0019
  67   0.0000       0.023851         0.6490
  68   0.0000       0.069753         1.8981
  69   0.0000       0.100919         2.7461
  70   0.0000       0.110983         3.0200
  71   0.0000       0.121339         3.3018

MULLIKEN ATOMIC CHARGES
-----------------------
   0 S :    0.097677
   1 C :   -0.118660
   2 C :   -0.074386
   3 C :   -0.000029
   4 C :   -0.120876
   5 H :    0.030488
   6 C :    0.111118
   7 H :    0.026231
   8 H :   -0.001590
   9 C :   -0.159250
  10 H :    0.039172
  11 H :    0.039838
  12 C :   -0.035092
  13 H :    0.042646
  14 H :    0.044992
  15 H :    0.027598
  16 S :    0.119270
  17 C :   -0.108670
  18 C :   -0.003975
  19 C :   -0.043856
  20 C :   -0.159663
  21 H :    0.015644
  22 C :    0.044798
  23 H :    0.039731
  24 H :    0.010803
  25 C :   -0.128594
  26 H :    0.039325
  27 H :    0.028653
  28 C :   -0.055468
  29 H :    0.059615
  30 H :    0.045821
  31 H :    0.023628
  32 H :    0.049648
  33 H :    0.073414
Sum of atomic charges:   -0.0000000

LOEWDIN ATOMIC CHARGES
----------------------
   0 S :    0.365429
   1 C :   -0.183613
   2 C :   -0.059288
   3 C :   -0.066602
   4 C :   -0.173898
   5 H :    0.041001
   6 C :   -0.034336
   7 H :    0.034730
   8 H :    0.020443
   9 C :   -0.044859
  10 H :    0.025237
  11 H :    0.025974
  12 C :   -0.065641
  13 H :    0.035949
  14 H :    0.031397
  15 H :    0.013976
  16 S :    0.425776
  17 C :   -0.189964
  18 C :   -0.060618
  19 C :   -0.050647
  20 C :   -0.211899
  21 H :    0.028580
  22 C :   -0.043050
  23 H :    0.038056
  24 H :    0.024450
  25 C :   -0.050546
  26 H :    0.017768
  27 H :    0.021310
  28 C :   -0.067012
  29 H :    0.034841
  30 H :    0.042184
  31 H :    0.009258
  32 H :    0.030214
  33 H :    0.035400

  Mayer bond orders larger than 0.100000
B(  0-S ,  1-C ) :   1.1191 B(  0-S ,  4-C ) :   1.1235 B(  1-C ,  2-C ) :   1.6387
B(  1-C , 32-H ) :   0.9640 B(  2-C ,  3-C ) :   1.1867 B(  2-C ,  6-C ) :   1.0571
B(  3-C ,  4-C ) :   1.6238 B(  3-C ,  5-H ) :   0.9754 B(  4-C , 20-C ) :   1.0275
B(  6-C ,  7-H ) :   0.9299 B(  6-C ,  8-H ) :   0.9344 B(  6-C ,  9-C ) :   1.0589
B(  9-C , 10-H ) :   0.9617 B(  9-C , 11-H ) :   0.9576 B(  9-C , 12-C ) :   1.0623
B( 12-C , 13-H ) :   0.9753 B( 12-C , 14-H ) :   0.9743 B( 12-C , 15-H ) :   0.9789
B( 16-S , 17-C ) :   1.1611 B( 16-S , 20-C ) :   1.1686 B( 17-C , 18-C ) :   1.5817
B( 17-C , 33-H ) :   0.9647 B( 18-C , 19-C ) :   1.2610 B( 18-C , 21-H ) :   0.9950
B( 19-C , 20-C ) :   1.5338 B( 19-C , 22-C ) :   1.0693 B( 22-C , 23-H ) :   0.9429
B( 22-C , 24-H ) :   0.9372 B( 22-C , 25-C ) :   1.0178 B( 25-C , 26-H ) :   0.9623
B( 25-C , 27-H ) :   0.9630 B( 25-C , 28-C ) :   1.0683 B( 28-C , 29-H ) :   0.9720
B( 28-C , 30-H ) :   0.9782 B( 28-C , 31-H ) :   0.9723

Dispersion correction           -0.015244082
FINAL SINGLE POINT ENERGY     -1339.847300144649

DIPOLE MOMENT
-------------
                                X             Y             Z
Electronic contribution:    -16.13337      13.96031      19.74635
Nuclear contribution   :     16.35053     -14.21354     -20.31459
                        -----------------------------------------
Total Dipole Moment    :      0.21717      -0.25323      -0.56824
                        -----------------------------------------
Magnitude (a.u.)       :      0.65893
Magnitude (Debye)      :      1.67487

Rotational constants in cm-1:     0.017622     0.009567     0.007267
Rotational constants in MHz :   528.280259   286.812503   217.858342

                             ****ORCA TERMINATED NORMALLY****
TOTAL RUN TIME: 0 days 0 hours 0 minutes 22 seconds 128 msec
