                         Program Version 4.2.1 -  RELEASE  -
|  1> ! wB97X-D3 SP def2-SVP
|  2> %pal
|  3> nprocs 24
|  4> end
|  5>
|  6> * xyz 0 1
|  7> S 	 34.8867 	 -29.9504 	 -117.685
|  8> C 	 36.1909 	 -29.6335 	 -116.545
|  9> C 	 37.4337 	 -29.8357 	 -117.149
| 10> C 	 37.3162 	 -30.5145 	 -118.414
| 11> C 	 36.0081 	 -30.7132 	 -118.789
| 12> H 	 38.1219 	 -30.6702 	 -119.071
| 13> C 	 38.6827 	 -29.3028 	 -116.464
| 14> H 	 38.6273 	 -28.3191 	 -116.044
| 15> H 	 39.5075 	 -29.2609 	 -117.271
| 16> C 	 39.1873 	 -30.2231 	 -115.354
| 17> H 	 39.595 	 -31.1388 	 -115.792
| 18> H 	 40.0129 	 -29.6892 	 -114.97
| 19> C 	 38.1413 	 -30.5461 	 -114.244
| 20> H 	 37.594 	 -29.6809 	 -113.956
| 21> H 	 37.3987 	 -31.1944 	 -114.659
| 22> H 	 38.5583 	 -31.0932 	 -113.408
| 23> S 	 34.5122 	 -30.1307 	 -121.078
| 24> C 	 34.433 	 -31.2824 	 -122.479
| 25> C 	 35.4572 	 -32.1639 	 -122.25
| 26> C 	 36.0717 	 -32.1366 	 -120.964
| 27> C 	 35.6002 	 -31.137 	 -120.164
| 28> H 	 35.6769 	 -32.9109 	 -123.017
| 29> C 	 37.0559 	 -33.2752 	 -120.597
| 30> H 	 37.956 	 -32.6835 	 -120.398
| 31> H 	 37.207 	 -33.9004 	 -121.452
| 32> C 	 36.6212 	 -34.0656 	 -119.403
| 33> H 	 35.8105 	 -34.5658 	 -119.766
| 34> H 	 36.2255 	 -33.5132 	 -118.583
| 35> C 	 37.7844 	 -34.9621 	 -118.889
| 36> H 	 38.0165 	 -35.8142 	 -119.569
| 37> H 	 37.5928 	 -35.3694 	 -117.875
| 38> H 	 38.6297 	 -34.3005 	 -118.689
| 39> H 	 36.206 	 -28.972 	 -115.689
| 40> H 	 33.832 	 -31.3119 	 -123.378
| 41> *
| 42>
| 43>                          ****END OF INPUT****

CARTESIAN COORDINATES (ANGSTROEM)
---------------------------------
  S     34.886700  -29.950400  -117.685000
  C     36.190900  -29.633500  -116.545000
  C     37.433700  -29.835700  -117.149000
  C     37.316200  -30.514500  -118.414000
  C     36.008100  -30.713200  -118.789000
  H     38.121900  -30.670200  -119.071000
  C     38.682700  -29.302800  -116.464000
  H     38.627300  -28.319100  -116.044000
  H     39.507500  -29.260900  -117.271000
  C     39.187300  -30.223100  -115.354000
  H     39.595000  -31.138800  -115.792000
  H     40.012900  -29.689200  -114.970000
  C     38.141300  -30.546100  -114.244000
  H     37.594000  -29.680900  -113.956000
  H     37.398700  -31.194400  -114.659000
  H     38.558300  -31.093200  -113.408000
  S     34.512200  -30.130700  -121.078000
  C     34.433000  -31.282400  -122.479000
  C     35.457200  -32.163900  -122.250000
  C     36.071700  -32.136600  -120.964000
  C     35.600200  -31.137000  -120.164000
  H     35.676900  -32.910900  -123.017000
  C     37.055900  -33.275200  -120.597000
  H     37.956000  -32.683500  -120.398000
  H     37.207000  -33.900400  -121.452000
  C     36.621200  -34.065600  -119.403000
  H     35.810500  -34.565800  -119.766000
  H     36.225500  -33.513200  -118.583000
  C     37.784400  -34.962100  -118.889000
  H     38.016500  -35.814200  -119.569000
  H     37.592800  -35.369400  -117.875000
  H     38.629700  -34.300500  -118.689000
  H     36.206000  -28.972000  -115.689000
  H     33.832000  -31.311900  -123.378000

 Total Charge           Charge          ....    0
 Multiplicity           Mult            ....    1
 Number of Electrons    NEL             ....  134
 Basis Dimension        Dim             ....  322

ORBITAL ENERGIES
----------------

  NO   OCC          E(Eh)            E(eV)
   0   2.0000     -88.972755     -2421.0717
   1   2.0000     -88.962413     -2420.7903
   2   2.0000     -10.336044      -281.2581
   3   2.0000     -10.328419      -281.0506
   4   2.0000     -10.320482      -280.8346
   5   2.0000     -10.314146      -280.6622
   6   2.0000     -10.305055      -280.4148
   7   2.0000     -10.299446      -280.2622
   8   2.0000     -10.298059      -280.2244
   9   2.0000     -10.297431      -280.2073
  10   2.0000     -10.291793      -280.0539
  11   2.0000     -10.287933      -279.9489
  12   2.0000     -10.284517      -279.8559
  13   2.0000     -10.280788      -279.7545
  14   2.0000     -10.272691      -279.5341
  15   2.0000     -10.270642      -279.4784
  16   2.0000      -8.086803      -220.0531
  17   2.0000      -8.076342      -219.7685
  18   2.0000      -6.045366      -164.5028
  19   2.0000      -6.041497      -164.3975
  20   2.0000      -6.037438      -164.2870
  21   2.0000      -6.035125      -164.2241
  22   2.0000      -6.030963      -164.1109
  23   2.0000      -6.026820      -163.9981
  24   2.0000      -1.006948       -27.4005
  25   2.0000      -0.984172       -26.7807
  26   2.0000      -0.914692       -24.8900
  27   2.0000      -0.910789       -24.7838
  28   2.0000      -0.866427       -23.5767
  29   2.0000      -0.849609       -23.1190
  30   2.0000      -0.839754       -22.8509
  31   2.0000      -0.817146       -22.2357
  32   2.0000      -0.786952       -21.4141
  33   2.0000      -0.771350       -20.9895
  34   2.0000      -0.713557       -19.4169
  35   2.0000      -0.700787       -19.0694
  36   2.0000      -0.693153       -18.8617
  37   2.0000      -0.662015       -18.0143
  38   2.0000      -0.641184       -17.4475
  39   2.0000      -0.622785       -16.9468
  40   2.0000      -0.588236       -16.0067
  41   2.0000      -0.573273       -15.5996
  42   2.0000      -0.572611       -15.5815
  43   2.0000      -0.551134       -14.9971
  44   2.0000      -0.540498       -14.7077
  45   2.0000      -0.519319       -14.1314
  46   2.0000      -0.517676       -14.0867
  47   2.0000      -0.513277       -13.9670
  48   2.0000      -0.502487       -13.6734
  49   2.0000      -0.497838       -13.5469
  50   2.0000      -0.490948       -13.3594
  51   2.0000      -0.487063       -13.2537
  52   2.0000      -0.472761       -12.8645
  53   2.0000      -0.469743       -12.7824
  54   2.0000      -0.461236       -12.5509
  55   2.0000      -0.451489       -12.2857
  56   2.0000      -0.442058       -12.0290
  57   2.0000      -0.434832       -11.8324
  58   2.0000      -0.427599       -11.6356
  59   2.0000      -0.425927       -11.5901
  60   2.0000      -0.424851       -11.5608
  61   2.0000      -0.415503       -11.3064
  62   2.0000      -0.407034       -11.0760
  63   2.0000      -0.350863        -9.5475
  64   2.0000      -0.331924        -9.0321
  65   2.0000      -0.326035        -8.8719
  66   2.0000      -0.294410        -8.0113
  67   0.0000       0.021478         0.5845
  68   0.0000       0.070022         1.9054
  69   0.0000       0.098484         2.6799
  70   0.0000       0.122741         3.3399
  71   0.0000       0.132057         3.5934

MULLIKEN ATOMIC CHARGES
-----------------------
   0 S :    0.123266
   1 C :   -0.089176
   2 C :   -0.127604
   3 C :    0.051028
   4 C :   -0.142182
   5 H :    0.002361
   6 C :    0.009101
   7 H :    0.035025
   8 H :    0.035401
   9 C :   -0.045883
  10 H :    0.024817
  11 H :    0.018491
  12 C :   -0.032252
  13 H :    0.012011
  14 H :    0.038979
  15 H :    0.038753
  16 S :    0.081907
  17 C :   -0.094877
  18 C :   -0.043897
  19 C :   -0.068404
  20 C :   -0.136186
  21 H :    0.020034
  22 C :    0.101362
  23 H :    0.017923
  24 H :    0.013153
  25 C :   -0.028858
  26 H :    0.003670
  27 H :    0.035687
  28 C :   -0.059226
  29 H :    0.044043
  30 H :    0.030659
  31 H :    0.025810
  32 H :    0.046228
  33 H :    0.058837
Sum of atomic charges:    0.0000000

LOEWDIN ATOMIC CHARGES
----------------------
   0 S :    0.413594
   1 C :   -0.202648
   2 C :   -0.055281
   3 C :   -0.054122
   4 C :   -0.189884
   5 H :    0.024873
   6 C :   -0.035155
   7 H :    0.027067
   8 H :    0.039786
   9 C :   -0.032504
  10 H :    0.023344
  11 H :    0.016469
  12 C :   -0.062369
  13 H :    0.016469
  14 H :    0.025762
  15 H :    0.028316
  16 S :    0.376138
  17 C :   -0.171666
  18 C :   -0.073435
  19 C :   -0.066710
  20 C :   -0.195324
  21 H :    0.030085
  22 C :   -0.019066
  23 H :    0.026220
  24 H :    0.025715
  25 C :   -0.034795
  26 H :    0.014273
  27 H :    0.026132
  28 C :   -0.066704
  29 H :    0.028702
  30 H :    0.027601
  31 H :    0.024451
  32 H :    0.027915
  33 H :    0.036751

  Mayer bond orders larger than 0.100000
B(  0-S ,  1-C ) :   1.1279 B(  0-S ,  4-C ) :   1.1588 B(  1-C ,  2-C ) :   1.6138
B(  1-C , 32-H ) :   0.9585 B(  2-C ,  3-C ) :   1.2628 B(  2-C ,  6-C ) :   1.0235
B(  3-C ,  4-C ) :   1.5487 B(  3-C ,  5-H ) :   0.9984 B(  4-C , 20-C ) :   1.0252
B(  6-C ,  7-H ) :   0.9476 B(  6-C ,  8-H ) :   0.9424 B(  6-C ,  9-C ) :   1.0764
B(  9-C , 10-H ) :   0.9546 B(  9-C , 11-H ) :   0.9572 B(  9-C , 12-C ) :   1.0827
B( 12-C , 13-H ) :   0.9723 B( 12-C , 14-H ) :   0.9653 B( 12-C , 15-H ) :   0.9723
B( 16-S , 17-C ) :   1.1218 B( 16-S , 20-C ) :   1.1338 B( 17-C , 18-C ) :   1.6300
B( 17-C , 33-H ) :   0.9703 B( 18-C , 19-C ) :   1.2499 B( 18-C , 21-H ) :   0.9805
B( 19-C , 20-C ) :   1.6206 B( 19-C , 22-C ) :   1.0204 B( 22-C , 23-H ) :   0.9272
B( 22-C , 24-H ) :   0.9394 B( 22-C , 25-C ) :   1.0629 B( 25-C , 26-H ) :   0.9509
B( 25-C , 27-H ) :   0.9568 B( 25-C , 28-C ) :   1.0771 B( 28-C , 29-H ) :   0.9762
B( 28-C , 30-H ) :   0.9750 B( 28-C , 31-H ) :   0.9759

Dispersion correction           -0.014778160
FINAL SINGLE POINT ENERGY     -1339.859111172347

DIPOLE MOMENT
-------------
                                X             Y             Z
Electronic contribution:    -20.25795      13.60683     -14.20007
Nuclear contribution   :     20.87331     -13.78005      14.22643
                        -----------------------------------------
Total Dipole Moment    :      0.61536      -0.17322       0.02636
                        -----------------------------------------
Magnitude (a.u.)       :      0.63982
Magnitude (Debye)      :      1.62629

Rotational constants in cm-1:     0.020151     0.009005     0.006956
Rotational constants in MHz :   604.102224   269.956741   208.525507

                             ****ORCA TERMINATED NORMALLY****
TOTAL RUN TIME: 0 days 0 hours 0 minutes 22 seconds 421 msec
