                         Program Version 4.2.1 -  RELEASE  -
|  1> ! wB97X-D3 SP def2-SVP
|  2> %pal
|  3> nprocs 24
|  4> end
|  5>
|  6> * xyz 0 1
|  7> S 	 -66.3203 	 15.4023 	 -71.8025
|  8> C 	 -65.7028 	 13.9227 	 -71.1557
|  9> C 	 -65.1544 	 14.1551 	 -69.9272
| 10> C 	 -65.5043 	 15.4302 	 -69.357
| 11> C 	 -66.3502 	 16.093 	 -70.2206
| 12> H 	 -65.3893 	 15.8043 	 -68.3567
| 13> C 	 -64.3023 	 13.2438 	 -69.0665
| 14> H 	 -64.9614 	 12.3588 	 -68.9258
| 15> H 	 -64.1309 	 13.7089 	 -68.1002
| 16> C 	 -63.039 	 12.7911 	 -69.6265
| 17> H 	 -62.6076 	 11.9823 	 -68.9876
| 18> H 	 -63.187 	 12.2095 	 -70.5024
| 19> C 	 -61.8513 	 13.7972 	 -69.8051
| 20> H 	 -61.7223 	 14.4554 	 -68.9193
| 21> H 	 -60.9015 	 13.2803 	 -69.8899
| 22> H 	 -62.1008 	 14.564 	 -70.6342
| 23> S 	 -65.7019 	 18.8076 	 -70.7247
| 24> C 	 -66.7572 	 20.126 	 -70.0968
| 25> C 	 -67.8169 	 19.5512 	 -69.3893
| 26> C 	 -67.7581 	 18.1291 	 -69.2633
| 27> C 	 -66.6861 	 17.5392 	 -69.9778
| 28> H 	 -68.5581 	 20.2276 	 -69.0643
| 29> C 	 -68.8245 	 17.2639 	 -68.645
| 30> H 	 -69.3185 	 17.9006 	 -67.9499
| 31> H 	 -68.3687 	 16.5432 	 -68.0441
| 32> C 	 -69.7213 	 16.5024 	 -69.6177
| 33> H 	 -70.3505 	 15.965 	 -68.8999
| 34> H 	 -69.1397 	 15.8275 	 -70.2114
| 35> C 	 -70.5145 	 17.4283 	 -70.5241
| 36> H 	 -69.9677 	 18.2214 	 -70.9953
| 37> H 	 -71.2596 	 17.965 	 -69.9205
| 38> H 	 -70.9849 	 16.8263 	 -71.3298
| 39> H 	 -65.5837 	 12.9779 	 -71.7507
| 40> H 	 -66.4465 	 21.1807 	 -70.2875
| 41> *
| 42>
| 43>                          ****END OF INPUT****

CARTESIAN COORDINATES (ANGSTROEM)
---------------------------------
  S    -66.320300   15.402300  -71.802500
  C    -65.702800   13.922700  -71.155700
  C    -65.154400   14.155100  -69.927200
  C    -65.504300   15.430200  -69.357000
  C    -66.350200   16.093000  -70.220600
  H    -65.389300   15.804300  -68.356700
  C    -64.302300   13.243800  -69.066500
  H    -64.961400   12.358800  -68.925800
  H    -64.130900   13.708900  -68.100200
  C    -63.039000   12.791100  -69.626500
  H    -62.607600   11.982300  -68.987600
  H    -63.187000   12.209500  -70.502400
  C    -61.851300   13.797200  -69.805100
  H    -61.722300   14.455400  -68.919300
  H    -60.901500   13.280300  -69.889900
  H    -62.100800   14.564000  -70.634200
  S    -65.701900   18.807600  -70.724700
  C    -66.757200   20.126000  -70.096800
  C    -67.816900   19.551200  -69.389300
  C    -67.758100   18.129100  -69.263300
  C    -66.686100   17.539200  -69.977800
  H    -68.558100   20.227600  -69.064300
  C    -68.824500   17.263900  -68.645000
  H    -69.318500   17.900600  -67.949900
  H    -68.368700   16.543200  -68.044100
  C    -69.721300   16.502400  -69.617700
  H    -70.350500   15.965000  -68.899900
  H    -69.139700   15.827500  -70.211400
  C    -70.514500   17.428300  -70.524100
  H    -69.967700   18.221400  -70.995300
  H    -71.259600   17.965000  -69.920500
  H    -70.984900   16.826300  -71.329800
  H    -65.583700   12.977900  -71.750700
  H    -66.446500   21.180700  -70.287500

 Total Charge           Charge          ....    0
 Multiplicity           Mult            ....    1
 Number of Electrons    NEL             ....  134
 Basis Dimension        Dim             ....  322

ORBITAL ENERGIES
----------------

  NO   OCC          E(Eh)            E(eV)
   0   2.0000     -88.968801     -2420.9642
   1   2.0000     -88.960787     -2420.7461
   2   2.0000     -10.328734      -281.0591
   3   2.0000     -10.328522      -281.0534
   4   2.0000     -10.324910      -280.9551
   5   2.0000     -10.317335      -280.7489
   6   2.0000     -10.301732      -280.3244
   7   2.0000     -10.301551      -280.3195
   8   2.0000     -10.295751      -280.1616
   9   2.0000     -10.294355      -280.1236
  10   2.0000     -10.289514      -279.9919
  11   2.0000     -10.285893      -279.8934
  12   2.0000     -10.283132      -279.8182
  13   2.0000     -10.277708      -279.6707
  14   2.0000     -10.276053      -279.6256
  15   2.0000     -10.268975      -279.4330
  16   2.0000      -8.084191      -219.9820
  17   2.0000      -8.074453      -219.7170
  18   2.0000      -6.042633      -164.4284
  19   2.0000      -6.038855      -164.3256
  20   2.0000      -6.034706      -164.2127
  21   2.0000      -6.032997      -164.1662
  22   2.0000      -6.028932      -164.0556
  23   2.0000      -6.025448      -163.9608
  24   2.0000      -1.009688       -27.4750
  25   2.0000      -0.977601       -26.6019
  26   2.0000      -0.918065       -24.9818
  27   2.0000      -0.907967       -24.7070
  28   2.0000      -0.864412       -23.5219
  29   2.0000      -0.849910       -23.1272
  30   2.0000      -0.839379       -22.8407
  31   2.0000      -0.812140       -22.0994
  32   2.0000      -0.783860       -21.3299
  33   2.0000      -0.771897       -21.0044
  34   2.0000      -0.706462       -19.2238
  35   2.0000      -0.701695       -19.0941
  36   2.0000      -0.681915       -18.5559
  37   2.0000      -0.658444       -17.9172
  38   2.0000      -0.646391       -17.5892
  39   2.0000      -0.605833       -16.4856
  40   2.0000      -0.590124       -16.0581
  41   2.0000      -0.575543       -15.6613
  42   2.0000      -0.559659       -15.2291
  43   2.0000      -0.554086       -15.0774
  44   2.0000      -0.542035       -14.7495
  45   2.0000      -0.535772       -14.5791
  46   2.0000      -0.517119       -14.0715
  47   2.0000      -0.512746       -13.9525
  48   2.0000      -0.496880       -13.5208
  49   2.0000      -0.494231       -13.4487
  50   2.0000      -0.488249       -13.2859
  51   2.0000      -0.475884       -12.9495
  52   2.0000      -0.474039       -12.8992
  53   2.0000      -0.466958       -12.7066
  54   2.0000      -0.455423       -12.3927
  55   2.0000      -0.452079       -12.3017
  56   2.0000      -0.437327       -11.9003
  57   2.0000      -0.433735       -11.8025
  58   2.0000      -0.429286       -11.6815
  59   2.0000      -0.423403       -11.5214
  60   2.0000      -0.422222       -11.4892
  61   2.0000      -0.406695       -11.0667
  62   2.0000      -0.400516       -10.8986
  63   2.0000      -0.339624        -9.2416
  64   2.0000      -0.326797        -8.8926
  65   2.0000      -0.324282        -8.8242
  66   2.0000      -0.300122        -8.1667
  67   0.0000       0.036932         1.0050
  68   0.0000       0.047712         1.2983
  69   0.0000       0.110260         3.0003
  70   0.0000       0.123880         3.3709
  71   0.0000       0.129319         3.5190

MULLIKEN ATOMIC CHARGES
-----------------------
   0 S :    0.122052
   1 C :   -0.138408
   2 C :   -0.084689
   3 C :    0.032089
   4 C :   -0.157407
   5 H :    0.024614
   6 C :    0.097243
   7 H :    0.039133
   8 H :    0.016478
   9 C :   -0.072292
  10 H :    0.020940
  11 H :    0.009495
  12 C :   -0.072710
  13 H :    0.023612
  14 H :    0.041961
  15 H :    0.054992
  16 S :    0.085785
  17 C :   -0.137237
  18 C :   -0.015552
  19 C :   -0.062085
  20 C :   -0.176167
  21 H :    0.009318
  22 C :    0.121660
  23 H :    0.000902
  24 H :    0.001408
  25 C :   -0.034469
  26 H :    0.029094
  27 H :    0.028324
  28 C :   -0.052503
  29 H :    0.035371
  30 H :    0.019101
  31 H :    0.038662
  32 H :    0.067902
  33 H :    0.083384
Sum of atomic charges:    0.0000000

LOEWDIN ATOMIC CHARGES
----------------------
   0 S :    0.426361
   1 C :   -0.211639
   2 C :   -0.061733
   3 C :   -0.052366
   4 C :   -0.203181
   5 H :    0.034942
   6 C :   -0.035104
   7 H :    0.044212
   8 H :    0.028542
   9 C :   -0.052051
  10 H :    0.029749
  11 H :    0.017104
  12 C :   -0.074154
  13 H :    0.024611
  14 H :    0.027200
  15 H :    0.036771
  16 S :    0.372596
  17 C :   -0.178183
  18 C :   -0.071662
  19 C :   -0.060005
  20 C :   -0.194105
  21 H :    0.026699
  22 C :   -0.029438
  23 H :    0.022957
  24 H :    0.024103
  25 C :   -0.029134
  26 H :    0.028462
  27 H :    0.018925
  28 C :   -0.067337
  29 H :    0.023132
  30 H :    0.023940
  31 H :    0.030180
  32 H :    0.040676
  33 H :    0.038930

  Mayer bond orders larger than 0.100000
B(  0-S ,  1-C ) :   1.1335 B(  0-S ,  4-C ) :   1.1639 B(  1-C ,  2-C ) :   1.6121
B(  1-C , 32-H ) :   0.9660 B(  2-C ,  3-C ) :   1.2256 B(  2-C ,  6-C ) :   1.0131
B(  3-C ,  4-C ) :   1.5745 B(  3-C ,  5-H ) :   0.9974 B(  4-C , 20-C ) :   1.0015
B(  6-C ,  7-H ) :   0.9273 B(  6-C ,  8-H ) :   0.9418 B(  6-C ,  9-C ) :   1.1016
B(  9-C , 10-H ) :   0.9474 B(  9-C , 11-H ) :   0.9488 B(  9-C , 12-C ) :   1.0655
B( 12-C , 13-H ) :   0.9739 B( 12-C , 14-H ) :   0.9758 B( 12-C , 15-H ) :   0.9750
B( 16-S , 17-C ) :   1.1546 B( 16-S , 20-C ) :   1.1560 B( 17-C , 18-C ) :   1.5770
B( 17-C , 20-C ) :   0.1091 B( 17-C , 33-H ) :   0.9653 B( 18-C , 19-C ) :   1.2468
B( 18-C , 21-H ) :   1.0017 B( 19-C , 20-C ) :   1.5744 B( 19-C , 22-C ) :   1.0479
B( 22-C , 23-H ) :   0.9290 B( 22-C , 24-H ) :   0.9150 B( 22-C , 25-C ) :   1.0752
B( 25-C , 26-H ) :   0.9539 B( 25-C , 27-H ) :   0.9526 B( 25-C , 28-C ) :   1.0750
B( 28-C , 29-H ) :   0.9760 B( 28-C , 30-H ) :   0.9744 B( 28-C , 31-H ) :   0.9749

Dispersion correction           -0.015250196
FINAL SINGLE POINT ENERGY     -1339.860762349930

DIPOLE MOMENT
-------------
                                X             Y             Z
Electronic contribution:      1.23395      11.31540      -8.71950
Nuclear contribution   :     -1.19665     -11.64189       9.12603
                        -----------------------------------------
Total Dipole Moment    :      0.03730      -0.32648       0.40653
                        -----------------------------------------
Magnitude (a.u.)       :      0.52273
Magnitude (Debye)      :      1.32868

Rotational constants in cm-1:     0.023194     0.008162     0.007138
Rotational constants in MHz :   695.341307   244.694871   213.977283

                             ****ORCA TERMINATED NORMALLY****
TOTAL RUN TIME: 0 days 0 hours 0 minutes 20 seconds 919 msec
