                         Program Version 4.2.1 -  RELEASE  -
|  1> ! wB97X-D3 SP def2-SVP
|  2> %pal
|  3> nprocs 24
|  4> end
|  5>
|  6> * xyz 0 1
|  7> S 	 -122.274 	 51.4516 	 -33.1891
|  8> C 	 -122.005 	 50.4119 	 -34.5067
|  9> C 	 -122.356 	 49.0811 	 -34.3477
| 10> C 	 -122.987 	 48.909 	 -33.1074
| 11> C 	 -123.054 	 50.1233 	 -32.3998
| 12> H 	 -123.385 	 47.9345 	 -32.8196
| 13> C 	 -122.122 	 47.9555 	 -35.2679
| 14> H 	 -121.457 	 47.3511 	 -34.7746
| 15> H 	 -121.496 	 48.2295 	 -36.1368
| 16> C 	 -123.325 	 47.1867 	 -35.7606
| 17> H 	 -123.057 	 46.1602 	 -36.0685
| 18> H 	 -123.966 	 46.9569 	 -34.921
| 19> C 	 -124.112 	 47.9792 	 -36.8014
| 20> H 	 -125.078 	 47.5134 	 -37.0264
| 21> H 	 -124.24 	 48.8611 	 -36.2357
| 22> H 	 -123.486 	 48.1236 	 -37.7293
| 23> S 	 -122.552 	 50.9823 	 -29.7709
| 24> C 	 -123.947 	 51.103 	 -28.7607
| 25> C 	 -125.051 	 50.4228 	 -29.2135
| 26> C 	 -124.87 	 49.8705 	 -30.5181
| 27> C 	 -123.63 	 50.2993 	 -31.0527
| 28> H 	 -125.942 	 50.222 	 -28.6579
| 29> C 	 -125.901 	 49.0459 	 -31.252
| 30> H 	 -126.543 	 48.4825 	 -30.5593
| 31> H 	 -125.417 	 48.2907 	 -31.8355
| 32> C 	 -126.674 	 49.7734 	 -32.4481
| 33> H 	 -127.45 	 49.1697 	 -32.9597
| 34> H 	 -125.994 	 50.1635 	 -33.2139
| 35> C 	 -127.414 	 50.9485 	 -31.747
| 36> H 	 -127.995 	 51.5235 	 -32.3888
| 37> H 	 -126.764 	 51.705 	 -31.2501
| 38> H 	 -128.034 	 50.5341 	 -30.9242
| 39> H 	 -121.423 	 50.6836 	 -35.396
| 40> H 	 -123.793 	 51.5208 	 -27.8187
| 41> *
| 42>
| 43>                          ****END OF INPUT****

CARTESIAN COORDINATES (ANGSTROEM)
---------------------------------
  S    -122.274000   51.451600  -33.189100
  C    -122.005000   50.411900  -34.506700
  C    -122.356000   49.081100  -34.347700
  C    -122.987000   48.909000  -33.107400
  C    -123.054000   50.123300  -32.399800
  H    -123.385000   47.934500  -32.819600
  C    -122.122000   47.955500  -35.267900
  H    -121.457000   47.351100  -34.774600
  H    -121.496000   48.229500  -36.136800
  C    -123.325000   47.186700  -35.760600
  H    -123.057000   46.160200  -36.068500
  H    -123.966000   46.956900  -34.921000
  C    -124.112000   47.979200  -36.801400
  H    -125.078000   47.513400  -37.026400
  H    -124.240000   48.861100  -36.235700
  H    -123.486000   48.123600  -37.729300
  S    -122.552000   50.982300  -29.770900
  C    -123.947000   51.103000  -28.760700
  C    -125.051000   50.422800  -29.213500
  C    -124.870000   49.870500  -30.518100
  C    -123.630000   50.299300  -31.052700
  H    -125.942000   50.222000  -28.657900
  C    -125.901000   49.045900  -31.252000
  H    -126.543000   48.482500  -30.559300
  H    -125.417000   48.290700  -31.835500
  C    -126.674000   49.773400  -32.448100
  H    -127.450000   49.169700  -32.959700
  H    -125.994000   50.163500  -33.213900
  C    -127.414000   50.948500  -31.747000
  H    -127.995000   51.523500  -32.388800
  H    -126.764000   51.705000  -31.250100
  H    -128.034000   50.534100  -30.924200
  H    -121.423000   50.683600  -35.396000
  H    -123.793000   51.520800  -27.818700

 Total Charge           Charge          ....    0
 Multiplicity           Mult            ....    1
 Number of Electrons    NEL             ....  134
 Basis Dimension        Dim             ....  322

ORBITAL ENERGIES
----------------

  NO   OCC          E(Eh)            E(eV)
   0   2.0000     -88.974207     -2421.1113
   1   2.0000     -88.964837     -2420.8563
   2   2.0000     -10.329150      -281.0705
   3   2.0000     -10.328656      -281.0570
   4   2.0000     -10.310223      -280.5554
   5   2.0000     -10.308397      -280.5057
   6   2.0000     -10.305800      -280.4351
   7   2.0000     -10.294881      -280.1379
   8   2.0000     -10.294484      -280.1272
   9   2.0000     -10.294427      -280.1256
  10   2.0000     -10.292453      -280.0719
  11   2.0000     -10.292218      -280.0655
  12   2.0000     -10.285192      -279.8743
  13   2.0000     -10.283513      -279.8286
  14   2.0000     -10.277003      -279.6515
  15   2.0000     -10.267395      -279.3900
  16   2.0000      -8.089803      -220.1347
  17   2.0000      -8.079435      -219.8526
  18   2.0000      -6.048007      -164.5746
  19   2.0000      -6.044321      -164.4743
  20   2.0000      -6.040703      -164.3759
  21   2.0000      -6.037752      -164.2956
  22   2.0000      -6.034267      -164.2008
  23   2.0000      -6.030123      -164.0880
  24   2.0000      -1.009735       -27.4763
  25   2.0000      -0.984529       -26.7904
  26   2.0000      -0.924599       -25.1596
  27   2.0000      -0.902254       -24.5516
  28   2.0000      -0.864195       -23.5159
  29   2.0000      -0.856092       -23.2954
  30   2.0000      -0.844283       -22.9741
  31   2.0000      -0.808801       -22.0086
  32   2.0000      -0.786766       -21.4090
  33   2.0000      -0.770632       -20.9700
  34   2.0000      -0.709897       -19.3173
  35   2.0000      -0.698832       -19.0162
  36   2.0000      -0.687325       -18.7031
  37   2.0000      -0.662308       -18.0223
  38   2.0000      -0.636146       -17.3104
  39   2.0000      -0.629182       -17.1209
  40   2.0000      -0.599162       -16.3040
  41   2.0000      -0.572491       -15.5783
  42   2.0000      -0.558479       -15.1970
  43   2.0000      -0.550013       -14.9666
  44   2.0000      -0.543339       -14.7850
  45   2.0000      -0.539511       -14.6809
  46   2.0000      -0.512182       -13.9372
  47   2.0000      -0.504261       -13.7216
  48   2.0000      -0.496827       -13.5193
  49   2.0000      -0.489213       -13.3122
  50   2.0000      -0.485379       -13.2078
  51   2.0000      -0.474731       -12.9181
  52   2.0000      -0.470793       -12.8109
  53   2.0000      -0.463953       -12.6248
  54   2.0000      -0.458819       -12.4851
  55   2.0000      -0.456575       -12.4241
  56   2.0000      -0.447262       -12.1706
  57   2.0000      -0.440386       -11.9835
  58   2.0000      -0.438967       -11.9449
  59   2.0000      -0.424663       -11.5557
  60   2.0000      -0.420919       -11.4538
  61   2.0000      -0.420025       -11.4295
  62   2.0000      -0.409806       -11.1514
  63   2.0000      -0.343303        -9.3418
  64   2.0000      -0.333138        -9.0652
  65   2.0000      -0.330265        -8.9870
  66   2.0000      -0.284375        -7.7382
  67   0.0000       0.025927         0.7055
  68   0.0000       0.067079         1.8253
  69   0.0000       0.100522         2.7353
  70   0.0000       0.118711         3.2303
  71   0.0000       0.127090         3.4583

MULLIKEN ATOMIC CHARGES
-----------------------
   0 S :    0.151018
   1 C :   -0.116702
   2 C :   -0.103305
   3 C :    0.014615
   4 C :   -0.167481
   5 H :    0.020824
   6 C :    0.102728
   7 H :    0.011055
   8 H :    0.008627
   9 C :   -0.080381
  10 H :    0.020701
  11 H :    0.010358
  12 C :   -0.026473
  13 H :    0.038954
  14 H :    0.028286
  15 H :    0.040347
  16 S :    0.098034
  17 C :   -0.064211
  18 C :   -0.010870
  19 C :   -0.026781
  20 C :   -0.172052
  21 H :    0.007866
  22 C :    0.068412
  23 H :    0.031799
  24 H :    0.006656
  25 C :   -0.078211
  26 H :    0.040132
  27 H :    0.051641
  28 C :   -0.060910
  29 H :    0.013565
  30 H :    0.044997
  31 H :    0.021396
  32 H :    0.039931
  33 H :    0.035436
Sum of atomic charges:    0.0000000

LOEWDIN ATOMIC CHARGES
----------------------
   0 S :    0.449999
   1 C :   -0.220716
   2 C :   -0.066703
   3 C :   -0.056448
   4 C :   -0.204815
   5 H :    0.031691
   6 C :   -0.033477
   7 H :    0.026914
   8 H :    0.033249
   9 C :   -0.041738
  10 H :    0.021645
  11 H :    0.017693
  12 C :   -0.059743
  13 H :    0.027020
  14 H :    0.023255
  15 H :    0.031476
  16 S :    0.386807
  17 C :   -0.178148
  18 C :   -0.065723
  19 C :   -0.049275
  20 C :   -0.181139
  21 H :    0.028820
  22 C :   -0.032915
  23 H :    0.033287
  24 H :    0.024543
  25 C :   -0.030603
  26 H :    0.028210
  27 H :    0.027763
  28 C :   -0.071596
  29 H :    0.009103
  30 H :    0.030278
  31 H :    0.023186
  32 H :    0.026270
  33 H :    0.011829

  Mayer bond orders larger than 0.100000
B(  0-S ,  1-C ) :   1.1540 B(  0-S ,  4-C ) :   1.1792 B(  1-C ,  2-C ) :   1.5901
B(  1-C , 32-H ) :   0.9552 B(  2-C ,  3-C ) :   1.2782 B(  2-C ,  6-C ) :   1.0273
B(  3-C ,  4-C ) :   1.5227 B(  3-C ,  5-H ) :   0.9899 B(  4-C , 20-C ) :   1.0436
B(  6-C ,  7-H ) :   0.9196 B(  6-C ,  8-H ) :   0.9322 B(  6-C ,  9-C ) :   1.0771
B(  9-C , 10-H ) :   0.9498 B(  9-C , 11-H ) :   0.9546 B(  9-C , 12-C ) :   1.0616
B( 12-C , 13-H ) :   0.9732 B( 12-C , 14-H ) :   0.9780 B( 12-C , 15-H ) :   0.9745
B( 16-S , 17-C ) :   1.1528 B( 16-S , 20-C ) :   1.1506 B( 17-C , 18-C ) :   1.5860
B( 17-C , 20-C ) :   0.1025 B( 17-C , 33-H ) :   0.9772 B( 18-C , 19-C ) :   1.2413
B( 18-C , 21-H ) :   0.9953 B( 19-C , 20-C ) :   1.5766 B( 19-C , 22-C ) :   1.0519
B( 22-C , 23-H ) :   0.9411 B( 22-C , 24-H ) :   0.9295 B( 22-C , 25-C ) :   1.0541
B( 25-C , 26-H ) :   0.9587 B( 25-C , 27-H ) :   0.9569 B( 25-C , 28-C ) :   1.0679
B( 28-C , 29-H ) :   0.9758 B( 28-C , 30-H ) :   0.9733 B( 28-C , 31-H ) :   0.9768

Dispersion correction           -0.015614998
FINAL SINGLE POINT ENERGY     -1339.864162251710

DIPOLE MOMENT
-------------
                                X             Y             Z
Electronic contribution:     17.34211      13.66934      16.17196
Nuclear contribution   :    -17.52998     -14.17984     -16.37156
                        -----------------------------------------
Total Dipole Moment    :     -0.18787      -0.51049      -0.19959
                        -----------------------------------------
Magnitude (a.u.)       :      0.57943
Magnitude (Debye)      :      1.47278

Rotational constants in cm-1:     0.020131     0.009443     0.007481
Rotational constants in MHz :   603.509831   283.106366   224.277775

                             ****ORCA TERMINATED NORMALLY****
TOTAL RUN TIME: 0 days 0 hours 0 minutes 22 seconds 919 msec
