                         Program Version 4.2.1 -  RELEASE  -
|  1> ! wB97X-D3 SP def2-SVP
|  2> %pal
|  3> nprocs 24
|  4> end
|  5>
|  6> * xyz 0 1
|  7> S 	 -69.3866 	 18.4936 	 -74.6494
|  8> C 	 -68.1565 	 18.2547 	 -75.9542
|  9> C 	 -67.6158 	 17.0263 	 -75.8134
| 10> C 	 -68.1482 	 16.2814 	 -74.733
| 11> C 	 -69.1428 	 16.8788 	 -74.0163
| 12> H 	 -68.0492 	 15.2455 	 -74.5817
| 13> C 	 -66.3776 	 16.5692 	 -76.5872
| 14> H 	 -66.7102 	 16.4062 	 -77.6362
| 15> H 	 -66.0509 	 15.6192 	 -76.2197
| 16> C 	 -65.1086 	 17.4871 	 -76.571
| 17> H 	 -64.3985 	 17.2922 	 -77.3422
| 18> H 	 -65.3871 	 18.5732 	 -76.7187
| 19> C 	 -64.444 	 17.4779 	 -75.2202
| 20> H 	 -65.1574 	 17.9618 	 -74.586
| 21> H 	 -64.1518 	 16.4904 	 -74.8473
| 22> H 	 -63.5393 	 18.098 	 -75.2572
| 23> S 	 -71.8457 	 16.3079 	 -73.7317
| 24> C 	 -72.4718 	 15.4686 	 -72.3877
| 25> C 	 -71.422 	 15.0504 	 -71.5975
| 26> C 	 -70.159 	 15.3336 	 -72.1624
| 27> C 	 -70.1747 	 16.1801 	 -73.2765
| 28> H 	 -71.6223 	 14.515 	 -70.7011
| 29> C 	 -68.8687 	 14.7538 	 -71.6378
| 30> H 	 -69.0147 	 14.701 	 -70.5739
| 31> H 	 -68.0866 	 15.5024 	 -71.7063
| 32> C 	 -68.5386 	 13.3909 	 -72.2481
| 33> H 	 -67.5331 	 13.1553 	 -71.95
| 34> H 	 -68.5253 	 13.3609 	 -73.349
| 35> C 	 -69.4653 	 12.2377 	 -71.7521
| 36> H 	 -70.3304 	 12.1395 	 -72.4022
| 37> H 	 -69.7885 	 12.3396 	 -70.6969
| 38> H 	 -68.9497 	 11.267 	 -71.8113
| 39> H 	 -67.9229 	 19.0324 	 -76.7075
| 40> H 	 -73.4626 	 15.2586 	 -71.979
| 41> *
| 42>
| 43>                          ****END OF INPUT****

CARTESIAN COORDINATES (ANGSTROEM)
---------------------------------
  S    -69.386600   18.493600  -74.649400
  C    -68.156500   18.254700  -75.954200
  C    -67.615800   17.026300  -75.813400
  C    -68.148200   16.281400  -74.733000
  C    -69.142800   16.878800  -74.016300
  H    -68.049200   15.245500  -74.581700
  C    -66.377600   16.569200  -76.587200
  H    -66.710200   16.406200  -77.636200
  H    -66.050900   15.619200  -76.219700
  C    -65.108600   17.487100  -76.571000
  H    -64.398500   17.292200  -77.342200
  H    -65.387100   18.573200  -76.718700
  C    -64.444000   17.477900  -75.220200
  H    -65.157400   17.961800  -74.586000
  H    -64.151800   16.490400  -74.847300
  H    -63.539300   18.098000  -75.257200
  S    -71.845700   16.307900  -73.731700
  C    -72.471800   15.468600  -72.387700
  C    -71.422000   15.050400  -71.597500
  C    -70.159000   15.333600  -72.162400
  C    -70.174700   16.180100  -73.276500
  H    -71.622300   14.515000  -70.701100
  C    -68.868700   14.753800  -71.637800
  H    -69.014700   14.701000  -70.573900
  H    -68.086600   15.502400  -71.706300
  C    -68.538600   13.390900  -72.248100
  H    -67.533100   13.155300  -71.950000
  H    -68.525300   13.360900  -73.349000
  C    -69.465300   12.237700  -71.752100
  H    -70.330400   12.139500  -72.402200
  H    -69.788500   12.339600  -70.696900
  H    -68.949700   11.267000  -71.811300
  H    -67.922900   19.032400  -76.707500
  H    -73.462600   15.258600  -71.979000

 Total Charge           Charge          ....    0
 Multiplicity           Mult            ....    1
 Number of Electrons    NEL             ....  134
 Basis Dimension        Dim             ....  322

ORBITAL ENERGIES
----------------

  NO   OCC          E(Eh)            E(eV)
   0   2.0000     -88.965145     -2420.8647
   1   2.0000     -88.964177     -2420.8383
   2   2.0000     -10.330169      -281.0982
   3   2.0000     -10.324232      -280.9366
   4   2.0000     -10.322956      -280.9019
   5   2.0000     -10.312217      -280.6097
   6   2.0000     -10.302953      -280.3576
   7   2.0000     -10.296794      -280.1900
   8   2.0000     -10.295801      -280.1630
   9   2.0000     -10.289873      -280.0017
  10   2.0000     -10.289534      -279.9925
  11   2.0000     -10.288655      -279.9685
  12   2.0000     -10.285541      -279.8838
  13   2.0000     -10.284712      -279.8612
  14   2.0000     -10.280085      -279.7353
  15   2.0000     -10.271815      -279.5103
  16   2.0000      -8.079440      -219.8527
  17   2.0000      -8.079256      -219.8477
  18   2.0000      -6.037954      -164.3011
  19   2.0000      -6.037909      -164.2999
  20   2.0000      -6.033759      -164.1869
  21   2.0000      -6.033607      -164.1828
  22   2.0000      -6.030372      -164.0948
  23   2.0000      -6.029946      -164.0832
  24   2.0000      -1.012588       -27.5539
  25   2.0000      -0.990007       -26.9395
  26   2.0000      -0.912544       -24.8316
  27   2.0000      -0.908660       -24.7259
  28   2.0000      -0.874640       -23.8002
  29   2.0000      -0.848206       -23.0809
  30   2.0000      -0.842266       -22.9192
  31   2.0000      -0.820387       -22.3239
  32   2.0000      -0.782944       -21.3050
  33   2.0000      -0.773278       -21.0420
  34   2.0000      -0.712087       -19.3769
  35   2.0000      -0.700483       -19.0611
  36   2.0000      -0.694802       -18.9065
  37   2.0000      -0.660697       -17.9785
  38   2.0000      -0.643455       -17.5093
  39   2.0000      -0.616548       -16.7771
  40   2.0000      -0.589969       -16.0539
  41   2.0000      -0.580417       -15.7940
  42   2.0000      -0.559033       -15.2121
  43   2.0000      -0.548889       -14.9360
  44   2.0000      -0.546470       -14.8702
  45   2.0000      -0.540925       -14.7193
  46   2.0000      -0.521421       -14.1886
  47   2.0000      -0.515700       -14.0329
  48   2.0000      -0.509958       -13.8767
  49   2.0000      -0.496250       -13.5036
  50   2.0000      -0.485715       -13.2170
  51   2.0000      -0.480977       -13.0881
  52   2.0000      -0.470755       -12.8099
  53   2.0000      -0.468893       -12.7592
  54   2.0000      -0.458653       -12.4806
  55   2.0000      -0.445254       -12.1160
  56   2.0000      -0.439874       -11.9696
  57   2.0000      -0.436103       -11.8670
  58   2.0000      -0.429482       -11.6868
  59   2.0000      -0.427182       -11.6242
  60   2.0000      -0.420832       -11.4514
  61   2.0000      -0.413876       -11.2621
  62   2.0000      -0.404702       -11.0125
  63   2.0000      -0.351449        -9.5634
  64   2.0000      -0.332934        -9.0596
  65   2.0000      -0.325685        -8.8623
  66   2.0000      -0.294225        -8.0063
  67   0.0000       0.023996         0.6530
  68   0.0000       0.071134         1.9357
  69   0.0000       0.113970         3.1013
  70   0.0000       0.128037         3.4841
  71   0.0000       0.130091         3.5399

MULLIKEN ATOMIC CHARGES
-----------------------
   0 S :    0.085577
   1 C :   -0.154460
   2 C :   -0.069071
   3 C :    0.054744
   4 C :   -0.129943
   5 H :   -0.013651
   6 C :    0.078237
   7 H :    0.042096
   8 H :    0.008543
   9 C :   -0.077495
  10 H :    0.024721
  11 H :    0.024850
  12 C :   -0.048194
  13 H :    0.037689
  14 H :    0.029142
  15 H :    0.031456
  16 S :    0.123281
  17 C :   -0.080613
  18 C :   -0.040906
  19 C :   -0.074709
  20 C :   -0.147810
  21 H :    0.004889
  22 C :    0.074483
  23 H :    0.011204
  24 H :    0.026278
  25 C :   -0.049522
  26 H :    0.024185
  27 H :    0.039973
  28 C :   -0.070474
  29 H :    0.042464
  30 H :    0.032295
  31 H :    0.032377
  32 H :    0.072322
  33 H :    0.056043
Sum of atomic charges:   -0.0000000

LOEWDIN ATOMIC CHARGES
----------------------
   0 S :    0.380678
   1 C :   -0.169919
   2 C :   -0.070815
   3 C :   -0.055605
   4 C :   -0.189196
   5 H :    0.022739
   6 C :   -0.027160
   7 H :    0.037250
   8 H :    0.022627
   9 C :   -0.040923
  10 H :    0.017793
  11 H :    0.026788
  12 C :   -0.063541
  13 H :    0.025968
  14 H :    0.021011
  15 H :    0.027348
  16 S :    0.439688
  17 C :   -0.210977
  18 C :   -0.076530
  19 C :   -0.059167
  20 C :   -0.208889
  21 H :    0.025538
  22 C :   -0.034953
  23 H :    0.027390
  24 H :    0.029878
  25 C :   -0.035135
  26 H :    0.021686
  27 H :    0.025049
  28 C :   -0.068759
  29 H :    0.025997
  30 H :    0.024997
  31 H :    0.028249
  32 H :    0.039210
  33 H :    0.041686

  Mayer bond orders larger than 0.100000
B(  0-S ,  1-C ) :   1.1230 B(  0-S ,  4-C ) :   1.1412 B(  1-C ,  2-C ) :   1.6140
B(  1-C , 32-H ) :   0.9694 B(  2-C ,  3-C ) :   1.2477 B(  2-C ,  6-C ) :   1.0113
B(  3-C ,  4-C ) :   1.5741 B(  3-C ,  5-H ) :   0.9915 B(  4-C , 20-C ) :   1.0459
B(  6-C ,  7-H ) :   0.9361 B(  6-C ,  8-H ) :   0.9480 B(  6-C ,  9-C ) :   1.0660
B(  9-C , 10-H ) :   0.9579 B(  9-C , 11-H ) :   0.9577 B(  9-C , 12-C ) :   1.0740
B( 12-C , 13-H ) :   0.9794 B( 12-C , 14-H ) :   0.9757 B( 12-C , 15-H ) :   0.9719
B( 16-S , 17-C ) :   1.1752 B( 16-S , 20-C ) :   1.1496 B( 17-C , 18-C ) :   1.5693
B( 17-C , 20-C ) :   0.1016 B( 17-C , 33-H ) :   0.9635 B( 18-C , 19-C ) :   1.2966
B( 18-C , 21-H ) :   0.9945 B( 19-C , 20-C ) :   1.5456 B( 19-C , 22-C ) :   1.0481
B( 22-C , 23-H ) :   0.9343 B( 22-C , 24-H ) :   0.9301 B( 22-C , 25-C ) :   1.0664
B( 25-C , 26-H ) :   0.9576 B( 25-C , 27-H ) :   0.9526 B( 25-C , 28-C ) :   1.0711
B( 28-C , 29-H ) :   0.9762 B( 28-C , 30-H ) :   0.9767 B( 28-C , 31-H ) :   0.9743

Dispersion correction           -0.014920499
FINAL SINGLE POINT ENERGY     -1339.871656275010

DIPOLE MOMENT
-------------
                                X             Y             Z
Electronic contribution:    -22.12076      13.97168      -1.76115
Nuclear contribution   :     22.58830     -14.42914       1.73705
                        -----------------------------------------
Total Dipole Moment    :      0.46754      -0.45746      -0.02410
                        -----------------------------------------
Magnitude (a.u.)       :      0.65456
Magnitude (Debye)      :      1.66376

Rotational constants in cm-1:     0.021273     0.008623     0.006656
Rotational constants in MHz :   637.755631   258.507146   199.539420

                             ****ORCA TERMINATED NORMALLY****
TOTAL RUN TIME: 0 days 0 hours 0 minutes 22 seconds 129 msec
