                         Program Version 4.2.1 -  RELEASE  -
|  1> ! wB97X-D3 SP def2-SVP
|  2> %pal
|  3> nprocs 24
|  4> end
|  5>
|  6> * xyz 0 1
|  7> S 	 -107.12 	 13.9048 	 -123.926
|  8> C 	 -107.515 	 12.8 	 -122.61
|  9> C 	 -108.837 	 12.9576 	 -122.252
| 10> C 	 -109.452 	 14.0664 	 -122.928
| 11> C 	 -108.697 	 14.5528 	 -123.945
| 12> H 	 -110.43 	 14.523 	 -122.764
| 13> C 	 -109.559 	 12.2205 	 -121.18
| 14> H 	 -110.377 	 12.7643 	 -120.725
| 15> H 	 -108.977 	 12.129 	 -120.308
| 16> C 	 -110.01 	 10.8166 	 -121.523
| 17> H 	 -109.189 	 10.3019 	 -121.995
| 18> H 	 -110.125 	 10.1975 	 -120.601
| 19> C 	 -111.117 	 10.7916 	 -122.571
| 20> H 	 -111.879 	 11.3445 	 -122.194
| 21> H 	 -110.804 	 11.1139 	 -123.567
| 22> H 	 -111.51 	 9.7926 	 -122.734
| 23> S 	 -108.057 	 16.8669 	 -125.441
| 24> C 	 -109.329 	 17.5463 	 -126.52
| 25> C 	 -110.457 	 16.8596 	 -126.342
| 26> C 	 -110.291 	 15.6699 	 -125.607
| 27> C 	 -109.107 	 15.5834 	 -124.904
| 28> H 	 -111.364 	 17.1623 	 -126.938
| 29> C 	 -111.494 	 14.7745 	 -125.327
| 30> H 	 -111.894 	 15.0011 	 -124.342
| 31> H 	 -111.076 	 13.8152 	 -125.171
| 32> C 	 -112.557 	 14.513 	 -126.317
| 33> H 	 -112.097 	 14.2165 	 -127.298
| 34> H 	 -113.054 	 15.4923 	 -126.557
| 35> C 	 -113.653 	 13.5192 	 -125.937
| 36> H 	 -113.224 	 12.5471 	 -125.692
| 37> H 	 -114.28 	 13.2996 	 -126.844
| 38> H 	 -114.212 	 13.9509 	 -125.142
| 39> H 	 -106.921 	 12.034 	 -122.309
| 40> H 	 -109.243 	 18.4692 	 -127.054
| 41> *
| 42>
| 43>                          ****END OF INPUT****

CARTESIAN COORDINATES (ANGSTROEM)
---------------------------------
  S    -107.120000   13.904800  -123.926000
  C    -107.515000   12.800000  -122.610000
  C    -108.837000   12.957600  -122.252000
  C    -109.452000   14.066400  -122.928000
  C    -108.697000   14.552800  -123.945000
  H    -110.430000   14.523000  -122.764000
  C    -109.559000   12.220500  -121.180000
  H    -110.377000   12.764300  -120.725000
  H    -108.977000   12.129000  -120.308000
  C    -110.010000   10.816600  -121.523000
  H    -109.189000   10.301900  -121.995000
  H    -110.125000   10.197500  -120.601000
  C    -111.117000   10.791600  -122.571000
  H    -111.879000   11.344500  -122.194000
  H    -110.804000   11.113900  -123.567000
  H    -111.510000    9.792600  -122.734000
  S    -108.057000   16.866900  -125.441000
  C    -109.329000   17.546300  -126.520000
  C    -110.457000   16.859600  -126.342000
  C    -110.291000   15.669900  -125.607000
  C    -109.107000   15.583400  -124.904000
  H    -111.364000   17.162300  -126.938000
  C    -111.494000   14.774500  -125.327000
  H    -111.894000   15.001100  -124.342000
  H    -111.076000   13.815200  -125.171000
  C    -112.557000   14.513000  -126.317000
  H    -112.097000   14.216500  -127.298000
  H    -113.054000   15.492300  -126.557000
  C    -113.653000   13.519200  -125.937000
  H    -113.224000   12.547100  -125.692000
  H    -114.280000   13.299600  -126.844000
  H    -114.212000   13.950900  -125.142000
  H    -106.921000   12.034000  -122.309000
  H    -109.243000   18.469200  -127.054000

 Total Charge           Charge          ....    0
 Multiplicity           Mult            ....    1
 Number of Electrons    NEL             ....  134
 Basis Dimension        Dim             ....  322

ORBITAL ENERGIES
----------------

  NO   OCC          E(Eh)            E(eV)
   0   2.0000     -88.965885     -2420.8848
   1   2.0000     -88.963107     -2420.8092
   2   2.0000     -10.327243      -281.0186
   3   2.0000     -10.325481      -280.9706
   4   2.0000     -10.315797      -280.7071
   5   2.0000     -10.310072      -280.5513
   6   2.0000     -10.302874      -280.3555
   7   2.0000     -10.299954      -280.2760
   8   2.0000     -10.291881      -280.0563
   9   2.0000     -10.291666      -280.0505
  10   2.0000     -10.287259      -279.9306
  11   2.0000     -10.284299      -279.8500
  12   2.0000     -10.282684      -279.8061
  13   2.0000     -10.281618      -279.7770
  14   2.0000     -10.280498      -279.7466
  15   2.0000     -10.267835      -279.4020
  16   2.0000      -8.081387      -219.9057
  17   2.0000      -8.077466      -219.7990
  18   2.0000      -6.039818      -164.3518
  19   2.0000      -6.036102      -164.2507
  20   2.0000      -6.035813      -164.2428
  21   2.0000      -6.032142      -164.1429
  22   2.0000      -6.032049      -164.1404
  23   2.0000      -6.028082      -164.0325
  24   2.0000      -1.013520       -27.5793
  25   2.0000      -0.990539       -26.9539
  26   2.0000      -0.920075       -25.0365
  27   2.0000      -0.914009       -24.8714
  28   2.0000      -0.875281       -23.8176
  29   2.0000      -0.853345       -23.2207
  30   2.0000      -0.844739       -22.9865
  31   2.0000      -0.823485       -22.4082
  32   2.0000      -0.790210       -21.5027
  33   2.0000      -0.777401       -21.1542
  34   2.0000      -0.710702       -19.3392
  35   2.0000      -0.703834       -19.1523
  36   2.0000      -0.697386       -18.9768
  37   2.0000      -0.654073       -17.7982
  38   2.0000      -0.646958       -17.6046
  39   2.0000      -0.618493       -16.8300
  40   2.0000      -0.601986       -16.3809
  41   2.0000      -0.581078       -15.8119
  42   2.0000      -0.573890       -15.6163
  43   2.0000      -0.556089       -15.1319
  44   2.0000      -0.544323       -14.8118
  45   2.0000      -0.528418       -14.3790
  46   2.0000      -0.520907       -14.1746
  47   2.0000      -0.515211       -14.0196
  48   2.0000      -0.507885       -13.8203
  49   2.0000      -0.499578       -13.5942
  50   2.0000      -0.494443       -13.4545
  51   2.0000      -0.485336       -13.2067
  52   2.0000      -0.474594       -12.9144
  53   2.0000      -0.468728       -12.7547
  54   2.0000      -0.464807       -12.6480
  55   2.0000      -0.448689       -12.2095
  56   2.0000      -0.440478       -11.9860
  57   2.0000      -0.439878       -11.9697
  58   2.0000      -0.429010       -11.6740
  59   2.0000      -0.425769       -11.5858
  60   2.0000      -0.415629       -11.3098
  61   2.0000      -0.411380       -11.1942
  62   2.0000      -0.406561       -11.0631
  63   2.0000      -0.355498        -9.6736
  64   2.0000      -0.331809        -9.0290
  65   2.0000      -0.330285        -8.9875
  66   2.0000      -0.294557        -8.0153
  67   0.0000       0.027322         0.7435
  68   0.0000       0.077491         2.1086
  69   0.0000       0.106157         2.8887
  70   0.0000       0.124126         3.3776
  71   0.0000       0.129600         3.5266

MULLIKEN ATOMIC CHARGES
-----------------------
   0 S :    0.110540
   1 C :   -0.071972
   2 C :   -0.069149
   3 C :    0.000438
   4 C :   -0.138555
   5 H :    0.015794
   6 C :    0.083982
   7 H :    0.012936
   8 H :    0.007410
   9 C :   -0.084054
  10 H :    0.009778
  11 H :    0.031361
  12 C :   -0.004647
  13 H :    0.002087
  14 H :    0.044465
  15 H :    0.023208
  16 S :    0.084538
  17 C :   -0.082415
  18 C :   -0.036364
  19 C :   -0.045824
  20 C :   -0.125540
  21 H :    0.045672
  22 C :    0.060406
  23 H :    0.028834
  24 H :    0.012832
  25 C :   -0.106580
  26 H :    0.028987
  27 H :    0.020887
  28 C :   -0.030861
  29 H :    0.029061
  30 H :    0.043704
  31 H :    0.034487
  32 H :    0.012629
  33 H :    0.051925
Sum of atomic charges:   -0.0000000

LOEWDIN ATOMIC CHARGES
----------------------
   0 S :    0.419474
   1 C :   -0.172752
   2 C :   -0.053157
   3 C :   -0.062964
   4 C :   -0.201191
   5 H :    0.034595
   6 C :   -0.036866
   7 H :    0.029426
   8 H :    0.028332
   9 C :   -0.041816
  10 H :    0.018966
  11 H :    0.029015
  12 C :   -0.055984
  13 H :    0.007552
  14 H :    0.030446
  15 H :    0.027354
  16 S :    0.378111
  17 C :   -0.159975
  18 C :   -0.077919
  19 C :   -0.058710
  20 C :   -0.195361
  21 H :    0.044687
  22 C :   -0.043152
  23 H :    0.027238
  24 H :    0.027543
  25 C :   -0.050493
  26 H :    0.027200
  27 H :    0.018859
  28 C :   -0.058167
  29 H :    0.023960
  30 H :    0.037099
  31 H :    0.021835
  32 H :    0.008197
  33 H :    0.028619

  Mayer bond orders larger than 0.100000
B(  0-S ,  1-C ) :   1.1313 B(  0-S ,  4-C ) :   1.1602 B(  1-C ,  2-C ) :   1.6153
B(  1-C , 32-H ) :   0.9802 B(  2-C ,  3-C ) :   1.2134 B(  2-C ,  6-C ) :   1.0255
B(  3-C ,  4-C ) :   1.5796 B(  3-C ,  5-H ) :   0.9947 B(  4-C , 20-C ) :   1.0387
B(  6-C ,  7-H ) :   0.9433 B(  6-C ,  8-H ) :   0.9292 B(  6-C ,  9-C ) :   1.0811
B(  9-C , 10-H ) :   0.9544 B(  9-C , 11-H ) :   0.9550 B(  9-C , 12-C ) :   1.0700
B( 12-C , 13-H ) :   0.9774 B( 12-C , 14-H ) :   0.9727 B( 12-C , 15-H ) :   0.9699
B( 16-S , 17-C ) :   1.1306 B( 16-S , 20-C ) :   1.1289 B( 17-C , 18-C ) :   1.6458
B( 17-C , 33-H ) :   0.9670 B( 18-C , 19-C ) :   1.2303 B( 18-C , 21-H ) :   0.9730
B( 19-C , 20-C ) :   1.6051 B( 19-C , 22-C ) :   1.0443 B( 22-C , 23-H ) :   0.9324
B( 22-C , 24-H ) :   0.9155 B( 22-C , 25-C ) :   1.0732 B( 25-C , 26-H ) :   0.9538
B( 25-C , 27-H ) :   0.9429 B( 25-C , 28-C ) :   1.0891 B( 28-C , 29-H ) :   0.9741
B( 28-C , 30-H ) :   0.9719 B( 28-C , 31-H ) :   0.9750

Dispersion correction           -0.014653616
FINAL SINGLE POINT ENERGY     -1339.865738888510

DIPOLE MOMENT
-------------
                                X             Y             Z
Electronic contribution:     26.15856      18.32727      -4.19358
Nuclear contribution   :    -26.83593     -18.64530       4.36486
                        -----------------------------------------
Total Dipole Moment    :     -0.67738      -0.31802       0.17128
                        -----------------------------------------
Magnitude (a.u.)       :      0.76767
Magnitude (Debye)      :      1.95126

Rotational constants in cm-1:     0.016807     0.010380     0.006777
Rotational constants in MHz :   503.859299   311.191802   203.156122

                             ****ORCA TERMINATED NORMALLY****
TOTAL RUN TIME: 0 days 0 hours 0 minutes 22 seconds 448 msec
