                         Program Version 4.2.1 -  RELEASE  -
|  1> ! wB97X-D3 SP def2-SVP
|  2> %pal
|  3> nprocs 24
|  4> end
|  5>
|  6> * xyz 0 1
|  7> S 	 -32.114 	 -37.1622 	 -89.8383
|  8> C 	 -31.4397 	 -36.0915 	 -88.6372
|  9> C 	 -30.0624 	 -36.0148 	 -88.7283
| 10> C 	 -29.5903 	 -36.7479 	 -89.8674
| 11> C 	 -30.5678 	 -37.3169 	 -90.6757
| 12> H 	 -28.606 	 -36.7912 	 -90.2911
| 13> C 	 -29.1056 	 -35.3069 	 -87.7621
| 14> H 	 -28.1453 	 -35.7833 	 -87.7536
| 15> H 	 -29.5326 	 -35.5025 	 -86.779
| 16> C 	 -29.0312 	 -33.8678 	 -88.0547
| 17> H 	 -29.8954 	 -33.3939 	 -87.7975
| 18> H 	 -28.3745 	 -33.382 	 -87.4054
| 19> C 	 -28.5699 	 -33.5627 	 -89.5636
| 20> H 	 -27.5051 	 -33.8701 	 -89.6081
| 21> H 	 -29.1658 	 -34.025 	 -90.349
| 22> H 	 -28.4751 	 -32.4881 	 -89.7129
| 23> S 	 -28.8642 	 -38.4313 	 -92.5349
| 24> C 	 -29.4693 	 -39.3416 	 -93.8478
| 25> C 	 -30.771 	 -39.1427 	 -94.0205
| 26> C 	 -31.3398 	 -38.2869 	 -93.0445
| 27> C 	 -30.4705 	 -37.9478 	 -92.0169
| 28> H 	 -31.2541 	 -39.5162 	 -94.9271
| 29> C 	 -32.8634 	 -38.0479 	 -93.2626
| 30> H 	 -33.0992 	 -37.7987 	 -92.2194
| 31> H 	 -33.46 	 -38.9545 	 -93.5026
| 32> C 	 -33.2145 	 -36.8249 	 -94.0828
| 33> H 	 -32.8347 	 -37.1468 	 -95.0676
| 34> H 	 -32.7021 	 -36.0024 	 -93.6849
| 35> C 	 -34.7154 	 -36.531 	 -94.1067
| 36> H 	 -35.2436 	 -37.4798 	 -94.2947
| 37> H 	 -34.9357 	 -35.788 	 -94.8062
| 38> H 	 -35.0164 	 -36.1373 	 -93.1535
| 39> H 	 -32.0529 	 -35.5896 	 -87.8531
| 40> H 	 -28.941 	 -39.9544 	 -94.5424
| 41> *
| 42>
| 43>                          ****END OF INPUT****

CARTESIAN COORDINATES (ANGSTROEM)
---------------------------------
  S    -32.114000  -37.162200  -89.838300
  C    -31.439700  -36.091500  -88.637200
  C    -30.062400  -36.014800  -88.728300
  C    -29.590300  -36.747900  -89.867400
  C    -30.567800  -37.316900  -90.675700
  H    -28.606000  -36.791200  -90.291100
  C    -29.105600  -35.306900  -87.762100
  H    -28.145300  -35.783300  -87.753600
  H    -29.532600  -35.502500  -86.779000
  C    -29.031200  -33.867800  -88.054700
  H    -29.895400  -33.393900  -87.797500
  H    -28.374500  -33.382000  -87.405400
  C    -28.569900  -33.562700  -89.563600
  H    -27.505100  -33.870100  -89.608100
  H    -29.165800  -34.025000  -90.349000
  H    -28.475100  -32.488100  -89.712900
  S    -28.864200  -38.431300  -92.534900
  C    -29.469300  -39.341600  -93.847800
  C    -30.771000  -39.142700  -94.020500
  C    -31.339800  -38.286900  -93.044500
  C    -30.470500  -37.947800  -92.016900
  H    -31.254100  -39.516200  -94.927100
  C    -32.863400  -38.047900  -93.262600
  H    -33.099200  -37.798700  -92.219400
  H    -33.460000  -38.954500  -93.502600
  C    -33.214500  -36.824900  -94.082800
  H    -32.834700  -37.146800  -95.067600
  H    -32.702100  -36.002400  -93.684900
  C    -34.715400  -36.531000  -94.106700
  H    -35.243600  -37.479800  -94.294700
  H    -34.935700  -35.788000  -94.806200
  H    -35.016400  -36.137300  -93.153500
  H    -32.052900  -35.589600  -87.853100
  H    -28.941000  -39.954400  -94.542400

 Total Charge           Charge          ....    0
 Multiplicity           Mult            ....    1
 Number of Electrons    NEL             ....  134
 Basis Dimension        Dim             ....  322

ORBITAL ENERGIES
----------------

  NO   OCC          E(Eh)            E(eV)
   0   2.0000     -88.966355     -2420.8976
   1   2.0000     -88.963649     -2420.8240
   2   2.0000     -10.336903      -281.2814
   3   2.0000     -10.336077      -281.2589
   4   2.0000     -10.317560      -280.7551
   5   2.0000     -10.307628      -280.4848
   6   2.0000     -10.304935      -280.4115
   7   2.0000     -10.304183      -280.3911
   8   2.0000     -10.293893      -280.1111
   9   2.0000     -10.288518      -279.9648
  10   2.0000     -10.288391      -279.9614
  11   2.0000     -10.283191      -279.8199
  12   2.0000     -10.279782      -279.7271
  13   2.0000     -10.278174      -279.6833
  14   2.0000     -10.274482      -279.5829
  15   2.0000     -10.270739      -279.4810
  16   2.0000      -8.080490      -219.8813
  17   2.0000      -8.079289      -219.8486
  18   2.0000      -6.039125      -164.3329
  19   2.0000      -6.037893      -164.2994
  20   2.0000      -6.035052      -164.2221
  21   2.0000      -6.033755      -164.1868
  22   2.0000      -6.031197      -164.1172
  23   2.0000      -6.029830      -164.0800
  24   2.0000      -1.011695       -27.5296
  25   2.0000      -0.989423       -26.9236
  26   2.0000      -0.917488       -24.9661
  27   2.0000      -0.910541       -24.7771
  28   2.0000      -0.871826       -23.7236
  29   2.0000      -0.851772       -23.1779
  30   2.0000      -0.838935       -22.8286
  31   2.0000      -0.816631       -22.2217
  32   2.0000      -0.784782       -21.3550
  33   2.0000      -0.774697       -21.0806
  34   2.0000      -0.712324       -19.3833
  35   2.0000      -0.705130       -19.1876
  36   2.0000      -0.689776       -18.7698
  37   2.0000      -0.666935       -18.1482
  38   2.0000      -0.636588       -17.3224
  39   2.0000      -0.612506       -16.6671
  40   2.0000      -0.595667       -16.2089
  41   2.0000      -0.580529       -15.7970
  42   2.0000      -0.573004       -15.5922
  43   2.0000      -0.554736       -15.0951
  44   2.0000      -0.548139       -14.9156
  45   2.0000      -0.523627       -14.2486
  46   2.0000      -0.513682       -13.9780
  47   2.0000      -0.510773       -13.8988
  48   2.0000      -0.507027       -13.7969
  49   2.0000      -0.499019       -13.5790
  50   2.0000      -0.489964       -13.3326
  51   2.0000      -0.477194       -12.9851
  52   2.0000      -0.473848       -12.8941
  53   2.0000      -0.469900       -12.7866
  54   2.0000      -0.463777       -12.6200
  55   2.0000      -0.446633       -12.1535
  56   2.0000      -0.444188       -12.0870
  57   2.0000      -0.438040       -11.9197
  58   2.0000      -0.435353       -11.8466
  59   2.0000      -0.423232       -11.5167
  60   2.0000      -0.418625       -11.3914
  61   2.0000      -0.411265       -11.1911
  62   2.0000      -0.397762       -10.8237
  63   2.0000      -0.364221        -9.9109
  64   2.0000      -0.333590        -9.0774
  65   2.0000      -0.328615        -8.9421
  66   2.0000      -0.284528        -7.7424
  67   0.0000       0.018752         0.5103
  68   0.0000       0.087590         2.3834
  69   0.0000       0.112176         3.0525
  70   0.0000       0.114898         3.1265
  71   0.0000       0.138436         3.7670

MULLIKEN ATOMIC CHARGES
-----------------------
   0 S :    0.094110
   1 C :   -0.136757
   2 C :   -0.101579
   3 C :    0.004377
   4 C :   -0.124924
   5 H :    0.008092
   6 C :    0.102672
   7 H :    0.021345
   8 H :    0.022767
   9 C :    0.003976
  10 H :   -0.003360
  11 H :    0.004651
  12 C :   -0.084007
  13 H :    0.026470
  14 H :    0.067338
  15 H :    0.030186
  16 S :    0.080514
  17 C :   -0.040022
  18 C :   -0.047855
  19 C :   -0.076142
  20 C :   -0.118506
  21 H :    0.023571
  22 C :    0.020624
  23 H :   -0.002089
  24 H :    0.041050
  25 C :   -0.037792
  26 H :    0.017973
  27 H :    0.022464
  28 C :    0.001119
  29 H :    0.027414
  30 H :    0.025872
  31 H :    0.024560
  32 H :    0.062636
  33 H :    0.039252
Sum of atomic charges:    0.0000000

LOEWDIN ATOMIC CHARGES
----------------------
   0 S :    0.405980
   1 C :   -0.204852
   2 C :   -0.057494
   3 C :   -0.072923
   4 C :   -0.180290
   5 H :    0.021682
   6 C :   -0.023730
   7 H :    0.028596
   8 H :    0.033280
   9 C :   -0.030012
  10 H :    0.010298
  11 H :    0.018626
  12 C :   -0.064860
  13 H :    0.027355
  14 H :    0.028941
  15 H :    0.025178
  16 S :    0.414254
  17 C :   -0.184121
  18 C :   -0.080827
  19 C :   -0.056882
  20 C :   -0.191930
  21 H :    0.035519
  22 C :   -0.038973
  23 H :    0.011568
  24 H :    0.032328
  25 C :   -0.032662
  26 H :    0.021378
  27 H :    0.020642
  28 C :   -0.053107
  29 H :    0.027544
  30 H :    0.019319
  31 H :    0.024502
  32 H :    0.036758
  33 H :    0.028914

  Mayer bond orders larger than 0.100000
B(  0-S ,  1-C ) :   1.1393 B(  0-S ,  4-C ) :   1.1416 B(  1-C ,  2-C ) :   1.6212
B(  1-C , 32-H ) :   0.9617 B(  2-C ,  3-C ) :   1.2369 B(  2-C ,  6-C ) :   1.0035
B(  3-C ,  4-C ) :   1.5818 B(  3-C ,  5-H ) :   0.9860 B(  4-C , 20-C ) :   1.0728
B(  6-C ,  7-H ) :   0.9447 B(  6-C ,  8-H ) :   0.9351 B(  6-C ,  9-C ) :   1.0908
B(  9-C , 10-H ) :   0.9503 B(  9-C , 11-H ) :   0.9474 B(  9-C , 12-C ) :   1.0637
B( 12-C , 13-H ) :   0.9760 B( 12-C , 14-H ) :   0.9748 B( 12-C , 15-H ) :   0.9753
B( 16-S , 17-C ) :   1.1505 B( 16-S , 20-C ) :   1.1261 B( 17-C , 18-C ) :   1.6364
B( 17-C , 33-H ) :   0.9642 B( 18-C , 19-C ) :   1.2397 B( 18-C , 21-H ) :   0.9891
B( 19-C , 20-C ) :   1.5895 B( 19-C , 22-C ) :   1.0130 B( 22-C , 23-H ) :   0.9291
B( 22-C , 24-H ) :   0.9453 B( 22-C , 25-C ) :   1.0655 B( 25-C , 26-H ) :   0.9559
B( 25-C , 27-H ) :   0.9501 B( 25-C , 28-C ) :   1.0906 B( 28-C , 29-H ) :   0.9726
B( 28-C , 30-H ) :   0.9733 B( 28-C , 31-H ) :   0.9734

Dispersion correction           -0.014199526
FINAL SINGLE POINT ENERGY     -1339.857037861254

DIPOLE MOMENT
-------------
                                X             Y             Z
Electronic contribution:      5.55638     -15.07750       1.19336
Nuclear contribution   :     -5.56147      15.35495      -1.22539
                        -----------------------------------------
Total Dipole Moment    :     -0.00509       0.27745      -0.03203
                        -----------------------------------------
Magnitude (a.u.)       :      0.27934
Magnitude (Debye)      :      0.71003

Rotational constants in cm-1:     0.019329     0.008444     0.006899
Rotational constants in MHz :   579.458999   253.130785   206.815976

                             ****ORCA TERMINATED NORMALLY****
TOTAL RUN TIME: 0 days 0 hours 0 minutes 21 seconds 371 msec
