                         Program Version 4.2.1 -  RELEASE  -
|  1> ! wB97X-D3 SP def2-SVP
|  2> %pal
|  3> nprocs 24
|  4> end
|  5>
|  6> * xyz 0 1
|  7> S 	 -48.1806 	 14.4964 	 25.176
|  8> C 	 -48.0564 	 15.994 	 24.2657
|  9> C 	 -46.8167 	 16.6663 	 24.4024
| 10> C 	 -45.9407 	 15.8575 	 25.1721
| 11> C 	 -46.5376 	 14.7614 	 25.722
| 12> H 	 -44.9303 	 16.0955 	 25.3789
| 13> C 	 -46.3808 	 17.8864 	 23.6992
| 14> H 	 -46.7586 	 18.7643 	 24.2335
| 15> H 	 -46.8002 	 17.8377 	 22.6854
| 16> C 	 -44.8036 	 18.1269 	 23.6316
| 17> H 	 -44.4217 	 18.1148 	 24.657
| 18> H 	 -44.5136 	 17.1809 	 23.1145
| 19> C 	 -44.3023 	 19.3451 	 22.8004
| 20> H 	 -44.0033 	 19.1058 	 21.7924
| 21> H 	 -44.9949 	 20.1385 	 22.8213
| 22> H 	 -43.4442 	 19.7504 	 23.2338
| 23> S 	 -45.8328 	 12.0819 	 26.3054
| 24> C 	 -45.1539 	 11.6889 	 27.87
| 25> C 	 -44.7072 	 12.8567 	 28.4308
| 26> C 	 -44.9863 	 14.0389 	 27.7325
| 27> C 	 -45.767 	 13.8291 	 26.6281
| 28> H 	 -44.1007 	 12.9003 	 29.3365
| 29> C 	 -44.4702 	 15.3502 	 28.3324
| 30> H 	 -44.192 	 16.1314 	 27.5931
| 31> H 	 -43.5812 	 15.2045 	 28.991
| 32> C 	 -45.4496 	 16.1118 	 29.2102
| 33> H 	 -46.3562 	 16.3242 	 28.6566
| 34> H 	 -45.0692 	 17.0816 	 29.3852
| 35> C 	 -45.778 	 15.4262 	 30.5025
| 36> H 	 -46.4168 	 16.1879 	 31.0262
| 37> H 	 -44.907 	 15.2916 	 31.1493
| 38> H 	 -46.3511 	 14.4599 	 30.3879
| 39> H 	 -48.8386 	 16.213 	 23.5516
| 40> H 	 -45.0296 	 10.722 	 28.2856
| 41> *
| 42>
| 43>                          ****END OF INPUT****

CARTESIAN COORDINATES (ANGSTROEM)
---------------------------------
  S    -48.180600   14.496400   25.176000
  C    -48.056400   15.994000   24.265700
  C    -46.816700   16.666300   24.402400
  C    -45.940700   15.857500   25.172100
  C    -46.537600   14.761400   25.722000
  H    -44.930300   16.095500   25.378900
  C    -46.380800   17.886400   23.699200
  H    -46.758600   18.764300   24.233500
  H    -46.800200   17.837700   22.685400
  C    -44.803600   18.126900   23.631600
  H    -44.421700   18.114800   24.657000
  H    -44.513600   17.180900   23.114500
  C    -44.302300   19.345100   22.800400
  H    -44.003300   19.105800   21.792400
  H    -44.994900   20.138500   22.821300
  H    -43.444200   19.750400   23.233800
  S    -45.832800   12.081900   26.305400
  C    -45.153900   11.688900   27.870000
  C    -44.707200   12.856700   28.430800
  C    -44.986300   14.038900   27.732500
  C    -45.767000   13.829100   26.628100
  H    -44.100700   12.900300   29.336500
  C    -44.470200   15.350200   28.332400
  H    -44.192000   16.131400   27.593100
  H    -43.581200   15.204500   28.991000
  C    -45.449600   16.111800   29.210200
  H    -46.356200   16.324200   28.656600
  H    -45.069200   17.081600   29.385200
  C    -45.778000   15.426200   30.502500
  H    -46.416800   16.187900   31.026200
  H    -44.907000   15.291600   31.149300
  H    -46.351100   14.459900   30.387900
  H    -48.838600   16.213000   23.551600
  H    -45.029600   10.722000   28.285600

 Total Charge           Charge          ....    0
 Multiplicity           Mult            ....    1
 Number of Electrons    NEL             ....  134
 Basis Dimension        Dim             ....  322

ORBITAL ENERGIES
----------------

  NO   OCC          E(Eh)            E(eV)
   0   2.0000     -88.972371     -2421.0613
   1   2.0000     -88.961440     -2420.7638
   2   2.0000     -10.329578      -281.0821
   3   2.0000     -10.329115      -281.0695
   4   2.0000     -10.316669      -280.7308
   5   2.0000     -10.313150      -280.6351
   6   2.0000     -10.303814      -280.3810
   7   2.0000     -10.298161      -280.2272
   8   2.0000     -10.297847      -280.2187
   9   2.0000     -10.295423      -280.1527
  10   2.0000     -10.293016      -280.0872
  11   2.0000     -10.287492      -279.9369
  12   2.0000     -10.287403      -279.9345
  13   2.0000     -10.277422      -279.6629
  14   2.0000     -10.275218      -279.6029
  15   2.0000     -10.273740      -279.5627
  16   2.0000      -8.086593      -220.0474
  17   2.0000      -8.075883      -219.7560
  18   2.0000      -6.044970      -164.4920
  19   2.0000      -6.041288      -164.3918
  20   2.0000      -6.037420      -164.2866
  21   2.0000      -6.034440      -164.2055
  22   2.0000      -6.030462      -164.0972
  23   2.0000      -6.026586      -163.9917
  24   2.0000      -1.004855       -27.3435
  25   2.0000      -0.985929       -26.8285
  26   2.0000      -0.911562       -24.8049
  27   2.0000      -0.908984       -24.7347
  28   2.0000      -0.863295       -23.4914
  29   2.0000      -0.854815       -23.2607
  30   2.0000      -0.845312       -23.0021
  31   2.0000      -0.815092       -22.1798
  32   2.0000      -0.782725       -21.2990
  33   2.0000      -0.774753       -21.0821
  34   2.0000      -0.712842       -19.3974
  35   2.0000      -0.697023       -18.9670
  36   2.0000      -0.683185       -18.5904
  37   2.0000      -0.660010       -17.9598
  38   2.0000      -0.640739       -17.4354
  39   2.0000      -0.623897       -16.9771
  40   2.0000      -0.598067       -16.2742
  41   2.0000      -0.573925       -15.6173
  42   2.0000      -0.560353       -15.2480
  43   2.0000      -0.551299       -15.0016
  44   2.0000      -0.545131       -14.8338
  45   2.0000      -0.521324       -14.1860
  46   2.0000      -0.515635       -14.0311
  47   2.0000      -0.509330       -13.8596
  48   2.0000      -0.504184       -13.7196
  49   2.0000      -0.499046       -13.5797
  50   2.0000      -0.483563       -13.1584
  51   2.0000      -0.482413       -13.1271
  52   2.0000      -0.478294       -13.0150
  53   2.0000      -0.471176       -12.8214
  54   2.0000      -0.460096       -12.5198
  55   2.0000      -0.458959       -12.4889
  56   2.0000      -0.439147       -11.9498
  57   2.0000      -0.434457       -11.8222
  58   2.0000      -0.430910       -11.7257
  59   2.0000      -0.428509       -11.6603
  60   2.0000      -0.418335       -11.3835
  61   2.0000      -0.413127       -11.2418
  62   2.0000      -0.408303       -11.1105
  63   2.0000      -0.344162        -9.3651
  64   2.0000      -0.331342        -9.0163
  65   2.0000      -0.328518        -8.9394
  66   2.0000      -0.290593        -7.9074
  67   0.0000       0.025310         0.6887
  68   0.0000       0.071488         1.9453
  69   0.0000       0.107372         2.9217
  70   0.0000       0.118166         3.2155
  71   0.0000       0.133988         3.6460

MULLIKEN ATOMIC CHARGES
-----------------------
   0 S :    0.129666
   1 C :   -0.148029
   2 C :   -0.067172
   3 C :    0.004416
   4 C :   -0.111507
   5 H :    0.002036
   6 C :    0.064520
   7 H :    0.040860
   8 H :    0.038149
   9 C :   -0.165093
  10 H :    0.046132
  11 H :    0.044430
  12 C :    0.039905
  13 H :    0.034761
  14 H :    0.016016
  15 H :    0.011472
  16 S :    0.089252
  17 C :   -0.072033
  18 C :   -0.041116
  19 C :    0.005482
  20 C :   -0.188248
  21 H :    0.015924
  22 C :    0.039372
  23 H :    0.021803
  24 H :    0.022897
  25 C :   -0.045861
  26 H :    0.026013
  27 H :    0.009506
  28 C :   -0.078642
  29 H :    0.034599
  30 H :    0.023898
  31 H :    0.060212
  32 H :    0.049631
  33 H :    0.046750
Sum of atomic charges:   -0.0000000

LOEWDIN ATOMIC CHARGES
----------------------
   0 S :    0.412840
   1 C :   -0.195931
   2 C :   -0.059586
   3 C :   -0.058458
   4 C :   -0.193843
   5 H :    0.024721
   6 C :   -0.036643
   7 H :    0.034112
   8 H :    0.035337
   9 C :   -0.042607
  10 H :    0.022129
  11 H :    0.030301
  12 C :   -0.055928
  13 H :    0.029628
  14 H :    0.020538
  15 H :    0.023162
  16 S :    0.387633
  17 C :   -0.179576
  18 C :   -0.073163
  19 C :   -0.064738
  20 C :   -0.180153
  21 H :    0.030429
  22 C :   -0.033425
  23 H :    0.029730
  24 H :    0.031795
  25 C :   -0.043234
  26 H :    0.025539
  27 H :    0.017890
  28 C :   -0.074250
  29 H :    0.032907
  30 H :    0.019974
  31 H :    0.034742
  32 H :    0.022119
  33 H :    0.026011

  Mayer bond orders larger than 0.100000
B(  0-S ,  1-C ) :   1.1509 B(  0-S ,  4-C ) :   1.1541 B(  1-C ,  2-C ) :   1.5771
B(  1-C , 32-H ) :   0.9714 B(  2-C ,  3-C ) :   1.2639 B(  2-C ,  6-C ) :   1.0228
B(  3-C ,  4-C ) :   1.5580 B(  3-C ,  5-H ) :   0.9931 B(  4-C , 20-C ) :   1.0166
B(  6-C ,  7-H ) :   0.9154 B(  6-C ,  8-H ) :   0.9446 B(  6-C ,  9-C ) :   1.0848
B(  9-C , 10-H ) :   0.9512 B(  9-C , 11-H ) :   0.9624 B(  9-C , 12-C ) :   1.0669
B( 12-C , 13-H ) :   0.9757 B( 12-C , 14-H ) :   0.9742 B( 12-C , 15-H ) :   0.9704
B( 16-S , 17-C ) :   1.1444 B( 16-S , 20-C ) :   1.1455 B( 17-C , 18-C ) :   1.5820
B( 17-C , 20-C ) :   0.1019 B( 17-C , 33-H ) :   0.9771 B( 18-C , 19-C ) :   1.2725
B( 18-C , 21-H ) :   0.9830 B( 19-C , 20-C ) :   1.5971 B( 19-C , 22-C ) :   1.0322
B( 22-C , 23-H ) :   0.9363 B( 22-C , 24-H ) :   0.9391 B( 22-C , 25-C ) :   1.0871
B( 25-C , 26-H ) :   0.9481 B( 25-C , 27-H ) :   0.9504 B( 25-C , 28-C ) :   1.0890
B( 28-C , 29-H ) :   0.9716 B( 28-C , 30-H ) :   0.9720 B( 28-C , 31-H ) :   0.9706

Dispersion correction           -0.014323171
FINAL SINGLE POINT ENERGY     -1339.870502666381

DIPOLE MOMENT
-------------
                                X             Y             Z
Electronic contribution:    -11.67400     -24.33408      -4.76232
Nuclear contribution   :     12.05043      25.00342       4.78782
                        -----------------------------------------
Total Dipole Moment    :      0.37643       0.66934       0.02550
                        -----------------------------------------
Magnitude (a.u.)       :      0.76835
Magnitude (Debye)      :      1.95300

Rotational constants in cm-1:     0.018061     0.008468     0.007068
Rotational constants in MHz :   541.459763   253.854846   211.883967

                             ****ORCA TERMINATED NORMALLY****
TOTAL RUN TIME: 0 days 0 hours 0 minutes 20 seconds 721 msec
