                         Program Version 4.2.1 -  RELEASE  -
|  1> ! wB97X-D3 SP def2-SVP
|  2> %pal
|  3> nprocs 24
|  4> end
|  5>
|  6> * xyz 0 1
|  7> S 	 -110.717 	 62.7965 	 -70.4891
|  8> C 	 -109.882 	 64.2409 	 -71.0869
|  9> C 	 -110.706 	 65.3662 	 -71.056
| 10> C 	 -112.024 	 64.9807 	 -70.8244
| 11> C 	 -112.23 	 63.6847 	 -70.3578
| 12> H 	 -112.93 	 65.4633 	 -70.9814
| 13> C 	 -110.345 	 66.7133 	 -71.7828
| 14> H 	 -110.091 	 67.414 	 -71.0475
| 15> H 	 -111.34 	 67.0912 	 -72.2431
| 16> C 	 -109.35 	 66.7172 	 -73.0048
| 17> H 	 -109.137 	 67.7688 	 -73.2228
| 18> H 	 -108.422 	 66.2544 	 -72.81
| 19> C 	 -110.037 	 66.0719 	 -74.2387
| 20> H 	 -110.085 	 64.9872 	 -74.0698
| 21> H 	 -111.084 	 66.3688 	 -74.3449
| 22> H 	 -109.481 	 66.3526 	 -75.1396
| 23> S 	 -113.891 	 62.2664 	 -68.6173
| 24> C 	 -115.487 	 61.7846 	 -69.1815
| 25> C 	 -115.549 	 62.0112 	 -70.5272
| 26> C 	 -114.501 	 62.8308 	 -71.0716
| 27> C 	 -113.515 	 63.0777 	 -70.0992
| 28> H 	 -116.425 	 61.7295 	 -71.1459
| 29> C 	 -114.328 	 63.15 	 -72.5591
| 30> H 	 -114.322 	 64.217 	 -72.8154
| 31> H 	 -115.277 	 62.7901 	 -73.0071
| 32> C 	 -113.216 	 62.4587 	 -73.3846
| 33> H 	 -112.206 	 62.8312 	 -73.1128
| 34> H 	 -113.345 	 62.7446 	 -74.415
| 35> C 	 -113.276 	 60.9656 	 -73.2815
| 36> H 	 -112.444 	 60.4404 	 -73.8223
| 37> H 	 -114.195 	 60.5029 	 -73.4743
| 38> H 	 -113.027 	 60.7833 	 -72.267
| 39> H 	 -108.86 	 64.2144 	 -71.4965
| 40> H 	 -116.243 	 61.1894 	 -68.7164
| 41> *
| 42>
| 43>                          ****END OF INPUT****

CARTESIAN COORDINATES (ANGSTROEM)
---------------------------------
  S    -110.717000   62.796500  -70.489100
  C    -109.882000   64.240900  -71.086900
  C    -110.706000   65.366200  -71.056000
  C    -112.024000   64.980700  -70.824400
  C    -112.230000   63.684700  -70.357800
  H    -112.930000   65.463300  -70.981400
  C    -110.345000   66.713300  -71.782800
  H    -110.091000   67.414000  -71.047500
  H    -111.340000   67.091200  -72.243100
  C    -109.350000   66.717200  -73.004800
  H    -109.137000   67.768800  -73.222800
  H    -108.422000   66.254400  -72.810000
  C    -110.037000   66.071900  -74.238700
  H    -110.085000   64.987200  -74.069800
  H    -111.084000   66.368800  -74.344900
  H    -109.481000   66.352600  -75.139600
  S    -113.891000   62.266400  -68.617300
  C    -115.487000   61.784600  -69.181500
  C    -115.549000   62.011200  -70.527200
  C    -114.501000   62.830800  -71.071600
  C    -113.515000   63.077700  -70.099200
  H    -116.425000   61.729500  -71.145900
  C    -114.328000   63.150000  -72.559100
  H    -114.322000   64.217000  -72.815400
  H    -115.277000   62.790100  -73.007100
  C    -113.216000   62.458700  -73.384600
  H    -112.206000   62.831200  -73.112800
  H    -113.345000   62.744600  -74.415000
  C    -113.276000   60.965600  -73.281500
  H    -112.444000   60.440400  -73.822300
  H    -114.195000   60.502900  -73.474300
  H    -113.027000   60.783300  -72.267000
  H    -108.860000   64.214400  -71.496500
  H    -116.243000   61.189400  -68.716400

 Total Charge           Charge          ....    0
 Multiplicity           Mult            ....    1
 Number of Electrons    NEL             ....  134
 Basis Dimension        Dim             ....  322

ORBITAL ENERGIES
----------------

  NO   OCC          E(Eh)            E(eV)
   0   2.0000     -88.970508     -2421.0106
   1   2.0000     -88.969213     -2420.9754
   2   2.0000     -10.327035      -281.0129
   3   2.0000     -10.326418      -280.9961
   4   2.0000     -10.323268      -280.9104
   5   2.0000     -10.317261      -280.7469
   6   2.0000     -10.307012      -280.4681
   7   2.0000     -10.305070      -280.4152
   8   2.0000     -10.302700      -280.3507
   9   2.0000     -10.296562      -280.1837
  10   2.0000     -10.294787      -280.1354
  11   2.0000     -10.292425      -280.0711
  12   2.0000     -10.289148      -279.9820
  13   2.0000     -10.281162      -279.7646
  14   2.0000     -10.280712      -279.7524
  15   2.0000     -10.262729      -279.2631
  16   2.0000      -8.084153      -219.9810
  17   2.0000      -8.083783      -219.9709
  18   2.0000      -6.042656      -164.4290
  19   2.0000      -6.042318      -164.4198
  20   2.0000      -6.038723      -164.3220
  21   2.0000      -6.038255      -164.3093
  22   2.0000      -6.035060      -164.2223
  23   2.0000      -6.034567      -164.2089
  24   2.0000      -1.008277       -27.4366
  25   2.0000      -0.985295       -26.8112
  26   2.0000      -0.907924       -24.7059
  27   2.0000      -0.904967       -24.6254
  28   2.0000      -0.870617       -23.6907
  29   2.0000      -0.851778       -23.1781
  30   2.0000      -0.845685       -23.0123
  31   2.0000      -0.812989       -22.1226
  32   2.0000      -0.782526       -21.2936
  33   2.0000      -0.772407       -21.0183
  34   2.0000      -0.710230       -19.3264
  35   2.0000      -0.706429       -19.2229
  36   2.0000      -0.687845       -18.7172
  37   2.0000      -0.659381       -17.9427
  38   2.0000      -0.647077       -17.6079
  39   2.0000      -0.610252       -16.6058
  40   2.0000      -0.590388       -16.0653
  41   2.0000      -0.574896       -15.6437
  42   2.0000      -0.557483       -15.1699
  43   2.0000      -0.552070       -15.0226
  44   2.0000      -0.546549       -14.8724
  45   2.0000      -0.536097       -14.5879
  46   2.0000      -0.514994       -14.0137
  47   2.0000      -0.511543       -13.9198
  48   2.0000      -0.502618       -13.6769
  49   2.0000      -0.492105       -13.3909
  50   2.0000      -0.484588       -13.1863
  51   2.0000      -0.479169       -13.0388
  52   2.0000      -0.475039       -12.9265
  53   2.0000      -0.468554       -12.7500
  54   2.0000      -0.458663       -12.4809
  55   2.0000      -0.444419       -12.0933
  56   2.0000      -0.438321       -11.9273
  57   2.0000      -0.436049       -11.8655
  58   2.0000      -0.433066       -11.7843
  59   2.0000      -0.428940       -11.6720
  60   2.0000      -0.422622       -11.5001
  61   2.0000      -0.417998       -11.3743
  62   2.0000      -0.406783       -11.0691
  63   2.0000      -0.341791        -9.3006
  64   2.0000      -0.337213        -9.1760
  65   2.0000      -0.330352        -8.9893
  66   2.0000      -0.294869        -8.0238
  67   0.0000       0.032029         0.8715
  68   0.0000       0.052897         1.4394
  69   0.0000       0.106674         2.9028
  70   0.0000       0.114208         3.1077
  71   0.0000       0.126836         3.4514

MULLIKEN ATOMIC CHARGES
-----------------------
   0 S :    0.112257
   1 C :   -0.159350
   2 C :   -0.004936
   3 C :    0.025802
   4 C :   -0.160401
   5 H :   -0.011814
   6 C :    0.016219
   7 H :    0.031818
   8 H :    0.036830
   9 C :   -0.058143
  10 H :    0.032280
  11 H :    0.024356
  12 C :   -0.063989
  13 H :    0.041202
  14 H :    0.026408
  15 H :    0.043237
  16 S :    0.119416
  17 C :   -0.073179
  18 C :   -0.046742
  19 C :   -0.054768
  20 C :   -0.171503
  21 H :    0.030629
  22 C :    0.052043
  23 H :    0.034704
  24 H :    0.008560
  25 C :   -0.048774
  26 H :    0.035182
  27 H :    0.018972
  28 C :   -0.020539
  29 H :    0.032735
  30 H :    0.015800
  31 H :    0.016324
  32 H :    0.067130
  33 H :    0.052234
Sum of atomic charges:   -0.0000000

LOEWDIN ATOMIC CHARGES
----------------------
   0 S :    0.401295
   1 C :   -0.188715
   2 C :   -0.067189
   3 C :   -0.050270
   4 C :   -0.195701
   5 H :    0.021901
   6 C :   -0.024910
   7 H :    0.021562
   8 H :    0.038861
   9 C :   -0.035771
  10 H :    0.028521
  11 H :    0.014824
  12 C :   -0.065621
  13 H :    0.027215
  14 H :    0.023236
  15 H :    0.027736
  16 S :    0.418487
  17 C :   -0.187289
  18 C :   -0.072057
  19 C :   -0.060927
  20 C :   -0.210670
  21 H :    0.034568
  22 C :   -0.035977
  23 H :    0.031912
  24 H :    0.029982
  25 C :   -0.037292
  26 H :    0.023356
  27 H :    0.019532
  28 C :   -0.063651
  29 H :    0.032987
  30 H :    0.014294
  31 H :    0.021282
  32 H :    0.032350
  33 H :    0.032140

  Mayer bond orders larger than 0.100000
B(  0-S ,  1-C ) :   1.1616 B(  0-S ,  4-C ) :   1.1363 B(  1-C ,  2-C ) :   1.5730
B(  1-C ,  4-C ) :   0.1073 B(  1-C , 32-H ) :   0.9619 B(  2-C ,  3-C ) :   1.2357
B(  2-C ,  6-C ) :   0.9968 B(  3-C ,  4-C ) :   1.5894 B(  3-C ,  5-H ) :   1.0062
B(  4-C , 20-C ) :   1.0587 B(  6-C ,  7-H ) :   0.9372 B(  6-C ,  8-H ) :   0.9596
B(  6-C ,  9-C ) :   1.0740 B(  9-C , 10-H ) :   0.9546 B(  9-C , 11-H ) :   0.9557
B(  9-C , 12-C ) :   1.0687 B( 12-C , 13-H ) :   0.9764 B( 12-C , 14-H ) :   0.9772
B( 12-C , 15-H ) :   0.9760 B( 16-S , 17-C ) :   1.1439 B( 16-S , 20-C ) :   1.1536
B( 17-C , 18-C ) :   1.6128 B( 17-C , 33-H ) :   0.9685 B( 18-C , 19-C ) :   1.2798
B( 18-C , 21-H ) :   0.9713 B( 19-C , 20-C ) :   1.5487 B( 19-C , 22-C ) :   1.0368
B( 22-C , 23-H ) :   0.9349 B( 22-C , 24-H ) :   0.9323 B( 22-C , 25-C ) :   1.0716
B( 25-C , 26-H ) :   0.9503 B( 25-C , 27-H ) :   0.9523 B( 25-C , 28-C ) :   1.0807
B( 28-C , 29-H ) :   0.9700 B( 28-C , 30-H ) :   0.9771 B( 28-C , 31-H ) :   0.9681

Dispersion correction           -0.016730662
FINAL SINGLE POINT ENERGY     -1339.866411348352

DIPOLE MOMENT
-------------
                                X             Y             Z
Electronic contribution:     -4.04563      -8.72859      25.03755
Nuclear contribution   :      3.99433       8.97946     -25.72028
                        -----------------------------------------
Total Dipole Moment    :     -0.05130       0.25087      -0.68274
                        -----------------------------------------
Magnitude (a.u.)       :      0.72918
Magnitude (Debye)      :      1.85342

Rotational constants in cm-1:     0.023401     0.008880     0.007755
Rotational constants in MHz :   701.559197   266.201725   232.487453

                             ****ORCA TERMINATED NORMALLY****
TOTAL RUN TIME: 0 days 0 hours 0 minutes 23 seconds 425 msec
