                         Program Version 4.2.1 -  RELEASE  -
|  1> ! wB97X-D3 SP def2-SVP
|  2> %pal
|  3> nprocs 24
|  4> end
|  5>
|  6> * xyz 0 1
|  7> S 	 -69.117 	 0.0155528 	 -106.038
|  8> C 	 -69.4206 	 0.500585 	 -104.394
|  9> C 	 -68.6734 	 1.58248 	 -104.022
| 10> C 	 -67.8146 	 1.96107 	 -105.071
| 11> C 	 -67.8789 	 1.20464 	 -106.209
| 12> H 	 -67.1336 	 2.82189 	 -105.086
| 13> C 	 -68.7238 	 2.25419 	 -102.663
| 14> H 	 -67.7334 	 2.42871 	 -102.451
| 15> H 	 -68.9772 	 1.5288 	 -101.898
| 16> C 	 -69.6737 	 3.45854 	 -102.457
| 17> H 	 -69.3447 	 4.24524 	 -103.078
| 18> H 	 -70.7226 	 3.31098 	 -102.715
| 19> C 	 -69.515 	 4.1049 	 -101.022
| 20> H 	 -70.0531 	 5.10968 	 -101.058
| 21> H 	 -70.0193 	 3.43383 	 -100.265
| 22> H 	 -68.5578 	 4.27221 	 -100.665
| 23> S 	 -68.1141 	 2.08313 	 -108.779
| 24> C 	 -66.7559 	 3.00064 	 -109.386
| 25> C 	 -65.5708 	 2.63957 	 -108.801
| 26> C 	 -65.8049 	 1.82754 	 -107.652
| 27> C 	 -67.1382 	 1.45782 	 -107.419
| 28> H 	 -64.6275 	 3.04354 	 -109.171
| 29> C 	 -64.6555 	 1.55845 	 -106.639
| 30> H 	 -65.0557 	 1.33737 	 -105.645
| 31> H 	 -64.1541 	 2.50931 	 -106.537
| 32> C 	 -63.5511 	 0.533872 	 -107.054
| 33> H 	 -63.2357 	 0.85966 	 -108.043
| 34> H 	 -63.749 	 -0.464937 	 -107.4
| 35> C 	 -62.3318 	 0.506271 	 -106.146
| 36> H 	 -62.7228 	 0.0956408 	 -105.262
| 37> H 	 -61.9807 	 1.57347 	 -105.931
| 38> H 	 -61.4797 	 -0.0479059 	 -106.534
| 39> H 	 -70.1978 	 0.0428604 	 -103.771
| 40> H 	 -66.6783 	 3.49147 	 -110.378
| 41> *
| 42>
| 43>                          ****END OF INPUT****

CARTESIAN COORDINATES (ANGSTROEM)
---------------------------------
  S    -69.117000    0.015553  -106.038000
  C    -69.420600    0.500585  -104.394000
  C    -68.673400    1.582480  -104.022000
  C    -67.814600    1.961070  -105.071000
  C    -67.878900    1.204640  -106.209000
  H    -67.133600    2.821890  -105.086000
  C    -68.723800    2.254190  -102.663000
  H    -67.733400    2.428710  -102.451000
  H    -68.977200    1.528800  -101.898000
  C    -69.673700    3.458540  -102.457000
  H    -69.344700    4.245240  -103.078000
  H    -70.722600    3.310980  -102.715000
  C    -69.515000    4.104900  -101.022000
  H    -70.053100    5.109680  -101.058000
  H    -70.019300    3.433830  -100.265000
  H    -68.557800    4.272210  -100.665000
  S    -68.114100    2.083130  -108.779000
  C    -66.755900    3.000640  -109.386000
  C    -65.570800    2.639570  -108.801000
  C    -65.804900    1.827540  -107.652000
  C    -67.138200    1.457820  -107.419000
  H    -64.627500    3.043540  -109.171000
  C    -64.655500    1.558450  -106.639000
  H    -65.055700    1.337370  -105.645000
  H    -64.154100    2.509310  -106.537000
  C    -63.551100    0.533872  -107.054000
  H    -63.235700    0.859660  -108.043000
  H    -63.749000   -0.464937  -107.400000
  C    -62.331800    0.506271  -106.146000
  H    -62.722800    0.095641  -105.262000
  H    -61.980700    1.573470  -105.931000
  H    -61.479700   -0.047906  -106.534000
  H    -70.197800    0.042860  -103.771000
  H    -66.678300    3.491470  -110.378000

 Total Charge           Charge          ....    0
 Multiplicity           Mult            ....    1
 Number of Electrons    NEL             ....  134
 Basis Dimension        Dim             ....  322

ORBITAL ENERGIES
----------------

  NO   OCC          E(Eh)            E(eV)
   0   2.0000     -88.964485     -2420.8467
   1   2.0000     -88.963320     -2420.8150
   2   2.0000     -10.329024      -281.0670
   3   2.0000     -10.324262      -280.9375
   4   2.0000     -10.320716      -280.8410
   5   2.0000     -10.312031      -280.6046
   6   2.0000     -10.311759      -280.5972
   7   2.0000     -10.297050      -280.1970
   8   2.0000     -10.296899      -280.1929
   9   2.0000     -10.296340      -280.1777
  10   2.0000     -10.289503      -279.9916
  11   2.0000     -10.288483      -279.9638
  12   2.0000     -10.286942      -279.9219
  13   2.0000     -10.285014      -279.8695
  14   2.0000     -10.282388      -279.7980
  15   2.0000     -10.277791      -279.6729
  16   2.0000      -8.079983      -219.8675
  17   2.0000      -8.077951      -219.8122
  18   2.0000      -6.038331      -164.3113
  19   2.0000      -6.036563      -164.2632
  20   2.0000      -6.034402      -164.2044
  21   2.0000      -6.032486      -164.1523
  22   2.0000      -6.030867      -164.1082
  23   2.0000      -6.028557      -164.0454
  24   2.0000      -1.011211       -27.5165
  25   2.0000      -0.986676       -26.8488
  26   2.0000      -0.909896       -24.7595
  27   2.0000      -0.903711       -24.5912
  28   2.0000      -0.872909       -23.7531
  29   2.0000      -0.852145       -23.1881
  30   2.0000      -0.847157       -23.0523
  31   2.0000      -0.815172       -22.1820
  32   2.0000      -0.783567       -21.3219
  33   2.0000      -0.769886       -20.9497
  34   2.0000      -0.710393       -19.3308
  35   2.0000      -0.704804       -19.1787
  36   2.0000      -0.697657       -18.9842
  37   2.0000      -0.659862       -17.9558
  38   2.0000      -0.643644       -17.5144
  39   2.0000      -0.620311       -16.8795
  40   2.0000      -0.592561       -16.1244
  41   2.0000      -0.571574       -15.5533
  42   2.0000      -0.559966       -15.2374
  43   2.0000      -0.553394       -15.0586
  44   2.0000      -0.530829       -14.4446
  45   2.0000      -0.529203       -14.4003
  46   2.0000      -0.516528       -14.0555
  47   2.0000      -0.512702       -13.9513
  48   2.0000      -0.505047       -13.7430
  49   2.0000      -0.497634       -13.5413
  50   2.0000      -0.491975       -13.3873
  51   2.0000      -0.476636       -12.9699
  52   2.0000      -0.466753       -12.7010
  53   2.0000      -0.462666       -12.5898
  54   2.0000      -0.461794       -12.5661
  55   2.0000      -0.453118       -12.3300
  56   2.0000      -0.450214       -12.2509
  57   2.0000      -0.444200       -12.0873
  58   2.0000      -0.438278       -11.9261
  59   2.0000      -0.420017       -11.4292
  60   2.0000      -0.417488       -11.3604
  61   2.0000      -0.413320       -11.2470
  62   2.0000      -0.402634       -10.9562
  63   2.0000      -0.346845        -9.4381
  64   2.0000      -0.333229        -9.0676
  65   2.0000      -0.329002        -8.9526
  66   2.0000      -0.295737        -8.0474
  67   0.0000       0.030929         0.8416
  68   0.0000       0.061505         1.6736
  69   0.0000       0.112751         3.0681
  70   0.0000       0.124175         3.3790
  71   0.0000       0.131029         3.5655

MULLIKEN ATOMIC CHARGES
-----------------------
   0 S :    0.110980
   1 C :   -0.129702
   2 C :   -0.074717
   3 C :    0.014381
   4 C :   -0.145491
   5 H :    0.016252
   6 C :    0.109009
   7 H :   -0.001545
   8 H :    0.009333
   9 C :   -0.041848
  10 H :    0.016622
  11 H :    0.037675
  12 C :   -0.079836
  13 H :    0.046250
  14 H :    0.037714
  15 H :    0.022559
  16 S :    0.090978
  17 C :   -0.092710
  18 C :   -0.044646
  19 C :   -0.061960
  20 C :   -0.119914
  21 H :    0.031562
  22 C :    0.074394
  23 H :    0.026388
  24 H :    0.017208
  25 C :   -0.060989
  26 H :   -0.004890
  27 H :    0.021222
  28 C :   -0.041585
  29 H :    0.025960
  30 H :    0.027695
  31 H :    0.042176
  32 H :    0.051249
  33 H :    0.070228
Sum of atomic charges:    0.0000000

LOEWDIN ATOMIC CHARGES
----------------------
   0 S :    0.416333
   1 C :   -0.194412
   2 C :   -0.067357
   3 C :   -0.062674
   4 C :   -0.210136
   5 H :    0.033415
   6 C :   -0.026021
   7 H :    0.021376
   8 H :    0.030091
   9 C :   -0.032123
  10 H :    0.017795
  11 H :    0.028637
  12 C :   -0.065589
  13 H :    0.036194
  14 H :    0.027627
  15 H :    0.011533
  16 S :    0.390719
  17 C :   -0.184735
  18 C :   -0.077047
  19 C :   -0.044199
  20 C :   -0.192153
  21 H :    0.036525
  22 C :   -0.023965
  23 H :    0.025715
  24 H :    0.029121
  25 C :   -0.050274
  26 H :    0.017031
  27 H :    0.024743
  28 C :   -0.061180
  29 H :    0.018347
  30 H :    0.028694
  31 H :    0.028657
  32 H :    0.031030
  33 H :    0.038283

  Mayer bond orders larger than 0.100000
B(  0-S ,  1-C ) :   1.1483 B(  0-S ,  4-C ) :   1.1503 B(  1-C ,  2-C ) :   1.6063
B(  1-C , 32-H ) :   0.9664 B(  2-C ,  3-C ) :   1.2582 B(  2-C ,  6-C ) :   1.0114
B(  3-C ,  4-C ) :   1.5718 B(  3-C ,  5-H ) :   0.9925 B(  4-C , 20-C ) :   1.0156
B(  6-C ,  7-H ) :   0.9342 B(  6-C ,  8-H ) :   0.9397 B(  6-C ,  9-C ) :   1.0599
B(  9-C , 10-H ) :   0.9571 B(  9-C , 11-H ) :   0.9587 B(  9-C , 12-C ) :   1.0710
B( 12-C , 13-H ) :   0.9768 B( 12-C , 14-H ) :   0.9782 B( 12-C , 15-H ) :   0.9787
B( 16-S , 17-C ) :   1.1689 B( 16-S , 20-C ) :   1.1138 B( 17-C , 18-C ) :   1.6187
B( 17-C , 33-H ) :   0.9513 B( 18-C , 19-C ) :   1.2399 B( 18-C , 21-H ) :   0.9890
B( 19-C , 20-C ) :   1.6074 B( 19-C , 22-C ) :   1.0307 B( 22-C , 23-H ) :   0.9457
B( 22-C , 24-H ) :   0.9369 B( 22-C , 25-C ) :   1.0430 B( 25-C , 26-H ) :   0.9482
B( 25-C , 27-H ) :   0.9545 B( 25-C , 28-C ) :   1.0840 B( 28-C , 29-H ) :   0.9786
B( 28-C , 30-H ) :   0.9740 B( 28-C , 31-H ) :   0.9727

Dispersion correction           -0.013329453
FINAL SINGLE POINT ENERGY     -1339.856500078200

DIPOLE MOMENT
-------------
                                X             Y             Z
Electronic contribution:    -14.53813      -7.99590     -20.96396
Nuclear contribution   :     14.99438       8.41572      21.30960
                        -----------------------------------------
Total Dipole Moment    :      0.45625       0.41981       0.34564
                        -----------------------------------------
Magnitude (a.u.)       :      0.70984
Magnitude (Debye)      :      1.80428

Rotational constants in cm-1:     0.016782     0.007611     0.006501
Rotational constants in MHz :   503.114244   228.172578   194.898295

                             ****ORCA TERMINATED NORMALLY****
TOTAL RUN TIME: 0 days 0 hours 0 minutes 20 seconds 797 msec
