                         Program Version 4.2.1 -  RELEASE  -
|  1> ! wB97X-D3 SP def2-SVP
|  2> %pal
|  3> nprocs 24
|  4> end
|  5>
|  6> * xyz 0 1
|  7> S 	 -63.0365 	 20.6676 	 -72.0397
|  8> C 	 -63.1448 	 19.4931 	 -73.3678
|  9> C 	 -64.3543 	 18.8128 	 -73.4549
| 10> C 	 -65.2761 	 19.3364 	 -72.4733
| 11> C 	 -64.8078 	 20.3881 	 -71.7536
| 12> H 	 -66.3473 	 19.0814 	 -72.3487
| 13> C 	 -64.6823 	 17.6326 	 -74.407
| 14> H 	 -64.3543 	 16.6411 	 -74.0291
| 15> H 	 -64.0602 	 17.7781 	 -75.227
| 16> C 	 -66.0914 	 17.5626 	 -75.036
| 17> H 	 -66.8642 	 17.22 	 -74.354
| 18> H 	 -66.438 	 18.5298 	 -75.3177
| 19> C 	 -66.1155 	 16.5494 	 -76.1823
| 20> H 	 -66.2917 	 15.4572 	 -75.929
| 21> H 	 -66.8151 	 16.926 	 -76.8913
| 22> H 	 -65.2165 	 16.6376 	 -76.8381
| 23> S 	 -64.7501 	 21.9341 	 -69.3947
| 24> C 	 -66.3139 	 22.7103 	 -68.9157
| 25> C 	 -67.2712 	 22.7075 	 -69.9155
| 26> C 	 -66.7796 	 21.9796 	 -71.0411
| 27> C 	 -65.5367 	 21.3332 	 -70.8815
| 28> H 	 -68.2484 	 23.1811 	 -69.7263
| 29> C 	 -67.5063 	 22.0081 	 -72.3943
| 30> H 	 -66.9879 	 21.3939 	 -73.1813
| 31> H 	 -67.3376 	 23.0108 	 -72.8096
| 32> C 	 -69.0098 	 21.7533 	 -72.3126
| 33> H 	 -69.5382 	 21.9838 	 -73.2855
| 34> H 	 -69.4117 	 22.6413 	 -71.7201
| 35> C 	 -69.3087 	 20.3712 	 -71.7713
| 36> H 	 -70.4453 	 20.2766 	 -71.639
| 37> H 	 -68.9239 	 20.1955 	 -70.7895
| 38> H 	 -69.0915 	 19.5735 	 -72.496
| 39> H 	 -62.2711 	 19.1855 	 -73.9586
| 40> H 	 -66.4941 	 23.3611 	 -68.0886
| 41> *
| 42>
| 43>                          ****END OF INPUT****

CARTESIAN COORDINATES (ANGSTROEM)
---------------------------------
  S    -63.036500   20.667600  -72.039700
  C    -63.144800   19.493100  -73.367800
  C    -64.354300   18.812800  -73.454900
  C    -65.276100   19.336400  -72.473300
  C    -64.807800   20.388100  -71.753600
  H    -66.347300   19.081400  -72.348700
  C    -64.682300   17.632600  -74.407000
  H    -64.354300   16.641100  -74.029100
  H    -64.060200   17.778100  -75.227000
  C    -66.091400   17.562600  -75.036000
  H    -66.864200   17.220000  -74.354000
  H    -66.438000   18.529800  -75.317700
  C    -66.115500   16.549400  -76.182300
  H    -66.291700   15.457200  -75.929000
  H    -66.815100   16.926000  -76.891300
  H    -65.216500   16.637600  -76.838100
  S    -64.750100   21.934100  -69.394700
  C    -66.313900   22.710300  -68.915700
  C    -67.271200   22.707500  -69.915500
  C    -66.779600   21.979600  -71.041100
  C    -65.536700   21.333200  -70.881500
  H    -68.248400   23.181100  -69.726300
  C    -67.506300   22.008100  -72.394300
  H    -66.987900   21.393900  -73.181300
  H    -67.337600   23.010800  -72.809600
  C    -69.009800   21.753300  -72.312600
  H    -69.538200   21.983800  -73.285500
  H    -69.411700   22.641300  -71.720100
  C    -69.308700   20.371200  -71.771300
  H    -70.445300   20.276600  -71.639000
  H    -68.923900   20.195500  -70.789500
  H    -69.091500   19.573500  -72.496000
  H    -62.271100   19.185500  -73.958600
  H    -66.494100   23.361100  -68.088600

 Total Charge           Charge          ....    0
 Multiplicity           Mult            ....    1
 Number of Electrons    NEL             ....  134
 Basis Dimension        Dim             ....  322

ORBITAL ENERGIES
----------------

  NO   OCC          E(Eh)            E(eV)
   0   2.0000     -88.967861     -2420.9386
   1   2.0000     -88.966085     -2420.8903
   2   2.0000     -10.333484      -281.1884
   3   2.0000     -10.332952      -281.1739
   4   2.0000     -10.322358      -280.8856
   5   2.0000     -10.319490      -280.8076
   6   2.0000     -10.309738      -280.5422
   7   2.0000     -10.308396      -280.5057
   8   2.0000     -10.300998      -280.3044
   9   2.0000     -10.296803      -280.1903
  10   2.0000     -10.295195      -280.1465
  11   2.0000     -10.294588      -280.1300
  12   2.0000     -10.291290      -280.0402
  13   2.0000     -10.288477      -279.9637
  14   2.0000     -10.284614      -279.8586
  15   2.0000     -10.282613      -279.8041
  16   2.0000      -8.081082      -219.8974
  17   2.0000      -8.079699      -219.8598
  18   2.0000      -6.039704      -164.3487
  19   2.0000      -6.038319      -164.3110
  20   2.0000      -6.036063      -164.2496
  21   2.0000      -6.034677      -164.2119
  22   2.0000      -6.031547      -164.1267
  23   2.0000      -6.030097      -164.0873
  24   2.0000      -0.996229       -27.1088
  25   2.0000      -0.974737       -26.5239
  26   2.0000      -0.910626       -24.7794
  27   2.0000      -0.905628       -24.6434
  28   2.0000      -0.867991       -23.6192
  29   2.0000      -0.846691       -23.0396
  30   2.0000      -0.840184       -22.8626
  31   2.0000      -0.817460       -22.2442
  32   2.0000      -0.781314       -21.2606
  33   2.0000      -0.769362       -20.9354
  34   2.0000      -0.712259       -19.3816
  35   2.0000      -0.695441       -18.9239
  36   2.0000      -0.691468       -18.8158
  37   2.0000      -0.652449       -17.7540
  38   2.0000      -0.643655       -17.5147
  39   2.0000      -0.616106       -16.7651
  40   2.0000      -0.590693       -16.0736
  41   2.0000      -0.572936       -15.5904
  42   2.0000      -0.562367       -15.3028
  43   2.0000      -0.549323       -14.9478
  44   2.0000      -0.539884       -14.6910
  45   2.0000      -0.522847       -14.2274
  46   2.0000      -0.514000       -13.9867
  47   2.0000      -0.504704       -13.7337
  48   2.0000      -0.497348       -13.5335
  49   2.0000      -0.495741       -13.4898
  50   2.0000      -0.484953       -13.1962
  51   2.0000      -0.478782       -13.0283
  52   2.0000      -0.468444       -12.7470
  53   2.0000      -0.466715       -12.7000
  54   2.0000      -0.453763       -12.3475
  55   2.0000      -0.452499       -12.3131
  56   2.0000      -0.449027       -12.2186
  57   2.0000      -0.437728       -11.9112
  58   2.0000      -0.425941       -11.5904
  59   2.0000      -0.424010       -11.5379
  60   2.0000      -0.421158       -11.4603
  61   2.0000      -0.416542       -11.3347
  62   2.0000      -0.408792       -11.1238
  63   2.0000      -0.349899        -9.5212
  64   2.0000      -0.336275        -9.1505
  65   2.0000      -0.327369        -8.9082
  66   2.0000      -0.285388        -7.7658
  67   0.0000       0.022054         0.6001
  68   0.0000       0.063598         1.7306
  69   0.0000       0.091293         2.4842
  70   0.0000       0.115867         3.1529
  71   0.0000       0.128396         3.4938

MULLIKEN ATOMIC CHARGES
-----------------------
   0 S :    0.088423
   1 C :   -0.116831
   2 C :   -0.099071
   3 C :    0.011828
   4 C :   -0.129362
   5 H :    0.025123
   6 C :    0.098699
   7 H :    0.047501
   8 H :   -0.004355
   9 C :   -0.071670
  10 H :    0.031560
  11 H :    0.021811
  12 C :   -0.069641
  13 H :    0.061272
  14 H :    0.022725
  15 H :    0.021795
  16 S :    0.086911
  17 C :   -0.068218
  18 C :   -0.057572
  19 C :   -0.043495
  20 C :   -0.136021
  21 H :    0.043145
  22 C :    0.036370
  23 H :    0.034227
  24 H :    0.037359
  25 C :   -0.107999
  26 H :    0.033415
  27 H :    0.029549
  28 C :   -0.046252
  29 H :    0.032254
  30 H :    0.046440
  31 H :    0.041438
  32 H :    0.051407
  33 H :    0.047235
Sum of atomic charges:   -0.0000000

LOEWDIN ATOMIC CHARGES
----------------------
   0 S :    0.356049
   1 C :   -0.184267
   2 C :   -0.061817
   3 C :   -0.064331
   4 C :   -0.164834
   5 H :    0.039004
   6 C :   -0.028685
   7 H :    0.038756
   8 H :    0.020695
   9 C :   -0.040165
  10 H :    0.024642
  11 H :    0.021031
  12 C :   -0.073853
  13 H :    0.036745
  14 H :    0.026123
  15 H :    0.026639
  16 S :    0.362090
  17 C :   -0.157213
  18 C :   -0.073138
  19 C :   -0.052235
  20 C :   -0.189559
  21 H :    0.042425
  22 C :   -0.042353
  23 H :    0.032216
  24 H :    0.035317
  25 C :   -0.057365
  26 H :    0.030397
  27 H :    0.026309
  28 C :   -0.071317
  29 H :    0.034541
  30 H :    0.024854
  31 H :    0.028557
  32 H :    0.029371
  33 H :    0.025370

  Mayer bond orders larger than 0.100000
B(  0-S ,  1-C ) :   1.1233 B(  0-S ,  4-C ) :   1.1078 B(  1-C ,  2-C ) :   1.6669
B(  1-C , 32-H ) :   0.9609 B(  2-C ,  3-C ) :   1.1878 B(  2-C ,  6-C ) :   1.0092
B(  3-C ,  4-C ) :   1.6407 B(  3-C ,  5-H ) :   0.9872 B(  4-C , 20-C ) :   1.0446
B(  6-C ,  7-H ) :   0.9383 B(  6-C ,  8-H ) :   0.9367 B(  6-C ,  9-C ) :   1.0645
B(  9-C , 10-H ) :   0.9472 B(  9-C , 11-H ) :   0.9612 B(  9-C , 12-C ) :   1.0845
B( 12-C , 13-H ) :   0.9759 B( 12-C , 14-H ) :   0.9704 B( 12-C , 15-H ) :   0.9719
B( 16-S , 17-C ) :   1.1379 B( 16-S , 20-C ) :   1.1074 B( 17-C , 18-C ) :   1.6494
B( 17-C , 33-H ) :   0.9617 B( 18-C , 19-C ) :   1.2121 B( 18-C , 21-H ) :   0.9840
B( 19-C , 20-C ) :   1.6017 B( 19-C , 22-C ) :   1.0251 B( 22-C , 23-H ) :   0.9422
B( 22-C , 24-H ) :   0.9348 B( 22-C , 25-C ) :   1.0703 B( 25-C , 26-H ) :   0.9521
B( 25-C , 27-H ) :   0.9496 B( 25-C , 28-C ) :   1.0771 B( 28-C , 29-H ) :   0.9702
B( 28-C , 30-H ) :   0.9712 B( 28-C , 31-H ) :   0.9692

Dispersion correction           -0.014594850
FINAL SINGLE POINT ENERGY     -1339.860679546932

DIPOLE MOMENT
-------------
                                X             Y             Z
Electronic contribution:     21.68098      13.72679      19.99534
Nuclear contribution   :    -22.34219     -13.83881     -20.53145
                        -----------------------------------------
Total Dipole Moment    :     -0.66121      -0.11202      -0.53611
                        -----------------------------------------
Magnitude (a.u.)       :      0.85858
Magnitude (Debye)      :      2.18234

Rotational constants in cm-1:     0.018216     0.009165     0.006464
Rotational constants in MHz :   546.108524   274.769461   193.779229

                             ****ORCA TERMINATED NORMALLY****
TOTAL RUN TIME: 0 days 0 hours 0 minutes 21 seconds 901 msec
