                         Program Version 4.2.1 -  RELEASE  -
|  1> ! wB97X-D3 SP def2-SVP
|  2> %pal
|  3> nprocs 24
|  4> end
|  5>
|  6> * xyz 0 1
|  7> S 	 -136.59 	 25.8062 	 -16.1841
|  8> C 	 -137.601 	 24.6387 	 -16.9972
|  9> C 	 -136.891 	 23.9105 	 -17.934
| 10> C 	 -135.49 	 24.2949 	 -17.8827
| 11> C 	 -135.189 	 25.4379 	 -17.17
| 12> H 	 -134.746 	 23.8259 	 -18.466
| 13> C 	 -137.402 	 22.6952 	 -18.6218
| 14> H 	 -137.648 	 23.015 	 -19.6329
| 15> H 	 -138.358 	 22.4923 	 -18.203
| 16> C 	 -136.545 	 21.4024 	 -18.5237
| 17> H 	 -137.004 	 20.6164 	 -19.1914
| 18> H 	 -135.503 	 21.6084 	 -18.8372
| 19> C 	 -136.609 	 20.8278 	 -17.0922
| 20> H 	 -135.933 	 19.9873 	 -16.9553
| 21> H 	 -136.315 	 21.6748 	 -16.4548
| 22> H 	 -137.626 	 20.4786 	 -16.806
| 23> S 	 -133.185 	 26.5372 	 -15.6034
| 24> C 	 -131.705 	 27.0008 	 -16.3924
| 25> C 	 -131.831 	 27.0415 	 -17.7415
| 26> C 	 -133.097 	 26.4768 	 -18.1652
| 27> C 	 -133.94 	 26.1471 	 -17.1611
| 28> H 	 -131.021 	 27.3441 	 -18.3996
| 29> C 	 -133.383 	 26.2197 	 -19.6555
| 30> H 	 -134.409 	 26.0888 	 -19.8247
| 31> H 	 -133.064 	 25.225 	 -19.8353
| 32> C 	 -132.556 	 27.0154 	 -20.7122
| 33> H 	 -131.518 	 26.6682 	 -20.5061
| 34> H 	 -132.56 	 28.0937 	 -20.4629
| 35> C 	 -133.003 	 26.8726 	 -22.1556
| 36> H 	 -132.303 	 27.4225 	 -22.7852
| 37> H 	 -134.014 	 27.2234 	 -22.3423
| 38> H 	 -133.025 	 25.8537 	 -22.423
| 39> H 	 -138.638 	 24.4012 	 -16.7413
| 40> H 	 -130.781 	 27.2729 	 -15.8711
| 41> *
| 42>
| 43>                          ****END OF INPUT****

CARTESIAN COORDINATES (ANGSTROEM)
---------------------------------
  S    -136.590000   25.806200  -16.184100
  C    -137.601000   24.638700  -16.997200
  C    -136.891000   23.910500  -17.934000
  C    -135.490000   24.294900  -17.882700
  C    -135.189000   25.437900  -17.170000
  H    -134.746000   23.825900  -18.466000
  C    -137.402000   22.695200  -18.621800
  H    -137.648000   23.015000  -19.632900
  H    -138.358000   22.492300  -18.203000
  C    -136.545000   21.402400  -18.523700
  H    -137.004000   20.616400  -19.191400
  H    -135.503000   21.608400  -18.837200
  C    -136.609000   20.827800  -17.092200
  H    -135.933000   19.987300  -16.955300
  H    -136.315000   21.674800  -16.454800
  H    -137.626000   20.478600  -16.806000
  S    -133.185000   26.537200  -15.603400
  C    -131.705000   27.000800  -16.392400
  C    -131.831000   27.041500  -17.741500
  C    -133.097000   26.476800  -18.165200
  C    -133.940000   26.147100  -17.161100
  H    -131.021000   27.344100  -18.399600
  C    -133.383000   26.219700  -19.655500
  H    -134.409000   26.088800  -19.824700
  H    -133.064000   25.225000  -19.835300
  C    -132.556000   27.015400  -20.712200
  H    -131.518000   26.668200  -20.506100
  H    -132.560000   28.093700  -20.462900
  C    -133.003000   26.872600  -22.155600
  H    -132.303000   27.422500  -22.785200
  H    -134.014000   27.223400  -22.342300
  H    -133.025000   25.853700  -22.423000
  H    -138.638000   24.401200  -16.741300
  H    -130.781000   27.272900  -15.871100

 Total Charge           Charge          ....    0
 Multiplicity           Mult            ....    1
 Number of Electrons    NEL             ....  134
 Basis Dimension        Dim             ....  322

ORBITAL ENERGIES
----------------

  NO   OCC          E(Eh)            E(eV)
   0   2.0000     -88.964105     -2420.8364
   1   2.0000     -88.962003     -2420.7792
   2   2.0000     -10.329288      -281.0742
   3   2.0000     -10.323195      -280.9084
   4   2.0000     -10.319239      -280.8008
   5   2.0000     -10.314990      -280.6851
   6   2.0000     -10.305844      -280.4363
   7   2.0000     -10.300422      -280.2887
   8   2.0000     -10.297319      -280.2043
   9   2.0000     -10.294525      -280.1283
  10   2.0000     -10.293326      -280.0956
  11   2.0000     -10.291382      -280.0427
  12   2.0000     -10.289352      -279.9875
  13   2.0000     -10.284656      -279.8597
  14   2.0000     -10.279196      -279.7111
  15   2.0000     -10.277354      -279.6610
  16   2.0000      -8.078917      -219.8385
  17   2.0000      -8.077107      -219.7893
  18   2.0000      -6.037574      -164.2907
  19   2.0000      -6.035736      -164.2407
  20   2.0000      -6.033349      -164.1758
  21   2.0000      -6.031673      -164.1302
  22   2.0000      -6.029577      -164.0731
  23   2.0000      -6.027607      -164.0195
  24   2.0000      -1.008986       -27.4559
  25   2.0000      -0.986303       -26.8387
  26   2.0000      -0.913870       -24.8677
  27   2.0000      -0.908308       -24.7163
  28   2.0000      -0.874677       -23.8012
  29   2.0000      -0.852280       -23.1917
  30   2.0000      -0.841031       -22.8856
  31   2.0000      -0.818579       -22.2747
  32   2.0000      -0.786267       -21.3954
  33   2.0000      -0.774578       -21.0773
  34   2.0000      -0.712081       -19.3767
  35   2.0000      -0.705243       -19.1906
  36   2.0000      -0.690817       -18.7981
  37   2.0000      -0.654678       -17.8147
  38   2.0000      -0.639838       -17.4109
  39   2.0000      -0.625202       -17.0126
  40   2.0000      -0.600721       -16.3465
  41   2.0000      -0.569133       -15.4869
  42   2.0000      -0.564905       -15.3718
  43   2.0000      -0.556991       -15.1565
  44   2.0000      -0.538428       -14.6514
  45   2.0000      -0.530938       -14.4476
  46   2.0000      -0.518902       -14.1200
  47   2.0000      -0.515450       -14.0261
  48   2.0000      -0.507277       -13.8037
  49   2.0000      -0.495860       -13.4930
  50   2.0000      -0.485286       -13.2053
  51   2.0000      -0.483246       -13.1498
  52   2.0000      -0.472342       -12.8531
  53   2.0000      -0.465731       -12.6732
  54   2.0000      -0.463055       -12.6004
  55   2.0000      -0.457709       -12.4549
  56   2.0000      -0.447902       -12.1880
  57   2.0000      -0.433659       -11.8005
  58   2.0000      -0.431401       -11.7390
  59   2.0000      -0.426760       -11.6127
  60   2.0000      -0.421790       -11.4775
  61   2.0000      -0.414284       -11.2732
  62   2.0000      -0.412762       -11.2318
  63   2.0000      -0.352962        -9.6046
  64   2.0000      -0.329037        -8.9535
  65   2.0000      -0.326115        -8.8741
  66   2.0000      -0.292989        -7.9726
  67   0.0000       0.030550         0.8313
  68   0.0000       0.071967         1.9583
  69   0.0000       0.112565         3.0630
  70   0.0000       0.123433         3.3588
  71   0.0000       0.131998         3.5918

MULLIKEN ATOMIC CHARGES
-----------------------
   0 S :    0.109191
   1 C :   -0.114466
   2 C :   -0.129061
   3 C :    0.023376
   4 C :   -0.146691
   5 H :   -0.008526
   6 C :    0.106735
   7 H :    0.034678
   8 H :   -0.006180
   9 C :   -0.097457
  10 H :    0.040958
  11 H :    0.043171
  12 C :   -0.064429
  13 H :    0.038961
  14 H :    0.048144
  15 H :    0.033308
  16 S :    0.095527
  17 C :   -0.081243
  18 C :   -0.040754
  19 C :   -0.044659
  20 C :   -0.137617
  21 H :    0.024352
  22 C :    0.082966
  23 H :    0.013413
  24 H :    0.018780
  25 C :   -0.122595
  26 H :    0.035278
  27 H :    0.036722
  28 C :    0.007042
  29 H :    0.037727
  30 H :    0.033933
  31 H :    0.013755
  32 H :    0.053393
  33 H :    0.062268
Sum of atomic charges:   -0.0000000

LOEWDIN ATOMIC CHARGES
----------------------
   0 S :    0.401474
   1 C :   -0.199259
   2 C :   -0.067632
   3 C :   -0.061191
   4 C :   -0.190087
   5 H :    0.018142
   6 C :   -0.033745
   7 H :    0.034519
   8 H :    0.024164
   9 C :   -0.040351
  10 H :    0.030927
  11 H :    0.024484
  12 C :   -0.067469
  13 H :    0.024908
  14 H :    0.030312
  15 H :    0.026776
  16 S :    0.388130
  17 C :   -0.174364
  18 C :   -0.078072
  19 C :   -0.040915
  20 C :   -0.196658
  21 H :    0.033991
  22 C :   -0.032940
  23 H :    0.020907
  24 H :    0.029570
  25 C :   -0.043017
  26 H :    0.025163
  27 H :    0.023314
  28 C :   -0.056308
  29 H :    0.031390
  30 H :    0.029045
  31 H :    0.017668
  32 H :    0.032115
  33 H :    0.035010

  Mayer bond orders larger than 0.100000
B(  0-S ,  1-C ) :   1.1400 B(  0-S ,  4-C ) :   1.1372 B(  1-C ,  2-C ) :   1.6119
B(  1-C , 32-H ) :   0.9615 B(  2-C ,  3-C ) :   1.2315 B(  2-C ,  6-C ) :   1.0304
B(  3-C ,  4-C ) :   1.5729 B(  3-C ,  5-H ) :   0.9962 B(  4-C , 20-C ) :   1.0646
B(  6-C ,  7-H ) :   0.9226 B(  6-C ,  8-H ) :   0.9358 B(  6-C ,  9-C ) :   1.0683
B(  9-C , 10-H ) :   0.9543 B(  9-C , 11-H ) :   0.9559 B(  9-C , 12-C ) :   1.0681
B( 12-C , 13-H ) :   0.9752 B( 12-C , 14-H ) :   0.9783 B( 12-C , 15-H ) :   0.9738
B( 16-S , 17-C ) :   1.1565 B( 16-S , 20-C ) :   1.0980 B( 17-C , 18-C ) :   1.6319
B( 17-C , 33-H ) :   0.9604 B( 18-C , 19-C ) :   1.2071 B( 18-C , 21-H ) :   0.9890
B( 19-C , 20-C ) :   1.6574 B( 19-C , 22-C ) :   1.0379 B( 22-C , 23-H ) :   0.9343
B( 22-C , 24-H ) :   0.9206 B( 22-C , 25-C ) :   1.0491 B( 25-C , 26-H ) :   0.9454
B( 25-C , 27-H ) :   0.9636 B( 25-C , 28-C ) :   1.0878 B( 28-C , 29-H ) :   0.9709
B( 28-C , 30-H ) :   0.9727 B( 28-C , 31-H ) :   0.9724

Dispersion correction           -0.014050834
FINAL SINGLE POINT ENERGY     -1339.882977095013

DIPOLE MOMENT
-------------
                                X             Y             Z
Electronic contribution:     -0.27299      13.99107      22.30212
Nuclear contribution   :      0.48505     -14.42223     -22.98451
                        -----------------------------------------
Total Dipole Moment    :      0.21206      -0.43116      -0.68239
                        -----------------------------------------
Magnitude (a.u.)       :      0.83458
Magnitude (Debye)      :      2.12133

Rotational constants in cm-1:     0.016789     0.008780     0.006848
Rotational constants in MHz :   503.308167   263.206788   205.295440

                             ****ORCA TERMINATED NORMALLY****
TOTAL RUN TIME: 0 days 0 hours 0 minutes 21 seconds 564 msec
