                         Program Version 4.2.1 -  RELEASE  -
|  1> ! wB97X-D3 SP def2-SVP
|  2> %pal
|  3> nprocs 24
|  4> end
|  5>
|  6> * xyz 0 1
|  7> S 	 41.8225 	 -14.0976 	 -124.373
|  8> C 	 40.0845 	 -14.144 	 -124.588
|  9> C 	 39.8086 	 -14.2502 	 -125.96
| 10> C 	 40.9635 	 -14.4812 	 -126.779
| 11> C 	 42.1363 	 -14.4448 	 -126.048
| 12> H 	 40.9555 	 -14.6327 	 -127.891
| 13> C 	 38.3663 	 -14.2809 	 -126.485
| 14> H 	 37.8368 	 -14.5802 	 -125.553
| 15> H 	 38.3021 	 -15.2135 	 -127.09
| 16> C 	 37.9748 	 -12.9788 	 -127.22
| 17> H 	 38.6612 	 -12.8074 	 -127.993
| 18> H 	 37.0514 	 -13.041 	 -127.809
| 19> C 	 37.6836 	 -11.8295 	 -126.213
| 20> H 	 38.6363 	 -11.5429 	 -125.858
| 21> H 	 37.2397 	 -10.9939 	 -126.764
| 22> H 	 37.2562 	 -12.1022 	 -125.277
| 23> S 	 44.5335 	 -15.6088 	 -125.252
| 24> C 	 45.7846 	 -15.7866 	 -126.361
| 25> C 	 45.5339 	 -15.178 	 -127.55
| 26> C 	 44.2911 	 -14.6405 	 -127.672
| 27> C 	 43.5068 	 -14.7819 	 -126.49
| 28> H 	 46.3654 	 -15.0444 	 -128.262
| 29> C 	 43.7808 	 -13.8223 	 -128.863
| 30> H 	 42.8613 	 -13.3267 	 -128.646
| 31> H 	 43.464 	 -14.5531 	 -129.556
| 32> C 	 44.8662 	 -12.882 	 -129.53
| 33> H 	 45.7415 	 -13.3619 	 -129.991
| 34> H 	 45.2848 	 -12.2335 	 -128.816
| 35> C 	 44.2379 	 -12.049 	 -130.699
| 36> H 	 44.0924 	 -12.652 	 -131.573
| 37> H 	 44.9017 	 -11.2795 	 -131.137
| 38> H 	 43.298 	 -11.5368 	 -130.448
| 39> H 	 39.3856 	 -13.7899 	 -123.87
| 40> H 	 46.6611 	 -16.2779 	 -126.018
| 41> *
| 42>
| 43>                          ****END OF INPUT****

CARTESIAN COORDINATES (ANGSTROEM)
---------------------------------
  S     41.822500  -14.097600  -124.373000
  C     40.084500  -14.144000  -124.588000
  C     39.808600  -14.250200  -125.960000
  C     40.963500  -14.481200  -126.779000
  C     42.136300  -14.444800  -126.048000
  H     40.955500  -14.632700  -127.891000
  C     38.366300  -14.280900  -126.485000
  H     37.836800  -14.580200  -125.553000
  H     38.302100  -15.213500  -127.090000
  C     37.974800  -12.978800  -127.220000
  H     38.661200  -12.807400  -127.993000
  H     37.051400  -13.041000  -127.809000
  C     37.683600  -11.829500  -126.213000
  H     38.636300  -11.542900  -125.858000
  H     37.239700  -10.993900  -126.764000
  H     37.256200  -12.102200  -125.277000
  S     44.533500  -15.608800  -125.252000
  C     45.784600  -15.786600  -126.361000
  C     45.533900  -15.178000  -127.550000
  C     44.291100  -14.640500  -127.672000
  C     43.506800  -14.781900  -126.490000
  H     46.365400  -15.044400  -128.262000
  C     43.780800  -13.822300  -128.863000
  H     42.861300  -13.326700  -128.646000
  H     43.464000  -14.553100  -129.556000
  C     44.866200  -12.882000  -129.530000
  H     45.741500  -13.361900  -129.991000
  H     45.284800  -12.233500  -128.816000
  C     44.237900  -12.049000  -130.699000
  H     44.092400  -12.652000  -131.573000
  H     44.901700  -11.279500  -131.137000
  H     43.298000  -11.536800  -130.448000
  H     39.385600  -13.789900  -123.870000
  H     46.661100  -16.277900  -126.018000

 Total Charge           Charge          ....    0
 Multiplicity           Mult            ....    1
 Number of Electrons    NEL             ....  134
 Basis Dimension        Dim             ....  322

ORBITAL ENERGIES
----------------

  NO   OCC          E(Eh)            E(eV)
   0   2.0000     -88.965239     -2420.8672
   1   2.0000     -88.963499     -2420.8199
   2   2.0000     -10.334706      -281.2217
   3   2.0000     -10.332640      -281.1654
   4   2.0000     -10.312307      -280.6121
   5   2.0000     -10.309861      -280.5456
   6   2.0000     -10.305589      -280.4293
   7   2.0000     -10.303876      -280.3827
   8   2.0000     -10.297881      -280.2196
   9   2.0000     -10.296429      -280.1801
  10   2.0000     -10.293538      -280.1014
  11   2.0000     -10.293181      -280.0917
  12   2.0000     -10.288143      -279.9546
  13   2.0000     -10.287271      -279.9309
  14   2.0000     -10.280939      -279.7586
  15   2.0000     -10.272430      -279.5270
  16   2.0000      -8.080133      -219.8716
  17   2.0000      -8.078987      -219.8404
  18   2.0000      -6.038671      -164.3206
  19   2.0000      -6.037161      -164.2795
  20   2.0000      -6.034620      -164.2104
  21   2.0000      -6.033283      -164.1740
  22   2.0000      -6.030841      -164.1075
  23   2.0000      -6.030158      -164.0889
  24   2.0000      -1.008721       -27.4487
  25   2.0000      -0.988283       -26.8925
  26   2.0000      -0.908702       -24.7270
  27   2.0000      -0.905615       -24.6430
  28   2.0000      -0.865955       -23.5638
  29   2.0000      -0.855574       -23.2814
  30   2.0000      -0.843742       -22.9594
  31   2.0000      -0.814173       -22.1548
  32   2.0000      -0.785633       -21.3782
  33   2.0000      -0.771241       -20.9865
  34   2.0000      -0.716436       -19.4952
  35   2.0000      -0.710685       -19.3387
  36   2.0000      -0.697749       -18.9867
  37   2.0000      -0.653778       -17.7902
  38   2.0000      -0.637824       -17.3561
  39   2.0000      -0.621061       -16.8999
  40   2.0000      -0.604353       -16.4453
  41   2.0000      -0.564197       -15.3526
  42   2.0000      -0.563488       -15.3333
  43   2.0000      -0.552397       -15.0315
  44   2.0000      -0.534150       -14.5350
  45   2.0000      -0.528198       -14.3730
  46   2.0000      -0.517361       -14.0781
  47   2.0000      -0.514934       -14.0121
  48   2.0000      -0.502625       -13.6771
  49   2.0000      -0.493463       -13.4278
  50   2.0000      -0.489720       -13.3260
  51   2.0000      -0.479820       -13.0566
  52   2.0000      -0.478506       -13.0208
  53   2.0000      -0.467002       -12.7078
  54   2.0000      -0.460404       -12.5282
  55   2.0000      -0.454352       -12.3635
  56   2.0000      -0.451617       -12.2891
  57   2.0000      -0.438539       -11.9332
  58   2.0000      -0.431819       -11.7504
  59   2.0000      -0.428529       -11.6609
  60   2.0000      -0.423664       -11.5285
  61   2.0000      -0.413768       -11.2592
  62   2.0000      -0.400753       -10.9050
  63   2.0000      -0.356075        -9.6893
  64   2.0000      -0.337281        -9.1779
  65   2.0000      -0.329460        -8.9651
  66   2.0000      -0.281557        -7.6616
  67   0.0000       0.021752         0.5919
  68   0.0000       0.075282         2.0485
  69   0.0000       0.107677         2.9300
  70   0.0000       0.126765         3.4494
  71   0.0000       0.135264         3.6807

MULLIKEN ATOMIC CHARGES
-----------------------
   0 S :    0.098420
   1 C :   -0.107525
   2 C :   -0.138413
   3 C :    0.002865
   4 C :   -0.114406
   5 H :    0.032476
   6 C :    0.025127
   7 H :    0.026671
   8 H :    0.038070
   9 C :   -0.025282
  10 H :    0.013738
  11 H :    0.023224
  12 C :   -0.020582
  13 H :    0.014361
  14 H :    0.043467
  15 H :    0.021980
  16 S :    0.097967
  17 C :   -0.077979
  18 C :   -0.052964
  19 C :   -0.013335
  20 C :   -0.173996
  21 H :    0.024571
  22 C :    0.110238
  23 H :    0.015202
  24 H :    0.021962
  25 C :   -0.068067
  26 H :    0.035092
  27 H :    0.031600
  28 C :   -0.073155
  29 H :    0.024008
  30 H :    0.031038
  31 H :    0.036786
  32 H :    0.048546
  33 H :    0.048296
Sum of atomic charges:   -0.0000000

LOEWDIN ATOMIC CHARGES
----------------------
   0 S :    0.405967
   1 C :   -0.209134
   2 C :   -0.058212
   3 C :   -0.082691
   4 C :   -0.187832
   5 H :    0.039139
   6 C :   -0.036350
   7 H :    0.033157
   8 H :    0.034957
   9 C :   -0.035666
  10 H :    0.017999
  11 H :    0.023561
  12 C :   -0.060240
  13 H :    0.020928
  14 H :    0.030799
  15 H :    0.023323
  16 S :    0.417379
  17 C :   -0.190878
  18 C :   -0.086779
  19 C :   -0.050991
  20 C :   -0.185471
  21 H :    0.038307
  22 C :   -0.021031
  23 H :    0.026743
  24 H :    0.029512
  25 C :   -0.031641
  26 H :    0.027734
  27 H :    0.018872
  28 C :   -0.071882
  29 H :    0.020860
  30 H :    0.029376
  31 H :    0.024770
  32 H :    0.023400
  33 H :    0.022015

  Mayer bond orders larger than 0.100000
B(  0-S ,  1-C ) :   1.1264 B(  0-S ,  4-C ) :   1.1675 B(  1-C ,  2-C ) :   1.6015
B(  1-C , 32-H ) :   0.9682 B(  2-C ,  3-C ) :   1.2524 B(  2-C ,  6-C ) :   1.0075
B(  3-C ,  4-C ) :   1.5515 B(  3-C ,  5-H ) :   0.9825 B(  4-C , 20-C ) :   1.0519
B(  6-C ,  7-H ) :   0.9539 B(  6-C ,  8-H ) :   0.9463 B(  6-C ,  9-C ) :   1.0481
B(  9-C , 10-H ) :   0.9583 B(  9-C , 11-H ) :   0.9613 B(  9-C , 12-C ) :   1.0588
B( 12-C , 13-H ) :   0.9742 B( 12-C , 14-H ) :   0.9754 B( 12-C , 15-H ) :   0.9750
B( 16-S , 17-C ) :   1.2033 B( 16-S , 20-C ) :   1.1527 B( 17-C , 18-C ) :   1.5342
B( 17-C , 20-C ) :   0.1135 B( 17-C , 33-H ) :   0.9724 B( 18-C , 19-C ) :   1.3127
B( 18-C , 21-H ) :   0.9910 B( 19-C , 20-C ) :   1.5262 B( 19-C , 22-C ) :   1.0275
B( 22-C , 23-H ) :   0.9384 B( 22-C , 24-H ) :   0.9236 B( 22-C , 25-C ) :   1.0517
B( 25-C , 26-H ) :   0.9520 B( 25-C , 27-H ) :   0.9651 B( 25-C , 28-C ) :   1.0808
B( 28-C , 29-H ) :   0.9771 B( 28-C , 30-H ) :   0.9743 B( 28-C , 31-H ) :   0.9779

Dispersion correction           -0.013834090
FINAL SINGLE POINT ENERGY     -1339.863159859793

DIPOLE MOMENT
-------------
                                X             Y             Z
Electronic contribution:     12.90139     -14.47802      21.34322
Nuclear contribution   :    -12.93468      14.70469     -21.97629
                        -----------------------------------------
Total Dipole Moment    :     -0.03329       0.22667      -0.63308
                        -----------------------------------------
Magnitude (a.u.)       :      0.67326
Magnitude (Debye)      :      1.71128

Rotational constants in cm-1:     0.017601     0.008633     0.006207
Rotational constants in MHz :   527.671430   258.802236   186.081291

                             ****ORCA TERMINATED NORMALLY****
TOTAL RUN TIME: 0 days 0 hours 0 minutes 21 seconds 250 msec
