                         Program Version 4.2.1 -  RELEASE  -
|  1> ! wB97X-D3 SP def2-SVP
|  2> %pal
|  3> nprocs 24
|  4> end
|  5>
|  6> * xyz 0 1
|  7> S 	 -98.1694 	 -0.674844 	 -115.647
|  8> C 	 -97.5395 	 -1.52938 	 -117.055
|  9> C 	 -98.0141 	 -0.958855 	 -118.209
| 10> C 	 -98.6567 	 0.311718 	 -118.011
| 11> C 	 -98.7911 	 0.635337 	 -116.685
| 12> H 	 -98.9931 	 0.998114 	 -118.786
| 13> C 	 -97.6013 	 -1.47188 	 -119.601
| 14> H 	 -96.6072 	 -1.82808 	 -119.643
| 15> H 	 -97.6129 	 -0.567824 	 -120.197
| 16> C 	 -98.5332 	 -2.59664 	 -120.279
| 17> H 	 -99.5766 	 -2.31387 	 -120.172
| 18> H 	 -98.3706 	 -2.7381 	 -121.272
| 19> C 	 -98.3531 	 -4.02467 	 -119.753
| 20> H 	 -97.3328 	 -4.25743 	 -120.023
| 21> H 	 -98.4247 	 -4.2168 	 -118.612
| 22> H 	 -98.9468 	 -4.81542 	 -120.324
| 23> S 	 -98.6696 	 2.55681 	 -114.817
| 24> C 	 -99.7545 	 4.01445 	 -114.903
| 25> C 	 -100.489 	 3.97494 	 -116.021
| 26> C 	 -100.329 	 2.76198 	 -116.794
| 27> C 	 -99.3819 	 1.89663 	 -116.265
| 28> H 	 -101.297 	 4.70046 	 -116.106
| 29> C 	 -101.034 	 2.52151 	 -118.108
| 30> H 	 -101.354 	 1.45426 	 -118.168
| 31> H 	 -100.398 	 2.71596 	 -118.973
| 32> C 	 -102.289 	 3.42491 	 -118.451
| 33> H 	 -102.089 	 4.48217 	 -118.541
| 34> H 	 -103.022 	 3.16534 	 -117.648
| 35> C 	 -102.931 	 2.95797 	 -119.749
| 36> H 	 -103.894 	 3.48382 	 -119.807
| 37> H 	 -103.174 	 1.87404 	 -119.864
| 38> H 	 -102.411 	 3.38741 	 -120.631
| 39> H 	 -97.065 	 -2.50494 	 -117.133
| 40> H 	 -99.9092 	 4.67341 	 -114.11
| 41> *
| 42>
| 43>                          ****END OF INPUT****

CARTESIAN COORDINATES (ANGSTROEM)
---------------------------------
  S    -98.169400   -0.674844  -115.647000
  C    -97.539500   -1.529380  -117.055000
  C    -98.014100   -0.958855  -118.209000
  C    -98.656700    0.311718  -118.011000
  C    -98.791100    0.635337  -116.685000
  H    -98.993100    0.998114  -118.786000
  C    -97.601300   -1.471880  -119.601000
  H    -96.607200   -1.828080  -119.643000
  H    -97.612900   -0.567824  -120.197000
  C    -98.533200   -2.596640  -120.279000
  H    -99.576600   -2.313870  -120.172000
  H    -98.370600   -2.738100  -121.272000
  C    -98.353100   -4.024670  -119.753000
  H    -97.332800   -4.257430  -120.023000
  H    -98.424700   -4.216800  -118.612000
  H    -98.946800   -4.815420  -120.324000
  S    -98.669600    2.556810  -114.817000
  C    -99.754500    4.014450  -114.903000
  C    -100.489000    3.974940  -116.021000
  C    -100.329000    2.761980  -116.794000
  C    -99.381900    1.896630  -116.265000
  H    -101.297000    4.700460  -116.106000
  C    -101.034000    2.521510  -118.108000
  H    -101.354000    1.454260  -118.168000
  H    -100.398000    2.715960  -118.973000
  C    -102.289000    3.424910  -118.451000
  H    -102.089000    4.482170  -118.541000
  H    -103.022000    3.165340  -117.648000
  C    -102.931000    2.957970  -119.749000
  H    -103.894000    3.483820  -119.807000
  H    -103.174000    1.874040  -119.864000
  H    -102.411000    3.387410  -120.631000
  H    -97.065000   -2.504940  -117.133000
  H    -99.909200    4.673410  -114.110000

 Total Charge           Charge          ....    0
 Multiplicity           Mult            ....    1
 Number of Electrons    NEL             ....  134
 Basis Dimension        Dim             ....  322

ORBITAL ENERGIES
----------------

  NO   OCC          E(Eh)            E(eV)
   0   2.0000     -88.971250     -2421.0308
   1   2.0000     -88.959198     -2420.7029
   2   2.0000     -10.332797      -281.1697
   3   2.0000     -10.328689      -281.0579
   4   2.0000     -10.315617      -280.7022
   5   2.0000     -10.313632      -280.6482
   6   2.0000     -10.306453      -280.4528
   7   2.0000     -10.302293      -280.3397
   8   2.0000     -10.296789      -280.1899
   9   2.0000     -10.295648      -280.1588
  10   2.0000     -10.295206      -280.1468
  11   2.0000     -10.294312      -280.1225
  12   2.0000     -10.293707      -280.1060
  13   2.0000     -10.288260      -279.9578
  14   2.0000     -10.285017      -279.8695
  15   2.0000     -10.284304      -279.8501
  16   2.0000      -8.084835      -219.9995
  17   2.0000      -8.073633      -219.6947
  18   2.0000      -6.043617      -164.4552
  19   2.0000      -6.039572      -164.3451
  20   2.0000      -6.035276      -164.2282
  21   2.0000      -6.032294      -164.1471
  22   2.0000      -6.028211      -164.0360
  23   2.0000      -6.024206      -163.9270
  24   2.0000      -1.005367       -27.3574
  25   2.0000      -0.981186       -26.6994
  26   2.0000      -0.906363       -24.6634
  27   2.0000      -0.903583       -24.5877
  28   2.0000      -0.875544       -23.8248
  29   2.0000      -0.853321       -23.2201
  30   2.0000      -0.843839       -22.9620
  31   2.0000      -0.821187       -22.3456
  32   2.0000      -0.777752       -21.1637
  33   2.0000      -0.768950       -20.9242
  34   2.0000      -0.709283       -19.3006
  35   2.0000      -0.700668       -19.0661
  36   2.0000      -0.698027       -18.9943
  37   2.0000      -0.655118       -17.8267
  38   2.0000      -0.636768       -17.3273
  39   2.0000      -0.620513       -16.8850
  40   2.0000      -0.598827       -16.2949
  41   2.0000      -0.577417       -15.7123
  42   2.0000      -0.570862       -15.5339
  43   2.0000      -0.546139       -14.8612
  44   2.0000      -0.539481       -14.6800
  45   2.0000      -0.524611       -14.2754
  46   2.0000      -0.517433       -14.0801
  47   2.0000      -0.510278       -13.8854
  48   2.0000      -0.501610       -13.6495
  49   2.0000      -0.496925       -13.5220
  50   2.0000      -0.487021       -13.2525
  51   2.0000      -0.479477       -13.0472
  52   2.0000      -0.470800       -12.8111
  53   2.0000      -0.466122       -12.6838
  54   2.0000      -0.461525       -12.5587
  55   2.0000      -0.447586       -12.1794
  56   2.0000      -0.446423       -12.1478
  57   2.0000      -0.441019       -12.0007
  58   2.0000      -0.435065       -11.8387
  59   2.0000      -0.421945       -11.4817
  60   2.0000      -0.419666       -11.4197
  61   2.0000      -0.414917       -11.2905
  62   2.0000      -0.405895       -11.0450
  63   2.0000      -0.360727        -9.8159
  64   2.0000      -0.332923        -9.0593
  65   2.0000      -0.326497        -8.8844
  66   2.0000      -0.290012        -7.8916
  67   0.0000       0.020809         0.5662
  68   0.0000       0.081595         2.2203
  69   0.0000       0.103116         2.8059
  70   0.0000       0.120918         3.2904
  71   0.0000       0.128729         3.5029

MULLIKEN ATOMIC CHARGES
-----------------------
   0 S :    0.120277
   1 C :   -0.109503
   2 C :   -0.072473
   3 C :   -0.016081
   4 C :   -0.099785
   5 H :    0.015569
   6 C :    0.057708
   7 H :    0.019598
   8 H :    0.021025
   9 C :   -0.011117
  10 H :    0.026376
  11 H :    0.010527
  12 C :   -0.114611
  13 H :    0.014327
  14 H :    0.050130
  15 H :    0.047795
  16 S :    0.067264
  17 C :   -0.066700
  18 C :   -0.024049
  19 C :   -0.023675
  20 C :   -0.139613
  21 H :    0.031562
  22 C :   -0.022920
  23 H :    0.046418
  24 H :    0.047963
  25 C :   -0.095498
  26 H :    0.044443
  27 H :    0.039479
  28 C :   -0.065458
  29 H :    0.027873
  30 H :    0.047425
  31 H :    0.034519
  32 H :    0.054045
  33 H :    0.037159
Sum of atomic charges:   -0.0000000

LOEWDIN ATOMIC CHARGES
----------------------
   0 S :    0.386882
   1 C :   -0.191745
   2 C :   -0.062714
   3 C :   -0.059829
   4 C :   -0.184110
   5 H :    0.034954
   6 C :   -0.021507
   7 H :    0.023381
   8 H :    0.030858
   9 C :   -0.031645
  10 H :    0.021960
  11 H :    0.013196
  12 C :   -0.080927
  13 H :    0.017156
  14 H :    0.030293
  15 H :    0.035615
  16 S :    0.368651
  17 C :   -0.149792
  18 C :   -0.069475
  19 C :   -0.064678
  20 C :   -0.182774
  21 H :    0.037348
  22 C :   -0.042376
  23 H :    0.038097
  24 H :    0.027821
  25 C :   -0.043269
  26 H :    0.024909
  27 H :    0.028670
  28 C :   -0.075011
  29 H :    0.029102
  30 H :    0.030842
  31 H :    0.026662
  32 H :    0.034661
  33 H :    0.018793

  Mayer bond orders larger than 0.100000
B(  0-S ,  1-C ) :   1.1166 B(  0-S ,  4-C ) :   1.1225 B(  1-C ,  2-C ) :   1.6387
B(  1-C , 32-H ) :   0.9599 B(  2-C ,  3-C ) :   1.2187 B(  2-C ,  6-C ) :   1.0156
B(  3-C ,  4-C ) :   1.5849 B(  3-C ,  5-H ) :   0.9888 B(  4-C , 20-C ) :   1.0766
B(  6-C ,  7-H ) :   0.9537 B(  6-C ,  8-H ) :   0.9441 B(  6-C ,  9-C ) :   1.0551
B(  9-C , 10-H ) :   0.9602 B(  9-C , 11-H ) :   0.9565 B(  9-C , 12-C ) :   1.0660
B( 12-C , 13-H ) :   0.9756 B( 12-C , 14-H ) :   0.9748 B( 12-C , 15-H ) :   0.9729
B( 16-S , 17-C ) :   1.1193 B( 16-S , 20-C ) :   1.1251 B( 17-C , 18-C ) :   1.6603
B( 17-C , 33-H ) :   0.9708 B( 18-C , 19-C ) :   1.2157 B( 18-C , 21-H ) :   0.9772
B( 19-C , 20-C ) :   1.6153 B( 19-C , 22-C ) :   1.0402 B( 22-C , 23-H ) :   0.9382
B( 22-C , 24-H ) :   0.9295 B( 22-C , 25-C ) :   1.0675 B( 25-C , 26-H ) :   0.9469
B( 25-C , 27-H ) :   0.9577 B( 25-C , 28-C ) :   1.0949 B( 28-C , 29-H ) :   0.9698
B( 28-C , 30-H ) :   0.9733 B( 28-C , 31-H ) :   0.9717

Dispersion correction           -0.013511268
FINAL SINGLE POINT ENERGY     -1339.861960245545

DIPOLE MOMENT
-------------
                                X             Y             Z
Electronic contribution:     12.03004       7.10630      26.95958
Nuclear contribution   :    -12.40556      -7.03368     -27.73172
                        -----------------------------------------
Total Dipole Moment    :     -0.37553       0.07262      -0.77213
                        -----------------------------------------
Magnitude (a.u.)       :      0.86168
Magnitude (Debye)      :      2.19021

Rotational constants in cm-1:     0.017612     0.008475     0.005985
Rotational constants in MHz :   528.001533   254.077560   179.425571

                             ****ORCA TERMINATED NORMALLY****
TOTAL RUN TIME: 0 days 0 hours 0 minutes 20 seconds 919 msec
