                         Program Version 4.2.1 -  RELEASE  -
|  1> ! wB97X-D3 SP def2-SVP
|  2> %pal
|  3> nprocs 24
|  4> end
|  5>
|  6> * xyz 0 1
|  7> S 	 27.306 	 -1.70038 	 -107.018
|  8> C 	 28.2879 	 -2.69701 	 -108.13
|  9> C 	 27.467 	 -3.11371 	 -109.21
| 10> C 	 26.0922 	 -2.65996 	 -109.045
| 11> C 	 25.8195 	 -1.8242 	 -107.988
| 12> H 	 25.223 	 -2.90385 	 -109.717
| 13> C 	 27.8775 	 -3.99527 	 -110.355
| 14> H 	 27.0228 	 -4.37443 	 -110.865
| 15> H 	 28.3597 	 -4.87013 	 -109.977
| 16> C 	 28.9454 	 -3.33303 	 -111.327
| 17> H 	 29.7354 	 -3.1605 	 -110.736
| 18> H 	 29.3126 	 -4.05091 	 -112.068
| 19> C 	 28.4009 	 -2.12292 	 -112.043
| 20> H 	 29.2732 	 -1.48194 	 -112.397
| 21> H 	 27.7635 	 -2.37183 	 -112.89
| 22> H 	 27.8248 	 -1.47814 	 -111.351
| 23> S 	 24.3327 	 0.489856 	 -107.447
| 24> C 	 22.6875 	 0.35503 	 -107.031
| 25> C 	 22.2356 	 -0.947998 	 -107.033
| 26> C 	 23.2547 	 -1.90718 	 -107.392
| 27> C 	 24.4885 	 -1.26273 	 -107.516
| 28> H 	 21.2083 	 -0.969659 	 -106.821
| 29> C 	 23.1779 	 -3.45214 	 -107.44
| 30> H 	 24.1794 	 -3.92885 	 -107.307
| 31> H 	 22.9702 	 -3.78281 	 -108.476
| 32> C 	 22.0438 	 -4.05599 	 -106.574
| 33> H 	 21.1948 	 -3.38652 	 -106.576
| 34> H 	 22.3726 	 -3.95481 	 -105.58
| 35> C 	 21.7012 	 -5.54034 	 -106.798
| 36> H 	 21.3154 	 -5.82427 	 -107.754
| 37> H 	 20.9404 	 -5.68663 	 -106.106
| 38> H 	 22.5285 	 -6.31233 	 -106.629
| 39> H 	 29.3119 	 -2.89432 	 -107.982
| 40> H 	 22.0619 	 1.19932 	 -106.949
| 41> *
| 42>
| 43>                          ****END OF INPUT****

CARTESIAN COORDINATES (ANGSTROEM)
---------------------------------
  S     27.306000   -1.700380  -107.018000
  C     28.287900   -2.697010  -108.130000
  C     27.467000   -3.113710  -109.210000
  C     26.092200   -2.659960  -109.045000
  C     25.819500   -1.824200  -107.988000
  H     25.223000   -2.903850  -109.717000
  C     27.877500   -3.995270  -110.355000
  H     27.022800   -4.374430  -110.865000
  H     28.359700   -4.870130  -109.977000
  C     28.945400   -3.333030  -111.327000
  H     29.735400   -3.160500  -110.736000
  H     29.312600   -4.050910  -112.068000
  C     28.400900   -2.122920  -112.043000
  H     29.273200   -1.481940  -112.397000
  H     27.763500   -2.371830  -112.890000
  H     27.824800   -1.478140  -111.351000
  S     24.332700    0.489856  -107.447000
  C     22.687500    0.355030  -107.031000
  C     22.235600   -0.947998  -107.033000
  C     23.254700   -1.907180  -107.392000
  C     24.488500   -1.262730  -107.516000
  H     21.208300   -0.969659  -106.821000
  C     23.177900   -3.452140  -107.440000
  H     24.179400   -3.928850  -107.307000
  H     22.970200   -3.782810  -108.476000
  C     22.043800   -4.055990  -106.574000
  H     21.194800   -3.386520  -106.576000
  H     22.372600   -3.954810  -105.580000
  C     21.701200   -5.540340  -106.798000
  H     21.315400   -5.824270  -107.754000
  H     20.940400   -5.686630  -106.106000
  H     22.528500   -6.312330  -106.629000
  H     29.311900   -2.894320  -107.982000
  H     22.061900    1.199320  -106.949000

 Total Charge           Charge          ....    0
 Multiplicity           Mult            ....    1
 Number of Electrons    NEL             ....  134
 Basis Dimension        Dim             ....  322

ORBITAL ENERGIES
----------------

  NO   OCC          E(Eh)            E(eV)
   0   2.0000     -88.965701     -2420.8798
   1   2.0000     -88.963416     -2420.8176
   2   2.0000     -10.335171      -281.2343
   3   2.0000     -10.332012      -281.1483
   4   2.0000     -10.321534      -280.8632
   5   2.0000     -10.315256      -280.6924
   6   2.0000     -10.312208      -280.6095
   7   2.0000     -10.310225      -280.5555
   8   2.0000     -10.300276      -280.2847
   9   2.0000     -10.297340      -280.2049
  10   2.0000     -10.295366      -280.1511
  11   2.0000     -10.287670      -279.9417
  12   2.0000     -10.283749      -279.8350
  13   2.0000     -10.278998      -279.7058
  14   2.0000     -10.278183      -279.6836
  15   2.0000     -10.277015      -279.6518
  16   2.0000      -8.081313      -219.9037
  17   2.0000      -8.077088      -219.7887
  18   2.0000      -6.039607      -164.3461
  19   2.0000      -6.035731      -164.2406
  20   2.0000      -6.035678      -164.2392
  21   2.0000      -6.032268      -164.1464
  22   2.0000      -6.031593      -164.1280
  23   2.0000      -6.027895      -164.0274
  24   2.0000      -1.002381       -27.2762
  25   2.0000      -0.978827       -26.6352
  26   2.0000      -0.908907       -24.7326
  27   2.0000      -0.905270       -24.6336
  28   2.0000      -0.864573       -23.5262
  29   2.0000      -0.851477       -23.1699
  30   2.0000      -0.839756       -22.8509
  31   2.0000      -0.816882       -22.2285
  32   2.0000      -0.783993       -21.3335
  33   2.0000      -0.772236       -21.0136
  34   2.0000      -0.709405       -19.3039
  35   2.0000      -0.706964       -19.2375
  36   2.0000      -0.695305       -18.9202
  37   2.0000      -0.653758       -17.7897
  38   2.0000      -0.643172       -17.5016
  39   2.0000      -0.613604       -16.6970
  40   2.0000      -0.597680       -16.2637
  41   2.0000      -0.576184       -15.6788
  42   2.0000      -0.554834       -15.0978
  43   2.0000      -0.547007       -14.8848
  44   2.0000      -0.541620       -14.7382
  45   2.0000      -0.529635       -14.4121
  46   2.0000      -0.515204       -14.0194
  47   2.0000      -0.510242       -13.8844
  48   2.0000      -0.504646       -13.7321
  49   2.0000      -0.499855       -13.6017
  50   2.0000      -0.488135       -13.2828
  51   2.0000      -0.477779       -13.0010
  52   2.0000      -0.467046       -12.7090
  53   2.0000      -0.465048       -12.6546
  54   2.0000      -0.463480       -12.6119
  55   2.0000      -0.453527       -12.3411
  56   2.0000      -0.441198       -12.0056
  57   2.0000      -0.436200       -11.8696
  58   2.0000      -0.430556       -11.7160
  59   2.0000      -0.421208       -11.4617
  60   2.0000      -0.418561       -11.3896
  61   2.0000      -0.416217       -11.3258
  62   2.0000      -0.413700       -11.2573
  63   2.0000      -0.342255        -9.3132
  64   2.0000      -0.331299        -9.0151
  65   2.0000      -0.325867        -8.8673
  66   2.0000      -0.299691        -8.1550
  67   0.0000       0.032757         0.8914
  68   0.0000       0.062804         1.7090
  69   0.0000       0.116517         3.1706
  70   0.0000       0.123239         3.3535
  71   0.0000       0.131480         3.5778

MULLIKEN ATOMIC CHARGES
-----------------------
   0 S :    0.088381
   1 C :   -0.110165
   2 C :   -0.101796
   3 C :    0.001710
   4 C :   -0.144639
   5 H :    0.033644
   6 C :    0.080802
   7 H :    0.010571
   8 H :    0.022530
   9 C :   -0.023260
  10 H :   -0.005207
  11 H :    0.025951
  12 C :   -0.075093
  13 H :    0.039383
  14 H :    0.035766
  15 H :    0.045147
  16 S :    0.117755
  17 C :   -0.083565
  18 C :   -0.049569
  19 C :    0.015394
  20 C :   -0.170315
  21 H :    0.004859
  22 C :    0.047846
  23 H :    0.050289
  24 H :    0.024521
  25 C :   -0.073029
  26 H :    0.027174
  27 H :    0.020896
  28 C :   -0.028337
  29 H :    0.022631
  30 H :    0.020538
  31 H :    0.042500
  32 H :    0.043071
  33 H :    0.043618
Sum of atomic charges:   -0.0000000

LOEWDIN ATOMIC CHARGES
----------------------
   0 S :    0.379909
   1 C :   -0.177804
   2 C :   -0.060296
   3 C :   -0.074902
   4 C :   -0.191002
   5 H :    0.039893
   6 C :   -0.027537
   7 H :    0.023381
   8 H :    0.030104
   9 C :   -0.027927
  10 H :    0.003887
  11 H :    0.026718
  12 C :   -0.071203
  13 H :    0.033782
  14 H :    0.024660
  15 H :    0.029101
  16 S :    0.425891
  17 C :   -0.186792
  18 C :   -0.076737
  19 C :   -0.043906
  20 C :   -0.200764
  21 H :    0.026167
  22 C :   -0.037049
  23 H :    0.038840
  24 H :    0.029203
  25 C :   -0.038590
  26 H :    0.024354
  27 H :    0.022521
  28 C :   -0.061896
  29 H :    0.018646
  30 H :    0.021502
  31 H :    0.036277
  32 H :    0.020341
  33 H :    0.021225

  Mayer bond orders larger than 0.100000
B(  0-S ,  1-C ) :   1.1442 B(  0-S ,  4-C ) :   1.1453 B(  1-C ,  2-C ) :   1.5775
B(  1-C ,  4-C ) :   0.1016 B(  1-C , 32-H ) :   0.9805 B(  2-C ,  3-C ) :   1.2308
B(  2-C ,  6-C ) :   1.0299 B(  3-C ,  4-C ) :   1.6017 B(  3-C ,  5-H ) :   0.9843
B(  4-C , 20-C ) :   0.9892 B(  6-C ,  7-H ) :   0.9466 B(  6-C ,  8-H ) :   0.9370
B(  6-C ,  9-C ) :   1.0641 B(  9-C , 10-H ) :   0.9578 B(  9-C , 11-H ) :   0.9542
B(  9-C , 12-C ) :   1.0773 B( 12-C , 13-H ) :   0.9722 B( 12-C , 14-H ) :   0.9765
B( 12-C , 15-H ) :   0.9763 B( 16-S , 17-C ) :   1.1764 B( 16-S , 20-C ) :   1.1595
B( 17-C , 18-C ) :   1.6173 B( 17-C , 33-H ) :   0.9682 B( 18-C , 19-C ) :   1.2052
B( 18-C , 21-H ) :   1.0019 B( 19-C , 20-C ) :   1.5953 B( 19-C , 22-C ) :   1.0267
B( 22-C , 23-H ) :   0.9412 B( 22-C , 24-H ) :   0.9324 B( 22-C , 25-C ) :   1.0518
B( 25-C , 26-H ) :   0.9542 B( 25-C , 27-H ) :   0.9537 B( 25-C , 28-C ) :   1.0816
B( 28-C , 29-H ) :   0.9759 B( 28-C , 30-H ) :   0.9724 B( 28-C , 31-H ) :   0.9745

Dispersion correction           -0.013928295
FINAL SINGLE POINT ENERGY     -1339.863596995194

DIPOLE MOMENT
-------------
                                X             Y             Z
Electronic contribution:      3.01345      19.77422      12.37826
Nuclear contribution   :     -3.31794     -20.27626     -12.68829
                        -----------------------------------------
Total Dipole Moment    :     -0.30450      -0.50205      -0.31003
                        -----------------------------------------
Magnitude (a.u.)       :      0.66399
Magnitude (Debye)      :      1.68774

Rotational constants in cm-1:     0.017899     0.007955     0.006537
Rotational constants in MHz :   536.583881   238.479227   195.967612

                             ****ORCA TERMINATED NORMALLY****
TOTAL RUN TIME: 0 days 0 hours 0 minutes 20 seconds 983 msec
