                         Program Version 4.2.1 -  RELEASE  -
|  1> ! wB97X-D3 SP def2-SVP
|  2> %pal
|  3> nprocs 24
|  4> end
|  5>
|  6> * xyz 0 1
|  7> S 	 -142.424 	 7.08249 	 -10.559
|  8> C 	 -140.974 	 7.58635 	 -11.3977
|  9> C 	 -140.303 	 8.5146 	 -10.6477
| 10> C 	 -140.866 	 8.82855 	 -9.3508
| 11> C 	 -142.129 	 8.288 	 -9.28483
| 12> H 	 -140.478 	 9.46857 	 -8.62676
| 13> C 	 -138.943 	 8.90502 	 -11.0759
| 14> H 	 -138.933 	 10.0204 	 -11.1745
| 15> H 	 -138.82 	 8.71038 	 -12.0782
| 16> C 	 -137.768 	 8.25659 	 -10.2169
| 17> H 	 -138.03 	 8.45592 	 -9.18368
| 18> H 	 -137.632 	 7.22857 	 -10.3338
| 19> C 	 -136.406 	 8.81905 	 -10.5834
| 20> H 	 -135.601 	 8.34762 	 -10.0173
| 21> H 	 -136.219 	 8.43493 	 -11.6398
| 22> H 	 -136.494 	 9.91523 	 -10.5227
| 23> S 	 -143.547 	 7.08611 	 -7.37153
| 24> C 	 -144.407 	 8.08958 	 -6.18982
| 25> C 	 -144.22 	 9.45589 	 -6.35057
| 26> C 	 -143.303 	 9.69555 	 -7.42381
| 27> C 	 -142.965 	 8.52554 	 -8.15166
| 28> H 	 -144.765 	 10.1435 	 -5.71165
| 29> C 	 -143.017 	 11.1363 	 -7.87128
| 30> H 	 -142.828 	 11.0542 	 -8.93657
| 31> H 	 -142.006 	 11.3401 	 -7.44863
| 32> C 	 -143.913 	 12.3158 	 -7.47371
| 33> H 	 -143.451 	 12.5508 	 -6.50649
| 34> H 	 -144.932 	 11.9194 	 -7.39903
| 35> C 	 -143.765 	 13.5512 	 -8.35309
| 36> H 	 -144.552 	 14.2431 	 -8.15172
| 37> H 	 -143.835 	 13.2531 	 -9.42622
| 38> H 	 -142.806 	 14.0514 	 -8.17411
| 39> H 	 -140.626 	 7.05113 	 -12.279
| 40> H 	 -144.761 	 7.65622 	 -5.28625
| 41> *
| 42>
| 43>                          ****END OF INPUT****

CARTESIAN COORDINATES (ANGSTROEM)
---------------------------------
  S    -142.424000    7.082490  -10.559000
  C    -140.974000    7.586350  -11.397700
  C    -140.303000    8.514600  -10.647700
  C    -140.866000    8.828550   -9.350800
  C    -142.129000    8.288000   -9.284830
  H    -140.478000    9.468570   -8.626760
  C    -138.943000    8.905020  -11.075900
  H    -138.933000   10.020400  -11.174500
  H    -138.820000    8.710380  -12.078200
  C    -137.768000    8.256590  -10.216900
  H    -138.030000    8.455920   -9.183680
  H    -137.632000    7.228570  -10.333800
  C    -136.406000    8.819050  -10.583400
  H    -135.601000    8.347620  -10.017300
  H    -136.219000    8.434930  -11.639800
  H    -136.494000    9.915230  -10.522700
  S    -143.547000    7.086110   -7.371530
  C    -144.407000    8.089580   -6.189820
  C    -144.220000    9.455890   -6.350570
  C    -143.303000    9.695550   -7.423810
  C    -142.965000    8.525540   -8.151660
  H    -144.765000   10.143500   -5.711650
  C    -143.017000   11.136300   -7.871280
  H    -142.828000   11.054200   -8.936570
  H    -142.006000   11.340100   -7.448630
  C    -143.913000   12.315800   -7.473710
  H    -143.451000   12.550800   -6.506490
  H    -144.932000   11.919400   -7.399030
  C    -143.765000   13.551200   -8.353090
  H    -144.552000   14.243100   -8.151720
  H    -143.835000   13.253100   -9.426220
  H    -142.806000   14.051400   -8.174110
  H    -140.626000    7.051130  -12.279000
  H    -144.761000    7.656220   -5.286250

 Total Charge           Charge          ....    0
 Multiplicity           Mult            ....    1
 Number of Electrons    NEL             ....  134
 Basis Dimension        Dim             ....  322

ORBITAL ENERGIES
----------------

  NO   OCC          E(Eh)            E(eV)
   0   2.0000     -88.964682     -2420.8521
   1   2.0000     -88.963437     -2420.8182
   2   2.0000     -10.328400      -281.0500
   3   2.0000     -10.324573      -280.9459
   4   2.0000     -10.314683      -280.6768
   5   2.0000     -10.311035      -280.5775
   6   2.0000     -10.310181      -280.5543
   7   2.0000     -10.297046      -280.1969
   8   2.0000     -10.296912      -280.1932
   9   2.0000     -10.290999      -280.0323
  10   2.0000     -10.289863      -280.0014
  11   2.0000     -10.289751      -279.9984
  12   2.0000     -10.284664      -279.8599
  13   2.0000     -10.282937      -279.8129
  14   2.0000     -10.282852      -279.8106
  15   2.0000     -10.281944      -279.7859
  16   2.0000      -8.079524      -219.8550
  17   2.0000      -8.078031      -219.8144
  18   2.0000      -6.037881      -164.2991
  19   2.0000      -6.036702      -164.2670
  20   2.0000      -6.034031      -164.1943
  21   2.0000      -6.032643      -164.1566
  22   2.0000      -6.030427      -164.0963
  23   2.0000      -6.028547      -164.0451
  24   2.0000      -1.006266       -27.3819
  25   2.0000      -0.980661       -26.6851
  26   2.0000      -0.911187       -24.7946
  27   2.0000      -0.907776       -24.7018
  28   2.0000      -0.874388       -23.7933
  29   2.0000      -0.854532       -23.2530
  30   2.0000      -0.847802       -23.0699
  31   2.0000      -0.818257       -22.2659
  32   2.0000      -0.779532       -21.2121
  33   2.0000      -0.763358       -20.7720
  34   2.0000      -0.709452       -19.3052
  35   2.0000      -0.699305       -19.0291
  36   2.0000      -0.694889       -18.9089
  37   2.0000      -0.656798       -17.8724
  38   2.0000      -0.644109       -17.5271
  39   2.0000      -0.621469       -16.9110
  40   2.0000      -0.594192       -16.1688
  41   2.0000      -0.574372       -15.6295
  42   2.0000      -0.570219       -15.5164
  43   2.0000      -0.558650       -15.2016
  44   2.0000      -0.528434       -14.3794
  45   2.0000      -0.523524       -14.2458
  46   2.0000      -0.518655       -14.1133
  47   2.0000      -0.517177       -14.0731
  48   2.0000      -0.513269       -13.9668
  49   2.0000      -0.496611       -13.5135
  50   2.0000      -0.489147       -13.3104
  51   2.0000      -0.481499       -13.1023
  52   2.0000      -0.469844       -12.7851
  53   2.0000      -0.460048       -12.5185
  54   2.0000      -0.456558       -12.4236
  55   2.0000      -0.450864       -12.2686
  56   2.0000      -0.446744       -12.1565
  57   2.0000      -0.437985       -11.9182
  58   2.0000      -0.431743       -11.7483
  59   2.0000      -0.424561       -11.5529
  60   2.0000      -0.419693       -11.4204
  61   2.0000      -0.415318       -11.3014
  62   2.0000      -0.405041       -11.0217
  63   2.0000      -0.351250        -9.5580
  64   2.0000      -0.330725        -8.9995
  65   2.0000      -0.325202        -8.8492
  66   2.0000      -0.284311        -7.7365
  67   0.0000       0.024623         0.6700
  68   0.0000       0.072372         1.9693
  69   0.0000       0.106409         2.8955
  70   0.0000       0.124000         3.3742
  71   0.0000       0.134598         3.6626

MULLIKEN ATOMIC CHARGES
-----------------------
   0 S :    0.096530
   1 C :   -0.119024
   2 C :   -0.087179
   3 C :    0.037044
   4 C :   -0.124722
   5 H :    0.001930
   6 C :    0.081731
   7 H :    0.022719
   8 H :   -0.022199
   9 C :   -0.046150
  10 H :    0.025256
  11 H :    0.019823
  12 C :   -0.060672
  13 H :    0.040222
  14 H :    0.031445
  15 H :    0.041317
  16 S :    0.100155
  17 C :   -0.078830
  18 C :   -0.055332
  19 C :   -0.031623
  20 C :   -0.165667
  21 H :    0.031619
  22 C :    0.017594
  23 H :    0.026269
  24 H :    0.029264
  25 C :   -0.074202
  26 H :    0.032933
  27 H :    0.043672
  28 C :   -0.030525
  29 H :    0.033769
  30 H :    0.039733
  31 H :    0.035510
  32 H :    0.059248
  33 H :    0.048340
Sum of atomic charges:    0.0000000

LOEWDIN ATOMIC CHARGES
----------------------
   0 S :    0.380651
   1 C :   -0.196564
   2 C :   -0.062370
   3 C :   -0.048283
   4 C :   -0.180866
   5 H :    0.024045
   6 C :   -0.034655
   7 H :    0.034949
   8 H :    0.014118
   9 C :   -0.029875
  10 H :    0.019413
  11 H :    0.018454
  12 C :   -0.067473
  13 H :    0.026528
  14 H :    0.031007
  15 H :    0.025905
  16 S :    0.405088
  17 C :   -0.173496
  18 C :   -0.071340
  19 C :   -0.050862
  20 C :   -0.203079
  21 H :    0.036944
  22 C :   -0.041776
  23 H :    0.025454
  24 H :    0.032813
  25 C :   -0.045798
  26 H :    0.030077
  27 H :    0.025539
  28 C :   -0.060152
  29 H :    0.025321
  30 H :    0.030739
  31 H :    0.028653
  32 H :    0.031986
  33 H :    0.018909

  Mayer bond orders larger than 0.100000
B(  0-S ,  1-C ) :   1.1069 B(  0-S ,  4-C ) :   1.1397 B(  1-C ,  2-C ) :   1.6290
B(  1-C , 32-H ) :   0.9688 B(  2-C ,  3-C ) :   1.2032 B(  2-C ,  6-C ) :   1.0557
B(  3-C ,  4-C ) :   1.5603 B(  3-C ,  5-H ) :   1.0062 B(  4-C , 20-C ) :   1.0760
B(  6-C ,  7-H ) :   0.9302 B(  6-C ,  8-H ) :   0.9287 B(  6-C ,  9-C ) :   1.0367
B(  9-C , 10-H ) :   0.9598 B(  9-C , 11-H ) :   0.9593 B(  9-C , 12-C ) :   1.0825
B( 12-C , 13-H ) :   0.9728 B( 12-C , 14-H ) :   0.9746 B( 12-C , 15-H ) :   0.9775
B( 16-S , 17-C ) :   1.1591 B( 16-S , 20-C ) :   1.1504 B( 17-C , 18-C ) :   1.6007
B( 17-C , 20-C ) :   0.1051 B( 17-C , 33-H ) :   0.9648 B( 18-C , 19-C ) :   1.2478
B( 18-C , 21-H ) :   0.9879 B( 19-C , 20-C ) :   1.5717 B( 19-C , 22-C ) :   1.0269
B( 22-C , 23-H ) :   0.9431 B( 22-C , 24-H ) :   0.9259 B( 22-C , 25-C ) :   1.0554
B( 25-C , 26-H ) :   0.9506 B( 25-C , 27-H ) :   0.9576 B( 25-C , 28-C ) :   1.0910
B( 28-C , 29-H ) :   0.9723 B( 28-C , 30-H ) :   0.9758 B( 28-C , 31-H ) :   0.9737

Dispersion correction           -0.013480374
FINAL SINGLE POINT ENERGY     -1339.854462814209

DIPOLE MOMENT
-------------
                                X             Y             Z
Electronic contribution:    -16.57152     -22.06032       2.41600
Nuclear contribution   :     16.99013      22.56288      -2.24674
                        -----------------------------------------
Total Dipole Moment    :      0.41861       0.50256       0.16926
                        -----------------------------------------
Magnitude (a.u.)       :      0.67561
Magnitude (Debye)      :      1.71727

Rotational constants in cm-1:     0.016893     0.008091     0.006414
Rotational constants in MHz :   506.439878   242.551281   192.283129

                             ****ORCA TERMINATED NORMALLY****
TOTAL RUN TIME: 0 days 0 hours 0 minutes 20 seconds 972 msec
