                         Program Version 4.2.1 -  RELEASE  -
|  1> ! wB97X-D3 SP def2-SVP
|  2> %pal
|  3> nprocs 24
|  4> end
|  5>
|  6> * xyz 0 1
|  7> S 	 -135.732 	 8.94895 	 -10.1599
|  8> C 	 -136.574 	 10.1782 	 -9.23812
|  9> C 	 -136.558 	 9.88751 	 -7.904
| 10> C 	 -135.763 	 8.7293 	 -7.61878
| 11> C 	 -135.338 	 8.04476 	 -8.70605
| 12> H 	 -135.528 	 8.32312 	 -6.70341
| 13> C 	 -137.255 	 10.7391 	 -6.77077
| 14> H 	 -136.886 	 11.7895 	 -6.83548
| 15> H 	 -136.862 	 10.3282 	 -5.80273
| 16> C 	 -138.807 	 10.7944 	 -6.68879
| 17> H 	 -139.047 	 11.3327 	 -5.76222
| 18> H 	 -139.192 	 11.3126 	 -7.59164
| 19> C 	 -139.449 	 9.41727 	 -6.69022
| 20> H 	 -139.454 	 8.92251 	 -7.63201
| 21> H 	 -139.099 	 8.81947 	 -5.85752
| 22> H 	 -140.493 	 9.5468 	 -6.52613
| 23> S 	 -135.123 	 5.51042 	 -7.68438
| 24> C 	 -133.596 	 4.61396 	 -7.90373
| 25> C 	 -132.827 	 5.3064 	 -8.71905
| 26> C 	 -133.361 	 6.53035 	 -9.18667
| 27> C 	 -134.6 	 6.80881 	 -8.69492
| 28> H 	 -131.799 	 4.85755 	 -8.90762
| 29> C 	 -132.518 	 7.3979 	 -10.1009
| 30> H 	 -133.003 	 8.16941 	 -10.6678
| 31> H 	 -132.184 	 6.66728 	 -10.8181
| 32> C 	 -131.236 	 8.0468 	 -9.57291
| 33> H 	 -130.656 	 7.24503 	 -9.13053
| 34> H 	 -131.503 	 8.75417 	 -8.80129
| 35> C 	 -130.256 	 8.78471 	 -10.5432
| 36> H 	 -129.81 	 8.00352 	 -11.177
| 37> H 	 -129.482 	 9.36778 	 -10.0319
| 38> H 	 -130.908 	 9.35197 	 -11.3295
| 39> H 	 -137.193 	 10.9703 	 -9.71851
| 40> H 	 -133.37 	 3.66572 	 -7.41849
| 41> *
| 42>
| 43>                          ****END OF INPUT****

CARTESIAN COORDINATES (ANGSTROEM)
---------------------------------
  S    -135.732000    8.948950  -10.159900
  C    -136.574000   10.178200   -9.238120
  C    -136.558000    9.887510   -7.904000
  C    -135.763000    8.729300   -7.618780
  C    -135.338000    8.044760   -8.706050
  H    -135.528000    8.323120   -6.703410
  C    -137.255000   10.739100   -6.770770
  H    -136.886000   11.789500   -6.835480
  H    -136.862000   10.328200   -5.802730
  C    -138.807000   10.794400   -6.688790
  H    -139.047000   11.332700   -5.762220
  H    -139.192000   11.312600   -7.591640
  C    -139.449000    9.417270   -6.690220
  H    -139.454000    8.922510   -7.632010
  H    -139.099000    8.819470   -5.857520
  H    -140.493000    9.546800   -6.526130
  S    -135.123000    5.510420   -7.684380
  C    -133.596000    4.613960   -7.903730
  C    -132.827000    5.306400   -8.719050
  C    -133.361000    6.530350   -9.186670
  C    -134.600000    6.808810   -8.694920
  H    -131.799000    4.857550   -8.907620
  C    -132.518000    7.397900  -10.100900
  H    -133.003000    8.169410  -10.667800
  H    -132.184000    6.667280  -10.818100
  C    -131.236000    8.046800   -9.572910
  H    -130.656000    7.245030   -9.130530
  H    -131.503000    8.754170   -8.801290
  C    -130.256000    8.784710  -10.543200
  H    -129.810000    8.003520  -11.177000
  H    -129.482000    9.367780  -10.031900
  H    -130.908000    9.351970  -11.329500
  H    -137.193000   10.970300   -9.718510
  H    -133.370000    3.665720   -7.418490

 Total Charge           Charge          ....    0
 Multiplicity           Mult            ....    1
 Number of Electrons    NEL             ....  134
 Basis Dimension        Dim             ....  322

ORBITAL ENERGIES
----------------

  NO   OCC          E(Eh)            E(eV)
   0   2.0000     -88.964737     -2420.8536
   1   2.0000     -88.962143     -2420.7830
   2   2.0000     -10.325423      -280.9690
   3   2.0000     -10.323436      -280.9150
   4   2.0000     -10.316163      -280.7171
   5   2.0000     -10.315485      -280.6986
   6   2.0000     -10.303855      -280.3821
   7   2.0000     -10.301737      -280.3245
   8   2.0000     -10.300503      -280.2909
   9   2.0000     -10.293493      -280.1002
  10   2.0000     -10.290766      -280.0260
  11   2.0000     -10.289042      -279.9791
  12   2.0000     -10.285274      -279.8765
  13   2.0000     -10.285058      -279.8706
  14   2.0000     -10.280959      -279.7591
  15   2.0000     -10.266202      -279.3576
  16   2.0000      -8.079180      -219.8457
  17   2.0000      -8.077150      -219.7904
  18   2.0000      -6.037774      -164.2962
  19   2.0000      -6.035735      -164.2407
  20   2.0000      -6.033687      -164.1850
  21   2.0000      -6.031645      -164.1294
  22   2.0000      -6.029913      -164.0823
  23   2.0000      -6.027759      -164.0237
  24   2.0000      -1.014949       -27.6182
  25   2.0000      -0.989779       -26.9333
  26   2.0000      -0.905851       -24.6495
  27   2.0000      -0.904308       -24.6075
  28   2.0000      -0.879250       -23.9256
  29   2.0000      -0.849360       -23.1123
  30   2.0000      -0.842423       -22.9235
  31   2.0000      -0.820921       -22.3384
  32   2.0000      -0.782930       -21.3046
  33   2.0000      -0.773085       -21.0367
  34   2.0000      -0.707095       -19.2410
  35   2.0000      -0.696598       -18.9554
  36   2.0000      -0.689704       -18.7678
  37   2.0000      -0.662091       -18.0164
  38   2.0000      -0.642702       -17.4888
  39   2.0000      -0.613112       -16.6836
  40   2.0000      -0.599959       -16.3257
  41   2.0000      -0.575642       -15.6640
  42   2.0000      -0.560572       -15.2539
  43   2.0000      -0.551733       -15.0134
  44   2.0000      -0.540543       -14.7089
  45   2.0000      -0.524974       -14.2853
  46   2.0000      -0.518054       -14.0970
  47   2.0000      -0.514104       -13.9895
  48   2.0000      -0.510322       -13.8866
  49   2.0000      -0.495236       -13.4761
  50   2.0000      -0.489950       -13.3322
  51   2.0000      -0.475356       -12.9351
  52   2.0000      -0.473611       -12.8876
  53   2.0000      -0.466098       -12.6832
  54   2.0000      -0.460960       -12.5434
  55   2.0000      -0.453042       -12.3279
  56   2.0000      -0.443874       -12.0784
  57   2.0000      -0.428432       -11.6582
  58   2.0000      -0.425933       -11.5902
  59   2.0000      -0.420734       -11.4487
  60   2.0000      -0.416843       -11.3429
  61   2.0000      -0.410235       -11.1631
  62   2.0000      -0.408678       -11.1207
  63   2.0000      -0.354975        -9.6594
  64   2.0000      -0.335424        -9.1274
  65   2.0000      -0.328318        -8.9340
  66   2.0000      -0.297149        -8.0858
  67   0.0000       0.033412         0.9092
  68   0.0000       0.076666         2.0862
  69   0.0000       0.116413         3.1678
  70   0.0000       0.118610         3.2275
  71   0.0000       0.132185         3.5969

MULLIKEN ATOMIC CHARGES
-----------------------
   0 S :    0.104478
   1 C :   -0.149286
   2 C :   -0.062118
   3 C :    0.045302
   4 C :   -0.149951
   5 H :   -0.024780
   6 C :    0.033396
   7 H :    0.044426
   8 H :    0.024342
   9 C :   -0.079815
  10 H :    0.039942
  11 H :    0.031127
  12 C :   -0.024593
  13 H :    0.037640
  14 H :    0.028053
  15 H :    0.014863
  16 S :    0.085490
  17 C :   -0.102945
  18 C :   -0.045265
  19 C :   -0.008202
  20 C :   -0.140560
  21 H :    0.043042
  22 C :    0.088757
  23 H :    0.009129
  24 H :    0.014314
  25 C :   -0.082393
  26 H :    0.014859
  27 H :    0.031938
  28 C :   -0.073508
  29 H :    0.026779
  30 H :    0.057762
  31 H :    0.039416
  32 H :    0.066867
  33 H :    0.061497
Sum of atomic charges:   -0.0000000

LOEWDIN ATOMIC CHARGES
----------------------
   0 S :    0.402502
   1 C :   -0.200859
   2 C :   -0.064388
   3 C :   -0.055332
   4 C :   -0.183225
   5 H :    0.015333
   6 C :   -0.035094
   7 H :    0.034546
   8 H :    0.029727
   9 C :   -0.040577
  10 H :    0.029291
  11 H :    0.025214
  12 C :   -0.065256
  13 H :    0.026182
  14 H :    0.024496
  15 H :    0.023376
  16 S :    0.394999
  17 C :   -0.169764
  18 C :   -0.079783
  19 C :   -0.057647
  20 C :   -0.199877
  21 H :    0.046020
  22 C :   -0.034325
  23 H :    0.016695
  24 H :    0.031002
  25 C :   -0.042768
  26 H :    0.016850
  27 H :    0.021387
  28 C :   -0.071945
  29 H :    0.023155
  30 H :    0.032419
  31 H :    0.034147
  32 H :    0.037831
  33 H :    0.035670

  Mayer bond orders larger than 0.100000
B(  0-S ,  1-C ) :   1.1352 B(  0-S ,  4-C ) :   1.1378 B(  1-C ,  2-C ) :   1.6317
B(  1-C , 32-H ) :   0.9651 B(  2-C ,  3-C ) :   1.2168 B(  2-C ,  6-C ) :   0.9953
B(  3-C ,  4-C ) :   1.6132 B(  3-C ,  5-H ) :   1.0043 B(  4-C , 20-C ) :   1.0271
B(  6-C ,  7-H ) :   0.9482 B(  6-C ,  8-H ) :   0.9468 B(  6-C ,  9-C ) :   1.0727
B(  9-C , 10-H ) :   0.9554 B(  9-C , 11-H ) :   0.9553 B(  9-C , 12-C ) :   1.0894
B( 12-C , 13-H ) :   0.9700 B( 12-C , 14-H ) :   0.9756 B( 12-C , 15-H ) :   0.9688
B( 16-S , 17-C ) :   1.1286 B( 16-S , 20-C ) :   1.1351 B( 17-C , 18-C ) :   1.6514
B( 17-C , 33-H ) :   0.9673 B( 18-C , 19-C ) :   1.2234 B( 18-C , 21-H ) :   0.9770
B( 19-C , 20-C ) :   1.6065 B( 19-C , 22-C ) :   1.0365 B( 22-C , 23-H ) :   0.9336
B( 22-C , 24-H ) :   0.9261 B( 22-C , 25-C ) :   1.0686 B( 25-C , 26-H ) :   0.9541
B( 25-C , 27-H ) :   0.9572 B( 25-C , 28-C ) :   1.0746 B( 28-C , 29-H ) :   0.9752
B( 28-C , 30-H ) :   0.9738 B( 28-C , 31-H ) :   0.9751

Dispersion correction           -0.014050337
FINAL SINGLE POINT ENERGY     -1339.875770939536

DIPOLE MOMENT
-------------
                                X             Y             Z
Electronic contribution:     -3.25114     -12.27472      -3.05107
Nuclear contribution   :      3.43742      12.40471       3.30090
                        -----------------------------------------
Total Dipole Moment    :      0.18629       0.12998       0.24982
                        -----------------------------------------
Magnitude (a.u.)       :      0.33765
Magnitude (Debye)      :      0.85825

Rotational constants in cm-1:     0.020719     0.008075     0.006447
Rotational constants in MHz :   621.134791   242.095054   193.268483

                             ****ORCA TERMINATED NORMALLY****
TOTAL RUN TIME: 0 days 0 hours 0 minutes 20 seconds 102 msec
