                         Program Version 4.2.1 -  RELEASE  -
|  1> ! wB97X-D3 SP def2-SVP
|  2> %pal
|  3> nprocs 24
|  4> end
|  5>
|  6> * xyz 0 1
|  7> S 	 -38.1091 	 21.621 	 14.4075
|  8> C 	 -39.7246 	 21.2567 	 14.7571
|  9> C 	 -39.9715 	 21.4071 	 16.1473
| 10> C 	 -38.7898 	 21.852 	 16.8391
| 11> C 	 -37.6915 	 21.9978 	 16.0424
| 12> H 	 -38.6711 	 22.0905 	 17.8828
| 13> C 	 -41.2797 	 21.2138 	 16.8986
| 14> H 	 -42.0766 	 21.8983 	 16.5862
| 15> H 	 -41.2452 	 21.3788 	 17.9544
| 16> C 	 -41.8101 	 19.7908 	 16.6876
| 17> H 	 -41.9672 	 19.5686 	 15.6136
| 18> H 	 -41.0362 	 19.1589 	 16.9958
| 19> C 	 -43.1872 	 19.3847 	 17.3449
| 20> H 	 -44.0718 	 19.8811 	 16.902
| 21> H 	 -43.2865 	 18.295 	 17.1976
| 22> H 	 -43.2608 	 19.494 	 18.4167
| 23> S 	 -35.4658 	 21.613 	 17.6371
| 24> C 	 -34.2559 	 22.8184 	 17.611
| 25> C 	 -34.5019 	 23.7795 	 16.6833
| 26> C 	 -35.7375 	 23.6521 	 15.9991
| 27> C 	 -36.3971 	 22.4986 	 16.4077
| 28> H 	 -33.8277 	 24.5765 	 16.5338
| 29> C 	 -36.2793 	 24.7091 	 15.0188
| 30> H 	 -36.471 	 25.6304 	 15.6346
| 31> H 	 -37.2753 	 24.3956 	 14.692
| 32> C 	 -35.3689 	 25.0264 	 13.8367
| 33> H 	 -34.3795 	 25.365 	 14.2469
| 34> H 	 -35.8669 	 25.806 	 13.2922
| 35> C 	 -35.287 	 23.7891 	 12.9115
| 36> H 	 -36.3022 	 23.4482 	 12.7211
| 37> H 	 -34.5416 	 23.1418 	 13.4091
| 38> H 	 -34.881 	 24.0936 	 12.0007
| 39> H 	 -40.4358 	 21.0271 	 14.005
| 40> H 	 -33.2511 	 22.7005 	 18.1045
| 41> *
| 42>
| 43>                          ****END OF INPUT****

CARTESIAN COORDINATES (ANGSTROEM)
---------------------------------
  S    -38.109100   21.621000   14.407500
  C    -39.724600   21.256700   14.757100
  C    -39.971500   21.407100   16.147300
  C    -38.789800   21.852000   16.839100
  C    -37.691500   21.997800   16.042400
  H    -38.671100   22.090500   17.882800
  C    -41.279700   21.213800   16.898600
  H    -42.076600   21.898300   16.586200
  H    -41.245200   21.378800   17.954400
  C    -41.810100   19.790800   16.687600
  H    -41.967200   19.568600   15.613600
  H    -41.036200   19.158900   16.995800
  C    -43.187200   19.384700   17.344900
  H    -44.071800   19.881100   16.902000
  H    -43.286500   18.295000   17.197600
  H    -43.260800   19.494000   18.416700
  S    -35.465800   21.613000   17.637100
  C    -34.255900   22.818400   17.611000
  C    -34.501900   23.779500   16.683300
  C    -35.737500   23.652100   15.999100
  C    -36.397100   22.498600   16.407700
  H    -33.827700   24.576500   16.533800
  C    -36.279300   24.709100   15.018800
  H    -36.471000   25.630400   15.634600
  H    -37.275300   24.395600   14.692000
  C    -35.368900   25.026400   13.836700
  H    -34.379500   25.365000   14.246900
  H    -35.866900   25.806000   13.292200
  C    -35.287000   23.789100   12.911500
  H    -36.302200   23.448200   12.721100
  H    -34.541600   23.141800   13.409100
  H    -34.881000   24.093600   12.000700
  H    -40.435800   21.027100   14.005000
  H    -33.251100   22.700500   18.104500

 Total Charge           Charge          ....    0
 Multiplicity           Mult            ....    1
 Number of Electrons    NEL             ....  134
 Basis Dimension        Dim             ....  322

ORBITAL ENERGIES
----------------

  NO   OCC          E(Eh)            E(eV)
   0   2.0000     -88.965654     -2420.8785
   1   2.0000     -88.965239     -2420.8672
   2   2.0000     -10.323855      -280.9264
   3   2.0000     -10.320369      -280.8315
   4   2.0000     -10.315612      -280.7021
   5   2.0000     -10.313495      -280.6445
   6   2.0000     -10.306847      -280.4636
   7   2.0000     -10.302273      -280.3391
   8   2.0000     -10.292303      -280.0678
   9   2.0000     -10.289931      -280.0033
  10   2.0000     -10.288656      -279.9686
  11   2.0000     -10.285876      -279.8929
  12   2.0000     -10.285632      -279.8863
  13   2.0000     -10.283147      -279.8187
  14   2.0000     -10.281494      -279.7737
  15   2.0000     -10.269647      -279.4513
  16   2.0000      -8.081292      -219.9031
  17   2.0000      -8.080333      -219.8771
  18   2.0000      -6.039600      -164.3459
  19   2.0000      -6.038727      -164.3221
  20   2.0000      -6.035422      -164.2322
  21   2.0000      -6.034755      -164.2140
  22   2.0000      -6.032459      -164.1515
  23   2.0000      -6.031244      -164.1185
  24   2.0000      -1.011621       -27.5276
  25   2.0000      -0.989365       -26.9220
  26   2.0000      -0.909795       -24.7568
  27   2.0000      -0.906967       -24.6798
  28   2.0000      -0.872303       -23.7366
  29   2.0000      -0.849633       -23.1197
  30   2.0000      -0.845189       -22.9988
  31   2.0000      -0.811903       -22.0930
  32   2.0000      -0.783840       -21.3294
  33   2.0000      -0.770743       -20.9730
  34   2.0000      -0.705309       -19.1924
  35   2.0000      -0.698281       -19.0012
  36   2.0000      -0.689027       -18.7494
  37   2.0000      -0.661678       -18.0052
  38   2.0000      -0.646602       -17.5949
  39   2.0000      -0.614636       -16.7251
  40   2.0000      -0.600106       -16.3297
  41   2.0000      -0.570279       -15.5181
  42   2.0000      -0.558538       -15.1986
  43   2.0000      -0.550284       -14.9740
  44   2.0000      -0.549470       -14.9518
  45   2.0000      -0.522751       -14.2248
  46   2.0000      -0.515470       -14.0266
  47   2.0000      -0.511010       -13.9053
  48   2.0000      -0.504951       -13.7404
  49   2.0000      -0.495167       -13.4742
  50   2.0000      -0.487836       -13.2747
  51   2.0000      -0.475511       -12.9393
  52   2.0000      -0.472843       -12.8667
  53   2.0000      -0.469095       -12.7647
  54   2.0000      -0.462964       -12.5979
  55   2.0000      -0.444676       -12.1003
  56   2.0000      -0.441058       -12.0018
  57   2.0000      -0.433033       -11.7834
  58   2.0000      -0.429240       -11.6802
  59   2.0000      -0.427244       -11.6259
  60   2.0000      -0.423043       -11.5116
  61   2.0000      -0.418160       -11.3787
  62   2.0000      -0.410891       -11.1809
  63   2.0000      -0.345565        -9.4033
  64   2.0000      -0.333089        -9.0638
  65   2.0000      -0.325630        -8.8608
  66   2.0000      -0.295493        -8.0408
  67   0.0000       0.036817         1.0018
  68   0.0000       0.069597         1.8938
  69   0.0000       0.112842         3.0706
  70   0.0000       0.119962         3.2643
  71   0.0000       0.139180         3.7873

MULLIKEN ATOMIC CHARGES
-----------------------
   0 S :    0.127554
   1 C :   -0.115023
   2 C :   -0.081956
   3 C :    0.034524
   4 C :   -0.178767
   5 H :    0.008199
   6 C :    0.108853
   7 H :    0.027935
   8 H :    0.011916
   9 C :   -0.112654
  10 H :    0.031098
  11 H :    0.022990
  12 C :   -0.056975
  13 H :    0.038258
  14 H :    0.035001
  15 H :    0.026664
  16 S :    0.119216
  17 C :   -0.100139
  18 C :   -0.033223
  19 C :   -0.011112
  20 C :   -0.193483
  21 H :   -0.002152
  22 C :    0.051158
  23 H :    0.043234
  24 H :    0.019084
  25 C :   -0.085165
  26 H :    0.035675
  27 H :    0.025952
  28 C :   -0.017568
  29 H :    0.033906
  30 H :    0.051189
  31 H :    0.014629
  32 H :    0.044394
  33 H :    0.076789
Sum of atomic charges:    0.0000000

LOEWDIN ATOMIC CHARGES
----------------------
   0 S :    0.456137
   1 C :   -0.211956
   2 C :   -0.056722
   3 C :   -0.061744
   4 C :   -0.210263
   5 H :    0.031207
   6 C :   -0.033451
   7 H :    0.031340
   8 H :    0.026003
   9 C :   -0.038549
  10 H :    0.025057
  11 H :    0.016894
  12 C :   -0.072053
  13 H :    0.027097
  14 H :    0.031783
  15 H :    0.019034
  16 S :    0.412731
  17 C :   -0.203296
  18 C :   -0.074474
  19 C :   -0.049822
  20 C :   -0.197385
  21 H :    0.022373
  22 C :   -0.033853
  23 H :    0.037784
  24 H :    0.020811
  25 C :   -0.039092
  26 H :    0.024532
  27 H :    0.020826
  28 C :   -0.058538
  29 H :    0.022536
  30 H :    0.034753
  31 H :    0.014898
  32 H :    0.022428
  33 H :    0.042973

  Mayer bond orders larger than 0.100000
B(  0-S ,  1-C ) :   1.1733 B(  0-S ,  4-C ) :   1.1663 B(  1-C ,  2-C ) :   1.5479
B(  1-C , 32-H ) :   0.9781 B(  2-C ,  3-C ) :   1.2632 B(  2-C ,  6-C ) :   1.0291
B(  3-C ,  4-C ) :   1.5691 B(  3-C ,  5-H ) :   0.9973 B(  4-C , 20-C ) :   1.0258
B(  6-C ,  7-H ) :   0.9356 B(  6-C ,  8-H ) :   0.9450 B(  6-C ,  9-C ) :   1.0531
B(  9-C , 10-H ) :   0.9592 B(  9-C , 11-H ) :   0.9605 B(  9-C , 12-C ) :   1.0769
B( 12-C , 13-H ) :   0.9757 B( 12-C , 14-H ) :   0.9747 B( 12-C , 15-H ) :   0.9769
B( 16-S , 17-C ) :   1.1579 B( 16-S , 20-C ) :   1.1473 B( 17-C , 18-C ) :   1.6154
B( 17-C , 33-H ) :   0.9555 B( 18-C , 19-C ) :   1.2414 B( 18-C , 21-H ) :   0.9944
B( 19-C , 20-C ) :   1.5823 B( 19-C , 22-C ) :   1.0307 B( 22-C , 23-H ) :   0.9362
B( 22-C , 24-H ) :   0.9315 B( 22-C , 25-C ) :   1.0718 B( 25-C , 26-H ) :   0.9568
B( 25-C , 27-H ) :   0.9538 B( 25-C , 28-C ) :   1.0698 B( 28-C , 29-H ) :   0.9713
B( 28-C , 30-H ) :   0.9752 B( 28-C , 31-H ) :   0.9732

Dispersion correction           -0.014646131
FINAL SINGLE POINT ENERGY     -1339.890527988138

DIPOLE MOMENT
-------------
                                X             Y             Z
Electronic contribution:     14.21317      -2.35751       4.46576
Nuclear contribution   :    -14.38321       2.67345      -4.49769
                        -----------------------------------------
Total Dipole Moment    :     -0.17005       0.31594      -0.03193
                        -----------------------------------------
Magnitude (a.u.)       :      0.36022
Magnitude (Debye)      :      0.91560

Rotational constants in cm-1:     0.024804     0.007374     0.006172
Rotational constants in MHz :   743.601926   221.056895   185.037744

                             ****ORCA TERMINATED NORMALLY****
TOTAL RUN TIME: 0 days 0 hours 0 minutes 20 seconds 263 msec
