                         Program Version 4.2.1 -  RELEASE  -
|  1> ! wB97X-D3 SP def2-SVP
|  2> %pal
|  3> nprocs 24
|  4> end
|  5>
|  6> * xyz 0 1
|  7> S 	 -50.7068 	 19.2435 	 -89.083
|  8> C 	 -52.0704 	 19.5416 	 -90.0904
|  9> C 	 -53.2514 	 19.4956 	 -89.3892
| 10> C 	 -53.1132 	 19.4616 	 -87.9877
| 11> C 	 -51.7877 	 19.4569 	 -87.5918
| 12> H 	 -53.8793 	 19.4788 	 -87.2738
| 13> C 	 -54.6292 	 19.5723 	 -89.9712
| 14> H 	 -55.3412 	 20.2451 	 -89.3583
| 15> H 	 -55.1881 	 18.6776 	 -89.6835
| 16> C 	 -54.7415 	 19.739 	 -91.4972
| 17> H 	 -54.189 	 20.7282 	 -91.5942
| 18> H 	 -54.1534 	 18.9295 	 -91.942
| 19> C 	 -56.2285 	 19.7751 	 -92.0469
| 20> H 	 -56.8957 	 20.575 	 -91.6502
| 21> H 	 -56.2607 	 19.8499 	 -93.1483
| 22> H 	 -56.6832 	 18.7962 	 -91.839
| 23> S 	 -50.5137 	 17.7949 	 -85.7761
| 24> C 	 -50.2993 	 18.3175 	 -84.1441
| 25> C 	 -50.7837 	 19.5946 	 -83.9946
| 26> C 	 -51.4318 	 20.1528 	 -85.124
| 27> C 	 -51.3382 	 19.2989 	 -86.2135
| 28> H 	 -50.7084 	 19.98 	 -83.0043
| 29> C 	 -52.0415 	 21.5821 	 -85.1695
| 30> H 	 -52.2648 	 21.7397 	 -86.2356
| 31> H 	 -51.341 	 22.3137 	 -84.8262
| 32> C 	 -53.1675 	 21.8478 	 -84.1834
| 33> H 	 -52.826 	 21.5779 	 -83.154
| 34> H 	 -54.021 	 21.1637 	 -84.3878
| 35> C 	 -53.6312 	 23.2428 	 -84.2167
| 36> H 	 -53.8073 	 23.634 	 -85.2321
| 37> H 	 -52.9598 	 23.9101 	 -83.7632
| 38> H 	 -54.4788 	 23.3872 	 -83.6416
| 39> H 	 -52.067 	 19.5899 	 -91.1705
| 40> H 	 -49.8134 	 17.7164 	 -83.3486
| 41> *
| 42>
| 43>                          ****END OF INPUT****

CARTESIAN COORDINATES (ANGSTROEM)
---------------------------------
  S    -50.706800   19.243500  -89.083000
  C    -52.070400   19.541600  -90.090400
  C    -53.251400   19.495600  -89.389200
  C    -53.113200   19.461600  -87.987700
  C    -51.787700   19.456900  -87.591800
  H    -53.879300   19.478800  -87.273800
  C    -54.629200   19.572300  -89.971200
  H    -55.341200   20.245100  -89.358300
  H    -55.188100   18.677600  -89.683500
  C    -54.741500   19.739000  -91.497200
  H    -54.189000   20.728200  -91.594200
  H    -54.153400   18.929500  -91.942000
  C    -56.228500   19.775100  -92.046900
  H    -56.895700   20.575000  -91.650200
  H    -56.260700   19.849900  -93.148300
  H    -56.683200   18.796200  -91.839000
  S    -50.513700   17.794900  -85.776100
  C    -50.299300   18.317500  -84.144100
  C    -50.783700   19.594600  -83.994600
  C    -51.431800   20.152800  -85.124000
  C    -51.338200   19.298900  -86.213500
  H    -50.708400   19.980000  -83.004300
  C    -52.041500   21.582100  -85.169500
  H    -52.264800   21.739700  -86.235600
  H    -51.341000   22.313700  -84.826200
  C    -53.167500   21.847800  -84.183400
  H    -52.826000   21.577900  -83.154000
  H    -54.021000   21.163700  -84.387800
  C    -53.631200   23.242800  -84.216700
  H    -53.807300   23.634000  -85.232100
  H    -52.959800   23.910100  -83.763200
  H    -54.478800   23.387200  -83.641600
  H    -52.067000   19.589900  -91.170500
  H    -49.813400   17.716400  -83.348600

 Total Charge           Charge          ....    0
 Multiplicity           Mult            ....    1
 Number of Electrons    NEL             ....  134
 Basis Dimension        Dim             ....  322

ORBITAL ENERGIES
----------------

  NO   OCC          E(Eh)            E(eV)
   0   2.0000     -88.966668     -2420.9061
   1   2.0000     -88.962393     -2420.7898
   2   2.0000     -10.335064      -281.2314
   3   2.0000     -10.326198      -280.9901
   4   2.0000     -10.316386      -280.7231
   5   2.0000     -10.312465      -280.6164
   6   2.0000     -10.304498      -280.3996
   7   2.0000     -10.300088      -280.2796
   8   2.0000     -10.297853      -280.2188
   9   2.0000     -10.295471      -280.1540
  10   2.0000     -10.292440      -280.0715
  11   2.0000     -10.292063      -280.0613
  12   2.0000     -10.289990      -280.0049
  13   2.0000     -10.288160      -279.9551
  14   2.0000     -10.286079      -279.8984
  15   2.0000     -10.265471      -279.3377
  16   2.0000      -8.080364      -219.8779
  17   2.0000      -8.077433      -219.7981
  18   2.0000      -6.039013      -164.3299
  19   2.0000      -6.035853      -164.2439
  20   2.0000      -6.035252      -164.2276
  21   2.0000      -6.031885      -164.1359
  22   2.0000      -6.030788      -164.1061
  23   2.0000      -6.028275      -164.0377
  24   2.0000      -1.003717       -27.3125
  25   2.0000      -0.984562       -26.7913
  26   2.0000      -0.915766       -24.9193
  27   2.0000      -0.905871       -24.6500
  28   2.0000      -0.870456       -23.6863
  29   2.0000      -0.853530       -23.2257
  30   2.0000      -0.849617       -23.1193
  31   2.0000      -0.812981       -22.1223
  32   2.0000      -0.784935       -21.3592
  33   2.0000      -0.768606       -20.9148
  34   2.0000      -0.716919       -19.5083
  35   2.0000      -0.698359       -19.0033
  36   2.0000      -0.691573       -18.8187
  37   2.0000      -0.657577       -17.8936
  38   2.0000      -0.642443       -17.4818
  39   2.0000      -0.612972       -16.6798
  40   2.0000      -0.596738       -16.2381
  41   2.0000      -0.573640       -15.6095
  42   2.0000      -0.566520       -15.4158
  43   2.0000      -0.562844       -15.3158
  44   2.0000      -0.532004       -14.4766
  45   2.0000      -0.521112       -14.1802
  46   2.0000      -0.515138       -14.0176
  47   2.0000      -0.513060       -13.9611
  48   2.0000      -0.505092       -13.7442
  49   2.0000      -0.498001       -13.5513
  50   2.0000      -0.489914       -13.3312
  51   2.0000      -0.483767       -13.1640
  52   2.0000      -0.476687       -12.9713
  53   2.0000      -0.464639       -12.6435
  54   2.0000      -0.461437       -12.5563
  55   2.0000      -0.447287       -12.1713
  56   2.0000      -0.444257       -12.0888
  57   2.0000      -0.435466       -11.8496
  58   2.0000      -0.432048       -11.7566
  59   2.0000      -0.427308       -11.6277
  60   2.0000      -0.422952       -11.5091
  61   2.0000      -0.413562       -11.2536
  62   2.0000      -0.411299       -11.1920
  63   2.0000      -0.347386        -9.4529
  64   2.0000      -0.331121        -9.0103
  65   2.0000      -0.323314        -8.7978
  66   2.0000      -0.293813        -7.9951
  67   0.0000       0.033558         0.9132
  68   0.0000       0.059067         1.6073
  69   0.0000       0.112886         3.0718
  70   0.0000       0.123661         3.3650
  71   0.0000       0.130941         3.5631

MULLIKEN ATOMIC CHARGES
-----------------------
   0 S :    0.105368
   1 C :   -0.114836
   2 C :   -0.047505
   3 C :    0.059200
   4 C :   -0.158772
   5 H :   -0.003066
   6 C :    0.007554
   7 H :    0.028438
   8 H :    0.016506
   9 C :   -0.108293
  10 H :    0.048589
  11 H :    0.045919
  12 C :   -0.052851
  13 H :    0.048145
  14 H :    0.040307
  15 H :    0.033282
  16 S :    0.107587
  17 C :   -0.114154
  18 C :   -0.035628
  19 C :    0.005290
  20 C :   -0.191732
  21 H :    0.006583
  22 C :    0.087410
  23 H :    0.035859
  24 H :    0.016938
  25 C :   -0.108791
  26 H :    0.029442
  27 H :    0.024813
  28 C :    0.020204
  29 H :    0.028251
  30 H :    0.009304
  31 H :    0.011775
  32 H :    0.046834
  33 H :    0.072027
Sum of atomic charges:   -0.0000000

LOEWDIN ATOMIC CHARGES
----------------------
   0 S :    0.374112
   1 C :   -0.204659
   2 C :   -0.068326
   3 C :   -0.037070
   4 C :   -0.162953
   5 H :    0.026649
   6 C :   -0.052200
   7 H :    0.037084
   8 H :    0.028969
   9 C :   -0.048089
  10 H :    0.031827
  11 H :    0.026731
  12 C :   -0.070098
  13 H :    0.031863
  14 H :    0.029900
  15 H :    0.027053
  16 S :    0.404470
  17 C :   -0.195364
  18 C :   -0.076543
  19 C :   -0.052047
  20 C :   -0.196296
  21 H :    0.025760
  22 C :   -0.026013
  23 H :    0.032631
  24 H :    0.029657
  25 C :   -0.044479
  26 H :    0.027234
  27 H :    0.022009
  28 C :   -0.059966
  29 H :    0.030369
  30 H :    0.019625
  31 H :    0.020246
  32 H :    0.028613
  33 H :    0.039303

  Mayer bond orders larger than 0.100000
B(  0-S ,  1-C ) :   1.1249 B(  0-S ,  4-C ) :   1.1146 B(  1-C ,  2-C ) :   1.6346
B(  1-C , 32-H ) :   0.9553 B(  2-C ,  3-C ) :   1.2235 B(  2-C ,  6-C ) :   1.0255
B(  3-C ,  4-C ) :   1.5813 B(  3-C ,  5-H ) :   1.0072 B(  4-C , 20-C ) :   1.0534
B(  6-C ,  7-H ) :   0.9392 B(  6-C ,  8-H ) :   0.9227 B(  6-C ,  9-C ) :   1.0556
B(  9-C , 10-H ) :   0.9572 B(  9-C , 11-H ) :   0.9494 B(  9-C , 12-C ) :   1.0706
B( 12-C , 13-H ) :   0.9774 B( 12-C , 14-H ) :   0.9760 B( 12-C , 15-H ) :   0.9741
B( 16-S , 17-C ) :   1.1549 B( 16-S , 20-C ) :   1.1472 B( 17-C , 18-C ) :   1.6155
B( 17-C , 33-H ) :   0.9626 B( 18-C , 19-C ) :   1.2301 B( 18-C , 21-H ) :   0.9946
B( 19-C , 20-C ) :   1.5932 B( 19-C , 22-C ) :   1.0389 B( 22-C , 23-H ) :   0.9323
B( 22-C , 24-H ) :   0.9366 B( 22-C , 25-C ) :   1.0560 B( 25-C , 26-H ) :   0.9517
B( 25-C , 27-H ) :   0.9521 B( 25-C , 28-C ) :   1.1040 B( 28-C , 29-H ) :   0.9686
B( 28-C , 30-H ) :   0.9638 B( 28-C , 31-H ) :   0.9651

Dispersion correction           -0.013372162
FINAL SINGLE POINT ENERGY     -1339.872008817898

DIPOLE MOMENT
-------------
                                X             Y             Z
Electronic contribution:     23.82093     -16.03649       3.45284
Nuclear contribution   :    -24.45873      16.29627      -3.25622
                        -----------------------------------------
Total Dipole Moment    :     -0.63780       0.25978       0.19662
                        -----------------------------------------
Magnitude (a.u.)       :      0.71620
Magnitude (Debye)      :      1.82042

Rotational constants in cm-1:     0.018213     0.007703     0.005942
Rotational constants in MHz :   545.998917   230.930949   178.128591

                             ****ORCA TERMINATED NORMALLY****
TOTAL RUN TIME: 0 days 0 hours 0 minutes 21 seconds 64 msec
