                         Program Version 4.2.1 -  RELEASE  -
|  1> ! wB97X-D3 SP def2-SVP
|  2> %pal
|  3> nprocs 24
|  4> end
|  5>
|  6> * xyz 0 1
|  7> S 	 -138.659 	 7.68322 	 -3.78995
|  8> C 	 -139.882 	 8.91254 	 -3.33653
|  9> C 	 -141.147 	 8.42116 	 -3.35307
| 10> C 	 -141.137 	 7.02402 	 -3.36465
| 11> C 	 -139.898 	 6.43962 	 -3.58328
| 12> H 	 -142.044 	 6.3915 	 -3.26162
| 13> C 	 -142.382 	 9.28062 	 -3.18952
| 14> H 	 -143.068 	 9.08168 	 -4.01287
| 15> H 	 -142.072 	 10.2831 	 -3.34985
| 16> C 	 -143.135 	 8.93337 	 -1.83365
| 17> H 	 -143.765 	 8.06958 	 -1.87279
| 18> H 	 -142.433 	 8.81461 	 -0.994404
| 19> C 	 -143.995 	 10.1961 	 -1.50958
| 20> H 	 -144.814 	 10.2864 	 -2.2297
| 21> H 	 -144.472 	 10.0537 	 -0.500053
| 22> H 	 -143.384 	 11.1723 	 -1.53078
| 23> S 	 -138.698 	 4.65042 	 -5.13597
| 24> C 	 -138.794 	 2.94063 	 -4.72334
| 25> C 	 -139.513 	 2.66165 	 -3.61528
| 26> C 	 -139.973 	 3.85599 	 -2.98981
| 27> C 	 -139.485 	 5.02907 	 -3.64849
| 28> H 	 -139.616 	 1.62107 	 -3.37082
| 29> C 	 -140.836 	 3.82153 	 -1.7506
| 30> H 	 -140.9 	 2.774 	 -1.30327
| 31> H 	 -141.863 	 4.21091 	 -1.97343
| 32> C 	 -140.305 	 4.73282 	 -0.57716
| 33> H 	 -140.395 	 5.79723 	 -0.934349
| 34> H 	 -139.266 	 4.67637 	 -0.360821
| 35> C 	 -141.108 	 4.67962 	 0.757135
| 36> H 	 -142.155 	 5.01251 	 0.708966
| 37> H 	 -140.58 	 5.37247 	 1.40953
| 38> H 	 -140.894 	 3.63763 	 1.10984
| 39> H 	 -139.72 	 9.97939 	 -3.18686
| 40> H 	 -138.317 	 2.14298 	 -5.3141
| 41> *
| 42>
| 43>                          ****END OF INPUT****

CARTESIAN COORDINATES (ANGSTROEM)
---------------------------------
  S    -138.659000    7.683220   -3.789950
  C    -139.882000    8.912540   -3.336530
  C    -141.147000    8.421160   -3.353070
  C    -141.137000    7.024020   -3.364650
  C    -139.898000    6.439620   -3.583280
  H    -142.044000    6.391500   -3.261620
  C    -142.382000    9.280620   -3.189520
  H    -143.068000    9.081680   -4.012870
  H    -142.072000   10.283100   -3.349850
  C    -143.135000    8.933370   -1.833650
  H    -143.765000    8.069580   -1.872790
  H    -142.433000    8.814610   -0.994404
  C    -143.995000   10.196100   -1.509580
  H    -144.814000   10.286400   -2.229700
  H    -144.472000   10.053700   -0.500053
  H    -143.384000   11.172300   -1.530780
  S    -138.698000    4.650420   -5.135970
  C    -138.794000    2.940630   -4.723340
  C    -139.513000    2.661650   -3.615280
  C    -139.973000    3.855990   -2.989810
  C    -139.485000    5.029070   -3.648490
  H    -139.616000    1.621070   -3.370820
  C    -140.836000    3.821530   -1.750600
  H    -140.900000    2.774000   -1.303270
  H    -141.863000    4.210910   -1.973430
  C    -140.305000    4.732820   -0.577160
  H    -140.395000    5.797230   -0.934349
  H    -139.266000    4.676370   -0.360821
  C    -141.108000    4.679620    0.757135
  H    -142.155000    5.012510    0.708966
  H    -140.580000    5.372470    1.409530
  H    -140.894000    3.637630    1.109840
  H    -139.720000    9.979390   -3.186860
  H    -138.317000    2.142980   -5.314100

 Total Charge           Charge          ....    0
 Multiplicity           Mult            ....    1
 Number of Electrons    NEL             ....  134
 Basis Dimension        Dim             ....  322

ORBITAL ENERGIES
----------------

  NO   OCC          E(Eh)            E(eV)
   0   2.0000     -88.966510     -2420.9018
   1   2.0000     -88.964367     -2420.8435
   2   2.0000     -10.331192      -281.1260
   3   2.0000     -10.327738      -281.0320
   4   2.0000     -10.314124      -280.6616
   5   2.0000     -10.310927      -280.5746
   6   2.0000     -10.310156      -280.5536
   7   2.0000     -10.301943      -280.3301
   8   2.0000     -10.295669      -280.1594
   9   2.0000     -10.295644      -280.1587
  10   2.0000     -10.293917      -280.1117
  11   2.0000     -10.293219      -280.0927
  12   2.0000     -10.291312      -280.0408
  13   2.0000     -10.290690      -280.0239
  14   2.0000     -10.281834      -279.7829
  15   2.0000     -10.281182      -279.7652
  16   2.0000      -8.081635      -219.9125
  17   2.0000      -8.078360      -219.8233
  18   2.0000      -6.040040      -164.3579
  19   2.0000      -6.036984      -164.2747
  20   2.0000      -6.036191      -164.2531
  21   2.0000      -6.033157      -164.1706
  22   2.0000      -6.032369      -164.1491
  23   2.0000      -6.028845      -164.0532
  24   2.0000      -1.006763       -27.3954
  25   2.0000      -0.984235       -26.7824
  26   2.0000      -0.909477       -24.7481
  27   2.0000      -0.898239       -24.4423
  28   2.0000      -0.871615       -23.7178
  29   2.0000      -0.846540       -23.0355
  30   2.0000      -0.842631       -22.9292
  31   2.0000      -0.815212       -22.1831
  32   2.0000      -0.778661       -21.1884
  33   2.0000      -0.763654       -20.7801
  34   2.0000      -0.710664       -19.3382
  35   2.0000      -0.698642       -19.0110
  36   2.0000      -0.682436       -18.5700
  37   2.0000      -0.659264       -17.9395
  38   2.0000      -0.635948       -17.3050
  39   2.0000      -0.619058       -16.8454
  40   2.0000      -0.593146       -16.1403
  41   2.0000      -0.572495       -15.5784
  42   2.0000      -0.562697       -15.3118
  43   2.0000      -0.554888       -15.0993
  44   2.0000      -0.527986       -14.3672
  45   2.0000      -0.518112       -14.0985
  46   2.0000      -0.509813       -13.8727
  47   2.0000      -0.505331       -13.7508
  48   2.0000      -0.501473       -13.6458
  49   2.0000      -0.490714       -13.3530
  50   2.0000      -0.489764       -13.3272
  51   2.0000      -0.486243       -13.2313
  52   2.0000      -0.469352       -12.7717
  53   2.0000      -0.466054       -12.6820
  54   2.0000      -0.455911       -12.4060
  55   2.0000      -0.451293       -12.2803
  56   2.0000      -0.446605       -12.1527
  57   2.0000      -0.436400       -11.8750
  58   2.0000      -0.432689       -11.7741
  59   2.0000      -0.427158       -11.6236
  60   2.0000      -0.424077       -11.5397
  61   2.0000      -0.417201       -11.3526
  62   2.0000      -0.402745       -10.9592
  63   2.0000      -0.351360        -9.5610
  64   2.0000      -0.330723        -8.9994
  65   2.0000      -0.326545        -8.8857
  66   2.0000      -0.285533        -7.7697
  67   0.0000       0.027029         0.7355
  68   0.0000       0.068485         1.8636
  69   0.0000       0.100056         2.7226
  70   0.0000       0.119253         3.2450
  71   0.0000       0.134389         3.6569

MULLIKEN ATOMIC CHARGES
-----------------------
   0 S :    0.098063
   1 C :   -0.131852
   2 C :   -0.087861
   3 C :    0.008524
   4 C :   -0.155760
   5 H :    0.017432
   6 C :    0.099374
   7 H :    0.034538
   8 H :    0.005918
   9 C :   -0.076563
  10 H :    0.036578
  11 H :    0.045901
  12 C :   -0.096311
  13 H :    0.032578
  14 H :    0.041564
  15 H :    0.049231
  16 S :    0.107673
  17 C :   -0.099023
  18 C :   -0.026737
  19 C :   -0.025283
  20 C :   -0.114612
  21 H :    0.016295
  22 C :    0.047640
  23 H :    0.031410
  24 H :    0.039727
  25 C :   -0.130998
  26 H :    0.041304
  27 H :    0.027659
  28 C :   -0.047921
  29 H :    0.043006
  30 H :    0.032614
  31 H :    0.037101
  32 H :    0.041302
  33 H :    0.057490
Sum of atomic charges:   -0.0000000

LOEWDIN ATOMIC CHARGES
----------------------
   0 S :    0.374192
   1 C :   -0.186562
   2 C :   -0.067446
   3 C :   -0.069475
   4 C :   -0.186206
   5 H :    0.034462
   6 C :   -0.020829
   7 H :    0.036193
   8 H :    0.023832
   9 C :   -0.033194
  10 H :    0.022049
  11 H :    0.027248
  12 C :   -0.074670
  13 H :    0.021256
  14 H :    0.027615
  15 H :    0.032787
  16 S :    0.417176
  17 C :   -0.181421
  18 C :   -0.070414
  19 C :   -0.052577
  20 C :   -0.210659
  21 H :    0.036304
  22 C :   -0.038879
  23 H :    0.033983
  24 H :    0.035404
  25 C :   -0.048511
  26 H :    0.027135
  27 H :    0.019225
  28 C :   -0.068633
  29 H :    0.026037
  30 H :    0.028071
  31 H :    0.028347
  32 H :    0.027064
  33 H :    0.031095

  Mayer bond orders larger than 0.100000
B(  0-S ,  1-C ) :   1.1184 B(  0-S ,  4-C ) :   1.1376 B(  1-C ,  2-C ) :   1.6433
B(  1-C ,  4-C ) :   0.1010 B(  1-C , 32-H ) :   0.9615 B(  2-C ,  3-C ) :   1.2212
B(  2-C ,  6-C ) :   1.0342 B(  3-C ,  4-C ) :   1.5960 B(  3-C ,  5-H ) :   0.9901
B(  4-C , 20-C ) :   1.0102 B(  6-C ,  7-H ) :   0.9292 B(  6-C ,  8-H ) :   0.9464
B(  6-C ,  9-C ) :   1.0383 B(  9-C , 10-H ) :   0.9530 B(  9-C , 11-H ) :   0.9661
B(  9-C , 12-C ) :   1.0786 B( 12-C , 13-H ) :   0.9748 B( 12-C , 14-H ) :   0.9750
B( 12-C , 15-H ) :   0.9785 B( 16-S , 17-C ) :   1.1536 B( 16-S , 20-C ) :   1.1575
B( 17-C , 18-C ) :   1.6322 B( 17-C , 33-H ) :   0.9586 B( 18-C , 19-C ) :   1.2322
B( 18-C , 21-H ) :   0.9981 B( 19-C , 20-C ) :   1.5669 B( 19-C , 22-C ) :   1.0504
B( 22-C , 23-H ) :   0.9463 B( 22-C , 24-H ) :   0.9259 B( 22-C , 25-C ) :   1.0518
B( 25-C , 26-H ) :   0.9496 B( 25-C , 27-H ) :   0.9612 B( 25-C , 28-C ) :   1.0838
B( 28-C , 29-H ) :   0.9745 B( 28-C , 30-H ) :   0.9739 B( 28-C , 31-H ) :   0.9762

Dispersion correction           -0.014518865
FINAL SINGLE POINT ENERGY     -1339.867283497463

DIPOLE MOMENT
-------------
                                X             Y             Z
Electronic contribution:     21.69420      -6.85870     -21.88949
Nuclear contribution   :    -22.31805       6.81072      22.17347
                        -----------------------------------------
Total Dipole Moment    :     -0.62385      -0.04798       0.28398
                        -----------------------------------------
Magnitude (a.u.)       :      0.68712
Magnitude (Debye)      :      1.74653

Rotational constants in cm-1:     0.018614     0.009024     0.006891
Rotational constants in MHz :   558.035816   270.523078   206.594021

                             ****ORCA TERMINATED NORMALLY****
TOTAL RUN TIME: 0 days 0 hours 0 minutes 22 seconds 232 msec
