                         Program Version 4.2.1 -  RELEASE  -
|  1> ! wB97X-D3 SP def2-SVP
|  2> %pal
|  3> nprocs 24
|  4> end
|  5>
|  6> * xyz 0 1
|  7> S 	 -113.35 	 16.9229 	 -114.17
|  8> C 	 -111.757 	 17.1482 	 -115.03
|  9> C 	 -111.849 	 16.7519 	 -116.367
| 10> C 	 -113.119 	 16.1171 	 -116.679
| 11> C 	 -113.957 	 16.0841 	 -115.595
| 12> H 	 -113.355 	 15.7062 	 -117.573
| 13> C 	 -110.784 	 16.9034 	 -117.503
| 14> H 	 -110.531 	 15.8892 	 -117.839
| 15> H 	 -109.837 	 17.4303 	 -117.188
| 16> C 	 -111.352 	 17.6129 	 -118.804
| 17> H 	 -112.281 	 17.1155 	 -119.104
| 18> H 	 -111.707 	 18.6618 	 -118.539
| 19> C 	 -110.34 	 17.7304 	 -120.023
| 20> H 	 -109.752 	 18.6018 	 -119.928
| 21> H 	 -109.676 	 16.907 	 -119.963
| 22> H 	 -110.903 	 17.8141 	 -120.917
| 23> S 	 -115.836 	 14.163 	 -116.444
| 24> C 	 -117.512 	 14.6387 	 -116.228
| 25> C 	 -117.667 	 15.8538 	 -115.581
| 26> C 	 -116.434 	 16.5194 	 -115.293
| 27> C 	 -115.333 	 15.707 	 -115.645
| 28> H 	 -118.612 	 16.2293 	 -115.361
| 29> C 	 -116.398 	 17.9197 	 -114.723
| 30> H 	 -115.451 	 18.2849 	 -114.851
| 31> H 	 -116.381 	 17.7463 	 -113.622
| 32> C 	 -117.519 	 18.9495 	 -115.245
| 33> H 	 -117.448 	 19.8804 	 -114.595
| 34> H 	 -118.501 	 18.446 	 -114.98
| 35> C 	 -117.445 	 19.4257 	 -116.666
| 36> H 	 -118.208 	 20.11 	 -116.918
| 37> H 	 -117.704 	 18.5293 	 -117.232
| 38> H 	 -116.437 	 19.7232 	 -117.04
| 39> H 	 -111.003 	 17.7233 	 -114.658
| 40> H 	 -118.425 	 14.139 	 -116.583
| 41> *
| 42>
| 43>                          ****END OF INPUT****

CARTESIAN COORDINATES (ANGSTROEM)
---------------------------------
  S    -113.350000   16.922900  -114.170000
  C    -111.757000   17.148200  -115.030000
  C    -111.849000   16.751900  -116.367000
  C    -113.119000   16.117100  -116.679000
  C    -113.957000   16.084100  -115.595000
  H    -113.355000   15.706200  -117.573000
  C    -110.784000   16.903400  -117.503000
  H    -110.531000   15.889200  -117.839000
  H    -109.837000   17.430300  -117.188000
  C    -111.352000   17.612900  -118.804000
  H    -112.281000   17.115500  -119.104000
  H    -111.707000   18.661800  -118.539000
  C    -110.340000   17.730400  -120.023000
  H    -109.752000   18.601800  -119.928000
  H    -109.676000   16.907000  -119.963000
  H    -110.903000   17.814100  -120.917000
  S    -115.836000   14.163000  -116.444000
  C    -117.512000   14.638700  -116.228000
  C    -117.667000   15.853800  -115.581000
  C    -116.434000   16.519400  -115.293000
  C    -115.333000   15.707000  -115.645000
  H    -118.612000   16.229300  -115.361000
  C    -116.398000   17.919700  -114.723000
  H    -115.451000   18.284900  -114.851000
  H    -116.381000   17.746300  -113.622000
  C    -117.519000   18.949500  -115.245000
  H    -117.448000   19.880400  -114.595000
  H    -118.501000   18.446000  -114.980000
  C    -117.445000   19.425700  -116.666000
  H    -118.208000   20.110000  -116.918000
  H    -117.704000   18.529300  -117.232000
  H    -116.437000   19.723200  -117.040000
  H    -111.003000   17.723300  -114.658000
  H    -118.425000   14.139000  -116.583000

 Total Charge           Charge          ....    0
 Multiplicity           Mult            ....    1
 Number of Electrons    NEL             ....  134
 Basis Dimension        Dim             ....  322

ORBITAL ENERGIES
----------------

  NO   OCC          E(Eh)            E(eV)
   0   2.0000     -88.971303     -2421.0322
   1   2.0000     -88.968728     -2420.9622
   2   2.0000     -10.327801      -281.0338
   3   2.0000     -10.326788      -281.0062
   4   2.0000     -10.319126      -280.7977
   5   2.0000     -10.314506      -280.6720
   6   2.0000     -10.311431      -280.5883
   7   2.0000     -10.306675      -280.4589
   8   2.0000     -10.304878      -280.4100
   9   2.0000     -10.301260      -280.3115
  10   2.0000     -10.297283      -280.2033
  11   2.0000     -10.289985      -280.0047
  12   2.0000     -10.288349      -279.9602
  13   2.0000     -10.287896      -279.9479
  14   2.0000     -10.275197      -279.6023
  15   2.0000     -10.274994      -279.5968
  16   2.0000      -8.084491      -219.9902
  17   2.0000      -8.081824      -219.9176
  18   2.0000      -6.043119      -164.4416
  19   2.0000      -6.040508      -164.3706
  20   2.0000      -6.039369      -164.3396
  21   2.0000      -6.036728      -164.2677
  22   2.0000      -6.035092      -164.2232
  23   2.0000      -6.032334      -164.1482
  24   2.0000      -0.999828       -27.2067
  25   2.0000      -0.972459       -26.4620
  26   2.0000      -0.903138       -24.5756
  27   2.0000      -0.898645       -24.4534
  28   2.0000      -0.867190       -23.5975
  29   2.0000      -0.853591       -23.2274
  30   2.0000      -0.843212       -22.9450
  31   2.0000      -0.812952       -22.1215
  32   2.0000      -0.786627       -21.4052
  33   2.0000      -0.773065       -21.0362
  34   2.0000      -0.708332       -19.2747
  35   2.0000      -0.699188       -19.0259
  36   2.0000      -0.691838       -18.8259
  37   2.0000      -0.661264       -17.9939
  38   2.0000      -0.642952       -17.4956
  39   2.0000      -0.619516       -16.8579
  40   2.0000      -0.594372       -16.1737
  41   2.0000      -0.560696       -15.2573
  42   2.0000      -0.553894       -15.0722
  43   2.0000      -0.549539       -14.9537
  44   2.0000      -0.537931       -14.6378
  45   2.0000      -0.528074       -14.3696
  46   2.0000      -0.522291       -14.2123
  47   2.0000      -0.513865       -13.9830
  48   2.0000      -0.503564       -13.7027
  49   2.0000      -0.496044       -13.4981
  50   2.0000      -0.488803       -13.3010
  51   2.0000      -0.476640       -12.9700
  52   2.0000      -0.470222       -12.7954
  53   2.0000      -0.464091       -12.6286
  54   2.0000      -0.460837       -12.5400
  55   2.0000      -0.457900       -12.4601
  56   2.0000      -0.445411       -12.1203
  57   2.0000      -0.439948       -11.9716
  58   2.0000      -0.432869       -11.7790
  59   2.0000      -0.425492       -11.5782
  60   2.0000      -0.420134       -11.4324
  61   2.0000      -0.413999       -11.2655
  62   2.0000      -0.407045       -11.0762
  63   2.0000      -0.346158        -9.4194
  64   2.0000      -0.333419        -9.0728
  65   2.0000      -0.328596        -8.9415
  66   2.0000      -0.285600        -7.7716
  67   0.0000       0.024281         0.6607
  68   0.0000       0.073113         1.9895
  69   0.0000       0.095419         2.5965
  70   0.0000       0.106972         2.9109
  71   0.0000       0.128844         3.5060

MULLIKEN ATOMIC CHARGES
-----------------------
   0 S :    0.077590
   1 C :   -0.084616
   2 C :   -0.059574
   3 C :    0.047798
   4 C :   -0.132235
   5 H :   -0.026497
   6 C :    0.049159
   7 H :    0.039616
   8 H :    0.037340
   9 C :   -0.158789
  10 H :    0.033982
  11 H :    0.037848
  12 C :    0.012472
  13 H :    0.024654
  14 H :    0.020306
  15 H :    0.034375
  16 S :    0.114380
  17 C :   -0.093018
  18 C :   -0.015935
  19 C :   -0.071332
  20 C :   -0.148037
  21 H :   -0.011024
  22 C :    0.102871
  23 H :   -0.000370
  24 H :    0.047937
  25 C :   -0.118429
  26 H :    0.038654
  27 H :    0.039485
  28 C :   -0.012189
  29 H :    0.032312
  30 H :    0.022295
  31 H :    0.045664
  32 H :    0.012244
  33 H :    0.061065
Sum of atomic charges:   -0.0000000

LOEWDIN ATOMIC CHARGES
----------------------
   0 S :    0.384622
   1 C :   -0.168010
   2 C :   -0.044537
   3 C :   -0.049906
   4 C :   -0.174291
   5 H :    0.010213
   6 C :   -0.033685
   7 H :    0.031999
   8 H :    0.032996
   9 C :   -0.045870
  10 H :    0.019119
  11 H :    0.027567
  12 C :   -0.052212
  13 H :    0.022018
  14 H :    0.020073
  15 H :    0.026439
  16 S :    0.383442
  17 C :   -0.187022
  18 C :   -0.066289
  19 C :   -0.048798
  20 C :   -0.189672
  21 H :    0.018067
  22 C :   -0.037859
  23 H :    0.002628
  24 H :    0.044779
  25 C :   -0.042003
  26 H :    0.029263
  27 H :    0.026973
  28 C :   -0.069108
  29 H :    0.023955
  30 H :    0.028446
  31 H :    0.034325
  32 H :    0.005970
  33 H :    0.036370

  Mayer bond orders larger than 0.100000
B(  0-S ,  1-C ) :   1.1000 B(  0-S ,  4-C ) :   1.1325 B(  1-C ,  2-C ) :   1.6529
B(  1-C , 32-H ) :   0.9785 B(  2-C ,  3-C ) :   1.1980 B(  2-C ,  6-C ) :   1.0214
B(  3-C ,  4-C ) :   1.5920 B(  3-C ,  5-H ) :   1.0046 B(  4-C , 20-C ) :   1.0577
B(  6-C ,  7-H ) :   0.9381 B(  6-C ,  8-H ) :   0.9530 B(  6-C ,  9-C ) :   1.0493
B(  9-C , 10-H ) :   0.9618 B(  9-C , 11-H ) :   0.9601 B(  9-C , 12-C ) :   1.0648
B( 12-C , 13-H ) :   0.9775 B( 12-C , 14-H ) :   0.9780 B( 12-C , 15-H ) :   0.9766
B( 16-S , 17-C ) :   1.1409 B( 16-S , 20-C ) :   1.1156 B( 17-C , 18-C ) :   1.6328
B( 17-C , 33-H ) :   0.9588 B( 18-C , 19-C ) :   1.2350 B( 18-C , 21-H ) :   0.9943
B( 19-C , 20-C ) :   1.5752 B( 19-C , 22-C ) :   1.0298 B( 22-C , 23-H ) :   0.9166
B( 22-C , 24-H ) :   0.9302 B( 22-C , 25-C ) :   1.0545 B( 25-C , 26-H ) :   0.9554
B( 25-C , 27-H ) :   0.9554 B( 25-C , 28-C ) :   1.0772 B( 28-C , 29-H ) :   0.9702
B( 28-C , 30-H ) :   0.9693 B( 28-C , 31-H ) :   0.9715

Dispersion correction           -0.014165217
FINAL SINGLE POINT ENERGY     -1339.853408518428

DIPOLE MOMENT
-------------
                                X             Y             Z
Electronic contribution:     -3.40750     -17.63482      14.67226
Nuclear contribution   :      3.33554      18.13951     -15.12542
                        -----------------------------------------
Total Dipole Moment    :     -0.07196       0.50470      -0.45316
                        -----------------------------------------
Magnitude (a.u.)       :      0.68209
Magnitude (Debye)      :      1.73374

Rotational constants in cm-1:     0.017683     0.007884     0.007508
Rotational constants in MHz :   530.117259   236.355344   225.082763

                             ****ORCA TERMINATED NORMALLY****
TOTAL RUN TIME: 0 days 0 hours 0 minutes 20 seconds 151 msec
