                         Program Version 4.2.1 -  RELEASE  -
|  1> ! wB97X-D3 SP def2-SVP
|  2> %pal
|  3> nprocs 24
|  4> end
|  5>
|  6> * xyz 0 1
|  7> S 	 -45.5641 	 25.0343 	 28.2188
|  8> C 	 -45.5204 	 25.8097 	 26.7065
|  9> C 	 -46.7336 	 26.4101 	 26.3956
| 10> C 	 -47.7047 	 26.1793 	 27.4003
| 11> C 	 -47.2646 	 25.2982 	 28.4061
| 12> H 	 -48.6957 	 26.5682 	 27.3706
| 13> C 	 -47.0498 	 27.2365 	 25.1799
| 14> H 	 -47.0595 	 28.3087 	 25.3646
| 15> H 	 -48.0185 	 26.8808 	 24.8887
| 16> C 	 -46.1303 	 26.946 	 23.9236
| 17> H 	 -46.2903 	 27.709 	 23.1923
| 18> H 	 -45.0094 	 27.0551 	 24.206
| 19> C 	 -46.3469 	 25.5748 	 23.3441
| 20> H 	 -46.06 	 24.6763 	 23.8902
| 21> H 	 -47.3972 	 25.38 	 23.1675
| 22> H 	 -45.8734 	 25.4281 	 22.4143
| 23> S 	 -48.0114 	 23.0848 	 29.7761
| 24> C 	 -48.9898 	 23.2783 	 31.2368
| 25> C 	 -49.2924 	 24.6212 	 31.4872
| 26> C 	 -48.791 	 25.5297 	 30.4376
| 27> C 	 -48.0001 	 24.8478 	 29.5576
| 28> H 	 -49.9122 	 24.7736 	 32.3328
| 29> C 	 -49.0419 	 27.0091 	 30.3677
| 30> H 	 -50.0296 	 27.1345 	 30.0174
| 31> H 	 -48.4396 	 27.4886 	 29.6655
| 32> C 	 -48.8681 	 27.7225 	 31.6602
| 33> H 	 -47.9435 	 27.4233 	 32.1676
| 34> H 	 -49.765 	 27.4381 	 32.2803
| 35> C 	 -48.8174 	 29.2669 	 31.5773
| 36> H 	 -48.6895 	 29.5996 	 32.6207
| 37> H 	 -49.7883 	 29.638 	 31.2232
| 38> H 	 -48.0185 	 29.51 	 30.907
| 39> H 	 -44.6115 	 25.8766 	 26.0824
| 40> H 	 -49.0851 	 22.5489 	 32.0325
| 41> *
| 42>
| 43>                          ****END OF INPUT****

CARTESIAN COORDINATES (ANGSTROEM)
---------------------------------
  S    -45.564100   25.034300   28.218800
  C    -45.520400   25.809700   26.706500
  C    -46.733600   26.410100   26.395600
  C    -47.704700   26.179300   27.400300
  C    -47.264600   25.298200   28.406100
  H    -48.695700   26.568200   27.370600
  C    -47.049800   27.236500   25.179900
  H    -47.059500   28.308700   25.364600
  H    -48.018500   26.880800   24.888700
  C    -46.130300   26.946000   23.923600
  H    -46.290300   27.709000   23.192300
  H    -45.009400   27.055100   24.206000
  C    -46.346900   25.574800   23.344100
  H    -46.060000   24.676300   23.890200
  H    -47.397200   25.380000   23.167500
  H    -45.873400   25.428100   22.414300
  S    -48.011400   23.084800   29.776100
  C    -48.989800   23.278300   31.236800
  C    -49.292400   24.621200   31.487200
  C    -48.791000   25.529700   30.437600
  C    -48.000100   24.847800   29.557600
  H    -49.912200   24.773600   32.332800
  C    -49.041900   27.009100   30.367700
  H    -50.029600   27.134500   30.017400
  H    -48.439600   27.488600   29.665500
  C    -48.868100   27.722500   31.660200
  H    -47.943500   27.423300   32.167600
  H    -49.765000   27.438100   32.280300
  C    -48.817400   29.266900   31.577300
  H    -48.689500   29.599600   32.620700
  H    -49.788300   29.638000   31.223200
  H    -48.018500   29.510000   30.907000
  H    -44.611500   25.876600   26.082400
  H    -49.085100   22.548900   32.032500

 Total Charge           Charge          ....    0
 Multiplicity           Mult            ....    1
 Number of Electrons    NEL             ....  134
 Basis Dimension        Dim             ....  322

ORBITAL ENERGIES
----------------

  NO   OCC          E(Eh)            E(eV)
   0   2.0000     -88.966038     -2420.8890
   1   2.0000     -88.961907     -2420.7766
   2   2.0000     -10.324760      -280.9510
   3   2.0000     -10.322615      -280.8926
   4   2.0000     -10.317298      -280.7480
   5   2.0000     -10.311107      -280.5795
   6   2.0000     -10.306620      -280.4574
   7   2.0000     -10.297759      -280.2163
   8   2.0000     -10.297414      -280.2069
   9   2.0000     -10.295244      -280.1478
  10   2.0000     -10.292971      -280.0860
  11   2.0000     -10.291291      -280.0403
  12   2.0000     -10.283775      -279.8357
  13   2.0000     -10.279390      -279.7164
  14   2.0000     -10.278639      -279.6960
  15   2.0000     -10.269157      -279.4380
  16   2.0000      -8.081837      -219.9180
  17   2.0000      -8.076172      -219.7638
  18   2.0000      -6.040152      -164.3609
  19   2.0000      -6.036140      -164.2517
  20   2.0000      -6.034776      -164.2146
  21   2.0000      -6.032788      -164.1605
  22   2.0000      -6.030847      -164.1077
  23   2.0000      -6.026754      -163.9963
  24   2.0000      -1.008415       -27.4404
  25   2.0000      -0.981093       -26.6969
  26   2.0000      -0.916582       -24.9415
  27   2.0000      -0.910863       -24.7859
  28   2.0000      -0.867971       -23.6187
  29   2.0000      -0.855060       -23.2674
  30   2.0000      -0.845610       -23.0102
  31   2.0000      -0.810699       -22.0602
  32   2.0000      -0.786284       -21.3959
  33   2.0000      -0.774497       -21.0751
  34   2.0000      -0.708558       -19.2808
  35   2.0000      -0.699865       -19.0443
  36   2.0000      -0.693320       -18.8662
  37   2.0000      -0.656272       -17.8581
  38   2.0000      -0.640374       -17.4255
  39   2.0000      -0.612221       -16.6594
  40   2.0000      -0.595131       -16.1943
  41   2.0000      -0.578365       -15.7381
  42   2.0000      -0.573223       -15.5982
  43   2.0000      -0.561668       -15.2838
  44   2.0000      -0.536835       -14.6080
  45   2.0000      -0.526304       -14.3215
  46   2.0000      -0.519375       -14.1329
  47   2.0000      -0.511025       -13.9057
  48   2.0000      -0.504046       -13.7158
  49   2.0000      -0.497218       -13.5300
  50   2.0000      -0.487771       -13.2729
  51   2.0000      -0.479346       -13.0437
  52   2.0000      -0.475385       -12.9359
  53   2.0000      -0.470914       -12.8142
  54   2.0000      -0.459350       -12.4995
  55   2.0000      -0.449027       -12.2186
  56   2.0000      -0.444560       -12.0971
  57   2.0000      -0.436255       -11.8711
  58   2.0000      -0.431741       -11.7483
  59   2.0000      -0.423383       -11.5208
  60   2.0000      -0.418072       -11.3763
  61   2.0000      -0.416158       -11.3242
  62   2.0000      -0.413636       -11.2556
  63   2.0000      -0.340948        -9.2777
  64   2.0000      -0.331806        -9.0289
  65   2.0000      -0.325779        -8.8649
  66   2.0000      -0.293505        -7.9867
  67   0.0000       0.031008         0.8438
  68   0.0000       0.072720         1.9788
  69   0.0000       0.114036         3.1031
  70   0.0000       0.119354         3.2478
  71   0.0000       0.130523         3.5517

MULLIKEN ATOMIC CHARGES
-----------------------
   0 S :    0.133783
   1 C :   -0.134013
   2 C :   -0.096768
   3 C :    0.027676
   4 C :   -0.157631
   5 H :    0.002504
   6 C :    0.083040
   7 H :    0.048973
   8 H :    0.018830
   9 C :   -0.090988
  10 H :    0.025878
  11 H :    0.033310
  12 C :   -0.032587
  13 H :    0.033867
  14 H :    0.016033
  15 H :    0.019581
  16 S :    0.097357
  17 C :   -0.091980
  18 C :   -0.046299
  19 C :   -0.024198
  20 C :   -0.172376
  21 H :    0.013596
  22 C :    0.161167
  23 H :    0.017041
  24 H :   -0.005866
  25 C :   -0.155595
  26 H :    0.039043
  27 H :    0.032741
  28 C :   -0.022777
  29 H :    0.042646
  30 H :    0.026662
  31 H :    0.036574
  32 H :    0.058103
  33 H :    0.062671
Sum of atomic charges:   -0.0000000

LOEWDIN ATOMIC CHARGES
----------------------
   0 S :    0.444710
   1 C :   -0.219468
   2 C :   -0.069852
   3 C :   -0.056641
   4 C :   -0.209425
   5 H :    0.025713
   6 C :   -0.025900
   7 H :    0.034686
   8 H :    0.027763
   9 C :   -0.040608
  10 H :    0.022371
  11 H :    0.027988
  12 C :   -0.071848
  13 H :    0.029007
  14 H :    0.024092
  15 H :    0.021557
  16 S :    0.380070
  17 C :   -0.183167
  18 C :   -0.063050
  19 C :   -0.042652
  20 C :   -0.191291
  21 H :    0.026232
  22 C :   -0.029571
  23 H :    0.030271
  24 H :    0.020225
  25 C :   -0.044332
  26 H :    0.025442
  27 H :    0.024886
  28 C :   -0.058232
  29 H :    0.032527
  30 H :    0.023199
  31 H :    0.021987
  32 H :    0.033001
  33 H :    0.030308

  Mayer bond orders larger than 0.100000
B(  0-S ,  1-C ) :   1.1602 B(  0-S ,  4-C ) :   1.1833 B(  1-C ,  2-C ) :   1.5687
B(  1-C ,  4-C ) :   0.1009 B(  1-C , 32-H ) :   0.9626 B(  2-C ,  3-C ) :   1.2938
B(  2-C ,  6-C ) :   1.0017 B(  3-C ,  4-C ) :   1.5135 B(  3-C ,  5-H ) :   1.0042
B(  4-C , 20-C ) :   1.0369 B(  6-C ,  7-H ) :   0.9377 B(  6-C ,  8-H ) :   0.9446
B(  6-C ,  9-C ) :   1.0839 B(  9-C , 10-H ) :   0.9542 B(  9-C , 11-H ) :   0.9508
B(  9-C , 12-C ) :   1.0775 B( 12-C , 13-H ) :   0.9732 B( 12-C , 14-H ) :   0.9704
B( 12-C , 15-H ) :   0.9719 B( 16-S , 17-C ) :   1.1311 B( 16-S , 20-C ) :   1.1251
B( 17-C , 18-C ) :   1.6683 B( 17-C , 33-H ) :   0.9599 B( 18-C , 19-C ) :   1.1650
B( 18-C , 21-H ) :   0.9929 B( 19-C , 20-C ) :   1.6488 B( 19-C , 22-C ) :   1.0512
B( 22-C , 23-H ) :   0.9099 B( 22-C , 24-H ) :   0.9236 B( 22-C , 25-C ) :   1.0677
B( 25-C , 26-H ) :   0.9624 B( 25-C , 27-H ) :   0.9479 B( 25-C , 28-C ) :   1.0896
B( 28-C , 29-H ) :   0.9749 B( 28-C , 30-H ) :   0.9742 B( 28-C , 31-H ) :   0.9749

Dispersion correction           -0.014003140
FINAL SINGLE POINT ENERGY     -1339.878915624631

DIPOLE MOMENT
-------------
                                X             Y             Z
Electronic contribution:      4.94284     -19.92095       8.96502
Nuclear contribution   :     -5.19407      20.51478      -9.09475
                        -----------------------------------------
Total Dipole Moment    :     -0.25123       0.59383      -0.12974
                        -----------------------------------------
Magnitude (a.u.)       :      0.65771
Magnitude (Debye)      :      1.67176

Rotational constants in cm-1:     0.019851     0.008079     0.006442
Rotational constants in MHz :   595.128968   242.205121   193.121811

                             ****ORCA TERMINATED NORMALLY****
TOTAL RUN TIME: 0 days 0 hours 0 minutes 21 seconds 378 msec
