                         Program Version 4.2.1 -  RELEASE  -
|  1> ! wB97X-D3 SP def2-SVP
|  2> %pal
|  3> nprocs 24
|  4> end
|  5>
|  6> * xyz 0 1
|  7> S 	 -114.559 	 21.8973 	 -113.058
|  8> C 	 -116.216 	 22.1552 	 -113.398
|  9> C 	 -116.958 	 21.002 	 -113.454
| 10> C 	 -116.106 	 19.8655 	 -113.395
| 11> C 	 -114.767 	 20.2537 	 -113.515
| 12> H 	 -116.293 	 18.8155 	 -113.562
| 13> C 	 -118.422 	 20.8019 	 -113.666
| 14> H 	 -118.833 	 20.2689 	 -112.809
| 15> H 	 -118.599 	 20.1392 	 -114.578
| 16> C 	 -119.307 	 22.0645 	 -113.782
| 17> H 	 -119.149 	 22.7353 	 -112.888
| 18> H 	 -119.083 	 22.5974 	 -114.696
| 19> C 	 -120.882 	 21.8432 	 -113.876
| 20> H 	 -121.15 	 21.2688 	 -114.761
| 21> H 	 -121.273 	 21.3154 	 -112.992
| 22> H 	 -121.364 	 22.8073 	 -113.805
| 23> S 	 -112.964 	 19.0417 	 -111.934
| 24> C 	 -111.819 	 17.9614 	 -112.591
| 25> C 	 -112.347 	 17.4376 	 -113.73
| 26> C 	 -113.38 	 18.2242 	 -114.307
| 27> C 	 -113.702 	 19.2523 	 -113.477
| 28> H 	 -112.034 	 16.5173 	 -114.159
| 29> C 	 -114.171 	 17.6633 	 -115.439
| 30> H 	 -115.212 	 17.8309 	 -115.422
| 31> H 	 -114.092 	 16.5831 	 -115.531
| 32> C 	 -113.592 	 18.1786 	 -116.796
| 33> H 	 -113.942 	 17.4757 	 -117.553
| 34> H 	 -112.546 	 18.1552 	 -116.692
| 35> C 	 -113.893 	 19.6807 	 -117.229
| 36> H 	 -113.286 	 19.7618 	 -118.184
| 37> H 	 -113.573 	 20.3462 	 -116.341
| 38> H 	 -114.962 	 19.9969 	 -117.341
| 39> H 	 -116.686 	 23.1095 	 -113.353
| 40> H 	 -111.187 	 17.265 	 -112.084
| 41> *
| 42>
| 43>                          ****END OF INPUT****

CARTESIAN COORDINATES (ANGSTROEM)
---------------------------------
  S    -114.559000   21.897300  -113.058000
  C    -116.216000   22.155200  -113.398000
  C    -116.958000   21.002000  -113.454000
  C    -116.106000   19.865500  -113.395000
  C    -114.767000   20.253700  -113.515000
  H    -116.293000   18.815500  -113.562000
  C    -118.422000   20.801900  -113.666000
  H    -118.833000   20.268900  -112.809000
  H    -118.599000   20.139200  -114.578000
  C    -119.307000   22.064500  -113.782000
  H    -119.149000   22.735300  -112.888000
  H    -119.083000   22.597400  -114.696000
  C    -120.882000   21.843200  -113.876000
  H    -121.150000   21.268800  -114.761000
  H    -121.273000   21.315400  -112.992000
  H    -121.364000   22.807300  -113.805000
  S    -112.964000   19.041700  -111.934000
  C    -111.819000   17.961400  -112.591000
  C    -112.347000   17.437600  -113.730000
  C    -113.380000   18.224200  -114.307000
  C    -113.702000   19.252300  -113.477000
  H    -112.034000   16.517300  -114.159000
  C    -114.171000   17.663300  -115.439000
  H    -115.212000   17.830900  -115.422000
  H    -114.092000   16.583100  -115.531000
  C    -113.592000   18.178600  -116.796000
  H    -113.942000   17.475700  -117.553000
  H    -112.546000   18.155200  -116.692000
  C    -113.893000   19.680700  -117.229000
  H    -113.286000   19.761800  -118.184000
  H    -113.573000   20.346200  -116.341000
  H    -114.962000   19.996900  -117.341000
  H    -116.686000   23.109500  -113.353000
  H    -111.187000   17.265000  -112.084000

 Total Charge           Charge          ....    0
 Multiplicity           Mult            ....    1
 Number of Electrons    NEL             ....  134
 Basis Dimension        Dim             ....  322

ORBITAL ENERGIES
----------------

  NO   OCC          E(Eh)            E(eV)
   0   2.0000     -88.968410     -2420.9535
   1   2.0000     -88.961441     -2420.7639
   2   2.0000     -10.323858      -280.9264
   3   2.0000     -10.319150      -280.7983
   4   2.0000     -10.308013      -280.4953
   5   2.0000     -10.303246      -280.3656
   6   2.0000     -10.300958      -280.3033
   7   2.0000     -10.299704      -280.2692
   8   2.0000     -10.295386      -280.1517
   9   2.0000     -10.293419      -280.0982
  10   2.0000     -10.293031      -280.0876
  11   2.0000     -10.287284      -279.9312
  12   2.0000     -10.286187      -279.9014
  13   2.0000     -10.284612      -279.8585
  14   2.0000     -10.284220      -279.8479
  15   2.0000     -10.281948      -279.7860
  16   2.0000      -8.084377      -219.9871
  17   2.0000      -8.077626      -219.8034
  18   2.0000      -6.042630      -164.4283
  19   2.0000      -6.039040      -164.3306
  20   2.0000      -6.036122      -164.2512
  21   2.0000      -6.034993      -164.2205
  22   2.0000      -6.032322      -164.1478
  23   2.0000      -6.027890      -164.0272
  24   2.0000      -1.020637       -27.7730
  25   2.0000      -0.998086       -27.1593
  26   2.0000      -0.909963       -24.7614
  27   2.0000      -0.906790       -24.6750
  28   2.0000      -0.871628       -23.7182
  29   2.0000      -0.854989       -23.2654
  30   2.0000      -0.840828       -22.8801
  31   2.0000      -0.812115       -22.0988
  32   2.0000      -0.782785       -21.3007
  33   2.0000      -0.774561       -21.0769
  34   2.0000      -0.710566       -19.3355
  35   2.0000      -0.694828       -18.9072
  36   2.0000      -0.686768       -18.6879
  37   2.0000      -0.664489       -18.0817
  38   2.0000      -0.646282       -17.5862
  39   2.0000      -0.612928       -16.6786
  40   2.0000      -0.602412       -16.3925
  41   2.0000      -0.571661       -15.5557
  42   2.0000      -0.570640       -15.5279
  43   2.0000      -0.542062       -14.7503
  44   2.0000      -0.531584       -14.4651
  45   2.0000      -0.524167       -14.2633
  46   2.0000      -0.517866       -14.0919
  47   2.0000      -0.509318       -13.8592
  48   2.0000      -0.506056       -13.7705
  49   2.0000      -0.496411       -13.5080
  50   2.0000      -0.491211       -13.3665
  51   2.0000      -0.483784       -13.1644
  52   2.0000      -0.476639       -12.9700
  53   2.0000      -0.466096       -12.6831
  54   2.0000      -0.462484       -12.5848
  55   2.0000      -0.446360       -12.1461
  56   2.0000      -0.438858       -11.9419
  57   2.0000      -0.435345       -11.8463
  58   2.0000      -0.430950       -11.7267
  59   2.0000      -0.428600       -11.6628
  60   2.0000      -0.420278       -11.4364
  61   2.0000      -0.419342       -11.4109
  62   2.0000      -0.408905       -11.1269
  63   2.0000      -0.340263        -9.2590
  64   2.0000      -0.326742        -8.8911
  65   2.0000      -0.320637        -8.7250
  66   2.0000      -0.300629        -8.1805
  67   0.0000       0.030464         0.8290
  68   0.0000       0.058858         1.6016
  69   0.0000       0.097075         2.6415
  70   0.0000       0.115166         3.1338
  71   0.0000       0.129271         3.5176

MULLIKEN ATOMIC CHARGES
-----------------------
   0 S :    0.133844
   1 C :   -0.095817
   2 C :   -0.057184
   3 C :    0.024598
   4 C :   -0.171275
   5 H :    0.020569
   6 C :    0.053888
   7 H :    0.035301
   8 H :    0.047076
   9 C :   -0.135750
  10 H :    0.042233
  11 H :    0.036735
  12 C :   -0.047695
  13 H :    0.039852
  14 H :    0.026872
  15 H :    0.036749
  16 S :    0.112648
  17 C :   -0.035932
  18 C :   -0.071827
  19 C :   -0.016828
  20 C :   -0.182852
  21 H :    0.005057
  22 C :    0.074146
  23 H :    0.007083
  24 H :    0.021543
  25 C :   -0.076580
  26 H :    0.026606
  27 H :    0.020951
  28 C :   -0.104214
  29 H :    0.057222
  30 H :    0.050073
  31 H :    0.042334
  32 H :    0.032006
  33 H :    0.048567
Sum of atomic charges:   -0.0000000

LOEWDIN ATOMIC CHARGES
----------------------
   0 S :    0.437467
   1 C :   -0.203109
   2 C :   -0.064579
   3 C :   -0.049119
   4 C :   -0.210332
   5 H :    0.030253
   6 C :   -0.040143
   7 H :    0.035964
   8 H :    0.040733
   9 C :   -0.046789
  10 H :    0.028414
  11 H :    0.021067
  12 C :   -0.064681
  13 H :    0.024314
  14 H :    0.023372
  15 H :    0.027864
  16 S :    0.432200
  17 C :   -0.209572
  18 C :   -0.056878
  19 C :   -0.068044
  20 C :   -0.199752
  21 H :    0.022281
  22 C :   -0.027578
  23 H :    0.017779
  24 H :    0.033969
  25 C :   -0.033595
  26 H :    0.018825
  27 H :    0.017045
  28 C :   -0.083414
  29 H :    0.036591
  30 H :    0.035572
  31 H :    0.025071
  32 H :    0.020407
  33 H :    0.028396

  Mayer bond orders larger than 0.100000
B(  0-S ,  1-C ) :   1.1426 B(  0-S ,  4-C ) :   1.1626 B(  1-C ,  2-C ) :   1.6172
B(  1-C , 32-H ) :   0.9644 B(  2-C ,  3-C ) :   1.2322 B(  2-C ,  6-C ) :   1.0209
B(  3-C ,  4-C ) :   1.5653 B(  3-C ,  5-H ) :   0.9953 B(  4-C , 20-C ) :   1.0180
B(  6-C ,  7-H ) :   0.9330 B(  6-C ,  8-H ) :   0.9416 B(  6-C ,  9-C ) :   1.0719
B(  9-C , 10-H ) :   0.9548 B(  9-C , 11-H ) :   0.9553 B(  9-C , 12-C ) :   1.0823
B( 12-C , 13-H ) :   0.9773 B( 12-C , 14-H ) :   0.9760 B( 12-C , 15-H ) :   0.9748
B( 16-S , 17-C ) :   1.1432 B( 16-S , 20-C ) :   1.1817 B( 17-C , 18-C ) :   1.6097
B( 17-C , 33-H ) :   0.9617 B( 18-C , 19-C ) :   1.2558 B( 18-C , 21-H ) :   0.9853
B( 19-C , 20-C ) :   1.5938 B( 19-C , 22-C ) :   1.0475 B( 22-C , 23-H ) :   0.9409
B( 22-C , 24-H ) :   0.9406 B( 22-C , 25-C ) :   1.0610 B( 25-C , 26-H ) :   0.9575
B( 25-C , 27-H ) :   0.9595 B( 25-C , 28-C ) :   1.0655 B( 28-C , 29-H ) :   0.9740
B( 28-C , 30-H ) :   0.9703 B( 28-C , 31-H ) :   0.9777

Dispersion correction           -0.014521676
FINAL SINGLE POINT ENERGY     -1339.836804204474

DIPOLE MOMENT
-------------
                                X             Y             Z
Electronic contribution:     20.48905       1.28420      17.10156
Nuclear contribution   :    -21.16876      -1.75213     -17.26473
                        -----------------------------------------
Total Dipole Moment    :     -0.67972      -0.46792      -0.16318
                        -----------------------------------------
Magnitude (a.u.)       :      0.84118
Magnitude (Debye)      :      2.13812

Rotational constants in cm-1:     0.021589     0.007840     0.006757
Rotational constants in MHz :   647.216022   235.038625   202.561687

                             ****ORCA TERMINATED NORMALLY****
TOTAL RUN TIME: 0 days 0 hours 0 minutes 21 seconds 993 msec
