                         Program Version 4.2.1 -  RELEASE  -
|  1> ! wB97X-D3 SP def2-SVP
|  2> %pal
|  3> nprocs 24
|  4> end
|  5>
|  6> * xyz 0 1
|  7> S 	 5.10961 	 -24.0443 	 -114.618
|  8> C 	 4.80815 	 -23.0996 	 -113.188
|  9> C 	 3.89576 	 -22.0621 	 -113.442
| 10> C 	 3.40347 	 -22.13 	 -114.832
| 11> C 	 4.06848 	 -23.0355 	 -115.603
| 12> H 	 2.77477 	 -21.4029 	 -115.352
| 13> C 	 3.42845 	 -21.0883 	 -112.413
| 14> H 	 3.66373 	 -20.1004 	 -112.78
| 15> H 	 3.94628 	 -21.3824 	 -111.541
| 16> C 	 1.95165 	 -21.2518 	 -112.068
| 17> H 	 1.62687 	 -22.2451 	 -112.328
| 18> H 	 1.82449 	 -21.091 	 -110.986
| 19> C 	 1.07157 	 -20.2331 	 -112.793
| 20> H 	 0.0478652 	 -20.5075 	 -112.96
| 21> H 	 0.964875 	 -19.2779 	 -112.306
| 22> H 	 1.44417 	 -20.115 	 -113.795
| 23> S 	 2.30086 	 -22.8856 	 -117.599
| 24> C 	 2.68618 	 -22.9692 	 -119.287
| 25> C 	 4.04764 	 -23.285 	 -119.356
| 26> C 	 4.72932 	 -23.4494 	 -118.093
| 27> C 	 3.86123 	 -23.2767 	 -117.045
| 28> H 	 4.48457 	 -23.3395 	 -120.378
| 29> C 	 6.17646 	 -23.6938 	 -118.043
| 30> H 	 6.52458 	 -23.4963 	 -117.026
| 31> H 	 6.74552 	 -22.9583 	 -118.62
| 32> C 	 6.64751 	 -25.1268 	 -118.293
| 33> H 	 7.77455 	 -25.3283 	 -118.249
| 34> H 	 6.50086 	 -25.4001 	 -119.339
| 35> C 	 5.80768 	 -26.1982 	 -117.608
| 36> H 	 5.91591 	 -26.2656 	 -116.506
| 37> H 	 6.05085 	 -27.2074 	 -118.027
| 38> H 	 4.80149 	 -26.0243 	 -117.955
| 39> H 	 5.28616 	 -23.2404 	 -112.212
| 40> H 	 1.9827 	 -22.8318 	 -120.082
| 41> *
| 42>
| 43>                          ****END OF INPUT****

CARTESIAN COORDINATES (ANGSTROEM)
---------------------------------
  S      5.109610  -24.044300  -114.618000
  C      4.808150  -23.099600  -113.188000
  C      3.895760  -22.062100  -113.442000
  C      3.403470  -22.130000  -114.832000
  C      4.068480  -23.035500  -115.603000
  H      2.774770  -21.402900  -115.352000
  C      3.428450  -21.088300  -112.413000
  H      3.663730  -20.100400  -112.780000
  H      3.946280  -21.382400  -111.541000
  C      1.951650  -21.251800  -112.068000
  H      1.626870  -22.245100  -112.328000
  H      1.824490  -21.091000  -110.986000
  C      1.071570  -20.233100  -112.793000
  H      0.047865  -20.507500  -112.960000
  H      0.964875  -19.277900  -112.306000
  H      1.444170  -20.115000  -113.795000
  S      2.300860  -22.885600  -117.599000
  C      2.686180  -22.969200  -119.287000
  C      4.047640  -23.285000  -119.356000
  C      4.729320  -23.449400  -118.093000
  C      3.861230  -23.276700  -117.045000
  H      4.484570  -23.339500  -120.378000
  C      6.176460  -23.693800  -118.043000
  H      6.524580  -23.496300  -117.026000
  H      6.745520  -22.958300  -118.620000
  C      6.647510  -25.126800  -118.293000
  H      7.774550  -25.328300  -118.249000
  H      6.500860  -25.400100  -119.339000
  C      5.807680  -26.198200  -117.608000
  H      5.915910  -26.265600  -116.506000
  H      6.050850  -27.207400  -118.027000
  H      4.801490  -26.024300  -117.955000
  H      5.286160  -23.240400  -112.212000
  H      1.982700  -22.831800  -120.082000

 Total Charge           Charge          ....    0
 Multiplicity           Mult            ....    1
 Number of Electrons    NEL             ....  134
 Basis Dimension        Dim             ....  322

ORBITAL ENERGIES
----------------

  NO   OCC          E(Eh)            E(eV)
   0   2.0000     -88.966908     -2420.9126
   1   2.0000     -88.964181     -2420.8384
   2   2.0000     -10.332635      -281.1653
   3   2.0000     -10.327236      -281.0184
   4   2.0000     -10.320056      -280.8230
   5   2.0000     -10.316478      -280.7256
   6   2.0000     -10.306141      -280.4444
   7   2.0000     -10.303710      -280.3782
   8   2.0000     -10.300682      -280.2958
   9   2.0000     -10.296116      -280.1716
  10   2.0000     -10.287153      -279.9277
  11   2.0000     -10.286286      -279.9041
  12   2.0000     -10.284901      -279.8664
  13   2.0000     -10.283744      -279.8349
  14   2.0000     -10.272825      -279.5378
  15   2.0000     -10.270096      -279.4635
  16   2.0000      -8.081160      -219.8995
  17   2.0000      -8.080076      -219.8701
  18   2.0000      -6.039802      -164.3514
  19   2.0000      -6.038560      -164.3176
  20   2.0000      -6.035659      -164.2386
  21   2.0000      -6.034157      -164.1978
  22   2.0000      -6.031874      -164.1356
  23   2.0000      -6.031039      -164.1129
  24   2.0000      -1.014436       -27.6042
  25   2.0000      -0.986642       -26.8479
  26   2.0000      -0.917984       -24.9796
  27   2.0000      -0.913484       -24.8572
  28   2.0000      -0.872451       -23.7406
  29   2.0000      -0.849276       -23.1100
  30   2.0000      -0.843272       -22.9466
  31   2.0000      -0.817185       -22.2367
  32   2.0000      -0.784337       -21.3429
  33   2.0000      -0.774242       -21.0682
  34   2.0000      -0.706269       -19.2185
  35   2.0000      -0.699145       -19.0247
  36   2.0000      -0.689480       -18.7617
  37   2.0000      -0.667376       -18.1602
  38   2.0000      -0.636274       -17.3139
  39   2.0000      -0.619066       -16.8456
  40   2.0000      -0.599267       -16.3069
  41   2.0000      -0.573336       -15.6013
  42   2.0000      -0.558811       -15.2060
  43   2.0000      -0.555381       -15.1127
  44   2.0000      -0.543563       -14.7911
  45   2.0000      -0.537253       -14.6194
  46   2.0000      -0.521692       -14.1960
  47   2.0000      -0.514522       -14.0008
  48   2.0000      -0.507167       -13.8007
  49   2.0000      -0.496629       -13.5140
  50   2.0000      -0.487262       -13.2591
  51   2.0000      -0.484181       -13.1752
  52   2.0000      -0.468457       -12.7474
  53   2.0000      -0.464304       -12.6344
  54   2.0000      -0.462254       -12.5786
  55   2.0000      -0.445423       -12.1206
  56   2.0000      -0.438309       -11.9270
  57   2.0000      -0.433792       -11.8041
  58   2.0000      -0.432022       -11.7559
  59   2.0000      -0.425406       -11.5759
  60   2.0000      -0.419441       -11.4136
  61   2.0000      -0.414242       -11.2721
  62   2.0000      -0.396187       -10.7808
  63   2.0000      -0.358593        -9.7578
  64   2.0000      -0.330401        -8.9907
  65   2.0000      -0.326243        -8.8775
  66   2.0000      -0.294146        -8.0041
  67   0.0000       0.028492         0.7753
  68   0.0000       0.082312         2.2398
  69   0.0000       0.109274         2.9735
  70   0.0000       0.119723         3.2578
  71   0.0000       0.136011         3.7010

MULLIKEN ATOMIC CHARGES
-----------------------
   0 S :    0.102924
   1 C :   -0.117071
   2 C :   -0.138655
   3 C :   -0.010367
   4 C :   -0.123990
   5 H :    0.033598
   6 C :    0.119884
   7 H :    0.041236
   8 H :   -0.001241
   9 C :   -0.063171
  10 H :    0.035647
  11 H :    0.033615
  12 C :   -0.043972
  13 H :    0.020638
  14 H :    0.030318
  15 H :    0.013942
  16 S :    0.086938
  17 C :   -0.095734
  18 C :   -0.045440
  19 C :   -0.079243
  20 C :   -0.104737
  21 H :    0.034041
  22 C :    0.104660
  23 H :    0.012124
  24 H :    0.033842
  25 C :   -0.094319
  26 H :    0.038804
  27 H :    0.012148
  28 C :   -0.073663
  29 H :    0.047161
  30 H :    0.029148
  31 H :    0.045378
  32 H :    0.056453
  33 H :    0.059102
Sum of atomic charges:   -0.0000000

LOEWDIN ATOMIC CHARGES
----------------------
   0 S :    0.414356
   1 C :   -0.211250
   2 C :   -0.051593
   3 C :   -0.081197
   4 C :   -0.182257
   5 H :    0.026423
   6 C :   -0.026319
   7 H :    0.033544
   8 H :    0.027042
   9 C :   -0.033969
  10 H :    0.025782
  11 H :    0.027080
  12 C :   -0.066854
  13 H :    0.024087
  14 H :    0.024394
  15 H :    0.019132
  16 S :    0.443012
  17 C :   -0.192288
  18 C :   -0.071355
  19 C :   -0.065581
  20 C :   -0.204238
  21 H :    0.035914
  22 C :   -0.040356
  23 H :    0.024033
  24 H :    0.037051
  25 C :   -0.051362
  26 H :    0.031385
  27 H :    0.018890
  28 C :   -0.072129
  29 H :    0.019425
  30 H :    0.030313
  31 H :    0.026385
  32 H :    0.032794
  33 H :    0.029705

  Mayer bond orders larger than 0.100000
B(  0-S ,  1-C ) :   1.1267 B(  0-S ,  4-C ) :   1.1393 B(  1-C ,  2-C ) :   1.6353
B(  1-C , 32-H ) :   0.9606 B(  2-C ,  3-C ) :   1.2002 B(  2-C ,  6-C ) :   1.0483
B(  3-C ,  4-C ) :   1.6299 B(  3-C ,  5-H ) :   0.9695 B(  4-C , 20-C ) :   1.0166
B(  6-C ,  7-H ) :   0.9402 B(  6-C ,  8-H ) :   0.9264 B(  6-C ,  9-C ) :   1.0521
B(  9-C , 10-H ) :   0.9609 B(  9-C , 11-H ) :   0.9621 B(  9-C , 12-C ) :   1.0719
B( 12-C , 13-H ) :   0.9726 B( 12-C , 14-H ) :   0.9750 B( 12-C , 15-H ) :   0.9760
B( 16-S , 17-C ) :   1.1641 B( 16-S , 20-C ) :   1.1669 B( 17-C , 18-C ) :   1.5747
B( 17-C , 33-H ) :   0.9781 B( 18-C , 19-C ) :   1.2483 B( 18-C , 21-H ) :   0.9889
B( 19-C , 20-C ) :   1.5462 B( 19-C , 22-C ) :   1.0625 B( 22-C , 23-H ) :   0.9231
B( 22-C , 24-H ) :   0.9322 B( 22-C , 25-C ) :   1.0531 B( 25-C , 26-H ) :   0.9581
B( 25-C , 27-H ) :   0.9547 B( 25-C , 28-C ) :   1.0755 B( 28-C , 29-H ) :   0.9748
B( 28-C , 30-H ) :   0.9716 B( 28-C , 31-H ) :   0.9660

Dispersion correction           -0.015064045
FINAL SINGLE POINT ENERGY     -1339.881302975446

DIPOLE MOMENT
-------------
                                X             Y             Z
Electronic contribution:     -1.11237      -2.37977      -5.52423
Nuclear contribution   :      1.12978       2.69657       5.48984
                        -----------------------------------------
Total Dipole Moment    :      0.01741       0.31680      -0.03439
                        -----------------------------------------
Magnitude (a.u.)       :      0.31913
Magnitude (Debye)      :      0.81117

Rotational constants in cm-1:     0.023080     0.008798     0.006790
Rotational constants in MHz :   691.908863   263.746968   203.552749

                             ****ORCA TERMINATED NORMALLY****
TOTAL RUN TIME: 0 days 0 hours 0 minutes 22 seconds 19 msec
