                         Program Version 4.2.1 -  RELEASE  -
|  1> ! wB97X-D3 SP def2-SVP
|  2> %pal
|  3> nprocs 24
|  4> end
|  5>
|  6> * xyz 0 1
|  7> S 	 13.4925 	 -17.4629 	 -121.11
|  8> C 	 11.9355 	 -16.5758 	 -121.423
|  9> C 	 11.4348 	 -16.0829 	 -120.256
| 10> C 	 11.9489 	 -16.78 	 -119.121
| 11> C 	 13.0977 	 -17.5092 	 -119.382
| 12> H 	 11.6842 	 -16.6158 	 -118.059
| 13> C 	 10.3074 	 -15.0664 	 -120.049
| 14> H 	 10.1087 	 -14.4002 	 -120.866
| 15> H 	 10.6342 	 -14.3597 	 -119.332
| 16> C 	 8.93128 	 -15.7337 	 -119.567
| 17> H 	 8.66636 	 -16.4293 	 -120.351
| 18> H 	 9.14802 	 -16.4448 	 -118.871
| 19> C 	 7.75995 	 -14.7976 	 -119.195
| 20> H 	 8.02139 	 -13.888 	 -118.66
| 21> H 	 7.34693 	 -14.408 	 -120.131
| 22> H 	 7.00659 	 -15.2163 	 -118.509
| 23> S 	 15.6627 	 -17.9149 	 -118.505
| 24> C 	 15.8386 	 -18.982 	 -117.146
| 25> C 	 14.7418 	 -19.5993 	 -116.693
| 26> C 	 13.6091 	 -18.9947 	 -117.331
| 27> C 	 13.9132 	 -18.2433 	 -118.413
| 28> H 	 14.8444 	 -20.3021 	 -115.862
| 29> C 	 12.201 	 -19.5325 	 -117.146
| 30> H 	 11.4677 	 -18.7638 	 -116.902
| 31> H 	 12.3167 	 -20.1517 	 -116.254
| 32> C 	 11.5575 	 -20.3036 	 -118.368
| 33> H 	 11.3884 	 -19.6619 	 -119.213
| 34> H 	 10.5513 	 -20.6259 	 -118.071
| 35> C 	 12.3416 	 -21.6107 	 -118.767
| 36> H 	 11.6535 	 -22.4673 	 -119.031
| 37> H 	 12.9082 	 -21.9475 	 -117.904
| 38> H 	 13.1563 	 -21.5411 	 -119.495
| 39> H 	 11.7031 	 -16.2844 	 -122.384
| 40> H 	 16.7969 	 -19.1987 	 -116.638
| 41> *
| 42>
| 43>                          ****END OF INPUT****

CARTESIAN COORDINATES (ANGSTROEM)
---------------------------------
  S     13.492500  -17.462900  -121.110000
  C     11.935500  -16.575800  -121.423000
  C     11.434800  -16.082900  -120.256000
  C     11.948900  -16.780000  -119.121000
  C     13.097700  -17.509200  -119.382000
  H     11.684200  -16.615800  -118.059000
  C     10.307400  -15.066400  -120.049000
  H     10.108700  -14.400200  -120.866000
  H     10.634200  -14.359700  -119.332000
  C      8.931280  -15.733700  -119.567000
  H      8.666360  -16.429300  -120.351000
  H      9.148020  -16.444800  -118.871000
  C      7.759950  -14.797600  -119.195000
  H      8.021390  -13.888000  -118.660000
  H      7.346930  -14.408000  -120.131000
  H      7.006590  -15.216300  -118.509000
  S     15.662700  -17.914900  -118.505000
  C     15.838600  -18.982000  -117.146000
  C     14.741800  -19.599300  -116.693000
  C     13.609100  -18.994700  -117.331000
  C     13.913200  -18.243300  -118.413000
  H     14.844400  -20.302100  -115.862000
  C     12.201000  -19.532500  -117.146000
  H     11.467700  -18.763800  -116.902000
  H     12.316700  -20.151700  -116.254000
  C     11.557500  -20.303600  -118.368000
  H     11.388400  -19.661900  -119.213000
  H     10.551300  -20.625900  -118.071000
  C     12.341600  -21.610700  -118.767000
  H     11.653500  -22.467300  -119.031000
  H     12.908200  -21.947500  -117.904000
  H     13.156300  -21.541100  -119.495000
  H     11.703100  -16.284400  -122.384000
  H     16.796900  -19.198700  -116.638000

 Total Charge           Charge          ....    0
 Multiplicity           Mult            ....    1
 Number of Electrons    NEL             ....  134
 Basis Dimension        Dim             ....  322

ORBITAL ENERGIES
----------------

  NO   OCC          E(Eh)            E(eV)
   0   2.0000     -88.965806     -2420.8827
   1   2.0000     -88.965296     -2420.8688
   2   2.0000     -10.333742      -281.1954
   3   2.0000     -10.324137      -280.9340
   4   2.0000     -10.314702      -280.6773
   5   2.0000     -10.313612      -280.6476
   6   2.0000     -10.307725      -280.4875
   7   2.0000     -10.300441      -280.2892
   8   2.0000     -10.295666      -280.1593
   9   2.0000     -10.294770      -280.1349
  10   2.0000     -10.293045      -280.0880
  11   2.0000     -10.291412      -280.0436
  12   2.0000     -10.286821      -279.9186
  13   2.0000     -10.284496      -279.8554
  14   2.0000     -10.284376      -279.8521
  15   2.0000     -10.275177      -279.6018
  16   2.0000      -8.080276      -219.8755
  17   2.0000      -8.079386      -219.8513
  18   2.0000      -6.038718      -164.3219
  19   2.0000      -6.038061      -164.3040
  20   2.0000      -6.035013      -164.2211
  21   2.0000      -6.034307      -164.2018
  22   2.0000      -6.030827      -164.1071
  23   2.0000      -6.029789      -164.0789
  24   2.0000      -1.008962       -27.4552
  25   2.0000      -0.984328       -26.7849
  26   2.0000      -0.905067       -24.6281
  27   2.0000      -0.898381       -24.4462
  28   2.0000      -0.871236       -23.7075
  29   2.0000      -0.844798       -22.9881
  30   2.0000      -0.842276       -22.9195
  31   2.0000      -0.815829       -22.1998
  32   2.0000      -0.784701       -21.3528
  33   2.0000      -0.771884       -21.0040
  34   2.0000      -0.718121       -19.5411
  35   2.0000      -0.711724       -19.3670
  36   2.0000      -0.690497       -18.7894
  37   2.0000      -0.662857       -18.0373
  38   2.0000      -0.645413       -17.5626
  39   2.0000      -0.620194       -16.8763
  40   2.0000      -0.587426       -15.9847
  41   2.0000      -0.568287       -15.4639
  42   2.0000      -0.553270       -15.0553
  43   2.0000      -0.542013       -14.7489
  44   2.0000      -0.537936       -14.6380
  45   2.0000      -0.522894       -14.2287
  46   2.0000      -0.514238       -13.9931
  47   2.0000      -0.509279       -13.8582
  48   2.0000      -0.497133       -13.5277
  49   2.0000      -0.491921       -13.3859
  50   2.0000      -0.489927       -13.3316
  51   2.0000      -0.478788       -13.0285
  52   2.0000      -0.470141       -12.7932
  53   2.0000      -0.468065       -12.7367
  54   2.0000      -0.459816       -12.5122
  55   2.0000      -0.453105       -12.3296
  56   2.0000      -0.440269       -11.9803
  57   2.0000      -0.435306       -11.8453
  58   2.0000      -0.428039       -11.6475
  59   2.0000      -0.425309       -11.5732
  60   2.0000      -0.424005       -11.5378
  61   2.0000      -0.417274       -11.3546
  62   2.0000      -0.409912       -11.1543
  63   2.0000      -0.353285        -9.6134
  64   2.0000      -0.334822        -9.1110
  65   2.0000      -0.331224        -9.0131
  66   2.0000      -0.289932        -7.8894
  67   0.0000       0.027124         0.7381
  68   0.0000       0.063163         1.7188
  69   0.0000       0.103578         2.8185
  70   0.0000       0.119466         3.2508
  71   0.0000       0.124656         3.3921

MULLIKEN ATOMIC CHARGES
-----------------------
   0 S :    0.083241
   1 C :   -0.099409
   2 C :   -0.059102
   3 C :   -0.013292
   4 C :   -0.130585
   5 H :    0.033309
   6 C :    0.087811
   7 H :    0.010454
   8 H :    0.017857
   9 C :   -0.041618
  10 H :    0.019102
  11 H :   -0.007556
  12 C :   -0.042466
  13 H :    0.022156
  14 H :    0.035187
  15 H :    0.044765
  16 S :    0.102469
  17 C :   -0.085233
  18 C :   -0.034862
  19 C :   -0.046814
  20 C :   -0.127767
  21 H :    0.030301
  22 C :    0.033881
  23 H :    0.026062
  24 H :    0.017343
  25 C :   -0.048645
  26 H :    0.048040
  27 H :    0.024720
  28 C :   -0.068909
  29 H :    0.041216
  30 H :    0.010538
  31 H :    0.040862
  32 H :    0.023299
  33 H :    0.053643
Sum of atomic charges:    0.0000000

LOEWDIN ATOMIC CHARGES
----------------------
   0 S :    0.358838
   1 C :   -0.157574
   2 C :   -0.052043
   3 C :   -0.070868
   4 C :   -0.177329
   5 H :    0.037859
   6 C :   -0.022605
   7 H :    0.024400
   8 H :    0.026590
   9 C :   -0.035766
  10 H :    0.027711
  11 H :    0.007821
  12 C :   -0.071220
  13 H :    0.024506
  14 H :    0.029053
  15 H :    0.033926
  16 S :    0.387925
  17 C :   -0.179189
  18 C :   -0.076369
  19 C :   -0.061462
  20 C :   -0.179832
  21 H :    0.040633
  22 C :   -0.032272
  23 H :    0.028304
  24 H :    0.026767
  25 C :   -0.032426
  26 H :    0.024191
  27 H :    0.025907
  28 C :   -0.077636
  29 H :    0.032099
  30 H :    0.020336
  31 H :    0.027446
  32 H :    0.009987
  33 H :    0.032293

  Mayer bond orders larger than 0.100000
B(  0-S ,  1-C ) :   1.1061 B(  0-S ,  4-C ) :   1.1305 B(  1-C ,  2-C ) :   1.6394
B(  1-C ,  4-C ) :   0.1001 B(  1-C , 32-H ) :   0.9806 B(  2-C ,  3-C ) :   1.1907
B(  2-C ,  6-C ) :   1.0361 B(  3-C ,  4-C ) :   1.6162 B(  3-C ,  5-H ) :   0.9813
B(  4-C , 20-C ) :   1.0391 B(  6-C ,  7-H ) :   0.9468 B(  6-C ,  8-H ) :   0.9346
B(  6-C ,  9-C ) :   1.0414 B(  9-C , 10-H ) :   0.9523 B(  9-C , 11-H ) :   0.9606
B(  9-C , 12-C ) :   1.0655 B( 12-C , 13-H ) :   0.9771 B( 12-C , 14-H ) :   0.9763
B( 12-C , 15-H ) :   0.9751 B( 16-S , 17-C ) :   1.1452 B( 16-S , 20-C ) :   1.1089
B( 17-C , 18-C ) :   1.6824 B( 17-C , 33-H ) :   0.9539 B( 18-C , 19-C ) :   1.1778
B( 18-C , 21-H ) :   0.9840 B( 19-C , 20-C ) :   1.6552 B( 19-C , 22-C ) :   1.0508
B( 22-C , 23-H ) :   0.9311 B( 22-C , 24-H ) :   0.9404 B( 22-C , 25-C ) :   1.0786
B( 25-C , 26-H ) :   0.9549 B( 25-C , 27-H ) :   0.9571 B( 25-C , 28-C ) :   1.0544
B( 28-C , 29-H ) :   0.9791 B( 28-C , 30-H ) :   0.9782 B( 28-C , 31-H ) :   0.9761

Dispersion correction           -0.015292068
FINAL SINGLE POINT ENERGY     -1339.852787490043

DIPOLE MOMENT
-------------
                                X             Y             Z
Electronic contribution:     26.51136       2.10556      -5.34285
Nuclear contribution   :    -27.00955      -1.99908       5.74805
                        -----------------------------------------
Total Dipole Moment    :     -0.49819       0.10649       0.40520
                        -----------------------------------------
Magnitude (a.u.)       :      0.65094
Magnitude (Debye)      :      1.65455

Rotational constants in cm-1:     0.020358     0.008424     0.007322
Rotational constants in MHz :   610.317026   252.539146   219.505188

                             ****ORCA TERMINATED NORMALLY****
TOTAL RUN TIME: 0 days 0 hours 0 minutes 22 seconds 268 msec
