                         Program Version 4.2.1 -  RELEASE  -
|  1> ! wB97X-D3 SP def2-SVP
|  2> %pal
|  3> nprocs 24
|  4> end
|  5>
|  6> * xyz 0 1
|  7> S 	 -59.2396 	 8.80834 	 -87.8978
|  8> C 	 -59.0713 	 10.4067 	 -88.6776
|  9> C 	 -59.271 	 11.4837 	 -87.8553
| 10> C 	 -59.5934 	 11.0045 	 -86.5517
| 11> C 	 -59.6923 	 9.63905 	 -86.3442
| 12> H 	 -59.7624 	 11.6607 	 -85.7262
| 13> C 	 -59.0474 	 12.9377 	 -88.2892
| 14> H 	 -59.8254 	 13.5575 	 -87.9545
| 15> H 	 -58.9796 	 12.9314 	 -89.3731
| 16> C 	 -57.7137 	 13.555 	 -87.7962
| 17> H 	 -56.9533 	 12.9623 	 -88.2751
| 18> H 	 -57.5635 	 14.5923 	 -88.1808
| 19> C 	 -57.6121 	 13.4298 	 -86.288
| 20> H 	 -57.4203 	 12.3886 	 -86.0041
| 21> H 	 -56.7687 	 13.9633 	 -86.0099
| 22> H 	 -58.3883 	 13.8908 	 -85.7966
| 23> S 	 -58.3401 	 8.63968 	 -84.1661
| 24> C 	 -59.3169 	 7.92273 	 -82.8891
| 25> C 	 -60.6952 	 7.93801 	 -83.1688
| 26> C 	 -60.9355 	 8.51773 	 -84.4481
| 27> C 	 -59.7892 	 8.95464 	 -85.0998
| 28> H 	 -61.3686 	 7.46919 	 -82.4415
| 29> C 	 -62.3521 	 8.6046 	 -85.0054
| 30> H 	 -62.9006 	 7.66949 	 -84.7478
| 31> H 	 -62.2529 	 8.60871 	 -86.1509
| 32> C 	 -63.146 	 9.84431 	 -84.6655
| 33> H 	 -63.9564 	 10.0531 	 -85.3401
| 34> H 	 -62.4121 	 10.5632 	 -84.9316
| 35> C 	 -63.6687 	 9.70968 	 -83.2697
| 36> H 	 -64.2305 	 10.5173 	 -82.9483
| 37> H 	 -62.7931 	 9.75529 	 -82.6173
| 38> H 	 -64.2388 	 8.81816 	 -83.122
| 39> H 	 -58.8876 	 10.5758 	 -89.6981
| 40> H 	 -58.8504 	 7.39314 	 -82.1217
| 41> *
| 42>
| 43>                          ****END OF INPUT****

CARTESIAN COORDINATES (ANGSTROEM)
---------------------------------
  S    -59.239600    8.808340  -87.897800
  C    -59.071300   10.406700  -88.677600
  C    -59.271000   11.483700  -87.855300
  C    -59.593400   11.004500  -86.551700
  C    -59.692300    9.639050  -86.344200
  H    -59.762400   11.660700  -85.726200
  C    -59.047400   12.937700  -88.289200
  H    -59.825400   13.557500  -87.954500
  H    -58.979600   12.931400  -89.373100
  C    -57.713700   13.555000  -87.796200
  H    -56.953300   12.962300  -88.275100
  H    -57.563500   14.592300  -88.180800
  C    -57.612100   13.429800  -86.288000
  H    -57.420300   12.388600  -86.004100
  H    -56.768700   13.963300  -86.009900
  H    -58.388300   13.890800  -85.796600
  S    -58.340100    8.639680  -84.166100
  C    -59.316900    7.922730  -82.889100
  C    -60.695200    7.938010  -83.168800
  C    -60.935500    8.517730  -84.448100
  C    -59.789200    8.954640  -85.099800
  H    -61.368600    7.469190  -82.441500
  C    -62.352100    8.604600  -85.005400
  H    -62.900600    7.669490  -84.747800
  H    -62.252900    8.608710  -86.150900
  C    -63.146000    9.844310  -84.665500
  H    -63.956400   10.053100  -85.340100
  H    -62.412100   10.563200  -84.931600
  C    -63.668700    9.709680  -83.269700
  H    -64.230500   10.517300  -82.948300
  H    -62.793100    9.755290  -82.617300
  H    -64.238800    8.818160  -83.122000
  H    -58.887600   10.575800  -89.698100
  H    -58.850400    7.393140  -82.121700

 Total Charge           Charge          ....    0
 Multiplicity           Mult            ....    1
 Number of Electrons    NEL             ....  134
 Basis Dimension        Dim             ....  322

ORBITAL ENERGIES
----------------

  NO   OCC          E(Eh)            E(eV)
   0   2.0000     -88.967649     -2420.9328
   1   2.0000     -88.965486     -2420.8740
   2   2.0000     -10.329120      -281.0697
   3   2.0000     -10.322441      -280.8879
   4   2.0000     -10.317762      -280.7606
   5   2.0000     -10.313752      -280.6515
   6   2.0000     -10.304718      -280.4056
   7   2.0000     -10.300410      -280.2884
   8   2.0000     -10.299483      -280.2632
   9   2.0000     -10.294756      -280.1346
  10   2.0000     -10.291397      -280.0431
  11   2.0000     -10.290453      -280.0175
  12   2.0000     -10.286438      -279.9082
  13   2.0000     -10.272757      -279.5359
  14   2.0000     -10.264554      -279.3127
  15   2.0000     -10.263289      -279.2783
  16   2.0000      -8.082217      -219.9283
  17   2.0000      -8.078608      -219.8301
  18   2.0000      -6.040583      -164.3726
  19   2.0000      -6.037225      -164.2812
  20   2.0000      -6.036751      -164.2683
  21   2.0000      -6.033477      -164.1793
  22   2.0000      -6.033143      -164.1702
  23   2.0000      -6.029207      -164.0631
  24   2.0000      -1.002234       -27.2722
  25   2.0000      -0.978232       -26.6191
  26   2.0000      -0.914664       -24.8893
  27   2.0000      -0.913687       -24.8627
  28   2.0000      -0.872182       -23.7333
  29   2.0000      -0.849845       -23.1255
  30   2.0000      -0.841387       -22.8953
  31   2.0000      -0.816318       -22.2132
  32   2.0000      -0.788210       -21.4483
  33   2.0000      -0.773980       -21.0611
  34   2.0000      -0.712354       -19.3841
  35   2.0000      -0.700687       -19.0666
  36   2.0000      -0.692669       -18.8485
  37   2.0000      -0.664797       -18.0900
  38   2.0000      -0.641941       -17.4681
  39   2.0000      -0.615282       -16.7427
  40   2.0000      -0.592200       -16.1146
  41   2.0000      -0.579547       -15.7703
  42   2.0000      -0.555578       -15.1180
  43   2.0000      -0.553042       -15.0490
  44   2.0000      -0.545575       -14.8459
  45   2.0000      -0.544161       -14.8074
  46   2.0000      -0.520765       -14.1707
  47   2.0000      -0.516750       -14.0615
  48   2.0000      -0.502550       -13.6751
  49   2.0000      -0.496236       -13.5033
  50   2.0000      -0.492420       -13.3994
  51   2.0000      -0.475481       -12.9385
  52   2.0000      -0.470615       -12.8061
  53   2.0000      -0.465497       -12.6668
  54   2.0000      -0.461123       -12.5478
  55   2.0000      -0.444362       -12.0917
  56   2.0000      -0.439948       -11.9716
  57   2.0000      -0.435331       -11.8460
  58   2.0000      -0.431729       -11.7479
  59   2.0000      -0.425624       -11.5818
  60   2.0000      -0.423902       -11.5350
  61   2.0000      -0.420230       -11.4350
  62   2.0000      -0.401873       -10.9355
  63   2.0000      -0.338783        -9.2188
  64   2.0000      -0.329618        -8.9694
  65   2.0000      -0.315838        -8.5944
  66   2.0000      -0.313227        -8.5233
  67   0.0000       0.040229         1.0947
  68   0.0000       0.045800         1.2463
  69   0.0000       0.112109         3.0507
  70   0.0000       0.117301         3.1919
  71   0.0000       0.123660         3.3649

MULLIKEN ATOMIC CHARGES
-----------------------
   0 S :    0.100250
   1 C :   -0.097113
   2 C :   -0.108115
   3 C :    0.047488
   4 C :   -0.188562
   5 H :    0.005276
   6 C :    0.105341
   7 H :    0.021232
   8 H :    0.015478
   9 C :   -0.085473
  10 H :    0.016310
  11 H :    0.037473
  12 C :   -0.001453
  13 H :    0.054225
  14 H :    0.007997
  15 H :    0.013457
  16 S :    0.122546
  17 C :   -0.090740
  18 C :   -0.033739
  19 C :   -0.018167
  20 C :   -0.170310
  21 H :    0.033696
  22 C :    0.010309
  23 H :    0.025383
  24 H :    0.038287
  25 C :   -0.015415
  26 H :    0.021563
  27 H :    0.008745
  28 C :   -0.002175
  29 H :    0.011191
  30 H :    0.026726
  31 H :    0.023806
  32 H :    0.023907
  33 H :    0.040575
Sum of atomic charges:    0.0000000

LOEWDIN ATOMIC CHARGES
----------------------
   0 S :    0.359152
   1 C :   -0.165711
   2 C :   -0.066225
   3 C :   -0.046388
   4 C :   -0.185902
   5 H :    0.025225
   6 C :   -0.020902
   7 H :    0.021058
   8 H :    0.029286
   9 C :   -0.034144
  10 H :    0.020471
  11 H :    0.027234
  12 C :   -0.055475
  13 H :    0.036081
  14 H :    0.019678
  15 H :    0.013196
  16 S :    0.409136
  17 C :   -0.168185
  18 C :   -0.070797
  19 C :   -0.048287
  20 C :   -0.213905
  21 H :    0.038803
  22 C :   -0.034160
  23 H :    0.026239
  24 H :    0.038603
  25 C :   -0.039644
  26 H :    0.021560
  27 H :    0.022659
  28 C :   -0.058080
  29 H :    0.015042
  30 H :    0.030416
  31 H :    0.023821
  32 H :    0.016637
  33 H :    0.013506

  Mayer bond orders larger than 0.100000
B(  0-S ,  1-C ) :   1.1404 B(  0-S ,  4-C ) :   1.0992 B(  1-C ,  2-C ) :   1.6473
B(  1-C , 32-H ) :   0.9592 B(  2-C ,  3-C ) :   1.2225 B(  2-C ,  6-C ) :   1.0243
B(  3-C ,  4-C ) :   1.6096 B(  3-C ,  5-H ) :   0.9891 B(  4-C , 20-C ) :   1.0562
B(  6-C ,  7-H ) :   0.9404 B(  6-C ,  8-H ) :   0.9367 B(  6-C ,  9-C ) :   1.0685
B(  9-C , 10-H ) :   0.9509 B(  9-C , 11-H ) :   0.9578 B(  9-C , 12-C ) :   1.0931
B( 12-C , 13-H ) :   0.9632 B( 12-C , 14-H ) :   0.9634 B( 12-C , 15-H ) :   0.9735
B( 16-S , 17-C ) :   1.1718 B( 16-S , 20-C ) :   1.1376 B( 17-C , 18-C ) :   1.5904
B( 17-C , 20-C ) :   0.1035 B( 17-C , 33-H ) :   0.9731 B( 18-C , 19-C ) :   1.2399
B( 18-C , 21-H ) :   0.9889 B( 19-C , 20-C ) :   1.5980 B( 19-C , 22-C ) :   1.0496
B( 22-C , 23-H ) :   0.9411 B( 22-C , 24-H ) :   0.9241 B( 22-C , 25-C ) :   1.0644
B( 25-C , 26-H ) :   0.9525 B( 25-C , 27-H ) :   0.9491 B( 25-C , 28-C ) :   1.0817
B( 28-C , 29-H ) :   0.9684 B( 28-C , 30-H ) :   0.9696 B( 28-C , 31-H ) :   0.9723

Dispersion correction           -0.015271227
FINAL SINGLE POINT ENERGY     -1339.865521372180

DIPOLE MOMENT
-------------
                                X             Y             Z
Electronic contribution:     10.19399     -17.04009      -2.76883
Nuclear contribution   :    -10.32121      17.50508       2.90253
                        -----------------------------------------
Total Dipole Moment    :     -0.12722       0.46499       0.13370
                        -----------------------------------------
Magnitude (a.u.)       :      0.50028
Magnitude (Debye)      :      1.27161

Rotational constants in cm-1:     0.019307     0.008478     0.007911
Rotational constants in MHz :   578.798466   254.172458   237.154973

                             ****ORCA TERMINATED NORMALLY****
TOTAL RUN TIME: 0 days 0 hours 0 minutes 22 seconds 405 msec
