                         Program Version 4.2.1 -  RELEASE  -
|  1> ! wB97X-D3 SP def2-SVP
|  2> %pal
|  3> nprocs 24
|  4> end
|  5>
|  6> * xyz 0 1
|  7> S 	 -32.6384 	 -5.25918 	 1.05753
|  8> C 	 -32.4153 	 -5.76836 	 2.73234
|  9> C 	 -33.4736 	 -6.51157 	 3.22325
| 10> C 	 -34.4898 	 -6.71044 	 2.24644
| 11> C 	 -34.2412 	 -5.99596 	 1.05542
| 12> H 	 -35.3609 	 -7.25756 	 2.41894
| 13> C 	 -33.4884 	 -7.14734 	 4.66834
| 14> H 	 -32.4605 	 -7.0724 	 5.10916
| 15> H 	 -33.7374 	 -8.20082 	 4.48772
| 16> C 	 -34.4892 	 -6.67773 	 5.74693
| 17> H 	 -35.5053 	 -6.85308 	 5.4084
| 18> H 	 -34.4018 	 -7.27747 	 6.69005
| 19> C 	 -34.5182 	 -5.18631 	 6.09112
| 20> H 	 -34.8669 	 -4.76109 	 5.2071
| 21> H 	 -35.162 	 -4.97686 	 7.02746
| 22> H 	 -33.5639 	 -4.81758 	 6.3491
| 23> S 	 -35.189 	 -7.45388 	 -1.05726
| 24> C 	 -36.5062 	 -6.77045 	 -1.99706
| 25> C 	 -36.7507 	 -5.46706 	 -1.62032
| 26> C 	 -35.9901 	 -5.04901 	 -0.439635
| 27> C 	 -35.0496 	 -6.00243 	 -0.112302
| 28> H 	 -37.5295 	 -4.88537 	 -2.10927
| 29> C 	 -36.2355 	 -3.78718 	 0.377393
| 30> H 	 -35.4767 	 -3.48083 	 1.02465
| 31> H 	 -37.1903 	 -3.98192 	 0.952234
| 32> C 	 -36.5825 	 -2.61015 	 -0.494404
| 33> H 	 -37.5076 	 -2.73873 	 -1.11246
| 34> H 	 -35.7889 	 -2.52368 	 -1.22097
| 35> C 	 -36.6163 	 -1.27826 	 0.331162
| 36> H 	 -36.9752 	 -0.424542 	 -0.186097
| 37> H 	 -35.7303 	 -1.05558 	 0.845264
| 38> H 	 -37.438 	 -1.36203 	 1.02205
| 39> H 	 -31.6383 	 -5.36548 	 3.43022
| 40> H 	 -36.8918 	 -7.29812 	 -2.87794
| 41> *
| 42>
| 43>                          ****END OF INPUT****

CARTESIAN COORDINATES (ANGSTROEM)
---------------------------------
  S    -32.638400   -5.259180    1.057530
  C    -32.415300   -5.768360    2.732340
  C    -33.473600   -6.511570    3.223250
  C    -34.489800   -6.710440    2.246440
  C    -34.241200   -5.995960    1.055420
  H    -35.360900   -7.257560    2.418940
  C    -33.488400   -7.147340    4.668340
  H    -32.460500   -7.072400    5.109160
  H    -33.737400   -8.200820    4.487720
  C    -34.489200   -6.677730    5.746930
  H    -35.505300   -6.853080    5.408400
  H    -34.401800   -7.277470    6.690050
  C    -34.518200   -5.186310    6.091120
  H    -34.866900   -4.761090    5.207100
  H    -35.162000   -4.976860    7.027460
  H    -33.563900   -4.817580    6.349100
  S    -35.189000   -7.453880   -1.057260
  C    -36.506200   -6.770450   -1.997060
  C    -36.750700   -5.467060   -1.620320
  C    -35.990100   -5.049010   -0.439635
  C    -35.049600   -6.002430   -0.112302
  H    -37.529500   -4.885370   -2.109270
  C    -36.235500   -3.787180    0.377393
  H    -35.476700   -3.480830    1.024650
  H    -37.190300   -3.981920    0.952234
  C    -36.582500   -2.610150   -0.494404
  H    -37.507600   -2.738730   -1.112460
  H    -35.788900   -2.523680   -1.220970
  C    -36.616300   -1.278260    0.331162
  H    -36.975200   -0.424542   -0.186097
  H    -35.730300   -1.055580    0.845264
  H    -37.438000   -1.362030    1.022050
  H    -31.638300   -5.365480    3.430220
  H    -36.891800   -7.298120   -2.877940

 Total Charge           Charge          ....    0
 Multiplicity           Mult            ....    1
 Number of Electrons    NEL             ....  134
 Basis Dimension        Dim             ....  322

ORBITAL ENERGIES
----------------

  NO   OCC          E(Eh)            E(eV)
   0   2.0000     -88.969732     -2420.9895
   1   2.0000     -88.963223     -2420.8124
   2   2.0000     -10.328545      -281.0540
   3   2.0000     -10.321190      -280.8539
   4   2.0000     -10.317129      -280.7434
   5   2.0000     -10.316395      -280.7234
   6   2.0000     -10.306589      -280.4565
   7   2.0000     -10.304899      -280.4106
   8   2.0000     -10.302840      -280.3545
   9   2.0000     -10.299858      -280.2734
  10   2.0000     -10.294471      -280.1268
  11   2.0000     -10.290249      -280.0119
  12   2.0000     -10.288027      -279.9514
  13   2.0000     -10.286244      -279.9029
  14   2.0000     -10.272281      -279.5230
  15   2.0000     -10.270271      -279.4683
  16   2.0000      -8.083681      -219.9681
  17   2.0000      -8.078337      -219.8227
  18   2.0000      -6.042135      -164.4149
  19   2.0000      -6.038337      -164.3115
  20   2.0000      -6.036862      -164.2714
  21   2.0000      -6.034510      -164.2074
  22   2.0000      -6.032762      -164.1598
  23   2.0000      -6.029075      -164.0595
  24   2.0000      -1.005872       -27.3712
  25   2.0000      -0.979366       -26.6499
  26   2.0000      -0.912534       -24.8313
  27   2.0000      -0.904737       -24.6191
  28   2.0000      -0.871252       -23.7080
  29   2.0000      -0.848141       -23.0791
  30   2.0000      -0.845599       -23.0099
  31   2.0000      -0.810092       -22.0437
  32   2.0000      -0.786613       -21.4048
  33   2.0000      -0.773743       -21.0546
  34   2.0000      -0.705924       -19.2092
  35   2.0000      -0.701737       -19.0952
  36   2.0000      -0.687433       -18.7060
  37   2.0000      -0.654802       -17.8181
  38   2.0000      -0.637611       -17.3503
  39   2.0000      -0.617916       -16.8144
  40   2.0000      -0.603443       -16.4205
  41   2.0000      -0.571728       -15.5575
  42   2.0000      -0.563945       -15.3457
  43   2.0000      -0.550137       -14.9700
  44   2.0000      -0.541564       -14.7367
  45   2.0000      -0.525677       -14.3044
  46   2.0000      -0.517287       -14.0761
  47   2.0000      -0.511594       -13.9212
  48   2.0000      -0.506001       -13.7690
  49   2.0000      -0.489875       -13.3302
  50   2.0000      -0.483700       -13.1621
  51   2.0000      -0.480693       -13.0803
  52   2.0000      -0.470612       -12.8060
  53   2.0000      -0.464838       -12.6489
  54   2.0000      -0.460103       -12.5200
  55   2.0000      -0.453009       -12.3270
  56   2.0000      -0.445064       -12.1108
  57   2.0000      -0.436903       -11.8887
  58   2.0000      -0.435889       -11.8611
  59   2.0000      -0.423333       -11.5195
  60   2.0000      -0.418259       -11.3814
  61   2.0000      -0.414417       -11.2769
  62   2.0000      -0.413043       -11.2395
  63   2.0000      -0.337522        -9.1844
  64   2.0000      -0.329310        -8.9610
  65   2.0000      -0.323252        -8.7961
  66   2.0000      -0.306668        -8.3449
  67   0.0000       0.039962         1.0874
  68   0.0000       0.056732         1.5438
  69   0.0000       0.111533         3.0350
  70   0.0000       0.114587         3.1181
  71   0.0000       0.128480         3.4961

MULLIKEN ATOMIC CHARGES
-----------------------
   0 S :    0.119677
   1 C :   -0.139748
   2 C :   -0.093031
   3 C :    0.066365
   4 C :   -0.198856
   5 H :   -0.006343
   6 C :    0.056101
   7 H :    0.032972
   8 H :    0.040886
   9 C :   -0.096655
  10 H :    0.018664
  11 H :    0.036294
  12 C :   -0.035402
  13 H :    0.032210
  14 H :    0.044232
  15 H :    0.012696
  16 S :    0.112694
  17 C :   -0.108680
  18 C :   -0.022758
  19 C :   -0.041521
  20 C :   -0.163407
  21 H :    0.023737
  22 C :    0.123784
  23 H :    0.019256
  24 H :    0.042695
  25 C :   -0.135982
  26 H :    0.036361
  27 H :    0.026563
  28 C :    0.002347
  29 H :    0.018023
  30 H :    0.031573
  31 H :    0.008892
  32 H :    0.064688
  33 H :    0.071674
Sum of atomic charges:    0.0000000

LOEWDIN ATOMIC CHARGES
----------------------
   0 S :    0.401216
   1 C :   -0.206247
   2 C :   -0.066803
   3 C :   -0.049113
   4 C :   -0.189303
   5 H :    0.022571
   6 C :   -0.029922
   7 H :    0.033260
   8 H :    0.037695
   9 C :   -0.049733
  10 H :    0.019557
  11 H :    0.028231
  12 C :   -0.061229
  13 H :    0.018754
  14 H :    0.038502
  15 H :    0.012217
  16 S :    0.406203
  17 C :   -0.182057
  18 C :   -0.072199
  19 C :   -0.043018
  20 C :   -0.221676
  21 H :    0.031050
  22 C :   -0.025023
  23 H :    0.022666
  24 H :    0.043935
  25 C :   -0.042217
  26 H :    0.025163
  27 H :    0.018702
  28 C :   -0.059602
  29 H :    0.023780
  30 H :    0.019922
  31 H :    0.023672
  32 H :    0.037069
  33 H :    0.033978

  Mayer bond orders larger than 0.100000
B(  0-S ,  1-C ) :   1.1371 B(  0-S ,  4-C ) :   1.1525 B(  1-C ,  2-C ) :   1.6269
B(  1-C ,  4-C ) :   0.1024 B(  1-C , 32-H ) :   0.9534 B(  2-C ,  3-C ) :   1.2434
B(  2-C ,  6-C ) :   1.0046 B(  3-C ,  4-C ) :   1.5641 B(  3-C ,  5-H ) :   1.0055
B(  4-C , 20-C ) :   1.0351 B(  6-C ,  7-H ) :   0.9490 B(  6-C ,  8-H ) :   0.9401
B(  6-C ,  9-C ) :   1.0702 B(  9-C , 10-H ) :   0.9586 B(  9-C , 11-H ) :   0.9560
B(  9-C , 12-C ) :   1.0691 B( 12-C , 13-H ) :   0.9774 B( 12-C , 14-H ) :   0.9737
B( 12-C , 15-H ) :   0.9784 B( 16-S , 17-C ) :   1.1537 B( 16-S , 20-C ) :   1.1348
B( 17-C , 18-C ) :   1.6232 B( 17-C , 33-H ) :   0.9640 B( 18-C , 19-C ) :   1.2147
B( 18-C , 21-H ) :   0.9882 B( 19-C , 20-C ) :   1.6209 B( 19-C , 22-C ) :   1.0469
B( 22-C , 23-H ) :   0.9365 B( 22-C , 24-H ) :   0.9211 B( 22-C , 25-C ) :   1.0558
B( 25-C , 26-H ) :   0.9502 B( 25-C , 27-H ) :   0.9632 B( 25-C , 28-C ) :   1.0838
B( 28-C , 29-H ) :   0.9711 B( 28-C , 30-H ) :   0.9767 B( 28-C , 31-H ) :   0.9693

Dispersion correction           -0.014174947
FINAL SINGLE POINT ENERGY     -1339.872411106384

DIPOLE MOMENT
-------------
                                X             Y             Z
Electronic contribution:      9.89107     -14.65630     -19.02321
Nuclear contribution   :    -10.34972      14.86219      19.35905
                        -----------------------------------------
Total Dipole Moment    :     -0.45865       0.20590       0.33583
                        -----------------------------------------
Magnitude (a.u.)       :      0.60460
Magnitude (Debye)      :      1.53676

Rotational constants in cm-1:     0.017148     0.008565     0.007001
Rotational constants in MHz :   514.091291   256.773487   209.879185

                             ****ORCA TERMINATED NORMALLY****
TOTAL RUN TIME: 0 days 0 hours 0 minutes 20 seconds 69 msec
