                         Program Version 4.2.1 -  RELEASE  -
|  1> ! wB97X-D3 SP def2-SVP
|  2> %pal
|  3> nprocs 24
|  4> end
|  5>
|  6> * xyz 0 1
|  7> S 	 -44.2827 	 7.78373 	 28.8555
|  8> C 	 -43.205 	 9.10085 	 28.508
|  9> C 	 -43.789 	 9.90753 	 27.5178
| 10> C 	 -45.0933 	 9.50433 	 27.1265
| 11> C 	 -45.5812 	 8.42997 	 27.8373
| 12> H 	 -45.8661 	 9.91057 	 26.3932
| 13> C 	 -43.2235 	 11.2108 	 27.0077
| 14> H 	 -42.4276 	 11.5141 	 27.6571
| 15> H 	 -43.8602 	 12.0225 	 27.2463
| 16> C 	 -42.7572 	 11.2153 	 25.5299
| 17> H 	 -43.453 	 10.8986 	 24.7382
| 18> H 	 -42.516 	 12.2842 	 25.1604
| 19> C 	 -41.3698 	 10.5164 	 25.3013
| 20> H 	 -41.3378 	 9.42004 	 25.3687
| 21> H 	 -40.9596 	 10.7491 	 24.2719
| 22> H 	 -40.623 	 10.8432 	 26.0505
| 23> S 	 -46.9725 	 6.13977 	 27.961
| 24> C 	 -48.7296 	 6.07805 	 27.9077
| 25> C 	 -49.1913 	 7.33438 	 27.6512
| 26> C 	 -48.1872 	 8.35298 	 27.6793
| 27> C 	 -46.901 	 7.86481 	 27.8035
| 28> H 	 -50.2242 	 7.49784 	 27.3626
| 29> C 	 -48.5908 	 9.8185 	 27.4805
| 30> H 	 -49.7116 	 9.91073 	 27.3833
| 31> H 	 -48.3077 	 10.1741 	 26.4929
| 32> C 	 -48.2039 	 10.7547 	 28.6093
| 33> H 	 -48.4567 	 11.8153 	 28.4349
| 34> H 	 -47.164 	 10.7457 	 28.752
| 35> C 	 -48.7535 	 10.317 	 30.0053
| 36> H 	 -48.2754 	 10.9191 	 30.8009
| 37> H 	 -48.4624 	 9.2869 	 30.2697
| 38> H 	 -49.8228 	 10.4466 	 30.0515
| 39> H 	 -42.2445 	 9.22991 	 29.0083
| 40> H 	 -49.1891 	 5.08882 	 27.8239
| 41> *
| 42>
| 43>                          ****END OF INPUT****

CARTESIAN COORDINATES (ANGSTROEM)
---------------------------------
  S    -44.282700    7.783730   28.855500
  C    -43.205000    9.100850   28.508000
  C    -43.789000    9.907530   27.517800
  C    -45.093300    9.504330   27.126500
  C    -45.581200    8.429970   27.837300
  H    -45.866100    9.910570   26.393200
  C    -43.223500   11.210800   27.007700
  H    -42.427600   11.514100   27.657100
  H    -43.860200   12.022500   27.246300
  C    -42.757200   11.215300   25.529900
  H    -43.453000   10.898600   24.738200
  H    -42.516000   12.284200   25.160400
  C    -41.369800   10.516400   25.301300
  H    -41.337800    9.420040   25.368700
  H    -40.959600   10.749100   24.271900
  H    -40.623000   10.843200   26.050500
  S    -46.972500    6.139770   27.961000
  C    -48.729600    6.078050   27.907700
  C    -49.191300    7.334380   27.651200
  C    -48.187200    8.352980   27.679300
  C    -46.901000    7.864810   27.803500
  H    -50.224200    7.497840   27.362600
  C    -48.590800    9.818500   27.480500
  H    -49.711600    9.910730   27.383300
  H    -48.307700   10.174100   26.492900
  C    -48.203900   10.754700   28.609300
  H    -48.456700   11.815300   28.434900
  H    -47.164000   10.745700   28.752000
  C    -48.753500   10.317000   30.005300
  H    -48.275400   10.919100   30.800900
  H    -48.462400    9.286900   30.269700
  H    -49.822800   10.446600   30.051500
  H    -42.244500    9.229910   29.008300
  H    -49.189100    5.088820   27.823900

 Total Charge           Charge          ....    0
 Multiplicity           Mult            ....    1
 Number of Electrons    NEL             ....  134
 Basis Dimension        Dim             ....  322

ORBITAL ENERGIES
----------------

  NO   OCC          E(Eh)            E(eV)
   0   2.0000     -88.966082     -2420.8902
   1   2.0000     -88.960653     -2420.7424
   2   2.0000     -10.330760      -281.1143
   3   2.0000     -10.328408      -281.0503
   4   2.0000     -10.321085      -280.8510
   5   2.0000     -10.319858      -280.8176
   6   2.0000     -10.307141      -280.4716
   7   2.0000     -10.306807      -280.4625
   8   2.0000     -10.299672      -280.2683
   9   2.0000     -10.299243      -280.2566
  10   2.0000     -10.296387      -280.1789
  11   2.0000     -10.296375      -280.1786
  12   2.0000     -10.289928      -280.0032
  13   2.0000     -10.283351      -279.8242
  14   2.0000     -10.280082      -279.7352
  15   2.0000     -10.273126      -279.5460
  16   2.0000      -8.080713      -219.8874
  17   2.0000      -8.076254      -219.7660
  18   2.0000      -6.039231      -164.3358
  19   2.0000      -6.035169      -164.2253
  20   2.0000      -6.034768      -164.2144
  21   2.0000      -6.031508      -164.1257
  22   2.0000      -6.030570      -164.1002
  23   2.0000      -6.027019      -164.0035
  24   2.0000      -1.011955       -27.5367
  25   2.0000      -0.987275       -26.8651
  26   2.0000      -0.907077       -24.6828
  27   2.0000      -0.905950       -24.6522
  28   2.0000      -0.873826       -23.7780
  29   2.0000      -0.847341       -23.0573
  30   2.0000      -0.839608       -22.8469
  31   2.0000      -0.816778       -22.2257
  32   2.0000      -0.780528       -21.2392
  33   2.0000      -0.773025       -21.0351
  34   2.0000      -0.710577       -19.3358
  35   2.0000      -0.698428       -19.0052
  36   2.0000      -0.688796       -18.7431
  37   2.0000      -0.669455       -18.2168
  38   2.0000      -0.645454       -17.5637
  39   2.0000      -0.616318       -16.7709
  40   2.0000      -0.596718       -16.2375
  41   2.0000      -0.566474       -15.4145
  42   2.0000      -0.553143       -15.0518
  43   2.0000      -0.551945       -15.0192
  44   2.0000      -0.546602       -14.8738
  45   2.0000      -0.526115       -14.3163
  46   2.0000      -0.521792       -14.1987
  47   2.0000      -0.511213       -13.9108
  48   2.0000      -0.506538       -13.7836
  49   2.0000      -0.495166       -13.4741
  50   2.0000      -0.484917       -13.1953
  51   2.0000      -0.477214       -12.9856
  52   2.0000      -0.470050       -12.7907
  53   2.0000      -0.467493       -12.7211
  54   2.0000      -0.453623       -12.3437
  55   2.0000      -0.446367       -12.1463
  56   2.0000      -0.437730       -11.9112
  57   2.0000      -0.436475       -11.8771
  58   2.0000      -0.430618       -11.7177
  59   2.0000      -0.425171       -11.5695
  60   2.0000      -0.416038       -11.3210
  61   2.0000      -0.410065       -11.1584
  62   2.0000      -0.404922       -11.0185
  63   2.0000      -0.359735        -9.7889
  64   2.0000      -0.332820        -9.0565
  65   2.0000      -0.328901        -8.9498
  66   2.0000      -0.289918        -7.8891
  67   0.0000       0.021794         0.5930
  68   0.0000       0.073567         2.0019
  69   0.0000       0.104244         2.8366
  70   0.0000       0.118154         3.2151
  71   0.0000       0.137986         3.7548

MULLIKEN ATOMIC CHARGES
-----------------------
   0 S :    0.108724
   1 C :   -0.119283
   2 C :   -0.078963
   3 C :    0.007864
   4 C :   -0.146505
   5 H :    0.041475
   6 C :    0.112445
   7 H :   -0.003051
   8 H :    0.022741
   9 C :   -0.093795
  10 H :    0.041882
  11 H :    0.034741
  12 C :   -0.093613
  13 H :    0.040341
  14 H :    0.040014
  15 H :    0.027795
  16 S :    0.075840
  17 C :   -0.096430
  18 C :   -0.024478
  19 C :   -0.061168
  20 C :   -0.134184
  21 H :    0.025578
  22 C :    0.053967
  23 H :    0.015851
  24 H :    0.034442
  25 C :   -0.058938
  26 H :    0.029856
  27 H :    0.025231
  28 C :   -0.073051
  29 H :    0.031573
  30 H :    0.048183
  31 H :    0.028637
  32 H :    0.061980
  33 H :    0.074300
Sum of atomic charges:   -0.0000000

LOEWDIN ATOMIC CHARGES
----------------------
   0 S :    0.400923
   1 C :   -0.199793
   2 C :   -0.064242
   3 C :   -0.069446
   4 C :   -0.190273
   5 H :    0.049128
   6 C :   -0.033596
   7 H :    0.028495
   8 H :    0.030008
   9 C :   -0.046505
  10 H :    0.026432
  11 H :    0.033413
  12 C :   -0.078044
  13 H :    0.022716
  14 H :    0.030858
  15 H :    0.023406
  16 S :    0.403831
  17 C :   -0.179963
  18 C :   -0.069848
  19 C :   -0.061881
  20 C :   -0.196068
  21 H :    0.033927
  22 C :   -0.036198
  23 H :    0.033465
  24 H :    0.026781
  25 C :   -0.042595
  26 H :    0.027227
  27 H :    0.016049
  28 C :   -0.064152
  29 H :    0.028698
  30 H :    0.029668
  31 H :    0.017900
  32 H :    0.035290
  33 H :    0.034388

  Mayer bond orders larger than 0.100000
B(  0-S ,  1-C ) :   1.1430 B(  0-S ,  4-C ) :   1.1446 B(  1-C ,  2-C ) :   1.5823
B(  1-C ,  4-C ) :   0.1047 B(  1-C , 32-H ) :   0.9726 B(  2-C ,  3-C ) :   1.2268
B(  2-C ,  6-C ) :   1.0272 B(  3-C ,  4-C ) :   1.5785 B(  3-C ,  5-H ) :   0.9841
B(  4-C , 20-C ) :   1.0699 B(  6-C ,  7-H ) :   0.9353 B(  6-C ,  8-H ) :   0.9408
B(  6-C ,  9-C ) :   1.0557 B(  9-C , 10-H ) :   0.9631 B(  9-C , 11-H ) :   0.9570
B(  9-C , 12-C ) :   1.0617 B( 12-C , 13-H ) :   0.9789 B( 12-C , 14-H ) :   0.9775
B( 12-C , 15-H ) :   0.9759 B( 16-S , 17-C ) :   1.1534 B( 16-S , 20-C ) :   1.1489
B( 17-C , 18-C ) :   1.5880 B( 17-C , 20-C ) :   0.1003 B( 17-C , 33-H ) :   0.9691
B( 18-C , 19-C ) :   1.2574 B( 18-C , 21-H ) :   0.9891 B( 19-C , 20-C ) :   1.5771
B( 19-C , 22-C ) :   1.0262 B( 22-C , 23-H ) :   0.9369 B( 22-C , 24-H ) :   0.9385
B( 22-C , 25-C ) :   1.0675 B( 25-C , 26-H ) :   0.9553 B( 25-C , 27-H ) :   0.9561
B( 25-C , 28-C ) :   1.0764 B( 28-C , 29-H ) :   0.9746 B( 28-C , 30-H ) :   0.9731
B( 28-C , 31-H ) :   0.9793

Dispersion correction           -0.015019216
FINAL SINGLE POINT ENERGY     -1339.880514854665

DIPOLE MOMENT
-------------
                                X             Y             Z
Electronic contribution:     -2.62949     -22.84624       5.98984
Nuclear contribution   :      2.46943      23.41286      -6.25465
                        -----------------------------------------
Total Dipole Moment    :     -0.16006       0.56662      -0.26481
                        -----------------------------------------
Magnitude (a.u.)       :      0.64560
Magnitude (Debye)      :      1.64099

Rotational constants in cm-1:     0.021378     0.008422     0.007229
Rotational constants in MHz :   640.891720   252.481425   216.717509

                             ****ORCA TERMINATED NORMALLY****
TOTAL RUN TIME: 0 days 0 hours 0 minutes 20 seconds 932 msec
