                         Program Version 4.2.1 -  RELEASE  -
|  1> ! wB97X-D3 SP def2-SVP
|  2> %pal
|  3> nprocs 24
|  4> end
|  5>
|  6> * xyz 0 1
|  7> S 	 -53.4118 	 23.0634 	 29.7895
|  8> C 	 -53.7503 	 24.7442 	 30.079
|  9> C 	 -52.9248 	 25.5587 	 29.3068
| 10> C 	 -52.0509 	 24.7959 	 28.4543
| 11> C 	 -52.0839 	 23.4103 	 28.6587
| 12> H 	 -51.4368 	 25.2816 	 27.7658
| 13> C 	 -53.0003 	 27.0744 	 29.2165
| 14> H 	 -54.05 	 27.279 	 29.3672
| 15> H 	 -52.7258 	 27.3291 	 28.1772
| 16> C 	 -52.3084 	 27.9131 	 30.345
| 17> H 	 -52.774 	 28.9457 	 30.3638
| 18> H 	 -52.4108 	 27.5345 	 31.3478
| 19> C 	 -50.8599 	 27.9855 	 29.945
| 20> H 	 -50.716 	 28.5457 	 29.0415
| 21> H 	 -50.2596 	 28.5321 	 30.6829
| 22> H 	 -50.3701 	 26.9569 	 29.8309
| 23> S 	 -51.7879 	 20.7474 	 27.8416
| 24> C 	 -50.2013 	 20.1558 	 27.2994
| 25> C 	 -49.3145 	 21.2548 	 27.1005
| 26> C 	 -49.8531 	 22.4758 	 27.5361
| 27> C 	 -51.2076 	 22.4118 	 27.9809
| 28> H 	 -48.3344 	 21.196 	 26.6949
| 29> C 	 -48.925 	 23.6901 	 27.6709
| 30> H 	 -49.5798 	 24.4364 	 28.0562
| 31> H 	 -48.494 	 23.9562 	 26.7416
| 32> C 	 -47.7576 	 23.4895 	 28.6618
| 33> H 	 -47.0724 	 22.7029 	 28.2077
| 34> H 	 -48.1122 	 23.0979 	 29.6024
| 35> C 	 -46.9261 	 24.8149 	 28.8988
| 36> H 	 -46.3163 	 24.9743 	 27.9694
| 37> H 	 -46.1629 	 24.5719 	 29.7348
| 38> H 	 -47.563 	 25.6916 	 29.1595
| 39> H 	 -54.5567 	 25.1798 	 30.644
| 40> H 	 -50.0039 	 19.1364 	 26.9681
| 41> *
| 42>
| 43>                          ****END OF INPUT****

CARTESIAN COORDINATES (ANGSTROEM)
---------------------------------
  S    -53.411800   23.063400   29.789500
  C    -53.750300   24.744200   30.079000
  C    -52.924800   25.558700   29.306800
  C    -52.050900   24.795900   28.454300
  C    -52.083900   23.410300   28.658700
  H    -51.436800   25.281600   27.765800
  C    -53.000300   27.074400   29.216500
  H    -54.050000   27.279000   29.367200
  H    -52.725800   27.329100   28.177200
  C    -52.308400   27.913100   30.345000
  H    -52.774000   28.945700   30.363800
  H    -52.410800   27.534500   31.347800
  C    -50.859900   27.985500   29.945000
  H    -50.716000   28.545700   29.041500
  H    -50.259600   28.532100   30.682900
  H    -50.370100   26.956900   29.830900
  S    -51.787900   20.747400   27.841600
  C    -50.201300   20.155800   27.299400
  C    -49.314500   21.254800   27.100500
  C    -49.853100   22.475800   27.536100
  C    -51.207600   22.411800   27.980900
  H    -48.334400   21.196000   26.694900
  C    -48.925000   23.690100   27.670900
  H    -49.579800   24.436400   28.056200
  H    -48.494000   23.956200   26.741600
  C    -47.757600   23.489500   28.661800
  H    -47.072400   22.702900   28.207700
  H    -48.112200   23.097900   29.602400
  C    -46.926100   24.814900   28.898800
  H    -46.316300   24.974300   27.969400
  H    -46.162900   24.571900   29.734800
  H    -47.563000   25.691600   29.159500
  H    -54.556700   25.179800   30.644000
  H    -50.003900   19.136400   26.968100

 Total Charge           Charge          ....    0
 Multiplicity           Mult            ....    1
 Number of Electrons    NEL             ....  134
 Basis Dimension        Dim             ....  322

ORBITAL ENERGIES
----------------

  NO   OCC          E(Eh)            E(eV)
   0   2.0000     -88.971173     -2421.0287
   1   2.0000     -88.971045     -2421.0252
   2   2.0000     -10.340500      -281.3793
   3   2.0000     -10.338825      -281.3337
   4   2.0000     -10.328280      -281.0468
   5   2.0000     -10.314946      -280.6839
   6   2.0000     -10.306448      -280.4527
   7   2.0000     -10.301456      -280.3169
   8   2.0000     -10.297298      -280.2037
   9   2.0000     -10.295138      -280.1450
  10   2.0000     -10.294575      -280.1296
  11   2.0000     -10.293549      -280.1017
  12   2.0000     -10.292270      -280.0669
  13   2.0000     -10.292068      -280.0614
  14   2.0000     -10.286031      -279.8971
  15   2.0000     -10.278858      -279.7020
  16   2.0000      -8.085092      -220.0065
  17   2.0000      -8.084640      -219.9942
  18   2.0000      -6.043760      -164.4591
  19   2.0000      -6.043189      -164.4435
  20   2.0000      -6.039643      -164.3470
  21   2.0000      -6.039207      -164.3352
  22   2.0000      -6.035775      -164.2418
  23   2.0000      -6.035545      -164.2355
  24   2.0000      -0.999618       -27.2010
  25   2.0000      -0.979544       -26.6547
  26   2.0000      -0.911673       -24.8079
  27   2.0000      -0.904185       -24.6041
  28   2.0000      -0.865647       -23.5554
  29   2.0000      -0.849804       -23.1243
  30   2.0000      -0.843491       -22.9525
  31   2.0000      -0.811295       -22.0765
  32   2.0000      -0.777820       -21.1656
  33   2.0000      -0.766835       -20.8667
  34   2.0000      -0.705376       -19.1943
  35   2.0000      -0.699625       -19.0378
  36   2.0000      -0.693419       -18.8689
  37   2.0000      -0.664925       -18.0935
  38   2.0000      -0.639534       -17.4026
  39   2.0000      -0.619140       -16.8477
  40   2.0000      -0.591363       -16.0918
  41   2.0000      -0.572484       -15.5781
  42   2.0000      -0.569818       -15.5055
  43   2.0000      -0.550682       -14.9848
  44   2.0000      -0.541035       -14.7223
  45   2.0000      -0.519739       -14.1428
  46   2.0000      -0.514169       -13.9912
  47   2.0000      -0.510736       -13.8978
  48   2.0000      -0.504728       -13.7343
  49   2.0000      -0.499271       -13.5859
  50   2.0000      -0.488742       -13.2994
  51   2.0000      -0.478391       -13.0177
  52   2.0000      -0.470551       -12.8043
  53   2.0000      -0.467162       -12.7121
  54   2.0000      -0.458274       -12.4703
  55   2.0000      -0.449478       -12.2309
  56   2.0000      -0.446269       -12.1436
  57   2.0000      -0.434227       -11.8159
  58   2.0000      -0.429764       -11.6945
  59   2.0000      -0.423992       -11.5374
  60   2.0000      -0.420267       -11.4360
  61   2.0000      -0.415864       -11.3162
  62   2.0000      -0.414561       -11.2808
  63   2.0000      -0.355343        -9.6694
  64   2.0000      -0.335007        -9.1160
  65   2.0000      -0.327927        -8.9233
  66   2.0000      -0.281690        -7.6652
  67   0.0000       0.014525         0.3952
  68   0.0000       0.077030         2.0961
  69   0.0000       0.098689         2.6855
  70   0.0000       0.117749         3.2041
  71   0.0000       0.127835         3.4786

MULLIKEN ATOMIC CHARGES
-----------------------
   0 S :    0.117343
   1 C :   -0.106127
   2 C :   -0.112779
   3 C :    0.026343
   4 C :   -0.115938
   5 H :   -0.002151
   6 C :    0.048079
   7 H :    0.017896
   8 H :    0.033232
   9 C :   -0.043165
  10 H :    0.038432
  11 H :    0.032650
  12 C :   -0.076844
  13 H :    0.022787
  14 H :    0.027161
  15 H :    0.049782
  16 S :    0.098445
  17 C :   -0.101236
  18 C :   -0.015986
  19 C :   -0.076943
  20 C :   -0.137802
  21 H :    0.013216
  22 C :    0.126088
  23 H :   -0.008658
  24 H :    0.018539
  25 C :   -0.110439
  26 H :    0.032680
  27 H :    0.036752
  28 C :   -0.092922
  29 H :    0.040765
  30 H :    0.052731
  31 H :    0.055172
  32 H :    0.043260
  33 H :    0.069636
Sum of atomic charges:    0.0000000

LOEWDIN ATOMIC CHARGES
----------------------
   0 S :    0.405477
   1 C :   -0.204075
   2 C :   -0.062924
   3 C :   -0.064598
   4 C :   -0.184495
   5 H :    0.017199
   6 C :   -0.030793
   7 H :    0.028373
   8 H :    0.034710
   9 C :   -0.037190
  10 H :    0.031392
  11 H :    0.024678
  12 C :   -0.074386
  13 H :    0.019815
  14 H :    0.021823
  15 H :    0.033035
  16 S :    0.396603
  17 C :   -0.178592
  18 C :   -0.063038
  19 C :   -0.053617
  20 C :   -0.193515
  21 H :    0.027582
  22 C :   -0.026985
  23 H :    0.021645
  24 H :    0.024983
  25 C :   -0.039676
  26 H :    0.025455
  27 H :    0.021219
  28 C :   -0.077109
  29 H :    0.028506
  30 H :    0.037909
  31 H :    0.028857
  32 H :    0.030153
  33 H :    0.031580

  Mayer bond orders larger than 0.100000
B(  0-S ,  1-C ) :   1.1381 B(  0-S ,  4-C ) :   1.1466 B(  1-C ,  2-C ) :   1.5992
B(  1-C , 32-H ) :   0.9661 B(  2-C ,  3-C ) :   1.2708 B(  2-C ,  6-C ) :   1.0185
B(  3-C ,  4-C ) :   1.5276 B(  3-C ,  5-H ) :   0.9907 B(  4-C , 20-C ) :   1.0733
B(  6-C ,  7-H ) :   0.9361 B(  6-C ,  8-H ) :   0.9495 B(  6-C ,  9-C ) :   1.0559
B(  9-C , 10-H ) :   0.9548 B(  9-C , 11-H ) :   0.9563 B(  9-C , 12-C ) :   1.0806
B( 12-C , 13-H ) :   0.9749 B( 12-C , 14-H ) :   0.9712 B( 12-C , 15-H ) :   0.9737
B( 16-S , 17-C ) :   1.1688 B( 16-S , 20-C ) :   1.1407 B( 17-C , 18-C ) :   1.5457
B( 17-C , 20-C ) :   0.1111 B( 17-C , 33-H ) :   0.9679 B( 18-C , 19-C ) :   1.3020
B( 18-C , 21-H ) :   0.9901 B( 19-C , 20-C ) :   1.5391 B( 19-C , 22-C ) :   1.0422
B( 22-C , 23-H ) :   0.9257 B( 22-C , 24-H ) :   0.9291 B( 22-C , 25-C ) :   1.0677
B( 25-C , 26-H ) :   0.9536 B( 25-C , 27-H ) :   0.9598 B( 25-C , 28-C ) :   1.0716
B( 28-C , 29-H ) :   0.9749 B( 28-C , 30-H ) :   0.9753 B( 28-C , 31-H ) :   0.9755

Dispersion correction           -0.014262655
FINAL SINGLE POINT ENERGY     -1339.873915283036

DIPOLE MOMENT
-------------
                                X             Y             Z
Electronic contribution:    -19.15112     -25.85849      -3.37394
Nuclear contribution   :     19.54794      26.42315       3.28617
                        -----------------------------------------
Total Dipole Moment    :      0.39682       0.56466      -0.08777
                        -----------------------------------------
Magnitude (a.u.)       :      0.69571
Magnitude (Debye)      :      1.76835

Rotational constants in cm-1:     0.016824     0.009841     0.006586
Rotational constants in MHz :   504.372958   295.033061   197.458126

                             ****ORCA TERMINATED NORMALLY****
TOTAL RUN TIME: 0 days 0 hours 0 minutes 21 seconds 917 msec
