                         Program Version 4.2.1 -  RELEASE  -
|  1> ! wB97X-D3 SP def2-SVP
|  2> %pal
|  3> nprocs 24
|  4> end
|  5>
|  6> * xyz 0 1
|  7> S 	 -49.1148 	 8.689 	 -17.8867
|  8> C 	 -49.8351 	 8.20501 	 -16.3686
|  9> C 	 -49.942 	 9.24528 	 -15.4049
| 10> C 	 -49.3744 	 10.428 	 -15.9865
| 11> C 	 -48.7562 	 10.2879 	 -17.2269
| 12> H 	 -49.3175 	 11.3556 	 -15.551
| 13> C 	 -50.5876 	 9.25404 	 -14.0352
| 14> H 	 -50.0346 	 9.97252 	 -13.4224
| 15> H 	 -50.2951 	 8.31649 	 -13.5519
| 16> C 	 -52.1768 	 9.43691 	 -13.8587
| 17> H 	 -52.3251 	 10.4672 	 -14.2251
| 18> H 	 -52.7605 	 8.71869 	 -14.4274
| 19> C 	 -52.4844 	 9.29232 	 -12.3093
| 20> H 	 -52.1054 	 10.1147 	 -11.7975
| 21> H 	 -53.54 	 9.28685 	 -12.1498
| 22> H 	 -52.1956 	 8.31531 	 -11.8794
| 23> S 	 -46.9718 	 10.5722 	 -19.2397
| 24> C 	 -46.3499 	 12.1196 	 -19.6947
| 25> C 	 -47.0241 	 13.1088 	 -19.0718
| 26> C 	 -47.9217 	 12.6619 	 -18.0775
| 27> C 	 -48.0463 	 11.2489 	 -18.0196
| 28> H 	 -46.8636 	 14.1069 	 -19.3671
| 29> C 	 -48.7706 	 13.6793 	 -17.3546
| 30> H 	 -48.3884 	 14.6882 	 -17.2486
| 31> H 	 -48.6035 	 13.4116 	 -16.3631
| 32> C 	 -50.2116 	 13.6203 	 -17.8409
| 33> H 	 -50.6126 	 12.6916 	 -17.3736
| 34> H 	 -50.2822 	 13.4602 	 -18.9256
| 35> C 	 -51.0253 	 14.8698 	 -17.3884
| 36> H 	 -50.6633 	 15.8355 	 -17.8103
| 37> H 	 -50.9332 	 14.9944 	 -16.3288
| 38> H 	 -52.0833 	 14.7708 	 -17.5762
| 39> H 	 -50.3341 	 7.34566 	 -16.2542
| 40> H 	 -45.5659 	 12.3093 	 -20.469
| 41> *
| 42>
| 43>                          ****END OF INPUT****

CARTESIAN COORDINATES (ANGSTROEM)
---------------------------------
  S    -49.114800    8.689000  -17.886700
  C    -49.835100    8.205010  -16.368600
  C    -49.942000    9.245280  -15.404900
  C    -49.374400   10.428000  -15.986500
  C    -48.756200   10.287900  -17.226900
  H    -49.317500   11.355600  -15.551000
  C    -50.587600    9.254040  -14.035200
  H    -50.034600    9.972520  -13.422400
  H    -50.295100    8.316490  -13.551900
  C    -52.176800    9.436910  -13.858700
  H    -52.325100   10.467200  -14.225100
  H    -52.760500    8.718690  -14.427400
  C    -52.484400    9.292320  -12.309300
  H    -52.105400   10.114700  -11.797500
  H    -53.540000    9.286850  -12.149800
  H    -52.195600    8.315310  -11.879400
  S    -46.971800   10.572200  -19.239700
  C    -46.349900   12.119600  -19.694700
  C    -47.024100   13.108800  -19.071800
  C    -47.921700   12.661900  -18.077500
  C    -48.046300   11.248900  -18.019600
  H    -46.863600   14.106900  -19.367100
  C    -48.770600   13.679300  -17.354600
  H    -48.388400   14.688200  -17.248600
  H    -48.603500   13.411600  -16.363100
  C    -50.211600   13.620300  -17.840900
  H    -50.612600   12.691600  -17.373600
  H    -50.282200   13.460200  -18.925600
  C    -51.025300   14.869800  -17.388400
  H    -50.663300   15.835500  -17.810300
  H    -50.933200   14.994400  -16.328800
  H    -52.083300   14.770800  -17.576200
  H    -50.334100    7.345660  -16.254200
  H    -45.565900   12.309300  -20.469000

 Total Charge           Charge          ....    0
 Multiplicity           Mult            ....    1
 Number of Electrons    NEL             ....  134
 Basis Dimension        Dim             ....  322

ORBITAL ENERGIES
----------------

  NO   OCC          E(Eh)            E(eV)
   0   2.0000     -88.969002     -2420.9696
   1   2.0000     -88.962889     -2420.8033
   2   2.0000     -10.331116      -281.1240
   3   2.0000     -10.330262      -281.1007
   4   2.0000     -10.314434      -280.6700
   5   2.0000     -10.309206      -280.5278
   6   2.0000     -10.307465      -280.4804
   7   2.0000     -10.304188      -280.3912
   8   2.0000     -10.301429      -280.3161
   9   2.0000     -10.298240      -280.2294
  10   2.0000     -10.288526      -279.9650
  11   2.0000     -10.288022      -279.9513
  12   2.0000     -10.283486      -279.8279
  13   2.0000     -10.283149      -279.8187
  14   2.0000     -10.279819      -279.7281
  15   2.0000     -10.278210      -279.6843
  16   2.0000      -8.083234      -219.9560
  17   2.0000      -8.078043      -219.8147
  18   2.0000      -6.041731      -164.4039
  19   2.0000      -6.037907      -164.2998
  20   2.0000      -6.036583      -164.2638
  21   2.0000      -6.033965      -164.1925
  22   2.0000      -6.032435      -164.1509
  23   2.0000      -6.028810      -164.0523
  24   2.0000      -1.007717       -27.4214
  25   2.0000      -0.981989       -26.7213
  26   2.0000      -0.911339       -24.7988
  27   2.0000      -0.903051       -24.5733
  28   2.0000      -0.871606       -23.7176
  29   2.0000      -0.851649       -23.1745
  30   2.0000      -0.844633       -22.9836
  31   2.0000      -0.815769       -22.1982
  32   2.0000      -0.783140       -21.3103
  33   2.0000      -0.771711       -20.9993
  34   2.0000      -0.711468       -19.3600
  35   2.0000      -0.710814       -19.3422
  36   2.0000      -0.698410       -19.0047
  37   2.0000      -0.666567       -18.1382
  38   2.0000      -0.643796       -17.5186
  39   2.0000      -0.621745       -16.9185
  40   2.0000      -0.598317       -16.2810
  41   2.0000      -0.571436       -15.5496
  42   2.0000      -0.563291       -15.3279
  43   2.0000      -0.553892       -15.0722
  44   2.0000      -0.529043       -14.3960
  45   2.0000      -0.519408       -14.1338
  46   2.0000      -0.515495       -14.0273
  47   2.0000      -0.513070       -13.9613
  48   2.0000      -0.506817       -13.7912
  49   2.0000      -0.503857       -13.7107
  50   2.0000      -0.491608       -13.3773
  51   2.0000      -0.479464       -13.0469
  52   2.0000      -0.474350       -12.9077
  53   2.0000      -0.466216       -12.6864
  54   2.0000      -0.456639       -12.4258
  55   2.0000      -0.448498       -12.2042
  56   2.0000      -0.445414       -12.1203
  57   2.0000      -0.443726       -12.0744
  58   2.0000      -0.438462       -11.9311
  59   2.0000      -0.431171       -11.7328
  60   2.0000      -0.424708       -11.5569
  61   2.0000      -0.415460       -11.3052
  62   2.0000      -0.403185       -10.9712
  63   2.0000      -0.360562        -9.8114
  64   2.0000      -0.334490        -9.1019
  65   2.0000      -0.326511        -8.8848
  66   2.0000      -0.275589        -7.4991
  67   0.0000       0.017440         0.4746
  68   0.0000       0.076432         2.0798
  69   0.0000       0.099658         2.7118
  70   0.0000       0.124364         3.3841
  71   0.0000       0.134801         3.6681

MULLIKEN ATOMIC CHARGES
-----------------------
   0 S :    0.105955
   1 C :   -0.055795
   2 C :   -0.070925
   3 C :    0.021608
   4 C :   -0.112722
   5 H :   -0.038370
   6 C :    0.026325
   7 H :    0.024607
   8 H :    0.021687
   9 C :   -0.059567
  10 H :    0.039505
  11 H :    0.039401
  12 C :   -0.035425
  13 H :    0.027663
  14 H :    0.024089
  15 H :    0.037204
  16 S :    0.085313
  17 C :   -0.088083
  18 C :   -0.015339
  19 C :   -0.068429
  20 C :   -0.131530
  21 H :   -0.001540
  22 C :    0.090980
  23 H :    0.002500
  24 H :    0.003571
  25 C :   -0.065806
  26 H :    0.035857
  27 H :    0.044137
  28 C :   -0.040488
  29 H :    0.035377
  30 H :    0.016336
  31 H :    0.034822
  32 H :   -0.003809
  33 H :    0.070893
Sum of atomic charges:    0.0000000

LOEWDIN ATOMIC CHARGES
----------------------
   0 S :    0.402477
   1 C :   -0.177518
   2 C :   -0.053489
   3 C :   -0.060082
   4 C :   -0.184748
   5 H :    0.011190
   6 C :   -0.041400
   7 H :    0.032208
   8 H :    0.030669
   9 C :   -0.025254
  10 H :    0.027695
  11 H :    0.023451
  12 C :   -0.060022
  13 H :    0.017821
  14 H :    0.023313
  15 H :    0.030344
  16 S :    0.407120
  17 C :   -0.193561
  18 C :   -0.072475
  19 C :   -0.049701
  20 C :   -0.194872
  21 H :    0.026238
  22 C :   -0.037876
  23 H :    0.028251
  24 H :    0.022228
  25 C :   -0.036555
  26 H :    0.030804
  27 H :    0.028240
  28 C :   -0.067716
  29 H :    0.027831
  30 H :    0.020097
  31 H :    0.025088
  32 H :   -0.001491
  33 H :    0.041695

  Mayer bond orders larger than 0.100000
B(  0-S ,  1-C ) :   1.1482 B(  0-S ,  4-C ) :   1.1367 B(  1-C ,  2-C ) :   1.5851
B(  1-C ,  4-C ) :   0.1036 B(  1-C , 32-H ) :   0.9806 B(  2-C ,  3-C ) :   1.2536
B(  2-C ,  6-C ) :   1.0243 B(  3-C ,  4-C ) :   1.5621 B(  3-C ,  5-H ) :   1.0010
B(  4-C , 20-C ) :   1.0996 B(  6-C ,  7-H ) :   0.9449 B(  6-C ,  8-H ) :   0.9398
B(  6-C ,  9-C ) :   1.0412 B(  9-C , 10-H ) :   0.9596 B(  9-C , 11-H ) :   0.9627
B(  9-C , 12-C ) :   1.0699 B( 12-C , 13-H ) :   0.9786 B( 12-C , 14-H ) :   0.9748
B( 12-C , 15-H ) :   0.9766 B( 16-S , 17-C ) :   1.1584 B( 16-S , 20-C ) :   1.1373
B( 17-C , 18-C ) :   1.5917 B( 17-C , 20-C ) :   0.1024 B( 17-C , 33-H ) :   0.9600
B( 18-C , 19-C ) :   1.2712 B( 18-C , 21-H ) :   1.0013 B( 19-C , 20-C ) :   1.5342
B( 19-C , 22-C ) :   1.0364 B( 22-C , 23-H ) :   0.9346 B( 22-C , 24-H ) :   0.9158
B( 22-C , 25-C ) :   1.0453 B( 25-C , 26-H ) :   0.9479 B( 25-C , 27-H ) :   0.9627
B( 25-C , 28-C ) :   1.0808 B( 28-C , 29-H ) :   0.9765 B( 28-C , 30-H ) :   0.9723
B( 28-C , 31-H ) :   0.9752

Dispersion correction           -0.013899775
FINAL SINGLE POINT ENERGY     -1339.857609640454

DIPOLE MOMENT
-------------
                                X             Y             Z
Electronic contribution:     20.19705     -13.29462     -20.56704
Nuclear contribution   :    -20.60356      13.77473      21.02006
                        -----------------------------------------
Total Dipole Moment    :     -0.40651       0.48011       0.45301
                        -----------------------------------------
Magnitude (a.u.)       :      0.77522
Magnitude (Debye)      :      1.97046

Rotational constants in cm-1:     0.018844     0.008362     0.006196
Rotational constants in MHz :   564.936046   250.678041   185.762629

                             ****ORCA TERMINATED NORMALLY****
TOTAL RUN TIME: 0 days 0 hours 0 minutes 21 seconds 390 msec
