                         Program Version 4.2.1 -  RELEASE  -
|  1> ! wB97X-D3 SP def2-SVP
|  2> %pal
|  3> nprocs 24
|  4> end
|  5>
|  6> * xyz 0 1
|  7> S 	 -110.745 	 30.0292 	 -22.7196
|  8> C 	 -111.257 	 30.7254 	 -24.1902
|  9> C 	 -112.072 	 31.8221 	 -24.003
| 10> C 	 -112.464 	 31.9411 	 -22.6529
| 11> C 	 -111.877 	 31.0477 	 -21.7869
| 12> H 	 -113.078 	 32.7192 	 -22.1861
| 13> C 	 -112.683 	 32.5762 	 -25.0459
| 14> H 	 -113.467 	 33.2513 	 -24.611
| 15> H 	 -113.187 	 31.9333 	 -25.7403
| 16> C 	 -111.7 	 33.5479 	 -25.8167
| 17> H 	 -111.27 	 34.344 	 -25.1243
| 18> H 	 -110.789 	 33.0174 	 -26.0756
| 19> C 	 -112.316 	 34.1193 	 -27.0711
| 20> H 	 -112.589 	 33.3774 	 -27.7493
| 21> H 	 -113.218 	 34.7017 	 -26.8919
| 22> H 	 -111.616 	 34.7848 	 -27.6271
| 23> S 	 -110.682 	 31.0909 	 -19.3085
| 24> C 	 -111.586 	 30.6794 	 -17.9613
| 25> C 	 -112.876 	 30.2479 	 -18.3124
| 26> C 	 -113.221 	 30.4792 	 -19.662
| 27> C 	 -112.095 	 30.9073 	 -20.382
| 28> H 	 -113.58 	 29.8319 	 -17.5461
| 29> C 	 -114.579 	 30.0829 	 -20.3404
| 30> H 	 -114.565 	 29.0094 	 -20.4684
| 31> H 	 -114.499 	 30.4183 	 -21.3453
| 32> C 	 -115.798 	 30.6288 	 -19.696
| 33> H 	 -115.711 	 31.6394 	 -19.3371
| 34> H 	 -115.911 	 30.1022 	 -18.8077
| 35> C 	 -117.028 	 30.4287 	 -20.6058
| 36> H 	 -117.036 	 29.425 	 -21.0741
| 37> H 	 -116.993 	 31.1748 	 -21.37
| 38> H 	 -118.038 	 30.6583 	 -20.0123
| 39> H 	 -111.069 	 30.3524 	 -25.1492
| 40> H 	 -111.184 	 30.6678 	 -16.941
| 41> *
| 42>
| 43>                          ****END OF INPUT****

CARTESIAN COORDINATES (ANGSTROEM)
---------------------------------
  S    -110.745000   30.029200  -22.719600
  C    -111.257000   30.725400  -24.190200
  C    -112.072000   31.822100  -24.003000
  C    -112.464000   31.941100  -22.652900
  C    -111.877000   31.047700  -21.786900
  H    -113.078000   32.719200  -22.186100
  C    -112.683000   32.576200  -25.045900
  H    -113.467000   33.251300  -24.611000
  H    -113.187000   31.933300  -25.740300
  C    -111.700000   33.547900  -25.816700
  H    -111.270000   34.344000  -25.124300
  H    -110.789000   33.017400  -26.075600
  C    -112.316000   34.119300  -27.071100
  H    -112.589000   33.377400  -27.749300
  H    -113.218000   34.701700  -26.891900
  H    -111.616000   34.784800  -27.627100
  S    -110.682000   31.090900  -19.308500
  C    -111.586000   30.679400  -17.961300
  C    -112.876000   30.247900  -18.312400
  C    -113.221000   30.479200  -19.662000
  C    -112.095000   30.907300  -20.382000
  H    -113.580000   29.831900  -17.546100
  C    -114.579000   30.082900  -20.340400
  H    -114.565000   29.009400  -20.468400
  H    -114.499000   30.418300  -21.345300
  C    -115.798000   30.628800  -19.696000
  H    -115.711000   31.639400  -19.337100
  H    -115.911000   30.102200  -18.807700
  C    -117.028000   30.428700  -20.605800
  H    -117.036000   29.425000  -21.074100
  H    -116.993000   31.174800  -21.370000
  H    -118.038000   30.658300  -20.012300
  H    -111.069000   30.352400  -25.149200
  H    -111.184000   30.667800  -16.941000

 Total Charge           Charge          ....    0
 Multiplicity           Mult            ....    1
 Number of Electrons    NEL             ....  134
 Basis Dimension        Dim             ....  322

ORBITAL ENERGIES
----------------

  NO   OCC          E(Eh)            E(eV)
   0   2.0000     -88.966083     -2420.8902
   1   2.0000     -88.964144     -2420.8374
   2   2.0000     -10.324140      -280.9341
   3   2.0000     -10.323876      -280.9270
   4   2.0000     -10.315880      -280.7094
   5   2.0000     -10.306294      -280.4485
   6   2.0000     -10.305481      -280.4264
   7   2.0000     -10.295883      -280.1652
   8   2.0000     -10.290280      -280.0128
   9   2.0000     -10.290203      -280.0107
  10   2.0000     -10.289873      -280.0017
  11   2.0000     -10.288679      -279.9692
  12   2.0000     -10.287955      -279.9495
  13   2.0000     -10.286912      -279.9211
  14   2.0000     -10.276547      -279.6391
  15   2.0000     -10.274147      -279.5738
  16   2.0000      -8.081747      -219.9155
  17   2.0000      -8.079154      -219.8450
  18   2.0000      -6.039986      -164.3564
  19   2.0000      -6.037568      -164.2906
  20   2.0000      -6.036067      -164.2497
  21   2.0000      -6.033588      -164.1823
  22   2.0000      -6.032788      -164.1605
  23   2.0000      -6.030025      -164.0853
  24   2.0000      -1.008908       -27.4538
  25   2.0000      -0.989098       -26.9147
  26   2.0000      -0.915536       -24.9130
  27   2.0000      -0.913839       -24.8668
  28   2.0000      -0.871496       -23.7146
  29   2.0000      -0.855810       -23.2878
  30   2.0000      -0.849697       -23.1214
  31   2.0000      -0.811119       -22.0717
  32   2.0000      -0.781908       -21.2768
  33   2.0000      -0.766909       -20.8687
  34   2.0000      -0.708875       -19.2895
  35   2.0000      -0.705597       -19.2003
  36   2.0000      -0.700420       -19.0594
  37   2.0000      -0.653669       -17.7873
  38   2.0000      -0.644231       -17.5304
  39   2.0000      -0.617953       -16.8154
  40   2.0000      -0.598251       -16.2792
  41   2.0000      -0.570759       -15.5311
  42   2.0000      -0.568102       -15.4588
  43   2.0000      -0.552431       -15.0324
  44   2.0000      -0.530732       -14.4419
  45   2.0000      -0.523883       -14.2556
  46   2.0000      -0.517986       -14.0951
  47   2.0000      -0.508332       -13.8324
  48   2.0000      -0.506451       -13.7812
  49   2.0000      -0.503027       -13.6881
  50   2.0000      -0.495668       -13.4878
  51   2.0000      -0.477770       -13.0008
  52   2.0000      -0.475378       -12.9357
  53   2.0000      -0.462441       -12.5837
  54   2.0000      -0.459187       -12.4951
  55   2.0000      -0.450093       -12.2477
  56   2.0000      -0.448700       -12.2098
  57   2.0000      -0.442541       -12.0422
  58   2.0000      -0.433348       -11.7920
  59   2.0000      -0.426126       -11.5955
  60   2.0000      -0.422549       -11.4982
  61   2.0000      -0.412420       -11.2225
  62   2.0000      -0.409808       -11.1515
  63   2.0000      -0.344090        -9.3632
  64   2.0000      -0.335387        -9.1264
  65   2.0000      -0.325060        -8.8453
  66   2.0000      -0.287323        -7.8184
  67   0.0000       0.036525         0.9939
  68   0.0000       0.054707         1.4886
  69   0.0000       0.121500         3.3062
  70   0.0000       0.123771         3.3680
  71   0.0000       0.130104         3.5403

MULLIKEN ATOMIC CHARGES
-----------------------
   0 S :    0.121337
   1 C :   -0.092361
   2 C :   -0.050287
   3 C :    0.029306
   4 C :   -0.174237
   5 H :    0.018755
   6 C :    0.042062
   7 H :    0.026427
   8 H :    0.027475
   9 C :   -0.100349
  10 H :    0.036550
  11 H :    0.021305
  12 C :   -0.017052
  13 H :    0.013642
  14 H :    0.025709
  15 H :    0.035520
  16 S :    0.125251
  17 C :   -0.097101
  18 C :   -0.070996
  19 C :   -0.025359
  20 C :   -0.203469
  21 H :    0.033650
  22 C :    0.106951
  23 H :    0.035986
  24 H :   -0.000909
  25 C :   -0.037358
  26 H :    0.025524
  27 H :    0.008094
  28 C :   -0.076708
  29 H :    0.043728
  30 H :    0.030554
  31 H :    0.048070
  32 H :    0.022720
  33 H :    0.067569
Sum of atomic charges:   -0.0000000

LOEWDIN ATOMIC CHARGES
----------------------
   0 S :    0.409384
   1 C :   -0.194020
   2 C :   -0.074885
   3 C :   -0.059142
   4 C :   -0.192742
   5 H :    0.036063
   6 C :   -0.035144
   7 H :    0.035956
   8 H :    0.029930
   9 C :   -0.041806
  10 H :    0.031661
  11 H :    0.018698
  12 C :   -0.066249
  13 H :    0.015794
  14 H :    0.024346
  15 H :    0.032223
  16 S :    0.432471
  17 C :   -0.212541
  18 C :   -0.086196
  19 C :   -0.044618
  20 C :   -0.202283
  21 H :    0.036085
  22 C :   -0.021735
  23 H :    0.035462
  24 H :    0.022350
  25 C :   -0.042708
  26 H :    0.026636
  27 H :    0.014026
  28 C :   -0.066008
  29 H :    0.028933
  30 H :    0.018826
  31 H :    0.039219
  32 H :    0.017704
  33 H :    0.034307

  Mayer bond orders larger than 0.100000
B(  0-S ,  1-C ) :   1.1562 B(  0-S ,  4-C ) :   1.1354 B(  1-C ,  2-C ) :   1.5732
B(  1-C , 32-H ) :   0.9743 B(  2-C ,  3-C ) :   1.2512 B(  2-C ,  6-C ) :   1.0454
B(  3-C ,  4-C ) :   1.5781 B(  3-C ,  5-H ) :   0.9907 B(  4-C , 20-C ) :   1.0608
B(  6-C ,  7-H ) :   0.9403 B(  6-C ,  8-H ) :   0.9409 B(  6-C ,  9-C ) :   1.0412
B(  9-C , 10-H ) :   0.9543 B(  9-C , 11-H ) :   0.9614 B(  9-C , 12-C ) :   1.0833
B( 12-C , 13-H ) :   0.9721 B( 12-C , 14-H ) :   0.9725 B( 12-C , 15-H ) :   0.9716
B( 16-S , 17-C ) :   1.1907 B( 16-S , 20-C ) :   1.1554 B( 17-C , 18-C ) :   1.5586
B( 17-C , 20-C ) :   0.1106 B( 17-C , 33-H ) :   0.9667 B( 18-C , 19-C ) :   1.2804
B( 18-C , 21-H ) :   0.9828 B( 19-C , 20-C ) :   1.5567 B( 19-C , 22-C ) :   1.0265
B( 22-C , 23-H ) :   0.9279 B( 22-C , 24-H ) :   0.9311 B( 22-C , 25-C ) :   1.0568
B( 25-C , 26-H ) :   0.9581 B( 25-C , 27-H ) :   0.9491 B( 25-C , 28-C ) :   1.0791
B( 28-C , 29-H ) :   0.9717 B( 28-C , 30-H ) :   0.9776 B( 28-C , 31-H ) :   0.9739

Dispersion correction           -0.013598792
FINAL SINGLE POINT ENERGY     -1339.872413921749

DIPOLE MOMENT
-------------
                                X             Y             Z
Electronic contribution:     21.83622      -9.30228      15.00261
Nuclear contribution   :    -22.35891       9.36781     -15.18249
                        -----------------------------------------
Total Dipole Moment    :     -0.52269       0.06552      -0.17987
                        -----------------------------------------
Magnitude (a.u.)       :      0.55665
Magnitude (Debye)      :      1.41489

Rotational constants in cm-1:     0.018331     0.007873     0.006153
Rotational constants in MHz :   549.555659   236.017495   184.472431

                             ****ORCA TERMINATED NORMALLY****
TOTAL RUN TIME: 0 days 0 hours 0 minutes 21 seconds 124 msec
