                         Program Version 4.2.1 -  RELEASE  -
|  1> ! wB97X-D3 SP def2-SVP
|  2> %pal
|  3> nprocs 24
|  4> end
|  5>
|  6> * xyz 0 1
|  7> S 	 26.0611 	 -9.55809 	 -114.115
|  8> C 	 27.7337 	 -9.22912 	 -114.634
|  9> C 	 28.4468 	 -8.85309 	 -113.539
| 10> C 	 27.673 	 -8.56378 	 -112.372
| 11> C 	 26.2933 	 -8.75648 	 -112.519
| 12> H 	 28.0976 	 -8.23491 	 -111.484
| 13> C 	 29.9328 	 -8.6224 	 -113.467
| 14> H 	 30.1618 	 -7.54586 	 -113.39
| 15> H 	 30.2117 	 -9.0548 	 -114.461
| 16> C 	 30.6588 	 -9.40271 	 -112.365
| 17> H 	 31.6916 	 -9.09931 	 -112.339
| 18> H 	 30.2299 	 -9.0238 	 -111.436
| 19> C 	 30.5091 	 -10.9157 	 -112.506
| 20> H 	 31.1211 	 -11.325 	 -111.743
| 21> H 	 29.5184 	 -11.2081 	 -112.13
| 22> H 	 30.6963 	 -11.3242 	 -113.481
| 23> S 	 24.1313 	 -10.0605 	 -111.656
| 24> C 	 23.1631 	 -9.44555 	 -110.357
| 25> C 	 23.6839 	 -8.29025 	 -109.84
| 26> C 	 24.9523 	 -7.9217 	 -110.418
| 27> C 	 25.2423 	 -8.74143 	 -111.546
| 28> H 	 23.0887 	 -7.83885 	 -109.093
| 29> C 	 25.609 	 -6.59524 	 -110.158
| 30> H 	 24.7317 	 -5.90107 	 -110.111
| 31> H 	 26.1935 	 -6.35205 	 -111.03
| 32> C 	 26.5198 	 -6.52774 	 -108.988
| 33> H 	 27.1836 	 -7.39058 	 -108.982
| 34> H 	 26.0325 	 -6.5175 	 -108.035
| 35> C 	 27.363 	 -5.26282 	 -109.157
| 36> H 	 27.8596 	 -4.88926 	 -108.297
| 37> H 	 26.7392 	 -4.42642 	 -109.459
| 38> H 	 28.0492 	 -5.41971 	 -109.936
| 39> H 	 28.2922 	 -9.51732 	 -115.558
| 40> H 	 22.1222 	 -9.86903 	 -110.191
| 41> *
| 42>
| 43>                          ****END OF INPUT****

CARTESIAN COORDINATES (ANGSTROEM)
---------------------------------
  S     26.061100   -9.558090  -114.115000
  C     27.733700   -9.229120  -114.634000
  C     28.446800   -8.853090  -113.539000
  C     27.673000   -8.563780  -112.372000
  C     26.293300   -8.756480  -112.519000
  H     28.097600   -8.234910  -111.484000
  C     29.932800   -8.622400  -113.467000
  H     30.161800   -7.545860  -113.390000
  H     30.211700   -9.054800  -114.461000
  C     30.658800   -9.402710  -112.365000
  H     31.691600   -9.099310  -112.339000
  H     30.229900   -9.023800  -111.436000
  C     30.509100  -10.915700  -112.506000
  H     31.121100  -11.325000  -111.743000
  H     29.518400  -11.208100  -112.130000
  H     30.696300  -11.324200  -113.481000
  S     24.131300  -10.060500  -111.656000
  C     23.163100   -9.445550  -110.357000
  C     23.683900   -8.290250  -109.840000
  C     24.952300   -7.921700  -110.418000
  C     25.242300   -8.741430  -111.546000
  H     23.088700   -7.838850  -109.093000
  C     25.609000   -6.595240  -110.158000
  H     24.731700   -5.901070  -110.111000
  H     26.193500   -6.352050  -111.030000
  C     26.519800   -6.527740  -108.988000
  H     27.183600   -7.390580  -108.982000
  H     26.032500   -6.517500  -108.035000
  C     27.363000   -5.262820  -109.157000
  H     27.859600   -4.889260  -108.297000
  H     26.739200   -4.426420  -109.459000
  H     28.049200   -5.419710  -109.936000
  H     28.292200   -9.517320  -115.558000
  H     22.122200   -9.869030  -110.191000

 Total Charge           Charge          ....    0
 Multiplicity           Mult            ....    1
 Number of Electrons    NEL             ....  134
 Basis Dimension        Dim             ....  322

ORBITAL ENERGIES
----------------

  NO   OCC          E(Eh)            E(eV)
   0   2.0000     -88.965393     -2420.8714
   1   2.0000     -88.963428     -2420.8179
   2   2.0000     -10.337347      -281.2935
   3   2.0000     -10.329136      -281.0701
   4   2.0000     -10.318567      -280.7825
   5   2.0000     -10.318198      -280.7724
   6   2.0000     -10.308090      -280.4974
   7   2.0000     -10.295727      -280.1610
   8   2.0000     -10.293831      -280.1094
   9   2.0000     -10.292356      -280.0693
  10   2.0000     -10.291704      -280.0515
  11   2.0000     -10.289082      -279.9801
  12   2.0000     -10.286460      -279.9088
  13   2.0000     -10.281538      -279.7749
  14   2.0000     -10.272845      -279.5383
  15   2.0000     -10.269090      -279.4361
  16   2.0000      -8.079199      -219.8462
  17   2.0000      -8.078810      -219.8356
  18   2.0000      -6.037705      -164.2943
  19   2.0000      -6.037605      -164.2916
  20   2.0000      -6.033605      -164.1827
  21   2.0000      -6.033476      -164.1792
  22   2.0000      -6.030081      -164.0868
  23   2.0000      -6.029099      -164.0601
  24   2.0000      -1.008365       -27.4390
  25   2.0000      -0.983028       -26.7496
  26   2.0000      -0.922030       -25.0897
  27   2.0000      -0.914457       -24.8836
  28   2.0000      -0.875197       -23.8153
  29   2.0000      -0.855094       -23.2683
  30   2.0000      -0.841092       -22.8873
  31   2.0000      -0.818427       -22.2705
  32   2.0000      -0.782358       -21.2891
  33   2.0000      -0.772463       -21.0198
  34   2.0000      -0.717702       -19.5297
  35   2.0000      -0.702248       -19.1091
  36   2.0000      -0.694878       -18.9086
  37   2.0000      -0.660567       -17.9749
  38   2.0000      -0.631266       -17.1776
  39   2.0000      -0.627710       -17.0809
  40   2.0000      -0.598921       -16.2975
  41   2.0000      -0.576572       -15.6893
  42   2.0000      -0.564128       -15.3507
  43   2.0000      -0.558079       -15.1861
  44   2.0000      -0.541256       -14.7283
  45   2.0000      -0.525246       -14.2927
  46   2.0000      -0.523894       -14.2559
  47   2.0000      -0.516670       -14.0593
  48   2.0000      -0.505663       -13.7598
  49   2.0000      -0.504291       -13.7225
  50   2.0000      -0.491145       -13.3647
  51   2.0000      -0.484245       -13.1770
  52   2.0000      -0.471572       -12.8321
  53   2.0000      -0.465224       -12.6594
  54   2.0000      -0.454054       -12.3554
  55   2.0000      -0.449414       -12.2292
  56   2.0000      -0.443587       -12.0706
  57   2.0000      -0.438206       -11.9242
  58   2.0000      -0.435625       -11.8540
  59   2.0000      -0.428912       -11.6713
  60   2.0000      -0.424091       -11.5401
  61   2.0000      -0.413733       -11.2583
  62   2.0000      -0.406671       -11.0661
  63   2.0000      -0.359441        -9.7809
  64   2.0000      -0.332115        -9.0373
  65   2.0000      -0.325504        -8.8574
  66   2.0000      -0.285604        -7.7717
  67   0.0000       0.015808         0.4302
  68   0.0000       0.073920         2.0115
  69   0.0000       0.108494         2.9523
  70   0.0000       0.117287         3.1915
  71   0.0000       0.125695         3.4203

MULLIKEN ATOMIC CHARGES
-----------------------
   0 S :    0.078438
   1 C :   -0.112253
   2 C :   -0.114440
   3 C :    0.046793
   4 C :   -0.106786
   5 H :   -0.025880
   6 C :    0.052794
   7 H :    0.049290
   8 H :    0.004561
   9 C :   -0.078538
  10 H :    0.027353
  11 H :    0.018709
  12 C :   -0.012279
  13 H :    0.020754
  14 H :    0.035860
  15 H :    0.037121
  16 S :    0.097515
  17 C :   -0.121532
  18 C :   -0.020644
  19 C :   -0.015660
  20 C :   -0.150656
  21 H :    0.008484
  22 C :    0.019837
  23 H :    0.042118
  24 H :    0.018411
  25 C :   -0.037700
  26 H :    0.026914
  27 H :    0.022027
  28 C :   -0.018049
  29 H :    0.022152
  30 H :    0.019149
  31 H :    0.018394
  32 H :    0.063632
  33 H :    0.084111
Sum of atomic charges:    0.0000000

LOEWDIN ATOMIC CHARGES
----------------------
   0 S :    0.366854
   1 C :   -0.197343
   2 C :   -0.071037
   3 C :   -0.056069
   4 C :   -0.168432
   5 H :    0.014045
   6 C :   -0.034098
   7 H :    0.034872
   8 H :    0.026020
   9 C :   -0.038540
  10 H :    0.021870
  11 H :    0.021338
  12 C :   -0.058916
  13 H :    0.024605
  14 H :    0.033136
  15 H :    0.023901
  16 S :    0.417998
  17 C :   -0.200947
  18 C :   -0.068400
  19 C :   -0.054127
  20 C :   -0.202501
  21 H :    0.028226
  22 C :   -0.033868
  23 H :    0.040319
  24 H :    0.028872
  25 C :   -0.035833
  26 H :    0.023544
  27 H :    0.020716
  28 C :   -0.056597
  29 H :    0.019699
  30 H :    0.025768
  31 H :    0.017545
  32 H :    0.044281
  33 H :    0.043099

  Mayer bond orders larger than 0.100000
B(  0-S ,  1-C ) :   1.1072 B(  0-S ,  4-C ) :   1.1270 B(  1-C ,  2-C ) :   1.6469
B(  1-C , 32-H ) :   0.9522 B(  2-C ,  3-C ) :   1.2280 B(  2-C ,  6-C ) :   1.0102
B(  3-C ,  4-C ) :   1.5469 B(  3-C ,  5-H ) :   1.0037 B(  4-C , 20-C ) :   1.0996
B(  6-C ,  7-H ) :   0.9454 B(  6-C ,  8-H ) :   0.9390 B(  6-C ,  9-C ) :   1.0762
B(  9-C , 10-H ) :   0.9571 B(  9-C , 11-H ) :   0.9512 B(  9-C , 12-C ) :   1.0766
B( 12-C , 13-H ) :   0.9696 B( 12-C , 14-H ) :   0.9676 B( 12-C , 15-H ) :   0.9788
B( 16-S , 17-C ) :   1.1536 B( 16-S , 20-C ) :   1.1567 B( 17-C , 18-C ) :   1.6175
B( 17-C , 33-H ) :   0.9570 B( 18-C , 19-C ) :   1.2241 B( 18-C , 21-H ) :   0.9996
B( 19-C , 20-C ) :   1.5387 B( 19-C , 22-C ) :   1.0472 B( 22-C , 23-H ) :   0.9333
B( 22-C , 24-H ) :   0.9455 B( 22-C , 25-C ) :   1.0582 B( 25-C , 26-H ) :   0.9566
B( 25-C , 27-H ) :   0.9513 B( 25-C , 28-C ) :   1.0825 B( 28-C , 29-H ) :   0.9735
B( 28-C , 30-H ) :   0.9691 B( 28-C , 31-H ) :   0.9757

Dispersion correction           -0.014402318
FINAL SINGLE POINT ENERGY     -1339.867457262296

DIPOLE MOMENT
-------------
                                X             Y             Z
Electronic contribution:    -22.04754     -10.92049     -11.38106
Nuclear contribution   :     22.43593      11.22435      11.83642
                        -----------------------------------------
Total Dipole Moment    :      0.38839       0.30386       0.45536
                        -----------------------------------------
Magnitude (a.u.)       :      0.67121
Magnitude (Debye)      :      1.70609

Rotational constants in cm-1:     0.016855     0.009901     0.007201
Rotational constants in MHz :   505.297432   296.827769   215.869437

                             ****ORCA TERMINATED NORMALLY****
TOTAL RUN TIME: 0 days 0 hours 0 minutes 22 seconds 128 msec
