                         Program Version 4.2.1 -  RELEASE  -
|  1> ! wB97X-D3 SP def2-SVP
|  2> %pal
|  3> nprocs 24
|  4> end
|  5>
|  6> * xyz 0 1
|  7> S 	 -108.499 	 40.7392 	 -9.30505
|  8> C 	 -109.134 	 42.0168 	 -10.3495
|  9> C 	 -108.746 	 41.7794 	 -11.6545
| 10> C 	 -108.148 	 40.5419 	 -11.8328
| 11> C 	 -108.015 	 39.7966 	 -10.6418
| 12> H 	 -107.767 	 40.0931 	 -12.7042
| 13> C 	 -108.986 	 42.7507 	 -12.8022
| 14> H 	 -109.658 	 43.4922 	 -12.4373
| 15> H 	 -109.524 	 42.2155 	 -13.5045
| 16> C 	 -107.795 	 43.4952 	 -13.477
| 17> H 	 -107.453 	 44.2534 	 -12.8118
| 18> H 	 -107.024 	 42.7461 	 -13.7151
| 19> C 	 -108.198 	 44.1855 	 -14.8214
| 20> H 	 -107.286 	 44.5117 	 -15.2339
| 21> H 	 -108.409 	 43.383 	 -15.55
| 22> H 	 -109.116 	 44.8135 	 -14.7926
| 23> S 	 -105.936 	 38.3831 	 -9.39286
| 24> C 	 -105.999 	 36.6047 	 -9.54205
| 25> C 	 -106.817 	 36.1896 	 -10.5851
| 26> C 	 -107.562 	 37.2821 	 -11.1813
| 27> C 	 -107.325 	 38.5189 	 -10.5603
| 28> H 	 -106.957 	 35.1024 	 -10.756
| 29> C 	 -108.701 	 36.9766 	 -12.1214
| 30> H 	 -108.395 	 36.376 	 -12.9358
| 31> H 	 -108.949 	 37.8304 	 -12.6286
| 32> C 	 -109.943 	 36.3179 	 -11.4735
| 33> H 	 -110.226 	 36.8404 	 -10.5702
| 34> H 	 -109.712 	 35.2049 	 -11.2989
| 35> C 	 -111.076 	 36.1533 	 -12.5512
| 36> H 	 -110.681 	 35.9432 	 -13.5813
| 37> H 	 -111.607 	 37.119 	 -12.6938
| 38> H 	 -111.799 	 35.3119 	 -12.3119
| 39> H 	 -109.65 	 42.853 	 -10.0316
| 40> H 	 -105.486 	 36.0233 	 -8.74665
| 41> *
| 42>
| 43>                          ****END OF INPUT****

CARTESIAN COORDINATES (ANGSTROEM)
---------------------------------
  S    -108.499000   40.739200   -9.305050
  C    -109.134000   42.016800  -10.349500
  C    -108.746000   41.779400  -11.654500
  C    -108.148000   40.541900  -11.832800
  C    -108.015000   39.796600  -10.641800
  H    -107.767000   40.093100  -12.704200
  C    -108.986000   42.750700  -12.802200
  H    -109.658000   43.492200  -12.437300
  H    -109.524000   42.215500  -13.504500
  C    -107.795000   43.495200  -13.477000
  H    -107.453000   44.253400  -12.811800
  H    -107.024000   42.746100  -13.715100
  C    -108.198000   44.185500  -14.821400
  H    -107.286000   44.511700  -15.233900
  H    -108.409000   43.383000  -15.550000
  H    -109.116000   44.813500  -14.792600
  S    -105.936000   38.383100   -9.392860
  C    -105.999000   36.604700   -9.542050
  C    -106.817000   36.189600  -10.585100
  C    -107.562000   37.282100  -11.181300
  C    -107.325000   38.518900  -10.560300
  H    -106.957000   35.102400  -10.756000
  C    -108.701000   36.976600  -12.121400
  H    -108.395000   36.376000  -12.935800
  H    -108.949000   37.830400  -12.628600
  C    -109.943000   36.317900  -11.473500
  H    -110.226000   36.840400  -10.570200
  H    -109.712000   35.204900  -11.298900
  C    -111.076000   36.153300  -12.551200
  H    -110.681000   35.943200  -13.581300
  H    -111.607000   37.119000  -12.693800
  H    -111.799000   35.311900  -12.311900
  H    -109.650000   42.853000  -10.031600
  H    -105.486000   36.023300   -8.746650

 Total Charge           Charge          ....    0
 Multiplicity           Mult            ....    1
 Number of Electrons    NEL             ....  134
 Basis Dimension        Dim             ....  322

ORBITAL ENERGIES
----------------

  NO   OCC          E(Eh)            E(eV)
   0   2.0000     -88.969970     -2420.9960
   1   2.0000     -88.961097     -2420.7545
   2   2.0000     -10.333046      -281.1765
   3   2.0000     -10.327550      -281.0269
   4   2.0000     -10.323919      -280.9281
   5   2.0000     -10.310977      -280.5760
   6   2.0000     -10.308465      -280.5076
   7   2.0000     -10.301632      -280.3216
   8   2.0000     -10.298689      -280.2416
   9   2.0000     -10.294769      -280.1349
  10   2.0000     -10.289992      -280.0049
  11   2.0000     -10.289109      -279.9809
  12   2.0000     -10.287719      -279.9431
  13   2.0000     -10.282805      -279.8093
  14   2.0000     -10.281800      -279.7820
  15   2.0000     -10.280525      -279.7473
  16   2.0000      -8.084789      -219.9983
  17   2.0000      -8.074772      -219.7257
  18   2.0000      -6.043156      -164.4426
  19   2.0000      -6.039201      -164.3350
  20   2.0000      -6.035764      -164.2415
  21   2.0000      -6.033344      -164.1756
  22   2.0000      -6.029600      -164.0737
  23   2.0000      -6.025367      -163.9586
  24   2.0000      -1.006259       -27.3817
  25   2.0000      -0.975972       -26.5575
  26   2.0000      -0.910161       -24.7668
  27   2.0000      -0.904512       -24.6130
  28   2.0000      -0.868104       -23.6223
  29   2.0000      -0.851642       -23.1744
  30   2.0000      -0.840387       -22.8681
  31   2.0000      -0.811415       -22.0797
  32   2.0000      -0.784156       -21.3380
  33   2.0000      -0.770288       -20.9606
  34   2.0000      -0.706418       -19.2226
  35   2.0000      -0.701004       -19.0753
  36   2.0000      -0.696345       -18.9485
  37   2.0000      -0.657142       -17.8817
  38   2.0000      -0.647144       -17.6097
  39   2.0000      -0.619708       -16.8631
  40   2.0000      -0.596725       -16.2377
  41   2.0000      -0.568212       -15.4618
  42   2.0000      -0.566835       -15.4244
  43   2.0000      -0.561384       -15.2760
  44   2.0000      -0.534943       -14.5565
  45   2.0000      -0.521362       -14.1870
  46   2.0000      -0.517643       -14.0858
  47   2.0000      -0.506477       -13.7819
  48   2.0000      -0.505046       -13.7430
  49   2.0000      -0.498036       -13.5523
  50   2.0000      -0.495237       -13.4761
  51   2.0000      -0.475094       -12.9280
  52   2.0000      -0.467521       -12.7219
  53   2.0000      -0.465675       -12.6717
  54   2.0000      -0.452476       -12.3125
  55   2.0000      -0.448992       -12.2177
  56   2.0000      -0.447951       -12.1894
  57   2.0000      -0.434846       -11.8328
  58   2.0000      -0.431322       -11.7369
  59   2.0000      -0.428373       -11.6566
  60   2.0000      -0.422056       -11.4847
  61   2.0000      -0.418038       -11.3754
  62   2.0000      -0.408518       -11.1163
  63   2.0000      -0.340056        -9.2534
  64   2.0000      -0.335625        -9.1328
  65   2.0000      -0.328432        -8.9371
  66   2.0000      -0.289060        -7.8657
  67   0.0000       0.022341         0.6079
  68   0.0000       0.066759         1.8166
  69   0.0000       0.105119         2.8604
  70   0.0000       0.122483         3.3329
  71   0.0000       0.130164         3.5420

MULLIKEN ATOMIC CHARGES
-----------------------
   0 S :    0.126054
   1 C :   -0.101291
   2 C :   -0.062148
   3 C :    0.038228
   4 C :   -0.160797
   5 H :   -0.004534
   6 C :    0.110752
   7 H :   -0.003461
   8 H :    0.004286
   9 C :   -0.075441
  10 H :    0.032908
  11 H :    0.033563
  12 C :   -0.041009
  13 H :    0.026159
  14 H :    0.016285
  15 H :    0.052261
  16 S :    0.075393
  17 C :   -0.126725
  18 C :   -0.028527
  19 C :   -0.037181
  20 C :   -0.161222
  21 H :    0.042044
  22 C :    0.130599
  23 H :    0.004688
  24 H :   -0.022952
  25 C :   -0.079240
  26 H :    0.049536
  27 H :    0.037892
  28 C :   -0.096348
  29 H :    0.030199
  30 H :    0.041151
  31 H :    0.051542
  32 H :    0.016776
  33 H :    0.080556
Sum of atomic charges:   -0.0000000

LOEWDIN ATOMIC CHARGES
----------------------
   0 S :    0.431847
   1 C :   -0.182803
   2 C :   -0.059134
   3 C :   -0.057148
   4 C :   -0.212812
   5 H :    0.022653
   6 C :   -0.025967
   7 H :    0.023784
   8 H :    0.019385
   9 C :   -0.028768
  10 H :    0.020257
  11 H :    0.026841
  12 C :   -0.068902
  13 H :    0.024096
  14 H :    0.026345
  15 H :    0.032194
  16 S :    0.346485
  17 C :   -0.172631
  18 C :   -0.071775
  19 C :   -0.051360
  20 C :   -0.173638
  21 H :    0.040843
  22 C :   -0.030865
  23 H :    0.027954
  24 H :    0.014054
  25 C :   -0.033481
  26 H :    0.026961
  27 H :    0.031925
  28 C :   -0.079653
  29 H :    0.026886
  30 H :    0.025846
  31 H :    0.032352
  32 H :    0.013268
  33 H :    0.034958

  Mayer bond orders larger than 0.100000
B(  0-S ,  1-C ) :   1.1442 B(  0-S ,  4-C ) :   1.1797 B(  1-C ,  2-C ) :   1.5638
B(  1-C ,  4-C ) :   0.1066 B(  1-C , 32-H ) :   0.9818 B(  2-C ,  3-C ) :   1.2778
B(  2-C ,  6-C ) :   1.0199 B(  3-C ,  4-C ) :   1.5087 B(  3-C ,  5-H ) :   1.0041
B(  4-C , 20-C ) :   1.0641 B(  6-C ,  7-H ) :   0.9321 B(  6-C ,  8-H ) :   0.9390
B(  6-C ,  9-C ) :   1.0629 B(  9-C , 10-H ) :   0.9588 B(  9-C , 11-H ) :   0.9581
B(  9-C , 12-C ) :   1.0819 B( 12-C , 13-H ) :   0.9708 B( 12-C , 14-H ) :   0.9711
B( 12-C , 15-H ) :   0.9760 B( 16-S , 17-C ) :   1.1344 B( 16-S , 20-C ) :   1.1167
B( 17-C , 18-C ) :   1.6352 B( 17-C , 33-H ) :   0.9631 B( 18-C , 19-C ) :   1.1945
B( 18-C , 21-H ) :   0.9865 B( 19-C , 20-C ) :   1.6165 B( 19-C , 22-C ) :   1.0668
B( 22-C , 23-H ) :   0.9169 B( 22-C , 24-H ) :   0.9215 B( 22-C , 25-C ) :   1.0582
B( 25-C , 26-H ) :   0.9625 B( 25-C , 27-H ) :   0.9569 B( 25-C , 28-C ) :   1.0589
B( 28-C , 29-H ) :   0.9726 B( 28-C , 30-H ) :   0.9768 B( 28-C , 31-H ) :   0.9780

Dispersion correction           -0.013579318
FINAL SINGLE POINT ENERGY     -1339.855713934935

DIPOLE MOMENT
-------------
                                X             Y             Z
Electronic contribution:     13.17630      -2.80095      23.56674
Nuclear contribution   :    -13.49419       2.75807     -24.10284
                        -----------------------------------------
Total Dipole Moment    :     -0.31789      -0.04289      -0.53610
                        -----------------------------------------
Magnitude (a.u.)       :      0.62474
Magnitude (Debye)      :      1.58796

Rotational constants in cm-1:     0.017498     0.007853     0.006581
Rotational constants in MHz :   524.565534   235.441262   197.290274

                             ****ORCA TERMINATED NORMALLY****
TOTAL RUN TIME: 0 days 0 hours 0 minutes 21 seconds 139 msec
