                         Program Version 4.2.1 -  RELEASE  -
|  1> ! wB97X-D3 SP def2-SVP
|  2> %pal
|  3> nprocs 24
|  4> end
|  5>
|  6> * xyz 0 1
|  7> S 	 -80.8643 	 -41.5861 	 -76.8948
|  8> C 	 -81.8276 	 -41.5658 	 -78.2952
|  9> C 	 -82.9675 	 -42.2814 	 -78.1343
| 10> C 	 -83.0397 	 -42.9636 	 -76.8566
| 11> C 	 -81.9588 	 -42.6923 	 -76.0951
| 12> H 	 -83.8017 	 -43.7166 	 -76.6269
| 13> C 	 -84.0544 	 -42.4339 	 -79.1419
| 14> H 	 -83.8402 	 -43.3495 	 -79.6061
| 15> H 	 -83.8867 	 -41.7013 	 -79.9838
| 16> C 	 -85.5323 	 -42.3751 	 -78.6137
| 17> H 	 -86.2136 	 -42.6046 	 -79.4615
| 18> H 	 -85.673 	 -43.1656 	 -77.8539
| 19> C 	 -85.9877 	 -40.9535 	 -78.1576
| 20> H 	 -85.3414 	 -40.6086 	 -77.2988
| 21> H 	 -85.9279 	 -40.1953 	 -78.9624
| 22> H 	 -87.0845 	 -40.9228 	 -77.7842
| 23> S 	 -81.7887 	 -42.0184 	 -73.5001
| 24> C 	 -81.3375 	 -43.1531 	 -72.2164
| 25> C 	 -81.0831 	 -44.3944 	 -72.7918
| 26> C 	 -81.246 	 -44.469 	 -74.2471
| 27> C 	 -81.6628 	 -43.199 	 -74.7753
| 28> H 	 -80.9031 	 -45.2167 	 -72.1421
| 29> C 	 -81.0038 	 -45.8148 	 -74.9746
| 30> H 	 -81.047 	 -45.5176 	 -76.0663
| 31> H 	 -81.8977 	 -46.4808 	 -74.6989
| 32> C 	 -79.6864 	 -46.6034 	 -74.6472
| 33> H 	 -79.6565 	 -47.467 	 -75.2291
| 34> H 	 -79.5994 	 -46.8602 	 -73.6137
| 35> C 	 -78.4174 	 -45.8565 	 -75.1825
| 36> H 	 -78.4836 	 -44.821 	 -75.0731
| 37> H 	 -78.3695 	 -45.9906 	 -76.3115
| 38> H 	 -77.4493 	 -46.2673 	 -74.7835
| 39> H 	 -81.5564 	 -41.1161 	 -79.251
| 40> H 	 -81.4041 	 -42.9993 	 -71.1466
| 41> *
| 42>
| 43>                          ****END OF INPUT****

CARTESIAN COORDINATES (ANGSTROEM)
---------------------------------
  S    -80.864300  -41.586100  -76.894800
  C    -81.827600  -41.565800  -78.295200
  C    -82.967500  -42.281400  -78.134300
  C    -83.039700  -42.963600  -76.856600
  C    -81.958800  -42.692300  -76.095100
  H    -83.801700  -43.716600  -76.626900
  C    -84.054400  -42.433900  -79.141900
  H    -83.840200  -43.349500  -79.606100
  H    -83.886700  -41.701300  -79.983800
  C    -85.532300  -42.375100  -78.613700
  H    -86.213600  -42.604600  -79.461500
  H    -85.673000  -43.165600  -77.853900
  C    -85.987700  -40.953500  -78.157600
  H    -85.341400  -40.608600  -77.298800
  H    -85.927900  -40.195300  -78.962400
  H    -87.084500  -40.922800  -77.784200
  S    -81.788700  -42.018400  -73.500100
  C    -81.337500  -43.153100  -72.216400
  C    -81.083100  -44.394400  -72.791800
  C    -81.246000  -44.469000  -74.247100
  C    -81.662800  -43.199000  -74.775300
  H    -80.903100  -45.216700  -72.142100
  C    -81.003800  -45.814800  -74.974600
  H    -81.047000  -45.517600  -76.066300
  H    -81.897700  -46.480800  -74.698900
  C    -79.686400  -46.603400  -74.647200
  H    -79.656500  -47.467000  -75.229100
  H    -79.599400  -46.860200  -73.613700
  C    -78.417400  -45.856500  -75.182500
  H    -78.483600  -44.821000  -75.073100
  H    -78.369500  -45.990600  -76.311500
  H    -77.449300  -46.267300  -74.783500
  H    -81.556400  -41.116100  -79.251000
  H    -81.404100  -42.999300  -71.146600

 Total Charge           Charge          ....    0
 Multiplicity           Mult            ....    1
 Number of Electrons    NEL             ....  134
 Basis Dimension        Dim             ....  322

ORBITAL ENERGIES
----------------

  NO   OCC          E(Eh)            E(eV)
   0   2.0000     -88.963222     -2420.8123
   1   2.0000     -88.963184     -2420.8113
   2   2.0000     -10.330670      -281.1118
   3   2.0000     -10.326007      -280.9849
   4   2.0000     -10.319157      -280.7985
   5   2.0000     -10.314534      -280.6727
   6   2.0000     -10.307580      -280.4835
   7   2.0000     -10.307425      -280.4793
   8   2.0000     -10.298624      -280.2398
   9   2.0000     -10.295273      -280.1486
  10   2.0000     -10.294443      -280.1260
  11   2.0000     -10.294151      -280.1181
  12   2.0000     -10.291744      -280.0526
  13   2.0000     -10.290119      -280.0084
  14   2.0000     -10.285528      -279.8834
  15   2.0000     -10.277111      -279.6544
  16   2.0000      -8.079204      -219.8463
  17   2.0000      -8.077653      -219.8041
  18   2.0000      -6.037689      -164.2939
  19   2.0000      -6.036335      -164.2570
  20   2.0000      -6.033569      -164.1818
  21   2.0000      -6.031932      -164.1372
  22   2.0000      -6.029861      -164.0809
  23   2.0000      -6.028501      -164.0439
  24   2.0000      -1.010777       -27.5047
  25   2.0000      -0.979636       -26.6573
  26   2.0000      -0.907774       -24.7018
  27   2.0000      -0.898471       -24.4486
  28   2.0000      -0.871859       -23.7245
  29   2.0000      -0.845101       -22.9964
  30   2.0000      -0.838691       -22.8219
  31   2.0000      -0.816842       -22.2274
  32   2.0000      -0.776937       -21.1415
  33   2.0000      -0.765035       -20.8177
  34   2.0000      -0.712353       -19.3841
  35   2.0000      -0.697724       -18.9860
  36   2.0000      -0.689742       -18.7688
  37   2.0000      -0.654002       -17.7963
  38   2.0000      -0.641249       -17.4493
  39   2.0000      -0.624684       -16.9985
  40   2.0000      -0.587121       -15.9764
  41   2.0000      -0.564035       -15.3482
  42   2.0000      -0.549830       -14.9616
  43   2.0000      -0.543107       -14.7787
  44   2.0000      -0.542293       -14.7565
  45   2.0000      -0.536669       -14.6035
  46   2.0000      -0.518368       -14.1055
  47   2.0000      -0.509390       -13.8612
  48   2.0000      -0.503359       -13.6971
  49   2.0000      -0.496293       -13.5048
  50   2.0000      -0.492684       -13.4066
  51   2.0000      -0.472811       -12.8658
  52   2.0000      -0.468473       -12.7478
  53   2.0000      -0.457897       -12.4600
  54   2.0000      -0.450515       -12.2591
  55   2.0000      -0.445141       -12.1129
  56   2.0000      -0.442005       -12.0276
  57   2.0000      -0.436699       -11.8832
  58   2.0000      -0.430703       -11.7200
  59   2.0000      -0.426030       -11.5929
  60   2.0000      -0.424457       -11.5501
  61   2.0000      -0.413510       -11.2522
  62   2.0000      -0.412135       -11.2148
  63   2.0000      -0.343025        -9.3342
  64   2.0000      -0.326223        -8.8770
  65   2.0000      -0.324573        -8.8321
  66   2.0000      -0.300807        -8.1854
  67   0.0000       0.044206         1.2029
  68   0.0000       0.058844         1.6012
  69   0.0000       0.119130         3.2417
  70   0.0000       0.123883         3.3710
  71   0.0000       0.129887         3.5344

MULLIKEN ATOMIC CHARGES
-----------------------
   0 S :    0.126849
   1 C :   -0.121790
   2 C :   -0.105032
   3 C :    0.039587
   4 C :   -0.164149
   5 H :    0.025918
   6 C :    0.074306
   7 H :    0.027414
   8 H :    0.017716
   9 C :   -0.083989
  10 H :    0.037441
  11 H :    0.039033
  12 C :   -0.098966
  13 H :    0.052309
  14 H :    0.038151
  15 H :    0.049449
  16 S :    0.103279
  17 C :   -0.092173
  18 C :   -0.041133
  19 C :   -0.014815
  20 C :   -0.188744
  21 H :    0.012896
  22 C :    0.001526
  23 H :    0.042163
  24 H :    0.058328
  25 C :   -0.022158
  26 H :    0.023417
  27 H :    0.031791
  28 C :   -0.082330
  29 H :    0.032236
  30 H :    0.028823
  31 H :    0.043721
  32 H :    0.046485
  33 H :    0.062444
Sum of atomic charges:    0.0000000

LOEWDIN ATOMIC CHARGES
----------------------
   0 S :    0.422725
   1 C :   -0.213605
   2 C :   -0.069402
   3 C :   -0.056667
   4 C :   -0.203350
   5 H :    0.037674
   6 C :   -0.035636
   7 H :    0.027943
   8 H :    0.033137
   9 C :   -0.043151
  10 H :    0.029930
  11 H :    0.024094
  12 C :   -0.079461
  13 H :    0.031123
  14 H :    0.025810
  15 H :    0.035659
  16 S :    0.406665
  17 C :   -0.185373
  18 C :   -0.070651
  19 C :   -0.056637
  20 C :   -0.208700
  21 H :    0.024100
  22 C :   -0.038765
  23 H :    0.037446
  24 H :    0.043113
  25 C :   -0.033644
  26 H :    0.021309
  27 H :    0.019197
  28 C :   -0.066366
  29 H :    0.014045
  30 H :    0.030520
  31 H :    0.030837
  32 H :    0.032772
  33 H :    0.033309

  Mayer bond orders larger than 0.100000
B(  0-S ,  1-C ) :   1.1313 B(  0-S ,  4-C ) :   1.1521 B(  1-C ,  2-C ) :   1.6477
B(  1-C , 32-H ) :   0.9636 B(  2-C ,  3-C ) :   1.2073 B(  2-C ,  6-C ) :   1.0185
B(  3-C ,  4-C ) :   1.6140 B(  3-C ,  5-H ) :   0.9948 B(  4-C , 20-C ) :   1.0096
B(  6-C ,  7-H ) :   0.9293 B(  6-C ,  8-H ) :   0.9422 B(  6-C ,  9-C ) :   1.0694
B(  9-C , 10-H ) :   0.9554 B(  9-C , 11-H ) :   0.9546 B(  9-C , 12-C ) :   1.0644
B( 12-C , 13-H ) :   0.9770 B( 12-C , 14-H ) :   0.9746 B( 12-C , 15-H ) :   0.9748
B( 16-S , 17-C ) :   1.1435 B( 16-S , 20-C ) :   1.1667 B( 17-C , 18-C ) :   1.6206
B( 17-C , 20-C ) :   0.1038 B( 17-C , 33-H ) :   0.9683 B( 18-C , 19-C ) :   1.2276
B( 18-C , 21-H ) :   0.9882 B( 19-C , 20-C ) :   1.5697 B( 19-C , 22-C ) :   1.0329
B( 22-C , 23-H ) :   0.9404 B( 22-C , 24-H ) :   0.9369 B( 22-C , 25-C ) :   1.0726
B( 25-C , 26-H ) :   0.9570 B( 25-C , 27-H ) :   0.9578 B( 25-C , 28-C ) :   1.0588
B( 28-C , 29-H ) :   0.9829 B( 28-C , 30-H ) :   0.9771 B( 28-C , 31-H ) :   0.9757

Dispersion correction           -0.014287196
FINAL SINGLE POINT ENERGY     -1339.877026855284

DIPOLE MOMENT
-------------
                                X             Y             Z
Electronic contribution:      6.53940      12.25894      10.00624
Nuclear contribution   :     -6.82487     -12.83469     -10.27110
                        -----------------------------------------
Total Dipole Moment    :     -0.28547      -0.57575      -0.26486
                        -----------------------------------------
Magnitude (a.u.)       :      0.69507
Magnitude (Debye)      :      1.76674

Rotational constants in cm-1:     0.020794     0.007808     0.007106
Rotational constants in MHz :   623.387502   234.069064   213.043718

                             ****ORCA TERMINATED NORMALLY****
TOTAL RUN TIME: 0 days 0 hours 0 minutes 21 seconds 310 msec
