                         Program Version 4.2.1 -  RELEASE  -
|  1> ! wB97X-D3 SP def2-SVP
|  2> %pal
|  3> nprocs 24
|  4> end
|  5>
|  6> * xyz 0 1
|  7> S 	 -87.9837 	 -46.2059 	 -83.4513
|  8> C 	 -88.4825 	 -45.9299 	 -81.8087
|  9> C 	 -87.4265 	 -46.1821 	 -80.9201
| 10> C 	 -86.2546 	 -46.6141 	 -81.5584
| 11> C 	 -86.3239 	 -46.6141 	 -82.9547
| 12> H 	 -85.305 	 -46.6745 	 -81.1169
| 13> C 	 -87.4363 	 -45.831 	 -79.4354
| 14> H 	 -86.6092 	 -46.2424 	 -78.8522
| 15> H 	 -88.3378 	 -46.2663 	 -79.0093
| 16> C 	 -87.3845 	 -44.3257 	 -79.0611
| 17> H 	 -86.5957 	 -43.838 	 -79.4898
| 18> H 	 -88.1861 	 -43.6609 	 -79.4627
| 19> C 	 -87.2409 	 -44.0353 	 -77.6415
| 20> H 	 -87.2454 	 -42.9873 	 -77.3698
| 21> H 	 -87.9499 	 -44.6566 	 -77.0584
| 22> H 	 -86.266 	 -44.4107 	 -77.2496
| 23> S 	 -85.2173 	 -46.0984 	 -85.3979
| 24> C 	 -83.829 	 -47.0731 	 -85.8231
| 25> C 	 -83.3308 	 -47.8405 	 -84.7995
| 26> C 	 -84.0935 	 -47.6999 	 -83.613
| 27> C 	 -85.212 	 -46.9351 	 -83.8619
| 28> H 	 -82.5114 	 -48.4416 	 -84.9879
| 29> C 	 -83.733 	 -48.4653 	 -82.389
| 30> H 	 -83.372 	 -49.5148 	 -82.5374
| 31> H 	 -84.5789 	 -48.5286 	 -81.6959
| 32> C 	 -82.6197 	 -47.7613 	 -81.6286
| 33> H 	 -82.9198 	 -46.7369 	 -81.357
| 34> H 	 -81.6465 	 -47.8564 	 -82.1072
| 35> C 	 -82.4851 	 -48.4856 	 -80.2525
| 36> H 	 -82.1281 	 -49.511 	 -80.3942
| 37> H 	 -83.4169 	 -48.5787 	 -79.6864
| 38> H 	 -81.815 	 -47.9306 	 -79.5422
| 39> H 	 -89.5098 	 -45.5398 	 -81.5758
| 40> H 	 -83.309 	 -47.1326 	 -86.7174
| 41> *
| 42>
| 43>                          ****END OF INPUT****

CARTESIAN COORDINATES (ANGSTROEM)
---------------------------------
  S    -87.983700  -46.205900  -83.451300
  C    -88.482500  -45.929900  -81.808700
  C    -87.426500  -46.182100  -80.920100
  C    -86.254600  -46.614100  -81.558400
  C    -86.323900  -46.614100  -82.954700
  H    -85.305000  -46.674500  -81.116900
  C    -87.436300  -45.831000  -79.435400
  H    -86.609200  -46.242400  -78.852200
  H    -88.337800  -46.266300  -79.009300
  C    -87.384500  -44.325700  -79.061100
  H    -86.595700  -43.838000  -79.489800
  H    -88.186100  -43.660900  -79.462700
  C    -87.240900  -44.035300  -77.641500
  H    -87.245400  -42.987300  -77.369800
  H    -87.949900  -44.656600  -77.058400
  H    -86.266000  -44.410700  -77.249600
  S    -85.217300  -46.098400  -85.397900
  C    -83.829000  -47.073100  -85.823100
  C    -83.330800  -47.840500  -84.799500
  C    -84.093500  -47.699900  -83.613000
  C    -85.212000  -46.935100  -83.861900
  H    -82.511400  -48.441600  -84.987900
  C    -83.733000  -48.465300  -82.389000
  H    -83.372000  -49.514800  -82.537400
  H    -84.578900  -48.528600  -81.695900
  C    -82.619700  -47.761300  -81.628600
  H    -82.919800  -46.736900  -81.357000
  H    -81.646500  -47.856400  -82.107200
  C    -82.485100  -48.485600  -80.252500
  H    -82.128100  -49.511000  -80.394200
  H    -83.416900  -48.578700  -79.686400
  H    -81.815000  -47.930600  -79.542200
  H    -89.509800  -45.539800  -81.575800
  H    -83.309000  -47.132600  -86.717400

 Total Charge           Charge          ....    0
 Multiplicity           Mult            ....    1
 Number of Electrons    NEL             ....  134
 Basis Dimension        Dim             ....  322

ORBITAL ENERGIES
----------------

  NO   OCC          E(Eh)            E(eV)
   0   2.0000     -88.970743     -2421.0170
   1   2.0000     -88.969727     -2420.9893
   2   2.0000     -10.332886      -281.1721
   3   2.0000     -10.328056      -281.0407
   4   2.0000     -10.319543      -280.8090
   5   2.0000     -10.308654      -280.5127
   6   2.0000     -10.303900      -280.3834
   7   2.0000     -10.301273      -280.3119
   8   2.0000     -10.295715      -280.1607
   9   2.0000     -10.293636      -280.1041
  10   2.0000     -10.291658      -280.0502
  11   2.0000     -10.288050      -279.9521
  12   2.0000     -10.286044      -279.8975
  13   2.0000     -10.283195      -279.8200
  14   2.0000     -10.275965      -279.6232
  15   2.0000     -10.274877      -279.5936
  16   2.0000      -8.085412      -220.0152
  17   2.0000      -8.083758      -219.9702
  18   2.0000      -6.043890      -164.4626
  19   2.0000      -6.042273      -164.4186
  20   2.0000      -6.040212      -164.3625
  21   2.0000      -6.038243      -164.3089
  22   2.0000      -6.035936      -164.2462
  23   2.0000      -6.034693      -164.2124
  24   2.0000      -1.008854       -27.4523
  25   2.0000      -0.985269       -26.8105
  26   2.0000      -0.918203       -24.9856
  27   2.0000      -0.915189       -24.9036
  28   2.0000      -0.871565       -23.7165
  29   2.0000      -0.858096       -23.3500
  30   2.0000      -0.852366       -23.1940
  31   2.0000      -0.815137       -22.1810
  32   2.0000      -0.781142       -21.2560
  33   2.0000      -0.768337       -20.9075
  34   2.0000      -0.703176       -19.1344
  35   2.0000      -0.702368       -19.1124
  36   2.0000      -0.695558       -18.9271
  37   2.0000      -0.670993       -18.2586
  38   2.0000      -0.642638       -17.4871
  39   2.0000      -0.625051       -17.0085
  40   2.0000      -0.602481       -16.3944
  41   2.0000      -0.578154       -15.7324
  42   2.0000      -0.573411       -15.6033
  43   2.0000      -0.556458       -15.1420
  44   2.0000      -0.533802       -14.5255
  45   2.0000      -0.523898       -14.2560
  46   2.0000      -0.519907       -14.1474
  47   2.0000      -0.507738       -13.8163
  48   2.0000      -0.504169       -13.7191
  49   2.0000      -0.498043       -13.5524
  50   2.0000      -0.491879       -13.3847
  51   2.0000      -0.478253       -13.0139
  52   2.0000      -0.477138       -12.9836
  53   2.0000      -0.463698       -12.6179
  54   2.0000      -0.458346       -12.4722
  55   2.0000      -0.454678       -12.3724
  56   2.0000      -0.442990       -12.0544
  57   2.0000      -0.440401       -11.9839
  58   2.0000      -0.436312       -11.8727
  59   2.0000      -0.432370       -11.7654
  60   2.0000      -0.424030       -11.5384
  61   2.0000      -0.421579       -11.4718
  62   2.0000      -0.402616       -10.9557
  63   2.0000      -0.356095        -9.6899
  64   2.0000      -0.336404        -9.1540
  65   2.0000      -0.333487        -9.0746
  66   2.0000      -0.280808        -7.6412
  67   0.0000       0.020989         0.5711
  68   0.0000       0.078539         2.1372
  69   0.0000       0.102680         2.7941
  70   0.0000       0.122084         3.3221
  71   0.0000       0.125531         3.4159

MULLIKEN ATOMIC CHARGES
-----------------------
   0 S :    0.111671
   1 C :   -0.156266
   2 C :   -0.045009
   3 C :    0.022474
   4 C :   -0.134578
   5 H :   -0.018514
   6 C :    0.061687
   7 H :    0.016520
   8 H :    0.028400
   9 C :   -0.023946
  10 H :   -0.003738
  11 H :    0.018904
  12 C :   -0.056878
  13 H :    0.039579
  14 H :    0.020971
  15 H :    0.015100
  16 S :    0.118568
  17 C :   -0.044079
  18 C :   -0.018077
  19 C :   -0.001361
  20 C :   -0.133364
  21 H :   -0.013169
  22 C :    0.021972
  23 H :    0.034780
  24 H :    0.020390
  25 C :   -0.079706
  26 H :    0.042583
  27 H :    0.042803
  28 C :   -0.076052
  29 H :    0.029380
  30 H :    0.026770
  31 H :    0.040496
  32 H :    0.073601
  33 H :    0.018089
Sum of atomic charges:   -0.0000000

LOEWDIN ATOMIC CHARGES
----------------------
   0 S :    0.402311
   1 C :   -0.210823
   2 C :   -0.061709
   3 C :   -0.068936
   4 C :   -0.178543
   5 H :    0.021686
   6 C :   -0.025709
   7 H :    0.030370
   8 H :    0.031287
   9 C :   -0.048891
  10 H :    0.013580
  11 H :    0.027453
  12 C :   -0.066468
  13 H :    0.029124
  14 H :    0.023256
  15 H :    0.022474
  16 S :    0.405135
  17 C :   -0.172624
  18 C :   -0.052526
  19 C :   -0.052723
  20 C :   -0.189536
  21 H :    0.020921
  22 C :   -0.036329
  23 H :    0.036535
  24 H :    0.028306
  25 C :   -0.034216
  26 H :    0.025335
  27 H :    0.027002
  28 C :   -0.073001
  29 H :    0.022569
  30 H :    0.021013
  31 H :    0.028631
  32 H :    0.040213
  33 H :    0.014834

  Mayer bond orders larger than 0.100000
B(  0-S ,  1-C ) :   1.1474 B(  0-S ,  4-C ) :   1.1568 B(  1-C ,  2-C ) :   1.5613
B(  1-C ,  4-C ) :   0.1079 B(  1-C , 32-H ) :   0.9662 B(  2-C ,  3-C ) :   1.2909
B(  2-C ,  6-C ) :   1.0294 B(  3-C ,  4-C ) :   1.5397 B(  3-C ,  5-H ) :   0.9889
B(  4-C , 20-C ) :   1.0662 B(  6-C ,  7-H ) :   0.9477 B(  6-C ,  8-H ) :   0.9340
B(  6-C ,  9-C ) :   1.0529 B(  9-C , 10-H ) :   0.9455 B(  9-C , 11-H ) :   0.9465
B(  9-C , 12-C ) :   1.1018 B( 12-C , 13-H ) :   0.9699 B( 12-C , 14-H ) :   0.9716
B( 12-C , 15-H ) :   0.9680 B( 16-S , 17-C ) :   1.1300 B( 16-S , 20-C ) :   1.1286
B( 17-C , 18-C ) :   1.6526 B( 17-C , 33-H ) :   0.9690 B( 18-C , 19-C ) :   1.2053
B( 18-C , 21-H ) :   1.0024 B( 19-C , 20-C ) :   1.6086 B( 19-C , 22-C ) :   1.0470
B( 22-C , 23-H ) :   0.9355 B( 22-C , 24-H ) :   0.9358 B( 22-C , 25-C ) :   1.0610
B( 25-C , 26-H ) :   0.9521 B( 25-C , 27-H ) :   0.9544 B( 25-C , 28-C ) :   1.0811
B( 28-C , 29-H ) :   0.9717 B( 28-C , 30-H ) :   0.9746 B( 28-C , 31-H ) :   0.9754

Dispersion correction           -0.013916159
FINAL SINGLE POINT ENERGY     -1339.868282660746

DIPOLE MOMENT
-------------
                                X             Y             Z
Electronic contribution:     -9.77954       0.52250     -30.75826
Nuclear contribution   :     10.23153      -0.57694      31.21859
                        -----------------------------------------
Total Dipole Moment    :      0.45199      -0.05443       0.46033
                        -----------------------------------------
Magnitude (a.u.)       :      0.64742
Magnitude (Debye)      :      1.64562

Rotational constants in cm-1:     0.017450     0.009108     0.006530
Rotational constants in MHz :   523.142242   273.050959   195.778702

                             ****ORCA TERMINATED NORMALLY****
TOTAL RUN TIME: 0 days 0 hours 0 minutes 20 seconds 640 msec
