                         Program Version 4.2.1 -  RELEASE  -
|  1> ! wB97X-D3 SP def2-SVP
|  2> %pal
|  3> nprocs 24
|  4> end
|  5>
|  6> * xyz 0 1
|  7> S 	 -133.155 	 56.8399 	 -62.4806
|  8> C 	 -132.97 	 57.5205 	 -64.1001
|  9> C 	 -132.793 	 56.4781 	 -65.0362
| 10> C 	 -132.702 	 55.1925 	 -64.4173
| 11> C 	 -132.956 	 55.1799 	 -63.031
| 12> H 	 -132.602 	 54.3026 	 -65.0772
| 13> C 	 -132.641 	 56.6433 	 -66.5109
| 14> H 	 -132.317 	 55.6891 	 -66.8982
| 15> H 	 -131.75 	 57.1943 	 -66.7508
| 16> C 	 -133.867 	 57.1369 	 -67.3457
| 17> H 	 -134.594 	 56.252 	 -67.4512
| 18> H 	 -134.272 	 58.0632 	 -66.9607
| 19> C 	 -133.643 	 57.4064 	 -68.8207
| 20> H 	 -133.373 	 56.501 	 -69.4134
| 21> H 	 -134.476 	 57.896 	 -69.3441
| 22> H 	 -132.815 	 58.0901 	 -68.934
| 23> S 	 -133.361 	 54.1547 	 -60.4999
| 24> C 	 -132.95 	 52.5043 	 -60.1222
| 25> C 	 -132.475 	 51.797 	 -61.2358
| 26> C 	 -132.292 	 52.73 	 -62.3701
| 27> C 	 -132.825 	 54.0287 	 -62.1446
| 28> H 	 -132.1 	 50.8056 	 -61.1139
| 29> C 	 -131.714 	 52.1154 	 -63.571
| 30> H 	 -130.725 	 51.6042 	 -63.2743
| 31> H 	 -131.341 	 52.9461 	 -64.1406
| 32> C 	 -132.64 	 51.2335 	 -64.4705
| 33> H 	 -133.217 	 51.9765 	 -65.1079
| 34> H 	 -133.189 	 50.5619 	 -63.798
| 35> C 	 -131.84 	 50.3399 	 -65.3994
| 36> H 	 -132.559 	 49.7513 	 -65.9989
| 37> H 	 -131.171 	 49.7459 	 -64.7716
| 38> H 	 -131.224 	 50.9341 	 -66.0356
| 39> H 	 -133.026 	 58.5421 	 -64.3513
| 40> H 	 -132.957 	 52.0295 	 -59.1475
| 41> *
| 42>
| 43>                          ****END OF INPUT****

CARTESIAN COORDINATES (ANGSTROEM)
---------------------------------
  S    -133.155000   56.839900  -62.480600
  C    -132.970000   57.520500  -64.100100
  C    -132.793000   56.478100  -65.036200
  C    -132.702000   55.192500  -64.417300
  C    -132.956000   55.179900  -63.031000
  H    -132.602000   54.302600  -65.077200
  C    -132.641000   56.643300  -66.510900
  H    -132.317000   55.689100  -66.898200
  H    -131.750000   57.194300  -66.750800
  C    -133.867000   57.136900  -67.345700
  H    -134.594000   56.252000  -67.451200
  H    -134.272000   58.063200  -66.960700
  C    -133.643000   57.406400  -68.820700
  H    -133.373000   56.501000  -69.413400
  H    -134.476000   57.896000  -69.344100
  H    -132.815000   58.090100  -68.934000
  S    -133.361000   54.154700  -60.499900
  C    -132.950000   52.504300  -60.122200
  C    -132.475000   51.797000  -61.235800
  C    -132.292000   52.730000  -62.370100
  C    -132.825000   54.028700  -62.144600
  H    -132.100000   50.805600  -61.113900
  C    -131.714000   52.115400  -63.571000
  H    -130.725000   51.604200  -63.274300
  H    -131.341000   52.946100  -64.140600
  C    -132.640000   51.233500  -64.470500
  H    -133.217000   51.976500  -65.107900
  H    -133.189000   50.561900  -63.798000
  C    -131.840000   50.339900  -65.399400
  H    -132.559000   49.751300  -65.998900
  H    -131.171000   49.745900  -64.771600
  H    -131.224000   50.934100  -66.035600
  H    -133.026000   58.542100  -64.351300
  H    -132.957000   52.029500  -59.147500

 Total Charge           Charge          ....    0
 Multiplicity           Mult            ....    1
 Number of Electrons    NEL             ....  134
 Basis Dimension        Dim             ....  322

ORBITAL ENERGIES
----------------

  NO   OCC          E(Eh)            E(eV)
   0   2.0000     -88.972221     -2421.0572
   1   2.0000     -88.968165     -2420.9468
   2   2.0000     -10.339394      -281.3492
   3   2.0000     -10.334307      -281.2108
   4   2.0000     -10.320685      -280.8401
   5   2.0000     -10.317859      -280.7632
   6   2.0000     -10.308557      -280.5101
   7   2.0000     -10.304560      -280.4013
   8   2.0000     -10.299946      -280.2758
   9   2.0000     -10.297317      -280.2043
  10   2.0000     -10.295531      -280.1556
  11   2.0000     -10.295200      -280.1466
  12   2.0000     -10.292028      -280.0603
  13   2.0000     -10.290148      -280.0092
  14   2.0000     -10.280013      -279.7334
  15   2.0000     -10.278713      -279.6980
  16   2.0000      -8.086012      -220.0316
  17   2.0000      -8.083106      -219.9525
  18   2.0000      -6.044723      -164.4853
  19   2.0000      -6.041743      -164.4042
  20   2.0000      -6.040523      -164.3710
  21   2.0000      -6.037510      -164.2890
  22   2.0000      -6.036756      -164.2685
  23   2.0000      -6.033815      -164.1884
  24   2.0000      -1.003480       -27.3061
  25   2.0000      -0.980062       -26.6688
  26   2.0000      -0.913067       -24.8458
  27   2.0000      -0.910360       -24.7722
  28   2.0000      -0.869851       -23.6698
  29   2.0000      -0.857043       -23.3213
  30   2.0000      -0.849958       -23.1285
  31   2.0000      -0.814592       -22.1662
  32   2.0000      -0.782329       -21.2882
  33   2.0000      -0.768487       -20.9116
  34   2.0000      -0.706710       -19.2306
  35   2.0000      -0.699328       -19.0297
  36   2.0000      -0.690043       -18.7770
  37   2.0000      -0.665490       -18.1089
  38   2.0000      -0.636354       -17.3161
  39   2.0000      -0.624421       -16.9914
  40   2.0000      -0.592506       -16.1229
  41   2.0000      -0.574776       -15.6404
  42   2.0000      -0.569489       -15.4966
  43   2.0000      -0.563316       -15.3286
  44   2.0000      -0.530434       -14.4338
  45   2.0000      -0.524676       -14.2772
  46   2.0000      -0.523684       -14.2502
  47   2.0000      -0.514433       -13.9984
  48   2.0000      -0.507420       -13.8076
  49   2.0000      -0.505441       -13.7537
  50   2.0000      -0.493970       -13.4416
  51   2.0000      -0.479445       -13.0464
  52   2.0000      -0.474767       -12.9191
  53   2.0000      -0.457261       -12.4427
  54   2.0000      -0.454848       -12.3770
  55   2.0000      -0.452663       -12.3176
  56   2.0000      -0.447417       -12.1748
  57   2.0000      -0.435346       -11.8464
  58   2.0000      -0.429860       -11.6971
  59   2.0000      -0.425506       -11.5786
  60   2.0000      -0.417676       -11.3655
  61   2.0000      -0.412539       -11.2257
  62   2.0000      -0.410917       -11.1816
  63   2.0000      -0.361564        -9.8387
  64   2.0000      -0.335009        -9.1161
  65   2.0000      -0.325515        -8.8577
  66   2.0000      -0.279538        -7.6066
  67   0.0000       0.014944         0.4067
  68   0.0000       0.083039         2.2596
  69   0.0000       0.096505         2.6260
  70   0.0000       0.110847         3.0163
  71   0.0000       0.125368         3.4114

MULLIKEN ATOMIC CHARGES
-----------------------
   0 S :    0.107203
   1 C :   -0.103174
   2 C :   -0.082576
   3 C :   -0.032364
   4 C :   -0.088594
   5 H :    0.022347
   6 C :    0.083814
   7 H :   -0.007296
   8 H :    0.023306
   9 C :   -0.073350
  10 H :    0.047100
  11 H :    0.034512
  12 C :   -0.070728
  13 H :    0.032797
  14 H :    0.042451
  15 H :    0.014661
  16 S :    0.103807
  17 C :   -0.083724
  18 C :   -0.026793
  19 C :   -0.078521
  20 C :   -0.099800
  21 H :    0.020644
  22 C :   -0.008161
  23 H :    0.033870
  24 H :    0.007656
  25 C :   -0.060995
  26 H :    0.044704
  27 H :    0.034948
  28 C :   -0.023092
  29 H :    0.045405
  30 H :    0.026184
  31 H :    0.017453
  32 H :    0.035989
  33 H :    0.060320
Sum of atomic charges:   -0.0000000

LOEWDIN ATOMIC CHARGES
----------------------
   0 S :    0.404290
   1 C :   -0.186567
   2 C :   -0.058653
   3 C :   -0.073526
   4 C :   -0.186519
   5 H :    0.034010
   6 C :   -0.038537
   7 H :    0.026799
   8 H :    0.030563
   9 C :   -0.040754
  10 H :    0.038679
  11 H :    0.023312
  12 C :   -0.073651
  13 H :    0.025667
  14 H :    0.030959
  15 H :    0.016104
  16 S :    0.413449
  17 C :   -0.185319
  18 C :   -0.066330
  19 C :   -0.052088
  20 C :   -0.205205
  21 H :    0.029414
  22 C :   -0.053763
  23 H :    0.038481
  24 H :    0.021166
  25 C :   -0.034648
  26 H :    0.031416
  27 H :    0.025754
  28 C :   -0.060286
  29 H :    0.031379
  30 H :    0.023879
  31 H :    0.017550
  32 H :    0.021057
  33 H :    0.031917

  Mayer bond orders larger than 0.100000
B(  0-S ,  1-C ) :   1.1402 B(  0-S ,  4-C ) :   1.1520 B(  1-C ,  2-C ) :   1.5632
B(  1-C ,  4-C ) :   0.1060 B(  1-C , 32-H ) :   0.9787 B(  2-C ,  3-C ) :   1.3074
B(  2-C ,  6-C ) :   1.0335 B(  3-C ,  4-C ) :   1.5209 B(  3-C ,  5-H ) :   0.9710
B(  4-C , 20-C ) :   1.0991 B(  6-C ,  7-H ) :   0.9313 B(  6-C ,  8-H ) :   0.9326
B(  6-C ,  9-C ) :   1.0545 B(  9-C , 10-H ) :   0.9597 B(  9-C , 11-H ) :   0.9597
B(  9-C , 12-C ) :   1.0792 B( 12-C , 13-H ) :   0.9765 B( 12-C , 14-H ) :   0.9738
B( 12-C , 15-H ) :   0.9718 B( 16-S , 17-C ) :   1.1602 B( 16-S , 20-C ) :   1.1234
B( 17-C , 18-C ) :   1.6121 B( 17-C , 33-H ) :   0.9655 B( 18-C , 19-C ) :   1.2347
B( 18-C , 21-H ) :   0.9876 B( 19-C , 20-C ) :   1.5590 B( 19-C , 22-C ) :   1.0719
B( 22-C , 23-H ) :   0.9310 B( 22-C , 24-H ) :   0.9201 B( 22-C , 25-C ) :   1.0509
B( 25-C , 26-H ) :   0.9499 B( 25-C , 27-H ) :   0.9578 B( 25-C , 28-C ) :   1.0808
B( 28-C , 29-H ) :   0.9733 B( 28-C , 30-H ) :   0.9755 B( 28-C , 31-H ) :   0.9743

Dispersion correction           -0.013451363
FINAL SINGLE POINT ENERGY     -1339.866440020787

DIPOLE MOMENT
-------------
                                X             Y             Z
Electronic contribution:     -3.35080       8.93332      31.40881
Nuclear contribution   :      3.62331      -9.24415     -32.00805
                        -----------------------------------------
Total Dipole Moment    :      0.27251      -0.31083      -0.59924
                        -----------------------------------------
Magnitude (a.u.)       :      0.72799
Magnitude (Debye)      :      1.85039

Rotational constants in cm-1:     0.017657     0.008402     0.005883
Rotational constants in MHz :   529.353425   251.876851   176.361327

                             ****ORCA TERMINATED NORMALLY****
TOTAL RUN TIME: 0 days 0 hours 0 minutes 21 seconds 216 msec
