                         Program Version 4.2.1 -  RELEASE  -
|  1> ! wB97X-D3 SP def2-SVP
|  2> %pal
|  3> nprocs 24
|  4> end
|  5>
|  6> * xyz 0 1
|  7> S 	 -103.569 	 6.95776 	 -2.81579
|  8> C 	 -102.123 	 7.84251 	 -3.11295
|  9> C 	 -102.185 	 8.74547 	 -4.11882
| 10> C 	 -103.572 	 8.94531 	 -4.48372
| 11> C 	 -104.392 	 7.98137 	 -3.98698
| 12> H 	 -104.012 	 9.76024 	 -5.00881
| 13> C 	 -101.052 	 9.61904 	 -4.61761
| 14> H 	 -101.295 	 10.2047 	 -5.52031
| 15> H 	 -100.18 	 9.12024 	 -5.01458
| 16> C 	 -100.415 	 10.6318 	 -3.6395
| 17> H 	 -99.9477 	 10.0435 	 -2.85832
| 18> H 	 -99.595 	 11.1931 	 -4.06323
| 19> C 	 -101.49 	 11.6439 	 -3.13423
| 20> H 	 -102.423 	 11.154 	 -2.85787
| 21> H 	 -101.194 	 12.3482 	 -2.39079
| 22> H 	 -101.607 	 12.3441 	 -3.95066
| 23> S 	 -106.377 	 7.00682 	 -5.65003
| 24> C 	 -108.09 	 7.14958 	 -5.18995
| 25> C 	 -108.155 	 7.66537 	 -3.92564
| 26> C 	 -106.88 	 7.91039 	 -3.28917
| 27> C 	 -105.821 	 7.76604 	 -4.18839
| 28> H 	 -109.088 	 7.77008 	 -3.47522
| 29> C 	 -106.722 	 8.37016 	 -1.92218
| 30> H 	 -106.119 	 7.59389 	 -1.37426
| 31> H 	 -107.736 	 8.28669 	 -1.52657
| 32> C 	 -106.139 	 9.79229 	 -1.75972
| 33> H 	 -106.745 	 10.4867 	 -2.24125
| 34> H 	 -105.162 	 9.88005 	 -2.28345
| 35> C 	 -105.887 	 10.1471 	 -0.266163
| 36> H 	 -105.401 	 9.35808 	 0.298803
| 37> H 	 -106.868 	 10.2143 	 0.187272
| 38> H 	 -105.451 	 11.1142 	 -0.232402
| 39> H 	 -101.153 	 7.57637 	 -2.70835
| 40> H 	 -108.925 	 6.92514 	 -5.70153
| 41> *
| 42>
| 43>                          ****END OF INPUT****

CARTESIAN COORDINATES (ANGSTROEM)
---------------------------------
  S    -103.569000    6.957760   -2.815790
  C    -102.123000    7.842510   -3.112950
  C    -102.185000    8.745470   -4.118820
  C    -103.572000    8.945310   -4.483720
  C    -104.392000    7.981370   -3.986980
  H    -104.012000    9.760240   -5.008810
  C    -101.052000    9.619040   -4.617610
  H    -101.295000   10.204700   -5.520310
  H    -100.180000    9.120240   -5.014580
  C    -100.415000   10.631800   -3.639500
  H    -99.947700   10.043500   -2.858320
  H    -99.595000   11.193100   -4.063230
  C    -101.490000   11.643900   -3.134230
  H    -102.423000   11.154000   -2.857870
  H    -101.194000   12.348200   -2.390790
  H    -101.607000   12.344100   -3.950660
  S    -106.377000    7.006820   -5.650030
  C    -108.090000    7.149580   -5.189950
  C    -108.155000    7.665370   -3.925640
  C    -106.880000    7.910390   -3.289170
  C    -105.821000    7.766040   -4.188390
  H    -109.088000    7.770080   -3.475220
  C    -106.722000    8.370160   -1.922180
  H    -106.119000    7.593890   -1.374260
  H    -107.736000    8.286690   -1.526570
  C    -106.139000    9.792290   -1.759720
  H    -106.745000   10.486700   -2.241250
  H    -105.162000    9.880050   -2.283450
  C    -105.887000   10.147100   -0.266163
  H    -105.401000    9.358080    0.298803
  H    -106.868000   10.214300    0.187272
  H    -105.451000   11.114200   -0.232402
  H    -101.153000    7.576370   -2.708350
  H    -108.925000    6.925140   -5.701530

 Total Charge           Charge          ....    0
 Multiplicity           Mult            ....    1
 Number of Electrons    NEL             ....  134
 Basis Dimension        Dim             ....  322

ORBITAL ENERGIES
----------------

  NO   OCC          E(Eh)            E(eV)
   0   2.0000     -88.967540     -2420.9298
   1   2.0000     -88.962692     -2420.7979
   2   2.0000     -10.326503      -280.9984
   3   2.0000     -10.321168      -280.8532
   4   2.0000     -10.311074      -280.5786
   5   2.0000     -10.309627      -280.5392
   6   2.0000     -10.303587      -280.3749
   7   2.0000     -10.297223      -280.2017
   8   2.0000     -10.294790      -280.1355
   9   2.0000     -10.293253      -280.0937
  10   2.0000     -10.287788      -279.9449
  11   2.0000     -10.287768      -279.9444
  12   2.0000     -10.286632      -279.9135
  13   2.0000     -10.280107      -279.7359
  14   2.0000     -10.272295      -279.5233
  15   2.0000     -10.270654      -279.4787
  16   2.0000      -8.082582      -219.9382
  17   2.0000      -8.076988      -219.7860
  18   2.0000      -6.041015      -164.3844
  19   2.0000      -6.037170      -164.2798
  20   2.0000      -6.035611      -164.2373
  21   2.0000      -6.033276      -164.1738
  22   2.0000      -6.031448      -164.1240
  23   2.0000      -6.027757      -164.0236
  24   2.0000      -1.010168       -27.4881
  25   2.0000      -0.985973       -26.8297
  26   2.0000      -0.911173       -24.7943
  27   2.0000      -0.907510       -24.6946
  28   2.0000      -0.871404       -23.7121
  29   2.0000      -0.849921       -23.1275
  30   2.0000      -0.846406       -23.0319
  31   2.0000      -0.820561       -22.3286
  32   2.0000      -0.786180       -21.3930
  33   2.0000      -0.767836       -20.8939
  34   2.0000      -0.711957       -19.3733
  35   2.0000      -0.705529       -19.1984
  36   2.0000      -0.695350       -18.9214
  37   2.0000      -0.666095       -18.1254
  38   2.0000      -0.647043       -17.6069
  39   2.0000      -0.615731       -16.7549
  40   2.0000      -0.592532       -16.1236
  41   2.0000      -0.581513       -15.8238
  42   2.0000      -0.561523       -15.2798
  43   2.0000      -0.551078       -14.9956
  44   2.0000      -0.544188       -14.8081
  45   2.0000      -0.529918       -14.4198
  46   2.0000      -0.516416       -14.0524
  47   2.0000      -0.509637       -13.8679
  48   2.0000      -0.506248       -13.7757
  49   2.0000      -0.497692       -13.5429
  50   2.0000      -0.490055       -13.3351
  51   2.0000      -0.475654       -12.9432
  52   2.0000      -0.471249       -12.8233
  53   2.0000      -0.462655       -12.5895
  54   2.0000      -0.459081       -12.4922
  55   2.0000      -0.453659       -12.3447
  56   2.0000      -0.442560       -12.0427
  57   2.0000      -0.438535       -11.9331
  58   2.0000      -0.431833       -11.7508
  59   2.0000      -0.426399       -11.6029
  60   2.0000      -0.422924       -11.5084
  61   2.0000      -0.413359       -11.2481
  62   2.0000      -0.410513       -11.1706
  63   2.0000      -0.336424        -9.1545
  64   2.0000      -0.333976        -9.0880
  65   2.0000      -0.322313        -8.7706
  66   2.0000      -0.303750        -8.2655
  67   0.0000       0.036692         0.9984
  68   0.0000       0.064020         1.7421
  69   0.0000       0.112876         3.0715
  70   0.0000       0.115578         3.1450
  71   0.0000       0.122715         3.3392

MULLIKEN ATOMIC CHARGES
-----------------------
   0 S :    0.125648
   1 C :   -0.110587
   2 C :   -0.053497
   3 C :    0.049788
   4 C :   -0.195818
   5 H :    0.011136
   6 C :    0.046585
   7 H :    0.017823
   8 H :    0.025916
   9 C :   -0.068598
  10 H :    0.020707
  11 H :    0.024977
  12 C :   -0.048249
  13 H :    0.051094
  14 H :    0.022345
  15 H :    0.014244
  16 S :    0.110883
  17 C :   -0.034309
  18 C :   -0.017318
  19 C :   -0.047469
  20 C :   -0.158745
  21 H :   -0.006645
  22 C :    0.072727
  23 H :    0.035465
  24 H :    0.006647
  25 C :   -0.073751
  26 H :    0.012706
  27 H :    0.046882
  28 C :   -0.008988
  29 H :    0.033655
  30 H :    0.013611
  31 H :    0.031918
  32 H :    0.043806
  33 H :    0.005411
Sum of atomic charges:    0.0000000

LOEWDIN ATOMIC CHARGES
----------------------
   0 S :    0.415614
   1 C :   -0.192358
   2 C :   -0.064000
   3 C :   -0.047541
   4 C :   -0.190520
   5 H :    0.031255
   6 C :   -0.038826
   7 H :    0.031848
   8 H :    0.033267
   9 C :   -0.033688
  10 H :    0.015392
  11 H :    0.023211
  12 C :   -0.069057
  13 H :    0.026614
  14 H :    0.021422
  15 H :    0.024734
  16 S :    0.403794
  17 C :   -0.159842
  18 C :   -0.061710
  19 C :   -0.058622
  20 C :   -0.212001
  21 H :    0.020093
  22 C :   -0.042825
  23 H :    0.034183
  24 H :    0.029060
  25 C :   -0.030483
  26 H :    0.014890
  27 H :    0.028414
  28 C :   -0.058427
  29 H :    0.026533
  30 H :    0.021768
  31 H :    0.022841
  32 H :    0.026459
  33 H :    0.008506

  Mayer bond orders larger than 0.100000
B(  0-S ,  1-C ) :   1.1438 B(  0-S ,  4-C ) :   1.1320 B(  1-C ,  2-C ) :   1.6533
B(  1-C , 32-H ) :   0.9604 B(  2-C ,  3-C ) :   1.1855 B(  2-C ,  6-C ) :   1.0279
B(  3-C ,  4-C ) :   1.6458 B(  3-C ,  5-H ) :   0.9943 B(  4-C , 20-C ) :   1.0201
B(  6-C ,  7-H ) :   0.9451 B(  6-C ,  8-H ) :   0.9350 B(  6-C ,  9-C ) :   1.0763
B(  9-C , 10-H ) :   0.9582 B(  9-C , 11-H ) :   0.9568 B(  9-C , 12-C ) :   1.0653
B( 12-C , 13-H ) :   0.9795 B( 12-C , 14-H ) :   0.9735 B( 12-C , 15-H ) :   0.9722
B( 16-S , 17-C ) :   1.1429 B( 16-S , 20-C ) :   1.1519 B( 17-C , 18-C ) :   1.6197
B( 17-C , 33-H ) :   0.9790 B( 18-C , 19-C ) :   1.2429 B( 18-C , 21-H ) :   0.9928
B( 19-C , 20-C ) :   1.5601 B( 19-C , 22-C ) :   1.0694 B( 22-C , 23-H ) :   0.9153
B( 22-C , 24-H ) :   0.9204 B( 22-C , 25-C ) :   1.0612 B( 25-C , 26-H ) :   0.9515
B( 25-C , 27-H ) :   0.9558 B( 25-C , 28-C ) :   1.0843 B( 28-C , 29-H ) :   0.9756
B( 28-C , 30-H ) :   0.9735 B( 28-C , 31-H ) :   0.9734

Dispersion correction           -0.015693827
FINAL SINGLE POINT ENERGY     -1339.868390995898

DIPOLE MOMENT
-------------
                                X             Y             Z
Electronic contribution:     -8.95980     -21.42984     -12.59118
Nuclear contribution   :      9.05250      21.89691      12.78646
                        -----------------------------------------
Total Dipole Moment    :      0.09270       0.46706       0.19528
                        -----------------------------------------
Magnitude (a.u.)       :      0.51466
Magnitude (Debye)      :      1.30817

Rotational constants in cm-1:     0.020168     0.009181     0.007604
Rotational constants in MHz :   604.622534   275.238147   227.953894

                             ****ORCA TERMINATED NORMALLY****
TOTAL RUN TIME: 0 days 0 hours 0 minutes 22 seconds 593 msec
