                         Program Version 4.2.1 -  RELEASE  -
|  1> ! wB97X-D3 SP def2-SVP
|  2> %pal
|  3> nprocs 24
|  4> end
|  5>
|  6> * xyz 0 1
|  7> S 	 -33.0522 	 12.292 	 -1.24292
|  8> C 	 -33.0869 	 10.5476 	 -1.48579
|  9> C 	 -33.504 	 9.83197 	 -0.350699
| 10> C 	 -33.9896 	 10.822 	 0.617402
| 11> C 	 -33.6997 	 12.1072 	 0.344588
| 12> H 	 -34.3512 	 10.5712 	 1.57466
| 13> C 	 -33.6433 	 8.35121 	 -0.263921
| 14> H 	 -33.9404 	 8.31804 	 0.749074
| 15> H 	 -32.7129 	 7.89133 	 -0.417794
| 16> C 	 -34.656 	 7.80118 	 -1.294
| 17> H 	 -35.4214 	 8.63031 	 -1.24094
| 18> H 	 -34.0874 	 7.89018 	 -2.25353
| 19> C 	 -35.2196 	 6.53021 	 -0.989003
| 20> H 	 -36.0216 	 6.15519 	 -1.77855
| 21> H 	 -34.4911 	 5.76235 	 -0.764199
| 22> H 	 -35.7961 	 6.57572 	 -0.0336675
| 23> S 	 -32.8716 	 14.3133 	 1.85207
| 24> C 	 -34.043 	 15.457 	 2.49644
| 25> C 	 -35.3153 	 15.0286 	 2.25626
| 26> C 	 -35.33 	 13.8294 	 1.38996
| 27> C 	 -34.087 	 13.3062 	 1.15735
| 28> H 	 -36.177 	 15.541 	 2.65909
| 29> C 	 -36.7489 	 13.2421 	 1.01626
| 30> H 	 -37.4687 	 13.4425 	 1.85216
| 31> H 	 -36.5996 	 12.1573 	 1.11063
| 32> C 	 -37.3151 	 13.586 	 -0.4299
| 33> H 	 -37.1516 	 14.6151 	 -0.646802
| 34> H 	 -38.3199 	 13.2423 	 -0.573246
| 35> C 	 -36.4352 	 12.8197 	 -1.50002
| 36> H 	 -36.3183 	 11.7189 	 -1.32386
| 37> H 	 -35.4856 	 13.3864 	 -1.49185
| 38> H 	 -36.7713 	 12.9178 	 -2.54731
| 39> H 	 -32.5933 	 9.96593 	 -2.27635
| 40> H 	 -33.8744 	 16.4178 	 3.0575
| 41> *
| 42>
| 43>                          ****END OF INPUT****

CARTESIAN COORDINATES (ANGSTROEM)
---------------------------------
  S    -33.052200   12.292000   -1.242920
  C    -33.086900   10.547600   -1.485790
  C    -33.504000    9.831970   -0.350699
  C    -33.989600   10.822000    0.617402
  C    -33.699700   12.107200    0.344588
  H    -34.351200   10.571200    1.574660
  C    -33.643300    8.351210   -0.263921
  H    -33.940400    8.318040    0.749074
  H    -32.712900    7.891330   -0.417794
  C    -34.656000    7.801180   -1.294000
  H    -35.421400    8.630310   -1.240940
  H    -34.087400    7.890180   -2.253530
  C    -35.219600    6.530210   -0.989003
  H    -36.021600    6.155190   -1.778550
  H    -34.491100    5.762350   -0.764199
  H    -35.796100    6.575720   -0.033668
  S    -32.871600   14.313300    1.852070
  C    -34.043000   15.457000    2.496440
  C    -35.315300   15.028600    2.256260
  C    -35.330000   13.829400    1.389960
  C    -34.087000   13.306200    1.157350
  H    -36.177000   15.541000    2.659090
  C    -36.748900   13.242100    1.016260
  H    -37.468700   13.442500    1.852160
  H    -36.599600   12.157300    1.110630
  C    -37.315100   13.586000   -0.429900
  H    -37.151600   14.615100   -0.646802
  H    -38.319900   13.242300   -0.573246
  C    -36.435200   12.819700   -1.500020
  H    -36.318300   11.718900   -1.323860
  H    -35.485600   13.386400   -1.491850
  H    -36.771300   12.917800   -2.547310
  H    -32.593300    9.965930   -2.276350
  H    -33.874400   16.417800    3.057500

 Total Charge           Charge          ....    0
 Multiplicity           Mult            ....    1
 Number of Electrons    NEL             ....  134
 Basis Dimension        Dim             ....  322

ORBITAL ENERGIES
----------------

  NO   OCC          E(Eh)            E(eV)
   0   2.0000     -88.967707     -2420.9344
   1   2.0000     -88.965263     -2420.8679
   2   2.0000     -10.327694      -281.0308
   3   2.0000     -10.326575      -281.0004
   4   2.0000     -10.320854      -280.8447
   5   2.0000     -10.315415      -280.6967
   6   2.0000     -10.308385      -280.5054
   7   2.0000     -10.303633      -280.3761
   8   2.0000     -10.299463      -280.2626
   9   2.0000     -10.294412      -280.1252
  10   2.0000     -10.291612      -280.0490
  11   2.0000     -10.290321      -280.0139
  12   2.0000     -10.286445      -279.9084
  13   2.0000     -10.286199      -279.9017
  14   2.0000     -10.285673      -279.8874
  15   2.0000     -10.272519      -279.5295
  16   2.0000      -8.082038      -219.9234
  17   2.0000      -8.080277      -219.8755
  18   2.0000      -6.040644      -164.3743
  19   2.0000      -6.038943      -164.3280
  20   2.0000      -6.036574      -164.2635
  21   2.0000      -6.034677      -164.2119
  22   2.0000      -6.032720      -164.1586
  23   2.0000      -6.030900      -164.1091
  24   2.0000      -1.007150       -27.4059
  25   2.0000      -0.984871       -26.7997
  26   2.0000      -0.926722       -25.2174
  27   2.0000      -0.890700       -24.2372
  28   2.0000      -0.870168       -23.6785
  29   2.0000      -0.853501       -23.2250
  30   2.0000      -0.837535       -22.7905
  31   2.0000      -0.819250       -22.2929
  32   2.0000      -0.782852       -21.3025
  33   2.0000      -0.762782       -20.7563
  34   2.0000      -0.704190       -19.1620
  35   2.0000      -0.696975       -18.9657
  36   2.0000      -0.685109       -18.6428
  37   2.0000      -0.657102       -17.8807
  38   2.0000      -0.641830       -17.4651
  39   2.0000      -0.622193       -16.9307
  40   2.0000      -0.588539       -16.0150
  41   2.0000      -0.573764       -15.6129
  42   2.0000      -0.568336       -15.4652
  43   2.0000      -0.545977       -14.8568
  44   2.0000      -0.534243       -14.5375
  45   2.0000      -0.528968       -14.3940
  46   2.0000      -0.523746       -14.2519
  47   2.0000      -0.507376       -13.8064
  48   2.0000      -0.504118       -13.7178
  49   2.0000      -0.496708       -13.5161
  50   2.0000      -0.494175       -13.4472
  51   2.0000      -0.477289       -12.9877
  52   2.0000      -0.465114       -12.6564
  53   2.0000      -0.462292       -12.5796
  54   2.0000      -0.457832       -12.4582
  55   2.0000      -0.452668       -12.3177
  56   2.0000      -0.437280       -11.8990
  57   2.0000      -0.427498       -11.6328
  58   2.0000      -0.426541       -11.6068
  59   2.0000      -0.418737       -11.3944
  60   2.0000      -0.415667       -11.3109
  61   2.0000      -0.412921       -11.2362
  62   2.0000      -0.406848       -11.0709
  63   2.0000      -0.338186        -9.2025
  64   2.0000      -0.329298        -8.9607
  65   2.0000      -0.327428        -8.9098
  66   2.0000      -0.309268        -8.4156
  67   0.0000       0.042423         1.1544
  68   0.0000       0.064155         1.7457
  69   0.0000       0.114093         3.1046
  70   0.0000       0.119208         3.2438
  71   0.0000       0.122534         3.3343

MULLIKEN ATOMIC CHARGES
-----------------------
   0 S :    0.128093
   1 C :   -0.126523
   2 C :   -0.156049
   3 C :    0.046353
   4 C :   -0.140805
   5 H :   -0.003911
   6 C :    0.126694
   7 H :    0.003466
   8 H :    0.024416
   9 C :   -0.090591
  10 H :    0.043734
  11 H :    0.035322
  12 C :   -0.046982
  13 H :    0.056207
  14 H :    0.027893
  15 H :    0.027717
  16 S :    0.111154
  17 C :   -0.107932
  18 C :   -0.029929
  19 C :   -0.057089
  20 C :   -0.171355
  21 H :    0.023141
  22 C :    0.036948
  23 H :    0.033020
  24 H :    0.018719
  25 C :   -0.012737
  26 H :    0.030841
  27 H :    0.033803
  28 C :   -0.110981
  29 H :    0.048446
  30 H :    0.039294
  31 H :    0.030279
  32 H :    0.053052
  33 H :    0.076294
Sum of atomic charges:    0.0000000

LOEWDIN ATOMIC CHARGES
----------------------
   0 S :    0.432286
   1 C :   -0.201584
   2 C :   -0.055402
   3 C :   -0.060293
   4 C :   -0.198438
   5 H :    0.022365
   6 C :   -0.026552
   7 H :    0.025373
   8 H :    0.025935
   9 C :   -0.049118
  10 H :    0.033284
  11 H :    0.028410
  12 C :   -0.079146
  13 H :    0.043267
  14 H :    0.023601
  15 H :    0.031140
  16 S :    0.409461
  17 C :   -0.193215
  18 C :   -0.073019
  19 C :   -0.055952
  20 C :   -0.215057
  21 H :    0.031549
  22 C :   -0.034975
  23 H :    0.032128
  24 H :    0.027298
  25 C :   -0.027802
  26 H :    0.021938
  27 H :    0.020304
  28 C :   -0.079642
  29 H :    0.026747
  30 H :    0.015995
  31 H :    0.022593
  32 H :    0.030169
  33 H :    0.046350

  Mayer bond orders larger than 0.100000
B(  0-S ,  1-C ) :   1.1472 B(  0-S ,  4-C ) :   1.1529 B(  1-C ,  2-C ) :   1.6113
B(  1-C , 32-H ) :   0.9606 B(  2-C ,  3-C ) :   1.2214 B(  2-C ,  6-C ) :   1.0297
B(  3-C ,  4-C ) :   1.6338 B(  3-C ,  5-H ) :   0.9897 B(  4-C , 20-C ) :   0.9792
B(  6-C ,  7-H ) :   0.9354 B(  6-C ,  8-H ) :   0.9212 B(  6-C ,  9-C ) :   1.0535
B(  9-C , 10-H ) :   0.9582 B(  9-C , 11-H ) :   0.9444 B(  9-C , 12-C ) :   1.1051
B( 12-C , 13-H ) :   0.9661 B( 12-C , 14-H ) :   0.9655 B( 12-C , 15-H ) :   0.9662
B( 16-S , 17-C ) :   1.1418 B( 16-S , 20-C ) :   1.1364 B( 17-C , 18-C ) :   1.6456
B( 17-C , 33-H ) :   0.9583 B( 18-C , 19-C ) :   1.2169 B( 18-C , 21-H ) :   0.9878
B( 19-C , 20-C ) :   1.6448 B( 19-C , 22-C ) :   1.0101 B( 22-C , 23-H ) :   0.9474
B( 22-C , 24-H ) :   0.9454 B( 22-C , 25-C ) :   1.0504 B( 25-C , 26-H ) :   0.9624
B( 25-C , 27-H ) :   0.9606 B( 25-C , 28-C ) :   1.0671 B( 28-C , 29-H ) :   0.9761
B( 28-C , 30-H ) :   0.9699 B( 28-C , 31-H ) :   0.9750

Dispersion correction           -0.015879948
FINAL SINGLE POINT ENERGY     -1339.854584418156

DIPOLE MOMENT
-------------
                                X             Y             Z
Electronic contribution:     17.44299      19.56764       7.62837
Nuclear contribution   :    -17.86215     -19.96854      -7.50540
                        -----------------------------------------
Total Dipole Moment    :     -0.41917      -0.40090       0.12298
                        -----------------------------------------
Magnitude (a.u.)       :      0.59291
Magnitude (Debye)      :      1.50706

Rotational constants in cm-1:     0.022969     0.008155     0.007235
Rotational constants in MHz :   688.592243   244.466186   216.911428

                             ****ORCA TERMINATED NORMALLY****
TOTAL RUN TIME: 0 days 0 hours 0 minutes 22 seconds 661 msec
