                         Program Version 4.2.1 -  RELEASE  -
|  1> ! wB97X-D3 SP def2-SVP
|  2> %pal
|  3> nprocs 24
|  4> end
|  5>
|  6> * xyz 0 1
|  7> S 	 -47.769 	 12.6939 	 26.5984
|  8> C 	 -47.4132 	 13.1235 	 24.8931
|  9> C 	 -48.2496 	 12.5339 	 24.013
| 10> C 	 -49.3298 	 11.8969 	 24.7485
| 11> C 	 -49.3194 	 12.0405 	 26.1577
| 12> H 	 -50.0691 	 11.3163 	 24.3056
| 13> C 	 -48.1567 	 12.5704 	 22.4837
| 14> H 	 -47.0658 	 12.4156 	 22.2937
| 15> H 	 -48.2508 	 13.5908 	 22.2047
| 16> C 	 -49.0461 	 11.513 	 21.6993
| 17> H 	 -48.8922 	 10.4456 	 21.9505
| 18> H 	 -50.0162 	 11.7246 	 21.919
| 19> C 	 -48.8144 	 11.6486 	 20.1653
| 20> H 	 -49.1139 	 12.6075 	 19.8328
| 21> H 	 -47.8209 	 11.3998 	 19.924
| 22> H 	 -49.35 	 10.9231 	 19.5313
| 23> S 	 -51.4857 	 12.5325 	 27.7823
| 24> C 	 -52.1243 	 11.1667 	 28.6547
| 25> C 	 -51.5459 	 9.97782 	 28.301
| 26> C 	 -50.507 	 10.0931 	 27.3988
| 27> C 	 -50.2876 	 11.4266 	 27.0259
| 28> H 	 -51.9584 	 9.03071 	 28.6737
| 29> C 	 -49.7504 	 8.90504 	 26.9628
| 30> H 	 -48.8602 	 9.22266 	 26.5338
| 31> H 	 -50.2877 	 8.42003 	 26.0934
| 32> C 	 -49.4603 	 7.88405 	 27.9819
| 33> H 	 -50.352 	 7.34365 	 28.3137
| 34> H 	 -49.0924 	 8.40102 	 28.892
| 35> C 	 -48.4518 	 6.77037 	 27.4936
| 36> H 	 -48.4137 	 5.94268 	 28.2335
| 37> H 	 -47.4268 	 7.23609 	 27.4673
| 38> H 	 -48.6728 	 6.31686 	 26.5232
| 39> H 	 -46.557 	 13.7402 	 24.6175
| 40> H 	 -52.8867 	 11.1651 	 29.4075
| 41> *
| 42>
| 43>                          ****END OF INPUT****

CARTESIAN COORDINATES (ANGSTROEM)
---------------------------------
  S    -47.769000   12.693900   26.598400
  C    -47.413200   13.123500   24.893100
  C    -48.249600   12.533900   24.013000
  C    -49.329800   11.896900   24.748500
  C    -49.319400   12.040500   26.157700
  H    -50.069100   11.316300   24.305600
  C    -48.156700   12.570400   22.483700
  H    -47.065800   12.415600   22.293700
  H    -48.250800   13.590800   22.204700
  C    -49.046100   11.513000   21.699300
  H    -48.892200   10.445600   21.950500
  H    -50.016200   11.724600   21.919000
  C    -48.814400   11.648600   20.165300
  H    -49.113900   12.607500   19.832800
  H    -47.820900   11.399800   19.924000
  H    -49.350000   10.923100   19.531300
  S    -51.485700   12.532500   27.782300
  C    -52.124300   11.166700   28.654700
  C    -51.545900    9.977820   28.301000
  C    -50.507000   10.093100   27.398800
  C    -50.287600   11.426600   27.025900
  H    -51.958400    9.030710   28.673700
  C    -49.750400    8.905040   26.962800
  H    -48.860200    9.222660   26.533800
  H    -50.287700    8.420030   26.093400
  C    -49.460300    7.884050   27.981900
  H    -50.352000    7.343650   28.313700
  H    -49.092400    8.401020   28.892000
  C    -48.451800    6.770370   27.493600
  H    -48.413700    5.942680   28.233500
  H    -47.426800    7.236090   27.467300
  H    -48.672800    6.316860   26.523200
  H    -46.557000   13.740200   24.617500
  H    -52.886700   11.165100   29.407500

 Total Charge           Charge          ....    0
 Multiplicity           Mult            ....    1
 Number of Electrons    NEL             ....  134
 Basis Dimension        Dim             ....  322

ORBITAL ENERGIES
----------------

  NO   OCC          E(Eh)            E(eV)
   0   2.0000     -88.965967     -2420.8870
   1   2.0000     -88.962514     -2420.7931
   2   2.0000     -10.324981      -280.9570
   3   2.0000     -10.324363      -280.9402
   4   2.0000     -10.312284      -280.6115
   5   2.0000     -10.312199      -280.6092
   6   2.0000     -10.300874      -280.3010
   7   2.0000     -10.300712      -280.2966
   8   2.0000     -10.297479      -280.2087
   9   2.0000     -10.292597      -280.0758
  10   2.0000     -10.290154      -280.0093
  11   2.0000     -10.287162      -279.9279
  12   2.0000     -10.287070      -279.9254
  13   2.0000     -10.284495      -279.8553
  14   2.0000     -10.281404      -279.7712
  15   2.0000     -10.276011      -279.6245
  16   2.0000      -8.080073      -219.8700
  17   2.0000      -8.076695      -219.7780
  18   2.0000      -6.038449      -164.3145
  19   2.0000      -6.035304      -164.2290
  20   2.0000      -6.034746      -164.2138
  21   2.0000      -6.031403      -164.1228
  22   2.0000      -6.030935      -164.1101
  23   2.0000      -6.027255      -164.0099
  24   2.0000      -1.002245       -27.2725
  25   2.0000      -0.980769       -26.6881
  26   2.0000      -0.916832       -24.9483
  27   2.0000      -0.906812       -24.6756
  28   2.0000      -0.870700       -23.6930
  29   2.0000      -0.848815       -23.0974
  30   2.0000      -0.842478       -22.9250
  31   2.0000      -0.808196       -21.9921
  32   2.0000      -0.784300       -21.3419
  33   2.0000      -0.772722       -21.0268
  34   2.0000      -0.720803       -19.6140
  35   2.0000      -0.702914       -19.1273
  36   2.0000      -0.696765       -18.9599
  37   2.0000      -0.651728       -17.7344
  38   2.0000      -0.638842       -17.3838
  39   2.0000      -0.614932       -16.7331
  40   2.0000      -0.601619       -16.3709
  41   2.0000      -0.571998       -15.5649
  42   2.0000      -0.567839       -15.4517
  43   2.0000      -0.562170       -15.2974
  44   2.0000      -0.528800       -14.3894
  45   2.0000      -0.520821       -14.1723
  46   2.0000      -0.513667       -13.9776
  47   2.0000      -0.506542       -13.7837
  48   2.0000      -0.505081       -13.7439
  49   2.0000      -0.497491       -13.5374
  50   2.0000      -0.491936       -13.3863
  51   2.0000      -0.474561       -12.9134
  52   2.0000      -0.469714       -12.7816
  53   2.0000      -0.466636       -12.6978
  54   2.0000      -0.453305       -12.3351
  55   2.0000      -0.452263       -12.3067
  56   2.0000      -0.448993       -12.2177
  57   2.0000      -0.440182       -11.9780
  58   2.0000      -0.437169       -11.8960
  59   2.0000      -0.429110       -11.6767
  60   2.0000      -0.422819       -11.5055
  61   2.0000      -0.418920       -11.3994
  62   2.0000      -0.413811       -11.2604
  63   2.0000      -0.335271        -9.1232
  64   2.0000      -0.325904        -8.8683
  65   2.0000      -0.314244        -8.5510
  66   2.0000      -0.305992        -8.3265
  67   0.0000       0.036705         0.9988
  68   0.0000       0.055177         1.5014
  69   0.0000       0.111853         3.0437
  70   0.0000       0.116375         3.1667
  71   0.0000       0.134601         3.6627

MULLIKEN ATOMIC CHARGES
-----------------------
   0 S :    0.109678
   1 C :   -0.153455
   2 C :   -0.047701
   3 C :    0.029728
   4 C :   -0.152284
   5 H :   -0.016059
   6 C :    0.058284
   7 H :    0.028417
   8 H :    0.033283
   9 C :   -0.057037
  10 H :    0.041662
  11 H :    0.022639
  12 C :   -0.020520
  13 H :    0.024961
  14 H :    0.019357
  15 H :    0.026341
  16 S :    0.118406
  17 C :   -0.065401
  18 C :   -0.062941
  19 C :    0.003319
  20 C :   -0.218514
  21 H :    0.021379
  22 C :    0.139857
  23 H :   -0.004440
  24 H :    0.035892
  25 C :   -0.118921
  26 H :    0.028090
  27 H :    0.038695
  28 C :   -0.066837
  29 H :    0.037725
  30 H :    0.044454
  31 H :    0.036745
  32 H :    0.044380
  33 H :    0.040819
Sum of atomic charges:   -0.0000000

LOEWDIN ATOMIC CHARGES
----------------------
   0 S :    0.389648
   1 C :   -0.182633
   2 C :   -0.064396
   3 C :   -0.049116
   4 C :   -0.213948
   5 H :    0.013909
   6 C :   -0.028440
   7 H :    0.037047
   8 H :    0.031643
   9 C :   -0.026801
  10 H :    0.032162
  11 H :    0.009853
  12 C :   -0.056714
  13 H :    0.019375
  14 H :    0.018763
  15 H :    0.029100
  16 S :    0.400390
  17 C :   -0.178609
  18 C :   -0.077984
  19 C :   -0.048232
  20 C :   -0.193472
  21 H :    0.035109
  22 C :   -0.035124
  23 H :    0.021665
  24 H :    0.042304
  25 C :   -0.044162
  26 H :    0.019638
  27 H :    0.030287
  28 C :   -0.067840
  29 H :    0.028416
  30 H :    0.031448
  31 H :    0.024395
  32 H :    0.027172
  33 H :    0.025148

  Mayer bond orders larger than 0.100000
B(  0-S ,  1-C ) :   1.1338 B(  0-S ,  4-C ) :   1.1381 B(  1-C ,  2-C ) :   1.6292
B(  1-C , 32-H ) :   0.9707 B(  2-C ,  3-C ) :   1.2356 B(  2-C ,  6-C ) :   0.9924
B(  3-C ,  4-C ) :   1.5630 B(  3-C ,  5-H ) :   1.0029 B(  4-C , 20-C ) :   1.0531
B(  6-C ,  7-H ) :   0.9416 B(  6-C ,  8-H ) :   0.9425 B(  6-C ,  9-C ) :   1.0539
B(  9-C , 10-H ) :   0.9619 B(  9-C , 11-H ) :   0.9509 B(  9-C , 12-C ) :   1.0867
B( 12-C , 13-H ) :   0.9772 B( 12-C , 14-H ) :   0.9768 B( 12-C , 15-H ) :   0.9737
B( 16-S , 17-C ) :   1.1617 B( 16-S , 20-C ) :   1.1365 B( 17-C , 18-C ) :   1.6097
B( 17-C , 20-C ) :   0.1064 B( 17-C , 33-H ) :   0.9636 B( 18-C , 19-C ) :   1.2580
B( 18-C , 21-H ) :   0.9841 B( 19-C , 20-C ) :   1.5772 B( 19-C , 22-C ) :   1.0537
B( 22-C , 23-H ) :   0.9190 B( 22-C , 24-H ) :   0.9095 B( 22-C , 25-C ) :   1.0782
B( 25-C , 26-H ) :   0.9434 B( 25-C , 27-H ) :   0.9586 B( 25-C , 28-C ) :   1.0786
B( 28-C , 29-H ) :   0.9768 B( 28-C , 30-H ) :   0.9762 B( 28-C , 31-H ) :   0.9748

Dispersion correction           -0.013659201
FINAL SINGLE POINT ENERGY     -1339.862373237214

DIPOLE MOMENT
-------------
                                X             Y             Z
Electronic contribution:     -5.26205      19.10896      18.32152
Nuclear contribution   :      5.26466     -19.65418     -18.86373
                        -----------------------------------------
Total Dipole Moment    :      0.00261      -0.54523      -0.54220
                        -----------------------------------------
Magnitude (a.u.)       :      0.76893
Magnitude (Debye)      :      1.95447

Rotational constants in cm-1:     0.016487     0.007870     0.006775
Rotational constants in MHz :   494.267151   235.922129   203.096488

                             ****ORCA TERMINATED NORMALLY****
TOTAL RUN TIME: 0 days 0 hours 0 minutes 21 seconds 36 msec
