                         Program Version 4.2.1 -  RELEASE  -
|  1> ! wB97X-D3 SP def2-SVP
|  2> %pal
|  3> nprocs 24
|  4> end
|  5>
|  6> * xyz 0 1
|  7> S 	 -55.4394 	 0.426166 	 -23.8633
|  8> C 	 -54.6255 	 -1.14873 	 -23.9574
|  9> C 	 -55.2054 	 -2.1256 	 -23.2819
| 10> C 	 -56.4364 	 -1.61733 	 -22.7095
| 11> C 	 -56.6215 	 -0.267177 	 -22.8142
| 12> H 	 -57.1128 	 -2.1665 	 -22.1031
| 13> C 	 -54.9739 	 -3.57578 	 -23.3209
| 14> H 	 -53.8937 	 -3.74713 	 -23.489
| 15> H 	 -55.4437 	 -3.92021 	 -24.1892
| 16> C 	 -55.2484 	 -4.41999 	 -22.0987
| 17> H 	 -54.9225 	 -4.02202 	 -21.1676
| 18> H 	 -56.3256 	 -4.52535 	 -22.0668
| 19> C 	 -54.6247 	 -5.86091 	 -22.047
| 20> H 	 -53.5406 	 -5.76858 	 -22.1725
| 21> H 	 -54.7672 	 -6.38621 	 -21.077
| 22> H 	 -54.932 	 -6.4503 	 -22.896
| 23> S 	 -59.0018 	 1.04046 	 -23.3948
| 24> C 	 -59.8421 	 1.93803 	 -22.1829
| 25> C 	 -59.153 	 1.80652 	 -20.968
| 26> C 	 -58.0786 	 0.869363 	 -20.9416
| 27> C 	 -57.7598 	 0.504707 	 -22.29
| 28> H 	 -59.5323 	 2.30849 	 -20.0972
| 29> C 	 -57.3288 	 0.483434 	 -19.678
| 30> H 	 -56.9202 	 -0.472232 	 -20.0107
| 31> H 	 -58.0132 	 0.113815 	 -18.8976
| 32> C 	 -56.2863 	 1.49822 	 -19.1382
| 33> H 	 -56.7966 	 2.3007 	 -18.6594
| 34> H 	 -55.6816 	 1.87892 	 -19.8732
| 35> C 	 -55.4239 	 0.818107 	 -18.0812
| 36> H 	 -54.6694 	 1.51927 	 -17.7082
| 37> H 	 -54.8453 	 0.161944 	 -18.7243
| 38> H 	 -55.8301 	 0.22551 	 -17.2948
| 39> H 	 -53.7525 	 -1.22525 	 -24.5473
| 40> H 	 -60.6852 	 2.51676 	 -22.4481
| 41> *
| 42>
| 43>                          ****END OF INPUT****

CARTESIAN COORDINATES (ANGSTROEM)
---------------------------------
  S    -55.439400    0.426166  -23.863300
  C    -54.625500   -1.148730  -23.957400
  C    -55.205400   -2.125600  -23.281900
  C    -56.436400   -1.617330  -22.709500
  C    -56.621500   -0.267177  -22.814200
  H    -57.112800   -2.166500  -22.103100
  C    -54.973900   -3.575780  -23.320900
  H    -53.893700   -3.747130  -23.489000
  H    -55.443700   -3.920210  -24.189200
  C    -55.248400   -4.419990  -22.098700
  H    -54.922500   -4.022020  -21.167600
  H    -56.325600   -4.525350  -22.066800
  C    -54.624700   -5.860910  -22.047000
  H    -53.540600   -5.768580  -22.172500
  H    -54.767200   -6.386210  -21.077000
  H    -54.932000   -6.450300  -22.896000
  S    -59.001800    1.040460  -23.394800
  C    -59.842100    1.938030  -22.182900
  C    -59.153000    1.806520  -20.968000
  C    -58.078600    0.869363  -20.941600
  C    -57.759800    0.504707  -22.290000
  H    -59.532300    2.308490  -20.097200
  C    -57.328800    0.483434  -19.678000
  H    -56.920200   -0.472232  -20.010700
  H    -58.013200    0.113815  -18.897600
  C    -56.286300    1.498220  -19.138200
  H    -56.796600    2.300700  -18.659400
  H    -55.681600    1.878920  -19.873200
  C    -55.423900    0.818107  -18.081200
  H    -54.669400    1.519270  -17.708200
  H    -54.845300    0.161944  -18.724300
  H    -55.830100    0.225510  -17.294800
  H    -53.752500   -1.225250  -24.547300
  H    -60.685200    2.516760  -22.448100

 Total Charge           Charge          ....    0
 Multiplicity           Mult            ....    1
 Number of Electrons    NEL             ....  134
 Basis Dimension        Dim             ....  322

ORBITAL ENERGIES
----------------

  NO   OCC          E(Eh)            E(eV)
   0   2.0000     -88.963592     -2420.8224
   1   2.0000     -88.962133     -2420.7827
   2   2.0000     -10.327567      -281.0274
   3   2.0000     -10.323757      -280.9237
   4   2.0000     -10.313730      -280.6509
   5   2.0000     -10.307076      -280.4698
   6   2.0000     -10.306195      -280.4458
   7   2.0000     -10.295575      -280.1568
   8   2.0000     -10.291906      -280.0570
   9   2.0000     -10.291563      -280.0477
  10   2.0000     -10.288726      -279.9705
  11   2.0000     -10.287152      -279.9276
  12   2.0000     -10.286530      -279.9107
  13   2.0000     -10.284689      -279.8606
  14   2.0000     -10.278436      -279.6905
  15   2.0000     -10.270995      -279.4880
  16   2.0000      -8.078731      -219.8335
  17   2.0000      -8.077425      -219.7979
  18   2.0000      -6.037052      -164.2765
  19   2.0000      -6.035945      -164.2464
  20   2.0000      -6.032989      -164.1660
  21   2.0000      -6.032013      -164.1394
  22   2.0000      -6.029873      -164.0812
  23   2.0000      -6.027981      -164.0297
  24   2.0000      -1.007225       -27.4080
  25   2.0000      -0.984832       -26.7986
  26   2.0000      -0.918973       -25.0065
  27   2.0000      -0.909191       -24.7404
  28   2.0000      -0.870251       -23.6807
  29   2.0000      -0.853190       -23.2165
  30   2.0000      -0.845246       -23.0003
  31   2.0000      -0.811749       -22.0888
  32   2.0000      -0.787076       -21.4174
  33   2.0000      -0.773171       -21.0391
  34   2.0000      -0.712532       -19.3890
  35   2.0000      -0.706706       -19.2304
  36   2.0000      -0.692890       -18.8545
  37   2.0000      -0.656081       -17.8529
  38   2.0000      -0.647838       -17.6286
  39   2.0000      -0.621887       -16.9224
  40   2.0000      -0.596942       -16.2436
  41   2.0000      -0.579572       -15.7710
  42   2.0000      -0.569885       -15.5074
  43   2.0000      -0.561061       -15.2672
  44   2.0000      -0.534243       -14.5375
  45   2.0000      -0.529154       -14.3990
  46   2.0000      -0.516012       -14.0414
  47   2.0000      -0.513834       -13.9821
  48   2.0000      -0.508526       -13.8377
  49   2.0000      -0.494868       -13.4660
  50   2.0000      -0.488868       -13.3028
  51   2.0000      -0.484695       -13.1892
  52   2.0000      -0.467938       -12.7332
  53   2.0000      -0.464043       -12.6272
  54   2.0000      -0.457994       -12.4627
  55   2.0000      -0.453136       -12.3304
  56   2.0000      -0.445494       -12.1225
  57   2.0000      -0.440496       -11.9865
  58   2.0000      -0.434937       -11.8352
  59   2.0000      -0.424244       -11.5443
  60   2.0000      -0.422453       -11.4955
  61   2.0000      -0.412287       -11.2189
  62   2.0000      -0.409133       -11.1331
  63   2.0000      -0.333517        -9.0755
  64   2.0000      -0.333253        -9.0683
  65   2.0000      -0.325221        -8.8497
  66   2.0000      -0.301332        -8.1996
  67   0.0000       0.040720         1.1080
  68   0.0000       0.065238         1.7752
  69   0.0000       0.118095         3.2135
  70   0.0000       0.121945         3.3183
  71   0.0000       0.131545         3.5795

MULLIKEN ATOMIC CHARGES
-----------------------
   0 S :    0.104860
   1 C :   -0.135210
   2 C :   -0.021488
   3 C :    0.038463
   4 C :   -0.169682
   5 H :    0.000151
   6 C :    0.083849
   7 H :    0.010658
   8 H :    0.036922
   9 C :   -0.083682
  10 H :    0.026748
  11 H :    0.032052
  12 C :   -0.065828
  13 H :    0.025083
  14 H :    0.050292
  15 H :    0.029932
  16 S :    0.116842
  17 C :   -0.093813
  18 C :   -0.020586
  19 C :   -0.039241
  20 C :   -0.186592
  21 H :    0.011578
  22 C :    0.055876
  23 H :    0.004919
  24 H :    0.029507
  25 C :    0.012281
  26 H :    0.020164
  27 H :    0.016729
  28 C :   -0.052743
  29 H :    0.030968
  30 H :    0.018812
  31 H :    0.033840
  32 H :    0.026284
  33 H :    0.052056
Sum of atomic charges:   -0.0000000

LOEWDIN ATOMIC CHARGES
----------------------
   0 S :    0.395949
   1 C :   -0.170196
   2 C :   -0.063803
   3 C :   -0.054910
   4 C :   -0.204695
   5 H :    0.021796
   6 C :   -0.030379
   7 H :    0.032657
   8 H :    0.033213
   9 C :   -0.038887
  10 H :    0.023011
  11 H :    0.020801
  12 C :   -0.065185
  13 H :    0.023041
  14 H :    0.034344
  15 H :    0.020900
  16 S :    0.425151
  17 C :   -0.192786
  18 C :   -0.069890
  19 C :   -0.051417
  20 C :   -0.210185
  21 H :    0.025823
  22 C :   -0.035938
  23 H :    0.029141
  24 H :    0.035804
  25 C :   -0.019019
  26 H :    0.018684
  27 H :    0.018589
  28 C :   -0.064615
  29 H :    0.027616
  30 H :    0.026791
  31 H :    0.020487
  32 H :    0.016606
  33 H :    0.021504

  Mayer bond orders larger than 0.100000
B(  0-S ,  1-C ) :   1.1233 B(  0-S ,  4-C ) :   1.1399 B(  1-C ,  2-C ) :   1.6571
B(  1-C , 32-H ) :   0.9739 B(  2-C ,  3-C ) :   1.1834 B(  2-C ,  6-C ) :   1.0365
B(  3-C ,  4-C ) :   1.6375 B(  3-C ,  5-H ) :   0.9903 B(  4-C , 20-C ) :   1.0081
B(  6-C ,  7-H ) :   0.9338 B(  6-C ,  8-H ) :   0.9326 B(  6-C ,  9-C ) :   1.0574
B(  9-C , 10-H ) :   0.9634 B(  9-C , 11-H ) :   0.9485 B(  9-C , 12-C ) :   1.0856
B( 12-C , 13-H ) :   0.9736 B( 12-C , 14-H ) :   0.9760 B( 12-C , 15-H ) :   0.9762
B( 16-S , 17-C ) :   1.1698 B( 16-S , 20-C ) :   1.1860 B( 17-C , 18-C ) :   1.5556
B( 17-C , 20-C ) :   0.1145 B( 17-C , 33-H ) :   0.9790 B( 18-C , 19-C ) :   1.2777
B( 18-C , 21-H ) :   0.9913 B( 19-C , 20-C ) :   1.5355 B( 19-C , 22-C ) :   1.0452
B( 22-C , 23-H ) :   0.9285 B( 22-C , 24-H ) :   0.9304 B( 22-C , 25-C ) :   1.0590
B( 25-C , 26-H ) :   0.9540 B( 25-C , 27-H ) :   0.9559 B( 25-C , 28-C ) :   1.0772
B( 28-C , 29-H ) :   0.9725 B( 28-C , 30-H ) :   0.9787 B( 28-C , 31-H ) :   0.9784

Dispersion correction           -0.013741818
FINAL SINGLE POINT ENERGY     -1339.864821229021

DIPOLE MOMENT
-------------
                                X             Y             Z
Electronic contribution:    -11.63111      17.88273     -19.27982
Nuclear contribution   :     11.76386     -18.31965      19.66038
                        -----------------------------------------
Total Dipole Moment    :      0.13275      -0.43692       0.38056
                        -----------------------------------------
Magnitude (a.u.)       :      0.59443
Magnitude (Debye)      :      1.51092

Rotational constants in cm-1:     0.016812     0.008373     0.006920
Rotational constants in MHz :   503.999753   251.012861   207.465307

                             ****ORCA TERMINATED NORMALLY****
TOTAL RUN TIME: 0 days 0 hours 0 minutes 21 seconds 231 msec
