                         Program Version 4.2.1 -  RELEASE  -
|  1> ! wB97X-D3 SP def2-SVP
|  2> %pal
|  3> nprocs 24
|  4> end
|  5>
|  6> * xyz 0 1
|  7> S 	 45.472 	 -19.4402 	 -110.733
|  8> C 	 45.5973 	 -18.6546 	 -109.266
|  9> C 	 45.1638 	 -19.4375 	 -108.166
| 10> C 	 44.6442 	 -20.6865 	 -108.582
| 11> C 	 44.8254 	 -20.9146 	 -109.967
| 12> H 	 44.1047 	 -21.4878 	 -107.987
| 13> C 	 45.1774 	 -19.0102 	 -106.77
| 14> H 	 44.4954 	 -19.6246 	 -106.183
| 15> H 	 44.8568 	 -18.0212 	 -106.743
| 16> C 	 46.5335 	 -19.0132 	 -106.103
| 17> H 	 46.8897 	 -20.088 	 -106.045
| 18> H 	 47.2318 	 -18.3868 	 -106.643
| 19> C 	 46.4557 	 -18.3803 	 -104.713
| 20> H 	 46.2321 	 -19.0212 	 -103.857
| 21> H 	 47.4004 	 -17.9399 	 -104.468
| 22> H 	 45.7016 	 -17.5346 	 -104.664
| 23> S 	 46.2304 	 -22.7615 	 -111.32
| 24> C 	 45.409 	 -24.2414 	 -111.965
| 25> C 	 44.0061 	 -24.1818 	 -111.836
| 26> C 	 43.6225 	 -23.0746 	 -110.953
| 27> C 	 44.6717 	 -22.1712 	 -110.719
| 28> H 	 43.3389 	 -24.8987 	 -112.302
| 29> C 	 42.3125 	 -22.877 	 -110.358
| 30> H 	 42.2723 	 -22.686 	 -109.293
| 31> H 	 41.8455 	 -23.871 	 -110.366
| 32> C 	 41.5003 	 -21.789 	 -111.196
| 33> H 	 41.4631 	 -22.0722 	 -112.208
| 34> H 	 42.0327 	 -20.885 	 -111.092
| 35> C 	 40.044 	 -21.6412 	 -110.744
| 36> H 	 39.867 	 -21.0613 	 -109.756
| 37> H 	 39.5045 	 -22.6315 	 -110.659
| 38> H 	 39.4918 	 -21.0521 	 -111.405
| 39> H 	 45.9579 	 -17.6512 	 -109.297
| 40> H 	 45.8317 	 -25.0876 	 -112.535
| 41> *
| 42>
| 43>                          ****END OF INPUT****

CARTESIAN COORDINATES (ANGSTROEM)
---------------------------------
  S     45.472000  -19.440200  -110.733000
  C     45.597300  -18.654600  -109.266000
  C     45.163800  -19.437500  -108.166000
  C     44.644200  -20.686500  -108.582000
  C     44.825400  -20.914600  -109.967000
  H     44.104700  -21.487800  -107.987000
  C     45.177400  -19.010200  -106.770000
  H     44.495400  -19.624600  -106.183000
  H     44.856800  -18.021200  -106.743000
  C     46.533500  -19.013200  -106.103000
  H     46.889700  -20.088000  -106.045000
  H     47.231800  -18.386800  -106.643000
  C     46.455700  -18.380300  -104.713000
  H     46.232100  -19.021200  -103.857000
  H     47.400400  -17.939900  -104.468000
  H     45.701600  -17.534600  -104.664000
  S     46.230400  -22.761500  -111.320000
  C     45.409000  -24.241400  -111.965000
  C     44.006100  -24.181800  -111.836000
  C     43.622500  -23.074600  -110.953000
  C     44.671700  -22.171200  -110.719000
  H     43.338900  -24.898700  -112.302000
  C     42.312500  -22.877000  -110.358000
  H     42.272300  -22.686000  -109.293000
  H     41.845500  -23.871000  -110.366000
  C     41.500300  -21.789000  -111.196000
  H     41.463100  -22.072200  -112.208000
  H     42.032700  -20.885000  -111.092000
  C     40.044000  -21.641200  -110.744000
  H     39.867000  -21.061300  -109.756000
  H     39.504500  -22.631500  -110.659000
  H     39.491800  -21.052100  -111.405000
  H     45.957900  -17.651200  -109.297000
  H     45.831700  -25.087600  -112.535000

 Total Charge           Charge          ....    0
 Multiplicity           Mult            ....    1
 Number of Electrons    NEL             ....  134
 Basis Dimension        Dim             ....  322

ORBITAL ENERGIES
----------------

  NO   OCC          E(Eh)            E(eV)
   0   2.0000     -88.968644     -2420.9599
   1   2.0000     -88.965353     -2420.8703
   2   2.0000     -10.331835      -281.1435
   3   2.0000     -10.326539      -280.9994
   4   2.0000     -10.324647      -280.9479
   5   2.0000     -10.310722      -280.5690
   6   2.0000     -10.304527      -280.4004
   7   2.0000     -10.302629      -280.3488
   8   2.0000     -10.302223      -280.3377
   9   2.0000     -10.300250      -280.2840
  10   2.0000     -10.287835      -279.9462
  11   2.0000     -10.287186      -279.9286
  12   2.0000     -10.281283      -279.7679
  13   2.0000     -10.279793      -279.7274
  14   2.0000     -10.278813      -279.7007
  15   2.0000     -10.278180      -279.6835
  16   2.0000      -8.084189      -219.9820
  17   2.0000      -8.078580      -219.8293
  18   2.0000      -6.042365      -164.4211
  19   2.0000      -6.038411      -164.3135
  20   2.0000      -6.037317      -164.2838
  21   2.0000      -6.035423      -164.2322
  22   2.0000      -6.033344      -164.1756
  23   2.0000      -6.029114      -164.0605
  24   2.0000      -1.002824       -27.2882
  25   2.0000      -0.976261       -26.5654
  26   2.0000      -0.919417       -25.0186
  27   2.0000      -0.904056       -24.6006
  28   2.0000      -0.864461       -23.5232
  29   2.0000      -0.855804       -23.2876
  30   2.0000      -0.845368       -23.0036
  31   2.0000      -0.812804       -22.1175
  32   2.0000      -0.777756       -21.1638
  33   2.0000      -0.760388       -20.6912
  34   2.0000      -0.706896       -19.2356
  35   2.0000      -0.698835       -19.0163
  36   2.0000      -0.689489       -18.7619
  37   2.0000      -0.663186       -18.0462
  38   2.0000      -0.647982       -17.6325
  39   2.0000      -0.617573       -16.8050
  40   2.0000      -0.591321       -16.0907
  41   2.0000      -0.575554       -15.6616
  42   2.0000      -0.564618       -15.3641
  43   2.0000      -0.555253       -15.1092
  44   2.0000      -0.523637       -14.2489
  45   2.0000      -0.520937       -14.1754
  46   2.0000      -0.516411       -14.0523
  47   2.0000      -0.509743       -13.8708
  48   2.0000      -0.500654       -13.6235
  49   2.0000      -0.498593       -13.5674
  50   2.0000      -0.489409       -13.3175
  51   2.0000      -0.475625       -12.9424
  52   2.0000      -0.473167       -12.8755
  53   2.0000      -0.459033       -12.4909
  54   2.0000      -0.452286       -12.3073
  55   2.0000      -0.448330       -12.1997
  56   2.0000      -0.442135       -12.0311
  57   2.0000      -0.433830       -11.8051
  58   2.0000      -0.430564       -11.7162
  59   2.0000      -0.429109       -11.6767
  60   2.0000      -0.425058       -11.5664
  61   2.0000      -0.421900       -11.4805
  62   2.0000      -0.415307       -11.3011
  63   2.0000      -0.345780        -9.4091
  64   2.0000      -0.326884        -8.8950
  65   2.0000      -0.319838        -8.7032
  66   2.0000      -0.286599        -7.7988
  67   0.0000       0.033062         0.8997
  68   0.0000       0.056923         1.5490
  69   0.0000       0.111737         3.0405
  70   0.0000       0.114281         3.1097
  71   0.0000       0.116325         3.1654

MULLIKEN ATOMIC CHARGES
-----------------------
   0 S :    0.134078
   1 C :   -0.124555
   2 C :   -0.077472
   3 C :    0.029719
   4 C :   -0.194237
   5 H :    0.042951
   6 C :    0.105352
   7 H :    0.016935
   8 H :    0.001685
   9 C :   -0.075553
  10 H :    0.042469
  11 H :    0.025317
  12 C :   -0.054239
  13 H :    0.034586
  14 H :    0.023442
  15 H :    0.026733
  16 S :    0.103194
  17 C :   -0.101100
  18 C :   -0.034187
  19 C :   -0.040048
  20 C :   -0.156267
  21 H :    0.028583
  22 C :    0.044279
  23 H :    0.024609
  24 H :    0.008913
  25 C :   -0.025001
  26 H :    0.020406
  27 H :    0.032801
  28 C :   -0.063451
  29 H :    0.035756
  30 H :    0.035109
  31 H :    0.018699
  32 H :    0.045223
  33 H :    0.065272
Sum of atomic charges:    0.0000000

LOEWDIN ATOMIC CHARGES
----------------------
   0 S :    0.441434
   1 C :   -0.220016
   2 C :   -0.064539
   3 C :   -0.062109
   4 C :   -0.205306
   5 H :    0.045434
   6 C :   -0.033871
   7 H :    0.031178
   8 H :    0.022366
   9 C :   -0.035741
  10 H :    0.033432
  11 H :    0.022530
  12 C :   -0.072313
  13 H :    0.024717
  14 H :    0.022288
  15 H :    0.028518
  16 S :    0.379273
  17 C :   -0.178461
  18 C :   -0.065030
  19 C :   -0.054860
  20 C :   -0.194998
  21 H :    0.033746
  22 C :   -0.038531
  23 H :    0.029383
  24 H :    0.029764
  25 C :   -0.019553
  26 H :    0.021071
  27 H :    0.022429
  28 C :   -0.075436
  29 H :    0.032523
  30 H :    0.029310
  31 H :    0.014901
  32 H :    0.021303
  33 H :    0.035165

  Mayer bond orders larger than 0.100000
B(  0-S ,  1-C ) :   1.1873 B(  0-S ,  4-C ) :   1.1740 B(  1-C ,  2-C ) :   1.5176
B(  1-C ,  4-C ) :   0.1108 B(  1-C , 32-H ) :   0.9763 B(  2-C ,  3-C ) :   1.2958
B(  2-C ,  6-C ) :   1.0453 B(  3-C ,  4-C ) :   1.5285 B(  3-C ,  5-H ) :   0.9804
B(  4-C , 20-C ) :   1.0230 B(  6-C ,  7-H ) :   0.9382 B(  6-C ,  8-H ) :   0.9206
B(  6-C ,  9-C ) :   1.0800 B(  9-C , 10-H ) :   0.9526 B(  9-C , 11-H ) :   0.9584
B(  9-C , 12-C ) :   1.0731 B( 12-C , 13-H ) :   0.9752 B( 12-C , 14-H ) :   0.9764
B( 12-C , 15-H ) :   0.9728 B( 16-S , 17-C ) :   1.1328 B( 16-S , 20-C ) :   1.1266
B( 17-C , 18-C ) :   1.6461 B( 17-C , 33-H ) :   0.9611 B( 18-C , 19-C ) :   1.2081
B( 18-C , 21-H ) :   0.9822 B( 19-C , 20-C ) :   1.6107 B( 19-C , 22-C ) :   1.0712
B( 22-C , 23-H ) :   0.9381 B( 22-C , 24-H ) :   0.9246 B( 22-C , 25-C ) :   1.0436
B( 25-C , 26-H ) :   0.9558 B( 25-C , 27-H ) :   0.9593 B( 25-C , 28-C ) :   1.0855
B( 28-C , 29-H ) :   0.9726 B( 28-C , 30-H ) :   0.9742 B( 28-C , 31-H ) :   0.9736

Dispersion correction           -0.013965395
FINAL SINGLE POINT ENERGY     -1339.859933758829

DIPOLE MOMENT
-------------
                                X             Y             Z
Electronic contribution:     13.94786      -5.56864     -18.47876
Nuclear contribution   :    -14.31449       5.59494      18.81388
                        -----------------------------------------
Total Dipole Moment    :     -0.36663       0.02631       0.33512
                        -----------------------------------------
Magnitude (a.u.)       :      0.49741
Magnitude (Debye)      :      1.26431

Rotational constants in cm-1:     0.019246     0.007760     0.006607
Rotational constants in MHz :   576.980231   232.641895   198.071553

                             ****ORCA TERMINATED NORMALLY****
TOTAL RUN TIME: 0 days 0 hours 0 minutes 20 seconds 992 msec
