                         Program Version 4.2.1 -  RELEASE  -
|  1> ! wB97X-D3 SP def2-SVP
|  2> %pal
|  3> nprocs 24
|  4> end
|  5>
|  6> * xyz 0 1
|  7> S 	 -70.6741 	 3.65084 	 -110.549
|  8> C 	 -71.2026 	 3.83333 	 -108.927
|  9> C 	 -70.0762 	 4.11429 	 -108.168
| 10> C 	 -68.8557 	 4.16066 	 -108.931
| 11> C 	 -68.9832 	 3.87934 	 -110.286
| 12> H 	 -67.9021 	 4.43547 	 -108.526
| 13> C 	 -70.1436 	 4.45025 	 -106.653
| 14> H 	 -70.1776 	 5.49841 	 -106.529
| 15> H 	 -69.1669 	 4.13791 	 -106.235
| 16> C 	 -71.4079 	 3.78553 	 -105.894
| 17> H 	 -72.3425 	 3.92673 	 -106.539
| 18> H 	 -71.3172 	 2.68178 	 -105.785
| 19> C 	 -71.532 	 4.37697 	 -104.59
| 20> H 	 -72.2038 	 3.88199 	 -103.907
| 21> H 	 -70.589 	 4.33335 	 -104.115
| 22> H 	 -71.8812 	 5.41258 	 -104.728
| 23> S 	 -68.5554 	 4.99548 	 -112.649
| 24> C 	 -67.0806 	 4.73114 	 -113.572
| 25> C 	 -66.2123 	 3.95627 	 -112.855
| 26> C 	 -66.6677 	 3.64708 	 -111.537
| 27> C 	 -68.0248 	 4.03685 	 -111.343
| 28> H 	 -65.2993 	 3.63515 	 -113.329
| 29> C 	 -65.8118 	 2.80203 	 -110.634
| 30> H 	 -66.4767 	 2.70508 	 -109.777
| 31> H 	 -64.9603 	 3.42555 	 -110.373
| 32> C 	 -65.2444 	 1.47854 	 -111.187
| 33> H 	 -64.6987 	 1.56092 	 -112.143
| 34> H 	 -66.1342 	 0.965951 	 -111.523
| 35> C 	 -64.4059 	 0.852384 	 -110.074
| 36> H 	 -63.97 	 -0.115698 	 -110.139
| 37> H 	 -64.945 	 0.81396 	 -109.07
| 38> H 	 -63.4989 	 1.37116 	 -109.922
| 39> H 	 -72.1851 	 3.89526 	 -108.655
| 40> H 	 -66.8635 	 4.94644 	 -114.612
| 41> *
| 42>
| 43>                          ****END OF INPUT****

CARTESIAN COORDINATES (ANGSTROEM)
---------------------------------
  S    -70.674100    3.650840  -110.549000
  C    -71.202600    3.833330  -108.927000
  C    -70.076200    4.114290  -108.168000
  C    -68.855700    4.160660  -108.931000
  C    -68.983200    3.879340  -110.286000
  H    -67.902100    4.435470  -108.526000
  C    -70.143600    4.450250  -106.653000
  H    -70.177600    5.498410  -106.529000
  H    -69.166900    4.137910  -106.235000
  C    -71.407900    3.785530  -105.894000
  H    -72.342500    3.926730  -106.539000
  H    -71.317200    2.681780  -105.785000
  C    -71.532000    4.376970  -104.590000
  H    -72.203800    3.881990  -103.907000
  H    -70.589000    4.333350  -104.115000
  H    -71.881200    5.412580  -104.728000
  S    -68.555400    4.995480  -112.649000
  C    -67.080600    4.731140  -113.572000
  C    -66.212300    3.956270  -112.855000
  C    -66.667700    3.647080  -111.537000
  C    -68.024800    4.036850  -111.343000
  H    -65.299300    3.635150  -113.329000
  C    -65.811800    2.802030  -110.634000
  H    -66.476700    2.705080  -109.777000
  H    -64.960300    3.425550  -110.373000
  C    -65.244400    1.478540  -111.187000
  H    -64.698700    1.560920  -112.143000
  H    -66.134200    0.965951  -111.523000
  C    -64.405900    0.852384  -110.074000
  H    -63.970000   -0.115698  -110.139000
  H    -64.945000    0.813960  -109.070000
  H    -63.498900    1.371160  -109.922000
  H    -72.185100    3.895260  -108.655000
  H    -66.863500    4.946440  -114.612000

 Total Charge           Charge          ....    0
 Multiplicity           Mult            ....    1
 Number of Electrons    NEL             ....  134
 Basis Dimension        Dim             ....  322

ORBITAL ENERGIES
----------------

  NO   OCC          E(Eh)            E(eV)
   0   2.0000     -88.965736     -2420.8808
   1   2.0000     -88.962267     -2420.7864
   2   2.0000     -10.330025      -281.0943
   3   2.0000     -10.328767      -281.0600
   4   2.0000     -10.313428      -280.6426
   5   2.0000     -10.308560      -280.5102
   6   2.0000     -10.304840      -280.4090
   7   2.0000     -10.304334      -280.3952
   8   2.0000     -10.297810      -280.2177
   9   2.0000     -10.294792      -280.1355
  10   2.0000     -10.294183      -280.1190
  11   2.0000     -10.291295      -280.0404
  12   2.0000     -10.289679      -279.9964
  13   2.0000     -10.288303      -279.9590
  14   2.0000     -10.277683      -279.6700
  15   2.0000     -10.269776      -279.4548
  16   2.0000      -8.080931      -219.8933
  17   2.0000      -8.078039      -219.8146
  18   2.0000      -6.039469      -164.3423
  19   2.0000      -6.036539      -164.2626
  20   2.0000      -6.035238      -164.2272
  21   2.0000      -6.032097      -164.1417
  22   2.0000      -6.031731      -164.1317
  23   2.0000      -6.029010      -164.0577
  24   2.0000      -1.014035       -27.5933
  25   2.0000      -0.988635       -26.9021
  26   2.0000      -0.914164       -24.8757
  27   2.0000      -0.910755       -24.7829
  28   2.0000      -0.880136       -23.9497
  29   2.0000      -0.852506       -23.1979
  30   2.0000      -0.847854       -23.0713
  31   2.0000      -0.821191       -22.3457
  32   2.0000      -0.778074       -21.1725
  33   2.0000      -0.768980       -20.9250
  34   2.0000      -0.716779       -19.5045
  35   2.0000      -0.707758       -19.2591
  36   2.0000      -0.693672       -18.8758
  37   2.0000      -0.662207       -18.0196
  38   2.0000      -0.647849       -17.6289
  39   2.0000      -0.616395       -16.7730
  40   2.0000      -0.593017       -16.1368
  41   2.0000      -0.575629       -15.6636
  42   2.0000      -0.570100       -15.5132
  43   2.0000      -0.564066       -15.3490
  44   2.0000      -0.529150       -14.3989
  45   2.0000      -0.526843       -14.3361
  46   2.0000      -0.522912       -14.2292
  47   2.0000      -0.519229       -14.1289
  48   2.0000      -0.513914       -13.9843
  49   2.0000      -0.503793       -13.7089
  50   2.0000      -0.497898       -13.5485
  51   2.0000      -0.480765       -13.0823
  52   2.0000      -0.476458       -12.9651
  53   2.0000      -0.466402       -12.6915
  54   2.0000      -0.458297       -12.4709
  55   2.0000      -0.451322       -12.2811
  56   2.0000      -0.444399       -12.0927
  57   2.0000      -0.434665       -11.8278
  58   2.0000      -0.427414       -11.6305
  59   2.0000      -0.421807       -11.4780
  60   2.0000      -0.417003       -11.3472
  61   2.0000      -0.414943       -11.2912
  62   2.0000      -0.409075       -11.1315
  63   2.0000      -0.355435        -9.6719
  64   2.0000      -0.328375        -8.9355
  65   2.0000      -0.325367        -8.8537
  66   2.0000      -0.290478        -7.9043
  67   0.0000       0.025852         0.7035
  68   0.0000       0.079112         2.1528
  69   0.0000       0.119968         3.2645
  70   0.0000       0.126726         3.4484
  71   0.0000       0.132258         3.5989

MULLIKEN ATOMIC CHARGES
-----------------------
   0 S :    0.102296
   1 C :   -0.094270
   2 C :   -0.095374
   3 C :    0.036572
   4 C :   -0.145109
   5 H :    0.002470
   6 C :    0.059816
   7 H :    0.032929
   8 H :    0.029399
   9 C :   -0.118344
  10 H :    0.034776
  11 H :    0.040023
  12 C :   -0.006153
  13 H :    0.026123
  14 H :    0.020233
  15 H :    0.032605
  16 S :    0.114166
  17 C :   -0.083152
  18 C :   -0.048701
  19 C :   -0.046462
  20 C :   -0.150407
  21 H :    0.015987
  22 C :    0.064882
  23 H :    0.019694
  24 H :    0.028266
  25 C :   -0.053881
  26 H :    0.032945
  27 H :    0.031895
  28 C :   -0.029877
  29 H :    0.018208
  30 H :    0.036888
  31 H :    0.015171
  32 H :    0.022558
  33 H :    0.053828
Sum of atomic charges:    0.0000000

LOEWDIN ATOMIC CHARGES
----------------------
   0 S :    0.433182
   1 C :   -0.197378
   2 C :   -0.062812
   3 C :   -0.067849
   4 C :   -0.209194
   5 H :    0.024950
   6 C :   -0.023665
   7 H :    0.025427
   8 H :    0.031537
   9 C :   -0.044315
  10 H :    0.026045
  11 H :    0.028378
  12 C :   -0.066077
  13 H :    0.024748
  14 H :    0.022565
  15 H :    0.029550
  16 S :    0.429579
  17 C :   -0.190431
  18 C :   -0.069641
  19 C :   -0.057288
  20 C :   -0.213830
  21 H :    0.030152
  22 C :   -0.032870
  23 H :    0.030542
  24 H :    0.031645
  25 C :   -0.039212
  26 H :    0.027059
  27 H :    0.026145
  28 C :   -0.071689
  29 H :    0.022185
  30 H :    0.036353
  31 H :    0.022266
  32 H :    0.011006
  33 H :    0.032939

  Mayer bond orders larger than 0.100000
B(  0-S ,  1-C ) :   1.1536 B(  0-S ,  4-C ) :   1.1710 B(  1-C ,  2-C ) :   1.5572
B(  1-C , 32-H ) :   0.9899 B(  2-C ,  3-C ) :   1.2899 B(  2-C ,  6-C ) :   1.0023
B(  3-C ,  4-C ) :   1.5175 B(  3-C ,  5-H ) :   0.9971 B(  4-C , 20-C ) :   1.0576
B(  6-C ,  7-H ) :   0.9462 B(  6-C ,  8-H ) :   0.9439 B(  6-C ,  9-C ) :   1.0510
B(  9-C , 10-H ) :   0.9535 B(  9-C , 11-H ) :   0.9551 B(  9-C , 12-C ) :   1.0998
B( 12-C , 13-H ) :   0.9670 B( 12-C , 14-H ) :   0.9660 B( 12-C , 15-H ) :   0.9718
B( 16-S , 17-C ) :   1.1434 B( 16-S , 20-C ) :   1.1678 B( 17-C , 18-C ) :   1.6221
B( 17-C , 33-H ) :   0.9645 B( 18-C , 19-C ) :   1.2452 B( 18-C , 21-H ) :   0.9895
B( 19-C , 20-C ) :   1.5384 B( 19-C , 22-C ) :   1.0527 B( 22-C , 23-H ) :   0.9337
B( 22-C , 24-H ) :   0.9245 B( 22-C , 25-C ) :   1.0558 B( 25-C , 26-H ) :   0.9525
B( 25-C , 27-H ) :   0.9577 B( 25-C , 28-C ) :   1.0679 B( 28-C , 29-H ) :   0.9728
B( 28-C , 30-H ) :   0.9746 B( 28-C , 31-H ) :   0.9715

Dispersion correction           -0.013050163
FINAL SINGLE POINT ENERGY     -1339.858892722527

DIPOLE MOMENT
-------------
                                X             Y             Z
Electronic contribution:     -9.07056       9.19296     -23.19445
Nuclear contribution   :      9.46423      -9.26342      23.63661
                        -----------------------------------------
Total Dipole Moment    :      0.39367      -0.07046       0.44216
                        -----------------------------------------
Magnitude (a.u.)       :      0.59620
Magnitude (Debye)      :      1.51541

Rotational constants in cm-1:     0.020134     0.007220     0.005719
Rotational constants in MHz :   603.589594   216.446158   171.451555

                             ****ORCA TERMINATED NORMALLY****
TOTAL RUN TIME: 0 days 0 hours 0 minutes 20 seconds 744 msec
