                         Program Version 4.2.1 -  RELEASE  -
|  1> ! wB97X-D3 SP def2-SVP
|  2> %pal
|  3> nprocs 24
|  4> end
|  5>
|  6> * xyz 0 1
|  7> S 	 -62.5081 	 13.9469 	 -98.2203
|  8> C 	 -61.3622 	 15.3188 	 -98.1063
|  9> C 	 -60.0476 	 15.0032 	 -98.1964
| 10> C 	 -59.9073 	 13.5419 	 -98.2721
| 11> C 	 -61.0915 	 12.8067 	 -98.393
| 12> H 	 -58.9322 	 13.0504 	 -98.2562
| 13> C 	 -58.9134 	 15.9442 	 -98.2538
| 14> H 	 -57.9698 	 15.4314 	 -97.871
| 15> H 	 -59.2412 	 16.7617 	 -97.5577
| 16> C 	 -58.4382 	 16.5444 	 -99.5768
| 17> H 	 -59.0706 	 17.4492 	 -99.9162
| 18> H 	 -57.4895 	 17.0386 	 -99.4756
| 19> C 	 -58.2744 	 15.4186 	 -100.584
| 20> H 	 -59.2759 	 14.9531 	 -100.734
| 21> H 	 -58.0173 	 15.8227 	 -101.57
| 22> H 	 -57.569 	 14.6366 	 -100.259
| 23> S 	 -61.7138 	 10.5287 	 -96.9308
| 24> C 	 -61.5752 	 8.90105 	 -97.6756
| 25> C 	 -61.0563 	 9.01386 	 -98.9801
| 26> C 	 -60.7646 	 10.3648 	 -99.3874
| 27> C 	 -61.1699 	 11.3392 	 -98.4289
| 28> H 	 -60.8405 	 8.04244 	 -99.4041
| 29> C 	 -60.4242 	 10.6583 	 -100.757
| 30> H 	 -60.5176 	 11.7263 	 -100.774
| 31> H 	 -61.2703 	 10.3649 	 -101.361
| 32> C 	 -58.9912 	 10.1963 	 -101.25
| 33> H 	 -59.1094 	 10.3892 	 -102.322
| 34> H 	 -58.673 	 9.18721 	 -101.18
| 35> C 	 -57.904 	 10.9862 	 -100.544
| 36> H 	 -58.2013 	 11.9965 	 -100.688
| 37> H 	 -56.9744 	 10.7739 	 -101.052
| 38> H 	 -57.9182 	 10.7122 	 -99.5139
| 39> H 	 -61.7991 	 16.2839 	 -97.9607
| 40> H 	 -61.6662 	 7.97924 	 -97.2128
| 41> *
| 42>
| 43>                          ****END OF INPUT****

CARTESIAN COORDINATES (ANGSTROEM)
---------------------------------
  S    -62.508100   13.946900  -98.220300
  C    -61.362200   15.318800  -98.106300
  C    -60.047600   15.003200  -98.196400
  C    -59.907300   13.541900  -98.272100
  C    -61.091500   12.806700  -98.393000
  H    -58.932200   13.050400  -98.256200
  C    -58.913400   15.944200  -98.253800
  H    -57.969800   15.431400  -97.871000
  H    -59.241200   16.761700  -97.557700
  C    -58.438200   16.544400  -99.576800
  H    -59.070600   17.449200  -99.916200
  H    -57.489500   17.038600  -99.475600
  C    -58.274400   15.418600  -100.584000
  H    -59.275900   14.953100  -100.734000
  H    -58.017300   15.822700  -101.570000
  H    -57.569000   14.636600  -100.259000
  S    -61.713800   10.528700  -96.930800
  C    -61.575200    8.901050  -97.675600
  C    -61.056300    9.013860  -98.980100
  C    -60.764600   10.364800  -99.387400
  C    -61.169900   11.339200  -98.428900
  H    -60.840500    8.042440  -99.404100
  C    -60.424200   10.658300  -100.757000
  H    -60.517600   11.726300  -100.774000
  H    -61.270300   10.364900  -101.361000
  C    -58.991200   10.196300  -101.250000
  H    -59.109400   10.389200  -102.322000
  H    -58.673000    9.187210  -101.180000
  C    -57.904000   10.986200  -100.544000
  H    -58.201300   11.996500  -100.688000
  H    -56.974400   10.773900  -101.052000
  H    -57.918200   10.712200  -99.513900
  H    -61.799100   16.283900  -97.960700
  H    -61.666200    7.979240  -97.212800

 Total Charge           Charge          ....    0
 Multiplicity           Mult            ....    1
 Number of Electrons    NEL             ....  134
 Basis Dimension        Dim             ....  322

ORBITAL ENERGIES
----------------

  NO   OCC          E(Eh)            E(eV)
   0   2.0000     -88.966710     -2420.9073
   1   2.0000     -88.963554     -2420.8214
   2   2.0000     -10.339231      -281.3448
   3   2.0000     -10.333725      -281.1949
   4   2.0000     -10.318410      -280.7782
   5   2.0000     -10.318006      -280.7672
   6   2.0000     -10.305770      -280.4343
   7   2.0000     -10.304059      -280.3877
   8   2.0000     -10.303773      -280.3799
   9   2.0000     -10.300445      -280.2893
  10   2.0000     -10.295245      -280.1479
  11   2.0000     -10.292681      -280.0781
  12   2.0000     -10.284597      -279.8581
  13   2.0000     -10.282443      -279.7995
  14   2.0000     -10.280446      -279.7452
  15   2.0000     -10.269644      -279.4512
  16   2.0000      -8.079903      -219.8653
  17   2.0000      -8.076873      -219.7829
  18   2.0000      -6.038655      -164.3201
  19   2.0000      -6.035555      -164.2358
  20   2.0000      -6.034771      -164.2145
  21   2.0000      -6.031469      -164.1246
  22   2.0000      -6.030350      -164.0942
  23   2.0000      -6.027633      -164.0202
  24   2.0000      -0.992853       -27.0169
  25   2.0000      -0.973650       -26.4944
  26   2.0000      -0.915262       -24.9055
  27   2.0000      -0.911023       -24.7902
  28   2.0000      -0.867732       -23.6122
  29   2.0000      -0.852884       -23.2082
  30   2.0000      -0.842485       -22.9252
  31   2.0000      -0.814599       -22.1664
  32   2.0000      -0.779617       -21.2145
  33   2.0000      -0.768247       -20.9051
  34   2.0000      -0.709257       -19.2999
  35   2.0000      -0.702891       -19.1266
  36   2.0000      -0.700165       -19.0525
  37   2.0000      -0.653158       -17.7733
  38   2.0000      -0.641731       -17.4624
  39   2.0000      -0.611807       -16.6481
  40   2.0000      -0.593084       -16.1386
  41   2.0000      -0.573539       -15.6068
  42   2.0000      -0.561310       -15.2740
  43   2.0000      -0.555892       -15.1266
  44   2.0000      -0.545869       -14.8539
  45   2.0000      -0.539212       -14.6727
  46   2.0000      -0.527486       -14.3536
  47   2.0000      -0.512197       -13.9376
  48   2.0000      -0.497693       -13.5429
  49   2.0000      -0.493010       -13.4155
  50   2.0000      -0.490236       -13.3400
  51   2.0000      -0.474670       -12.9164
  52   2.0000      -0.466145       -12.6845
  53   2.0000      -0.461699       -12.5635
  54   2.0000      -0.453424       -12.3383
  55   2.0000      -0.446258       -12.1433
  56   2.0000      -0.439220       -11.9518
  57   2.0000      -0.437142       -11.8952
  58   2.0000      -0.434888       -11.8339
  59   2.0000      -0.427518       -11.6334
  60   2.0000      -0.419168       -11.4061
  61   2.0000      -0.411267       -11.1912
  62   2.0000      -0.407275       -11.0825
  63   2.0000      -0.336921        -9.1681
  64   2.0000      -0.326492        -8.8843
  65   2.0000      -0.324221        -8.8225
  66   2.0000      -0.301076        -8.1927
  67   0.0000       0.029743         0.8093
  68   0.0000       0.053814         1.4644
  69   0.0000       0.106141         2.8882
  70   0.0000       0.115227         3.1355
  71   0.0000       0.118377         3.2212

MULLIKEN ATOMIC CHARGES
-----------------------
   0 S :    0.091038
   1 C :   -0.127448
   2 C :   -0.064109
   3 C :    0.039403
   4 C :   -0.167444
   5 H :    0.018981
   6 C :    0.027330
   7 H :    0.038016
   8 H :    0.038980
   9 C :   -0.054074
  10 H :    0.033839
  11 H :    0.025304
  12 C :   -0.083614
  13 H :    0.055074
  14 H :    0.033465
  15 H :    0.043848
  16 S :    0.094814
  17 C :   -0.076592
  18 C :   -0.038232
  19 C :   -0.025154
  20 C :   -0.161217
  21 H :    0.023531
  22 C :    0.045564
  23 H :    0.009906
  24 H :    0.039004
  25 C :   -0.071452
  26 H :    0.028806
  27 H :    0.023896
  28 C :   -0.020391
  29 H :    0.020431
  30 H :    0.035053
  31 H :    0.044801
  32 H :    0.043576
  33 H :    0.035067
Sum of atomic charges:    0.0000000

LOEWDIN ATOMIC CHARGES
----------------------
   0 S :    0.352674
   1 C :   -0.161469
   2 C :   -0.073829
   3 C :   -0.043426
   4 C :   -0.186741
   5 H :    0.031663
   6 C :   -0.042855
   7 H :    0.040195
   8 H :    0.039672
   9 C :   -0.046820
  10 H :    0.030136
  11 H :    0.021598
  12 C :   -0.070657
  13 H :    0.032110
  14 H :    0.026253
  15 H :    0.026856
  16 S :    0.376091
  17 C :   -0.161008
  18 C :   -0.069013
  19 C :   -0.054960
  20 C :   -0.193422
  21 H :    0.033257
  22 C :   -0.038146
  23 H :    0.029868
  24 H :    0.037432
  25 C :   -0.032667
  26 H :    0.025575
  27 H :    0.016480
  28 C :   -0.053735
  29 H :    0.019534
  30 H :    0.027580
  31 H :    0.024642
  32 H :    0.021143
  33 H :    0.015988

  Mayer bond orders larger than 0.100000
B(  0-S ,  1-C ) :   1.1292 B(  0-S ,  4-C ) :   1.1029 B(  1-C ,  2-C ) :   1.6424
B(  1-C , 32-H ) :   0.9689 B(  2-C ,  3-C ) :   1.1908 B(  2-C ,  6-C ) :   1.0293
B(  3-C ,  4-C ) :   1.6213 B(  3-C ,  5-H ) :   0.9846 B(  4-C , 20-C ) :   1.0422
B(  6-C ,  7-H ) :   0.9388 B(  6-C ,  8-H ) :   0.9355 B(  6-C ,  9-C ) :   1.0727
B(  9-C , 10-H ) :   0.9523 B(  9-C , 11-H ) :   0.9534 B(  9-C , 12-C ) :   1.0752
B( 12-C , 13-H ) :   0.9704 B( 12-C , 14-H ) :   0.9703 B( 12-C , 15-H ) :   0.9712
B( 16-S , 17-C ) :   1.1445 B( 16-S , 20-C ) :   1.1341 B( 17-C , 18-C ) :   1.6314
B( 17-C , 20-C ) :   0.1016 B( 17-C , 33-H ) :   0.9734 B( 18-C , 19-C ) :   1.2094
B( 18-C , 21-H ) :   0.9906 B( 19-C , 20-C ) :   1.5648 B( 19-C , 22-C ) :   1.0629
B( 22-C , 23-H ) :   0.9320 B( 22-C , 24-H ) :   0.9345 B( 22-C , 25-C ) :   1.0419
B( 25-C , 26-H ) :   0.9578 B( 25-C , 27-H ) :   0.9672 B( 25-C , 28-C ) :   1.0659
B( 28-C , 29-H ) :   0.9760 B( 28-C , 30-H ) :   0.9706 B( 28-C , 31-H ) :   0.9724

Dispersion correction           -0.015962442
FINAL SINGLE POINT ENERGY     -1339.855406112431

DIPOLE MOMENT
-------------
                                X             Y             Z
Electronic contribution:    -21.99331      -6.83454      17.02721
Nuclear contribution   :     22.61491       6.92243     -17.42973
                        -----------------------------------------
Total Dipole Moment    :      0.62160       0.08789      -0.40252
                        -----------------------------------------
Magnitude (a.u.)       :      0.74574
Magnitude (Debye)      :      1.89552

Rotational constants in cm-1:     0.018755     0.009917     0.007244
Rotational constants in MHz :   562.275703   297.290578   217.157785

                             ****ORCA TERMINATED NORMALLY****
TOTAL RUN TIME: 0 days 0 hours 0 minutes 22 seconds 870 msec
