                         Program Version 4.2.1 -  RELEASE  -
|  1> ! wB97X-D3 SP def2-SVP
|  2> %pal
|  3> nprocs 24
|  4> end
|  5>
|  6> * xyz 0 1
|  7> S 	 -123.213 	 52.9873 	 -29.6726
|  8> C 	 -124.412 	 51.9523 	 -30.383
|  9> C 	 -125.114 	 52.5502 	 -31.4065
| 10> C 	 -124.569 	 53.8838 	 -31.6785
| 11> C 	 -123.603 	 54.2781 	 -30.7403
| 12> H 	 -124.848 	 54.5799 	 -32.394
| 13> C 	 -126.245 	 51.9467 	 -32.1306
| 14> H 	 -126.205 	 50.8914 	 -32.2515
| 15> H 	 -126.142 	 52.2264 	 -33.1698
| 16> C 	 -127.56 	 52.4483 	 -31.5841
| 17> H 	 -127.315 	 53.5161 	 -31.4677
| 18> H 	 -128.366 	 52.2484 	 -32.3158
| 19> C 	 -127.981 	 52.0072 	 -30.1992
| 20> H 	 -127.367 	 52.4717 	 -29.4477
| 21> H 	 -129.042 	 52.2964 	 -30.0564
| 22> H 	 -127.941 	 50.9218 	 -30.1318
| 23> S 	 -121.151 	 55.4661 	 -31.0643
| 24> C 	 -121.013 	 57.2069 	 -31.0132
| 25> C 	 -122.27 	 57.7691 	 -30.6782
| 26> C 	 -123.341 	 56.8094 	 -30.574
| 27> C 	 -122.855 	 55.5506 	 -30.6607
| 28> H 	 -122.38 	 58.816 	 -30.6592
| 29> C 	 -124.767 	 57.277 	 -30.4737
| 30> H 	 -125.379 	 56.7097 	 -31.1254
| 31> H 	 -124.824 	 58.2985 	 -30.8101
| 32> C 	 -125.357 	 57.1057 	 -29.0867
| 33> H 	 -125.375 	 56.061 	 -28.6726
| 34> H 	 -126.401 	 57.3836 	 -29.2088
| 35> C 	 -124.724 	 57.9745 	 -27.9507
| 36> H 	 -125.163 	 57.7392 	 -26.9369
| 37> H 	 -124.747 	 59.0358 	 -28.1209
| 38> H 	 -123.665 	 57.6532 	 -27.8596
| 39> H 	 -124.75 	 50.9766 	 -29.985
| 40> H 	 -120.19 	 57.7295 	 -31.4852
| 41> *
| 42>
| 43>                          ****END OF INPUT****

CARTESIAN COORDINATES (ANGSTROEM)
---------------------------------
  S    -123.213000   52.987300  -29.672600
  C    -124.412000   51.952300  -30.383000
  C    -125.114000   52.550200  -31.406500
  C    -124.569000   53.883800  -31.678500
  C    -123.603000   54.278100  -30.740300
  H    -124.848000   54.579900  -32.394000
  C    -126.245000   51.946700  -32.130600
  H    -126.205000   50.891400  -32.251500
  H    -126.142000   52.226400  -33.169800
  C    -127.560000   52.448300  -31.584100
  H    -127.315000   53.516100  -31.467700
  H    -128.366000   52.248400  -32.315800
  C    -127.981000   52.007200  -30.199200
  H    -127.367000   52.471700  -29.447700
  H    -129.042000   52.296400  -30.056400
  H    -127.941000   50.921800  -30.131800
  S    -121.151000   55.466100  -31.064300
  C    -121.013000   57.206900  -31.013200
  C    -122.270000   57.769100  -30.678200
  C    -123.341000   56.809400  -30.574000
  C    -122.855000   55.550600  -30.660700
  H    -122.380000   58.816000  -30.659200
  C    -124.767000   57.277000  -30.473700
  H    -125.379000   56.709700  -31.125400
  H    -124.824000   58.298500  -30.810100
  C    -125.357000   57.105700  -29.086700
  H    -125.375000   56.061000  -28.672600
  H    -126.401000   57.383600  -29.208800
  C    -124.724000   57.974500  -27.950700
  H    -125.163000   57.739200  -26.936900
  H    -124.747000   59.035800  -28.120900
  H    -123.665000   57.653200  -27.859600
  H    -124.750000   50.976600  -29.985000
  H    -120.190000   57.729500  -31.485200

 Total Charge           Charge          ....    0
 Multiplicity           Mult            ....    1
 Number of Electrons    NEL             ....  134
 Basis Dimension        Dim             ....  322

ORBITAL ENERGIES
----------------

  NO   OCC          E(Eh)            E(eV)
   0   2.0000     -88.965832     -2420.8834
   1   2.0000     -88.965665     -2420.8788
   2   2.0000     -10.328850      -281.0623
   3   2.0000     -10.323810      -280.9252
   4   2.0000     -10.321230      -280.8550
   5   2.0000     -10.311519      -280.5907
   6   2.0000     -10.301550      -280.3194
   7   2.0000     -10.301547      -280.3193
   8   2.0000     -10.296272      -280.1758
   9   2.0000     -10.294228      -280.1202
  10   2.0000     -10.289881      -280.0019
  11   2.0000     -10.287839      -279.9463
  12   2.0000     -10.284489      -279.8552
  13   2.0000     -10.282974      -279.8140
  14   2.0000     -10.278663      -279.6966
  15   2.0000     -10.275273      -279.6044
  16   2.0000      -8.081087      -219.8976
  17   2.0000      -8.080686      -219.8866
  18   2.0000      -6.039562      -164.3448
  19   2.0000      -6.039193      -164.3348
  20   2.0000      -6.035379      -164.2310
  21   2.0000      -6.035138      -164.2244
  22   2.0000      -6.031969      -164.1382
  23   2.0000      -6.031475      -164.1248
  24   2.0000      -1.008033       -27.4300
  25   2.0000      -0.985112       -26.8063
  26   2.0000      -0.922093       -25.0914
  27   2.0000      -0.911590       -24.8056
  28   2.0000      -0.865113       -23.5409
  29   2.0000      -0.848754       -23.0958
  30   2.0000      -0.843693       -22.9581
  31   2.0000      -0.811804       -22.0903
  32   2.0000      -0.789107       -21.4727
  33   2.0000      -0.780199       -21.2303
  34   2.0000      -0.705866       -19.2076
  35   2.0000      -0.693109       -18.8605
  36   2.0000      -0.683833       -18.6080
  37   2.0000      -0.668789       -18.1987
  38   2.0000      -0.646086       -17.5809
  39   2.0000      -0.621177       -16.9031
  40   2.0000      -0.598311       -16.2809
  41   2.0000      -0.577732       -15.7209
  42   2.0000      -0.555620       -15.1192
  43   2.0000      -0.548736       -14.9319
  44   2.0000      -0.541885       -14.7454
  45   2.0000      -0.538978       -14.6663
  46   2.0000      -0.522416       -14.2157
  47   2.0000      -0.514641       -14.0041
  48   2.0000      -0.498758       -13.5719
  49   2.0000      -0.495472       -13.4825
  50   2.0000      -0.491197       -13.3661
  51   2.0000      -0.477938       -13.0054
  52   2.0000      -0.470634       -12.8066
  53   2.0000      -0.467197       -12.7131
  54   2.0000      -0.464316       -12.6347
  55   2.0000      -0.447182       -12.1684
  56   2.0000      -0.440296       -11.9811
  57   2.0000      -0.437986       -11.9182
  58   2.0000      -0.435099       -11.8396
  59   2.0000      -0.425069       -11.5667
  60   2.0000      -0.421769       -11.4769
  61   2.0000      -0.413304       -11.2466
  62   2.0000      -0.408607       -11.1188
  63   2.0000      -0.340283        -9.2596
  64   2.0000      -0.332760        -9.0549
  65   2.0000      -0.327832        -8.9208
  66   2.0000      -0.298149        -8.1130
  67   0.0000       0.038765         1.0549
  68   0.0000       0.060557         1.6478
  69   0.0000       0.111031         3.0213
  70   0.0000       0.122391         3.3304
  71   0.0000       0.122609         3.3364

MULLIKEN ATOMIC CHARGES
-----------------------
   0 S :    0.118874
   1 C :   -0.111313
   2 C :   -0.135416
   3 C :    0.075315
   4 C :   -0.191073
   5 H :   -0.013938
   6 C :    0.111630
   7 H :    0.008794
   8 H :    0.014750
   9 C :   -0.093905
  10 H :    0.023911
  11 H :    0.036902
  12 C :   -0.033652
  13 H :    0.040821
  14 H :    0.037710
  15 H :    0.021801
  16 S :    0.114565
  17 C :   -0.106552
  18 C :   -0.026012
  19 C :   -0.048995
  20 C :   -0.158584
  21 H :    0.003027
  22 C :    0.154680
  23 H :    0.007079
  24 H :    0.015412
  25 C :   -0.098044
  26 H :    0.048499
  27 H :    0.024629
  28 C :   -0.078832
  29 H :    0.041915
  30 H :    0.029254
  31 H :    0.042492
  32 H :    0.052952
  33 H :    0.071303
Sum of atomic charges:   -0.0000000

LOEWDIN ATOMIC CHARGES
----------------------
   0 S :    0.422886
   1 C :   -0.210239
   2 C :   -0.059687
   3 C :   -0.057176
   4 C :   -0.201156
   5 H :    0.017133
   6 C :   -0.037623
   7 H :    0.022958
   8 H :    0.035126
   9 C :   -0.043825
  10 H :    0.028088
  11 H :    0.025753
  12 C :   -0.063520
  13 H :    0.024839
  14 H :    0.033057
  15 H :    0.019989
  16 S :    0.410797
  17 C :   -0.189951
  18 C :   -0.060991
  19 C :   -0.053372
  20 C :   -0.205514
  21 H :    0.020331
  22 C :   -0.021888
  23 H :    0.027804
  24 H :    0.031439
  25 C :   -0.040448
  26 H :    0.033966
  27 H :    0.020441
  28 C :   -0.074505
  29 H :    0.032900
  30 H :    0.017118
  31 H :    0.029298
  32 H :    0.034049
  33 H :    0.031924

  Mayer bond orders larger than 0.100000
B(  0-S ,  1-C ) :   1.1337 B(  0-S ,  4-C ) :   1.1701 B(  1-C ,  2-C ) :   1.6329
B(  1-C , 32-H ) :   0.9596 B(  2-C ,  3-C ) :   1.2117 B(  2-C ,  6-C ) :   1.0378
B(  3-C ,  4-C ) :   1.5850 B(  3-C ,  5-H ) :   0.9999 B(  4-C , 20-C ) :   0.9881
B(  6-C ,  7-H ) :   0.9373 B(  6-C ,  8-H ) :   0.9249 B(  6-C ,  9-C ) :   1.0670
B(  9-C , 10-H ) :   0.9546 B(  9-C , 11-H ) :   0.9555 B(  9-C , 12-C ) :   1.0844
B( 12-C , 13-H ) :   0.9730 B( 12-C , 14-H ) :   0.9712 B( 12-C , 15-H ) :   0.9747
B( 16-S , 17-C ) :   1.1621 B( 16-S , 20-C ) :   1.1515 B( 17-C , 18-C ) :   1.5938
B( 17-C , 33-H ) :   0.9683 B( 18-C , 19-C ) :   1.2319 B( 18-C , 21-H ) :   0.9940
B( 19-C , 20-C ) :   1.6260 B( 19-C , 22-C ) :   1.0437 B( 22-C , 23-H ) :   0.9190
B( 22-C , 24-H ) :   0.9293 B( 22-C , 25-C ) :   1.0771 B( 25-C , 26-H ) :   0.9588
B( 25-C , 27-H ) :   0.9553 B( 25-C , 28-C ) :   1.0696 B( 28-C , 29-H ) :   0.9750
B( 28-C , 30-H ) :   0.9775 B( 28-C , 31-H ) :   0.9742

Dispersion correction           -0.015381963
FINAL SINGLE POINT ENERGY     -1339.883791870717

DIPOLE MOMENT
-------------
                                X             Y             Z
Electronic contribution:     25.48617      -3.72953      -3.55222
Nuclear contribution   :    -26.09351       3.99097       3.20991
                        -----------------------------------------
Total Dipole Moment    :     -0.60734       0.26144      -0.34232
                        -----------------------------------------
Magnitude (a.u.)       :      0.74458
Magnitude (Debye)      :      1.89256

Rotational constants in cm-1:     0.020432     0.009061     0.007367
Rotational constants in MHz :   612.543905   271.637574   220.847601

                             ****ORCA TERMINATED NORMALLY****
TOTAL RUN TIME: 0 days 0 hours 0 minutes 22 seconds 515 msec
