                         Program Version 4.2.1 -  RELEASE  -
|  1> ! wB97X-D3 SP def2-SVP
|  2> %pal
|  3> nprocs 24
|  4> end
|  5>
|  6> * xyz 0 1
|  7> S 	 -135.328 	 4.89821 	 -1.25486
|  8> C 	 -133.731 	 5.70376 	 -0.978458
|  9> C 	 -133.439 	 5.67128 	 0.374031
| 10> C 	 -134.511 	 5.26729 	 1.14695
| 11> C 	 -135.631 	 4.9032 	 0.475492
| 12> H 	 -134.519 	 5.23075 	 2.19348
| 13> C 	 -132.157 	 5.9678 	 1.04735
| 14> H 	 -131.323 	 5.80009 	 0.331298
| 15> H 	 -132.005 	 5.22004 	 1.73082
| 16> C 	 -131.953 	 7.29236 	 1.77861
| 17> H 	 -130.991 	 7.29126 	 2.07666
| 18> H 	 -132.313 	 7.94729 	 0.991521
| 19> C 	 -132.853 	 7.66981 	 2.95169
| 20> H 	 -132.727 	 8.76417 	 3.22621
| 21> H 	 -133.947 	 7.48673 	 2.80842
| 22> H 	 -132.61 	 7.1308 	 3.86082
| 23> S 	 -138.319 	 5.39653 	 0.650852
| 24> C 	 -139.397 	 4.45274 	 1.76934
| 25> C 	 -138.554 	 3.54902 	 2.49166
| 26> C 	 -137.196 	 3.56999 	 2.05658
| 27> C 	 -136.903 	 4.46086 	 1.02862
| 28> H 	 -138.894 	 2.85308 	 3.29603
| 29> C 	 -136.132 	 2.74792 	 2.7435
| 30> H 	 -136.368 	 2.33151 	 3.76175
| 31> H 	 -135.291 	 3.41567 	 2.97536
| 32> C 	 -135.402 	 1.64803 	 1.95234
| 33> H 	 -134.297 	 1.75239 	 1.95399
| 34> H 	 -135.567 	 1.80199 	 0.859551
| 35> C 	 -135.811 	 0.159222 	 2.33424
| 36> H 	 -136.906 	 0.0659157 	 2.25792
| 37> H 	 -135.596 	 -0.130027 	 3.39235
| 38> H 	 -135.268 	 -0.499972 	 1.60811
| 39> H 	 -133.015 	 6.03212 	 -1.73668
| 40> H 	 -140.505 	 4.63107 	 1.94132
| 41> *
| 42>
| 43>                          ****END OF INPUT****

CARTESIAN COORDINATES (ANGSTROEM)
---------------------------------
  S    -135.328000    4.898210   -1.254860
  C    -133.731000    5.703760   -0.978458
  C    -133.439000    5.671280    0.374031
  C    -134.511000    5.267290    1.146950
  C    -135.631000    4.903200    0.475492
  H    -134.519000    5.230750    2.193480
  C    -132.157000    5.967800    1.047350
  H    -131.323000    5.800090    0.331298
  H    -132.005000    5.220040    1.730820
  C    -131.953000    7.292360    1.778610
  H    -130.991000    7.291260    2.076660
  H    -132.313000    7.947290    0.991521
  C    -132.853000    7.669810    2.951690
  H    -132.727000    8.764170    3.226210
  H    -133.947000    7.486730    2.808420
  H    -132.610000    7.130800    3.860820
  S    -138.319000    5.396530    0.650852
  C    -139.397000    4.452740    1.769340
  C    -138.554000    3.549020    2.491660
  C    -137.196000    3.569990    2.056580
  C    -136.903000    4.460860    1.028620
  H    -138.894000    2.853080    3.296030
  C    -136.132000    2.747920    2.743500
  H    -136.368000    2.331510    3.761750
  H    -135.291000    3.415670    2.975360
  C    -135.402000    1.648030    1.952340
  H    -134.297000    1.752390    1.953990
  H    -135.567000    1.801990    0.859551
  C    -135.811000    0.159222    2.334240
  H    -136.906000    0.065916    2.257920
  H    -135.596000   -0.130027    3.392350
  H    -135.268000   -0.499972    1.608110
  H    -133.015000    6.032120   -1.736680
  H    -140.505000    4.631070    1.941320

 Total Charge           Charge          ....    0
 Multiplicity           Mult            ....    1
 Number of Electrons    NEL             ....  134
 Basis Dimension        Dim             ....  322

ORBITAL ENERGIES
----------------

  NO   OCC          E(Eh)            E(eV)
   0   2.0000     -88.969128     -2420.9730
   1   2.0000     -88.968685     -2420.9610
   2   2.0000     -10.336163      -281.2613
   3   2.0000     -10.329719      -281.0859
   4   2.0000     -10.328146      -281.0431
   5   2.0000     -10.321022      -280.8493
   6   2.0000     -10.306732      -280.4604
   7   2.0000     -10.306141      -280.4443
   8   2.0000     -10.296671      -280.1867
   9   2.0000     -10.293502      -280.1004
  10   2.0000     -10.289564      -279.9933
  11   2.0000     -10.285874      -279.8929
  12   2.0000     -10.284521      -279.8561
  13   2.0000     -10.284019      -279.8424
  14   2.0000     -10.283407      -279.8257
  15   2.0000     -10.279630      -279.7229
  16   2.0000      -8.082695      -219.9413
  17   2.0000      -8.082324      -219.9312
  18   2.0000      -6.041340      -164.3932
  19   2.0000      -6.040915      -164.3816
  20   2.0000      -6.037126      -164.2786
  21   2.0000      -6.037084      -164.2774
  22   2.0000      -6.033578      -164.1820
  23   2.0000      -6.032952      -164.1650
  24   2.0000      -1.008257       -27.4361
  25   2.0000      -0.981987       -26.7212
  26   2.0000      -0.920184       -25.0395
  27   2.0000      -0.899324       -24.4718
  28   2.0000      -0.869407       -23.6578
  29   2.0000      -0.849781       -23.1237
  30   2.0000      -0.840793       -22.8791
  31   2.0000      -0.815245       -22.1839
  32   2.0000      -0.786018       -21.3886
  33   2.0000      -0.769990       -20.9525
  34   2.0000      -0.708365       -19.2756
  35   2.0000      -0.705611       -19.2007
  36   2.0000      -0.686362       -18.6769
  37   2.0000      -0.664954       -18.0943
  38   2.0000      -0.644349       -17.5336
  39   2.0000      -0.623800       -16.9745
  40   2.0000      -0.596496       -16.2315
  41   2.0000      -0.586021       -15.9465
  42   2.0000      -0.550310       -14.9747
  43   2.0000      -0.547339       -14.8938
  44   2.0000      -0.536876       -14.6091
  45   2.0000      -0.526650       -14.3309
  46   2.0000      -0.519926       -14.1479
  47   2.0000      -0.510868       -13.9014
  48   2.0000      -0.504115       -13.7177
  49   2.0000      -0.495404       -13.4806
  50   2.0000      -0.489883       -13.3304
  51   2.0000      -0.485246       -13.2042
  52   2.0000      -0.473031       -12.8718
  53   2.0000      -0.465262       -12.6604
  54   2.0000      -0.462481       -12.5847
  55   2.0000      -0.445186       -12.1141
  56   2.0000      -0.437831       -11.9140
  57   2.0000      -0.436898       -11.8886
  58   2.0000      -0.434704       -11.8289
  59   2.0000      -0.429704       -11.6928
  60   2.0000      -0.417603       -11.3635
  61   2.0000      -0.406289       -11.0557
  62   2.0000      -0.401335       -10.9209
  63   2.0000      -0.343613        -9.3502
  64   2.0000      -0.333119        -9.0646
  65   2.0000      -0.327863        -8.9216
  66   2.0000      -0.296675        -8.0729
  67   0.0000       0.022358         0.6084
  68   0.0000       0.060750         1.6531
  69   0.0000       0.099535         2.7085
  70   0.0000       0.109440         2.9780
  71   0.0000       0.133601         3.6355

MULLIKEN ATOMIC CHARGES
-----------------------
   0 S :    0.107907
   1 C :   -0.130604
   2 C :   -0.081309
   3 C :    0.036079
   4 C :   -0.149863
   5 H :   -0.004795
   6 C :    0.081019
   7 H :    0.020267
   8 H :   -0.005210
   9 C :    0.008025
  10 H :    0.015872
  11 H :    0.028134
  12 C :   -0.101643
  13 H :    0.046516
  14 H :    0.047129
  15 H :    0.020345
  16 S :    0.107491
  17 C :   -0.135647
  18 C :   -0.038713
  19 C :   -0.012336
  20 C :   -0.139633
  21 H :    0.038488
  22 C :    0.045147
  23 H :    0.026447
  24 H :    0.015027
  25 C :   -0.097862
  26 H :    0.028722
  27 H :    0.035418
  28 C :   -0.081587
  29 H :    0.038068
  30 H :    0.038825
  31 H :    0.048264
  32 H :    0.051708
  33 H :    0.094303
Sum of atomic charges:   -0.0000000

LOEWDIN ATOMIC CHARGES
----------------------
   0 S :    0.384152
   1 C :   -0.179175
   2 C :   -0.064729
   3 C :   -0.056559
   4 C :   -0.187311
   5 H :    0.021854
   6 C :   -0.028846
   7 H :    0.035915
   8 H :    0.017053
   9 C :   -0.027275
  10 H :    0.013467
  11 H :    0.031894
  12 C :   -0.076511
  13 H :    0.036500
  14 H :    0.030265
  15 H :    0.017379
  16 S :    0.403654
  17 C :   -0.186803
  18 C :   -0.071796
  19 C :   -0.060556
  20 C :   -0.208486
  21 H :    0.039905
  22 C :   -0.046534
  23 H :    0.034296
  24 H :    0.034960
  25 C :   -0.049522
  26 H :    0.024156
  27 H :    0.029293
  28 C :   -0.073358
  29 H :    0.024925
  30 H :    0.024238
  31 H :    0.032298
  32 H :    0.032707
  33 H :    0.048551

  Mayer bond orders larger than 0.100000
B(  0-S ,  1-C ) :   1.1229 B(  0-S ,  4-C ) :   1.1466 B(  1-C ,  2-C ) :   1.6005
B(  1-C ,  4-C ) :   0.1034 B(  1-C , 32-H ) :   0.9683 B(  2-C ,  3-C ) :   1.2432
B(  2-C ,  6-C ) :   1.0293 B(  3-C ,  4-C ) :   1.5785 B(  3-C ,  5-H ) :   1.0011
B(  4-C , 20-C ) :   1.0195 B(  6-C ,  7-H ) :   0.9338 B(  6-C ,  8-H ) :   0.9259
B(  6-C ,  9-C ) :   1.0715 B(  9-C , 10-H ) :   0.9533 B(  9-C , 11-H ) :   0.9522
B(  9-C , 12-C ) :   1.0895 B( 12-C , 13-H ) :   0.9721 B( 12-C , 14-H ) :   0.9679
B( 12-C , 15-H ) :   0.9740 B( 16-S , 17-C ) :   1.1616 B( 16-S , 20-C ) :   1.1526
B( 17-C , 18-C ) :   1.5486 B( 17-C , 20-C ) :   0.1151 B( 17-C , 33-H ) :   0.9625
B( 18-C , 19-C ) :   1.2900 B( 18-C , 21-H ) :   0.9803 B( 19-C , 20-C ) :   1.5584
B( 19-C , 22-C ) :   1.0522 B( 22-C , 23-H ) :   0.9449 B( 22-C , 24-H ) :   0.9328
B( 22-C , 25-C ) :   1.0390 B( 25-C , 26-H ) :   0.9612 B( 25-C , 27-H ) :   0.9593
B( 25-C , 28-C ) :   1.0698 B( 28-C , 29-H ) :   0.9787 B( 28-C , 30-H ) :   0.9773
B( 28-C , 31-H ) :   0.9756

Dispersion correction           -0.014931199
FINAL SINGLE POINT ENERGY     -1339.849494532983

DIPOLE MOMENT
-------------
                                X             Y             Z
Electronic contribution:    -17.29433       6.15519     -16.30075
Nuclear contribution   :     17.76563      -6.25123      16.89542
                        -----------------------------------------
Total Dipole Moment    :      0.47129      -0.09603       0.59467
                        -----------------------------------------
Magnitude (a.u.)       :      0.76483
Magnitude (Debye)      :      1.94405

Rotational constants in cm-1:     0.017024     0.008982     0.007961
Rotational constants in MHz :   510.376095   269.274566   238.668371

                             ****ORCA TERMINATED NORMALLY****
TOTAL RUN TIME: 0 days 0 hours 0 minutes 20 seconds 894 msec
