                         Program Version 4.2.1 -  RELEASE  -
|  1> ! wB97X-D3 SP def2-SVP
|  2> %pal
|  3> nprocs 24
|  4> end
|  5>
|  6> * xyz 0 1
|  7> S 	 -149.718 	 28.8751 	 -14.1111
|  8> C 	 -149.688 	 28.1546 	 -15.7137
|  9> C 	 -148.43 	 28.1741 	 -16.2226
| 10> C 	 -147.419 	 28.6862 	 -15.3039
| 11> C 	 -147.921 	 28.9187 	 -14.0387
| 12> H 	 -146.373 	 28.8642 	 -15.5396
| 13> C 	 -148.116 	 27.7357 	 -17.5613
| 14> H 	 -148.089 	 28.6941 	 -18.0501
| 15> H 	 -148.97 	 27.2891 	 -18.0684
| 16> C 	 -146.903 	 26.8335 	 -17.8187
| 17> H 	 -145.945 	 27.4658 	 -17.9091
| 18> H 	 -146.837 	 26.142 	 -16.9395
| 19> C 	 -147.019 	 25.9456 	 -19.0292
| 20> H 	 -147.61 	 25.1064 	 -18.6888
| 21> H 	 -147.337 	 26.4168 	 -19.8871
| 22> H 	 -146.006 	 25.6306 	 -19.3024
| 23> S 	 -145.839 	 28.2089 	 -12.2916
| 24> C 	 -145.454 	 29.3106 	 -10.9179
| 25> C 	 -146.409 	 30.2787 	 -10.8474
| 26> C 	 -147.295 	 30.2898 	 -11.9611
| 27> C 	 -147.185 	 29.2353 	 -12.8265
| 28> H 	 -146.32 	 31.0107 	 -10.0594
| 29> C 	 -148.254 	 31.4504 	 -12.1678
| 30> H 	 -148.384 	 31.92 	 -11.1784
| 31> H 	 -149.335 	 31.0867 	 -12.1945
| 32> C 	 -147.875 	 32.5372 	 -13.1841
| 33> H 	 -148.541 	 33.4076 	 -13.2595
| 34> H 	 -147.807 	 32.178 	 -14.2392
| 35> C 	 -146.395 	 33.129 	 -12.8599
| 36> H 	 -146.257 	 33.8278 	 -13.6629
| 37> H 	 -145.674 	 32.3612 	 -12.7675
| 38> H 	 -146.406 	 33.7017 	 -11.9208
| 39> H 	 -150.527 	 27.8087 	 -16.2875
| 40> H 	 -144.682 	 29.0156 	 -10.2399
| 41> *
| 42>
| 43>                          ****END OF INPUT****

CARTESIAN COORDINATES (ANGSTROEM)
---------------------------------
  S    -149.718000   28.875100  -14.111100
  C    -149.688000   28.154600  -15.713700
  C    -148.430000   28.174100  -16.222600
  C    -147.419000   28.686200  -15.303900
  C    -147.921000   28.918700  -14.038700
  H    -146.373000   28.864200  -15.539600
  C    -148.116000   27.735700  -17.561300
  H    -148.089000   28.694100  -18.050100
  H    -148.970000   27.289100  -18.068400
  C    -146.903000   26.833500  -17.818700
  H    -145.945000   27.465800  -17.909100
  H    -146.837000   26.142000  -16.939500
  C    -147.019000   25.945600  -19.029200
  H    -147.610000   25.106400  -18.688800
  H    -147.337000   26.416800  -19.887100
  H    -146.006000   25.630600  -19.302400
  S    -145.839000   28.208900  -12.291600
  C    -145.454000   29.310600  -10.917900
  C    -146.409000   30.278700  -10.847400
  C    -147.295000   30.289800  -11.961100
  C    -147.185000   29.235300  -12.826500
  H    -146.320000   31.010700  -10.059400
  C    -148.254000   31.450400  -12.167800
  H    -148.384000   31.920000  -11.178400
  H    -149.335000   31.086700  -12.194500
  C    -147.875000   32.537200  -13.184100
  H    -148.541000   33.407600  -13.259500
  H    -147.807000   32.178000  -14.239200
  C    -146.395000   33.129000  -12.859900
  H    -146.257000   33.827800  -13.662900
  H    -145.674000   32.361200  -12.767500
  H    -146.406000   33.701700  -11.920800
  H    -150.527000   27.808700  -16.287500
  H    -144.682000   29.015600  -10.239900

 Total Charge           Charge          ....    0
 Multiplicity           Mult            ....    1
 Number of Electrons    NEL             ....  134
 Basis Dimension        Dim             ....  322

ORBITAL ENERGIES
----------------

  NO   OCC          E(Eh)            E(eV)
   0   2.0000     -88.962852     -2420.8023
   1   2.0000     -88.961331     -2420.7609
   2   2.0000     -10.334392      -281.2131
   3   2.0000     -10.328159      -281.0435
   4   2.0000     -10.321740      -280.8688
   5   2.0000     -10.307893      -280.4920
   6   2.0000     -10.301863      -280.3280
   7   2.0000     -10.297812      -280.2177
   8   2.0000     -10.296524      -280.1827
   9   2.0000     -10.295654      -280.1590
  10   2.0000     -10.294205      -280.1196
  11   2.0000     -10.292641      -280.0770
  12   2.0000     -10.292204      -280.0651
  13   2.0000     -10.282515      -279.8015
  14   2.0000     -10.272565      -279.5307
  15   2.0000     -10.271288      -279.4960
  16   2.0000      -8.076758      -219.7798
  17   2.0000      -8.075142      -219.7358
  18   2.0000      -6.035378      -164.2310
  19   2.0000      -6.033915      -164.1912
  20   2.0000      -6.031336      -164.1210
  21   2.0000      -6.029938      -164.0830
  22   2.0000      -6.027479      -164.0160
  23   2.0000      -6.025517      -163.9627
  24   2.0000      -1.002632       -27.2830
  25   2.0000      -0.982522       -26.7358
  26   2.0000      -0.917217       -24.9588
  27   2.0000      -0.895971       -24.3806
  28   2.0000      -0.875576       -23.8256
  29   2.0000      -0.850829       -23.1522
  30   2.0000      -0.836960       -22.7748
  31   2.0000      -0.820551       -22.3283
  32   2.0000      -0.779923       -21.2228
  33   2.0000      -0.770332       -20.9618
  34   2.0000      -0.714643       -19.4464
  35   2.0000      -0.695086       -18.9143
  36   2.0000      -0.687196       -18.6995
  37   2.0000      -0.669046       -18.2057
  38   2.0000      -0.636772       -17.3275
  39   2.0000      -0.618272       -16.8240
  40   2.0000      -0.590208       -16.0604
  41   2.0000      -0.576414       -15.6850
  42   2.0000      -0.567356       -15.4385
  43   2.0000      -0.554881       -15.0991
  44   2.0000      -0.539574       -14.6825
  45   2.0000      -0.532748       -14.4968
  46   2.0000      -0.515385       -14.0244
  47   2.0000      -0.514709       -14.0059
  48   2.0000      -0.508845       -13.8464
  49   2.0000      -0.498607       -13.5678
  50   2.0000      -0.486345       -13.2341
  51   2.0000      -0.476357       -12.9623
  52   2.0000      -0.467392       -12.7184
  53   2.0000      -0.464978       -12.6527
  54   2.0000      -0.457504       -12.4493
  55   2.0000      -0.448363       -12.2006
  56   2.0000      -0.444931       -12.1072
  57   2.0000      -0.431820       -11.7504
  58   2.0000      -0.429603       -11.6901
  59   2.0000      -0.423439       -11.5224
  60   2.0000      -0.410851       -11.1798
  61   2.0000      -0.409117       -11.1326
  62   2.0000      -0.396926       -10.8009
  63   2.0000      -0.348119        -9.4728
  64   2.0000      -0.332888        -9.0583
  65   2.0000      -0.321803        -8.7567
  66   2.0000      -0.294804        -8.0220
  67   0.0000       0.025864         0.7038
  68   0.0000       0.068908         1.8751
  69   0.0000       0.110850         3.0164
  70   0.0000       0.113340         3.0841
  71   0.0000       0.132524         3.6062

MULLIKEN ATOMIC CHARGES
-----------------------
   0 S :    0.092752
   1 C :   -0.111354
   2 C :   -0.096577
   3 C :    0.030519
   4 C :   -0.149860
   5 H :    0.022402
   6 C :    0.080550
   7 H :    0.034601
   8 H :    0.000866
   9 C :   -0.122228
  10 H :    0.040732
  11 H :    0.043329
  12 C :   -0.004782
  13 H :    0.040080
  14 H :    0.015841
  15 H :    0.025461
  16 S :    0.083358
  17 C :   -0.105972
  18 C :   -0.002438
  19 C :   -0.065419
  20 C :   -0.121766
  21 H :    0.023283
  22 C :    0.054546
  23 H :    0.007388
  24 H :    0.039775
  25 C :   -0.070500
  26 H :    0.035190
  27 H :    0.042330
  28 C :   -0.069590
  29 H :    0.032375
  30 H :    0.048286
  31 H :    0.026143
  32 H :    0.039297
  33 H :    0.061380
Sum of atomic charges:    0.0000000

LOEWDIN ATOMIC CHARGES
----------------------
   0 S :    0.376300
   1 C :   -0.193490
   2 C :   -0.064344
   3 C :   -0.056344
   4 C :   -0.168202
   5 H :    0.034128
   6 C :   -0.047137
   7 H :    0.040433
   8 H :    0.028875
   9 C :   -0.047013
  10 H :    0.028328
  11 H :    0.031835
  12 C :   -0.057860
  13 H :    0.029895
  14 H :    0.012777
  15 H :    0.031665
  16 S :    0.372314
  17 C :   -0.157122
  18 C :   -0.067326
  19 C :   -0.064712
  20 C :   -0.186043
  21 H :    0.033809
  22 C :   -0.051554
  23 H :    0.030183
  24 H :    0.034157
  25 C :   -0.036887
  26 H :    0.026090
  27 H :    0.027194
  28 C :   -0.059648
  29 H :    0.023387
  30 H :    0.018885
  31 H :    0.022293
  32 H :    0.028766
  33 H :    0.026368

  Mayer bond orders larger than 0.100000
B(  0-S ,  1-C ) :   1.1051 B(  0-S ,  4-C ) :   1.1256 B(  1-C ,  2-C ) :   1.6519
B(  1-C , 32-H ) :   0.9682 B(  2-C ,  3-C ) :   1.1809 B(  2-C ,  6-C ) :   1.0456
B(  3-C ,  4-C ) :   1.5975 B(  3-C ,  5-H ) :   0.9954 B(  4-C , 20-C ) :   1.0615
B(  6-C ,  7-H ) :   0.9104 B(  6-C ,  8-H ) :   0.9385 B(  6-C ,  9-C ) :   1.0442
B(  9-C , 10-H ) :   0.9497 B(  9-C , 11-H ) :   0.9672 B(  9-C , 12-C ) :   1.0932
B( 12-C , 13-H ) :   0.9762 B( 12-C , 14-H ) :   0.9734 B( 12-C , 15-H ) :   0.9713
B( 16-S , 17-C ) :   1.1462 B( 16-S , 20-C ) :   1.1242 B( 17-C , 18-C ) :   1.6064
B( 17-C , 33-H ) :   0.9717 B( 18-C , 19-C ) :   1.2361 B( 18-C , 21-H ) :   0.9908
B( 19-C , 20-C ) :   1.6014 B( 19-C , 22-C ) :   1.0407 B( 22-C , 23-H ) :   0.9305
B( 22-C , 24-H ) :   0.9324 B( 22-C , 25-C ) :   1.0530 B( 25-C , 26-H ) :   0.9597
B( 25-C , 27-H ) :   0.9621 B( 25-C , 28-C ) :   1.0595 B( 28-C , 29-H ) :   0.9781
B( 28-C , 30-H ) :   0.9792 B( 28-C , 31-H ) :   0.9791

Dispersion correction           -0.014815338
FINAL SINGLE POINT ENERGY     -1339.863714264396

DIPOLE MOMENT
-------------
                                X             Y             Z
Electronic contribution:     -3.92684      -6.62385      15.38596
Nuclear contribution   :      4.09674       6.86372     -15.73067
                        -----------------------------------------
Total Dipole Moment    :      0.16989       0.23988      -0.34472
                        -----------------------------------------
Magnitude (a.u.)       :      0.45303
Magnitude (Debye)      :      1.15150

Rotational constants in cm-1:     0.021430     0.007751     0.006919
Rotational constants in MHz :   642.455962   232.369414   207.424752

                             ****ORCA TERMINATED NORMALLY****
TOTAL RUN TIME: 0 days 0 hours 0 minutes 20 seconds 463 msec
