                         Program Version 4.2.1 -  RELEASE  -
|  1> ! wB97X-D3 SP def2-SVP
|  2> %pal
|  3> nprocs 24
|  4> end
|  5>
|  6> * xyz 0 1
|  7> S 	 -108.229 	 54.1783 	 -90.5875
|  8> C 	 -109.684 	 53.9886 	 -89.5476
|  9> C 	 -109.723 	 54.9891 	 -88.5395
| 10> C 	 -108.509 	 55.7862 	 -88.5879
| 11> C 	 -107.571 	 55.3676 	 -89.4899
| 12> H 	 -108.173 	 56.5547 	 -87.8067
| 13> C 	 -110.742 	 55.1738 	 -87.5311
| 14> H 	 -111.633 	 54.5424 	 -87.6705
| 15> H 	 -111.194 	 56.1466 	 -87.4049
| 16> C 	 -110.339 	 54.8699 	 -86.0069
| 17> H 	 -109.352 	 55.2347 	 -85.7528
| 18> H 	 -111.021 	 55.4214 	 -85.3537
| 19> C 	 -110.416 	 53.3941 	 -85.6922
| 20> H 	 -111.354 	 52.8855 	 -85.9903
| 21> H 	 -109.627 	 52.9112 	 -86.3297
| 22> H 	 -110.199 	 53.2451 	 -84.6189
| 23> S 	 -104.924 	 54.8068 	 -89.6499
| 24> C 	 -103.731 	 56.0708 	 -90.063
| 25> C 	 -104.244 	 57.3176 	 -89.881
| 26> C 	 -105.696 	 57.2844 	 -89.6886
| 27> C 	 -106.256 	 56.0096 	 -89.6994
| 28> H 	 -103.649 	 58.251 	 -89.9307
| 29> C 	 -106.44 	 58.5838 	 -89.4815
| 30> H 	 -105.779 	 59.4655 	 -89.7235
| 31> H 	 -106.633 	 58.8504 	 -88.3619
| 32> C 	 -107.698 	 58.8099 	 -90.3519
| 33> H 	 -108.526 	 58.1993 	 -90.0499
| 34> H 	 -107.502 	 58.4114 	 -91.3542
| 35> C 	 -108.163 	 60.284 	 -90.4746
| 36> H 	 -108.407 	 60.6975 	 -89.491
| 37> H 	 -109.062 	 60.4505 	 -91.0055
| 38> H 	 -107.464 	 60.9147 	 -90.9657
| 39> H 	 -110.369 	 53.1567 	 -89.5381
| 40> H 	 -102.68 	 55.9093 	 -90.3276
| 41> *
| 42>
| 43>                          ****END OF INPUT****

CARTESIAN COORDINATES (ANGSTROEM)
---------------------------------
  S    -108.229000   54.178300  -90.587500
  C    -109.684000   53.988600  -89.547600
  C    -109.723000   54.989100  -88.539500
  C    -108.509000   55.786200  -88.587900
  C    -107.571000   55.367600  -89.489900
  H    -108.173000   56.554700  -87.806700
  C    -110.742000   55.173800  -87.531100
  H    -111.633000   54.542400  -87.670500
  H    -111.194000   56.146600  -87.404900
  C    -110.339000   54.869900  -86.006900
  H    -109.352000   55.234700  -85.752800
  H    -111.021000   55.421400  -85.353700
  C    -110.416000   53.394100  -85.692200
  H    -111.354000   52.885500  -85.990300
  H    -109.627000   52.911200  -86.329700
  H    -110.199000   53.245100  -84.618900
  S    -104.924000   54.806800  -89.649900
  C    -103.731000   56.070800  -90.063000
  C    -104.244000   57.317600  -89.881000
  C    -105.696000   57.284400  -89.688600
  C    -106.256000   56.009600  -89.699400
  H    -103.649000   58.251000  -89.930700
  C    -106.440000   58.583800  -89.481500
  H    -105.779000   59.465500  -89.723500
  H    -106.633000   58.850400  -88.361900
  C    -107.698000   58.809900  -90.351900
  H    -108.526000   58.199300  -90.049900
  H    -107.502000   58.411400  -91.354200
  C    -108.163000   60.284000  -90.474600
  H    -108.407000   60.697500  -89.491000
  H    -109.062000   60.450500  -91.005500
  H    -107.464000   60.914700  -90.965700
  H    -110.369000   53.156700  -89.538100
  H    -102.680000   55.909300  -90.327600

 Total Charge           Charge          ....    0
 Multiplicity           Mult            ....    1
 Number of Electrons    NEL             ....  134
 Basis Dimension        Dim             ....  322

ORBITAL ENERGIES
----------------

  NO   OCC          E(Eh)            E(eV)
   0   2.0000     -88.970435     -2421.0086
   1   2.0000     -88.961521     -2420.7661
   2   2.0000     -10.333816      -281.1974
   3   2.0000     -10.332538      -281.1626
   4   2.0000     -10.324314      -280.9389
   5   2.0000     -10.321599      -280.8650
   6   2.0000     -10.312778      -280.6250
   7   2.0000     -10.311077      -280.5787
   8   2.0000     -10.303402      -280.3698
   9   2.0000     -10.301522      -280.3187
  10   2.0000     -10.300266      -280.2845
  11   2.0000     -10.293467      -280.0995
  12   2.0000     -10.289009      -279.9782
  13   2.0000     -10.282978      -279.8141
  14   2.0000     -10.280592      -279.7491
  15   2.0000     -10.271720      -279.5077
  16   2.0000      -8.084230      -219.9831
  17   2.0000      -8.075453      -219.7443
  18   2.0000      -6.042897      -164.4356
  19   2.0000      -6.038937      -164.3278
  20   2.0000      -6.034778      -164.2147
  21   2.0000      -6.034242      -164.2001
  22   2.0000      -6.030204      -164.0902
  23   2.0000      -6.025812      -163.9707
  24   2.0000      -1.000960       -27.2375
  25   2.0000      -0.977656       -26.6034
  26   2.0000      -0.913211       -24.8497
  27   2.0000      -0.900301       -24.4984
  28   2.0000      -0.867681       -23.6108
  29   2.0000      -0.847633       -23.0653
  30   2.0000      -0.843209       -22.9449
  31   2.0000      -0.815570       -22.1928
  32   2.0000      -0.779970       -21.2241
  33   2.0000      -0.770224       -20.9589
  34   2.0000      -0.711351       -19.3568
  35   2.0000      -0.699115       -19.0239
  36   2.0000      -0.688842       -18.7443
  37   2.0000      -0.659712       -17.9517
  38   2.0000      -0.642815       -17.4919
  39   2.0000      -0.615872       -16.7587
  40   2.0000      -0.594030       -16.1644
  41   2.0000      -0.573322       -15.6009
  42   2.0000      -0.555770       -15.1233
  43   2.0000      -0.548457       -14.9243
  44   2.0000      -0.530743       -14.4423
  45   2.0000      -0.523292       -14.2395
  46   2.0000      -0.517449       -14.0805
  47   2.0000      -0.511006       -13.9052
  48   2.0000      -0.501608       -13.6494
  49   2.0000      -0.495238       -13.4761
  50   2.0000      -0.491210       -13.3665
  51   2.0000      -0.482575       -13.1315
  52   2.0000      -0.471694       -12.8354
  53   2.0000      -0.460773       -12.5383
  54   2.0000      -0.459693       -12.5089
  55   2.0000      -0.447243       -12.1701
  56   2.0000      -0.437969       -11.9177
  57   2.0000      -0.433881       -11.8065
  58   2.0000      -0.429293       -11.6817
  59   2.0000      -0.427070       -11.6212
  60   2.0000      -0.418632       -11.3916
  61   2.0000      -0.416245       -11.3266
  62   2.0000      -0.410607       -11.1732
  63   2.0000      -0.342902        -9.3308
  64   2.0000      -0.328653        -8.9431
  65   2.0000      -0.324109        -8.8194
  66   2.0000      -0.299151        -8.1403
  67   0.0000       0.020790         0.5657
  68   0.0000       0.067653         1.8409
  69   0.0000       0.097784         2.6609
  70   0.0000       0.103558         2.8180
  71   0.0000       0.126131         3.4322

MULLIKEN ATOMIC CHARGES
-----------------------
   0 S :    0.119456
   1 C :   -0.107882
   2 C :   -0.050784
   3 C :   -0.001949
   4 C :   -0.133978
   5 H :    0.049390
   6 C :    0.034237
   7 H :    0.014545
   8 H :    0.032919
   9 C :   -0.084382
  10 H :    0.027962
  11 H :    0.022936
  12 C :   -0.072545
  13 H :    0.031338
  14 H :    0.039024
  15 H :    0.044496
  16 S :    0.076149
  17 C :   -0.083519
  18 C :   -0.028257
  19 C :   -0.032917
  20 C :   -0.145080
  21 H :    0.036678
  22 C :    0.000482
  23 H :    0.014448
  24 H :    0.050178
  25 C :   -0.063301
  26 H :    0.032902
  27 H :    0.029165
  28 C :   -0.029281
  29 H :    0.020860
  30 H :    0.019398
  31 H :    0.024240
  32 H :    0.049012
  33 H :    0.064060
Sum of atomic charges:    0.0000000

LOEWDIN ATOMIC CHARGES
----------------------
   0 S :    0.394253
   1 C :   -0.182209
   2 C :   -0.058157
   3 C :   -0.066678
   4 C :   -0.204602
   5 H :    0.046313
   6 C :   -0.041045
   7 H :    0.032245
   8 H :    0.036542
   9 C :   -0.035421
  10 H :    0.020947
  11 H :    0.019848
  12 C :   -0.074517
  13 H :    0.022919
  14 H :    0.031673
  15 H :    0.029194
  16 S :    0.366711
  17 C :   -0.169028
  18 C :   -0.072293
  19 C :   -0.054910
  20 C :   -0.178888
  21 H :    0.040127
  22 C :   -0.047526
  23 H :    0.031411
  24 H :    0.039534
  25 C :   -0.042200
  26 H :    0.021090
  27 H :    0.027670
  28 C :   -0.062873
  29 H :    0.024803
  30 H :    0.023516
  31 H :    0.019280
  32 H :    0.027601
  33 H :    0.034669

  Mayer bond orders larger than 0.100000
B(  0-S ,  1-C ) :   1.1244 B(  0-S ,  4-C ) :   1.1412 B(  1-C ,  2-C ) :   1.6026
B(  1-C , 32-H ) :   0.9671 B(  2-C ,  3-C ) :   1.2062 B(  2-C ,  6-C ) :   1.0681
B(  3-C ,  4-C ) :   1.6105 B(  3-C ,  5-H ) :   0.9769 B(  4-C , 20-C ) :   1.0170
B(  6-C ,  7-H ) :   0.9400 B(  6-C ,  8-H ) :   0.9366 B(  6-C ,  9-C ) :   1.0516
B(  9-C , 10-H ) :   0.9580 B(  9-C , 11-H ) :   0.9585 B(  9-C , 12-C ) :   1.0775
B( 12-C , 13-H ) :   0.9746 B( 12-C , 14-H ) :   0.9765 B( 12-C , 15-H ) :   0.9727
B( 16-S , 17-C ) :   1.1322 B( 16-S , 20-C ) :   1.1156 B( 17-C , 18-C ) :   1.6449
B( 17-C , 33-H ) :   0.9636 B( 18-C , 19-C ) :   1.2149 B( 18-C , 21-H ) :   0.9816
B( 19-C , 20-C ) :   1.6251 B( 19-C , 22-C ) :   1.0478 B( 22-C , 23-H ) :   0.9395
B( 22-C , 24-H ) :   0.9272 B( 22-C , 25-C ) :   1.0508 B( 25-C , 26-H ) :   0.9505
B( 25-C , 27-H ) :   0.9568 B( 25-C , 28-C ) :   1.0901 B( 28-C , 29-H ) :   0.9738
B( 28-C , 30-H ) :   0.9725 B( 28-C , 31-H ) :   0.9753

Dispersion correction           -0.014512985
FINAL SINGLE POINT ENERGY     -1339.863450131224

DIPOLE MOMENT
-------------
                                X             Y             Z
Electronic contribution:     15.74955     -14.41354     -12.67541
Nuclear contribution   :    -15.97361      14.94276      13.09328
                        -----------------------------------------
Total Dipole Moment    :     -0.22406       0.52922       0.41788
                        -----------------------------------------
Magnitude (a.u.)       :      0.71056
Magnitude (Debye)      :      1.80610

Rotational constants in cm-1:     0.017286     0.008815     0.007208
Rotational constants in MHz :   518.220241   264.270784   216.096472

                             ****ORCA TERMINATED NORMALLY****
TOTAL RUN TIME: 0 days 0 hours 0 minutes 21 seconds 695 msec
