                         Program Version 4.2.1 -  RELEASE  -
|  1> ! wB97X-D3 SP def2-SVP
|  2> %pal
|  3> nprocs 24
|  4> end
|  5>
|  6> * xyz 0 1
|  7> S 	 -44.9534 	 27.4947 	 29.5753
|  8> C 	 -45.8269 	 28.8418 	 30.3341
|  9> C 	 -46.7021 	 28.3924 	 31.3856
| 10> C 	 -46.7605 	 26.9642 	 31.3724
| 11> C 	 -45.8967 	 26.3212 	 30.5225
| 12> H 	 -47.525 	 26.5006 	 31.9914
| 13> C 	 -47.5884 	 29.2269 	 32.2577
| 14> H 	 -48.6319 	 29.2043 	 31.9546
| 15> H 	 -47.3551 	 30.2073 	 32.0626
| 16> C 	 -47.5288 	 28.8195 	 33.713
| 17> H 	 -48.3882 	 29.2604 	 34.1978
| 18> H 	 -47.59 	 27.7236 	 33.7485
| 19> C 	 -46.2644 	 29.1437 	 34.5063
| 20> H 	 -45.9778 	 30.1612 	 34.4847
| 21> H 	 -46.4186 	 28.7527 	 35.5032
| 22> H 	 -45.4565 	 28.6194 	 33.9741
| 23> S 	 -44.6775 	 24.3505 	 29.0784
| 24> C 	 -44.5842 	 22.7094 	 29.5497
| 25> C 	 -45.1505 	 22.6063 	 30.825
| 26> C 	 -45.7912 	 23.7945 	 31.3314
| 27> C 	 -45.6108 	 24.8878 	 30.4559
| 28> H 	 -45.1794 	 21.6484 	 31.3689
| 29> C 	 -46.481 	 23.7964 	 32.6736
| 30> H 	 -46.5018 	 24.8382 	 33.0183
| 31> H 	 -45.8794 	 23.3526 	 33.4883
| 32> C 	 -47.9228 	 23.2059 	 32.6531
| 33> H 	 -47.842 	 22.1004 	 32.4645
| 34> H 	 -48.6179 	 23.6351 	 31.9003
| 35> C 	 -48.5789 	 23.5294 	 34.0269
| 36> H 	 -48.2888 	 22.8759 	 34.9028
| 37> H 	 -49.651 	 23.661 	 34.0253
| 38> H 	 -48.1727 	 24.4905 	 34.329
| 39> H 	 -45.5686 	 29.8834 	 30.1064
| 40> H 	 -44.1203 	 21.9584 	 28.9867
| 41> *
| 42>
| 43>                          ****END OF INPUT****

CARTESIAN COORDINATES (ANGSTROEM)
---------------------------------
  S    -44.953400   27.494700   29.575300
  C    -45.826900   28.841800   30.334100
  C    -46.702100   28.392400   31.385600
  C    -46.760500   26.964200   31.372400
  C    -45.896700   26.321200   30.522500
  H    -47.525000   26.500600   31.991400
  C    -47.588400   29.226900   32.257700
  H    -48.631900   29.204300   31.954600
  H    -47.355100   30.207300   32.062600
  C    -47.528800   28.819500   33.713000
  H    -48.388200   29.260400   34.197800
  H    -47.590000   27.723600   33.748500
  C    -46.264400   29.143700   34.506300
  H    -45.977800   30.161200   34.484700
  H    -46.418600   28.752700   35.503200
  H    -45.456500   28.619400   33.974100
  S    -44.677500   24.350500   29.078400
  C    -44.584200   22.709400   29.549700
  C    -45.150500   22.606300   30.825000
  C    -45.791200   23.794500   31.331400
  C    -45.610800   24.887800   30.455900
  H    -45.179400   21.648400   31.368900
  C    -46.481000   23.796400   32.673600
  H    -46.501800   24.838200   33.018300
  H    -45.879400   23.352600   33.488300
  C    -47.922800   23.205900   32.653100
  H    -47.842000   22.100400   32.464500
  H    -48.617900   23.635100   31.900300
  C    -48.578900   23.529400   34.026900
  H    -48.288800   22.875900   34.902800
  H    -49.651000   23.661000   34.025300
  H    -48.172700   24.490500   34.329000
  H    -45.568600   29.883400   30.106400
  H    -44.120300   21.958400   28.986700

 Total Charge           Charge          ....    0
 Multiplicity           Mult            ....    1
 Number of Electrons    NEL             ....  134
 Basis Dimension        Dim             ....  322

ORBITAL ENERGIES
----------------

  NO   OCC          E(Eh)            E(eV)
   0   2.0000     -88.970446     -2421.0089
   1   2.0000     -88.964172     -2420.8382
   2   2.0000     -10.336398      -281.2677
   3   2.0000     -10.333036      -281.1762
   4   2.0000     -10.323936      -280.9286
   5   2.0000     -10.315958      -280.7115
   6   2.0000     -10.308136      -280.4987
   7   2.0000     -10.307088      -280.4701
   8   2.0000     -10.298566      -280.2382
   9   2.0000     -10.297805      -280.2175
  10   2.0000     -10.296857      -280.1917
  11   2.0000     -10.294066      -280.1158
  12   2.0000     -10.285395      -279.8798
  13   2.0000     -10.285080      -279.8713
  14   2.0000     -10.282313      -279.7960
  15   2.0000     -10.272120      -279.5186
  16   2.0000      -8.084093      -219.9794
  17   2.0000      -8.079741      -219.8609
  18   2.0000      -6.042821      -164.4335
  19   2.0000      -6.038768      -164.3232
  20   2.0000      -6.038193      -164.3076
  21   2.0000      -6.034681      -164.2120
  22   2.0000      -6.033960      -164.1924
  23   2.0000      -6.030692      -164.1035
  24   2.0000      -1.005872       -27.3712
  25   2.0000      -0.980820       -26.6895
  26   2.0000      -0.919832       -25.0299
  27   2.0000      -0.908175       -24.7127
  28   2.0000      -0.866937       -23.5905
  29   2.0000      -0.852569       -23.1996
  30   2.0000      -0.843499       -22.9528
  31   2.0000      -0.815849       -22.2004
  32   2.0000      -0.783159       -21.3108
  33   2.0000      -0.771863       -21.0035
  34   2.0000      -0.710188       -19.3252
  35   2.0000      -0.701628       -19.0923
  36   2.0000      -0.693407       -18.8686
  37   2.0000      -0.660983       -17.9863
  38   2.0000      -0.642363       -17.4796
  39   2.0000      -0.629130       -17.1195
  40   2.0000      -0.602365       -16.3912
  41   2.0000      -0.571189       -15.5428
  42   2.0000      -0.559466       -15.2238
  43   2.0000      -0.551234       -14.9998
  44   2.0000      -0.535460       -14.5706
  45   2.0000      -0.529029       -14.3956
  46   2.0000      -0.524017       -14.2592
  47   2.0000      -0.516245       -14.0477
  48   2.0000      -0.509335       -13.8597
  49   2.0000      -0.496340       -13.5061
  50   2.0000      -0.491813       -13.3829
  51   2.0000      -0.485809       -13.2195
  52   2.0000      -0.466783       -12.7018
  53   2.0000      -0.463011       -12.5992
  54   2.0000      -0.457985       -12.4624
  55   2.0000      -0.450643       -12.2626
  56   2.0000      -0.442926       -12.0526
  57   2.0000      -0.440121       -11.9763
  58   2.0000      -0.434585       -11.8257
  59   2.0000      -0.425488       -11.5781
  60   2.0000      -0.420923       -11.4539
  61   2.0000      -0.419349       -11.4111
  62   2.0000      -0.410563       -11.1720
  63   2.0000      -0.360401        -9.8070
  64   2.0000      -0.334076        -9.0907
  65   2.0000      -0.326886        -8.8950
  66   2.0000      -0.280407        -7.6303
  67   0.0000       0.016916         0.4603
  68   0.0000       0.079609         2.1663
  69   0.0000       0.096608         2.6288
  70   0.0000       0.112561         3.0629
  71   0.0000       0.122923         3.3449

MULLIKEN ATOMIC CHARGES
-----------------------
   0 S :    0.102107
   1 C :   -0.130238
   2 C :   -0.119332
   3 C :   -0.039022
   4 C :   -0.069615
   5 H :    0.021294
   6 C :    0.142312
   7 H :    0.035647
   8 H :   -0.017614
   9 C :   -0.105306
  10 H :    0.024552
  11 H :    0.022582
  12 C :   -0.025074
  13 H :    0.022895
  14 H :    0.040081
  15 H :    0.035882
  16 S :    0.085869
  17 C :   -0.064854
  18 C :   -0.040783
  19 C :   -0.043222
  20 C :   -0.120953
  21 H :    0.025636
  22 C :    0.017320
  23 H :    0.009561
  24 H :    0.037391
  25 C :   -0.074379
  26 H :    0.044406
  27 H :    0.045851
  28 C :   -0.056598
  29 H :    0.040166
  30 H :    0.036377
  31 H :    0.010883
  32 H :    0.059414
  33 H :    0.046763
Sum of atomic charges:   -0.0000000

LOEWDIN ATOMIC CHARGES
----------------------
   0 S :    0.385480
   1 C :   -0.194801
   2 C :   -0.054633
   3 C :   -0.072639
   4 C :   -0.177849
   5 H :    0.030089
   6 C :   -0.029873
   7 H :    0.039280
   8 H :    0.018113
   9 C :   -0.038940
  10 H :    0.020979
  11 H :    0.023157
  12 C :   -0.058872
  13 H :    0.016990
  14 H :    0.028550
  15 H :    0.030701
  16 S :    0.422620
  17 C :   -0.191149
  18 C :   -0.073075
  19 C :   -0.058810
  20 C :   -0.193312
  21 H :    0.032212
  22 C :   -0.040200
  23 H :    0.025589
  24 H :    0.037478
  25 C :   -0.039521
  26 H :    0.029469
  27 H :    0.031838
  28 C :   -0.075569
  29 H :    0.031647
  30 H :    0.023381
  31 H :    0.020225
  32 H :    0.028714
  33 H :    0.022731

  Mayer bond orders larger than 0.100000
B(  0-S ,  1-C ) :   1.1372 B(  0-S ,  4-C ) :   1.1335 B(  1-C ,  2-C ) :   1.5819
B(  1-C ,  4-C ) :   0.1013 B(  1-C , 32-H ) :   0.9643 B(  2-C ,  3-C ) :   1.2533
B(  2-C ,  6-C ) :   1.0357 B(  3-C ,  4-C ) :   1.5718 B(  3-C ,  5-H ) :   0.9836
B(  4-C , 20-C ) :   1.0819 B(  6-C ,  7-H ) :   0.9341 B(  6-C ,  8-H ) :   0.9263
B(  6-C ,  9-C ) :   1.0668 B(  9-C , 10-H ) :   0.9531 B(  9-C , 11-H ) :   0.9574
B(  9-C , 12-C ) :   1.0785 B( 12-C , 13-H ) :   0.9760 B( 12-C , 14-H ) :   0.9728
B( 12-C , 15-H ) :   0.9734 B( 16-S , 17-C ) :   1.1731 B( 16-S , 20-C ) :   1.1525
B( 17-C , 18-C ) :   1.5511 B( 17-C , 20-C ) :   0.1019 B( 17-C , 33-H ) :   0.9820
B( 18-C , 19-C ) :   1.2858 B( 18-C , 21-H ) :   0.9860 B( 19-C , 20-C ) :   1.5340
B( 19-C , 22-C ) :   1.0470 B( 22-C , 23-H ) :   0.9342 B( 22-C , 24-H ) :   0.9364
B( 22-C , 25-C ) :   1.0533 B( 25-C , 26-H ) :   0.9579 B( 25-C , 27-H ) :   0.9587
B( 25-C , 28-C ) :   1.0645 B( 28-C , 29-H ) :   0.9735 B( 28-C , 30-H ) :   0.9785
B( 28-C , 31-H ) :   0.9738

Dispersion correction           -0.014456322
FINAL SINGLE POINT ENERGY     -1339.880083064296

DIPOLE MOMENT
-------------
                                X             Y             Z
Electronic contribution:     16.10002      -2.51003     -27.37121
Nuclear contribution   :    -16.45699       2.51940      27.97389
                        -----------------------------------------
Total Dipole Moment    :     -0.35698       0.00937       0.60268
                        -----------------------------------------
Magnitude (a.u.)       :      0.70053
Magnitude (Debye)      :      1.78061

Rotational constants in cm-1:     0.016412     0.010449     0.006850
Rotational constants in MHz :   492.024161   313.256114   205.354286

                             ****ORCA TERMINATED NORMALLY****
TOTAL RUN TIME: 0 days 0 hours 0 minutes 21 seconds 21 msec
