                         Program Version 4.2.1 -  RELEASE  -
|  1> ! wB97X-D3 SP def2-SVP
|  2> %pal
|  3> nprocs 24
|  4> end
|  5>
|  6> * xyz 0 1
|  7> S 	 38.7043 	 -35.0573 	 -112.498
|  8> C 	 37.5196 	 -36.2746 	 -112.622
|  9> C 	 36.9687 	 -36.4141 	 -113.857
| 10> C 	 37.2898 	 -35.3269 	 -114.701
| 11> C 	 38.1961 	 -34.4243 	 -114.125
| 12> H 	 36.9311 	 -35.1297 	 -115.685
| 13> C 	 35.8641 	 -37.3918 	 -114.267
| 14> H 	 36.2389 	 -38.4122 	 -114.244
| 15> H 	 35.6349 	 -37.3026 	 -115.314
| 16> C 	 34.6585 	 -37.4003 	 -113.289
| 17> H 	 34.9195 	 -37.7187 	 -112.212
| 18> H 	 34.2114 	 -36.3793 	 -113.273
| 19> C 	 33.5346 	 -38.2248 	 -113.707
| 20> H 	 33.9235 	 -39.2375 	 -113.799
| 21> H 	 32.8292 	 -38.1968 	 -112.855
| 22> H 	 33.0046 	 -37.9935 	 -114.625
| 23> S 	 37.5936 	 -31.931 	 -114.946
| 24> C 	 38.8429 	 -30.8323 	 -115.469
| 25> C 	 40.0146 	 -31.5207 	 -115.653
| 26> C 	 39.9432 	 -32.8228 	 -115.093
| 27> C 	 38.6896 	 -33.2128 	 -114.721
| 28> H 	 40.8867 	 -30.9795 	 -116.064
| 29> C 	 41.1853 	 -33.6406 	 -115.032
| 30> H 	 40.9283 	 -34.6294 	 -114.618
| 31> H 	 41.7508 	 -33.1609 	 -114.205
| 32> C 	 42.0815 	 -33.6785 	 -116.282
| 33> H 	 43.1241 	 -33.7221 	 -115.92
| 34> H 	 42.0338 	 -32.7474 	 -116.723
| 35> C 	 41.9234 	 -34.8489 	 -117.269
| 36> H 	 40.9312 	 -34.761 	 -117.777
| 37> H 	 41.8461 	 -35.7882 	 -116.65
| 38> H 	 42.6622 	 -34.9455 	 -118.032
| 39> H 	 37.3888 	 -37.066 	 -111.883
| 40> H 	 38.5871 	 -29.8425 	 -115.555
| 41> *
| 42>
| 43>                          ****END OF INPUT****

CARTESIAN COORDINATES (ANGSTROEM)
---------------------------------
  S     38.704300  -35.057300  -112.498000
  C     37.519600  -36.274600  -112.622000
  C     36.968700  -36.414100  -113.857000
  C     37.289800  -35.326900  -114.701000
  C     38.196100  -34.424300  -114.125000
  H     36.931100  -35.129700  -115.685000
  C     35.864100  -37.391800  -114.267000
  H     36.238900  -38.412200  -114.244000
  H     35.634900  -37.302600  -115.314000
  C     34.658500  -37.400300  -113.289000
  H     34.919500  -37.718700  -112.212000
  H     34.211400  -36.379300  -113.273000
  C     33.534600  -38.224800  -113.707000
  H     33.923500  -39.237500  -113.799000
  H     32.829200  -38.196800  -112.855000
  H     33.004600  -37.993500  -114.625000
  S     37.593600  -31.931000  -114.946000
  C     38.842900  -30.832300  -115.469000
  C     40.014600  -31.520700  -115.653000
  C     39.943200  -32.822800  -115.093000
  C     38.689600  -33.212800  -114.721000
  H     40.886700  -30.979500  -116.064000
  C     41.185300  -33.640600  -115.032000
  H     40.928300  -34.629400  -114.618000
  H     41.750800  -33.160900  -114.205000
  C     42.081500  -33.678500  -116.282000
  H     43.124100  -33.722100  -115.920000
  H     42.033800  -32.747400  -116.723000
  C     41.923400  -34.848900  -117.269000
  H     40.931200  -34.761000  -117.777000
  H     41.846100  -35.788200  -116.650000
  H     42.662200  -34.945500  -118.032000
  H     37.388800  -37.066000  -111.883000
  H     38.587100  -29.842500  -115.555000

 Total Charge           Charge          ....    0
 Multiplicity           Mult            ....    1
 Number of Electrons    NEL             ....  134
 Basis Dimension        Dim             ....  322

ORBITAL ENERGIES
----------------

  NO   OCC          E(Eh)            E(eV)
   0   2.0000     -88.967609     -2420.9317
   1   2.0000     -88.957520     -2420.6572
   2   2.0000     -10.330239      -281.1001
   3   2.0000     -10.315019      -280.6859
   4   2.0000     -10.310965      -280.5756
   5   2.0000     -10.308035      -280.4959
   6   2.0000     -10.295334      -280.1503
   7   2.0000     -10.295212      -280.1470
   8   2.0000     -10.294123      -280.1173
   9   2.0000     -10.292317      -280.0682
  10   2.0000     -10.291700      -280.0514
  11   2.0000     -10.290875      -280.0289
  12   2.0000     -10.287631      -279.9407
  13   2.0000     -10.281341      -279.7695
  14   2.0000     -10.279763      -279.7266
  15   2.0000     -10.273102      -279.5453
  16   2.0000      -8.081828      -219.9177
  17   2.0000      -8.073943      -219.7032
  18   2.0000      -6.040264      -164.3639
  19   2.0000      -6.036461      -164.2605
  20   2.0000      -6.032649      -164.1567
  21   2.0000      -6.032340      -164.1483
  22   2.0000      -6.028120      -164.0335
  23   2.0000      -6.024802      -163.9432
  24   2.0000      -1.012072       -27.5399
  25   2.0000      -0.988542       -26.8996
  26   2.0000      -0.914162       -24.8756
  27   2.0000      -0.908370       -24.7180
  28   2.0000      -0.875921       -23.8350
  29   2.0000      -0.856792       -23.3145
  30   2.0000      -0.847755       -23.0686
  31   2.0000      -0.815482       -22.1904
  32   2.0000      -0.781234       -21.2584
  33   2.0000      -0.770730       -20.9726
  34   2.0000      -0.709070       -19.2948
  35   2.0000      -0.703185       -19.1346
  36   2.0000      -0.689005       -18.7488
  37   2.0000      -0.661240       -17.9932
  38   2.0000      -0.642326       -17.4786
  39   2.0000      -0.616032       -16.7631
  40   2.0000      -0.604055       -16.4372
  41   2.0000      -0.571418       -15.5491
  42   2.0000      -0.564882       -15.3712
  43   2.0000      -0.552246       -15.0274
  44   2.0000      -0.532510       -14.4903
  45   2.0000      -0.529726       -14.4146
  46   2.0000      -0.528459       -14.3801
  47   2.0000      -0.514537       -14.0013
  48   2.0000      -0.501313       -13.6414
  49   2.0000      -0.498885       -13.5754
  50   2.0000      -0.489333       -13.3154
  51   2.0000      -0.478555       -13.0221
  52   2.0000      -0.476708       -12.9719
  53   2.0000      -0.462645       -12.5892
  54   2.0000      -0.456041       -12.4095
  55   2.0000      -0.449965       -12.2442
  56   2.0000      -0.445406       -12.1201
  57   2.0000      -0.434391       -11.8204
  58   2.0000      -0.429722       -11.6933
  59   2.0000      -0.426913       -11.6169
  60   2.0000      -0.425271       -11.5722
  61   2.0000      -0.407878       -11.0989
  62   2.0000      -0.403966       -10.9925
  63   2.0000      -0.344450        -9.3730
  64   2.0000      -0.333581        -9.0772
  65   2.0000      -0.321113        -8.7379
  66   2.0000      -0.293690        -7.9917
  67   0.0000       0.040155         1.0927
  68   0.0000       0.059395         1.6162
  69   0.0000       0.104940         2.8556
  70   0.0000       0.128079         3.4852
  71   0.0000       0.131988         3.5916

MULLIKEN ATOMIC CHARGES
-----------------------
   0 S :    0.125676
   1 C :   -0.124425
   2 C :   -0.047036
   3 C :    0.028327
   4 C :   -0.173956
   5 H :    0.004334
   6 C :    0.090074
   7 H :    0.015406
   8 H :    0.012545
   9 C :   -0.114398
  10 H :    0.043353
  11 H :    0.036042
  12 C :   -0.033162
  13 H :    0.013306
  14 H :    0.035653
  15 H :    0.035772
  16 S :    0.101716
  17 C :   -0.080820
  18 C :   -0.037672
  19 C :   -0.042117
  20 C :   -0.161304
  21 H :    0.040410
  22 C :    0.055541
  23 H :    0.015287
  24 H :    0.038843
  25 C :   -0.039660
  26 H :    0.020737
  27 H :   -0.000244
  28 C :   -0.042899
  29 H :    0.034730
  30 H :    0.035333
  31 H :    0.036950
  32 H :    0.046622
  33 H :    0.031039
Sum of atomic charges:   -0.0000000

LOEWDIN ATOMIC CHARGES
----------------------
   0 S :    0.401389
   1 C :   -0.206252
   2 C :   -0.068395
   3 C :   -0.049737
   4 C :   -0.176530
   5 H :    0.028116
   6 C :   -0.032413
   7 H :    0.029006
   8 H :    0.027884
   9 C :   -0.048946
  10 H :    0.034785
  11 H :    0.028247
  12 C :   -0.068516
  13 H :    0.019463
  14 H :    0.032801
  15 H :    0.023321
  16 S :    0.426512
  17 C :   -0.163493
  18 C :   -0.075267
  19 C :   -0.061856
  20 C :   -0.226522
  21 H :    0.038654
  22 C :   -0.034732
  23 H :    0.024631
  24 H :    0.041894
  25 C :   -0.037526
  26 H :    0.028616
  27 H :    0.009238
  28 C :   -0.064944
  29 H :    0.029278
  30 H :    0.031983
  31 H :    0.021173
  32 H :    0.028503
  33 H :    0.009633

  Mayer bond orders larger than 0.100000
B(  0-S ,  1-C ) :   1.1522 B(  0-S ,  4-C ) :   1.1246 B(  1-C ,  2-C ) :   1.6214
B(  1-C , 32-H ) :   0.9574 B(  2-C ,  3-C ) :   1.2365 B(  2-C ,  6-C ) :   1.0305
B(  3-C ,  4-C ) :   1.5805 B(  3-C ,  5-H ) :   0.9980 B(  4-C , 20-C ) :   1.0445
B(  6-C ,  7-H ) :   0.9220 B(  6-C ,  8-H ) :   0.9474 B(  6-C ,  9-C ) :   1.0628
B(  9-C , 10-H ) :   0.9487 B(  9-C , 11-H ) :   0.9566 B(  9-C , 12-C ) :   1.0957
B( 12-C , 13-H ) :   0.9684 B( 12-C , 14-H ) :   0.9704 B( 12-C , 15-H ) :   0.9736
B( 16-S , 17-C ) :   1.1790 B( 16-S , 20-C ) :   1.1438 B( 17-C , 18-C ) :   1.5759
B( 17-C , 33-H ) :   0.9855 B( 18-C , 19-C ) :   1.2355 B( 18-C , 21-H ) :   0.9855
B( 19-C , 20-C ) :   1.5926 B( 19-C , 22-C ) :   1.0515 B( 22-C , 23-H ) :   0.9319
B( 22-C , 24-H ) :   0.9255 B( 22-C , 25-C ) :   1.0667 B( 25-C , 26-H ) :   0.9503
B( 25-C , 27-H ) :   0.9543 B( 25-C , 28-C ) :   1.0751 B( 28-C , 29-H ) :   0.9763
B( 28-C , 30-H ) :   0.9745 B( 28-C , 31-H ) :   0.9757

Dispersion correction           -0.013798716
FINAL SINGLE POINT ENERGY     -1339.867359724676

DIPOLE MOMENT
-------------
                                X             Y             Z
Electronic contribution:      1.18361      16.57554       8.01589
Nuclear contribution   :     -1.11822     -16.76873      -8.24700
                        -----------------------------------------
Total Dipole Moment    :      0.06539      -0.19319      -0.23112
                        -----------------------------------------
Magnitude (a.u.)       :      0.30824
Magnitude (Debye)      :      0.78349

Rotational constants in cm-1:     0.022202     0.007127     0.006404
Rotational constants in MHz :   665.592605   213.667905   191.973379

                             ****ORCA TERMINATED NORMALLY****
TOTAL RUN TIME: 0 days 0 hours 0 minutes 21 seconds 225 msec
