                         Program Version 4.2.1 -  RELEASE  -
|  1> ! wB97X-D3 SP def2-SVP
|  2> %pal
|  3> nprocs 24
|  4> end
|  5>
|  6> * xyz 0 1
|  7> S 	 -63.546 	 -57.9226 	 -75.7824
|  8> C 	 -65.3162 	 -57.863 	 -75.9066
|  9> C 	 -65.6603 	 -57.4841 	 -77.1856
| 10> C 	 -64.6223 	 -57.5872 	 -78.1342
| 11> C 	 -63.3927 	 -57.7877 	 -77.51
| 12> H 	 -64.7768 	 -57.5807 	 -79.1828
| 13> C 	 -67.1106 	 -57.1598 	 -77.537
| 14> H 	 -67.7307 	 -57.1295 	 -76.6776
| 15> H 	 -67.4555 	 -57.9104 	 -78.2557
| 16> C 	 -67.355 	 -55.7924 	 -78.1774
| 17> H 	 -66.5995 	 -55.6864 	 -78.9578
| 18> H 	 -68.3139 	 -55.7964 	 -78.652
| 19> C 	 -67.2287 	 -54.6143 	 -77.2552
| 20> H 	 -66.274 	 -54.836 	 -76.7049
| 21> H 	 -67.1446 	 -53.7618 	 -77.9289
| 22> H 	 -68.0982 	 -54.5129 	 -76.555
| 23> S 	 -61.2081 	 -59.486 	 -77.4881
| 24> C 	 -60.0833 	 -59.4757 	 -78.816
| 25> C 	 -60.34 	 -58.4328 	 -79.7234
| 26> C 	 -61.5304 	 -57.6574 	 -79.3881
| 27> C 	 -62.1444 	 -58.1398 	 -78.1781
| 28> H 	 -59.7212 	 -58.3981 	 -80.6023
| 29> C 	 -62.0469 	 -56.5753 	 -80.3814
| 30> H 	 -62.9206 	 -56.036 	 -79.9954
| 31> H 	 -62.4138 	 -57.0308 	 -81.2948
| 32> C 	 -60.8931 	 -55.562 	 -80.7501
| 33> H 	 -61.3468 	 -54.8887 	 -81.4809
| 34> H 	 -60.0908 	 -56.0636 	 -81.2576
| 35> C 	 -60.2161 	 -54.6936 	 -79.6735
| 36> H 	 -60.7255 	 -53.8601 	 -79.2008
| 37> H 	 -59.2035 	 -54.3372 	 -79.8033
| 38> H 	 -59.9931 	 -55.4117 	 -79.0113
| 39> H 	 -65.929 	 -57.8499 	 -74.9459
| 40> H 	 -59.3889 	 -60.297 	 -79.0726
| 41> *
| 42>
| 43>                          ****END OF INPUT****

CARTESIAN COORDINATES (ANGSTROEM)
---------------------------------
  S    -63.546000  -57.922600  -75.782400
  C    -65.316200  -57.863000  -75.906600
  C    -65.660300  -57.484100  -77.185600
  C    -64.622300  -57.587200  -78.134200
  C    -63.392700  -57.787700  -77.510000
  H    -64.776800  -57.580700  -79.182800
  C    -67.110600  -57.159800  -77.537000
  H    -67.730700  -57.129500  -76.677600
  H    -67.455500  -57.910400  -78.255700
  C    -67.355000  -55.792400  -78.177400
  H    -66.599500  -55.686400  -78.957800
  H    -68.313900  -55.796400  -78.652000
  C    -67.228700  -54.614300  -77.255200
  H    -66.274000  -54.836000  -76.704900
  H    -67.144600  -53.761800  -77.928900
  H    -68.098200  -54.512900  -76.555000
  S    -61.208100  -59.486000  -77.488100
  C    -60.083300  -59.475700  -78.816000
  C    -60.340000  -58.432800  -79.723400
  C    -61.530400  -57.657400  -79.388100
  C    -62.144400  -58.139800  -78.178100
  H    -59.721200  -58.398100  -80.602300
  C    -62.046900  -56.575300  -80.381400
  H    -62.920600  -56.036000  -79.995400
  H    -62.413800  -57.030800  -81.294800
  C    -60.893100  -55.562000  -80.750100
  H    -61.346800  -54.888700  -81.480900
  H    -60.090800  -56.063600  -81.257600
  C    -60.216100  -54.693600  -79.673500
  H    -60.725500  -53.860100  -79.200800
  H    -59.203500  -54.337200  -79.803300
  H    -59.993100  -55.411700  -79.011300
  H    -65.929000  -57.849900  -74.945900
  H    -59.388900  -60.297000  -79.072600

 Total Charge           Charge          ....    0
 Multiplicity           Mult            ....    1
 Number of Electrons    NEL             ....  134
 Basis Dimension        Dim             ....  322

ORBITAL ENERGIES
----------------

  NO   OCC          E(Eh)            E(eV)
   0   2.0000     -88.969057     -2420.9711
   1   2.0000     -88.966289     -2420.8958
   2   2.0000     -10.336264      -281.2641
   3   2.0000     -10.334130      -281.2060
   4   2.0000     -10.322429      -280.8876
   5   2.0000     -10.320550      -280.8364
   6   2.0000     -10.318237      -280.7735
   7   2.0000     -10.303017      -280.3594
   8   2.0000     -10.302750      -280.3521
   9   2.0000     -10.300543      -280.2920
  10   2.0000     -10.294729      -280.1338
  11   2.0000     -10.289345      -279.9873
  12   2.0000     -10.286409      -279.9074
  13   2.0000     -10.279121      -279.7091
  14   2.0000     -10.278489      -279.6919
  15   2.0000     -10.261373      -279.2262
  16   2.0000      -8.083187      -219.9547
  17   2.0000      -8.081066      -219.8970
  18   2.0000      -6.041727      -164.4038
  19   2.0000      -6.039542      -164.3443
  20   2.0000      -6.037632      -164.2923
  21   2.0000      -6.035660      -164.2386
  22   2.0000      -6.034080      -164.1957
  23   2.0000      -6.031762      -164.1326
  24   2.0000      -1.005142       -27.3513
  25   2.0000      -0.978514       -26.6267
  26   2.0000      -0.916451       -24.9379
  27   2.0000      -0.902748       -24.5650
  28   2.0000      -0.868215       -23.6253
  29   2.0000      -0.851531       -23.1713
  30   2.0000      -0.842719       -22.9315
  31   2.0000      -0.813207       -22.1285
  32   2.0000      -0.788223       -21.4486
  33   2.0000      -0.773406       -21.0454
  34   2.0000      -0.710135       -19.3237
  35   2.0000      -0.695404       -18.9229
  36   2.0000      -0.684632       -18.6298
  37   2.0000      -0.653557       -17.7842
  38   2.0000      -0.637516       -17.3477
  39   2.0000      -0.629313       -17.1245
  40   2.0000      -0.597214       -16.2510
  41   2.0000      -0.568978       -15.4827
  42   2.0000      -0.556731       -15.1494
  43   2.0000      -0.546846       -14.8804
  44   2.0000      -0.544083       -14.8053
  45   2.0000      -0.539403       -14.6779
  46   2.0000      -0.521932       -14.2025
  47   2.0000      -0.512717       -13.9517
  48   2.0000      -0.500956       -13.6317
  49   2.0000      -0.491129       -13.3643
  50   2.0000      -0.487277       -13.2595
  51   2.0000      -0.479945       -13.0600
  52   2.0000      -0.469281       -12.7698
  53   2.0000      -0.467827       -12.7302
  54   2.0000      -0.460748       -12.5376
  55   2.0000      -0.451371       -12.2824
  56   2.0000      -0.448015       -12.1911
  57   2.0000      -0.437973       -11.9178
  58   2.0000      -0.433572       -11.7981
  59   2.0000      -0.425150       -11.5689
  60   2.0000      -0.417095       -11.3497
  61   2.0000      -0.412537       -11.2257
  62   2.0000      -0.400851       -10.9077
  63   2.0000      -0.352731        -9.5983
  64   2.0000      -0.331871        -9.0307
  65   2.0000      -0.331286        -9.0148
  66   2.0000      -0.285309        -7.7637
  67   0.0000       0.020521         0.5584
  68   0.0000       0.070269         1.9121
  69   0.0000       0.103978         2.8294
  70   0.0000       0.113507         3.0887
  71   0.0000       0.131134         3.5683

MULLIKEN ATOMIC CHARGES
-----------------------
   0 S :    0.094512
   1 C :   -0.164828
   2 C :   -0.090450
   3 C :    0.025613
   4 C :   -0.121430
   5 H :    0.011095
   6 C :    0.093810
   7 H :    0.002091
   8 H :    0.036167
   9 C :   -0.090407
  10 H :    0.013820
  11 H :    0.021849
  12 C :   -0.058323
  13 H :    0.046570
  14 H :    0.039315
  15 H :    0.040827
  16 S :    0.113844
  17 C :   -0.109582
  18 C :   -0.052821
  19 C :   -0.036374
  20 C :   -0.151923
  21 H :    0.024260
  22 C :    0.080123
  23 H :    0.026099
  24 H :    0.041200
  25 C :   -0.092807
  26 H :    0.025659
  27 H :    0.026887
  28 C :   -0.004246
  29 H :    0.035961
  30 H :    0.017732
  31 H :   -0.002127
  32 H :    0.083082
  33 H :    0.074801
Sum of atomic charges:    0.0000000

LOEWDIN ATOMIC CHARGES
----------------------
   0 S :    0.393884
   1 C :   -0.201329
   2 C :   -0.064468
   3 C :   -0.061929
   4 C :   -0.185402
   5 H :    0.027860
   6 C :   -0.026914
   7 H :    0.021404
   8 H :    0.034790
   9 C :   -0.045199
  10 H :    0.018118
  11 H :    0.018865
  12 C :   -0.068623
  13 H :    0.034753
  14 H :    0.028829
  15 H :    0.027266
  16 S :    0.404674
  17 C :   -0.197277
  18 C :   -0.073657
  19 C :   -0.051460
  20 C :   -0.194593
  21 H :    0.029635
  22 C :   -0.026382
  23 H :    0.029436
  24 H :    0.035190
  25 C :   -0.033968
  26 H :    0.021435
  27 H :    0.022096
  28 C :   -0.070988
  29 H :    0.026537
  30 H :    0.031591
  31 H :    0.014002
  32 H :    0.043037
  33 H :    0.038787

  Mayer bond orders larger than 0.100000
B(  0-S ,  1-C ) :   1.1198 B(  0-S ,  4-C ) :   1.1662 B(  1-C ,  2-C ) :   1.5969
B(  1-C , 32-H ) :   0.9616 B(  2-C ,  3-C ) :   1.2404 B(  2-C ,  6-C ) :   1.0339
B(  3-C ,  4-C ) :   1.5416 B(  3-C ,  5-H ) :   0.9958 B(  4-C , 20-C ) :   1.0646
B(  6-C ,  7-H ) :   0.9425 B(  6-C ,  8-H ) :   0.9369 B(  6-C ,  9-C ) :   1.0721
B(  9-C , 10-H ) :   0.9572 B(  9-C , 11-H ) :   0.9523 B(  9-C , 12-C ) :   1.0768
B( 12-C , 13-H ) :   0.9759 B( 12-C , 14-H ) :   0.9735 B( 12-C , 15-H ) :   0.9731
B( 16-S , 17-C ) :   1.1593 B( 16-S , 20-C ) :   1.1439 B( 17-C , 18-C ) :   1.6148
B( 17-C , 33-H ) :   0.9605 B( 18-C , 19-C ) :   1.2274 B( 18-C , 21-H ) :   0.9884
B( 19-C , 20-C ) :   1.5620 B( 19-C , 22-C ) :   1.0342 B( 22-C , 23-H ) :   0.9379
B( 22-C , 24-H ) :   0.9401 B( 22-C , 25-C ) :   1.0642 B( 25-C , 26-H ) :   0.9592
B( 25-C , 27-H ) :   0.9570 B( 25-C , 28-C ) :   1.0641 B( 28-C , 29-H ) :   0.9777
B( 28-C , 30-H ) :   0.9686 B( 28-C , 31-H ) :   0.9647

Dispersion correction           -0.014148819
FINAL SINGLE POINT ENERGY     -1339.858729440734

DIPOLE MOMENT
-------------
                                X             Y             Z
Electronic contribution:      9.92770     -20.71736      13.59133
Nuclear contribution   :    -10.22182      20.82829     -14.18007
                        -----------------------------------------
Total Dipole Moment    :     -0.29412       0.11093      -0.58874
                        -----------------------------------------
Magnitude (a.u.)       :      0.66741
Magnitude (Debye)      :      1.69641

Rotational constants in cm-1:     0.018861     0.008749     0.006735
Rotational constants in MHz :   565.445089   262.289934   201.913433

                             ****ORCA TERMINATED NORMALLY****
TOTAL RUN TIME: 0 days 0 hours 0 minutes 21 seconds 537 msec
