                         Program Version 4.2.1 -  RELEASE  -
|  1> ! wB97X-D3 SP def2-SVP
|  2> %pal
|  3> nprocs 24
|  4> end
|  5>
|  6> * xyz 0 1
|  7> S 	 -102.27 	 66.6658 	 -8.50375
|  8> C 	 -101.486 	 66.2266 	 -6.94085
|  9> C 	 -102.294 	 65.4016 	 -6.20477
| 10> C 	 -103.54 	 65.1158 	 -6.97474
| 11> C 	 -103.766 	 65.9129 	 -8.08926
| 12> H 	 -104.287 	 64.4116 	 -6.72685
| 13> C 	 -101.942 	 64.5745 	 -4.95817
| 14> H 	 -101.926 	 65.3405 	 -4.13153
| 15> H 	 -100.911 	 64.2634 	 -5.13023
| 16> C 	 -102.742 	 63.3333 	 -4.63164
| 17> H 	 -103.702 	 63.5717 	 -4.22685
| 18> H 	 -102.953 	 62.85 	 -5.57415
| 19> C 	 -101.967 	 62.5219 	 -3.57917
| 20> H 	 -100.96 	 62.349 	 -3.83982
| 21> H 	 -101.981 	 62.9375 	 -2.57126
| 22> H 	 -102.387 	 61.5516 	 -3.61623
| 23> S 	 -104.321 	 65.1595 	 -10.6874
| 24> C 	 -106.035 	 64.8073 	 -11.0382
| 25> C 	 -106.879 	 65.0539 	 -10.0191
| 26> C 	 -106.165 	 65.6711 	 -8.94332
| 27> C 	 -104.809 	 65.6541 	 -9.09067
| 28> H 	 -107.932 	 65.0189 	 -10.1523
| 29> C 	 -106.864 	 66.0726 	 -7.65886
| 30> H 	 -106.192 	 65.8486 	 -6.76942
| 31> H 	 -107.638 	 65.3527 	 -7.39992
| 32> C 	 -107.477 	 67.531 	 -7.60245
| 33> H 	 -108.325 	 67.5478 	 -6.90578
| 34> H 	 -107.842 	 67.6901 	 -8.61774
| 35> C 	 -106.457 	 68.6085 	 -7.28766
| 36> H 	 -106.655 	 69.6638 	 -7.55889
| 37> H 	 -105.536 	 68.3304 	 -7.80976
| 38> H 	 -106.197 	 68.4723 	 -6.18193
| 39> H 	 -100.592 	 66.7097 	 -6.55891
| 40> H 	 -106.306 	 64.6318 	 -12.0959
| 41> *
| 42>
| 43>                          ****END OF INPUT****

CARTESIAN COORDINATES (ANGSTROEM)
---------------------------------
  S    -102.270000   66.665800   -8.503750
  C    -101.486000   66.226600   -6.940850
  C    -102.294000   65.401600   -6.204770
  C    -103.540000   65.115800   -6.974740
  C    -103.766000   65.912900   -8.089260
  H    -104.287000   64.411600   -6.726850
  C    -101.942000   64.574500   -4.958170
  H    -101.926000   65.340500   -4.131530
  H    -100.911000   64.263400   -5.130230
  C    -102.742000   63.333300   -4.631640
  H    -103.702000   63.571700   -4.226850
  H    -102.953000   62.850000   -5.574150
  C    -101.967000   62.521900   -3.579170
  H    -100.960000   62.349000   -3.839820
  H    -101.981000   62.937500   -2.571260
  H    -102.387000   61.551600   -3.616230
  S    -104.321000   65.159500  -10.687400
  C    -106.035000   64.807300  -11.038200
  C    -106.879000   65.053900  -10.019100
  C    -106.165000   65.671100   -8.943320
  C    -104.809000   65.654100   -9.090670
  H    -107.932000   65.018900  -10.152300
  C    -106.864000   66.072600   -7.658860
  H    -106.192000   65.848600   -6.769420
  H    -107.638000   65.352700   -7.399920
  C    -107.477000   67.531000   -7.602450
  H    -108.325000   67.547800   -6.905780
  H    -107.842000   67.690100   -8.617740
  C    -106.457000   68.608500   -7.287660
  H    -106.655000   69.663800   -7.558890
  H    -105.536000   68.330400   -7.809760
  H    -106.197000   68.472300   -6.181930
  H    -100.592000   66.709700   -6.558910
  H    -106.306000   64.631800  -12.095900

 Total Charge           Charge          ....    0
 Multiplicity           Mult            ....    1
 Number of Electrons    NEL             ....  134
 Basis Dimension        Dim             ....  322

ORBITAL ENERGIES
----------------

  NO   OCC          E(Eh)            E(eV)
   0   2.0000     -88.963842     -2420.8292
   1   2.0000     -88.962871     -2420.8028
   2   2.0000     -10.328252      -281.0460
   3   2.0000     -10.325169      -280.9621
   4   2.0000     -10.319041      -280.7954
   5   2.0000     -10.318368      -280.7771
   6   2.0000     -10.309097      -280.5248
   7   2.0000     -10.300350      -280.2868
   8   2.0000     -10.297446      -280.2078
   9   2.0000     -10.295251      -280.1480
  10   2.0000     -10.292501      -280.0732
  11   2.0000     -10.292312      -280.0681
  12   2.0000     -10.288052      -279.9521
  13   2.0000     -10.286132      -279.8999
  14   2.0000     -10.275592      -279.6131
  15   2.0000     -10.275547      -279.6118
  16   2.0000      -8.078731      -219.8334
  17   2.0000      -8.077349      -219.7959
  18   2.0000      -6.037204      -164.2807
  19   2.0000      -6.036125      -164.2513
  20   2.0000      -6.033435      -164.1781
  21   2.0000      -6.031886      -164.1360
  22   2.0000      -6.029284      -164.0652
  23   2.0000      -6.027851      -164.0262
  24   2.0000      -1.008156       -27.4333
  25   2.0000      -0.981621       -26.7113
  26   2.0000      -0.917279       -24.9604
  27   2.0000      -0.899534       -24.4776
  28   2.0000      -0.875294       -23.8180
  29   2.0000      -0.847422       -23.0595
  30   2.0000      -0.842103       -22.9148
  31   2.0000      -0.814544       -22.1649
  32   2.0000      -0.782766       -21.3001
  33   2.0000      -0.769557       -20.9407
  34   2.0000      -0.715975       -19.4827
  35   2.0000      -0.694070       -18.8866
  36   2.0000      -0.688286       -18.7292
  37   2.0000      -0.662070       -18.0158
  38   2.0000      -0.640670       -17.4335
  39   2.0000      -0.615907       -16.7597
  40   2.0000      -0.598639       -16.2898
  41   2.0000      -0.576492       -15.6871
  42   2.0000      -0.568380       -15.4664
  43   2.0000      -0.546589       -14.8734
  44   2.0000      -0.537866       -14.6361
  45   2.0000      -0.525841       -14.3089
  46   2.0000      -0.516906       -14.0657
  47   2.0000      -0.507133       -13.7998
  48   2.0000      -0.502442       -13.6721
  49   2.0000      -0.497710       -13.5434
  50   2.0000      -0.485411       -13.2087
  51   2.0000      -0.481319       -13.0974
  52   2.0000      -0.475034       -12.9263
  53   2.0000      -0.463270       -12.6062
  54   2.0000      -0.454354       -12.3636
  55   2.0000      -0.447386       -12.1740
  56   2.0000      -0.442157       -12.0317
  57   2.0000      -0.436657       -11.8820
  58   2.0000      -0.430203       -11.7064
  59   2.0000      -0.427335       -11.6284
  60   2.0000      -0.415759       -11.3134
  61   2.0000      -0.412549       -11.2260
  62   2.0000      -0.410300       -11.1648
  63   2.0000      -0.349978        -9.5234
  64   2.0000      -0.332487        -9.0474
  65   2.0000      -0.323593        -8.8054
  66   2.0000      -0.295666        -8.0455
  67   0.0000       0.029433         0.8009
  68   0.0000       0.069179         1.8825
  69   0.0000       0.101258         2.7554
  70   0.0000       0.120264         3.2726
  71   0.0000       0.126684         3.4472

MULLIKEN ATOMIC CHARGES
-----------------------
   0 S :    0.077189
   1 C :   -0.129556
   2 C :   -0.069446
   3 C :    0.001660
   4 C :   -0.121125
   5 H :    0.012689
   6 C :    0.022696
   7 H :    0.045477
   8 H :    0.032029
   9 C :   -0.065434
  10 H :    0.026106
  11 H :    0.035350
  12 C :   -0.003068
  13 H :    0.014857
  14 H :    0.042693
  15 H :    0.021793
  16 S :    0.097969
  17 C :   -0.107246
  18 C :    0.014670
  19 C :   -0.066111
  20 C :   -0.134237
  21 H :    0.017200
  22 C :    0.008854
  23 H :    0.021356
  24 H :    0.017302
  25 C :   -0.040821
  26 H :    0.031980
  27 H :    0.022124
  28 C :   -0.063485
  29 H :    0.047652
  30 H :    0.029914
  31 H :    0.034233
  32 H :    0.056765
  33 H :    0.067973
Sum of atomic charges:   -0.0000000

LOEWDIN ATOMIC CHARGES
----------------------
   0 S :    0.384506
   1 C :   -0.182252
   2 C :   -0.057396
   3 C :   -0.057834
   4 C :   -0.201865
   5 H :    0.018936
   6 C :   -0.037639
   7 H :    0.039258
   8 H :    0.032629
   9 C :   -0.037640
  10 H :    0.022778
  11 H :    0.026195
  12 C :   -0.053049
  13 H :    0.018838
  14 H :    0.031266
  15 H :    0.025509
  16 S :    0.384149
  17 C :   -0.164740
  18 C :   -0.063541
  19 C :   -0.064140
  20 C :   -0.195451
  21 H :    0.032598
  22 C :   -0.041290
  23 H :    0.032476
  24 H :    0.028504
  25 C :   -0.038675
  26 H :    0.022253
  27 H :    0.021908
  28 C :   -0.076076
  29 H :    0.028550
  30 H :    0.026813
  31 H :    0.032376
  32 H :    0.030759
  33 H :    0.031286

  Mayer bond orders larger than 0.100000
B(  0-S ,  1-C ) :   1.1206 B(  0-S ,  4-C ) :   1.1357 B(  1-C ,  2-C ) :   1.6474
B(  1-C , 32-H ) :   0.9685 B(  2-C ,  3-C ) :   1.2146 B(  2-C ,  6-C ) :   0.9944
B(  3-C ,  4-C ) :   1.5883 B(  3-C ,  5-H ) :   0.9818 B(  4-C , 20-C ) :   1.0178
B(  6-C ,  7-H ) :   0.9287 B(  6-C ,  8-H ) :   0.9527 B(  6-C ,  9-C ) :   1.0896
B(  9-C , 10-H ) :   0.9441 B(  9-C , 11-H ) :   0.9494 B(  9-C , 12-C ) :   1.0829
B( 12-C , 13-H ) :   0.9749 B( 12-C , 14-H ) :   0.9751 B( 12-C , 15-H ) :   0.9695
B( 16-S , 17-C ) :   1.1367 B( 16-S , 20-C ) :   1.1248 B( 17-C , 18-C ) :   1.6429
B( 17-C , 33-H ) :   0.9611 B( 18-C , 19-C ) :   1.2183 B( 18-C , 21-H ) :   0.9929
B( 19-C , 20-C ) :   1.6465 B( 19-C , 22-C ) :   1.0434 B( 22-C , 23-H ) :   0.9364
B( 22-C , 24-H ) :   0.9395 B( 22-C , 25-C ) :   1.0506 B( 25-C , 26-H ) :   0.9591
B( 25-C , 27-H ) :   0.9567 B( 25-C , 28-C ) :   1.0725 B( 28-C , 29-H ) :   0.9749
B( 28-C , 30-H ) :   0.9742 B( 28-C , 31-H ) :   0.9729

Dispersion correction           -0.014419707
FINAL SINGLE POINT ENERGY     -1339.862592179901

DIPOLE MOMENT
-------------
                                X             Y             Z
Electronic contribution:      6.64975       3.14577     -23.66085
Nuclear contribution   :     -6.87660      -3.52649      24.20595
                        -----------------------------------------
Total Dipole Moment    :     -0.22685      -0.38072       0.54511
                        -----------------------------------------
Magnitude (a.u.)       :      0.70253
Magnitude (Debye)      :      1.78569

Rotational constants in cm-1:     0.018118     0.008210     0.007577
Rotational constants in MHz :   543.151917   246.132315   227.142373

                             ****ORCA TERMINATED NORMALLY****
TOTAL RUN TIME: 0 days 0 hours 0 minutes 21 seconds 935 msec
