                         Program Version 4.2.1 -  RELEASE  -
|  1> ! wB97X-D3 SP def2-SVP
|  2> %pal
|  3> nprocs 24
|  4> end
|  5>
|  6> * xyz 0 1
|  7> S 	 -122.916 	 66.7941 	 -42.2294
|  8> C 	 -122.083 	 68.3434 	 -41.7746
|  9> C 	 -121.48 	 68.8645 	 -42.8767
| 10> C 	 -121.319 	 67.9036 	 -43.8681
| 11> C 	 -121.883 	 66.6641 	 -43.6633
| 12> H 	 -120.888 	 68.0263 	 -44.8688
| 13> C 	 -121.164 	 70.3657 	 -43.1022
| 14> H 	 -120.409 	 70.4042 	 -43.8234
| 15> H 	 -120.62 	 70.8351 	 -42.2582
| 16> C 	 -122.31 	 71.3495 	 -43.3762
| 17> H 	 -121.83 	 72.3166 	 -43.4926
| 18> H 	 -122.974 	 71.1014 	 -44.2448
| 19> C 	 -123.221 	 71.4489 	 -42.1591
| 20> H 	 -123.774 	 70.4089 	 -42.0314
| 21> H 	 -122.687 	 71.8255 	 -41.2844
| 22> H 	 -124.077 	 72.1351 	 -42.459
| 23> S 	 -120.692 	 64.3899 	 -44.7365
| 24> C 	 -121.529 	 63.4353 	 -45.9124
| 25> C 	 -122.8 	 63.9749 	 -46.1732
| 26> C 	 -123.017 	 65.2358 	 -45.4899
| 27> C 	 -121.98 	 65.5947 	 -44.658
| 28> H 	 -123.526 	 63.4877 	 -46.8131
| 29> C 	 -124.284 	 66.0137 	 -45.7454
| 30> H 	 -124.191 	 66.8288 	 -44.952
| 31> H 	 -125.155 	 65.3608 	 -45.7462
| 32> C 	 -124.326 	 66.6143 	 -47.1496
| 33> H 	 -125.229 	 67.1486 	 -47.28
| 34> H 	 -124.373 	 65.7332 	 -47.8014
| 35> C 	 -123.017 	 67.3909 	 -47.4314
| 36> H 	 -123.135 	 68.3403 	 -46.9608
| 37> H 	 -122.81 	 67.4146 	 -48.4697
| 38> H 	 -122.133 	 67.0336 	 -46.9691
| 39> H 	 -122.335 	 68.8095 	 -40.8136
| 40> H 	 -121.113 	 62.4707 	 -46.27
| 41> *
| 42>
| 43>                          ****END OF INPUT****

CARTESIAN COORDINATES (ANGSTROEM)
---------------------------------
  S    -122.916000   66.794100  -42.229400
  C    -122.083000   68.343400  -41.774600
  C    -121.480000   68.864500  -42.876700
  C    -121.319000   67.903600  -43.868100
  C    -121.883000   66.664100  -43.663300
  H    -120.888000   68.026300  -44.868800
  C    -121.164000   70.365700  -43.102200
  H    -120.409000   70.404200  -43.823400
  H    -120.620000   70.835100  -42.258200
  C    -122.310000   71.349500  -43.376200
  H    -121.830000   72.316600  -43.492600
  H    -122.974000   71.101400  -44.244800
  C    -123.221000   71.448900  -42.159100
  H    -123.774000   70.408900  -42.031400
  H    -122.687000   71.825500  -41.284400
  H    -124.077000   72.135100  -42.459000
  S    -120.692000   64.389900  -44.736500
  C    -121.529000   63.435300  -45.912400
  C    -122.800000   63.974900  -46.173200
  C    -123.017000   65.235800  -45.489900
  C    -121.980000   65.594700  -44.658000
  H    -123.526000   63.487700  -46.813100
  C    -124.284000   66.013700  -45.745400
  H    -124.191000   66.828800  -44.952000
  H    -125.155000   65.360800  -45.746200
  C    -124.326000   66.614300  -47.149600
  H    -125.229000   67.148600  -47.280000
  H    -124.373000   65.733200  -47.801400
  C    -123.017000   67.390900  -47.431400
  H    -123.135000   68.340300  -46.960800
  H    -122.810000   67.414600  -48.469700
  H    -122.133000   67.033600  -46.969100
  H    -122.335000   68.809500  -40.813600
  H    -121.113000   62.470700  -46.270000

 Total Charge           Charge          ....    0
 Multiplicity           Mult            ....    1
 Number of Electrons    NEL             ....  134
 Basis Dimension        Dim             ....  322

ORBITAL ENERGIES
----------------

  NO   OCC          E(Eh)            E(eV)
   0   2.0000     -88.964420     -2420.8449
   1   2.0000     -88.963573     -2420.8219
   2   2.0000     -10.329508      -281.0802
   3   2.0000     -10.325115      -280.9607
   4   2.0000     -10.323854      -280.9264
   5   2.0000     -10.322236      -280.8823
   6   2.0000     -10.303194      -280.3642
   7   2.0000     -10.302133      -280.3353
   8   2.0000     -10.297529      -280.2100
   9   2.0000     -10.294094      -280.1165
  10   2.0000     -10.293304      -280.0951
  11   2.0000     -10.292842      -280.0825
  12   2.0000     -10.290989      -280.0320
  13   2.0000     -10.290171      -280.0098
  14   2.0000     -10.282152      -279.7916
  15   2.0000     -10.262760      -279.2639
  16   2.0000      -8.078520      -219.8277
  17   2.0000      -8.077900      -219.8108
  18   2.0000      -6.037015      -164.2755
  19   2.0000      -6.036418      -164.2593
  20   2.0000      -6.032875      -164.1629
  21   2.0000      -6.032825      -164.1615
  22   2.0000      -6.029455      -164.0698
  23   2.0000      -6.028409      -164.0414
  24   2.0000      -1.005181       -27.3524
  25   2.0000      -0.984247       -26.7827
  26   2.0000      -0.913156       -24.8483
  27   2.0000      -0.912288       -24.8246
  28   2.0000      -0.868616       -23.6362
  29   2.0000      -0.844578       -22.9821
  30   2.0000      -0.842049       -22.9133
  31   2.0000      -0.809209       -22.0197
  32   2.0000      -0.784541       -21.3485
  33   2.0000      -0.778152       -21.1746
  34   2.0000      -0.707791       -19.2600
  35   2.0000      -0.693089       -18.8599
  36   2.0000      -0.689197       -18.7540
  37   2.0000      -0.661497       -18.0003
  38   2.0000      -0.642661       -17.4877
  39   2.0000      -0.616101       -16.7650
  40   2.0000      -0.590179       -16.0596
  41   2.0000      -0.575011       -15.6468
  42   2.0000      -0.559246       -15.2178
  43   2.0000      -0.551131       -14.9970
  44   2.0000      -0.546525       -14.8717
  45   2.0000      -0.539185       -14.6720
  46   2.0000      -0.522887       -14.2285
  47   2.0000      -0.514122       -13.9900
  48   2.0000      -0.504235       -13.7209
  49   2.0000      -0.499086       -13.5808
  50   2.0000      -0.484345       -13.1797
  51   2.0000      -0.475748       -12.9458
  52   2.0000      -0.467887       -12.7319
  53   2.0000      -0.462464       -12.5843
  54   2.0000      -0.456109       -12.4114
  55   2.0000      -0.452347       -12.3090
  56   2.0000      -0.437654       -11.9092
  57   2.0000      -0.435613       -11.8536
  58   2.0000      -0.426812       -11.6141
  59   2.0000      -0.424617       -11.5544
  60   2.0000      -0.417349       -11.3567
  61   2.0000      -0.413415       -11.2496
  62   2.0000      -0.409634       -11.1467
  63   2.0000      -0.332054        -9.0357
  64   2.0000      -0.330650        -8.9974
  65   2.0000      -0.326489        -8.8842
  66   2.0000      -0.305538        -8.3141
  67   0.0000       0.033452         0.9103
  68   0.0000       0.051288         1.3956
  69   0.0000       0.094591         2.5739
  70   0.0000       0.118878         3.2348
  71   0.0000       0.129073         3.5123

MULLIKEN ATOMIC CHARGES
-----------------------
   0 S :    0.090858
   1 C :   -0.150495
   2 C :   -0.029914
   3 C :    0.021066
   4 C :   -0.158732
   5 H :    0.017437
   6 C :    0.082071
   7 H :    0.003162
   8 H :    0.020297
   9 C :   -0.048313
  10 H :    0.032825
  11 H :    0.040586
  12 C :   -0.121440
  13 H :    0.059932
  14 H :    0.040255
  15 H :    0.043032
  16 S :    0.110318
  17 C :   -0.109469
  18 C :   -0.031923
  19 C :   -0.056040
  20 C :   -0.199857
  21 H :    0.023025
  22 C :    0.070489
  23 H :    0.035265
  24 H :    0.029395
  25 C :   -0.061689
  26 H :    0.030418
  27 H :    0.016145
  28 C :   -0.013699
  29 H :    0.018002
  30 H :    0.026736
  31 H :    0.028759
  32 H :    0.065034
  33 H :    0.076467
Sum of atomic charges:    0.0000000

LOEWDIN ATOMIC CHARGES
----------------------
   0 S :    0.368676
   1 C :   -0.157502
   2 C :   -0.070054
   3 C :   -0.059733
   4 C :   -0.192844
   5 H :    0.034445
   6 C :   -0.029869
   7 H :    0.018932
   8 H :    0.035850
   9 C :   -0.040650
  10 H :    0.027085
  11 H :    0.029231
  12 C :   -0.081769
  13 H :    0.039312
  14 H :    0.021498
  15 H :    0.031739
  16 S :    0.411961
  17 C :   -0.191691
  18 C :   -0.074437
  19 C :   -0.053327
  20 C :   -0.210894
  21 H :    0.029625
  22 C :   -0.033605
  23 H :    0.031567
  24 H :    0.032467
  25 C :   -0.031130
  26 H :    0.019936
  27 H :    0.019134
  28 C :   -0.058580
  29 H :    0.022982
  30 H :    0.022252
  31 H :    0.022090
  32 H :    0.030231
  33 H :    0.037072

  Mayer bond orders larger than 0.100000
B(  0-S ,  1-C ) :   1.1356 B(  0-S ,  4-C ) :   1.1271 B(  1-C ,  2-C ) :   1.5912
B(  1-C ,  4-C ) :   0.1015 B(  1-C , 32-H ) :   0.9709 B(  2-C ,  3-C ) :   1.2469
B(  2-C ,  6-C ) :   1.0108 B(  3-C ,  4-C ) :   1.5912 B(  3-C ,  5-H ) :   0.9881
B(  4-C , 20-C ) :   1.0282 B(  6-C ,  7-H ) :   0.9382 B(  6-C ,  8-H ) :   0.9391
B(  6-C ,  9-C ) :   1.0671 B(  9-C , 10-H ) :   0.9505 B(  9-C , 11-H ) :   0.9557
B(  9-C , 12-C ) :   1.0837 B( 12-C , 13-H ) :   0.9642 B( 12-C , 14-H ) :   0.9735
B( 12-C , 15-H ) :   0.9716 B( 16-S , 17-C ) :   1.1768 B( 16-S , 20-C ) :   1.1354
B( 17-C , 18-C ) :   1.5809 B( 17-C , 33-H ) :   0.9648 B( 18-C , 19-C ) :   1.2318
B( 18-C , 21-H ) :   0.9906 B( 19-C , 20-C ) :   1.6055 B( 19-C , 22-C ) :   1.0462
B( 22-C , 23-H ) :   0.9281 B( 22-C , 24-H ) :   0.9349 B( 22-C , 25-C ) :   1.0727
B( 25-C , 26-H ) :   0.9612 B( 25-C , 27-H ) :   0.9556 B( 25-C , 28-C ) :   1.0645
B( 28-C , 29-H ) :   0.9751 B( 28-C , 30-H ) :   0.9723 B( 28-C , 31-H ) :   0.9728

Dispersion correction           -0.015975298
FINAL SINGLE POINT ENERGY     -1339.856612585613

DIPOLE MOMENT
-------------
                                X             Y             Z
Electronic contribution:      8.70976     -22.07082       8.59326
Nuclear contribution   :     -8.96135      22.56464      -8.95561
                        -----------------------------------------
Total Dipole Moment    :     -0.25159       0.49382      -0.36235
                        -----------------------------------------
Magnitude (a.u.)       :      0.66216
Magnitude (Debye)      :      1.68306

Rotational constants in cm-1:     0.022558     0.008608     0.007437
Rotational constants in MHz :   676.264174   258.050812   222.956068

                             ****ORCA TERMINATED NORMALLY****
TOTAL RUN TIME: 0 days 0 hours 0 minutes 22 seconds 829 msec
