                         Program Version 4.2.1 -  RELEASE  -
|  1> ! wB97X-D3 SP def2-SVP
|  2> %pal
|  3> nprocs 24
|  4> end
|  5>
|  6> * xyz 0 1
|  7> S 	 -79.1248 	 -43.4497 	 -92.2155
|  8> C 	 -78.332 	 -41.8246 	 -92.5317
|  9> C 	 -79.2169 	 -40.9978 	 -93.1679
| 10> C 	 -80.5139 	 -41.6019 	 -93.2983
| 11> C 	 -80.6688 	 -42.8708 	 -92.7176
| 12> H 	 -81.3653 	 -41.1458 	 -93.6901
| 13> C 	 -78.993 	 -39.5538 	 -93.5738
| 14> H 	 -77.9529 	 -39.3871 	 -93.5276
| 15> H 	 -79.5655 	 -39.0756 	 -92.7629
| 16> C 	 -79.5602 	 -38.9384 	 -94.8989
| 17> H 	 -79.0056 	 -39.4295 	 -95.7292
| 18> H 	 -80.6312 	 -39.1702 	 -94.9937
| 19> C 	 -79.4274 	 -37.3438 	 -95.0147
| 20> H 	 -78.3832 	 -37.0101 	 -95.0335
| 21> H 	 -79.8003 	 -37.0103 	 -95.9813
| 22> H 	 -79.9872 	 -36.8551 	 -94.1642
| 23> S 	 -81.7758 	 -45.313 	 -93.503
| 24> C 	 -83.4844 	 -45.469 	 -93.0389
| 25> C 	 -84.045 	 -44.3556 	 -92.4268
| 26> C 	 -83.0916 	 -43.3107 	 -92.3159
| 27> C 	 -81.8691 	 -43.7046 	 -92.7755
| 28> H 	 -85.0526 	 -44.4105 	 -92.0899
| 29> C 	 -83.4592 	 -42.0695 	 -91.5223
| 30> H 	 -84.489 	 -41.912 	 -91.4575
| 31> H 	 -83.0179 	 -41.2409 	 -92.0879
| 32> C 	 -82.9576 	 -42.0511 	 -90.089
| 33> H 	 -83.1459 	 -41.1354 	 -89.58
| 34> H 	 -81.8388 	 -42.1058 	 -89.9895
| 35> C 	 -83.6081 	 -43.1721 	 -89.1962
| 36> H 	 -82.8035 	 -43.4204 	 -88.4838
| 37> H 	 -83.8056 	 -44.0958 	 -89.814
| 38> H 	 -84.527 	 -42.8428 	 -88.7225
| 39> H 	 -77.2765 	 -41.6439 	 -92.4236
| 40> H 	 -84.2222 	 -46.2971 	 -93.1175
| 41> *
| 42>
| 43>                          ****END OF INPUT****

CARTESIAN COORDINATES (ANGSTROEM)
---------------------------------
  S    -79.124800  -43.449700  -92.215500
  C    -78.332000  -41.824600  -92.531700
  C    -79.216900  -40.997800  -93.167900
  C    -80.513900  -41.601900  -93.298300
  C    -80.668800  -42.870800  -92.717600
  H    -81.365300  -41.145800  -93.690100
  C    -78.993000  -39.553800  -93.573800
  H    -77.952900  -39.387100  -93.527600
  H    -79.565500  -39.075600  -92.762900
  C    -79.560200  -38.938400  -94.898900
  H    -79.005600  -39.429500  -95.729200
  H    -80.631200  -39.170200  -94.993700
  C    -79.427400  -37.343800  -95.014700
  H    -78.383200  -37.010100  -95.033500
  H    -79.800300  -37.010300  -95.981300
  H    -79.987200  -36.855100  -94.164200
  S    -81.775800  -45.313000  -93.503000
  C    -83.484400  -45.469000  -93.038900
  C    -84.045000  -44.355600  -92.426800
  C    -83.091600  -43.310700  -92.315900
  C    -81.869100  -43.704600  -92.775500
  H    -85.052600  -44.410500  -92.089900
  C    -83.459200  -42.069500  -91.522300
  H    -84.489000  -41.912000  -91.457500
  H    -83.017900  -41.240900  -92.087900
  C    -82.957600  -42.051100  -90.089000
  H    -83.145900  -41.135400  -89.580000
  H    -81.838800  -42.105800  -89.989500
  C    -83.608100  -43.172100  -89.196200
  H    -82.803500  -43.420400  -88.483800
  H    -83.805600  -44.095800  -89.814000
  H    -84.527000  -42.842800  -88.722500
  H    -77.276500  -41.643900  -92.423600
  H    -84.222200  -46.297100  -93.117500

 Total Charge           Charge          ....    0
 Multiplicity           Mult            ....    1
 Number of Electrons    NEL             ....  134
 Basis Dimension        Dim             ....  322

ORBITAL ENERGIES
----------------

  NO   OCC          E(Eh)            E(eV)
   0   2.0000     -88.977037     -2421.1883
   1   2.0000     -88.963346     -2420.8157
   2   2.0000     -10.328799      -281.0609
   3   2.0000     -10.326210      -280.9905
   4   2.0000     -10.320011      -280.8218
   5   2.0000     -10.315866      -280.7090
   6   2.0000     -10.304209      -280.3918
   7   2.0000     -10.300792      -280.2988
   8   2.0000     -10.300241      -280.2838
   9   2.0000     -10.294591      -280.1301
  10   2.0000     -10.291908      -280.0570
  11   2.0000     -10.290682      -280.0237
  12   2.0000     -10.287114      -279.9266
  13   2.0000     -10.286889      -279.9205
  14   2.0000     -10.282549      -279.8024
  15   2.0000     -10.277043      -279.6526
  16   2.0000      -8.090445      -220.1522
  17   2.0000      -8.077306      -219.7947
  18   2.0000      -6.049007      -164.6018
  19   2.0000      -6.045462      -164.5054
  20   2.0000      -6.040892      -164.3810
  21   2.0000      -6.035956      -164.2467
  22   2.0000      -6.031944      -164.1375
  23   2.0000      -6.027954      -164.0290
  24   2.0000      -1.005089       -27.3499
  25   2.0000      -0.979383       -26.6504
  26   2.0000      -0.908218       -24.7139
  27   2.0000      -0.905800       -24.6481
  28   2.0000      -0.865915       -23.5627
  29   2.0000      -0.848269       -23.0826
  30   2.0000      -0.839987       -22.8572
  31   2.0000      -0.809857       -22.0373
  32   2.0000      -0.784962       -21.3599
  33   2.0000      -0.774823       -21.0840
  34   2.0000      -0.711326       -19.3562
  35   2.0000      -0.699848       -19.0438
  36   2.0000      -0.685809       -18.6618
  37   2.0000      -0.660671       -17.9778
  38   2.0000      -0.638343       -17.3702
  39   2.0000      -0.618642       -16.8341
  40   2.0000      -0.592197       -16.1145
  41   2.0000      -0.569791       -15.5048
  42   2.0000      -0.563811       -15.3421
  43   2.0000      -0.549071       -14.9410
  44   2.0000      -0.541657       -14.7392
  45   2.0000      -0.522712       -14.2237
  46   2.0000      -0.513995       -13.9865
  47   2.0000      -0.510175       -13.8826
  48   2.0000      -0.502348       -13.6696
  49   2.0000      -0.491898       -13.3852
  50   2.0000      -0.490221       -13.3396
  51   2.0000      -0.476706       -12.9718
  52   2.0000      -0.466486       -12.6937
  53   2.0000      -0.463955       -12.6249
  54   2.0000      -0.459049       -12.4914
  55   2.0000      -0.454725       -12.3737
  56   2.0000      -0.449479       -12.2309
  57   2.0000      -0.434292       -11.8177
  58   2.0000      -0.433726       -11.8023
  59   2.0000      -0.424390       -11.5482
  60   2.0000      -0.418213       -11.3802
  61   2.0000      -0.415209       -11.2984
  62   2.0000      -0.407594       -11.0912
  63   2.0000      -0.342019        -9.3068
  64   2.0000      -0.339215        -9.2305
  65   2.0000      -0.326140        -8.8747
  66   2.0000      -0.291063        -7.9202
  67   0.0000       0.028134         0.7656
  68   0.0000       0.067654         1.8410
  69   0.0000       0.099617         2.7107
  70   0.0000       0.119820         3.2605
  71   0.0000       0.122571         3.3353

MULLIKEN ATOMIC CHARGES
-----------------------
   0 S :    0.083094
   1 C :   -0.144270
   2 C :   -0.043983
   3 C :    0.031369
   4 C :   -0.161844
   5 H :   -0.012180
   6 C :    0.069091
   7 H :    0.012232
   8 H :    0.045752
   9 C :   -0.100358
  10 H :    0.042889
  11 H :    0.038716
  12 C :   -0.072479
  13 H :    0.036344
  14 H :    0.038676
  15 H :    0.048020
  16 S :    0.141085
  17 C :   -0.089955
  18 C :   -0.051644
  19 C :   -0.047475
  20 C :   -0.151813
  21 H :    0.013394
  22 C :    0.141978
  23 H :    0.005514
  24 H :    0.013018
  25 C :   -0.082244
  26 H :    0.018931
  27 H :    0.041389
  28 C :   -0.088351
  29 H :    0.042253
  30 H :    0.045240
  31 H :    0.038148
  32 H :    0.044763
  33 H :    0.054700
Sum of atomic charges:   -0.0000000

LOEWDIN ATOMIC CHARGES
----------------------
   0 S :    0.375901
   1 C :   -0.180627
   2 C :   -0.055867
   3 C :   -0.065289
   4 C :   -0.191624
   5 H :    0.014253
   6 C :   -0.030960
   7 H :    0.022132
   8 H :    0.042104
   9 C :   -0.039653
  10 H :    0.028038
  11 H :    0.023363
  12 C :   -0.068609
  13 H :    0.025205
  14 H :    0.027433
  15 H :    0.032205
  16 S :    0.398351
  17 C :   -0.185933
  18 C :   -0.066937
  19 C :   -0.051069
  20 C :   -0.193559
  21 H :    0.028657
  22 C :   -0.024805
  23 H :    0.022502
  24 H :    0.031319
  25 C :   -0.040447
  26 H :    0.018948
  27 H :    0.029477
  28 C :   -0.072879
  29 H :    0.032859
  30 H :    0.031054
  31 H :    0.021084
  32 H :    0.026057
  33 H :    0.037317

  Mayer bond orders larger than 0.100000
B(  0-S ,  1-C ) :   1.1057 B(  0-S ,  4-C ) :   1.1481 B(  1-C ,  2-C ) :   1.6249
B(  1-C , 32-H ) :   0.9714 B(  2-C ,  3-C ) :   1.2228 B(  2-C ,  6-C ) :   1.0120
B(  3-C ,  4-C ) :   1.5761 B(  3-C ,  5-H ) :   0.9954 B(  4-C , 20-C ) :   1.0425
B(  6-C ,  7-H ) :   0.9438 B(  6-C ,  8-H ) :   0.9369 B(  6-C ,  9-C ) :   1.0600
B(  9-C , 10-H ) :   0.9588 B(  9-C , 11-H ) :   0.9549 B(  9-C , 12-C ) :   1.0730
B( 12-C , 13-H ) :   0.9782 B( 12-C , 14-H ) :   0.9760 B( 12-C , 15-H ) :   0.9762
B( 16-S , 17-C ) :   1.1266 B( 16-S , 20-C ) :   1.1241 B( 17-C , 18-C ) :   1.6620
B( 17-C , 33-H ) :   0.9552 B( 18-C , 19-C ) :   1.2143 B( 18-C , 21-H ) :   0.9884
B( 19-C , 20-C ) :   1.6292 B( 19-C , 22-C ) :   1.0491 B( 22-C , 23-H ) :   0.9347
B( 22-C , 24-H ) :   0.9138 B( 22-C , 25-C ) :   1.0800 B( 25-C , 26-H ) :   0.9553
B( 25-C , 27-H ) :   0.9631 B( 25-C , 28-C ) :   1.0520 B( 28-C , 29-H ) :   0.9772
B( 28-C , 30-H ) :   0.9781 B( 28-C , 31-H ) :   0.9780

Dispersion correction           -0.014665517
FINAL SINGLE POINT ENERGY     -1339.862729887725

DIPOLE MOMENT
-------------
                                X             Y             Z
Electronic contribution:      5.58641     -24.65424      -4.03224
Nuclear contribution   :     -5.90212      25.30909       4.01037
                        -----------------------------------------
Total Dipole Moment    :     -0.31571       0.65484      -0.02188
                        -----------------------------------------
Magnitude (a.u.)       :      0.72730
Magnitude (Debye)      :      1.84866

Rotational constants in cm-1:     0.019486     0.007908     0.007141
Rotational constants in MHz :   584.163444   237.087839   214.072921

                             ****ORCA TERMINATED NORMALLY****
TOTAL RUN TIME: 0 days 0 hours 0 minutes 20 seconds 862 msec
