                         Program Version 4.2.1 -  RELEASE  -
|  1> ! wB97X-D3 SP def2-SVP
|  2> %pal
|  3> nprocs 24
|  4> end
|  5>
|  6> * xyz 0 1
|  7> S 	 -130.018 	 25.3895 	 -17.7666
|  8> C 	 -130.871 	 23.8535 	 -18.0532
|  9> C 	 -131.533 	 23.4418 	 -16.931
| 10> C 	 -131.329 	 24.3472 	 -15.8533
| 11> C 	 -130.577 	 25.4269 	 -16.124
| 12> H 	 -131.782 	 24.2116 	 -14.8875
| 13> C 	 -132.374 	 22.1794 	 -16.8124
| 14> H 	 -131.932 	 21.4315 	 -17.4547
| 15> H 	 -133.299 	 22.3791 	 -17.3108
| 16> C 	 -132.648 	 21.7031 	 -15.3705
| 17> H 	 -133.405 	 22.3185 	 -14.8608
| 18> H 	 -133.296 	 20.8601 	 -15.5173
| 19> C 	 -131.489 	 21.3976 	 -14.3919
| 20> H 	 -131.043 	 20.4742 	 -14.6763
| 21> H 	 -130.705 	 22.0671 	 -14.5298
| 22> H 	 -131.55 	 21.3593 	 -13.2232
| 23> S 	 -128.909 	 27.4305 	 -15.1454
| 24> C 	 -129.623 	 28.5844 	 -14.2043
| 25> C 	 -130.853 	 28.2313 	 -13.7207
| 26> C 	 -131.437 	 27.229 	 -14.5246
| 27> C 	 -130.458 	 26.5539 	 -15.2581
| 28> H 	 -131.446 	 28.9192 	 -13.1601
| 29> C 	 -133.033 	 26.9193 	 -14.5682
| 30> H 	 -133.4 	 27.0034 	 -13.4965
| 31> H 	 -133.25 	 25.931 	 -14.8193
| 32> C 	 -133.753 	 27.8592 	 -15.5702
| 33> H 	 -133.56 	 27.3876 	 -16.5469
| 34> H 	 -133.331 	 28.8559 	 -15.5723
| 35> C 	 -135.272 	 27.7785 	 -15.3233
| 36> H 	 -135.658 	 26.7525 	 -15.1889
| 37> H 	 -135.894 	 28.3673 	 -15.9802
| 38> H 	 -135.364 	 28.3036 	 -14.365
| 39> H 	 -130.81 	 23.4492 	 -19.0268
| 40> H 	 -129.168 	 29.4795 	 -13.9277
| 41> *
| 42>
| 43>                          ****END OF INPUT****

CARTESIAN COORDINATES (ANGSTROEM)
---------------------------------
  S    -130.018000   25.389500  -17.766600
  C    -130.871000   23.853500  -18.053200
  C    -131.533000   23.441800  -16.931000
  C    -131.329000   24.347200  -15.853300
  C    -130.577000   25.426900  -16.124000
  H    -131.782000   24.211600  -14.887500
  C    -132.374000   22.179400  -16.812400
  H    -131.932000   21.431500  -17.454700
  H    -133.299000   22.379100  -17.310800
  C    -132.648000   21.703100  -15.370500
  H    -133.405000   22.318500  -14.860800
  H    -133.296000   20.860100  -15.517300
  C    -131.489000   21.397600  -14.391900
  H    -131.043000   20.474200  -14.676300
  H    -130.705000   22.067100  -14.529800
  H    -131.550000   21.359300  -13.223200
  S    -128.909000   27.430500  -15.145400
  C    -129.623000   28.584400  -14.204300
  C    -130.853000   28.231300  -13.720700
  C    -131.437000   27.229000  -14.524600
  C    -130.458000   26.553900  -15.258100
  H    -131.446000   28.919200  -13.160100
  C    -133.033000   26.919300  -14.568200
  H    -133.400000   27.003400  -13.496500
  H    -133.250000   25.931000  -14.819300
  C    -133.753000   27.859200  -15.570200
  H    -133.560000   27.387600  -16.546900
  H    -133.331000   28.855900  -15.572300
  C    -135.272000   27.778500  -15.323300
  H    -135.658000   26.752500  -15.188900
  H    -135.894000   28.367300  -15.980200
  H    -135.364000   28.303600  -14.365000
  H    -130.810000   23.449200  -19.026800
  H    -129.168000   29.479500  -13.927700

 Total Charge           Charge          ....    0
 Multiplicity           Mult            ....    1
 Number of Electrons    NEL             ....  134
 Basis Dimension        Dim             ....  322

ORBITAL ENERGIES
----------------

  NO   OCC          E(Eh)            E(eV)
   0   2.0000     -88.963820     -2420.8286
   1   2.0000     -88.959232     -2420.7038
   2   2.0000     -10.320046      -280.8227
   3   2.0000     -10.317129      -280.7434
   4   2.0000     -10.309890      -280.5464
   5   2.0000     -10.307401      -280.4786
   6   2.0000     -10.305670      -280.4315
   7   2.0000     -10.299408      -280.2612
   8   2.0000     -10.298202      -280.2283
   9   2.0000     -10.295635      -280.1585
  10   2.0000     -10.292825      -280.0820
  11   2.0000     -10.287207      -279.9291
  12   2.0000     -10.285008      -279.8693
  13   2.0000     -10.282657      -279.8053
  14   2.0000     -10.279247      -279.7125
  15   2.0000     -10.278412      -279.6898
  16   2.0000      -8.080295      -219.8760
  17   2.0000      -8.074283      -219.7124
  18   2.0000      -6.038476      -164.3153
  19   2.0000      -6.034607      -164.2100
  20   2.0000      -6.032789      -164.1605
  21   2.0000      -6.031247      -164.1186
  22   2.0000      -6.028825      -164.0527
  23   2.0000      -6.024957      -163.9474
  24   2.0000      -1.012382       -27.5483
  25   2.0000      -0.990110       -26.9423
  26   2.0000      -0.911891       -24.8138
  27   2.0000      -0.903694       -24.5908
  28   2.0000      -0.872158       -23.7326
  29   2.0000      -0.852877       -23.2080
  30   2.0000      -0.840257       -22.8646
  31   2.0000      -0.814601       -22.1664
  32   2.0000      -0.788174       -21.4473
  33   2.0000      -0.775314       -21.0974
  34   2.0000      -0.714614       -19.4456
  35   2.0000      -0.699978       -19.0474
  36   2.0000      -0.695213       -18.9177
  37   2.0000      -0.658222       -17.9111
  38   2.0000      -0.643214       -17.5028
  39   2.0000      -0.628244       -17.0954
  40   2.0000      -0.602482       -16.3944
  41   2.0000      -0.562166       -15.2973
  42   2.0000      -0.556408       -15.1406
  43   2.0000      -0.553052       -15.0493
  44   2.0000      -0.529167       -14.3994
  45   2.0000      -0.523574       -14.2472
  46   2.0000      -0.520361       -14.1597
  47   2.0000      -0.508818       -13.8457
  48   2.0000      -0.506852       -13.7921
  49   2.0000      -0.499871       -13.6022
  50   2.0000      -0.490101       -13.3363
  51   2.0000      -0.478846       -13.0301
  52   2.0000      -0.477187       -12.9849
  53   2.0000      -0.466389       -12.6911
  54   2.0000      -0.462225       -12.5778
  55   2.0000      -0.453116       -12.3299
  56   2.0000      -0.447657       -12.1814
  57   2.0000      -0.441004       -12.0003
  58   2.0000      -0.436526       -11.8785
  59   2.0000      -0.422615       -11.4999
  60   2.0000      -0.418627       -11.3914
  61   2.0000      -0.410013       -11.1570
  62   2.0000      -0.407314       -11.0836
  63   2.0000      -0.345167        -9.3925
  64   2.0000      -0.334330        -9.0976
  65   2.0000      -0.329365        -8.9625
  66   2.0000      -0.286995        -7.8095
  67   0.0000       0.029379         0.7995
  68   0.0000       0.079855         2.1730
  69   0.0000       0.112147         3.0517
  70   0.0000       0.121817         3.3148
  71   0.0000       0.135122         3.6769

MULLIKEN ATOMIC CHARGES
-----------------------
   0 S :    0.091741
   1 C :   -0.146024
   2 C :   -0.077524
   3 C :   -0.002746
   4 C :   -0.094764
   5 H :    0.014350
   6 C :    0.113627
   7 H :    0.023753
   8 H :    0.033474
   9 C :   -0.079221
  10 H :    0.023478
  11 H :    0.017445
  12 C :   -0.038832
  13 H :    0.017318
  14 H :    0.019450
  15 H :    0.053268
  16 S :    0.125475
  17 C :   -0.069645
  18 C :   -0.001447
  19 C :   -0.075791
  20 C :   -0.172662
  21 H :    0.008828
  22 C :    0.052290
  23 H :    0.031742
  24 H :    0.000913
  25 C :   -0.065635
  26 H :    0.039017
  27 H :    0.038797
  28 C :   -0.044096
  29 H :    0.038483
  30 H :    0.035233
  31 H :    0.020689
  32 H :    0.033412
  33 H :    0.035605
Sum of atomic charges:   -0.0000000

LOEWDIN ATOMIC CHARGES
----------------------
   0 S :    0.388188
   1 C :   -0.177184
   2 C :   -0.062989
   3 C :   -0.063816
   4 C :   -0.200469
   5 H :    0.029636
   6 C :   -0.023644
   7 H :    0.031638
   8 H :    0.037745
   9 C :   -0.049044
  10 H :    0.026295
  11 H :    0.026172
  12 C :   -0.077082
  13 H :    0.022192
  14 H :    0.017139
  15 H :    0.045691
  16 S :    0.431237
  17 C :   -0.193423
  18 C :   -0.080243
  19 C :   -0.039924
  20 C :   -0.200117
  21 H :    0.024972
  22 C :   -0.018678
  23 H :    0.031695
  24 H :    0.013985
  25 C :   -0.036987
  26 H :    0.029051
  27 H :    0.024052
  28 C :   -0.068153
  29 H :    0.028878
  30 H :    0.023178
  31 H :    0.025688
  32 H :    0.016857
  33 H :    0.017462

  Mayer bond orders larger than 0.100000
B(  0-S ,  1-C ) :   1.1289 B(  0-S ,  4-C ) :   1.1383 B(  1-C ,  2-C ) :   1.6073
B(  1-C , 32-H ) :   0.9857 B(  2-C ,  3-C ) :   1.2366 B(  2-C ,  6-C ) :   1.0003
B(  3-C ,  4-C ) :   1.5783 B(  3-C ,  5-H ) :   0.9952 B(  4-C , 20-C ) :   1.0656
B(  6-C ,  7-H ) :   0.9397 B(  6-C ,  8-H ) :   0.9244 B(  6-C ,  9-C ) :   1.0913
B(  9-C , 10-H ) :   0.9479 B(  9-C , 11-H ) :   0.9499 B(  9-C , 12-C ) :   1.0469
B( 12-C , 13-H ) :   0.9713 B( 12-C , 14-H ) :   0.9773 B( 12-C , 15-H ) :   0.9772
B( 16-S , 17-C ) :   1.1999 B( 16-S , 20-C ) :   1.1234 B( 17-C , 18-C ) :   1.5831
B( 17-C , 33-H ) :   0.9710 B( 18-C , 19-C ) :   1.2766 B( 18-C , 21-H ) :   0.9769
B( 19-C , 20-C ) :   1.5895 B( 19-C , 22-C ) :   1.0175 B( 22-C , 23-H ) :   0.9513
B( 22-C , 24-H ) :   0.9385 B( 22-C , 25-C ) :   1.0455 B( 25-C , 26-H ) :   0.9537
B( 25-C , 27-H ) :   0.9655 B( 25-C , 28-C ) :   1.0700 B( 28-C , 29-H ) :   0.9732
B( 28-C , 30-H ) :   0.9749 B( 28-C , 31-H ) :   0.9765

Dispersion correction           -0.014682229
FINAL SINGLE POINT ENERGY     -1339.853627385592

DIPOLE MOMENT
-------------
                                X             Y             Z
Electronic contribution:     23.83461      10.84813      -7.72522
Nuclear contribution   :    -24.51936     -10.99243       7.81592
                        -----------------------------------------
Total Dipole Moment    :     -0.68475      -0.14430       0.09070
                        -----------------------------------------
Magnitude (a.u.)       :      0.70564
Magnitude (Debye)      :      1.79359

Rotational constants in cm-1:     0.016130     0.009742     0.007902
Rotational constants in MHz :   483.563574   292.056614   236.884372

                             ****ORCA TERMINATED NORMALLY****
TOTAL RUN TIME: 0 days 0 hours 0 minutes 21 seconds 122 msec
