                         Program Version 4.2.1 -  RELEASE  -
|  1> ! wB97X-D3 SP def2-SVP
|  2> %pal
|  3> nprocs 24
|  4> end
|  5>
|  6> * xyz 0 1
|  7> S 	 -48.0522 	 8.03281 	 -23.0573
|  8> C 	 -48.1719 	 7.12618 	 -21.5707
|  9> C 	 -48.6487 	 7.88333 	 -20.5689
| 10> C 	 -48.8961 	 9.28876 	 -20.9863
| 11> C 	 -48.5476 	 9.51404 	 -22.3203
| 12> H 	 -49.3851 	 10.0804 	 -20.371
| 13> C 	 -48.9838 	 7.41734 	 -19.1803
| 14> H 	 -49.368 	 6.39821 	 -19.1745
| 15> H 	 -49.8573 	 7.97837 	 -18.8163
| 16> C 	 -47.8333 	 7.44095 	 -18.1745
| 17> H 	 -47.4006 	 8.45267 	 -18.1288
| 18> H 	 -48.2383 	 7.29048 	 -17.1408
| 19> C 	 -46.7603 	 6.34298 	 -18.4294
| 20> H 	 -46.0884 	 6.17341 	 -17.5974
| 21> H 	 -47.2516 	 5.34404 	 -18.6582
| 22> H 	 -45.9794 	 6.7796 	 -19.1256
| 23> S 	 -50.125 	 10.6996 	 -24.1741
| 24> C 	 -49.7295 	 12.2801 	 -24.6717
| 25> C 	 -48.4937 	 12.7685 	 -24.1677
| 26> C 	 -47.9365 	 11.8102 	 -23.2752
| 27> C 	 -48.7245 	 10.6656 	 -23.147
| 28> H 	 -48.0926 	 13.8024 	 -24.3129
| 29> C 	 -46.8086 	 12.2402 	 -22.4095
| 30> H 	 -46.1131 	 12.8209 	 -23.0456
| 31> H 	 -46.2226 	 11.3433 	 -22.1664
| 32> C 	 -47.3067 	 12.9225 	 -21.0465
| 33> H 	 -47.917 	 12.2264 	 -20.538
| 34> H 	 -47.8713 	 13.7439 	 -21.4408
| 35> C 	 -46.1504 	 13.4667 	 -20.1691
| 36> H 	 -46.5316 	 14.0332 	 -19.3657
| 37> H 	 -45.5332 	 14.2348 	 -20.6827
| 38> H 	 -45.5827 	 12.6421 	 -19.7678
| 39> H 	 -47.9954 	 6.02469 	 -21.4242
| 40> H 	 -50.4368 	 12.7928 	 -25.2928
| 41> *
| 42>
| 43>                          ****END OF INPUT****

CARTESIAN COORDINATES (ANGSTROEM)
---------------------------------
  S    -48.052200    8.032810  -23.057300
  C    -48.171900    7.126180  -21.570700
  C    -48.648700    7.883330  -20.568900
  C    -48.896100    9.288760  -20.986300
  C    -48.547600    9.514040  -22.320300
  H    -49.385100   10.080400  -20.371000
  C    -48.983800    7.417340  -19.180300
  H    -49.368000    6.398210  -19.174500
  H    -49.857300    7.978370  -18.816300
  C    -47.833300    7.440950  -18.174500
  H    -47.400600    8.452670  -18.128800
  H    -48.238300    7.290480  -17.140800
  C    -46.760300    6.342980  -18.429400
  H    -46.088400    6.173410  -17.597400
  H    -47.251600    5.344040  -18.658200
  H    -45.979400    6.779600  -19.125600
  S    -50.125000   10.699600  -24.174100
  C    -49.729500   12.280100  -24.671700
  C    -48.493700   12.768500  -24.167700
  C    -47.936500   11.810200  -23.275200
  C    -48.724500   10.665600  -23.147000
  H    -48.092600   13.802400  -24.312900
  C    -46.808600   12.240200  -22.409500
  H    -46.113100   12.820900  -23.045600
  H    -46.222600   11.343300  -22.166400
  C    -47.306700   12.922500  -21.046500
  H    -47.917000   12.226400  -20.538000
  H    -47.871300   13.743900  -21.440800
  C    -46.150400   13.466700  -20.169100
  H    -46.531600   14.033200  -19.365700
  H    -45.533200   14.234800  -20.682700
  H    -45.582700   12.642100  -19.767800
  H    -47.995400    6.024690  -21.424200
  H    -50.436800   12.792800  -25.292800

 Total Charge           Charge          ....    0
 Multiplicity           Mult            ....    1
 Number of Electrons    NEL             ....  134
 Basis Dimension        Dim             ....  322

ORBITAL ENERGIES
----------------

  NO   OCC          E(Eh)            E(eV)
   0   2.0000     -88.967840     -2420.9380
   1   2.0000     -88.960476     -2420.7376
   2   2.0000     -10.324839      -280.9532
   3   2.0000     -10.318329      -280.7760
   4   2.0000     -10.317965      -280.7661
   5   2.0000     -10.311650      -280.5943
   6   2.0000     -10.301466      -280.3172
   7   2.0000     -10.299371      -280.2601
   8   2.0000     -10.299068      -280.2519
   9   2.0000     -10.298638      -280.2402
  10   2.0000     -10.291432      -280.0441
  11   2.0000     -10.290724      -280.0248
  12   2.0000     -10.289914      -280.0028
  13   2.0000     -10.287298      -279.9316
  14   2.0000     -10.287249      -279.9303
  15   2.0000     -10.276490      -279.6375
  16   2.0000      -8.083709      -219.9689
  17   2.0000      -8.075956      -219.7579
  18   2.0000      -6.041869      -164.4076
  19   2.0000      -6.037973      -164.3016
  20   2.0000      -6.034861      -164.2169
  21   2.0000      -6.034539      -164.2081
  22   2.0000      -6.030299      -164.0928
  23   2.0000      -6.026627      -163.9929
  24   2.0000      -1.009622       -27.4732
  25   2.0000      -0.984711       -26.7953
  26   2.0000      -0.910783       -24.7837
  27   2.0000      -0.905170       -24.6309
  28   2.0000      -0.867606       -23.6088
  29   2.0000      -0.854154       -23.2427
  30   2.0000      -0.837883       -22.7999
  31   2.0000      -0.806456       -21.9448
  32   2.0000      -0.782834       -21.3020
  33   2.0000      -0.771992       -21.0070
  34   2.0000      -0.708233       -19.2720
  35   2.0000      -0.697776       -18.9874
  36   2.0000      -0.689386       -18.7591
  37   2.0000      -0.664732       -18.0883
  38   2.0000      -0.636993       -17.3335
  39   2.0000      -0.612363       -16.6633
  40   2.0000      -0.594905       -16.1882
  41   2.0000      -0.566388       -15.4122
  42   2.0000      -0.564511       -15.3611
  43   2.0000      -0.547546       -14.8995
  44   2.0000      -0.537014       -14.6129
  45   2.0000      -0.517800       -14.0900
  46   2.0000      -0.515001       -14.0139
  47   2.0000      -0.511152       -13.9092
  48   2.0000      -0.504993       -13.7416
  49   2.0000      -0.497327       -13.5330
  50   2.0000      -0.485999       -13.2247
  51   2.0000      -0.475127       -12.9289
  52   2.0000      -0.470335       -12.7985
  53   2.0000      -0.462911       -12.5965
  54   2.0000      -0.459154       -12.4942
  55   2.0000      -0.454625       -12.3710
  56   2.0000      -0.441251       -12.0071
  57   2.0000      -0.433087       -11.7849
  58   2.0000      -0.430356       -11.7106
  59   2.0000      -0.429378       -11.6840
  60   2.0000      -0.424303       -11.5459
  61   2.0000      -0.417992       -11.3741
  62   2.0000      -0.405517       -11.0347
  63   2.0000      -0.335602        -9.1322
  64   2.0000      -0.326695        -8.8898
  65   2.0000      -0.323094        -8.7918
  66   2.0000      -0.304443        -8.2843
  67   0.0000       0.045500         1.2381
  68   0.0000       0.056717         1.5433
  69   0.0000       0.114987         3.1290
  70   0.0000       0.122897         3.3442
  71   0.0000       0.126033         3.4295

MULLIKEN ATOMIC CHARGES
-----------------------
   0 S :    0.111523
   1 C :   -0.126311
   2 C :   -0.093962
   3 C :    0.026872
   4 C :   -0.174496
   5 H :    0.035759
   6 C :    0.058545
   7 H :    0.016776
   8 H :    0.025220
   9 C :   -0.070266
  10 H :    0.026900
  11 H :    0.031506
  12 C :   -0.082342
  13 H :    0.027566
  14 H :    0.045272
  15 H :    0.050253
  16 S :    0.143424
  17 C :   -0.099927
  18 C :   -0.043759
  19 C :   -0.013185
  20 C :   -0.209041
  21 H :    0.040081
  22 C :    0.035787
  23 H :    0.025684
  24 H :    0.023891
  25 C :   -0.034926
  26 H :    0.020685
  27 H :    0.018436
  28 C :   -0.022155
  29 H :    0.020954
  30 H :    0.031547
  31 H :    0.037024
  32 H :    0.063266
  33 H :    0.053398
Sum of atomic charges:    0.0000000

LOEWDIN ATOMIC CHARGES
----------------------
   0 S :    0.412811
   1 C :   -0.204639
   2 C :   -0.070098
   3 C :   -0.065632
   4 C :   -0.207820
   5 H :    0.036325
   6 C :   -0.037915
   7 H :    0.027785
   8 H :    0.033908
   9 C :   -0.044110
  10 H :    0.023893
  11 H :    0.025638
  12 C :   -0.083073
  13 H :    0.024115
  14 H :    0.032214
  15 H :    0.038726
  16 S :    0.446611
  17 C :   -0.191828
  18 C :   -0.076548
  19 C :   -0.051439
  20 C :   -0.227593
  21 H :    0.040831
  22 C :   -0.037160
  23 H :    0.031162
  24 H :    0.028505
  25 C :   -0.020004
  26 H :    0.018406
  27 H :    0.020401
  28 C :   -0.063289
  29 H :    0.020702
  30 H :    0.030485
  31 H :    0.025557
  32 H :    0.043333
  33 H :    0.019743

  Mayer bond orders larger than 0.100000
B(  0-S ,  1-C ) :   1.1216 B(  0-S ,  4-C ) :   1.1592 B(  1-C ,  2-C ) :   1.6686
B(  1-C , 32-H ) :   0.9556 B(  2-C ,  3-C ) :   1.2030 B(  2-C ,  6-C ) :   1.0225
B(  3-C ,  4-C ) :   1.6055 B(  3-C ,  5-H ) :   0.9822 B(  4-C , 20-C ) :   1.0231
B(  6-C ,  7-H ) :   0.9434 B(  6-C ,  8-H ) :   0.9391 B(  6-C ,  9-C ) :   1.0732
B(  9-C , 10-H ) :   0.9559 B(  9-C , 11-H ) :   0.9570 B(  9-C , 12-C ) :   1.0713
B( 12-C , 13-H ) :   0.9729 B( 12-C , 14-H ) :   0.9733 B( 12-C , 15-H ) :   0.9716
B( 16-S , 17-C ) :   1.2018 B( 16-S , 20-C ) :   1.1628 B( 17-C , 18-C ) :   1.5469
B( 17-C , 20-C ) :   0.1085 B( 17-C , 33-H ) :   0.9721 B( 18-C , 19-C ) :   1.2709
B( 18-C , 21-H ) :   0.9833 B( 19-C , 20-C ) :   1.5676 B( 19-C , 22-C ) :   1.0731
B( 22-C , 23-H ) :   0.9364 B( 22-C , 24-H ) :   0.9208 B( 22-C , 25-C ) :   1.0424
B( 25-C , 26-H ) :   0.9547 B( 25-C , 27-H ) :   0.9594 B( 25-C , 28-C ) :   1.0874
B( 28-C , 29-H ) :   0.9720 B( 28-C , 30-H ) :   0.9742 B( 28-C , 31-H ) :   0.9756

Dispersion correction           -0.014600381
FINAL SINGLE POINT ENERGY     -1339.879943234688

DIPOLE MOMENT
-------------
                                X             Y             Z
Electronic contribution:    -12.64282      -3.42807     -25.30163
Nuclear contribution   :     12.63539       3.70711      25.89232
                        -----------------------------------------
Total Dipole Moment    :     -0.00744       0.27904       0.59069
                        -----------------------------------------
Magnitude (a.u.)       :      0.65333
Magnitude (Debye)      :      1.66062

Rotational constants in cm-1:     0.018935     0.008848     0.006748
Rotational constants in MHz :   567.655686   265.252870   202.314443

                             ****ORCA TERMINATED NORMALLY****
TOTAL RUN TIME: 0 days 0 hours 0 minutes 21 seconds 580 msec
