                         Program Version 4.2.1 -  RELEASE  -
|  1> ! wB97X-D3 SP def2-SVP
|  2> %pal
|  3> nprocs 24
|  4> end
|  5>
|  6> * xyz 0 1
|  7> S 	 -119.483 	 20.7612 	 -113.579
|  8> C 	 -120.467 	 21.9761 	 -114.39
|  9> C 	 -120.502 	 21.7472 	 -115.773
| 10> C 	 -119.758 	 20.5584 	 -116.125
| 11> C 	 -119.038 	 19.9983 	 -115.059
| 12> H 	 -119.753 	 20.2077 	 -117.175
| 13> C 	 -121.133 	 22.5707 	 -116.94
| 14> H 	 -122.095 	 22.7747 	 -116.721
| 15> H 	 -121.358 	 21.9025 	 -117.791
| 16> C 	 -120.402 	 23.8461 	 -117.243
| 17> H 	 -120.963 	 24.3444 	 -118.072
| 18> H 	 -120.571 	 24.5212 	 -116.436
| 19> C 	 -118.887 	 23.7597 	 -117.395
| 20> H 	 -118.395 	 23.1343 	 -116.646
| 21> H 	 -118.693 	 23.2828 	 -118.382
| 22> H 	 -118.435 	 24.7526 	 -117.371
| 23> S 	 -118.84 	 17.5221 	 -113.918
| 24> C 	 -117.46 	 16.4677 	 -114.261
| 25> C 	 -116.765 	 17.0191 	 -115.292
| 26> C 	 -117.211 	 18.3431 	 -115.702
| 27> C 	 -118.333 	 18.7216 	 -115.061
| 28> H 	 -115.934 	 16.4097 	 -115.659
| 29> C 	 -116.431 	 19.234 	 -116.678
| 30> H 	 -116.951 	 20.2054 	 -116.534
| 31> H 	 -116.52 	 18.9724 	 -117.688
| 32> C 	 -114.901 	 19.4061 	 -116.471
| 33> H 	 -114.487 	 18.4618 	 -116.381
| 34> H 	 -114.678 	 19.9937 	 -115.546
| 35> C 	 -114.224 	 20.242 	 -117.555
| 36> H 	 -113.258 	 20.6774 	 -117.149
| 37> H 	 -114.778 	 21.1111 	 -117.79
| 38> H 	 -114.116 	 19.5746 	 -118.398
| 39> H 	 -120.914 	 22.8522 	 -113.931
| 40> H 	 -117.285 	 15.4511 	 -113.759
| 41> *
| 42>
| 43>                          ****END OF INPUT****

CARTESIAN COORDINATES (ANGSTROEM)
---------------------------------
  S    -119.483000   20.761200  -113.579000
  C    -120.467000   21.976100  -114.390000
  C    -120.502000   21.747200  -115.773000
  C    -119.758000   20.558400  -116.125000
  C    -119.038000   19.998300  -115.059000
  H    -119.753000   20.207700  -117.175000
  C    -121.133000   22.570700  -116.940000
  H    -122.095000   22.774700  -116.721000
  H    -121.358000   21.902500  -117.791000
  C    -120.402000   23.846100  -117.243000
  H    -120.963000   24.344400  -118.072000
  H    -120.571000   24.521200  -116.436000
  C    -118.887000   23.759700  -117.395000
  H    -118.395000   23.134300  -116.646000
  H    -118.693000   23.282800  -118.382000
  H    -118.435000   24.752600  -117.371000
  S    -118.840000   17.522100  -113.918000
  C    -117.460000   16.467700  -114.261000
  C    -116.765000   17.019100  -115.292000
  C    -117.211000   18.343100  -115.702000
  C    -118.333000   18.721600  -115.061000
  H    -115.934000   16.409700  -115.659000
  C    -116.431000   19.234000  -116.678000
  H    -116.951000   20.205400  -116.534000
  H    -116.520000   18.972400  -117.688000
  C    -114.901000   19.406100  -116.471000
  H    -114.487000   18.461800  -116.381000
  H    -114.678000   19.993700  -115.546000
  C    -114.224000   20.242000  -117.555000
  H    -113.258000   20.677400  -117.149000
  H    -114.778000   21.111100  -117.790000
  H    -114.116000   19.574600  -118.398000
  H    -120.914000   22.852200  -113.931000
  H    -117.285000   15.451100  -113.759000

 Total Charge           Charge          ....    0
 Multiplicity           Mult            ....    1
 Number of Electrons    NEL             ....  134
 Basis Dimension        Dim             ....  322

ORBITAL ENERGIES
----------------

  NO   OCC          E(Eh)            E(eV)
   0   2.0000     -88.970987     -2421.0236
   1   2.0000     -88.958732     -2420.6902
   2   2.0000     -10.330934      -281.1190
   3   2.0000     -10.322271      -280.8833
   4   2.0000     -10.321991      -280.8757
   5   2.0000     -10.320411      -280.8327
   6   2.0000     -10.306646      -280.4581
   7   2.0000     -10.301954      -280.3304
   8   2.0000     -10.299053      -280.2515
   9   2.0000     -10.294554      -280.1291
  10   2.0000     -10.287893      -279.9478
  11   2.0000     -10.286815      -279.9185
  12   2.0000     -10.285723      -279.8887
  13   2.0000     -10.279264      -279.7130
  14   2.0000     -10.277276      -279.6589
  15   2.0000     -10.276403      -279.6352
  16   2.0000      -8.085572      -220.0196
  17   2.0000      -8.073994      -219.7045
  18   2.0000      -6.044143      -164.4695
  19   2.0000      -6.039909      -164.3543
  20   2.0000      -6.036447      -164.2601
  21   2.0000      -6.032606      -164.1556
  22   2.0000      -6.028448      -164.0424
  23   2.0000      -6.024552      -163.9364
  24   2.0000      -1.009612       -27.4729
  25   2.0000      -0.983435       -26.7606
  26   2.0000      -0.915635       -24.9157
  27   2.0000      -0.905248       -24.6331
  28   2.0000      -0.870304       -23.6822
  29   2.0000      -0.849936       -23.1279
  30   2.0000      -0.840899       -22.8820
  31   2.0000      -0.812909       -22.1204
  32   2.0000      -0.789498       -21.4833
  33   2.0000      -0.772816       -21.0294
  34   2.0000      -0.703731       -19.1495
  35   2.0000      -0.699850       -19.0439
  36   2.0000      -0.694714       -18.9041
  37   2.0000      -0.654999       -17.8234
  38   2.0000      -0.636888       -17.3306
  39   2.0000      -0.616780       -16.7834
  40   2.0000      -0.592564       -16.1245
  41   2.0000      -0.573598       -15.6084
  42   2.0000      -0.571822       -15.5601
  43   2.0000      -0.555808       -15.1243
  44   2.0000      -0.546141       -14.8612
  45   2.0000      -0.522551       -14.2193
  46   2.0000      -0.514661       -14.0046
  47   2.0000      -0.505806       -13.7637
  48   2.0000      -0.502831       -13.6827
  49   2.0000      -0.500795       -13.6273
  50   2.0000      -0.490199       -13.3390
  51   2.0000      -0.479604       -13.0507
  52   2.0000      -0.470537       -12.8040
  53   2.0000      -0.466819       -12.7028
  54   2.0000      -0.461980       -12.5711
  55   2.0000      -0.449833       -12.2406
  56   2.0000      -0.441603       -12.0166
  57   2.0000      -0.439517       -11.9599
  58   2.0000      -0.423979       -11.5371
  59   2.0000      -0.421164       -11.4604
  60   2.0000      -0.417427       -11.3588
  61   2.0000      -0.412350       -11.2206
  62   2.0000      -0.406141       -11.0517
  63   2.0000      -0.347775        -9.4634
  64   2.0000      -0.333593        -9.0775
  65   2.0000      -0.325111        -8.8467
  66   2.0000      -0.299644        -8.1537
  67   0.0000       0.032234         0.8771
  68   0.0000       0.072044         1.9604
  69   0.0000       0.113748         3.0952
  70   0.0000       0.124017         3.3747
  71   0.0000       0.131132         3.5683

MULLIKEN ATOMIC CHARGES
-----------------------
   0 S :    0.126129
   1 C :   -0.125924
   2 C :   -0.135256
   3 C :    0.021114
   4 C :   -0.165623
   5 H :    0.028892
   6 C :    0.130606
   7 H :   -0.011222
   8 H :    0.018810
   9 C :   -0.066309
  10 H :    0.032134
  11 H :    0.013126
  12 C :   -0.054927
  13 H :    0.054806
  14 H :    0.028271
  15 H :    0.036924
  16 S :    0.085588
  17 C :   -0.136581
  18 C :   -0.033482
  19 C :   -0.022357
  20 C :   -0.135673
  21 H :    0.026242
  22 C :    0.078965
  23 H :    0.028909
  24 H :    0.015391
  25 C :   -0.083726
  26 H :    0.015486
  27 H :    0.031611
  28 C :   -0.041909
  29 H :    0.041628
  30 H :    0.022085
  31 H :    0.033665
  32 H :    0.051665
  33 H :    0.090943
Sum of atomic charges:   -0.0000000

LOEWDIN ATOMIC CHARGES
----------------------
   0 S :    0.427492
   1 C :   -0.200717
   2 C :   -0.058346
   3 C :   -0.061092
   4 C :   -0.209818
   5 H :    0.035684
   6 C :   -0.027159
   7 H :    0.016759
   8 H :    0.033909
   9 C :   -0.043534
  10 H :    0.031033
  11 H :    0.018502
  12 C :   -0.066847
  13 H :    0.029846
  14 H :    0.026618
  15 H :    0.027801
  16 S :    0.388750
  17 C :   -0.189793
  18 C :   -0.077235
  19 C :   -0.059067
  20 C :   -0.200852
  21 H :    0.033458
  22 C :   -0.029502
  23 H :    0.034437
  24 H :    0.020669
  25 C :   -0.036766
  26 H :    0.009293
  27 H :    0.028444
  28 C :   -0.061227
  29 H :    0.036405
  30 H :    0.019034
  31 H :    0.022767
  32 H :    0.030274
  33 H :    0.050783

  Mayer bond orders larger than 0.100000
B(  0-S ,  1-C ) :   1.1450 B(  0-S ,  4-C ) :   1.1679 B(  1-C ,  2-C ) :   1.5939
B(  1-C ,  4-C ) :   0.1001 B(  1-C , 32-H ) :   0.9697 B(  2-C ,  3-C ) :   1.2722
B(  2-C ,  6-C ) :   1.0032 B(  3-C ,  4-C ) :   1.5322 B(  3-C ,  5-H ) :   0.9868
B(  4-C , 20-C ) :   1.0186 B(  6-C ,  7-H ) :   0.9230 B(  6-C ,  8-H ) :   0.9408
B(  6-C ,  9-C ) :   1.0781 B(  9-C , 10-H ) :   0.9523 B(  9-C , 11-H ) :   0.9539
B(  9-C , 12-C ) :   1.0771 B( 12-C , 13-H ) :   0.9694 B( 12-C , 14-H ) :   0.9765
B( 12-C , 15-H ) :   0.9740 B( 16-S , 17-C ) :   1.1308 B( 16-S , 20-C ) :   1.1323
B( 17-C , 18-C ) :   1.6526 B( 17-C , 33-H ) :   0.9571 B( 18-C , 19-C ) :   1.1914
B( 18-C , 21-H ) :   0.9889 B( 19-C , 20-C ) :   1.6585 B( 19-C , 22-C ) :   1.0326
B( 22-C , 23-H ) :   0.9283 B( 22-C , 24-H ) :   0.9372 B( 22-C , 25-C ) :   1.0634
B( 25-C , 26-H ) :   0.9592 B( 25-C , 27-H ) :   0.9586 B( 25-C , 28-C ) :   1.0837
B( 28-C , 29-H ) :   0.9762 B( 28-C , 30-H ) :   0.9743 B( 28-C , 31-H ) :   0.9760

Dispersion correction           -0.014380715
FINAL SINGLE POINT ENERGY     -1339.867394892779

DIPOLE MOMENT
-------------
                                X             Y             Z
Electronic contribution:    -11.98473     -16.53928      21.06335
Nuclear contribution   :     12.09923      16.82424     -21.56590
                        -----------------------------------------
Total Dipole Moment    :      0.11451       0.28496      -0.50255
                        -----------------------------------------
Magnitude (a.u.)       :      0.58896
Magnitude (Debye)      :      1.49701

Rotational constants in cm-1:     0.017175     0.009658     0.006822
Rotational constants in MHz :   514.894228   289.544303   204.530999

                             ****ORCA TERMINATED NORMALLY****
TOTAL RUN TIME: 0 days 0 hours 0 minutes 21 seconds 791 msec
