                         Program Version 4.2.1 -  RELEASE  -
|  1> ! wB97X-D3 SP def2-SVP
|  2> %pal
|  3> nprocs 24
|  4> end
|  5>
|  6> * xyz 0 1
|  7> S 	 -99.6214 	 0.909009 	 -123.007
|  8> C 	 -100.097 	 1.78984 	 -121.603
|  9> C 	 -99.1901 	 1.76934 	 -120.593
| 10> C 	 -98.1702 	 0.820025 	 -120.893
| 11> C 	 -98.3057 	 0.225486 	 -122.142
| 12> H 	 -97.3889 	 0.506389 	 -120.213
| 13> C 	 -99.4266 	 2.43398 	 -119.22
| 14> H 	 -99.7716 	 3.5351 	 -119.261
| 15> H 	 -98.445 	 2.4684 	 -118.679
| 16> C 	 -100.443 	 1.65602 	 -118.374
| 17> H 	 -101.363 	 1.27428 	 -118.851
| 18> H 	 -99.977 	 0.670707 	 -118.216
| 19> C 	 -100.641 	 2.37523 	 -116.993
| 20> H 	 -101.28 	 1.75272 	 -116.361
| 21> H 	 -99.6758 	 2.51075 	 -116.511
| 22> H 	 -101.031 	 3.37809 	 -117.126
| 23> S 	 -97.8618 	 -1.31114 	 -124.336
| 24> C 	 -96.9122 	 -2.75595 	 -124.229
| 25> C 	 -96.1413 	 -2.70897 	 -123.039
| 26> C 	 -96.5394 	 -1.6724 	 -122.131
| 27> C 	 -97.5662 	 -0.844746 	 -122.713
| 28> H 	 -95.4283 	 -3.44809 	 -122.789
| 29> C 	 -95.8947 	 -1.587 	 -120.748
| 30> H 	 -95.5867 	 -0.5241 	 -120.704
| 31> H 	 -94.9284 	 -2.13864 	 -120.79
| 32> C 	 -96.7622 	 -2.03606 	 -119.491
| 33> H 	 -96.9835 	 -3.11394 	 -119.657
| 34> H 	 -97.6737 	 -1.57731 	 -119.337
| 35> C 	 -95.9469 	 -1.90737 	 -118.231
| 36> H 	 -96.3061 	 -2.48521 	 -117.429
| 37> H 	 -95.9505 	 -0.895274 	 -117.921
| 38> H 	 -94.8933 	 -2.13439 	 -118.298
| 39> H 	 -100.823 	 2.55625 	 -121.615
| 40> H 	 -96.6884 	 -3.35309 	 -125.131
| 41> *
| 42>
| 43>                          ****END OF INPUT****

CARTESIAN COORDINATES (ANGSTROEM)
---------------------------------
  S    -99.621400    0.909009  -123.007000
  C    -100.097000    1.789840  -121.603000
  C    -99.190100    1.769340  -120.593000
  C    -98.170200    0.820025  -120.893000
  C    -98.305700    0.225486  -122.142000
  H    -97.388900    0.506389  -120.213000
  C    -99.426600    2.433980  -119.220000
  H    -99.771600    3.535100  -119.261000
  H    -98.445000    2.468400  -118.679000
  C    -100.443000    1.656020  -118.374000
  H    -101.363000    1.274280  -118.851000
  H    -99.977000    0.670707  -118.216000
  C    -100.641000    2.375230  -116.993000
  H    -101.280000    1.752720  -116.361000
  H    -99.675800    2.510750  -116.511000
  H    -101.031000    3.378090  -117.126000
  S    -97.861800   -1.311140  -124.336000
  C    -96.912200   -2.755950  -124.229000
  C    -96.141300   -2.708970  -123.039000
  C    -96.539400   -1.672400  -122.131000
  C    -97.566200   -0.844746  -122.713000
  H    -95.428300   -3.448090  -122.789000
  C    -95.894700   -1.587000  -120.748000
  H    -95.586700   -0.524100  -120.704000
  H    -94.928400   -2.138640  -120.790000
  C    -96.762200   -2.036060  -119.491000
  H    -96.983500   -3.113940  -119.657000
  H    -97.673700   -1.577310  -119.337000
  C    -95.946900   -1.907370  -118.231000
  H    -96.306100   -2.485210  -117.429000
  H    -95.950500   -0.895274  -117.921000
  H    -94.893300   -2.134390  -118.298000
  H    -100.823000    2.556250  -121.615000
  H    -96.688400   -3.353090  -125.131000

 Total Charge           Charge          ....    0
 Multiplicity           Mult            ....    1
 Number of Electrons    NEL             ....  134
 Basis Dimension        Dim             ....  322

ORBITAL ENERGIES
----------------

  NO   OCC          E(Eh)            E(eV)
   0   2.0000     -88.967368     -2420.9252
   1   2.0000     -88.965663     -2420.8788
   2   2.0000     -10.327750      -281.0324
   3   2.0000     -10.325672      -280.9758
   4   2.0000     -10.320811      -280.8435
   5   2.0000     -10.307780      -280.4889
   6   2.0000     -10.306751      -280.4609
   7   2.0000     -10.303976      -280.3855
   8   2.0000     -10.302896      -280.3561
   9   2.0000     -10.299457      -280.2625
  10   2.0000     -10.296249      -280.1752
  11   2.0000     -10.292704      -280.0787
  12   2.0000     -10.290830      -280.0277
  13   2.0000     -10.288761      -279.9714
  14   2.0000     -10.282378      -279.7977
  15   2.0000     -10.268999      -279.4337
  16   2.0000      -8.082958      -219.9485
  17   2.0000      -8.081649      -219.9129
  18   2.0000      -6.041381      -164.3943
  19   2.0000      -6.040056      -164.3583
  20   2.0000      -6.037238      -164.2816
  21   2.0000      -6.036124      -164.2513
  22   2.0000      -6.033890      -164.1905
  23   2.0000      -6.032312      -164.1475
  24   2.0000      -1.015189       -27.6247
  25   2.0000      -0.986740       -26.8505
  26   2.0000      -0.910736       -24.7824
  27   2.0000      -0.907611       -24.6973
  28   2.0000      -0.871960       -23.7272
  29   2.0000      -0.859321       -23.3833
  30   2.0000      -0.846211       -23.0266
  31   2.0000      -0.810801       -22.0630
  32   2.0000      -0.781690       -21.2709
  33   2.0000      -0.770134       -20.9564
  34   2.0000      -0.713934       -19.4271
  35   2.0000      -0.702918       -19.1274
  36   2.0000      -0.697033       -18.9672
  37   2.0000      -0.670740       -18.2518
  38   2.0000      -0.636825       -17.3289
  39   2.0000      -0.621369       -16.9083
  40   2.0000      -0.593182       -16.1413
  41   2.0000      -0.567801       -15.4507
  42   2.0000      -0.566000       -15.4016
  43   2.0000      -0.549627       -14.9561
  44   2.0000      -0.529842       -14.4177
  45   2.0000      -0.527400       -14.3513
  46   2.0000      -0.519389       -14.1333
  47   2.0000      -0.511947       -13.9308
  48   2.0000      -0.508703       -13.8425
  49   2.0000      -0.497301       -13.5322
  50   2.0000      -0.493236       -13.4216
  51   2.0000      -0.480934       -13.0869
  52   2.0000      -0.475221       -12.9314
  53   2.0000      -0.463139       -12.6026
  54   2.0000      -0.457575       -12.4512
  55   2.0000      -0.457328       -12.4445
  56   2.0000      -0.449776       -12.2390
  57   2.0000      -0.447097       -12.1661
  58   2.0000      -0.434805       -11.8316
  59   2.0000      -0.427542       -11.6340
  60   2.0000      -0.420110       -11.4318
  61   2.0000      -0.417704       -11.3663
  62   2.0000      -0.410401       -11.1676
  63   2.0000      -0.363983        -9.9045
  64   2.0000      -0.337296        -9.1783
  65   2.0000      -0.327055        -8.8996
  66   2.0000      -0.274483        -7.4691
  67   0.0000       0.012845         0.3495
  68   0.0000       0.090237         2.4555
  69   0.0000       0.092618         2.5203
  70   0.0000       0.120094         3.2679
  71   0.0000       0.128472         3.4959

MULLIKEN ATOMIC CHARGES
-----------------------
   0 S :    0.109762
   1 C :   -0.089912
   2 C :   -0.058802
   3 C :   -0.026132
   4 C :   -0.106465
   5 H :   -0.005787
   6 C :    0.005531
   7 H :    0.041205
   8 H :    0.033501
   9 C :   -0.084696
  10 H :    0.037578
  11 H :    0.017361
  12 C :   -0.030061
  13 H :    0.041089
  14 H :    0.025806
  15 H :    0.032700
  16 S :    0.104880
  17 C :   -0.107105
  18 C :   -0.018980
  19 C :   -0.064909
  20 C :   -0.107369
  21 H :    0.006112
  22 C :    0.001750
  23 H :    0.040933
  24 H :    0.027915
  25 C :   -0.035141
  26 H :    0.032721
  27 H :    0.024564
  28 C :   -0.005635
  29 H :    0.023710
  30 H :    0.009510
  31 H :    0.017711
  32 H :    0.029292
  33 H :    0.077362
Sum of atomic charges:   -0.0000000

LOEWDIN ATOMIC CHARGES
----------------------
   0 S :    0.423763
   1 C :   -0.196270
   2 C :   -0.062426
   3 C :   -0.068416
   4 C :   -0.195754
   5 H :    0.027538
   6 C :   -0.036694
   7 H :    0.034857
   8 H :    0.033406
   9 C :   -0.049104
  10 H :    0.028100
  11 H :    0.024427
  12 C :   -0.062254
  13 H :    0.028265
  14 H :    0.024820
  15 H :    0.023162
  16 S :    0.431928
  17 C :   -0.206745
  18 C :   -0.063856
  19 C :   -0.057371
  20 C :   -0.210183
  21 H :    0.023137
  22 C :   -0.036421
  23 H :    0.031019
  24 H :    0.036461
  25 C :   -0.029608
  26 H :    0.031044
  27 H :    0.014454
  28 C :   -0.060288
  29 H :    0.021960
  30 H :    0.019411
  31 H :    0.023769
  32 H :    0.018144
  33 H :    0.035724

  Mayer bond orders larger than 0.100000
B(  0-S ,  1-C ) :   1.1445 B(  0-S ,  4-C ) :   1.1467 B(  1-C ,  2-C ) :   1.6210
B(  1-C , 32-H ) :   0.9618 B(  2-C ,  3-C ) :   1.2565 B(  2-C ,  6-C ) :   1.0237
B(  3-C ,  4-C ) :   1.5411 B(  3-C ,  5-H ) :   0.9910 B(  4-C , 20-C ) :   1.1333
B(  6-C ,  7-H ) :   0.9456 B(  6-C ,  8-H ) :   0.9430 B(  6-C ,  9-C ) :   1.0509
B(  9-C , 10-H ) :   0.9616 B(  9-C , 11-H ) :   0.9491 B(  9-C , 12-C ) :   1.0677
B( 12-C , 13-H ) :   0.9748 B( 12-C , 14-H ) :   0.9739 B( 12-C , 15-H ) :   0.9774
B( 16-S , 17-C ) :   1.1712 B( 16-S , 20-C ) :   1.1674 B( 17-C , 18-C ) :   1.5359
B( 17-C , 20-C ) :   0.1087 B( 17-C , 33-H ) :   0.9650 B( 18-C , 19-C ) :   1.3212
B( 18-C , 21-H ) :   0.9899 B( 19-C , 20-C ) :   1.4877 B( 19-C , 22-C ) :   1.0352
B( 22-C , 23-H ) :   0.9354 B( 22-C , 24-H ) :   0.9352 B( 22-C , 25-C ) :   1.0464
B( 25-C , 26-H ) :   0.9536 B( 25-C , 27-H ) :   0.9583 B( 25-C , 28-C ) :   1.0850
B( 28-C , 29-H ) :   0.9713 B( 28-C , 30-H ) :   0.9720 B( 28-C , 31-H ) :   0.9712

Dispersion correction           -0.014223828
FINAL SINGLE POINT ENERGY     -1339.873164093932

DIPOLE MOMENT
-------------
                                X             Y             Z
Electronic contribution:     -2.82363      -2.03885     -33.43135
Nuclear contribution   :      3.09904       1.96416      34.09992
                        -----------------------------------------
Total Dipole Moment    :      0.27541      -0.07469       0.66857
                        -----------------------------------------
Magnitude (a.u.)       :      0.72692
Magnitude (Debye)      :      1.84768

Rotational constants in cm-1:     0.018642     0.009293     0.006459
Rotational constants in MHz :   558.860323   278.600358   193.623652

                             ****ORCA TERMINATED NORMALLY****
TOTAL RUN TIME: 0 days 0 hours 0 minutes 22 seconds 50 msec
