                         Program Version 4.2.1 -  RELEASE  -
|  1> ! wB97X-D3 SP def2-SVP
|  2> %pal
|  3> nprocs 24
|  4> end
|  5>
|  6> * xyz 0 1
|  7> S 	 -109.046 	 52.2841 	 -80.7731
|  8> C 	 -108.378 	 52.5458 	 -82.3433
|  9> C 	 -108.121 	 51.3917 	 -82.9804
| 10> C 	 -108.639 	 50.2143 	 -82.2096
| 11> C 	 -108.996 	 50.5704 	 -80.9392
| 12> H 	 -108.654 	 49.1838 	 -82.4737
| 13> C 	 -107.392 	 51.2473 	 -84.2902
| 14> H 	 -106.92 	 50.297 	 -84.3804
| 15> H 	 -106.643 	 52.0178 	 -84.2686
| 16> C 	 -108.297 	 51.332 	 -85.5396
| 17> H 	 -109.259 	 50.7731 	 -85.4269
| 18> H 	 -108.733 	 52.3424 	 -85.5816
| 19> C 	 -107.564 	 51.1542 	 -86.9378
| 20> H 	 -107.284 	 50.1272 	 -87.2125
| 21> H 	 -108.219 	 51.6506 	 -87.6515
| 22> H 	 -106.681 	 51.7596 	 -87.0598
| 23> S 	 -111.154 	 49.5847 	 -79.5519
| 24> C 	 -110.952 	 48.1487 	 -78.6325
| 25> C 	 -109.679 	 47.6642 	 -78.5919
| 26> C 	 -108.749 	 48.5124 	 -79.3265
| 27> C 	 -109.404 	 49.5739 	 -79.9758
| 28> H 	 -109.522 	 46.7525 	 -77.9428
| 29> C 	 -107.31 	 48.1501 	 -79.5789
| 30> H 	 -106.8 	 47.8122 	 -78.6486
| 31> H 	 -106.781 	 49.077 	 -79.732
| 32> C 	 -107.096 	 47.1687 	 -80.7462
| 33> H 	 -106.193 	 47.4286 	 -81.3165
| 34> H 	 -107.907 	 47.1823 	 -81.4887
| 35> C 	 -107.009 	 45.6834 	 -80.3697
| 36> H 	 -106.261 	 45.4232 	 -79.5807
| 37> H 	 -106.623 	 45.1633 	 -81.2429
| 38> H 	 -107.987 	 45.3618 	 -79.9503
| 39> H 	 -108.118 	 53.5519 	 -82.7562
| 40> H 	 -111.753 	 47.5719 	 -78.1317
| 41> *
| 42>
| 43>                          ****END OF INPUT****

CARTESIAN COORDINATES (ANGSTROEM)
---------------------------------
  S    -109.046000   52.284100  -80.773100
  C    -108.378000   52.545800  -82.343300
  C    -108.121000   51.391700  -82.980400
  C    -108.639000   50.214300  -82.209600
  C    -108.996000   50.570400  -80.939200
  H    -108.654000   49.183800  -82.473700
  C    -107.392000   51.247300  -84.290200
  H    -106.920000   50.297000  -84.380400
  H    -106.643000   52.017800  -84.268600
  C    -108.297000   51.332000  -85.539600
  H    -109.259000   50.773100  -85.426900
  H    -108.733000   52.342400  -85.581600
  C    -107.564000   51.154200  -86.937800
  H    -107.284000   50.127200  -87.212500
  H    -108.219000   51.650600  -87.651500
  H    -106.681000   51.759600  -87.059800
  S    -111.154000   49.584700  -79.551900
  C    -110.952000   48.148700  -78.632500
  C    -109.679000   47.664200  -78.591900
  C    -108.749000   48.512400  -79.326500
  C    -109.404000   49.573900  -79.975800
  H    -109.522000   46.752500  -77.942800
  C    -107.310000   48.150100  -79.578900
  H    -106.800000   47.812200  -78.648600
  H    -106.781000   49.077000  -79.732000
  C    -107.096000   47.168700  -80.746200
  H    -106.193000   47.428600  -81.316500
  H    -107.907000   47.182300  -81.488700
  C    -107.009000   45.683400  -80.369700
  H    -106.261000   45.423200  -79.580700
  H    -106.623000   45.163300  -81.242900
  H    -107.987000   45.361800  -79.950300
  H    -108.118000   53.551900  -82.756200
  H    -111.753000   47.571900  -78.131700

 Total Charge           Charge          ....    0
 Multiplicity           Mult            ....    1
 Number of Electrons    NEL             ....  134
 Basis Dimension        Dim             ....  322

ORBITAL ENERGIES
----------------

  NO   OCC          E(Eh)            E(eV)
   0   2.0000     -88.963079     -2420.8085
   1   2.0000     -88.962911     -2420.8039
   2   2.0000     -10.328959      -281.0653
   3   2.0000     -10.323375      -280.9133
   4   2.0000     -10.314419      -280.6696
   5   2.0000     -10.312847      -280.6268
   6   2.0000     -10.311090      -280.5790
   7   2.0000     -10.301615      -280.3212
   8   2.0000     -10.296839      -280.1912
   9   2.0000     -10.293878      -280.1107
  10   2.0000     -10.293417      -280.0981
  11   2.0000     -10.291075      -280.0344
  12   2.0000     -10.289345      -279.9873
  13   2.0000     -10.288450      -279.9630
  14   2.0000     -10.283070      -279.8166
  15   2.0000     -10.281360      -279.7700
  16   2.0000      -8.078910      -219.8383
  17   2.0000      -8.077776      -219.8075
  18   2.0000      -6.037513      -164.2891
  19   2.0000      -6.036203      -164.2534
  20   2.0000      -6.033318      -164.1749
  21   2.0000      -6.032349      -164.1486
  22   2.0000      -6.029428      -164.0691
  23   2.0000      -6.028531      -164.0447
  24   2.0000      -1.008053       -27.4305
  25   2.0000      -0.983608       -26.7653
  26   2.0000      -0.908403       -24.7189
  27   2.0000      -0.907249       -24.6875
  28   2.0000      -0.872171       -23.7330
  29   2.0000      -0.847772       -23.0690
  30   2.0000      -0.842487       -22.9252
  31   2.0000      -0.815431       -22.1890
  32   2.0000      -0.783942       -21.3321
  33   2.0000      -0.772426       -21.0188
  34   2.0000      -0.705904       -19.2086
  35   2.0000      -0.702639       -19.1198
  36   2.0000      -0.690292       -18.7838
  37   2.0000      -0.654707       -17.8155
  38   2.0000      -0.643011       -17.4972
  39   2.0000      -0.612632       -16.6706
  40   2.0000      -0.594375       -16.1738
  41   2.0000      -0.573176       -15.5969
  42   2.0000      -0.555762       -15.1231
  43   2.0000      -0.551993       -15.0205
  44   2.0000      -0.528414       -14.3789
  45   2.0000      -0.521983       -14.2039
  46   2.0000      -0.515498       -14.0274
  47   2.0000      -0.509143       -13.8545
  48   2.0000      -0.507432       -13.8079
  49   2.0000      -0.502440       -13.6721
  50   2.0000      -0.497208       -13.5297
  51   2.0000      -0.478374       -13.0172
  52   2.0000      -0.468015       -12.7353
  53   2.0000      -0.467258       -12.7147
  54   2.0000      -0.461430       -12.5561
  55   2.0000      -0.447897       -12.1879
  56   2.0000      -0.442777       -12.0486
  57   2.0000      -0.437646       -11.9089
  58   2.0000      -0.433627       -11.7996
  59   2.0000      -0.419689       -11.4203
  60   2.0000      -0.418836       -11.3971
  61   2.0000      -0.413648       -11.2559
  62   2.0000      -0.411320       -11.1926
  63   2.0000      -0.340074        -9.2539
  64   2.0000      -0.329578        -8.9683
  65   2.0000      -0.322742        -8.7823
  66   2.0000      -0.304718        -8.2918
  67   0.0000       0.041114         1.1188
  68   0.0000       0.066995         1.8230
  69   0.0000       0.117857         3.2071
  70   0.0000       0.122930         3.3451
  71   0.0000       0.129478         3.5233

MULLIKEN ATOMIC CHARGES
-----------------------
   0 S :    0.118272
   1 C :   -0.133221
   2 C :   -0.099797
   3 C :    0.050134
   4 C :   -0.150268
   5 H :   -0.000640
   6 C :    0.119644
   7 H :    0.014528
   8 H :    0.019553
   9 C :   -0.111874
  10 H :    0.039719
  11 H :    0.014572
  12 C :   -0.036767
  13 H :    0.045778
  14 H :    0.031301
  15 H :    0.020828
  16 S :    0.105794
  17 C :   -0.092065
  18 C :   -0.071298
  19 C :   -0.029531
  20 C :   -0.185848
  21 H :    0.044222
  22 C :    0.080882
  23 H :    0.027174
  24 H :    0.025399
  25 C :   -0.079108
  26 H :    0.030121
  27 H :    0.039289
  28 C :   -0.065765
  29 H :    0.026265
  30 H :    0.037161
  31 H :    0.040465
  32 H :    0.062553
  33 H :    0.062532
Sum of atomic charges:    0.0000000

LOEWDIN ATOMIC CHARGES
----------------------
   0 S :    0.414198
   1 C :   -0.207587
   2 C :   -0.061267
   3 C :   -0.047990
   4 C :   -0.214192
   5 H :    0.024635
   6 C :   -0.029865
   7 H :    0.026257
   8 H :    0.029082
   9 C :   -0.046249
  10 H :    0.031219
  11 H :    0.021979
  12 C :   -0.069675
  13 H :    0.025694
  14 H :    0.030737
  15 H :    0.023760
  16 S :    0.394692
  17 C :   -0.196571
  18 C :   -0.091702
  19 C :   -0.044760
  20 C :   -0.182611
  21 H :    0.044720
  22 C :   -0.038611
  23 H :    0.035885
  24 H :    0.033367
  25 C :   -0.041906
  26 H :    0.026215
  27 H :    0.026082
  28 C :   -0.070583
  29 H :    0.022972
  30 H :    0.027969
  31 H :    0.027207
  32 H :    0.040242
  33 H :    0.036657

  Mayer bond orders larger than 0.100000
B(  0-S ,  1-C ) :   1.1197 B(  0-S ,  4-C ) :   1.1382 B(  1-C ,  2-C ) :   1.6672
B(  1-C , 32-H ) :   0.9599 B(  2-C ,  3-C ) :   1.1795 B(  2-C ,  6-C ) :   1.0293
B(  3-C ,  4-C ) :   1.6116 B(  3-C ,  5-H ) :   0.9957 B(  4-C , 20-C ) :   1.0382
B(  6-C ,  7-H ) :   0.9401 B(  6-C ,  8-H ) :   0.9376 B(  6-C ,  9-C ) :   1.0575
B(  9-C , 10-H ) :   0.9582 B(  9-C , 11-H ) :   0.9564 B(  9-C , 12-C ) :   1.0679
B( 12-C , 13-H ) :   0.9786 B( 12-C , 14-H ) :   0.9756 B( 12-C , 15-H ) :   0.9731
B( 16-S , 17-C ) :   1.1555 B( 16-S , 20-C ) :   1.1268 B( 17-C , 18-C ) :   1.6611
B( 17-C , 33-H ) :   0.9556 B( 18-C , 19-C ) :   1.1949 B( 18-C , 21-H ) :   0.9785
B( 19-C , 20-C ) :   1.6225 B( 19-C , 22-C ) :   1.0684 B( 22-C , 23-H ) :   0.9380
B( 22-C , 24-H ) :   0.9257 B( 22-C , 25-C ) :   1.0397 B( 25-C , 26-H ) :   0.9580
B( 25-C , 27-H ) :   0.9556 B( 25-C , 28-C ) :   1.0799 B( 28-C , 29-H ) :   0.9762
B( 28-C , 30-H ) :   0.9723 B( 28-C , 31-H ) :   0.9742

Dispersion correction           -0.014446693
FINAL SINGLE POINT ENERGY     -1339.875145734347

DIPOLE MOMENT
-------------
                                X             Y             Z
Electronic contribution:    -16.41434      12.75508      19.78567
Nuclear contribution   :     16.86737     -13.10134     -20.19440
                        -----------------------------------------
Total Dipole Moment    :      0.45303      -0.34626      -0.40873
                        -----------------------------------------
Magnitude (a.u.)       :      0.70156
Magnitude (Debye)      :      1.78323

Rotational constants in cm-1:     0.018406     0.008222     0.006506
Rotational constants in MHz :   551.805531   246.486713   195.036464

                             ****ORCA TERMINATED NORMALLY****
TOTAL RUN TIME: 0 days 0 hours 0 minutes 21 seconds 285 msec
