                         Program Version 4.2.1 -  RELEASE  -
|  1> ! wB97X-D3 SP def2-SVP
|  2> %pal
|  3> nprocs 24
|  4> end
|  5>
|  6> * xyz 0 1
|  7> S 	 -37.2934 	 -8.01624 	 12.1813
|  8> C 	 -37.1177 	 -7.53282 	 13.8384
|  9> C 	 -36.683 	 -8.53301 	 14.7105
| 10> C 	 -36.3509 	 -9.70455 	 13.9485
| 11> C 	 -36.6809 	 -9.60303 	 12.6167
| 12> H 	 -35.9906 	 -10.6149 	 14.2832
| 13> C 	 -36.5128 	 -8.34169 	 16.1809
| 14> H 	 -35.6814 	 -7.72475 	 16.2762
| 15> H 	 -36.117 	 -9.34437 	 16.5517
| 16> C 	 -37.7217 	 -7.81524 	 16.9201
| 17> H 	 -37.3969 	 -7.50472 	 17.9632
| 18> H 	 -38.0999 	 -6.91832 	 16.5127
| 19> C 	 -38.9151 	 -8.82362 	 17.1605
| 20> H 	 -39.7363 	 -8.37461 	 17.7318
| 21> H 	 -39.4365 	 -9.04654 	 16.1876
| 22> H 	 -38.5815 	 -9.74593 	 17.6714
| 23> S 	 -35.0079 	 -11.5116 	 11.3759
| 24> C 	 -35.6889 	 -12.5019 	 10.0945
| 25> C 	 -36.9706 	 -12.1412 	 9.87253
| 26> C 	 -37.4362 	 -11.0486 	 10.685
| 27> C 	 -36.567 	 -10.7284 	 11.6332
| 28> H 	 -37.5257 	 -12.5217 	 9.01802
| 29> C 	 -38.7476 	 -10.3898 	 10.3564
| 30> H 	 -39.3274 	 -10.7871 	 9.45294
| 31> H 	 -38.474 	 -9.34626 	 10.189
| 32> C 	 -39.7876 	 -10.5141 	 11.464
| 33> H 	 -39.3779 	 -10.0907 	 12.3732
| 34> H 	 -39.754 	 -11.5061 	 11.8149
| 35> C 	 -41.2071 	 -10.0926 	 11.1627
| 36> H 	 -41.8368 	 -9.9527 	 12.0372
| 37> H 	 -41.6486 	 -10.9674 	 10.648
| 38> H 	 -41.2406 	 -9.17875 	 10.5927
| 39> H 	 -37.3137 	 -6.50862 	 14.2168
| 40> H 	 -35.1001 	 -13.0556 	 9.30238
| 41> *
| 42>
| 43>                          ****END OF INPUT****

CARTESIAN COORDINATES (ANGSTROEM)
---------------------------------
  S    -37.293400   -8.016240   12.181300
  C    -37.117700   -7.532820   13.838400
  C    -36.683000   -8.533010   14.710500
  C    -36.350900   -9.704550   13.948500
  C    -36.680900   -9.603030   12.616700
  H    -35.990600  -10.614900   14.283200
  C    -36.512800   -8.341690   16.180900
  H    -35.681400   -7.724750   16.276200
  H    -36.117000   -9.344370   16.551700
  C    -37.721700   -7.815240   16.920100
  H    -37.396900   -7.504720   17.963200
  H    -38.099900   -6.918320   16.512700
  C    -38.915100   -8.823620   17.160500
  H    -39.736300   -8.374610   17.731800
  H    -39.436500   -9.046540   16.187600
  H    -38.581500   -9.745930   17.671400
  S    -35.007900  -11.511600   11.375900
  C    -35.688900  -12.501900   10.094500
  C    -36.970600  -12.141200    9.872530
  C    -37.436200  -11.048600   10.685000
  C    -36.567000  -10.728400   11.633200
  H    -37.525700  -12.521700    9.018020
  C    -38.747600  -10.389800   10.356400
  H    -39.327400  -10.787100    9.452940
  H    -38.474000   -9.346260   10.189000
  C    -39.787600  -10.514100   11.464000
  H    -39.377900  -10.090700   12.373200
  H    -39.754000  -11.506100   11.814900
  C    -41.207100  -10.092600   11.162700
  H    -41.836800   -9.952700   12.037200
  H    -41.648600  -10.967400   10.648000
  H    -41.240600   -9.178750   10.592700
  H    -37.313700   -6.508620   14.216800
  H    -35.100100  -13.055600    9.302380

 Total Charge           Charge          ....    0
 Multiplicity           Mult            ....    1
 Number of Electrons    NEL             ....  134
 Basis Dimension        Dim             ....  322

ORBITAL ENERGIES
----------------

  NO   OCC          E(Eh)            E(eV)
   0   2.0000     -88.971532     -2421.0385
   1   2.0000     -88.963466     -2420.8190
   2   2.0000     -10.328929      -281.0644
   3   2.0000     -10.322392      -280.8866
   4   2.0000     -10.317439      -280.7518
   5   2.0000     -10.313877      -280.6549
   6   2.0000     -10.300943      -280.3029
   7   2.0000     -10.294490      -280.1273
   8   2.0000     -10.294049      -280.1153
   9   2.0000     -10.293428      -280.0984
  10   2.0000     -10.292668      -280.0777
  11   2.0000     -10.289179      -279.9828
  12   2.0000     -10.289102      -279.9807
  13   2.0000     -10.285336      -279.8782
  14   2.0000     -10.274562      -279.5850
  15   2.0000     -10.269435      -279.4455
  16   2.0000      -8.085562      -220.0193
  17   2.0000      -8.078001      -219.8136
  18   2.0000      -6.044106      -164.4685
  19   2.0000      -6.040224      -164.3629
  20   2.0000      -6.036726      -164.2677
  21   2.0000      -6.036308      -164.2563
  22   2.0000      -6.032673      -164.1574
  23   2.0000      -6.028397      -164.0410
  24   2.0000      -1.009285       -27.4640
  25   2.0000      -0.987064       -26.8594
  26   2.0000      -0.914537       -24.8858
  27   2.0000      -0.909235       -24.7415
  28   2.0000      -0.864598       -23.5269
  29   2.0000      -0.852889       -23.2083
  30   2.0000      -0.846816       -23.0430
  31   2.0000      -0.815251       -22.1841
  32   2.0000      -0.783050       -21.3079
  33   2.0000      -0.773460       -21.0469
  34   2.0000      -0.708461       -19.2782
  35   2.0000      -0.703911       -19.1544
  36   2.0000      -0.686189       -18.6721
  37   2.0000      -0.662328       -18.0229
  38   2.0000      -0.641160       -17.4469
  39   2.0000      -0.609714       -16.5912
  40   2.0000      -0.596807       -16.2400
  41   2.0000      -0.572727       -15.5847
  42   2.0000      -0.562274       -15.3003
  43   2.0000      -0.556195       -15.1348
  44   2.0000      -0.533747       -14.5240
  45   2.0000      -0.524962       -14.2849
  46   2.0000      -0.516901       -14.0656
  47   2.0000      -0.513326       -13.9683
  48   2.0000      -0.504892       -13.7388
  49   2.0000      -0.490848       -13.3567
  50   2.0000      -0.483958       -13.1692
  51   2.0000      -0.477233       -12.9862
  52   2.0000      -0.470032       -12.7902
  53   2.0000      -0.469152       -12.7663
  54   2.0000      -0.460810       -12.5393
  55   2.0000      -0.451122       -12.2756
  56   2.0000      -0.449077       -12.2200
  57   2.0000      -0.439906       -11.9705
  58   2.0000      -0.433200       -11.7880
  59   2.0000      -0.424714       -11.5571
  60   2.0000      -0.421432       -11.4678
  61   2.0000      -0.413333       -11.2474
  62   2.0000      -0.396627       -10.7928
  63   2.0000      -0.350804        -9.5459
  64   2.0000      -0.333199        -9.0668
  65   2.0000      -0.328897        -8.9497
  66   2.0000      -0.292729        -7.9656
  67   0.0000       0.035318         0.9610
  68   0.0000       0.069495         1.8911
  69   0.0000       0.108846         2.9619
  70   0.0000       0.111324         3.0293
  71   0.0000       0.128737         3.5031

MULLIKEN ATOMIC CHARGES
-----------------------
   0 S :    0.117813
   1 C :   -0.139678
   2 C :   -0.091439
   3 C :    0.042561
   4 C :   -0.166081
   5 H :   -0.020583
   6 C :    0.110407
   7 H :    0.027428
   8 H :    0.023341
   9 C :   -0.070888
  10 H :    0.030181
  11 H :    0.018171
  12 C :   -0.077495
  13 H :    0.034852
  14 H :    0.044145
  15 H :    0.042569
  16 S :    0.095542
  17 C :   -0.105462
  18 C :   -0.032475
  19 C :   -0.064348
  20 C :   -0.123099
  21 H :    0.017925
  22 C :    0.051095
  23 H :    0.030023
  24 H :    0.035166
  25 C :   -0.065429
  26 H :    0.016821
  27 H :    0.004924
  28 C :   -0.023286
  29 H :    0.031776
  30 H :    0.033995
  31 H :    0.033911
  32 H :    0.054319
  33 H :    0.083303
Sum of atomic charges:   -0.0000000

LOEWDIN ATOMIC CHARGES
----------------------
   0 S :    0.422631
   1 C :   -0.209470
   2 C :   -0.059406
   3 C :   -0.054823
   4 C :   -0.183754
   5 H :    0.018482
   6 C :   -0.033296
   7 H :    0.029887
   8 H :    0.038882
   9 C :   -0.037868
  10 H :    0.030644
  11 H :    0.016370
  12 C :   -0.071605
  13 H :    0.026749
  14 H :    0.030749
  15 H :    0.027145
  16 S :    0.389316
  17 C :   -0.195499
  18 C :   -0.069402
  19 C :   -0.064229
  20 C :   -0.189552
  21 H :    0.031118
  22 C :   -0.034612
  23 H :    0.037832
  24 H :    0.020466
  25 C :   -0.052746
  26 H :    0.017329
  27 H :    0.019072
  28 C :   -0.063938
  29 H :    0.029643
  30 H :    0.030679
  31 H :    0.024306
  32 H :    0.030121
  33 H :    0.048781

  Mayer bond orders larger than 0.100000
B(  0-S ,  1-C ) :   1.1407 B(  0-S ,  4-C ) :   1.1467 B(  1-C ,  2-C ) :   1.6134
B(  1-C , 32-H ) :   0.9609 B(  2-C ,  3-C ) :   1.2261 B(  2-C ,  6-C ) :   1.0061
B(  3-C ,  4-C ) :   1.5847 B(  3-C ,  5-H ) :   1.0064 B(  4-C , 20-C ) :   1.0128
B(  6-C ,  7-H ) :   0.9281 B(  6-C ,  8-H ) :   0.9414 B(  6-C ,  9-C ) :   1.0736
B(  9-C , 10-H ) :   0.9538 B(  9-C , 11-H ) :   0.9568 B(  9-C , 12-C ) :   1.0723
B( 12-C , 13-H ) :   0.9751 B( 12-C , 14-H ) :   0.9759 B( 12-C , 15-H ) :   0.9767
B( 16-S , 17-C ) :   1.1315 B( 16-S , 20-C ) :   1.1196 B( 17-C , 18-C ) :   1.6494
B( 17-C , 33-H ) :   0.9539 B( 18-C , 19-C ) :   1.2226 B( 18-C , 21-H ) :   0.9860
B( 19-C , 20-C ) :   1.6445 B( 19-C , 22-C ) :   1.0341 B( 22-C , 23-H ) :   0.9423
B( 22-C , 24-H ) :   0.9203 B( 22-C , 25-C ) :   1.0600 B( 25-C , 26-H ) :   0.9454
B( 25-C , 27-H ) :   0.9501 B( 25-C , 28-C ) :   1.0849 B( 28-C , 29-H ) :   0.9714
B( 28-C , 30-H ) :   0.9745 B( 28-C , 31-H ) :   0.9751

Dispersion correction           -0.014797170
FINAL SINGLE POINT ENERGY     -1339.870354579594

DIPOLE MOMENT
-------------
                                X             Y             Z
Electronic contribution:     19.82278      -2.95440     -13.93860
Nuclear contribution   :    -20.12654       3.09789      14.10834
                        -----------------------------------------
Total Dipole Moment    :     -0.30376       0.14349       0.16974
                        -----------------------------------------
Magnitude (a.u.)       :      0.37639
Magnitude (Debye)      :      0.95671

Rotational constants in cm-1:     0.019431     0.008915     0.007213
Rotational constants in MHz :   582.535477   267.259073   216.240165

                             ****ORCA TERMINATED NORMALLY****
TOTAL RUN TIME: 0 days 0 hours 0 minutes 22 seconds 232 msec
