                         Program Version 4.2.1 -  RELEASE  -
|  1> ! wB97X-D3 SP def2-SVP
|  2> %pal
|  3> nprocs 24
|  4> end
|  5>
|  6> * xyz 0 1
|  7> S 	 39.8955 	 -25.1363 	 -124.453
|  8> C 	 39.1258 	 -23.6223 	 -124.847
|  9> C 	 39.4692 	 -23.2547 	 -126.146
| 10> C 	 40.2416 	 -24.2341 	 -126.865
| 11> C 	 40.712 	 -25.2394 	 -126.047
| 12> H 	 40.5774 	 -24.1696 	 -127.852
| 13> C 	 39.0048 	 -22.0278 	 -126.78
| 14> H 	 38.5362 	 -21.4176 	 -125.998
| 15> H 	 38.1792 	 -22.2366 	 -127.426
| 16> C 	 40.1321 	 -21.1079 	 -127.347
| 17> H 	 40.7222 	 -20.7296 	 -126.471
| 18> H 	 40.808 	 -21.7986 	 -127.819
| 19> C 	 39.7418 	 -19.9224 	 -128.218
| 20> H 	 40.5364 	 -19.5512 	 -128.723
| 21> H 	 38.9837 	 -20.1937 	 -128.923
| 22> H 	 39.4364 	 -19.064 	 -127.682
| 23> S 	 41.1149 	 -28.0219 	 -125.935
| 24> C 	 42.4512 	 -28.7209 	 -126.8
| 25> C 	 43.2373 	 -27.7613 	 -127.36
| 26> C 	 42.7667 	 -26.4596 	 -127.103
| 27> C 	 41.5575 	 -26.3633 	 -126.349
| 28> H 	 44.0982 	 -28.0144 	 -127.972
| 29> C 	 43.413 	 -25.1576 	 -127.595
| 30> H 	 43.2782 	 -24.4212 	 -126.808
| 31> H 	 42.882 	 -24.8622 	 -128.484
| 32> C 	 44.9152 	 -25.2658 	 -128.096
| 33> H 	 45.0433 	 -25.716 	 -129.123
| 34> H 	 45.4277 	 -25.874 	 -127.404
| 35> C 	 45.6015 	 -23.8611 	 -128.253
| 36> H 	 44.892 	 -23.0315 	 -127.982
| 37> H 	 45.8371 	 -23.699 	 -129.341
| 38> H 	 46.5889 	 -23.6935 	 -127.767
| 39> H 	 38.3918 	 -23.1252 	 -124.227
| 40> H 	 42.6252 	 -29.7896 	 -126.956
| 41> *
| 42>
| 43>                          ****END OF INPUT****

CARTESIAN COORDINATES (ANGSTROEM)
---------------------------------
  S     39.895500  -25.136300  -124.453000
  C     39.125800  -23.622300  -124.847000
  C     39.469200  -23.254700  -126.146000
  C     40.241600  -24.234100  -126.865000
  C     40.712000  -25.239400  -126.047000
  H     40.577400  -24.169600  -127.852000
  C     39.004800  -22.027800  -126.780000
  H     38.536200  -21.417600  -125.998000
  H     38.179200  -22.236600  -127.426000
  C     40.132100  -21.107900  -127.347000
  H     40.722200  -20.729600  -126.471000
  H     40.808000  -21.798600  -127.819000
  C     39.741800  -19.922400  -128.218000
  H     40.536400  -19.551200  -128.723000
  H     38.983700  -20.193700  -128.923000
  H     39.436400  -19.064000  -127.682000
  S     41.114900  -28.021900  -125.935000
  C     42.451200  -28.720900  -126.800000
  C     43.237300  -27.761300  -127.360000
  C     42.766700  -26.459600  -127.103000
  C     41.557500  -26.363300  -126.349000
  H     44.098200  -28.014400  -127.972000
  C     43.413000  -25.157600  -127.595000
  H     43.278200  -24.421200  -126.808000
  H     42.882000  -24.862200  -128.484000
  C     44.915200  -25.265800  -128.096000
  H     45.043300  -25.716000  -129.123000
  H     45.427700  -25.874000  -127.404000
  C     45.601500  -23.861100  -128.253000
  H     44.892000  -23.031500  -127.982000
  H     45.837100  -23.699000  -129.341000
  H     46.588900  -23.693500  -127.767000
  H     38.391800  -23.125200  -124.227000
  H     42.625200  -29.789600  -126.956000

 Total Charge           Charge          ....    0
 Multiplicity           Mult            ....    1
 Number of Electrons    NEL             ....  134
 Basis Dimension        Dim             ....  322

ORBITAL ENERGIES
----------------

  NO   OCC          E(Eh)            E(eV)
   0   2.0000     -88.965931     -2420.8861
   1   2.0000     -88.962764     -2420.7999
   2   2.0000     -10.334455      -281.2148
   3   2.0000     -10.328274      -281.0466
   4   2.0000     -10.318485      -280.7802
   5   2.0000     -10.315845      -280.7084
   6   2.0000     -10.306703      -280.4596
   7   2.0000     -10.299751      -280.2705
   8   2.0000     -10.293763      -280.1075
   9   2.0000     -10.293462      -280.0993
  10   2.0000     -10.293111      -280.0898
  11   2.0000     -10.292398      -280.0704
  12   2.0000     -10.288650      -279.9684
  13   2.0000     -10.287957      -279.9495
  14   2.0000     -10.283906      -279.8393
  15   2.0000     -10.266395      -279.3628
  16   2.0000      -8.080461      -219.8805
  17   2.0000      -8.077197      -219.7917
  18   2.0000      -6.038963      -164.3285
  19   2.0000      -6.035784      -164.2420
  20   2.0000      -6.034824      -164.2159
  21   2.0000      -6.031701      -164.1309
  22   2.0000      -6.031396      -164.1226
  23   2.0000      -6.027932      -164.0284
  24   2.0000      -1.004996       -27.3473
  25   2.0000      -0.984261       -26.7831
  26   2.0000      -0.912665       -24.8349
  27   2.0000      -0.899402       -24.4740
  28   2.0000      -0.874423       -23.7943
  29   2.0000      -0.852231       -23.1904
  30   2.0000      -0.843682       -22.9578
  31   2.0000      -0.822497       -22.3813
  32   2.0000      -0.782743       -21.2995
  33   2.0000      -0.766093       -20.8465
  34   2.0000      -0.715215       -19.4620
  35   2.0000      -0.703154       -19.1338
  36   2.0000      -0.696336       -18.9483
  37   2.0000      -0.651391       -17.7253
  38   2.0000      -0.644035       -17.5251
  39   2.0000      -0.625924       -17.0323
  40   2.0000      -0.595752       -16.2112
  41   2.0000      -0.571175       -15.5425
  42   2.0000      -0.565551       -15.3894
  43   2.0000      -0.559628       -15.2283
  44   2.0000      -0.527867       -14.3640
  45   2.0000      -0.525868       -14.3096
  46   2.0000      -0.518571       -14.1110
  47   2.0000      -0.515163       -14.0183
  48   2.0000      -0.510966       -13.9041
  49   2.0000      -0.507539       -13.8108
  50   2.0000      -0.488743       -13.2994
  51   2.0000      -0.481348       -13.0981
  52   2.0000      -0.471963       -12.8428
  53   2.0000      -0.468069       -12.7368
  54   2.0000      -0.457964       -12.4618
  55   2.0000      -0.454385       -12.3644
  56   2.0000      -0.450960       -12.2712
  57   2.0000      -0.434594       -11.8259
  58   2.0000      -0.427292       -11.6272
  59   2.0000      -0.424460       -11.5501
  60   2.0000      -0.420470       -11.4416
  61   2.0000      -0.411248       -11.1906
  62   2.0000      -0.405071       -11.0226
  63   2.0000      -0.353260        -9.6127
  64   2.0000      -0.332554        -9.0492
  65   2.0000      -0.325640        -8.8611
  66   2.0000      -0.287175        -7.8144
  67   0.0000       0.021473         0.5843
  68   0.0000       0.071893         1.9563
  69   0.0000       0.114323         3.1109
  70   0.0000       0.122240         3.3263
  71   0.0000       0.133322         3.6279

MULLIKEN ATOMIC CHARGES
-----------------------
   0 S :    0.092502
   1 C :   -0.102895
   2 C :   -0.119722
   3 C :    0.061742
   4 C :   -0.164457
   5 H :   -0.002591
   6 C :    0.087004
   7 H :    0.004917
   8 H :    0.031346
   9 C :   -0.113954
  10 H :    0.033285
  11 H :    0.015628
  12 C :    0.043930
  13 H :    0.003571
  14 H :    0.022728
  15 H :    0.018163
  16 S :    0.111041
  17 C :   -0.085243
  18 C :   -0.039582
  19 C :   -0.063977
  20 C :   -0.135108
  21 H :    0.023749
  22 C :    0.057222
  23 H :    0.052076
  24 H :    0.039272
  25 C :   -0.093365
  26 H :    0.044158
  27 H :    0.028756
  28 C :   -0.086256
  29 H :    0.041227
  30 H :    0.030865
  31 H :    0.047001
  32 H :    0.053873
  33 H :    0.063094
Sum of atomic charges:   -0.0000000

LOEWDIN ATOMIC CHARGES
----------------------
   0 S :    0.384936
   1 C :   -0.195225
   2 C :   -0.063788
   3 C :   -0.049810
   4 C :   -0.172777
   5 H :    0.022807
   6 C :   -0.039346
   7 H :    0.029483
   8 H :    0.029001
   9 C :   -0.037738
  10 H :    0.032365
  11 H :    0.014513
  12 C :   -0.053919
  13 H :    0.017159
  14 H :    0.025012
  15 H :    0.024488
  16 S :    0.411572
  17 C :   -0.184711
  18 C :   -0.082831
  19 C :   -0.050313
  20 C :   -0.210161
  21 H :    0.036414
  22 C :   -0.030680
  23 H :    0.034480
  24 H :    0.029883
  25 C :   -0.044284
  26 H :    0.031889
  27 H :    0.014340
  28 C :   -0.079382
  29 H :    0.029436
  30 H :    0.028254
  31 H :    0.030714
  32 H :    0.031600
  33 H :    0.036622

  Mayer bond orders larger than 0.100000
B(  0-S ,  1-C ) :   1.1309 B(  0-S ,  4-C ) :   1.1369 B(  1-C ,  2-C ) :   1.6084
B(  1-C , 32-H ) :   0.9691 B(  2-C ,  3-C ) :   1.2197 B(  2-C ,  6-C ) :   1.0543
B(  3-C ,  4-C ) :   1.5701 B(  3-C ,  5-H ) :   0.9957 B(  4-C , 20-C ) :   1.0808
B(  6-C ,  7-H ) :   0.9343 B(  6-C ,  8-H ) :   0.9308 B(  6-C ,  9-C ) :   1.0439
B(  9-C , 10-H ) :   0.9537 B(  9-C , 11-H ) :   0.9665 B(  9-C , 12-C ) :   1.0834
B( 12-C , 13-H ) :   0.9647 B( 12-C , 14-H ) :   0.9736 B( 12-C , 15-H ) :   0.9706
B( 16-S , 17-C ) :   1.1790 B( 16-S , 20-C ) :   1.1353 B( 17-C , 18-C ) :   1.5641
B( 17-C , 20-C ) :   0.1056 B( 17-C , 33-H ) :   0.9607 B( 18-C , 19-C ) :   1.2936
B( 18-C , 21-H ) :   0.9912 B( 19-C , 20-C ) :   1.5421 B( 19-C , 22-C ) :   1.0359
B( 22-C , 23-H ) :   0.9398 B( 22-C , 24-H ) :   0.9253 B( 22-C , 25-C ) :   1.0723
B( 25-C , 26-H ) :   0.9609 B( 25-C , 27-H ) :   0.9657 B( 25-C , 28-C ) :   1.0506
B( 28-C , 29-H ) :   0.9795 B( 28-C , 30-H ) :   0.9824 B( 28-C , 31-H ) :   0.9784

Dispersion correction           -0.013586400
FINAL SINGLE POINT ENERGY     -1339.867915459817

DIPOLE MOMENT
-------------
                                X             Y             Z
Electronic contribution:    -11.56808     -25.69969      16.95447
Nuclear contribution   :     11.80721      26.14950     -17.58173
                        -----------------------------------------
Total Dipole Moment    :      0.23913       0.44982      -0.62726
                        -----------------------------------------
Magnitude (a.u.)       :      0.80807
Magnitude (Debye)      :      2.05395

Rotational constants in cm-1:     0.015837     0.009238     0.006270
Rotational constants in MHz :   474.773122   276.951097   187.962429

                             ****ORCA TERMINATED NORMALLY****
TOTAL RUN TIME: 0 days 0 hours 0 minutes 21 seconds 285 msec
