                         Program Version 4.2.1 -  RELEASE  -
|  1> ! wB97X-D3 SP def2-SVP
|  2> %pal
|  3> nprocs 24
|  4> end
|  5>
|  6> * xyz 0 1
|  7> S 	 -33.2109 	 10.1111 	 5.83144
|  8> C 	 -34.3368 	 11.426 	 5.81157
|  9> C 	 -33.7845 	 12.5439 	 6.39867
| 10> C 	 -32.52 	 12.2347 	 7.02587
| 11> C 	 -32.0919 	 10.9318 	 6.85259
| 12> H 	 -31.9253 	 13.0332 	 7.44581
| 13> C 	 -34.4225 	 13.9066 	 6.50635
| 14> H 	 -35.1838 	 13.9384 	 5.65499
| 15> H 	 -33.678 	 14.7062 	 6.32086
| 16> C 	 -35.1525 	 14.205 	 7.80664
| 17> H 	 -35.8936 	 13.4526 	 7.82803
| 18> H 	 -34.5025 	 13.9504 	 8.70142
| 19> C 	 -35.9708 	 15.5698 	 7.90897
| 20> H 	 -36.6157 	 15.5035 	 8.76381
| 21> H 	 -35.331 	 16.5575 	 7.89466
| 22> H 	 -36.6615 	 15.6798 	 7.09026
| 23> S 	 -31.0269 	 8.74566 	 8.02568
| 24> C 	 -29.346 	 8.69441 	 8.44565
| 25> C 	 -28.6723 	 9.87182 	 8.06524
| 26> C 	 -29.5509 	 10.8239 	 7.58772
| 27> C 	 -30.823 	 10.2901 	 7.30338
| 28> H 	 -27.6095 	 10.0137 	 8.34031
| 29> C 	 -29.1773 	 12.253 	 7.26493
| 30> H 	 -28.2065 	 12.4331 	 7.77015
| 31> H 	 -29.8671 	 12.889 	 7.8186
| 32> C 	 -29.0764 	 12.5527 	 5.78958
| 33> H 	 -28.9289 	 13.6207 	 5.77207
| 34> H 	 -30.0692 	 12.5122 	 5.32861
| 35> C 	 -28.055 	 11.7542 	 4.99204
| 36> H 	 -28.4324 	 10.9004 	 4.47914
| 37> H 	 -27.1897 	 11.4851 	 5.54477
| 38> H 	 -27.8013 	 12.3769 	 4.11742
| 39> H 	 -35.3367 	 11.4459 	 5.28512
| 40> H 	 -28.8372 	 7.91651 	 9.03375
| 41> *
| 42>
| 43>                          ****END OF INPUT****

CARTESIAN COORDINATES (ANGSTROEM)
---------------------------------
  S    -33.210900   10.111100    5.831440
  C    -34.336800   11.426000    5.811570
  C    -33.784500   12.543900    6.398670
  C    -32.520000   12.234700    7.025870
  C    -32.091900   10.931800    6.852590
  H    -31.925300   13.033200    7.445810
  C    -34.422500   13.906600    6.506350
  H    -35.183800   13.938400    5.654990
  H    -33.678000   14.706200    6.320860
  C    -35.152500   14.205000    7.806640
  H    -35.893600   13.452600    7.828030
  H    -34.502500   13.950400    8.701420
  C    -35.970800   15.569800    7.908970
  H    -36.615700   15.503500    8.763810
  H    -35.331000   16.557500    7.894660
  H    -36.661500   15.679800    7.090260
  S    -31.026900    8.745660    8.025680
  C    -29.346000    8.694410    8.445650
  C    -28.672300    9.871820    8.065240
  C    -29.550900   10.823900    7.587720
  C    -30.823000   10.290100    7.303380
  H    -27.609500   10.013700    8.340310
  C    -29.177300   12.253000    7.264930
  H    -28.206500   12.433100    7.770150
  H    -29.867100   12.889000    7.818600
  C    -29.076400   12.552700    5.789580
  H    -28.928900   13.620700    5.772070
  H    -30.069200   12.512200    5.328610
  C    -28.055000   11.754200    4.992040
  H    -28.432400   10.900400    4.479140
  H    -27.189700   11.485100    5.544770
  H    -27.801300   12.376900    4.117420
  H    -35.336700   11.445900    5.285120
  H    -28.837200    7.916510    9.033750

 Total Charge           Charge          ....    0
 Multiplicity           Mult            ....    1
 Number of Electrons    NEL             ....  134
 Basis Dimension        Dim             ....  322

ORBITAL ENERGIES
----------------

  NO   OCC          E(Eh)            E(eV)
   0   2.0000     -88.970687     -2421.0155
   1   2.0000     -88.965909     -2420.8855
   2   2.0000     -10.331312      -281.1293
   3   2.0000     -10.324808      -280.9523
   4   2.0000     -10.318592      -280.7832
   5   2.0000     -10.316049      -280.7140
   6   2.0000     -10.299944      -280.2757
   7   2.0000     -10.299493      -280.2635
   8   2.0000     -10.298128      -280.2263
   9   2.0000     -10.295061      -280.1429
  10   2.0000     -10.291259      -280.0394
  11   2.0000     -10.290835      -280.0279
  12   2.0000     -10.290559      -280.0203
  13   2.0000     -10.290183      -280.0101
  14   2.0000     -10.280503      -279.7467
  15   2.0000     -10.270668      -279.4791
  16   2.0000      -8.085808      -220.0260
  17   2.0000      -8.081313      -219.9037
  18   2.0000      -6.044032      -164.4665
  19   2.0000      -6.040173      -164.3615
  20   2.0000      -6.039886      -164.3537
  21   2.0000      -6.036938      -164.2734
  22   2.0000      -6.035596      -164.2369
  23   2.0000      -6.032104      -164.1419
  24   2.0000      -1.011899       -27.5352
  25   2.0000      -0.990126       -26.9427
  26   2.0000      -0.913431       -24.8557
  27   2.0000      -0.908527       -24.7223
  28   2.0000      -0.865919       -23.5628
  29   2.0000      -0.851631       -23.1741
  30   2.0000      -0.843000       -22.9392
  31   2.0000      -0.811881       -22.0924
  32   2.0000      -0.786265       -21.3954
  33   2.0000      -0.773351       -21.0439
  34   2.0000      -0.708949       -19.2915
  35   2.0000      -0.698796       -19.0152
  36   2.0000      -0.687391       -18.7049
  37   2.0000      -0.664227       -18.0745
  38   2.0000      -0.634013       -17.2524
  39   2.0000      -0.622473       -16.9384
  40   2.0000      -0.589813       -16.0496
  41   2.0000      -0.569904       -15.5079
  42   2.0000      -0.560486       -15.2516
  43   2.0000      -0.550188       -14.9714
  44   2.0000      -0.539079       -14.6691
  45   2.0000      -0.520948       -14.1757
  46   2.0000      -0.514870       -14.0103
  47   2.0000      -0.510932       -13.9032
  48   2.0000      -0.497525       -13.5383
  49   2.0000      -0.494448       -13.4546
  50   2.0000      -0.489206       -13.3120
  51   2.0000      -0.484701       -13.1894
  52   2.0000      -0.473898       -12.8954
  53   2.0000      -0.463606       -12.6154
  54   2.0000      -0.460297       -12.5253
  55   2.0000      -0.452643       -12.3170
  56   2.0000      -0.443652       -12.0724
  57   2.0000      -0.440994       -12.0001
  58   2.0000      -0.434584       -11.8256
  59   2.0000      -0.427941       -11.6449
  60   2.0000      -0.419777       -11.4227
  61   2.0000      -0.413430       -11.2500
  62   2.0000      -0.404840       -11.0163
  63   2.0000      -0.350796        -9.5456
  64   2.0000      -0.334220        -9.0946
  65   2.0000      -0.328378        -8.9356
  66   2.0000      -0.286924        -7.8076
  67   0.0000       0.027978         0.7613
  68   0.0000       0.074996         2.0407
  69   0.0000       0.110239         2.9997
  70   0.0000       0.115237         3.1358
  71   0.0000       0.138586         3.7711

MULLIKEN ATOMIC CHARGES
-----------------------
   0 S :    0.113352
   1 C :   -0.141370
   2 C :   -0.107675
   3 C :    0.015641
   4 C :   -0.118727
   5 H :   -0.001457
   6 C :    0.035747
   7 H :    0.024183
   8 H :    0.032081
   9 C :   -0.065369
  10 H :    0.008992
  11 H :    0.040684
  12 C :   -0.055530
  13 H :    0.036813
  14 H :    0.050609
  15 H :    0.022816
  16 S :    0.131353
  17 C :   -0.108523
  18 C :   -0.048988
  19 C :   -0.057594
  20 C :   -0.136529
  21 H :    0.029866
  22 C :    0.053499
  23 H :    0.010774
  24 H :    0.027847
  25 C :   -0.050005
  26 H :    0.016651
  27 H :    0.033119
  28 C :   -0.005953
  29 H :    0.031598
  30 H :    0.023849
  31 H :    0.026455
  32 H :    0.068322
  33 H :    0.063471
Sum of atomic charges:   -0.0000000

LOEWDIN ATOMIC CHARGES
----------------------
   0 S :    0.423074
   1 C :   -0.217772
   2 C :   -0.066843
   3 C :   -0.074154
   4 C :   -0.201072
   5 H :    0.025002
   6 C :   -0.039459
   7 H :    0.034067
   8 H :    0.029595
   9 C :   -0.045647
  10 H :    0.018464
  11 H :    0.031365
  12 C :   -0.070042
  13 H :    0.026120
  14 H :    0.036055
  15 H :    0.021378
  16 S :    0.448007
  17 C :   -0.200023
  18 C :   -0.077019
  19 C :   -0.055820
  20 C :   -0.216419
  21 H :    0.038417
  22 C :   -0.032867
  23 H :    0.029359
  24 H :    0.029260
  25 C :   -0.043433
  26 H :    0.022406
  27 H :    0.029389
  28 C :   -0.060229
  29 H :    0.027641
  30 H :    0.019696
  31 H :    0.034979
  32 H :    0.043189
  33 H :    0.033338

  Mayer bond orders larger than 0.100000
B(  0-S ,  1-C ) :   1.1389 B(  0-S ,  4-C ) :   1.1706 B(  1-C ,  2-C ) :   1.6044
B(  1-C , 32-H ) :   0.9579 B(  2-C ,  3-C ) :   1.2611 B(  2-C ,  6-C ) :   1.0387
B(  3-C ,  4-C ) :   1.5505 B(  3-C ,  5-H ) :   0.9937 B(  4-C , 20-C ) :   1.0085
B(  6-C ,  7-H ) :   0.9392 B(  6-C ,  8-H ) :   0.9370 B(  6-C ,  9-C ) :   1.0620
B(  9-C , 10-H ) :   0.9489 B(  9-C , 11-H ) :   0.9573 B(  9-C , 12-C ) :   1.0692
B( 12-C , 13-H ) :   0.9764 B( 12-C , 14-H ) :   0.9766 B( 12-C , 15-H ) :   0.9733
B( 16-S , 17-C ) :   1.1942 B( 16-S , 20-C ) :   1.1770 B( 17-C , 18-C ) :   1.5427
B( 17-C , 20-C ) :   0.1198 B( 17-C , 33-H ) :   0.9646 B( 18-C , 19-C ) :   1.3175
B( 18-C , 21-H ) :   0.9823 B( 19-C , 20-C ) :   1.5237 B( 19-C , 22-C ) :   1.0362
B( 22-C , 23-H ) :   0.9276 B( 22-C , 24-H ) :   0.9289 B( 22-C , 25-C ) :   1.0886
B( 25-C , 26-H ) :   0.9546 B( 25-C , 27-H ) :   0.9469 B( 25-C , 28-C ) :   1.0652
B( 28-C , 29-H ) :   0.9717 B( 28-C , 30-H ) :   0.9801 B( 28-C , 31-H ) :   0.9690

Dispersion correction           -0.014647950
FINAL SINGLE POINT ENERGY     -1339.876593626194

DIPOLE MOMENT
-------------
                                X             Y             Z
Electronic contribution:      0.24555     -25.71408       2.03086
Nuclear contribution   :     -0.11207      26.27914      -1.93976
                        -----------------------------------------
Total Dipole Moment    :      0.13348       0.56506       0.09111
                        -----------------------------------------
Magnitude (a.u.)       :      0.58772
Magnitude (Debye)      :      1.49387

Rotational constants in cm-1:     0.020643     0.007899     0.006917
Rotational constants in MHz :   618.848406   236.800519   207.373907

                             ****ORCA TERMINATED NORMALLY****
TOTAL RUN TIME: 0 days 0 hours 0 minutes 21 seconds 823 msec
