                         Program Version 4.2.1 -  RELEASE  -
|  1> ! wB97X-D3 SP def2-SVP
|  2> %pal
|  3> nprocs 24
|  4> end
|  5>
|  6> * xyz 0 1
|  7> S 	 -42.408 	 -42.5171 	 -77.1371
|  8> C 	 -43.6841 	 -42.8741 	 -75.9018
|  9> C 	 -43.2968 	 -42.6316 	 -74.6321
| 10> C 	 -41.9203 	 -42.1915 	 -74.5892
| 11> C 	 -41.2993 	 -42.0886 	 -75.8444
| 12> H 	 -41.3954 	 -42.1148 	 -73.6635
| 13> C 	 -44.0931 	 -42.9348 	 -73.3543
| 14> H 	 -43.5443 	 -43.6599 	 -72.7732
| 15> H 	 -44.9775 	 -43.4504 	 -73.7404
| 16> C 	 -44.5008 	 -41.8448 	 -72.4445
| 17> H 	 -43.6827 	 -41.4169 	 -71.8041
| 18> H 	 -44.9622 	 -41.0398 	 -73.0435
| 19> C 	 -45.6488 	 -42.3276 	 -71.4701
| 20> H 	 -46.4965 	 -42.6378 	 -72.1301
| 21> H 	 -45.4129 	 -43.1223 	 -70.8076
| 22> H 	 -45.9648 	 -41.511 	 -70.8405
| 23> S 	 -38.8164 	 -42.7593 	 -74.8366
| 24> C 	 -37.3865 	 -42.1782 	 -75.7735
| 25> C 	 -37.7468 	 -41.6615 	 -76.9775
| 26> C 	 -39.1332 	 -41.4894 	 -77.1052
| 27> C 	 -39.8768 	 -42.0172 	 -76.0545
| 28> H 	 -37.0482 	 -41.2768 	 -77.6884
| 29> C 	 -39.7965 	 -40.973 	 -78.3574
| 30> H 	 -39.321 	 -39.9614 	 -78.4358
| 31> H 	 -40.8109 	 -40.6159 	 -78.2171
| 32> C 	 -39.5753 	 -41.9305 	 -79.5695
| 33> H 	 -40.1031 	 -42.8708 	 -79.2867
| 34> H 	 -38.5437 	 -42.2524 	 -79.5146
| 35> C 	 -39.9219 	 -41.3863 	 -81.0093
| 36> H 	 -39.9026 	 -40.2966 	 -81.0871
| 37> H 	 -40.8701 	 -41.7777 	 -81.3569
| 38> H 	 -39.2011 	 -41.7674 	 -81.6975
| 39> H 	 -44.6597 	 -43.1916 	 -76.184
| 40> H 	 -36.3394 	 -42.2504 	 -75.4847
| 41> *
| 42>
| 43>                          ****END OF INPUT****

CARTESIAN COORDINATES (ANGSTROEM)
---------------------------------
  S    -42.408000  -42.517100  -77.137100
  C    -43.684100  -42.874100  -75.901800
  C    -43.296800  -42.631600  -74.632100
  C    -41.920300  -42.191500  -74.589200
  C    -41.299300  -42.088600  -75.844400
  H    -41.395400  -42.114800  -73.663500
  C    -44.093100  -42.934800  -73.354300
  H    -43.544300  -43.659900  -72.773200
  H    -44.977500  -43.450400  -73.740400
  C    -44.500800  -41.844800  -72.444500
  H    -43.682700  -41.416900  -71.804100
  H    -44.962200  -41.039800  -73.043500
  C    -45.648800  -42.327600  -71.470100
  H    -46.496500  -42.637800  -72.130100
  H    -45.412900  -43.122300  -70.807600
  H    -45.964800  -41.511000  -70.840500
  S    -38.816400  -42.759300  -74.836600
  C    -37.386500  -42.178200  -75.773500
  C    -37.746800  -41.661500  -76.977500
  C    -39.133200  -41.489400  -77.105200
  C    -39.876800  -42.017200  -76.054500
  H    -37.048200  -41.276800  -77.688400
  C    -39.796500  -40.973000  -78.357400
  H    -39.321000  -39.961400  -78.435800
  H    -40.810900  -40.615900  -78.217100
  C    -39.575300  -41.930500  -79.569500
  H    -40.103100  -42.870800  -79.286700
  H    -38.543700  -42.252400  -79.514600
  C    -39.921900  -41.386300  -81.009300
  H    -39.902600  -40.296600  -81.087100
  H    -40.870100  -41.777700  -81.356900
  H    -39.201100  -41.767400  -81.697500
  H    -44.659700  -43.191600  -76.184000
  H    -36.339400  -42.250400  -75.484700

 Total Charge           Charge          ....    0
 Multiplicity           Mult            ....    1
 Number of Electrons    NEL             ....  134
 Basis Dimension        Dim             ....  322

ORBITAL ENERGIES
----------------

  NO   OCC          E(Eh)            E(eV)
   0   2.0000     -88.967199     -2420.9205
   1   2.0000     -88.966184     -2420.8929
   2   2.0000     -10.330939      -281.1191
   3   2.0000     -10.324309      -280.9387
   4   2.0000     -10.320089      -280.8239
   5   2.0000     -10.314274      -280.6657
   6   2.0000     -10.300825      -280.2997
   7   2.0000     -10.297353      -280.2052
   8   2.0000     -10.293391      -280.0974
   9   2.0000     -10.292358      -280.0693
  10   2.0000     -10.292081      -280.0618
  11   2.0000     -10.291873      -280.0561
  12   2.0000     -10.290793      -280.0267
  13   2.0000     -10.290024      -280.0058
  14   2.0000     -10.280498      -279.7466
  15   2.0000     -10.278613      -279.6953
  16   2.0000      -8.080542      -219.8827
  17   2.0000      -8.079471      -219.8536
  18   2.0000      -6.039285      -164.3373
  19   2.0000      -6.038188      -164.3074
  20   2.0000      -6.035384      -164.2312
  21   2.0000      -6.034328      -164.2024
  22   2.0000      -6.030984      -164.1114
  23   2.0000      -6.029961      -164.0836
  24   2.0000      -1.002253       -27.2727
  25   2.0000      -0.978261       -26.6198
  26   2.0000      -0.915097       -24.9010
  27   2.0000      -0.900087       -24.4926
  28   2.0000      -0.872753       -23.7488
  29   2.0000      -0.848523       -23.0895
  30   2.0000      -0.839118       -22.8336
  31   2.0000      -0.811962       -22.0946
  32   2.0000      -0.784788       -21.3552
  33   2.0000      -0.771885       -21.0041
  34   2.0000      -0.710091       -19.3226
  35   2.0000      -0.702985       -19.1292
  36   2.0000      -0.694570       -18.9002
  37   2.0000      -0.668271       -18.1846
  38   2.0000      -0.635367       -17.2892
  39   2.0000      -0.615532       -16.7495
  40   2.0000      -0.595606       -16.2073
  41   2.0000      -0.577358       -15.7107
  42   2.0000      -0.561694       -15.2845
  43   2.0000      -0.547776       -14.9058
  44   2.0000      -0.524681       -14.2773
  45   2.0000      -0.522728       -14.2242
  46   2.0000      -0.515361       -14.0237
  47   2.0000      -0.511914       -13.9299
  48   2.0000      -0.507195       -13.8015
  49   2.0000      -0.502808       -13.6821
  50   2.0000      -0.487656       -13.2698
  51   2.0000      -0.470885       -12.8134
  52   2.0000      -0.466523       -12.6947
  53   2.0000      -0.462492       -12.5850
  54   2.0000      -0.462316       -12.5803
  55   2.0000      -0.453238       -12.3332
  56   2.0000      -0.449131       -12.2215
  57   2.0000      -0.441034       -12.0011
  58   2.0000      -0.435954       -11.8629
  59   2.0000      -0.424677       -11.5560
  60   2.0000      -0.420237       -11.4352
  61   2.0000      -0.414044       -11.2667
  62   2.0000      -0.405383       -11.0310
  63   2.0000      -0.353539        -9.6203
  64   2.0000      -0.334182        -9.0936
  65   2.0000      -0.329272        -8.9599
  66   2.0000      -0.284635        -7.7453
  67   0.0000       0.020838         0.5670
  68   0.0000       0.079223         2.1558
  69   0.0000       0.102313         2.7841
  70   0.0000       0.104954         2.8559
  71   0.0000       0.125672         3.4197

MULLIKEN ATOMIC CHARGES
-----------------------
   0 S :    0.085334
   1 C :   -0.125634
   2 C :   -0.054711
   3 C :   -0.002883
   4 C :   -0.116127
   5 H :    0.006033
   6 C :    0.081330
   7 H :    0.031674
   8 H :    0.006437
   9 C :   -0.087498
  10 H :    0.043504
  11 H :    0.035762
  12 C :   -0.061879
  13 H :    0.034235
  14 H :    0.029091
  15 H :    0.034499
  16 S :    0.092049
  17 C :   -0.088876
  18 C :   -0.013792
  19 C :   -0.079010
  20 C :   -0.108980
  21 H :    0.016601
  22 C :    0.039720
  23 H :    0.023483
  24 H :    0.024181
  25 C :   -0.071335
  26 H :    0.033040
  27 H :    0.018789
  28 C :   -0.011337
  29 H :    0.036269
  30 H :    0.035717
  31 H :    0.025512
  32 H :    0.031934
  33 H :    0.056865
Sum of atomic charges:   -0.0000000

LOEWDIN ATOMIC CHARGES
----------------------
   0 S :    0.386167
   1 C :   -0.169552
   2 C :   -0.059360
   3 C :   -0.062565
   4 C :   -0.182941
   5 H :    0.021468
   6 C :   -0.032147
   7 H :    0.032829
   8 H :    0.030286
   9 C :   -0.043351
  10 H :    0.028698
  11 H :    0.028874
  12 C :   -0.061985
  13 H :    0.028724
  14 H :    0.017729
  15 H :    0.025014
  16 S :    0.373351
  17 C :   -0.162613
  18 C :   -0.067521
  19 C :   -0.061090
  20 C :   -0.186030
  21 H :    0.031788
  22 C :   -0.047755
  23 H :    0.034781
  24 H :    0.018843
  25 C :   -0.040218
  26 H :    0.028263
  27 H :    0.021041
  28 C :   -0.062499
  29 H :    0.028053
  30 H :    0.027590
  31 H :    0.025161
  32 H :    0.018750
  33 H :    0.032218

  Mayer bond orders larger than 0.100000
B(  0-S ,  1-C ) :   1.1081 B(  0-S ,  4-C ) :   1.1325 B(  1-C ,  2-C ) :   1.6633
B(  1-C , 32-H ) :   0.9647 B(  2-C ,  3-C ) :   1.2070 B(  2-C ,  6-C ) :   1.0161
B(  3-C ,  4-C ) :   1.5635 B(  3-C ,  5-H ) :   0.9973 B(  4-C , 20-C ) :   1.0876
B(  6-C ,  7-H ) :   0.9352 B(  6-C ,  8-H ) :   0.9382 B(  6-C ,  9-C ) :   1.0738
B(  9-C , 10-H ) :   0.9514 B(  9-C , 11-H ) :   0.9556 B(  9-C , 12-C ) :   1.0784
B( 12-C , 13-H ) :   0.9760 B( 12-C , 14-H ) :   0.9781 B( 12-C , 15-H ) :   0.9763
B( 16-S , 17-C ) :   1.1311 B( 16-S , 20-C ) :   1.1132 B( 17-C , 18-C ) :   1.6260
B( 17-C , 33-H ) :   0.9651 B( 18-C , 19-C ) :   1.2453 B( 18-C , 21-H ) :   0.9848
B( 19-C , 20-C ) :   1.5807 B( 19-C , 22-C ) :   1.0550 B( 22-C , 23-H ) :   0.9213
B( 22-C , 24-H ) :   0.9318 B( 22-C , 25-C ) :   1.0415 B( 25-C , 26-H ) :   0.9537
B( 25-C , 27-H ) :   0.9639 B( 25-C , 28-C ) :   1.0544 B( 28-C , 29-H ) :   0.9802
B( 28-C , 30-H ) :   0.9783 B( 28-C , 31-H ) :   0.9774

Dispersion correction           -0.013722109
FINAL SINGLE POINT ENERGY     -1339.878088881692

DIPOLE MOMENT
-------------
                                X             Y             Z
Electronic contribution:     11.74760      -3.86168       0.61115
Nuclear contribution   :    -11.82349       3.89840      -0.58474
                        -----------------------------------------
Total Dipole Moment    :     -0.07589       0.03672       0.02641
                        -----------------------------------------
Magnitude (a.u.)       :      0.08835
Magnitude (Debye)      :      0.22456

Rotational constants in cm-1:     0.023358     0.007295     0.005809
Rotational constants in MHz :   700.269677   218.701717   174.162460

                             ****ORCA TERMINATED NORMALLY****
TOTAL RUN TIME: 0 days 0 hours 0 minutes 21 seconds 883 msec
