                         Program Version 4.2.1 -  RELEASE  -
|  1> ! wB97X-D3 SP def2-SVP
|  2> %pal
|  3> nprocs 24
|  4> end
|  5>
|  6> * xyz 0 1
|  7> S 	 -101.202 	 0.316663 	 -118.788
|  8> C 	 -102.936 	 0.444635 	 -119.112
|  9> C 	 -103.573 	 -0.705426 	 -118.748
| 10> C 	 -102.759 	 -1.6801 	 -118.263
| 11> C 	 -101.413 	 -1.39047 	 -118.303
| 12> H 	 -103.069 	 -2.62881 	 -117.904
| 13> C 	 -105.085 	 -0.811831 	 -118.678
| 14> H 	 -105.399 	 -0.162604 	 -117.805
| 15> H 	 -105.284 	 -1.74806 	 -118.302
| 16> C 	 -105.75 	 -0.584961 	 -120.003
| 17> H 	 -105.459 	 0.43349 	 -120.281
| 18> H 	 -105.352 	 -1.2514 	 -120.74
| 19> C 	 -107.248 	 -0.777951 	 -119.91
| 20> H 	 -107.482 	 -1.79268 	 -119.521
| 21> H 	 -107.504 	 0.0976013 	 -119.271
| 22> H 	 -107.691 	 -0.563784 	 -120.846
| 23> S 	 -99.2474 	 -1.20323 	 -116.824
| 24> C 	 -98.2464 	 -2.54737 	 -116.478
| 25> C 	 -98.7433 	 -3.68369 	 -116.949
| 26> C 	 -100.017 	 -3.51554 	 -117.608
| 27> C 	 -100.303 	 -2.14858 	 -117.79
| 28> H 	 -98.2436 	 -4.64443 	 -116.673
| 29> C 	 -100.833 	 -4.64473 	 -118.037
| 30> H 	 -101.743 	 -4.59086 	 -117.435
| 31> H 	 -100.146 	 -5.54886 	 -117.863
| 32> C 	 -101.029 	 -4.58611 	 -119.529
| 33> H 	 -101.281 	 -3.66407 	 -120.033
| 34> H 	 -101.758 	 -5.30448 	 -119.726
| 35> C 	 -99.7029 	 -5.02564 	 -120.232
| 36> H 	 -99.0074 	 -4.20323 	 -119.997
| 37> H 	 -99.8795 	 -5.13046 	 -121.328
| 38> H 	 -99.3045 	 -5.94926 	 -119.798
| 39> H 	 -103.435 	 1.33026 	 -119.534
| 40> H 	 -97.2674 	 -2.53135 	 -116.087
| 41> *
| 42>
| 43>                          ****END OF INPUT****

CARTESIAN COORDINATES (ANGSTROEM)
---------------------------------
  S    -101.202000    0.316663  -118.788000
  C    -102.936000    0.444635  -119.112000
  C    -103.573000   -0.705426  -118.748000
  C    -102.759000   -1.680100  -118.263000
  C    -101.413000   -1.390470  -118.303000
  H    -103.069000   -2.628810  -117.904000
  C    -105.085000   -0.811831  -118.678000
  H    -105.399000   -0.162604  -117.805000
  H    -105.284000   -1.748060  -118.302000
  C    -105.750000   -0.584961  -120.003000
  H    -105.459000    0.433490  -120.281000
  H    -105.352000   -1.251400  -120.740000
  C    -107.248000   -0.777951  -119.910000
  H    -107.482000   -1.792680  -119.521000
  H    -107.504000    0.097601  -119.271000
  H    -107.691000   -0.563784  -120.846000
  S    -99.247400   -1.203230  -116.824000
  C    -98.246400   -2.547370  -116.478000
  C    -98.743300   -3.683690  -116.949000
  C    -100.017000   -3.515540  -117.608000
  C    -100.303000   -2.148580  -117.790000
  H    -98.243600   -4.644430  -116.673000
  C    -100.833000   -4.644730  -118.037000
  H    -101.743000   -4.590860  -117.435000
  H    -100.146000   -5.548860  -117.863000
  C    -101.029000   -4.586110  -119.529000
  H    -101.281000   -3.664070  -120.033000
  H    -101.758000   -5.304480  -119.726000
  C    -99.702900   -5.025640  -120.232000
  H    -99.007400   -4.203230  -119.997000
  H    -99.879500   -5.130460  -121.328000
  H    -99.304500   -5.949260  -119.798000
  H    -103.435000    1.330260  -119.534000
  H    -97.267400   -2.531350  -116.087000

 Total Charge           Charge          ....    0
 Multiplicity           Mult            ....    1
 Number of Electrons    NEL             ....  134
 Basis Dimension        Dim             ....  322

ORBITAL ENERGIES
----------------

  NO   OCC          E(Eh)            E(eV)
   0   2.0000     -88.967020     -2420.9157
   1   2.0000     -88.960092     -2420.7272
   2   2.0000     -10.329673      -281.0847
   3   2.0000     -10.321575      -280.8643
   4   2.0000     -10.312985      -280.6306
   5   2.0000     -10.301704      -280.3236
   6   2.0000     -10.300053      -280.2787
   7   2.0000     -10.292609      -280.0761
   8   2.0000     -10.289691      -279.9967
   9   2.0000     -10.288795      -279.9724
  10   2.0000     -10.285349      -279.8786
  11   2.0000     -10.283931      -279.8400
  12   2.0000     -10.281549      -279.7752
  13   2.0000     -10.279179      -279.7107
  14   2.0000     -10.277186      -279.6564
  15   2.0000     -10.275409      -279.6081
  16   2.0000      -8.080791      -219.8895
  17   2.0000      -8.076492      -219.7725
  18   2.0000      -6.039315      -164.3381
  19   2.0000      -6.035475      -164.2336
  20   2.0000      -6.035013      -164.2210
  21   2.0000      -6.031548      -164.1268
  22   2.0000      -6.030728      -164.1045
  23   2.0000      -6.027164      -164.0075
  24   2.0000      -1.015932       -27.6449
  25   2.0000      -0.991676       -26.9849
  26   2.0000      -0.922699       -25.1079
  27   2.0000      -0.920628       -25.0516
  28   2.0000      -0.877856       -23.8877
  29   2.0000      -0.854120       -23.2418
  30   2.0000      -0.843764       -22.9600
  31   2.0000      -0.819256       -22.2931
  32   2.0000      -0.781149       -21.2561
  33   2.0000      -0.768353       -20.9079
  34   2.0000      -0.716474       -19.4963
  35   2.0000      -0.702593       -19.1185
  36   2.0000      -0.689532       -18.7631
  37   2.0000      -0.664445       -18.0805
  38   2.0000      -0.638312       -17.3694
  39   2.0000      -0.622319       -16.9341
  40   2.0000      -0.595090       -16.1932
  41   2.0000      -0.579209       -15.7611
  42   2.0000      -0.568343       -15.4654
  43   2.0000      -0.564226       -15.3534
  44   2.0000      -0.545266       -14.8374
  45   2.0000      -0.529534       -14.4094
  46   2.0000      -0.522557       -14.2195
  47   2.0000      -0.512799       -13.9540
  48   2.0000      -0.505812       -13.7639
  49   2.0000      -0.495944       -13.4953
  50   2.0000      -0.493088       -13.4176
  51   2.0000      -0.480200       -13.0669
  52   2.0000      -0.475635       -12.9427
  53   2.0000      -0.463618       -12.6157
  54   2.0000      -0.462269       -12.5790
  55   2.0000      -0.447562       -12.1788
  56   2.0000      -0.443819       -12.0769
  57   2.0000      -0.434674       -11.8281
  58   2.0000      -0.432864       -11.7788
  59   2.0000      -0.424316       -11.5462
  60   2.0000      -0.416977       -11.3465
  61   2.0000      -0.414148       -11.2695
  62   2.0000      -0.412968       -11.2374
  63   2.0000      -0.355924        -9.6852
  64   2.0000      -0.336805        -9.1649
  65   2.0000      -0.324114        -8.8196
  66   2.0000      -0.283112        -7.7039
  67   0.0000       0.020362         0.5541
  68   0.0000       0.077093         2.0978
  69   0.0000       0.108340         2.9481
  70   0.0000       0.125304         3.4097
  71   0.0000       0.137896         3.7523

MULLIKEN ATOMIC CHARGES
-----------------------
   0 S :    0.098910
   1 C :   -0.145496
   2 C :   -0.070223
   3 C :    0.030789
   4 C :   -0.139935
   5 H :   -0.017161
   6 C :    0.102906
   7 H :    0.045119
   8 H :   -0.027865
   9 C :   -0.091003
  10 H :    0.018969
  11 H :    0.025902
  12 C :   -0.008028
  13 H :    0.046225
  14 H :    0.028701
  15 H :    0.025243
  16 S :    0.098171
  17 C :   -0.052554
  18 C :   -0.049829
  19 C :   -0.102921
  20 C :   -0.125733
  21 H :    0.030991
  22 C :    0.056512
  23 H :    0.049976
  24 H :    0.030816
  25 C :   -0.044187
  26 H :    0.052352
  27 H :    0.008318
  28 C :   -0.091872
  29 H :    0.050837
  30 H :    0.046730
  31 H :    0.024757
  32 H :    0.059017
  33 H :    0.035565
Sum of atomic charges:    0.0000000

LOEWDIN ATOMIC CHARGES
----------------------
   0 S :    0.385501
   1 C :   -0.193350
   2 C :   -0.068968
   3 C :   -0.061757
   4 C :   -0.179335
   5 H :    0.024780
   6 C :   -0.025987
   7 H :    0.040838
   8 H :    0.010280
   9 C :   -0.038863
  10 H :    0.021073
  11 H :    0.021469
  12 C :   -0.060862
  13 H :    0.031520
  14 H :    0.033100
  15 H :    0.019460
  16 S :    0.431108
  17 C :   -0.194026
  18 C :   -0.082170
  19 C :   -0.059005
  20 C :   -0.209538
  21 H :    0.039934
  22 C :   -0.037281
  23 H :    0.033598
  24 H :    0.043394
  25 C :   -0.035535
  26 H :    0.028881
  27 H :    0.011397
  28 C :   -0.063779
  29 H :    0.029458
  30 H :    0.029941
  31 H :    0.017873
  32 H :    0.032564
  33 H :    0.024287

  Mayer bond orders larger than 0.100000
B(  0-S ,  1-C ) :   1.1317 B(  0-S ,  4-C ) :   1.1522 B(  1-C ,  2-C ) :   1.5824
B(  1-C ,  4-C ) :   0.1099 B(  1-C , 32-H ) :   0.9660 B(  2-C ,  3-C ) :   1.2955
B(  2-C ,  6-C ) :   1.0059 B(  3-C ,  4-C ) :   1.5275 B(  3-C ,  5-H ) :   0.9981
B(  4-C , 20-C ) :   1.0678 B(  6-C ,  7-H ) :   0.9349 B(  6-C ,  8-H ) :   0.9303
B(  6-C ,  9-C ) :   1.0573 B(  9-C , 10-H ) :   0.9570 B(  9-C , 11-H ) :   0.9541
B(  9-C , 12-C ) :   1.0858 B( 12-C , 13-H ) :   0.9730 B( 12-C , 14-H ) :   0.9737
B( 12-C , 15-H ) :   0.9723 B( 16-S , 17-C ) :   1.1525 B( 16-S , 20-C ) :   1.1549
B( 17-C , 18-C ) :   1.6449 B( 17-C , 33-H ) :   0.9602 B( 18-C , 19-C ) :   1.2390
B( 18-C , 21-H ) :   0.9788 B( 19-C , 20-C ) :   1.5511 B( 19-C , 22-C ) :   1.0487
B( 22-C , 23-H ) :   0.9213 B( 22-C , 24-H ) :   0.9331 B( 22-C , 25-C ) :   1.0757
B( 25-C , 26-H ) :   0.9588 B( 25-C , 27-H ) :   0.9543 B( 25-C , 28-C ) :   1.0617
B( 28-C , 29-H ) :   0.9783 B( 28-C , 30-H ) :   0.9747 B( 28-C , 31-H ) :   0.9748

Dispersion correction           -0.014486351
FINAL SINGLE POINT ENERGY     -1339.854932053664

DIPOLE MOMENT
-------------
                                X             Y             Z
Electronic contribution:     19.16634      13.71642      11.33932
Nuclear contribution   :    -19.62605     -14.16299     -11.34382
                        -----------------------------------------
Total Dipole Moment    :     -0.45971      -0.44657      -0.00450
                        -----------------------------------------
Magnitude (a.u.)       :      0.64092
Magnitude (Debye)      :      1.62910

Rotational constants in cm-1:     0.022435     0.008168     0.006647
Rotational constants in MHz :   672.593596   244.877752   199.266699

                             ****ORCA TERMINATED NORMALLY****
TOTAL RUN TIME: 0 days 0 hours 0 minutes 22 seconds 422 msec
