                         Program Version 4.2.1 -  RELEASE  -
|  1> ! wB97X-D3 SP def2-SVP
|  2> %pal
|  3> nprocs 24
|  4> end
|  5>
|  6> * xyz 0 1
|  7> S 	 -57.9912 	 0.537127 	 -17.6854
|  8> C 	 -57.8511 	 -0.462655 	 -16.3713
|  9> C 	 -58.1061 	 -1.7684 	 -16.6366
| 10> C 	 -58.4021 	 -1.98443 	 -17.9902
| 11> C 	 -58.4642 	 -0.808414 	 -18.78
| 12> H 	 -58.565 	 -2.98636 	 -18.4611
| 13> C 	 -57.8666 	 -2.96028 	 -15.6903
| 14> H 	 -58.1233 	 -3.9106 	 -16.1271
| 15> H 	 -58.4996 	 -2.78447 	 -14.8329
| 16> C 	 -56.4282 	 -3.16656 	 -15.262
| 17> H 	 -55.6603 	 -3.35263 	 -16.008
| 18> H 	 -56.1452 	 -2.33963 	 -14.7299
| 19> C 	 -56.1777 	 -4.37594 	 -14.305
| 20> H 	 -56.8484 	 -4.3654 	 -13.4861
| 21> H 	 -56.2812 	 -5.28825 	 -14.9605
| 22> H 	 -55.1785 	 -4.35871 	 -13.9227
| 23> S 	 -57.9509 	 -1.78141 	 -21.3108
| 24> C 	 -58.6629 	 -0.873546 	 -22.6572
| 25> C 	 -59.6576 	 -0.0479462 	 -22.2098
| 26> C 	 -59.782 	 0.0338528 	 -20.7856
| 27> C 	 -58.7972 	 -0.727751 	 -20.177
| 28> H 	 -60.2888 	 0.485233 	 -22.8559
| 29> C 	 -60.6698 	 1.02568 	 -20.1838
| 30> H 	 -60.8576 	 1.83934 	 -20.8676
| 31> H 	 -60.2208 	 1.33541 	 -19.2926
| 32> C 	 -61.9902 	 0.349228 	 -19.8259
| 33> H 	 -62.5014 	 1.15015 	 -19.2927
| 34> H 	 -61.8854 	 -0.422954 	 -19.0775
| 35> C 	 -62.8897 	 -0.147896 	 -20.9598
| 36> H 	 -62.4793 	 -0.945157 	 -21.5675
| 37> H 	 -63.3408 	 0.648801 	 -21.5304
| 38> H 	 -63.7625 	 -0.540112 	 -20.5116
| 39> H 	 -57.4447 	 -0.106802 	 -15.3909
| 40> H 	 -58.4666 	 -1.07656 	 -23.7581
| 41> *
| 42>
| 43>                          ****END OF INPUT****

CARTESIAN COORDINATES (ANGSTROEM)
---------------------------------
  S    -57.991200    0.537127  -17.685400
  C    -57.851100   -0.462655  -16.371300
  C    -58.106100   -1.768400  -16.636600
  C    -58.402100   -1.984430  -17.990200
  C    -58.464200   -0.808414  -18.780000
  H    -58.565000   -2.986360  -18.461100
  C    -57.866600   -2.960280  -15.690300
  H    -58.123300   -3.910600  -16.127100
  H    -58.499600   -2.784470  -14.832900
  C    -56.428200   -3.166560  -15.262000
  H    -55.660300   -3.352630  -16.008000
  H    -56.145200   -2.339630  -14.729900
  C    -56.177700   -4.375940  -14.305000
  H    -56.848400   -4.365400  -13.486100
  H    -56.281200   -5.288250  -14.960500
  H    -55.178500   -4.358710  -13.922700
  S    -57.950900   -1.781410  -21.310800
  C    -58.662900   -0.873546  -22.657200
  C    -59.657600   -0.047946  -22.209800
  C    -59.782000    0.033853  -20.785600
  C    -58.797200   -0.727751  -20.177000
  H    -60.288800    0.485233  -22.855900
  C    -60.669800    1.025680  -20.183800
  H    -60.857600    1.839340  -20.867600
  H    -60.220800    1.335410  -19.292600
  C    -61.990200    0.349228  -19.825900
  H    -62.501400    1.150150  -19.292700
  H    -61.885400   -0.422954  -19.077500
  C    -62.889700   -0.147896  -20.959800
  H    -62.479300   -0.945157  -21.567500
  H    -63.340800    0.648801  -21.530400
  H    -63.762500   -0.540112  -20.511600
  H    -57.444700   -0.106802  -15.390900
  H    -58.466600   -1.076560  -23.758100

 Total Charge           Charge          ....    0
 Multiplicity           Mult            ....    1
 Number of Electrons    NEL             ....  134
 Basis Dimension        Dim             ....  322

ORBITAL ENERGIES
----------------

  NO   OCC          E(Eh)            E(eV)
   0   2.0000     -88.969036     -2420.9705
   1   2.0000     -88.963907     -2420.8310
   2   2.0000     -10.329813      -281.0885
   3   2.0000     -10.322459      -280.8884
   4   2.0000     -10.320736      -280.8415
   5   2.0000     -10.309827      -280.5446
   6   2.0000     -10.295740      -280.1613
   7   2.0000     -10.294607      -280.1305
   8   2.0000     -10.294586      -280.1299
   9   2.0000     -10.290199      -280.0105
  10   2.0000     -10.286528      -279.9107
  11   2.0000     -10.280326      -279.7419
  12   2.0000     -10.278944      -279.7043
  13   2.0000     -10.276480      -279.6372
  14   2.0000     -10.275880      -279.6209
  15   2.0000     -10.269516      -279.4477
  16   2.0000      -8.084184      -219.9818
  17   2.0000      -8.078103      -219.8164
  18   2.0000      -6.042595      -164.4274
  19   2.0000      -6.038455      -164.3147
  20   2.0000      -6.036817      -164.2702
  21   2.0000      -6.035194      -164.2260
  22   2.0000      -6.032846      -164.1621
  23   2.0000      -6.028539      -164.0449
  24   2.0000      -1.008486       -27.4423
  25   2.0000      -0.987935       -26.8831
  26   2.0000      -0.915521       -24.9126
  27   2.0000      -0.911272       -24.7970
  28   2.0000      -0.871611       -23.7177
  29   2.0000      -0.853634       -23.2286
  30   2.0000      -0.847340       -23.0573
  31   2.0000      -0.811193       -22.0737
  32   2.0000      -0.787821       -21.4377
  33   2.0000      -0.771851       -21.0031
  34   2.0000      -0.708911       -19.2904
  35   2.0000      -0.700063       -19.0497
  36   2.0000      -0.687785       -18.7156
  37   2.0000      -0.666069       -18.1247
  38   2.0000      -0.638968       -17.3872
  39   2.0000      -0.612585       -16.6693
  40   2.0000      -0.595606       -16.2073
  41   2.0000      -0.579066       -15.7572
  42   2.0000      -0.564608       -15.3638
  43   2.0000      -0.555928       -15.1276
  44   2.0000      -0.544034       -14.8039
  45   2.0000      -0.527410       -14.3516
  46   2.0000      -0.517153       -14.0725
  47   2.0000      -0.507238       -13.8026
  48   2.0000      -0.504603       -13.7309
  49   2.0000      -0.497040       -13.5251
  50   2.0000      -0.488174       -13.2839
  51   2.0000      -0.480341       -13.0707
  52   2.0000      -0.476376       -12.9628
  53   2.0000      -0.472777       -12.8649
  54   2.0000      -0.461425       -12.5560
  55   2.0000      -0.447071       -12.1654
  56   2.0000      -0.442608       -12.0440
  57   2.0000      -0.439979       -11.9724
  58   2.0000      -0.429771       -11.6947
  59   2.0000      -0.428575       -11.6621
  60   2.0000      -0.417062       -11.3488
  61   2.0000      -0.414495       -11.2790
  62   2.0000      -0.410874       -11.1804
  63   2.0000      -0.347467        -9.4551
  64   2.0000      -0.332538        -9.0488
  65   2.0000      -0.326292        -8.8789
  66   2.0000      -0.286294        -7.7905
  67   0.0000       0.031001         0.8436
  68   0.0000       0.064624         1.7585
  69   0.0000       0.108779         2.9600
  70   0.0000       0.119447         3.2503
  71   0.0000       0.133174         3.6238

MULLIKEN ATOMIC CHARGES
-----------------------
   0 S :    0.130785
   1 C :   -0.152632
   2 C :   -0.058266
   3 C :   -0.005745
   4 C :   -0.173741
   5 H :    0.028624
   6 C :    0.101326
   7 H :    0.008428
   8 H :    0.027023
   9 C :   -0.062726
  10 H :    0.031807
  11 H :   -0.003966
  12 C :   -0.054865
  13 H :    0.021794
  14 H :    0.036087
  15 H :    0.031752
  16 S :    0.102787
  17 C :   -0.104665
  18 C :   -0.013685
  19 C :   -0.049632
  20 C :   -0.167289
  21 H :   -0.004682
  22 C :    0.160203
  23 H :    0.020132
  24 H :   -0.007556
  25 C :   -0.093334
  26 H :    0.017521
  27 H :    0.031443
  28 C :   -0.018566
  29 H :    0.045358
  30 H :    0.019250
  31 H :    0.013987
  32 H :    0.065823
  33 H :    0.077222
Sum of atomic charges:   -0.0000000

LOEWDIN ATOMIC CHARGES
----------------------
   0 S :    0.438855
   1 C :   -0.229906
   2 C :   -0.076143
   3 C :   -0.063201
   4 C :   -0.192096
   5 H :    0.036378
   6 C :   -0.022224
   7 H :    0.025549
   8 H :    0.032052
   9 C :   -0.036318
  10 H :    0.027855
  11 H :    0.005015
  12 C :   -0.057743
  13 H :    0.014311
  14 H :    0.029056
  15 H :    0.024077
  16 S :    0.385637
  17 C :   -0.185246
  18 C :   -0.064595
  19 C :   -0.048295
  20 C :   -0.198123
  21 H :    0.020725
  22 C :   -0.024181
  23 H :    0.031244
  24 H :    0.017504
  25 C :   -0.032013
  26 H :    0.023810
  27 H :    0.025241
  28 C :   -0.066793
  29 H :    0.026779
  30 H :    0.023849
  31 H :    0.025694
  32 H :    0.039219
  33 H :    0.044027

  Mayer bond orders larger than 0.100000
B(  0-S ,  1-C ) :   1.1809 B(  0-S ,  4-C ) :   1.1496 B(  1-C ,  2-C ) :   1.5702
B(  1-C , 32-H ) :   0.9573 B(  2-C ,  3-C ) :   1.3050 B(  2-C ,  6-C ) :   1.0160
B(  3-C ,  4-C ) :   1.5253 B(  3-C ,  5-H ) :   0.9849 B(  4-C , 20-C ) :   1.0755
B(  6-C ,  7-H ) :   0.9487 B(  6-C ,  8-H ) :   0.9307 B(  6-C ,  9-C ) :   1.0701
B(  9-C , 10-H ) :   0.9603 B(  9-C , 11-H ) :   0.9522 B(  9-C , 12-C ) :   1.0853
B( 12-C , 13-H ) :   0.9764 B( 12-C , 14-H ) :   0.9794 B( 12-C , 15-H ) :   0.9751
B( 16-S , 17-C ) :   1.1299 B( 16-S , 20-C ) :   1.1249 B( 17-C , 18-C ) :   1.6265
B( 17-C , 33-H ) :   0.9583 B( 18-C , 19-C ) :   1.2219 B( 18-C , 21-H ) :   0.9929
B( 19-C , 20-C ) :   1.5797 B( 19-C , 22-C ) :   1.0572 B( 22-C , 23-H ) :   0.9356
B( 22-C , 24-H ) :   0.9063 B( 22-C , 25-C ) :   1.0748 B( 25-C , 26-H ) :   0.9517
B( 25-C , 27-H ) :   0.9567 B( 25-C , 28-C ) :   1.0876 B( 28-C , 29-H ) :   0.9714
B( 28-C , 30-H ) :   0.9708 B( 28-C , 31-H ) :   0.9652

Dispersion correction           -0.014255143
FINAL SINGLE POINT ENERGY     -1339.867441152660

DIPOLE MOMENT
-------------
                                X             Y             Z
Electronic contribution:      8.39662       7.91260     -11.96410
Nuclear contribution   :     -8.65896      -7.95449      12.15392
                        -----------------------------------------
Total Dipole Moment    :     -0.26234      -0.04189       0.18982
                        -----------------------------------------
Magnitude (a.u.)       :      0.32651
Magnitude (Debye)      :      0.82991

Rotational constants in cm-1:     0.023759     0.007121     0.006422
Rotational constants in MHz :   712.273417   213.468824   192.534441

                             ****ORCA TERMINATED NORMALLY****
TOTAL RUN TIME: 0 days 0 hours 0 minutes 21 seconds 463 msec
