                         Program Version 4.2.1 -  RELEASE  -
|  1> ! wB97X-D3 SP def2-SVP
|  2> %pal
|  3> nprocs 24
|  4> end
|  5>
|  6> * xyz 0 1
|  7> S 	 -105.701 	 -2.14624 	 -108.696
|  8> C 	 -106.15 	 -0.89123 	 -109.874
|  9> C 	 -106.728 	 0.168116 	 -109.208
| 10> C 	 -106.948 	 -0.00839117 	 -107.805
| 11> C 	 -106.334 	 -1.14884 	 -107.314
| 12> H 	 -107.454 	 0.67972 	 -107.129
| 13> C 	 -107.326 	 1.3818 	 -109.931
| 14> H 	 -106.615 	 2.20381 	 -109.909
| 15> H 	 -108.177 	 1.63758 	 -109.351
| 16> C 	 -107.781 	 1.15708 	 -111.392
| 17> H 	 -107.014 	 1.01982 	 -112.111
| 18> H 	 -108.399 	 0.312677 	 -111.454
| 19> C 	 -108.41 	 2.40759 	 -111.942
| 20> H 	 -108.735 	 2.3219 	 -112.914
| 21> H 	 -109.265 	 2.70472 	 -111.338
| 22> H 	 -107.731 	 3.22007 	 -111.885
| 23> S 	 -106.221 	 -3.23881 	 -105.664
| 24> C 	 -106.255 	 -2.98791 	 -103.929
| 25> C 	 -106.07 	 -1.67511 	 -103.583
| 26> C 	 -105.954 	 -0.796064 	 -104.755
| 27> C 	 -106.142 	 -1.5347 	 -105.951
| 28> H 	 -106.075 	 -1.44892 	 -102.488
| 29> C 	 -105.841 	 0.722419 	 -104.663
| 30> H 	 -106.818 	 1.22056 	 -104.597
| 31> H 	 -105.505 	 1.07643 	 -105.681
| 32> C 	 -104.743 	 1.16308 	 -103.734
| 33> H 	 -105.059 	 0.880607 	 -102.742
| 34> H 	 -104.649 	 2.24714 	 -103.654
| 35> C 	 -103.284 	 0.595612 	 -103.951
| 36> H 	 -103.376 	 -0.403839 	 -104.289
| 37> H 	 -102.636 	 0.592106 	 -103.039
| 38> H 	 -102.776 	 1.15635 	 -104.748
| 39> H 	 -105.913 	 -0.894449 	 -110.909
| 40> H 	 -106.326 	 -3.64405 	 -103.117
| 41> *
| 42>
| 43>                          ****END OF INPUT****

CARTESIAN COORDINATES (ANGSTROEM)
---------------------------------
  S    -105.701000   -2.146240  -108.696000
  C    -106.150000   -0.891230  -109.874000
  C    -106.728000    0.168116  -109.208000
  C    -106.948000   -0.008391  -107.805000
  C    -106.334000   -1.148840  -107.314000
  H    -107.454000    0.679720  -107.129000
  C    -107.326000    1.381800  -109.931000
  H    -106.615000    2.203810  -109.909000
  H    -108.177000    1.637580  -109.351000
  C    -107.781000    1.157080  -111.392000
  H    -107.014000    1.019820  -112.111000
  H    -108.399000    0.312677  -111.454000
  C    -108.410000    2.407590  -111.942000
  H    -108.735000    2.321900  -112.914000
  H    -109.265000    2.704720  -111.338000
  H    -107.731000    3.220070  -111.885000
  S    -106.221000   -3.238810  -105.664000
  C    -106.255000   -2.987910  -103.929000
  C    -106.070000   -1.675110  -103.583000
  C    -105.954000   -0.796064  -104.755000
  C    -106.142000   -1.534700  -105.951000
  H    -106.075000   -1.448920  -102.488000
  C    -105.841000    0.722419  -104.663000
  H    -106.818000    1.220560  -104.597000
  H    -105.505000    1.076430  -105.681000
  C    -104.743000    1.163080  -103.734000
  H    -105.059000    0.880607  -102.742000
  H    -104.649000    2.247140  -103.654000
  C    -103.284000    0.595612  -103.951000
  H    -103.376000   -0.403839  -104.289000
  H    -102.636000    0.592106  -103.039000
  H    -102.776000    1.156350  -104.748000
  H    -105.913000   -0.894449  -110.909000
  H    -106.326000   -3.644050  -103.117000

 Total Charge           Charge          ....    0
 Multiplicity           Mult            ....    1
 Number of Electrons    NEL             ....  134
 Basis Dimension        Dim             ....  322

ORBITAL ENERGIES
----------------

  NO   OCC          E(Eh)            E(eV)
   0   2.0000     -88.968046     -2420.9436
   1   2.0000     -88.964250     -2420.8403
   2   2.0000     -10.335073      -281.2316
   3   2.0000     -10.329266      -281.0736
   4   2.0000     -10.314744      -280.6785
   5   2.0000     -10.313913      -280.6559
   6   2.0000     -10.313534      -280.6455
   7   2.0000     -10.301189      -280.3096
   8   2.0000     -10.301160      -280.3088
   9   2.0000     -10.297861      -280.2191
  10   2.0000     -10.297260      -280.2027
  11   2.0000     -10.290183      -280.0101
  12   2.0000     -10.285708      -279.8883
  13   2.0000     -10.277607      -279.6679
  14   2.0000     -10.277147      -279.6554
  15   2.0000     -10.265901      -279.3494
  16   2.0000      -8.083041      -219.9507
  17   2.0000      -8.077688      -219.8051
  18   2.0000      -6.041661      -164.4020
  19   2.0000      -6.037559      -164.2903
  20   2.0000      -6.036478      -164.2609
  21   2.0000      -6.033603      -164.1827
  22   2.0000      -6.032474      -164.1520
  23   2.0000      -6.028123      -164.0336
  24   2.0000      -1.005112       -27.3505
  25   2.0000      -0.978161       -26.6171
  26   2.0000      -0.914994       -24.8982
  27   2.0000      -0.908779       -24.7291
  28   2.0000      -0.876041       -23.8383
  29   2.0000      -0.850618       -23.1465
  30   2.0000      -0.839489       -22.8437
  31   2.0000      -0.818313       -22.2674
  32   2.0000      -0.782626       -21.2963
  33   2.0000      -0.771023       -20.9806
  34   2.0000      -0.717839       -19.5334
  35   2.0000      -0.707647       -19.2561
  36   2.0000      -0.695720       -18.9315
  37   2.0000      -0.654627       -17.8133
  38   2.0000      -0.637993       -17.3607
  39   2.0000      -0.618143       -16.8205
  40   2.0000      -0.595071       -16.1927
  41   2.0000      -0.577738       -15.7211
  42   2.0000      -0.565898       -15.3989
  43   2.0000      -0.554571       -15.0906
  44   2.0000      -0.538976       -14.6663
  45   2.0000      -0.527000       -14.3404
  46   2.0000      -0.518273       -14.1029
  47   2.0000      -0.511077       -13.9071
  48   2.0000      -0.509251       -13.8574
  49   2.0000      -0.501632       -13.6501
  50   2.0000      -0.487554       -13.2670
  51   2.0000      -0.484827       -13.1928
  52   2.0000      -0.470080       -12.7915
  53   2.0000      -0.462138       -12.5754
  54   2.0000      -0.457699       -12.4546
  55   2.0000      -0.452412       -12.3108
  56   2.0000      -0.448425       -12.2023
  57   2.0000      -0.440613       -11.9897
  58   2.0000      -0.435107       -11.8399
  59   2.0000      -0.425745       -11.5851
  60   2.0000      -0.419185       -11.4066
  61   2.0000      -0.412301       -11.2193
  62   2.0000      -0.405327       -11.0295
  63   2.0000      -0.358518        -9.7558
  64   2.0000      -0.332980        -9.0608
  65   2.0000      -0.327464        -8.9108
  66   2.0000      -0.285084        -7.7575
  67   0.0000       0.018676         0.5082
  68   0.0000       0.076203         2.0736
  69   0.0000       0.097869         2.6632
  70   0.0000       0.121392         3.3032
  71   0.0000       0.139266         3.7896

MULLIKEN ATOMIC CHARGES
-----------------------
   0 S :    0.084582
   1 C :   -0.099025
   2 C :   -0.095423
   3 C :    0.003322
   4 C :   -0.109709
   5 H :    0.020938
   6 C :    0.074775
   7 H :    0.034466
   8 H :    0.016101
   9 C :   -0.066627
  10 H :    0.017785
  11 H :    0.021772
  12 C :    0.003710
  13 H :    0.013899
  14 H :    0.014010
  15 H :    0.012246
  16 S :    0.110622
  17 C :   -0.047691
  18 C :   -0.077524
  19 C :   -0.057726
  20 C :   -0.145971
  21 H :    0.043190
  22 C :    0.052232
  23 H :    0.053502
  24 H :    0.027644
  25 C :   -0.072990
  26 H :    0.012736
  27 H :    0.028268
  28 C :   -0.060896
  29 H :    0.037597
  30 H :    0.045032
  31 H :    0.035617
  32 H :    0.041561
  33 H :    0.027974
Sum of atomic charges:   -0.0000000

LOEWDIN ATOMIC CHARGES
----------------------
   0 S :    0.355902
   1 C :   -0.183991
   2 C :   -0.061464
   3 C :   -0.065628
   4 C :   -0.164508
   5 H :    0.034548
   6 C :   -0.022506
   7 H :    0.032154
   8 H :    0.026269
   9 C :   -0.035461
  10 H :    0.019708
  11 H :    0.017655
  12 C :   -0.049601
  13 H :    0.015565
  14 H :    0.021838
  15 H :    0.020407
  16 S :    0.414005
  17 C :   -0.180062
  18 C :   -0.074106
  19 C :   -0.051812
  20 C :   -0.202262
  21 H :    0.042136
  22 C :   -0.042305
  23 H :    0.036428
  24 H :    0.035031
  25 C :   -0.044292
  26 H :    0.015152
  27 H :    0.025028
  28 C :   -0.063210
  29 H :    0.020847
  30 H :    0.034009
  31 H :    0.026660
  32 H :    0.025666
  33 H :    0.022202

  Mayer bond orders larger than 0.100000
B(  0-S ,  1-C ) :   1.1041 B(  0-S ,  4-C ) :   1.1223 B(  1-C ,  2-C ) :   1.6455
B(  1-C , 32-H ) :   0.9688 B(  2-C ,  3-C ) :   1.2181 B(  2-C ,  6-C ) :   1.0093
B(  3-C ,  4-C ) :   1.5834 B(  3-C ,  5-H ) :   0.9913 B(  4-C , 20-C ) :   1.0905
B(  6-C ,  7-H ) :   0.9285 B(  6-C ,  8-H ) :   0.9483 B(  6-C ,  9-C ) :   1.0857
B(  9-C , 10-H ) :   0.9463 B(  9-C , 11-H ) :   0.9570 B(  9-C , 12-C ) :   1.0911
B( 12-C , 13-H ) :   0.9702 B( 12-C , 14-H ) :   0.9725 B( 12-C , 15-H ) :   0.9724
B( 16-S , 17-C ) :   1.1348 B( 16-S , 20-C ) :   1.1363 B( 17-C , 18-C ) :   1.6693
B( 17-C , 33-H ) :   0.9668 B( 18-C , 19-C ) :   1.1953 B( 18-C , 21-H ) :   0.9802
B( 19-C , 20-C ) :   1.5746 B( 19-C , 22-C ) :   1.0363 B( 22-C , 23-H ) :   0.9382
B( 22-C , 24-H ) :   0.9321 B( 22-C , 25-C ) :   1.0610 B( 25-C , 26-H ) :   0.9557
B( 25-C , 27-H ) :   0.9577 B( 25-C , 28-C ) :   1.0662 B( 28-C , 29-H ) :   0.9756
B( 28-C , 30-H ) :   0.9763 B( 28-C , 31-H ) :   0.9767

Dispersion correction           -0.013856779
FINAL SINGLE POINT ENERGY     -1339.867896544453

DIPOLE MOMENT
-------------
                                X             Y             Z
Electronic contribution:      0.73982     -25.18950       3.98583
Nuclear contribution   :     -0.90595      25.88009      -3.84927
                        -----------------------------------------
Total Dipole Moment    :     -0.16612       0.69058       0.13656
                        -----------------------------------------
Magnitude (a.u.)       :      0.72329
Magnitude (Debye)      :      1.83846

Rotational constants in cm-1:     0.022104     0.007329     0.006117
Rotational constants in MHz :   662.660041   219.725766   183.376741

                             ****ORCA TERMINATED NORMALLY****
TOTAL RUN TIME: 0 days 0 hours 0 minutes 21 seconds 298 msec
