                         Program Version 4.2.1 -  RELEASE  -
|  1> ! wB97X-D3 SP def2-SVP
|  2> %pal
|  3> nprocs 24
|  4> end
|  5>
|  6> * xyz 0 1
|  7> S 	 31.0683 	 -30.7073 	 -132.204
|  8> C 	 31.6903 	 -29.1014 	 -132.704
|  9> C 	 32.4922 	 -28.4554 	 -131.716
| 10> C 	 32.6867 	 -29.3394 	 -130.618
| 11> C 	 32.0708 	 -30.5859 	 -130.757
| 12> H 	 33.2622 	 -29.1525 	 -129.717
| 13> C 	 33.1007 	 -27.0871 	 -131.669
| 14> H 	 33.3188 	 -26.8589 	 -130.628
| 15> H 	 32.3611 	 -26.4096 	 -131.962
| 16> C 	 34.2922 	 -26.8346 	 -132.593
| 17> H 	 34.9806 	 -27.6338 	 -132.328
| 18> H 	 34.0475 	 -27.0761 	 -133.615
| 19> C 	 34.9996 	 -25.4259 	 -132.405
| 20> H 	 34.1527 	 -24.6853 	 -132.59
| 21> H 	 35.3988 	 -25.244 	 -131.447
| 22> H 	 35.7813 	 -25.2745 	 -133.106
| 23> S 	 31.6688 	 -33.3562 	 -130.407
| 24> C 	 32.2385 	 -34.157 	 -128.961
| 25> C 	 32.9495 	 -33.2942 	 -128.17
| 26> C 	 32.8081 	 -31.8898 	 -128.562
| 27> C 	 32.2352 	 -31.743 	 -129.824
| 28> H 	 33.4147 	 -33.6064 	 -127.201
| 29> C 	 33.3112 	 -30.8122 	 -127.687
| 30> H 	 33.2066 	 -31.1607 	 -126.677
| 31> H 	 32.6081 	 -30.0633 	 -127.916
| 32> C 	 34.7783 	 -30.5076 	 -127.919
| 33> H 	 35.0018 	 -30.6216 	 -128.972
| 34> H 	 35.407 	 -31.3326 	 -127.548
| 35> C 	 35.2226 	 -29.2371 	 -127.283
| 36> H 	 36.2097 	 -28.8748 	 -127.471
| 37> H 	 35.2078 	 -29.2621 	 -126.211
| 38> H 	 34.7344 	 -28.2567 	 -127.466
| 39> H 	 31.3638 	 -28.6503 	 -133.577
| 40> H 	 32.1598 	 -35.2597 	 -128.748
| 41> *
| 42>
| 43>                          ****END OF INPUT****

CARTESIAN COORDINATES (ANGSTROEM)
---------------------------------
  S     31.068300  -30.707300  -132.204000
  C     31.690300  -29.101400  -132.704000
  C     32.492200  -28.455400  -131.716000
  C     32.686700  -29.339400  -130.618000
  C     32.070800  -30.585900  -130.757000
  H     33.262200  -29.152500  -129.717000
  C     33.100700  -27.087100  -131.669000
  H     33.318800  -26.858900  -130.628000
  H     32.361100  -26.409600  -131.962000
  C     34.292200  -26.834600  -132.593000
  H     34.980600  -27.633800  -132.328000
  H     34.047500  -27.076100  -133.615000
  C     34.999600  -25.425900  -132.405000
  H     34.152700  -24.685300  -132.590000
  H     35.398800  -25.244000  -131.447000
  H     35.781300  -25.274500  -133.106000
  S     31.668800  -33.356200  -130.407000
  C     32.238500  -34.157000  -128.961000
  C     32.949500  -33.294200  -128.170000
  C     32.808100  -31.889800  -128.562000
  C     32.235200  -31.743000  -129.824000
  H     33.414700  -33.606400  -127.201000
  C     33.311200  -30.812200  -127.687000
  H     33.206600  -31.160700  -126.677000
  H     32.608100  -30.063300  -127.916000
  C     34.778300  -30.507600  -127.919000
  H     35.001800  -30.621600  -128.972000
  H     35.407000  -31.332600  -127.548000
  C     35.222600  -29.237100  -127.283000
  H     36.209700  -28.874800  -127.471000
  H     35.207800  -29.262100  -126.211000
  H     34.734400  -28.256700  -127.466000
  H     31.363800  -28.650300  -133.577000
  H     32.159800  -35.259700  -128.748000

 Total Charge           Charge          ....    0
 Multiplicity           Mult            ....    1
 Number of Electrons    NEL             ....  134
 Basis Dimension        Dim             ....  322

ORBITAL ENERGIES
----------------

  NO   OCC          E(Eh)            E(eV)
   0   2.0000     -88.973550     -2421.0934
   1   2.0000     -88.962644     -2420.7966
   2   2.0000     -10.336887      -281.2810
   3   2.0000     -10.334132      -281.2060
   4   2.0000     -10.322144      -280.8798
   5   2.0000     -10.318280      -280.7747
   6   2.0000     -10.308541      -280.5097
   7   2.0000     -10.303132      -280.3625
   8   2.0000     -10.297878      -280.2195
   9   2.0000     -10.294577      -280.1297
  10   2.0000     -10.289785      -279.9993
  11   2.0000     -10.288667      -279.9689
  12   2.0000     -10.288394      -279.9614
  13   2.0000     -10.284356      -279.8516
  14   2.0000     -10.284184      -279.8469
  15   2.0000     -10.276897      -279.6486
  16   2.0000      -8.086912      -220.0561
  17   2.0000      -8.076765      -219.7800
  18   2.0000      -6.045439      -164.5048
  19   2.0000      -6.041792      -164.4055
  20   2.0000      -6.037571      -164.2907
  21   2.0000      -6.035593      -164.2368
  22   2.0000      -6.031387      -164.1224
  23   2.0000      -6.027212      -164.0088
  24   2.0000      -0.998565       -27.1723
  25   2.0000      -0.977161       -26.5899
  26   2.0000      -0.921676       -25.0801
  27   2.0000      -0.912460       -24.8293
  28   2.0000      -0.861993       -23.4560
  29   2.0000      -0.856272       -23.3004
  30   2.0000      -0.846189       -23.0260
  31   2.0000      -0.811885       -22.0925
  32   2.0000      -0.786309       -21.3965
  33   2.0000      -0.775267       -21.0961
  34   2.0000      -0.717793       -19.5321
  35   2.0000      -0.711344       -19.3567
  36   2.0000      -0.692871       -18.8540
  37   2.0000      -0.663737       -18.0612
  38   2.0000      -0.640804       -17.4372
  39   2.0000      -0.620863       -16.8945
  40   2.0000      -0.594006       -16.1637
  41   2.0000      -0.571844       -15.5607
  42   2.0000      -0.565071       -15.3764
  43   2.0000      -0.555965       -15.1286
  44   2.0000      -0.530919       -14.4470
  45   2.0000      -0.528798       -14.3893
  46   2.0000      -0.520248       -14.1567
  47   2.0000      -0.513998       -13.9866
  48   2.0000      -0.501238       -13.6394
  49   2.0000      -0.499349       -13.5880
  50   2.0000      -0.493484       -13.4284
  51   2.0000      -0.484670       -13.1885
  52   2.0000      -0.472030       -12.8446
  53   2.0000      -0.468790       -12.7564
  54   2.0000      -0.457868       -12.4592
  55   2.0000      -0.453337       -12.3359
  56   2.0000      -0.445072       -12.1110
  57   2.0000      -0.442982       -12.0541
  58   2.0000      -0.436465       -11.8768
  59   2.0000      -0.431059       -11.7297
  60   2.0000      -0.418704       -11.3935
  61   2.0000      -0.414454       -11.2779
  62   2.0000      -0.411803       -11.2057
  63   2.0000      -0.357140        -9.7183
  64   2.0000      -0.336669        -9.1612
  65   2.0000      -0.325386        -8.8542
  66   2.0000      -0.279251        -7.5988
  67   0.0000       0.016525         0.4497
  68   0.0000       0.081994         2.2312
  69   0.0000       0.085358         2.3227
  70   0.0000       0.120076         3.2674
  71   0.0000       0.127908         3.4806

MULLIKEN ATOMIC CHARGES
-----------------------
   0 S :    0.112025
   1 C :   -0.102938
   2 C :   -0.069103
   3 C :   -0.024920
   4 C :   -0.103857
   5 H :    0.002295
   6 C :    0.106133
   7 H :    0.018453
   8 H :    0.009660
   9 C :   -0.081229
  10 H :    0.021403
  11 H :    0.026466
  12 C :   -0.029573
  13 H :    0.034994
  14 H :    0.027285
  15 H :    0.035985
  16 S :    0.073436
  17 C :   -0.097093
  18 C :   -0.034107
  19 C :   -0.138917
  20 C :   -0.096540
  21 H :    0.033899
  22 C :    0.092804
  23 H :    0.015949
  24 H :    0.027284
  25 C :   -0.043966
  26 H :    0.031640
  27 H :    0.024239
  28 C :   -0.023830
  29 H :    0.015667
  30 H :    0.017047
  31 H :    0.020033
  32 H :    0.018984
  33 H :    0.080392
Sum of atomic charges:    0.0000000

LOEWDIN ATOMIC CHARGES
----------------------
   0 S :    0.389159
   1 C :   -0.175553
   2 C :   -0.047076
   3 C :   -0.069245
   4 C :   -0.179935
   5 H :    0.032046
   6 C :   -0.029182
   7 H :    0.031759
   8 H :    0.023362
   9 C :   -0.036591
  10 H :    0.021610
  11 H :    0.022592
  12 C :   -0.058290
  13 H :    0.033044
  14 H :    0.018790
  15 H :    0.023433
  16 S :    0.367486
  17 C :   -0.190040
  18 C :   -0.080884
  19 C :   -0.055918
  20 C :   -0.176745
  21 H :    0.036832
  22 C :   -0.029466
  23 H :    0.031290
  24 H :    0.027891
  25 C :   -0.043081
  26 H :    0.025778
  27 H :    0.034342
  28 C :   -0.078215
  29 H :    0.025087
  30 H :    0.024927
  31 H :    0.027957
  32 H :    0.007857
  33 H :    0.044980

  Mayer bond orders larger than 0.100000
B(  0-S ,  1-C ) :   1.1337 B(  0-S ,  4-C ) :   1.1438 B(  1-C ,  2-C ) :   1.5837
B(  1-C ,  4-C ) :   0.1025 B(  1-C , 32-H ) :   0.9785 B(  2-C ,  3-C ) :   1.2525
B(  2-C ,  6-C ) :   1.0262 B(  3-C ,  4-C ) :   1.5663 B(  3-C ,  5-H ) :   0.9838
B(  4-C , 20-C ) :   1.0675 B(  6-C ,  7-H ) :   0.9423 B(  6-C ,  8-H ) :   0.9216
B(  6-C ,  9-C ) :   1.0589 B(  9-C , 10-H ) :   0.9560 B(  9-C , 11-H ) :   0.9583
B(  9-C , 12-C ) :   1.0695 B( 12-C , 13-H ) :   0.9768 B( 12-C , 14-H ) :   0.9776
B( 12-C , 15-H ) :   0.9767 B( 16-S , 17-C ) :   1.1415 B( 16-S , 20-C ) :   1.1052
B( 17-C , 18-C ) :   1.6414 B( 17-C , 33-H ) :   0.9585 B( 18-C , 19-C ) :   1.2229
B( 18-C , 21-H ) :   0.9747 B( 19-C , 20-C ) :   1.6166 B( 19-C , 22-C ) :   1.0466
B( 22-C , 23-H ) :   0.9168 B( 22-C , 24-H ) :   0.9394 B( 22-C , 25-C ) :   1.0585
B( 25-C , 26-H ) :   0.9612 B( 25-C , 27-H ) :   0.9401 B( 25-C , 28-C ) :   1.0742
B( 28-C , 29-H ) :   0.9688 B( 28-C , 30-H ) :   0.9680 B( 28-C , 31-H ) :   0.9735

Dispersion correction           -0.014168761
FINAL SINGLE POINT ENERGY     -1339.861774347934

DIPOLE MOMENT
-------------
                                X             Y             Z
Electronic contribution:    -20.48259     -25.06864      -8.42850
Nuclear contribution   :     21.00784      25.54927       8.85648
                        -----------------------------------------
Total Dipole Moment    :      0.52525       0.48063       0.42798
                        -----------------------------------------
Magnitude (a.u.)       :      0.83070
Magnitude (Debye)      :      2.11147

Rotational constants in cm-1:     0.018423     0.008951     0.006278
Rotational constants in MHz :   552.298085   268.343769   188.199906

                             ****ORCA TERMINATED NORMALLY****
TOTAL RUN TIME: 0 days 0 hours 0 minutes 21 seconds 581 msec
