                         Program Version 4.2.1 -  RELEASE  -
|  1> ! wB97X-D3 SP def2-SVP
|  2> %pal
|  3> nprocs 24
|  4> end
|  5>
|  6> * xyz 0 1
|  7> S 	 -54.1865 	 0.12961 	 -25.4315
|  8> C 	 -54.4428 	 1.84197 	 -25.4761
|  9> C 	 -54.0406 	 2.31437 	 -26.7124
| 10> C 	 -53.7292 	 1.25405 	 -27.6106
| 11> C 	 -53.9006 	 -0.00307909 	 -27.1047
| 12> H 	 -53.409 	 1.37256 	 -28.6532
| 13> C 	 -54.0752 	 3.75499 	 -27.0552
| 14> H 	 -53.7018 	 3.92032 	 -28.054
| 15> H 	 -53.4533 	 4.3165 	 -26.427
| 16> C 	 -55.5294 	 4.24011 	 -26.9886
| 17> H 	 -56.2628 	 3.62798 	 -27.5477
| 18> H 	 -55.8958 	 4.06179 	 -25.98
| 19> C 	 -55.7109 	 5.72126 	 -27.4497
| 20> H 	 -56.7834 	 6.00065 	 -27.4706
| 21> H 	 -55.1387 	 6.4957 	 -26.9285
| 22> H 	 -55.2847 	 5.6411 	 -28.378
| 23> S 	 -52.5534 	 -2.44734 	 -26.5902
| 24> C 	 -52.1817 	 -3.42262 	 -27.9705
| 25> C 	 -52.8786 	 -3.06259 	 -29.0805
| 26> C 	 -53.6667 	 -1.84342 	 -28.9345
| 27> C 	 -53.4294 	 -1.28257 	 -27.6323
| 28> H 	 -52.7248 	 -3.65844 	 -29.994
| 29> C 	 -54.4341 	 -1.18893 	 -30.082
| 30> H 	 -54.2906 	 -1.5961 	 -31.116
| 31> H 	 -54.0421 	 -0.137437 	 -30.2333
| 32> C 	 -55.9299 	 -0.95436 	 -29.8775
| 33> H 	 -56.1932 	 -0.383897 	 -30.8023
| 34> H 	 -56.1092 	 -0.376487 	 -28.9026
| 35> C 	 -56.9962 	 -2.09726 	 -29.7213
| 36> H 	 -57.9817 	 -1.68605 	 -29.6927
| 37> H 	 -56.775 	 -2.60642 	 -28.7762
| 38> H 	 -56.8724 	 -2.78661 	 -30.5793
| 39> H 	 -54.9289 	 2.41524 	 -24.66
| 40> H 	 -51.4929 	 -4.21658 	 -28.0121
| 41> *
| 42>
| 43>                          ****END OF INPUT****

CARTESIAN COORDINATES (ANGSTROEM)
---------------------------------
  S    -54.186500    0.129610  -25.431500
  C    -54.442800    1.841970  -25.476100
  C    -54.040600    2.314370  -26.712400
  C    -53.729200    1.254050  -27.610600
  C    -53.900600   -0.003079  -27.104700
  H    -53.409000    1.372560  -28.653200
  C    -54.075200    3.754990  -27.055200
  H    -53.701800    3.920320  -28.054000
  H    -53.453300    4.316500  -26.427000
  C    -55.529400    4.240110  -26.988600
  H    -56.262800    3.627980  -27.547700
  H    -55.895800    4.061790  -25.980000
  C    -55.710900    5.721260  -27.449700
  H    -56.783400    6.000650  -27.470600
  H    -55.138700    6.495700  -26.928500
  H    -55.284700    5.641100  -28.378000
  S    -52.553400   -2.447340  -26.590200
  C    -52.181700   -3.422620  -27.970500
  C    -52.878600   -3.062590  -29.080500
  C    -53.666700   -1.843420  -28.934500
  C    -53.429400   -1.282570  -27.632300
  H    -52.724800   -3.658440  -29.994000
  C    -54.434100   -1.188930  -30.082000
  H    -54.290600   -1.596100  -31.116000
  H    -54.042100   -0.137437  -30.233300
  C    -55.929900   -0.954360  -29.877500
  H    -56.193200   -0.383897  -30.802300
  H    -56.109200   -0.376487  -28.902600
  C    -56.996200   -2.097260  -29.721300
  H    -57.981700   -1.686050  -29.692700
  H    -56.775000   -2.606420  -28.776200
  H    -56.872400   -2.786610  -30.579300
  H    -54.928900    2.415240  -24.660000
  H    -51.492900   -4.216580  -28.012100

 Total Charge           Charge          ....    0
 Multiplicity           Mult            ....    1
 Number of Electrons    NEL             ....  134
 Basis Dimension        Dim             ....  322

ORBITAL ENERGIES
----------------

  NO   OCC          E(Eh)            E(eV)
   0   2.0000     -88.969251     -2420.9764
   1   2.0000     -88.961512     -2420.7658
   2   2.0000     -10.336871      -281.2806
   3   2.0000     -10.325488      -280.9708
   4   2.0000     -10.314281      -280.6659
   5   2.0000     -10.314079      -280.6604
   6   2.0000     -10.310285      -280.5571
   7   2.0000     -10.303645      -280.3764
   8   2.0000     -10.299732      -280.2699
   9   2.0000     -10.295272      -280.1486
  10   2.0000     -10.293609      -280.1033
  11   2.0000     -10.290720      -280.0247
  12   2.0000     -10.289121      -279.9812
  13   2.0000     -10.285974      -279.8956
  14   2.0000     -10.275588      -279.6130
  15   2.0000     -10.274788      -279.5912
  16   2.0000      -8.083459      -219.9621
  17   2.0000      -8.077840      -219.8092
  18   2.0000      -6.042104      -164.4140
  19   2.0000      -6.038167      -164.3069
  20   2.0000      -6.036248      -164.2547
  21   2.0000      -6.033981      -164.1930
  22   2.0000      -6.032110      -164.1421
  23   2.0000      -6.028625      -164.0472
  24   2.0000      -1.013468       -27.5779
  25   2.0000      -0.984184       -26.7810
  26   2.0000      -0.919441       -25.0193
  27   2.0000      -0.901915       -24.5424
  28   2.0000      -0.868761       -23.6402
  29   2.0000      -0.849274       -23.1099
  30   2.0000      -0.841322       -22.8935
  31   2.0000      -0.817498       -22.2453
  32   2.0000      -0.787615       -21.4321
  33   2.0000      -0.773705       -21.0536
  34   2.0000      -0.710333       -19.3291
  35   2.0000      -0.703297       -19.1377
  36   2.0000      -0.675013       -18.3680
  37   2.0000      -0.658295       -17.9131
  38   2.0000      -0.640496       -17.4288
  39   2.0000      -0.620856       -16.8943
  40   2.0000      -0.595372       -16.2009
  41   2.0000      -0.574165       -15.6238
  42   2.0000      -0.559483       -15.2243
  43   2.0000      -0.548368       -14.9219
  44   2.0000      -0.537898       -14.6370
  45   2.0000      -0.529071       -14.3968
  46   2.0000      -0.518898       -14.1199
  47   2.0000      -0.516014       -14.0415
  48   2.0000      -0.503399       -13.6982
  49   2.0000      -0.502334       -13.6692
  50   2.0000      -0.491088       -13.3632
  51   2.0000      -0.481236       -13.0951
  52   2.0000      -0.476552       -12.9676
  53   2.0000      -0.468468       -12.7477
  54   2.0000      -0.453873       -12.3505
  55   2.0000      -0.450171       -12.2498
  56   2.0000      -0.447790       -12.1850
  57   2.0000      -0.440321       -11.9817
  58   2.0000      -0.433240       -11.7891
  59   2.0000      -0.422272       -11.4906
  60   2.0000      -0.417617       -11.3639
  61   2.0000      -0.413914       -11.2632
  62   2.0000      -0.393464       -10.7067
  63   2.0000      -0.355275        -9.6675
  64   2.0000      -0.333657        -9.0793
  65   2.0000      -0.326157        -8.8752
  66   2.0000      -0.283933        -7.7262
  67   0.0000       0.022797         0.6203
  68   0.0000       0.067645         1.8407
  69   0.0000       0.104970         2.8564
  70   0.0000       0.120124         3.2688
  71   0.0000       0.132429         3.6036

MULLIKEN ATOMIC CHARGES
-----------------------
   0 S :    0.089377
   1 C :   -0.149496
   2 C :   -0.091371
   3 C :    0.009564
   4 C :   -0.123471
   5 H :    0.014866
   6 C :    0.136608
   7 H :    0.005342
   8 H :    0.021979
   9 C :   -0.125474
  10 H :    0.033998
  11 H :    0.013946
  12 C :   -0.011369
  13 H :    0.044732
  14 H :    0.030732
  15 H :    0.008369
  16 S :    0.113560
  17 C :   -0.066987
  18 C :   -0.043821
  19 C :   -0.008516
  20 C :   -0.152122
  21 H :    0.026549
  22 C :    0.041888
  23 H :    0.028766
  24 H :    0.037733
  25 C :   -0.155162
  26 H :    0.032194
  27 H :    0.055617
  28 C :   -0.034310
  29 H :    0.037848
  30 H :    0.042775
  31 H :    0.025964
  32 H :    0.073456
  33 H :    0.036237
Sum of atomic charges:   -0.0000000

LOEWDIN ATOMIC CHARGES
----------------------
   0 S :    0.427741
   1 C :   -0.207305
   2 C :   -0.060412
   3 C :   -0.068357
   4 C :   -0.207298
   5 H :    0.032010
   6 C :   -0.024355
   7 H :    0.025474
   8 H :    0.026975
   9 C :   -0.035995
  10 H :    0.029924
  11 H :    0.014112
  12 C :   -0.062710
  13 H :    0.032387
  14 H :    0.025166
  15 H :    0.013165
  16 S :    0.394024
  17 C :   -0.186348
  18 C :   -0.072301
  19 C :   -0.053851
  20 C :   -0.183186
  21 H :    0.036002
  22 C :   -0.046314
  23 H :    0.035141
  24 H :    0.041743
  25 C :   -0.053291
  26 H :    0.025453
  27 H :    0.033245
  28 C :   -0.065488
  29 H :    0.024398
  30 H :    0.028105
  31 H :    0.021773
  32 H :    0.037747
  33 H :    0.022627

  Mayer bond orders larger than 0.100000
B(  0-S ,  1-C ) :   1.1534 B(  0-S ,  4-C ) :   1.1649 B(  1-C ,  2-C ) :   1.5544
B(  1-C , 32-H ) :   0.9702 B(  2-C ,  3-C ) :   1.2848 B(  2-C ,  6-C ) :   1.0359
B(  3-C ,  4-C ) :   1.5301 B(  3-C ,  5-H ) :   0.9910 B(  4-C , 20-C ) :   1.0651
B(  6-C ,  7-H ) :   0.9385 B(  6-C ,  8-H ) :   0.9284 B(  6-C ,  9-C ) :   1.0552
B(  9-C , 10-H ) :   0.9574 B(  9-C , 11-H ) :   0.9571 B(  9-C , 12-C ) :   1.0663
B( 12-C , 13-H ) :   0.9751 B( 12-C , 14-H ) :   0.9760 B( 12-C , 15-H ) :   0.9754
B( 16-S , 17-C ) :   1.1353 B( 16-S , 20-C ) :   1.1338 B( 17-C , 18-C ) :   1.6493
B( 17-C , 33-H ) :   0.9697 B( 18-C , 19-C ) :   1.2183 B( 18-C , 21-H ) :   0.9863
B( 19-C , 20-C ) :   1.5760 B( 19-C , 22-C ) :   1.0304 B( 22-C , 23-H ) :   0.9419
B( 22-C , 24-H ) :   0.9345 B( 22-C , 25-C ) :   1.0637 B( 25-C , 26-H ) :   0.9559
B( 25-C , 27-H ) :   0.9569 B( 25-C , 28-C ) :   1.0722 B( 28-C , 29-H ) :   0.9748
B( 28-C , 30-H ) :   0.9762 B( 28-C , 31-H ) :   0.9761

Dispersion correction           -0.014155012
FINAL SINGLE POINT ENERGY     -1339.862460874654

DIPOLE MOMENT
-------------
                                X             Y             Z
Electronic contribution:     15.53745     -18.15299      15.54608
Nuclear contribution   :    -15.59410      18.56554     -16.07631
                        -----------------------------------------
Total Dipole Moment    :     -0.05664       0.41256      -0.53023
                        -----------------------------------------
Magnitude (a.u.)       :      0.67421
Magnitude (Debye)      :      1.71369

Rotational constants in cm-1:     0.020757     0.008193     0.006652
Rotational constants in MHz :   622.291946   245.622585   199.435691

                             ****ORCA TERMINATED NORMALLY****
TOTAL RUN TIME: 0 days 0 hours 0 minutes 21 seconds 609 msec
