                         Program Version 4.2.1 -  RELEASE  -
|  1> ! wB97X-D3 SP def2-SVP
|  2> %pal
|  3> nprocs 24
|  4> end
|  5>
|  6> * xyz 0 1
|  7> S 	 -96.4379 	 -28.3773 	 -59.8242
|  8> C 	 -97.8102 	 -27.3947 	 -59.1432
|  9> C 	 -97.6562 	 -26.0648 	 -59.5293
| 10> C 	 -96.6237 	 -25.8641 	 -60.5
| 11> C 	 -95.8817 	 -26.9834 	 -60.7511
| 12> H 	 -96.4714 	 -24.9379 	 -61.0071
| 13> C 	 -98.6239 	 -24.9486 	 -59.1266
| 14> H 	 -98.1953 	 -24.134 	 -58.5274
| 15> H 	 -99.4233 	 -25.2742 	 -58.5228
| 16> C 	 -99.3069 	 -24.2218 	 -60.3011
| 17> H 	 -99.9288 	 -23.4891 	 -59.7794
| 18> H 	 -98.5414 	 -23.6323 	 -60.7836
| 19> C 	 -100.089 	 -25.1593 	 -61.1331
| 20> H 	 -101.056 	 -25.5002 	 -60.7404
| 21> H 	 -100.191 	 -24.8423 	 -62.194
| 22> H 	 -99.6734 	 -26.1407 	 -61.296
| 23> S 	 -94.8178 	 -26.8351 	 -63.3156
| 24> C 	 -93.2741 	 -27.6387 	 -63.7762
| 25> C 	 -92.7152 	 -28.0844 	 -62.6012
| 26> C 	 -93.46 	 -27.7928 	 -61.3955
| 27> C 	 -94.6965 	 -27.1654 	 -61.5898
| 28> H 	 -91.7486 	 -28.6103 	 -62.6081
| 29> C 	 -93.0599 	 -28.4447 	 -60.0692
| 30> H 	 -93.3097 	 -29.5249 	 -60.1324
| 31> H 	 -93.7384 	 -28.0411 	 -59.3088
| 32> C 	 -91.6461 	 -28.2499 	 -59.596
| 33> H 	 -91.5027 	 -27.1941 	 -59.5764
| 34> H 	 -90.8958 	 -28.718 	 -60.2036
| 35> C 	 -91.527 	 -28.7237 	 -58.2013
| 36> H 	 -92.1203 	 -28.1351 	 -57.5129
| 37> H 	 -90.4846 	 -28.6332 	 -57.9054
| 38> H 	 -91.834 	 -29.7812 	 -58.0615
| 39> H 	 -98.5912 	 -27.6413 	 -58.3719
| 40> H 	 -92.8922 	 -27.8405 	 -64.8081
| 41> *
| 42>
| 43>                          ****END OF INPUT****

CARTESIAN COORDINATES (ANGSTROEM)
---------------------------------
  S    -96.437900  -28.377300  -59.824200
  C    -97.810200  -27.394700  -59.143200
  C    -97.656200  -26.064800  -59.529300
  C    -96.623700  -25.864100  -60.500000
  C    -95.881700  -26.983400  -60.751100
  H    -96.471400  -24.937900  -61.007100
  C    -98.623900  -24.948600  -59.126600
  H    -98.195300  -24.134000  -58.527400
  H    -99.423300  -25.274200  -58.522800
  C    -99.306900  -24.221800  -60.301100
  H    -99.928800  -23.489100  -59.779400
  H    -98.541400  -23.632300  -60.783600
  C    -100.089000  -25.159300  -61.133100
  H    -101.056000  -25.500200  -60.740400
  H    -100.191000  -24.842300  -62.194000
  H    -99.673400  -26.140700  -61.296000
  S    -94.817800  -26.835100  -63.315600
  C    -93.274100  -27.638700  -63.776200
  C    -92.715200  -28.084400  -62.601200
  C    -93.460000  -27.792800  -61.395500
  C    -94.696500  -27.165400  -61.589800
  H    -91.748600  -28.610300  -62.608100
  C    -93.059900  -28.444700  -60.069200
  H    -93.309700  -29.524900  -60.132400
  H    -93.738400  -28.041100  -59.308800
  C    -91.646100  -28.249900  -59.596000
  H    -91.502700  -27.194100  -59.576400
  H    -90.895800  -28.718000  -60.203600
  C    -91.527000  -28.723700  -58.201300
  H    -92.120300  -28.135100  -57.512900
  H    -90.484600  -28.633200  -57.905400
  H    -91.834000  -29.781200  -58.061500
  H    -98.591200  -27.641300  -58.371900
  H    -92.892200  -27.840500  -64.808100

 Total Charge           Charge          ....    0
 Multiplicity           Mult            ....    1
 Number of Electrons    NEL             ....  134
 Basis Dimension        Dim             ....  322

ORBITAL ENERGIES
----------------

  NO   OCC          E(Eh)            E(eV)
   0   2.0000     -88.971660     -2421.0419
   1   2.0000     -88.961336     -2420.7610
   2   2.0000     -10.336911      -281.2816
   3   2.0000     -10.331653      -281.1386
   4   2.0000     -10.327656      -281.0298
   5   2.0000     -10.325372      -280.9676
   6   2.0000     -10.306082      -280.4428
   7   2.0000     -10.305686      -280.4320
   8   2.0000     -10.298233      -280.2292
   9   2.0000     -10.296311      -280.1769
  10   2.0000     -10.289190      -279.9831
  11   2.0000     -10.286184      -279.9013
  12   2.0000     -10.284509      -279.8557
  13   2.0000     -10.273857      -279.5659
  14   2.0000     -10.271373      -279.4983
  15   2.0000     -10.271182      -279.4931
  16   2.0000      -8.084454      -219.9892
  17   2.0000      -8.075258      -219.7389
  18   2.0000      -6.043235      -164.4448
  19   2.0000      -6.039241      -164.3361
  20   2.0000      -6.035000      -164.2207
  21   2.0000      -6.033993      -164.1933
  22   2.0000      -6.029735      -164.0774
  23   2.0000      -6.025928      -163.9738
  24   2.0000      -1.001930       -27.2639
  25   2.0000      -0.977771       -26.6065
  26   2.0000      -0.917399       -24.9637
  27   2.0000      -0.916250       -24.9324
  28   2.0000      -0.869594       -23.6629
  29   2.0000      -0.848327       -23.0842
  30   2.0000      -0.840723       -22.8772
  31   2.0000      -0.817270       -22.2390
  32   2.0000      -0.785066       -21.3627
  33   2.0000      -0.766862       -20.8674
  34   2.0000      -0.710846       -19.3431
  35   2.0000      -0.699418       -19.0321
  36   2.0000      -0.690969       -18.8022
  37   2.0000      -0.658852       -17.9283
  38   2.0000      -0.632431       -17.2093
  39   2.0000      -0.626313       -17.0428
  40   2.0000      -0.594589       -16.1796
  41   2.0000      -0.576453       -15.6861
  42   2.0000      -0.569316       -15.4919
  43   2.0000      -0.555666       -15.1205
  44   2.0000      -0.538670       -14.6580
  45   2.0000      -0.526680       -14.3317
  46   2.0000      -0.518262       -14.1026
  47   2.0000      -0.512343       -13.9416
  48   2.0000      -0.508239       -13.8299
  49   2.0000      -0.495812       -13.4917
  50   2.0000      -0.488093       -13.2817
  51   2.0000      -0.485227       -13.2037
  52   2.0000      -0.470207       -12.7950
  53   2.0000      -0.461070       -12.5464
  54   2.0000      -0.457895       -12.4600
  55   2.0000      -0.451163       -12.2768
  56   2.0000      -0.438715       -11.9380
  57   2.0000      -0.435247       -11.8437
  58   2.0000      -0.427728       -11.6391
  59   2.0000      -0.421787       -11.4774
  60   2.0000      -0.421096       -11.4586
  61   2.0000      -0.408179       -11.1071
  62   2.0000      -0.403506       -10.9800
  63   2.0000      -0.348709        -9.4888
  64   2.0000      -0.333943        -9.0870
  65   2.0000      -0.323073        -8.7913
  66   2.0000      -0.298234        -8.1154
  67   0.0000       0.027334         0.7438
  68   0.0000       0.062015         1.6875
  69   0.0000       0.102857         2.7989
  70   0.0000       0.119325         3.2470
  71   0.0000       0.123662         3.3650

MULLIKEN ATOMIC CHARGES
-----------------------
   0 S :    0.104634
   1 C :   -0.126547
   2 C :   -0.089934
   3 C :    0.049356
   4 C :   -0.139608
   5 H :    0.006651
   6 C :    0.052597
   7 H :    0.033818
   8 H :    0.000235
   9 C :   -0.060534
  10 H :    0.028333
  11 H :    0.027346
  12 C :   -0.043639
  13 H :    0.023627
  14 H :    0.034789
  15 H :    0.027227
  16 S :    0.077054
  17 C :   -0.108314
  18 C :   -0.035169
  19 C :   -0.045267
  20 C :   -0.121071
  21 H :    0.033188
  22 C :    0.001321
  23 H :    0.042889
  24 H :    0.022742
  25 C :   -0.035244
  26 H :    0.021875
  27 H :    0.024976
  28 C :   -0.039702
  29 H :    0.026427
  30 H :    0.026763
  31 H :    0.027321
  32 H :    0.068222
  33 H :    0.083636
Sum of atomic charges:    0.0000000

LOEWDIN ATOMIC CHARGES
----------------------
   0 S :    0.390622
   1 C :   -0.191613
   2 C :   -0.058358
   3 C :   -0.056068
   4 C :   -0.178009
   5 H :    0.030319
   6 C :   -0.030368
   7 H :    0.033732
   8 H :    0.019324
   9 C :   -0.040855
  10 H :    0.029142
  11 H :    0.020231
  12 C :   -0.079775
  13 H :    0.029477
  14 H :    0.033142
  15 H :    0.027715
  16 S :    0.378452
  17 C :   -0.176826
  18 C :   -0.076211
  19 C :   -0.062967
  20 C :   -0.199315
  21 H :    0.034790
  22 C :   -0.041606
  23 H :    0.032862
  24 H :    0.022548
  25 C :   -0.041601
  26 H :    0.026249
  27 H :    0.019657
  28 C :   -0.060216
  29 H :    0.023226
  30 H :    0.025196
  31 H :    0.025924
  32 H :    0.044000
  33 H :    0.047174

  Mayer bond orders larger than 0.100000
B(  0-S ,  1-C ) :   1.1090 B(  0-S ,  4-C ) :   1.1350 B(  1-C ,  2-C ) :   1.6438
B(  1-C , 32-H ) :   0.9564 B(  2-C ,  3-C ) :   1.2085 B(  2-C ,  6-C ) :   1.0293
B(  3-C ,  4-C ) :   1.6012 B(  3-C ,  5-H ) :   1.0001 B(  4-C , 20-C ) :   1.0218
B(  6-C ,  7-H ) :   0.9384 B(  6-C ,  8-H ) :   0.9464 B(  6-C ,  9-C ) :   1.0751
B(  9-C , 10-H ) :   0.9537 B(  9-C , 11-H ) :   0.9563 B(  9-C , 12-C ) :   1.0717
B( 12-C , 13-H ) :   0.9695 B( 12-C , 14-H ) :   0.9718 B( 12-C , 15-H ) :   0.9718
B( 16-S , 17-C ) :   1.1409 B( 16-S , 20-C ) :   1.1283 B( 17-C , 18-C ) :   1.6102
B( 17-C , 33-H ) :   0.9638 B( 18-C , 19-C ) :   1.2387 B( 18-C , 21-H ) :   0.9845
B( 19-C , 20-C ) :   1.5831 B( 19-C , 22-C ) :   1.0427 B( 22-C , 23-H ) :   0.9359
B( 22-C , 24-H ) :   0.9339 B( 22-C , 25-C ) :   1.0733 B( 25-C , 26-H ) :   0.9490
B( 25-C , 27-H ) :   0.9487 B( 25-C , 28-C ) :   1.1075 B( 28-C , 29-H ) :   0.9712
B( 28-C , 30-H ) :   0.9710 B( 28-C , 31-H ) :   0.9700

Dispersion correction           -0.014192129
FINAL SINGLE POINT ENERGY     -1339.871847308064

DIPOLE MOMENT
-------------
                                X             Y             Z
Electronic contribution:      1.40076      -4.96288     -11.64971
Nuclear contribution   :     -1.34092       5.04772      11.91604
                        -----------------------------------------
Total Dipole Moment    :      0.05984       0.08484       0.26632
                        -----------------------------------------
Magnitude (a.u.)       :      0.28584
Magnitude (Debye)      :      0.72656

Rotational constants in cm-1:     0.021160     0.008130     0.006493
Rotational constants in MHz :   634.348920   243.731779   194.647024

                             ****ORCA TERMINATED NORMALLY****
TOTAL RUN TIME: 0 days 0 hours 0 minutes 20 seconds 254 msec
