                         Program Version 4.2.1 -  RELEASE  -
|  1> ! wB97X-D3 SP def2-SVP
|  2> %pal
|  3> nprocs 24
|  4> end
|  5>
|  6> * xyz 0 1
|  7> S 	 -109.519 	 53.9176 	 -85.6419
|  8> C 	 -108.009 	 53.0403 	 -85.5556
|  9> C 	 -107.24 	 53.0924 	 -86.7166
| 10> C 	 -108.049 	 53.6392 	 -87.7801
| 11> C 	 -109.265 	 54.1058 	 -87.3971
| 12> H 	 -107.809 	 53.6196 	 -88.851
| 13> C 	 -105.937 	 52.4654 	 -86.9428
| 14> H 	 -106.19 	 51.5588 	 -87.6132
| 15> H 	 -105.526 	 52.133 	 -86.0071
| 16> C 	 -104.88 	 53.3307 	 -87.577
| 17> H 	 -104.112 	 52.5555 	 -87.8741
| 18> H 	 -105.354 	 53.7611 	 -88.4472
| 19> C 	 -104.29 	 54.4721 	 -86.7437
| 20> H 	 -103.667 	 54.1144 	 -85.8887
| 21> H 	 -103.621 	 55.1287 	 -87.3184
| 22> H 	 -104.98 	 55.2594 	 -86.5039
| 23> S 	 -111.547 	 54.0802 	 -88.7685
| 24> C 	 -112.235 	 55.4641 	 -89.6468
| 25> C 	 -111.306 	 56.5227 	 -89.4572
| 26> C 	 -110.172 	 56.2229 	 -88.6642
| 27> C 	 -110.176 	 54.9183 	 -88.1624
| 28> H 	 -111.495 	 57.4754 	 -89.932
| 29> C 	 -109.07 	 57.1757 	 -88.4883
| 30> H 	 -108.586 	 57.0494 	 -87.5211
| 31> H 	 -109.488 	 58.2191 	 -88.4636
| 32> C 	 -107.962 	 57.1464 	 -89.546
| 33> H 	 -108.423 	 57.4042 	 -90.4496
| 34> H 	 -107.68 	 56.1087 	 -89.6963
| 35> C 	 -106.714 	 57.9991 	 -89.2155
| 36> H 	 -106.19 	 57.6409 	 -88.3206
| 37> H 	 -107.083 	 58.9878 	 -88.9814
| 38> H 	 -106.015 	 58.1851 	 -90.0761
| 39> H 	 -107.607 	 52.7074 	 -84.5812
| 40> H 	 -113.148 	 55.5698 	 -90.146
| 41> *
| 42>
| 43>                          ****END OF INPUT****

CARTESIAN COORDINATES (ANGSTROEM)
---------------------------------
  S    -109.519000   53.917600  -85.641900
  C    -108.009000   53.040300  -85.555600
  C    -107.240000   53.092400  -86.716600
  C    -108.049000   53.639200  -87.780100
  C    -109.265000   54.105800  -87.397100
  H    -107.809000   53.619600  -88.851000
  C    -105.937000   52.465400  -86.942800
  H    -106.190000   51.558800  -87.613200
  H    -105.526000   52.133000  -86.007100
  C    -104.880000   53.330700  -87.577000
  H    -104.112000   52.555500  -87.874100
  H    -105.354000   53.761100  -88.447200
  C    -104.290000   54.472100  -86.743700
  H    -103.667000   54.114400  -85.888700
  H    -103.621000   55.128700  -87.318400
  H    -104.980000   55.259400  -86.503900
  S    -111.547000   54.080200  -88.768500
  C    -112.235000   55.464100  -89.646800
  C    -111.306000   56.522700  -89.457200
  C    -110.172000   56.222900  -88.664200
  C    -110.176000   54.918300  -88.162400
  H    -111.495000   57.475400  -89.932000
  C    -109.070000   57.175700  -88.488300
  H    -108.586000   57.049400  -87.521100
  H    -109.488000   58.219100  -88.463600
  C    -107.962000   57.146400  -89.546000
  H    -108.423000   57.404200  -90.449600
  H    -107.680000   56.108700  -89.696300
  C    -106.714000   57.999100  -89.215500
  H    -106.190000   57.640900  -88.320600
  H    -107.083000   58.987800  -88.981400
  H    -106.015000   58.185100  -90.076100
  H    -107.607000   52.707400  -84.581200
  H    -113.148000   55.569800  -90.146000

 Total Charge           Charge          ....    0
 Multiplicity           Mult            ....    1
 Number of Electrons    NEL             ....  134
 Basis Dimension        Dim             ....  322

ORBITAL ENERGIES
----------------

  NO   OCC          E(Eh)            E(eV)
   0   2.0000     -88.965934     -2420.8861
   1   2.0000     -88.963644     -2420.8238
   2   2.0000     -10.327659      -281.0299
   3   2.0000     -10.322970      -280.9023
   4   2.0000     -10.319635      -280.8116
   5   2.0000     -10.317483      -280.7530
   6   2.0000     -10.301359      -280.3142
   7   2.0000     -10.300450      -280.2895
   8   2.0000     -10.297705      -280.2148
   9   2.0000     -10.295494      -280.1546
  10   2.0000     -10.293604      -280.1032
  11   2.0000     -10.291889      -280.0565
  12   2.0000     -10.286781      -279.9175
  13   2.0000     -10.283408      -279.8258
  14   2.0000     -10.282768      -279.8083
  15   2.0000     -10.279750      -279.7262
  16   2.0000      -8.080399      -219.8788
  17   2.0000      -8.078265      -219.8208
  18   2.0000      -6.038843      -164.3253
  19   2.0000      -6.036729      -164.2677
  20   2.0000      -6.035106      -164.2236
  21   2.0000      -6.032417      -164.1504
  22   2.0000      -6.031060      -164.1135
  23   2.0000      -6.029418      -164.0688
  24   2.0000      -1.007697       -27.4208
  25   2.0000      -0.983319       -26.7575
  26   2.0000      -0.920230       -25.0407
  27   2.0000      -0.910270       -24.7697
  28   2.0000      -0.870792       -23.6955
  29   2.0000      -0.848946       -23.1010
  30   2.0000      -0.848015       -23.0756
  31   2.0000      -0.816902       -22.2290
  32   2.0000      -0.784333       -21.3428
  33   2.0000      -0.770262       -20.9599
  34   2.0000      -0.711837       -19.3701
  35   2.0000      -0.701501       -19.0888
  36   2.0000      -0.691322       -18.8118
  37   2.0000      -0.666260       -18.1299
  38   2.0000      -0.642756       -17.4903
  39   2.0000      -0.625987       -17.0340
  40   2.0000      -0.596589       -16.2340
  41   2.0000      -0.570399       -15.5213
  42   2.0000      -0.563848       -15.3431
  43   2.0000      -0.554387       -15.0857
  44   2.0000      -0.541896       -14.7457
  45   2.0000      -0.523520       -14.2457
  46   2.0000      -0.516183       -14.0461
  47   2.0000      -0.513005       -13.9596
  48   2.0000      -0.511198       -13.9104
  49   2.0000      -0.498007       -13.5515
  50   2.0000      -0.487782       -13.2732
  51   2.0000      -0.478351       -13.0166
  52   2.0000      -0.472978       -12.8704
  53   2.0000      -0.467188       -12.7128
  54   2.0000      -0.459504       -12.5037
  55   2.0000      -0.450598       -12.2614
  56   2.0000      -0.444494       -12.0953
  57   2.0000      -0.439719       -11.9654
  58   2.0000      -0.430645       -11.7185
  59   2.0000      -0.425519       -11.5790
  60   2.0000      -0.423560       -11.5257
  61   2.0000      -0.410770       -11.1776
  62   2.0000      -0.410261       -11.1638
  63   2.0000      -0.338216        -9.2033
  64   2.0000      -0.328184        -8.9303
  65   2.0000      -0.318478        -8.6662
  66   2.0000      -0.308309        -8.3895
  67   0.0000       0.037560         1.0221
  68   0.0000       0.053364         1.4521
  69   0.0000       0.109126         2.9695
  70   0.0000       0.117035         3.1847
  71   0.0000       0.123597         3.3632

MULLIKEN ATOMIC CHARGES
-----------------------
   0 S :    0.113627
   1 C :   -0.119361
   2 C :   -0.092514
   3 C :    0.027118
   4 C :   -0.154825
   5 H :    0.033685
   6 C :    0.058738
   7 H :    0.060270
   8 H :    0.004731
   9 C :   -0.074623
  10 H :    0.042145
  11 H :    0.020485
  12 C :   -0.049575
  13 H :    0.043006
  14 H :    0.024366
  15 H :    0.032426
  16 S :    0.108661
  17 C :   -0.076842
  18 C :   -0.056235
  19 C :    0.001813
  20 C :   -0.188833
  21 H :    0.016954
  22 C :    0.043507
  23 H :    0.018266
  24 H :    0.020550
  25 C :   -0.022590
  26 H :    0.002154
  27 H :    0.008347
  28 C :   -0.048379
  29 H :    0.039114
  30 H :    0.017624
  31 H :    0.047406
  32 H :    0.055780
  33 H :    0.043006
Sum of atomic charges:    0.0000000

LOEWDIN ATOMIC CHARGES
----------------------
   0 S :    0.392473
   1 C :   -0.193752
   2 C :   -0.068770
   3 C :   -0.053998
   4 C :   -0.194781
   5 H :    0.036397
   6 C :   -0.039526
   7 H :    0.050284
   8 H :    0.024554
   9 C :   -0.043558
  10 H :    0.035251
  11 H :    0.020328
  12 C :   -0.075035
  13 H :    0.031138
  14 H :    0.031351
  15 H :    0.027021
  16 S :    0.426965
  17 C :   -0.180152
  18 C :   -0.068464
  19 C :   -0.062378
  20 C :   -0.214573
  21 H :    0.028418
  22 C :   -0.036047
  23 H :    0.028693
  24 H :    0.032469
  25 C :   -0.034441
  26 H :    0.014385
  27 H :    0.018013
  28 C :   -0.067803
  29 H :    0.027120
  30 H :    0.021605
  31 H :    0.034851
  32 H :    0.029507
  33 H :    0.022456

  Mayer bond orders larger than 0.100000
B(  0-S ,  1-C ) :   1.1397 B(  0-S ,  4-C ) :   1.1311 B(  1-C ,  2-C ) :   1.6262
B(  1-C , 32-H ) :   0.9589 B(  2-C ,  3-C ) :   1.1929 B(  2-C ,  6-C ) :   1.0428
B(  3-C ,  4-C ) :   1.6373 B(  3-C ,  5-H ) :   0.9830 B(  4-C , 20-C ) :   1.0042
B(  6-C ,  7-H ) :   0.9362 B(  6-C ,  8-H ) :   0.9318 B(  6-C ,  9-C ) :   1.0670
B(  9-C , 10-H ) :   0.9537 B(  9-C , 11-H ) :   0.9554 B(  9-C , 12-C ) :   1.0835
B( 12-C , 13-H ) :   0.9727 B( 12-C , 14-H ) :   0.9685 B( 12-C , 15-H ) :   0.9690
B( 16-S , 17-C ) :   1.1681 B( 16-S , 20-C ) :   1.1764 B( 17-C , 18-C ) :   1.5537
B( 17-C , 20-C ) :   0.1180 B( 17-C , 33-H ) :   0.9797 B( 18-C , 19-C ) :   1.2811
B( 18-C , 21-H ) :   0.9886 B( 19-C , 20-C ) :   1.5454 B( 19-C , 22-C ) :   1.0736
B( 22-C , 23-H ) :   0.9271 B( 22-C , 24-H ) :   0.9250 B( 22-C , 25-C ) :   1.0633
B( 25-C , 26-H ) :   0.9498 B( 25-C , 27-H ) :   0.9514 B( 25-C , 28-C ) :   1.0756
B( 28-C , 29-H ) :   0.9751 B( 28-C , 30-H ) :   0.9724 B( 28-C , 31-H ) :   0.9742

Dispersion correction           -0.015156726
FINAL SINGLE POINT ENERGY     -1339.877711710422

DIPOLE MOMENT
-------------
                                X             Y             Z
Electronic contribution:    -27.93863     -10.94403       5.64257
Nuclear contribution   :     28.54957      11.20807      -5.88244
                        -----------------------------------------
Total Dipole Moment    :      0.61094       0.26404      -0.23987
                        -----------------------------------------
Magnitude (a.u.)       :      0.70747
Magnitude (Debye)      :      1.79824

Rotational constants in cm-1:     0.017910     0.010053     0.007364
Rotational constants in MHz :   536.936288   301.381997   220.762168

                             ****ORCA TERMINATED NORMALLY****
TOTAL RUN TIME: 0 days 0 hours 0 minutes 21 seconds 434 msec
