                         Program Version 4.2.1 -  RELEASE  -
|  1> ! wB97X-D3 SP def2-SVP
|  2> %pal
|  3> nprocs 24
|  4> end
|  5>
|  6> * xyz 0 1
|  7> S 	 -49.5515 	 13.8131 	 -100.838
|  8> C 	 -50.7717 	 12.571 	 -101.203
|  9> C 	 -50.3333 	 11.7286 	 -102.254
| 10> C 	 -49.0187 	 12.1139 	 -102.721
| 11> C 	 -48.4713 	 13.1819 	 -102.036
| 12> H 	 -48.519 	 11.6311 	 -103.571
| 13> C 	 -51.0531 	 10.4683 	 -102.645
| 14> H 	 -51.6493 	 10.3168 	 -101.759
| 15> H 	 -50.3106 	 9.66047 	 -102.776
| 16> C 	 -52.013 	 10.6634 	 -103.909
| 17> H 	 -51.3638 	 10.7289 	 -104.851
| 18> H 	 -52.6178 	 9.75877 	 -104.058
| 19> C 	 -52.9943 	 11.8207 	 -103.846
| 20> H 	 -53.7148 	 11.6863 	 -104.604
| 21> H 	 -53.5382 	 11.8684 	 -102.87
| 22> H 	 -52.5085 	 12.825 	 -104.086
| 23> S 	 -46.9138 	 14.6853 	 -103.804
| 24> C 	 -45.2668 	 15.086 	 -103.232
| 25> C 	 -44.9204 	 14.4832 	 -102.052
| 26> C 	 -46.0406 	 13.8002 	 -101.454
| 27> C 	 -47.1671 	 13.773 	 -102.298
| 28> H 	 -44.0226 	 14.6462 	 -101.531
| 29> C 	 -45.9496 	 13.0537 	 -100.126
| 30> H 	 -45.0999 	 12.3945 	 -100.354
| 31> H 	 -46.78 	 12.3709 	 -99.9059
| 32> C 	 -45.6902 	 13.9192 	 -98.8826
| 33> H 	 -46.5111 	 14.6576 	 -98.6803
| 34> H 	 -44.7231 	 14.4065 	 -98.9509
| 35> C 	 -45.5012 	 12.9967 	 -97.626
| 36> H 	 -46.4162 	 12.6297 	 -97.1803
| 37> H 	 -44.9264 	 13.5032 	 -96.9411
| 38> H 	 -44.8995 	 12.1495 	 -97.8655
| 39> H 	 -51.7181 	 12.4664 	 -100.772
| 40> H 	 -44.4963 	 15.6753 	 -103.763
| 41> *
| 42>
| 43>                          ****END OF INPUT****

CARTESIAN COORDINATES (ANGSTROEM)
---------------------------------
  S    -49.551500   13.813100  -100.838000
  C    -50.771700   12.571000  -101.203000
  C    -50.333300   11.728600  -102.254000
  C    -49.018700   12.113900  -102.721000
  C    -48.471300   13.181900  -102.036000
  H    -48.519000   11.631100  -103.571000
  C    -51.053100   10.468300  -102.645000
  H    -51.649300   10.316800  -101.759000
  H    -50.310600    9.660470  -102.776000
  C    -52.013000   10.663400  -103.909000
  H    -51.363800   10.728900  -104.851000
  H    -52.617800    9.758770  -104.058000
  C    -52.994300   11.820700  -103.846000
  H    -53.714800   11.686300  -104.604000
  H    -53.538200   11.868400  -102.870000
  H    -52.508500   12.825000  -104.086000
  S    -46.913800   14.685300  -103.804000
  C    -45.266800   15.086000  -103.232000
  C    -44.920400   14.483200  -102.052000
  C    -46.040600   13.800200  -101.454000
  C    -47.167100   13.773000  -102.298000
  H    -44.022600   14.646200  -101.531000
  C    -45.949600   13.053700  -100.126000
  H    -45.099900   12.394500  -100.354000
  H    -46.780000   12.370900  -99.905900
  C    -45.690200   13.919200  -98.882600
  H    -46.511100   14.657600  -98.680300
  H    -44.723100   14.406500  -98.950900
  C    -45.501200   12.996700  -97.626000
  H    -46.416200   12.629700  -97.180300
  H    -44.926400   13.503200  -96.941100
  H    -44.899500   12.149500  -97.865500
  H    -51.718100   12.466400  -100.772000
  H    -44.496300   15.675300  -103.763000

 Total Charge           Charge          ....    0
 Multiplicity           Mult            ....    1
 Number of Electrons    NEL             ....  134
 Basis Dimension        Dim             ....  322

ORBITAL ENERGIES
----------------

  NO   OCC          E(Eh)            E(eV)
   0   2.0000     -88.968069     -2420.9442
   1   2.0000     -88.967502     -2420.9288
   2   2.0000     -10.325042      -280.9587
   3   2.0000     -10.324699      -280.9493
   4   2.0000     -10.321861      -280.8721
   5   2.0000     -10.313080      -280.6332
   6   2.0000     -10.304396      -280.3969
   7   2.0000     -10.301995      -280.3315
   8   2.0000     -10.296191      -280.1736
   9   2.0000     -10.296013      -280.1687
  10   2.0000     -10.293390      -280.0974
  11   2.0000     -10.291495      -280.0458
  12   2.0000     -10.291358      -280.0421
  13   2.0000     -10.290390      -280.0158
  14   2.0000     -10.280425      -279.7446
  15   2.0000     -10.266641      -279.3695
  16   2.0000      -8.081546      -219.9100
  17   2.0000      -8.081487      -219.9084
  18   2.0000      -6.040112      -164.3598
  19   2.0000      -6.040106      -164.3596
  20   2.0000      -6.036316      -164.2565
  21   2.0000      -6.036075      -164.2499
  22   2.0000      -6.032374      -164.1492
  23   2.0000      -6.032063      -164.1408
  24   2.0000      -0.998351       -27.1665
  25   2.0000      -0.974840       -26.5267
  26   2.0000      -0.905763       -24.6471
  27   2.0000      -0.903242       -24.5785
  28   2.0000      -0.863979       -23.5101
  29   2.0000      -0.848400       -23.0861
  30   2.0000      -0.843470       -22.9520
  31   2.0000      -0.813247       -22.1296
  32   2.0000      -0.782201       -21.2848
  33   2.0000      -0.766612       -20.8606
  34   2.0000      -0.705583       -19.1999
  35   2.0000      -0.695246       -18.9186
  36   2.0000      -0.690237       -18.7823
  37   2.0000      -0.661353       -17.9963
  38   2.0000      -0.633266       -17.2321
  39   2.0000      -0.612406       -16.6644
  40   2.0000      -0.593168       -16.1409
  41   2.0000      -0.564827       -15.3697
  42   2.0000      -0.561381       -15.2760
  43   2.0000      -0.548453       -14.9242
  44   2.0000      -0.540318       -14.7028
  45   2.0000      -0.521669       -14.1953
  46   2.0000      -0.516906       -14.0657
  47   2.0000      -0.514738       -14.0067
  48   2.0000      -0.500160       -13.6100
  49   2.0000      -0.493038       -13.4163
  50   2.0000      -0.482645       -13.1334
  51   2.0000      -0.471446       -12.8287
  52   2.0000      -0.467397       -12.7185
  53   2.0000      -0.461727       -12.5642
  54   2.0000      -0.456342       -12.4177
  55   2.0000      -0.450581       -12.2609
  56   2.0000      -0.445855       -12.1323
  57   2.0000      -0.437534       -11.9059
  58   2.0000      -0.436112       -11.8672
  59   2.0000      -0.425048       -11.5661
  60   2.0000      -0.420910       -11.4535
  61   2.0000      -0.413191       -11.2435
  62   2.0000      -0.412349       -11.2206
  63   2.0000      -0.336574        -9.1586
  64   2.0000      -0.331637        -9.0243
  65   2.0000      -0.322137        -8.7658
  66   2.0000      -0.297032        -8.0826
  67   0.0000       0.039315         1.0698
  68   0.0000       0.060634         1.6499
  69   0.0000       0.104340         2.8392
  70   0.0000       0.115697         3.1483
  71   0.0000       0.125746         3.4217

MULLIKEN ATOMIC CHARGES
-----------------------
   0 S :    0.124997
   1 C :   -0.111048
   2 C :   -0.109729
   3 C :    0.028168
   4 C :   -0.169518
   5 H :    0.019552
   6 C :    0.071587
   7 H :    0.017564
   8 H :    0.043551
   9 C :   -0.100633
  10 H :    0.039204
  11 H :    0.033106
  12 C :   -0.054866
  13 H :    0.024906
  14 H :    0.032624
  15 H :    0.053885
  16 S :    0.114879
  17 C :   -0.094091
  18 C :   -0.002603
  19 C :   -0.020978
  20 C :   -0.171444
  21 H :    0.004689
  22 C :    0.034461
  23 H :    0.032679
  24 H :    0.037490
  25 C :   -0.092276
  26 H :    0.049761
  27 H :    0.024407
  28 C :   -0.007293
  29 H :    0.036623
  30 H :    0.009716
  31 H :    0.009738
  32 H :    0.027061
  33 H :    0.063831
Sum of atomic charges:   -0.0000000

LOEWDIN ATOMIC CHARGES
----------------------
   0 S :    0.409730
   1 C :   -0.190746
   2 C :   -0.057279
   3 C :   -0.066078
   4 C :   -0.204750
   5 H :    0.034408
   6 C :   -0.031727
   7 H :    0.029085
   8 H :    0.037032
   9 C :   -0.045785
  10 H :    0.030220
  11 H :    0.022920
  12 C :   -0.072183
  13 H :    0.020908
  14 H :    0.027281
  15 H :    0.036733
  16 S :    0.380774
  17 C :   -0.172601
  18 C :   -0.065828
  19 C :   -0.046845
  20 C :   -0.201153
  21 H :    0.024855
  22 C :   -0.038702
  23 H :    0.036809
  24 H :    0.031751
  25 C :   -0.035573
  26 H :    0.032280
  27 H :    0.020809
  28 C :   -0.056933
  29 H :    0.024742
  30 H :    0.014380
  31 H :    0.021061
  32 H :    0.014334
  33 H :    0.036071

  Mayer bond orders larger than 0.100000
B(  0-S ,  1-C ) :   1.1356 B(  0-S ,  4-C ) :   1.1523 B(  1-C ,  2-C ) :   1.5972
B(  1-C , 32-H ) :   0.9712 B(  2-C ,  3-C ) :   1.2406 B(  2-C ,  6-C ) :   1.0166
B(  3-C ,  4-C ) :   1.5765 B(  3-C ,  5-H ) :   0.9920 B(  4-C , 20-C ) :   1.0315
B(  6-C ,  7-H ) :   0.9416 B(  6-C ,  8-H ) :   0.9507 B(  6-C ,  9-C ) :   1.0531
B(  9-C , 10-H ) :   0.9569 B(  9-C , 11-H ) :   0.9617 B(  9-C , 12-C ) :   1.0801
B( 12-C , 13-H ) :   0.9718 B( 12-C , 14-H ) :   0.9738 B( 12-C , 15-H ) :   0.9702
B( 16-S , 17-C ) :   1.1371 B( 16-S , 20-C ) :   1.1189 B( 17-C , 18-C ) :   1.6445
B( 17-C , 33-H ) :   0.9586 B( 18-C , 19-C ) :   1.2258 B( 18-C , 21-H ) :   0.9875
B( 19-C , 20-C ) :   1.6131 B( 19-C , 22-C ) :   1.0313 B( 22-C , 23-H ) :   0.9343
B( 22-C , 24-H ) :   0.9421 B( 22-C , 25-C ) :   1.0651 B( 25-C , 26-H ) :   0.9568
B( 25-C , 27-H ) :   0.9573 B( 25-C , 28-C ) :   1.0802 B( 28-C , 29-H ) :   0.9766
B( 28-C , 30-H ) :   0.9753 B( 28-C , 31-H ) :   0.9711

Dispersion correction           -0.014460845
FINAL SINGLE POINT ENERGY     -1339.879489730713

DIPOLE MOMENT
-------------
                                X             Y             Z
Electronic contribution:      5.06918      12.41743      -8.25943
Nuclear contribution   :     -4.95148     -12.81423       8.39622
                        -----------------------------------------
Total Dipole Moment    :      0.11770      -0.39680       0.13680
                        -----------------------------------------
Magnitude (a.u.)       :      0.43591
Magnitude (Debye)      :      1.10800

Rotational constants in cm-1:     0.020776     0.007927     0.006386
Rotational constants in MHz :   622.842130   237.654130   191.433454

                             ****ORCA TERMINATED NORMALLY****
TOTAL RUN TIME: 0 days 0 hours 0 minutes 21 seconds 77 msec
