                         Program Version 4.2.1 -  RELEASE  -
|  1> ! wB97X-D3 SP def2-SVP
|  2> %pal
|  3> nprocs 24
|  4> end
|  5>
|  6> * xyz 0 1
|  7> S 	 -105.615 	 44.3817 	 -93.897
|  8> C 	 -105.599 	 43.5047 	 -92.3355
|  9> C 	 -104.304 	 43.0947 	 -92.097
| 10> C 	 -103.374 	 43.4396 	 -93.13
| 11> C 	 -103.89 	 44.154 	 -94.1999
| 12> H 	 -102.309 	 43.174 	 -93.075
| 13> C 	 -103.967 	 42.2155 	 -90.8044
| 14> H 	 -103.985 	 41.146 	 -91.0733
| 15> H 	 -104.725 	 42.2665 	 -90.0078
| 16> C 	 -102.744 	 42.6965 	 -90.0503
| 17> H 	 -101.898 	 42.3293 	 -90.6462
| 18> H 	 -102.597 	 43.7837 	 -90.1186
| 19> C 	 -102.729 	 42.2533 	 -88.5636
| 20> H 	 -103.473 	 42.8184 	 -87.8973
| 21> H 	 -102.898 	 41.183 	 -88.4352
| 22> H 	 -101.736 	 42.3915 	 -88.1314
| 23> S 	 -104.093 	 46.1193 	 -96.1904
| 24> C 	 -102.847 	 46.366 	 -97.3394
| 25> C 	 -101.803 	 45.5296 	 -97.1291
| 26> C 	 -102.047 	 44.6334 	 -95.9909
| 27> C 	 -103.237 	 44.8452 	 -95.3241
| 28> H 	 -100.923 	 45.5104 	 -97.729
| 29> C 	 -101.088 	 43.4828 	 -95.7077
| 30> H 	 -100.708 	 43.1368 	 -96.678
| 31> H 	 -101.749 	 42.7763 	 -95.2483
| 32> C 	 -99.9559 	 43.9824 	 -94.7475
| 33> H 	 -100.456 	 44.3692 	 -93.8241
| 34> H 	 -99.5399 	 44.8332 	 -95.2648
| 35> C 	 -98.9816 	 42.841 	 -94.3373
| 36> H 	 -98.1957 	 43.259 	 -93.7056
| 37> H 	 -98.4985 	 42.3399 	 -95.155
| 38> H 	 -99.5121 	 42.1371 	 -93.65
| 39> H 	 -106.434 	 43.3287 	 -91.69
| 40> H 	 -102.747 	 47.1089 	 -98.1735
| 41> *
| 42>
| 43>                          ****END OF INPUT****

CARTESIAN COORDINATES (ANGSTROEM)
---------------------------------
  S    -105.615000   44.381700  -93.897000
  C    -105.599000   43.504700  -92.335500
  C    -104.304000   43.094700  -92.097000
  C    -103.374000   43.439600  -93.130000
  C    -103.890000   44.154000  -94.199900
  H    -102.309000   43.174000  -93.075000
  C    -103.967000   42.215500  -90.804400
  H    -103.985000   41.146000  -91.073300
  H    -104.725000   42.266500  -90.007800
  C    -102.744000   42.696500  -90.050300
  H    -101.898000   42.329300  -90.646200
  H    -102.597000   43.783700  -90.118600
  C    -102.729000   42.253300  -88.563600
  H    -103.473000   42.818400  -87.897300
  H    -102.898000   41.183000  -88.435200
  H    -101.736000   42.391500  -88.131400
  S    -104.093000   46.119300  -96.190400
  C    -102.847000   46.366000  -97.339400
  C    -101.803000   45.529600  -97.129100
  C    -102.047000   44.633400  -95.990900
  C    -103.237000   44.845200  -95.324100
  H    -100.923000   45.510400  -97.729000
  C    -101.088000   43.482800  -95.707700
  H    -100.708000   43.136800  -96.678000
  H    -101.749000   42.776300  -95.248300
  C    -99.955900   43.982400  -94.747500
  H    -100.456000   44.369200  -93.824100
  H    -99.539900   44.833200  -95.264800
  C    -98.981600   42.841000  -94.337300
  H    -98.195700   43.259000  -93.705600
  H    -98.498500   42.339900  -95.155000
  H    -99.512100   42.137100  -93.650000
  H    -106.434000   43.328700  -91.690000
  H    -102.747000   47.108900  -98.173500

 Total Charge           Charge          ....    0
 Multiplicity           Mult            ....    1
 Number of Electrons    NEL             ....  134
 Basis Dimension        Dim             ....  322

ORBITAL ENERGIES
----------------

  NO   OCC          E(Eh)            E(eV)
   0   2.0000     -88.965360     -2420.8705
   1   2.0000     -88.965004     -2420.8608
   2   2.0000     -10.341274      -281.4004
   3   2.0000     -10.332168      -281.1526
   4   2.0000     -10.319842      -280.8172
   5   2.0000     -10.318395      -280.7778
   6   2.0000     -10.308678      -280.5134
   7   2.0000     -10.304236      -280.3925
   8   2.0000     -10.301168      -280.3090
   9   2.0000     -10.299180      -280.2549
  10   2.0000     -10.293871      -280.1105
  11   2.0000     -10.292205      -280.0651
  12   2.0000     -10.290391      -280.0158
  13   2.0000     -10.289673      -279.9962
  14   2.0000     -10.288933      -279.9761
  15   2.0000     -10.283798      -279.8364
  16   2.0000      -8.080523      -219.8822
  17   2.0000      -8.078972      -219.8400
  18   2.0000      -6.039265      -164.3368
  19   2.0000      -6.037688      -164.2938
  20   2.0000      -6.034882      -164.2175
  21   2.0000      -6.033527      -164.1806
  22   2.0000      -6.031072      -164.1138
  23   2.0000      -6.029580      -164.0732
  24   2.0000      -1.007628       -27.4190
  25   2.0000      -0.983835       -26.7715
  26   2.0000      -0.908121       -24.7112
  27   2.0000      -0.907215       -24.6866
  28   2.0000      -0.872446       -23.7405
  29   2.0000      -0.847876       -23.0719
  30   2.0000      -0.836403       -22.7597
  31   2.0000      -0.820382       -22.3237
  32   2.0000      -0.781184       -21.2571
  33   2.0000      -0.772388       -21.0177
  34   2.0000      -0.711312       -19.3558
  35   2.0000      -0.698865       -19.0171
  36   2.0000      -0.692126       -18.8337
  37   2.0000      -0.663888       -18.0653
  38   2.0000      -0.642328       -17.4786
  39   2.0000      -0.622687       -16.9442
  40   2.0000      -0.587545       -15.9879
  41   2.0000      -0.571627       -15.5548
  42   2.0000      -0.565896       -15.3988
  43   2.0000      -0.560921       -15.2634
  44   2.0000      -0.526026       -14.3139
  45   2.0000      -0.520112       -14.1530
  46   2.0000      -0.516831       -14.0637
  47   2.0000      -0.508671       -13.8416
  48   2.0000      -0.507804       -13.8180
  49   2.0000      -0.504140       -13.7184
  50   2.0000      -0.498887       -13.5754
  51   2.0000      -0.479243       -13.0409
  52   2.0000      -0.474983       -12.9249
  53   2.0000      -0.472973       -12.8702
  54   2.0000      -0.457600       -12.4519
  55   2.0000      -0.454030       -12.3548
  56   2.0000      -0.441058       -12.0018
  57   2.0000      -0.439900       -11.9703
  58   2.0000      -0.432778       -11.7765
  59   2.0000      -0.429574       -11.6893
  60   2.0000      -0.419706       -11.4208
  61   2.0000      -0.410020       -11.1572
  62   2.0000      -0.397624       -10.8199
  63   2.0000      -0.366188        -9.9645
  64   2.0000      -0.333752        -9.0818
  65   2.0000      -0.326111        -8.8739
  66   2.0000      -0.289700        -7.8831
  67   0.0000       0.020570         0.5597
  68   0.0000       0.086882         2.3642
  69   0.0000       0.104512         2.8439
  70   0.0000       0.121644         3.3101
  71   0.0000       0.124780         3.3954

MULLIKEN ATOMIC CHARGES
-----------------------
   0 S :    0.080210
   1 C :   -0.113282
   2 C :   -0.073876
   3 C :   -0.003004
   4 C :   -0.108738
   5 H :    0.009144
   6 C :    0.044476
   7 H :    0.051841
   8 H :    0.013169
   9 C :   -0.093884
  10 H :    0.026714
  11 H :    0.042378
  12 C :   -0.074814
  13 H :    0.052754
  14 H :    0.033056
  15 H :    0.034029
  16 S :    0.098979
  17 C :   -0.072580
  18 C :   -0.021892
  19 C :   -0.125570
  20 C :   -0.095880
  21 H :    0.008046
  22 C :    0.067319
  23 H :    0.028800
  24 H :    0.019816
  25 C :   -0.090864
  26 H :    0.036446
  27 H :    0.023335
  28 C :   -0.019280
  29 H :    0.032612
  30 H :    0.035740
  31 H :    0.033322
  32 H :    0.048681
  33 H :    0.072796
Sum of atomic charges:    0.0000000

LOEWDIN ATOMIC CHARGES
----------------------
   0 S :    0.378823
   1 C :   -0.178522
   2 C :   -0.059045
   3 C :   -0.080104
   4 C :   -0.173694
   5 H :    0.030541
   6 C :   -0.032119
   7 H :    0.034497
   8 H :    0.026592
   9 C :   -0.051807
  10 H :    0.021601
  11 H :    0.030046
  12 C :   -0.073812
  13 H :    0.035971
  14 H :    0.024673
  15 H :    0.028064
  16 S :    0.409280
  17 C :   -0.196959
  18 C :   -0.077127
  19 C :   -0.051015
  20 C :   -0.199357
  21 H :    0.026405
  22 C :   -0.028709
  23 H :    0.030280
  24 H :    0.023039
  25 C :   -0.037368
  26 H :    0.028394
  27 H :    0.020952
  28 C :   -0.067333
  29 H :    0.027278
  30 H :    0.022366
  31 H :    0.029998
  32 H :    0.029808
  33 H :    0.048366

  Mayer bond orders larger than 0.100000
B(  0-S ,  1-C ) :   1.1207 B(  0-S ,  4-C ) :   1.1431 B(  1-C ,  2-C ) :   1.6247
B(  1-C , 32-H ) :   0.9751 B(  2-C ,  3-C ) :   1.2526 B(  2-C ,  6-C ) :   1.0015
B(  3-C ,  4-C ) :   1.5580 B(  3-C ,  5-H ) :   0.9838 B(  4-C , 20-C ) :   1.0723
B(  6-C ,  7-H ) :   0.9437 B(  6-C ,  8-H ) :   0.9565 B(  6-C ,  9-C ) :   1.0426
B(  9-C , 10-H ) :   0.9515 B(  9-C , 11-H ) :   0.9621 B(  9-C , 12-C ) :   1.0860
B( 12-C , 13-H ) :   0.9716 B( 12-C , 14-H ) :   0.9748 B( 12-C , 15-H ) :   0.9736
B( 16-S , 17-C ) :   1.1554 B( 16-S , 20-C ) :   1.1112 B( 17-C , 18-C ) :   1.6256
B( 17-C , 33-H ) :   0.9558 B( 18-C , 19-C ) :   1.2353 B( 18-C , 21-H ) :   0.9927
B( 19-C , 20-C ) :   1.6125 B( 19-C , 22-C ) :   1.0387 B( 22-C , 23-H ) :   0.9385
B( 22-C , 24-H ) :   0.9337 B( 22-C , 25-C ) :   1.0531 B( 25-C , 26-H ) :   0.9548
B( 25-C , 27-H ) :   0.9584 B( 25-C , 28-C ) :   1.0748 B( 28-C , 29-H ) :   0.9736
B( 28-C , 30-H ) :   0.9751 B( 28-C , 31-H ) :   0.9736

Dispersion correction           -0.013955952
FINAL SINGLE POINT ENERGY     -1339.880804186427

DIPOLE MOMENT
-------------
                                X             Y             Z
Electronic contribution:    -21.86071      15.02376     -19.60444
Nuclear contribution   :     22.52577     -15.35084      19.84437
                        -----------------------------------------
Total Dipole Moment    :      0.66506      -0.32707       0.23993
                        -----------------------------------------
Magnitude (a.u.)       :      0.77900
Magnitude (Debye)      :      1.98006

Rotational constants in cm-1:     0.017716     0.008951     0.006230
Rotational constants in MHz :   531.119297   268.332978   186.768513

                             ****ORCA TERMINATED NORMALLY****
TOTAL RUN TIME: 0 days 0 hours 0 minutes 21 seconds 321 msec
