                         Program Version 4.2.1 -  RELEASE  -
|  1> ! wB97X-D3 SP def2-SVP
|  2> %pal
|  3> nprocs 24
|  4> end
|  5>
|  6> * xyz 0 1
|  7> S 	 -100.352 	 44.4642 	 -84.2886
|  8> C 	 -99.8741 	 43.0601 	 -85.2734
|  9> C 	 -100.442 	 43.0943 	 -86.5234
| 10> C 	 -101.066 	 44.3818 	 -86.7497
| 11> C 	 -100.959 	 45.291 	 -85.6957
| 12> H 	 -101.538 	 44.646 	 -87.6946
| 13> C 	 -100.521 	 42.0513 	 -87.6465
| 14> H 	 -99.5469 	 41.9316 	 -88.0821
| 15> H 	 -101.099 	 42.5388 	 -88.4734
| 16> C 	 -101.171 	 40.6536 	 -87.4197
| 17> H 	 -100.884 	 40.0585 	 -88.2801
| 18> H 	 -100.72 	 40.067 	 -86.5148
| 19> C 	 -102.696 	 40.6907 	 -87.2068
| 20> H 	 -103.118 	 41.1717 	 -88.0566
| 21> H 	 -102.968 	 39.7031 	 -87.0804
| 22> H 	 -102.972 	 41.2508 	 -86.3514
| 23> S 	 -100.872 	 47.9355 	 -84.9119
| 24> C 	 -102.406 	 48.8038 	 -84.8436
| 25> C 	 -103.486 	 48.0739 	 -85.2803
| 26> C 	 -103.108 	 46.6494 	 -85.471
| 27> C 	 -101.738 	 46.5064 	 -85.5211
| 28> H 	 -104.466 	 48.5832 	 -85.275
| 29> C 	 -104.114 	 45.5258 	 -85.644
| 30> H 	 -103.581 	 44.6379 	 -85.4107
| 31> H 	 -104.318 	 45.4394 	 -86.7668
| 32> C 	 -105.372 	 45.4752 	 -84.6893
| 33> H 	 -105.774 	 44.4904 	 -84.9745
| 34> H 	 -106.125 	 46.1919 	 -85.0627
| 35> C 	 -105.116 	 45.3649 	 -83.1682
| 36> H 	 -104.513 	 44.4378 	 -82.8881
| 37> H 	 -105.99 	 45.4078 	 -82.5022
| 38> H 	 -104.617 	 46.2237 	 -82.6907
| 39> H 	 -99.4317 	 42.1831 	 -84.889
| 40> H 	 -102.505 	 49.8704 	 -84.6391
| 41> *
| 42>
| 43>                          ****END OF INPUT****

CARTESIAN COORDINATES (ANGSTROEM)
---------------------------------
  S    -100.352000   44.464200  -84.288600
  C    -99.874100   43.060100  -85.273400
  C    -100.442000   43.094300  -86.523400
  C    -101.066000   44.381800  -86.749700
  C    -100.959000   45.291000  -85.695700
  H    -101.538000   44.646000  -87.694600
  C    -100.521000   42.051300  -87.646500
  H    -99.546900   41.931600  -88.082100
  H    -101.099000   42.538800  -88.473400
  C    -101.171000   40.653600  -87.419700
  H    -100.884000   40.058500  -88.280100
  H    -100.720000   40.067000  -86.514800
  C    -102.696000   40.690700  -87.206800
  H    -103.118000   41.171700  -88.056600
  H    -102.968000   39.703100  -87.080400
  H    -102.972000   41.250800  -86.351400
  S    -100.872000   47.935500  -84.911900
  C    -102.406000   48.803800  -84.843600
  C    -103.486000   48.073900  -85.280300
  C    -103.108000   46.649400  -85.471000
  C    -101.738000   46.506400  -85.521100
  H    -104.466000   48.583200  -85.275000
  C    -104.114000   45.525800  -85.644000
  H    -103.581000   44.637900  -85.410700
  H    -104.318000   45.439400  -86.766800
  C    -105.372000   45.475200  -84.689300
  H    -105.774000   44.490400  -84.974500
  H    -106.125000   46.191900  -85.062700
  C    -105.116000   45.364900  -83.168200
  H    -104.513000   44.437800  -82.888100
  H    -105.990000   45.407800  -82.502200
  H    -104.617000   46.223700  -82.690700
  H    -99.431700   42.183100  -84.889000
  H    -102.505000   49.870400  -84.639100

 Total Charge           Charge          ....    0
 Multiplicity           Mult            ....    1
 Number of Electrons    NEL             ....  134
 Basis Dimension        Dim             ....  322

ORBITAL ENERGIES
----------------

  NO   OCC          E(Eh)            E(eV)
   0   2.0000     -88.965246     -2420.8674
   1   2.0000     -88.961481     -2420.7650
   2   2.0000     -10.325436      -280.9694
   3   2.0000     -10.322959      -280.9020
   4   2.0000     -10.317027      -280.7406
   5   2.0000     -10.313112      -280.6340
   6   2.0000     -10.308816      -280.5172
   7   2.0000     -10.303844      -280.3818
   8   2.0000     -10.298722      -280.2425
   9   2.0000     -10.298701      -280.2419
  10   2.0000     -10.298293      -280.2308
  11   2.0000     -10.297701      -280.2147
  12   2.0000     -10.296042      -280.1695
  13   2.0000     -10.295843      -280.1641
  14   2.0000     -10.287110      -279.9265
  15   2.0000     -10.268156      -279.4107
  16   2.0000      -8.079592      -219.8569
  17   2.0000      -8.075873      -219.7557
  18   2.0000      -6.038215      -164.3082
  19   2.0000      -6.034470      -164.2063
  20   2.0000      -6.034250      -164.2003
  21   2.0000      -6.030649      -164.1023
  22   2.0000      -6.030139      -164.0884
  23   2.0000      -6.026335      -163.9849
  24   2.0000      -1.001492       -27.2520
  25   2.0000      -0.976015       -26.5587
  26   2.0000      -0.907392       -24.6914
  27   2.0000      -0.899256       -24.4700
  28   2.0000      -0.868650       -23.6372
  29   2.0000      -0.847089       -23.0505
  30   2.0000      -0.839504       -22.8441
  31   2.0000      -0.811020       -22.0690
  32   2.0000      -0.787559       -21.4306
  33   2.0000      -0.774300       -21.0698
  34   2.0000      -0.707708       -19.2577
  35   2.0000      -0.703499       -19.1432
  36   2.0000      -0.690714       -18.7953
  37   2.0000      -0.649337       -17.6694
  38   2.0000      -0.637944       -17.3593
  39   2.0000      -0.610316       -16.6075
  40   2.0000      -0.587530       -15.9875
  41   2.0000      -0.568843       -15.4790
  42   2.0000      -0.557120       -15.1600
  43   2.0000      -0.552049       -15.0220
  44   2.0000      -0.543243       -14.7824
  45   2.0000      -0.525751       -14.3064
  46   2.0000      -0.515256       -14.0208
  47   2.0000      -0.510951       -13.9037
  48   2.0000      -0.498025       -13.5520
  49   2.0000      -0.490494       -13.3470
  50   2.0000      -0.486652       -13.2425
  51   2.0000      -0.474240       -12.9047
  52   2.0000      -0.468400       -12.7458
  53   2.0000      -0.465181       -12.6582
  54   2.0000      -0.463360       -12.6087
  55   2.0000      -0.447791       -12.1850
  56   2.0000      -0.439613       -11.9625
  57   2.0000      -0.438357       -11.9283
  58   2.0000      -0.435192       -11.8422
  59   2.0000      -0.426982       -11.6188
  60   2.0000      -0.418501       -11.3880
  61   2.0000      -0.413925       -11.2635
  62   2.0000      -0.407543       -11.0898
  63   2.0000      -0.335030        -9.1166
  64   2.0000      -0.330938        -9.0053
  65   2.0000      -0.323143        -8.7932
  66   2.0000      -0.301070        -8.1925
  67   0.0000       0.032982         0.8975
  68   0.0000       0.063406         1.7254
  69   0.0000       0.106744         2.9047
  70   0.0000       0.116509         3.1704
  71   0.0000       0.124156         3.3785

MULLIKEN ATOMIC CHARGES
-----------------------
   0 S :    0.106089
   1 C :   -0.104525
   2 C :   -0.073193
   3 C :   -0.015293
   4 C :   -0.111673
   5 H :    0.015767
   6 C :    0.056787
   7 H :    0.038050
   8 H :    0.018055
   9 C :   -0.117359
  10 H :    0.031316
  11 H :    0.035610
  12 C :    0.016326
  13 H :    0.017748
  14 H :    0.022200
  15 H :    0.031685
  16 S :    0.095638
  17 C :   -0.100428
  18 C :   -0.028913
  19 C :   -0.055127
  20 C :   -0.179618
  21 H :    0.035666
  22 C :    0.046665
  23 H :    0.017242
  24 H :    0.055632
  25 C :   -0.058328
  26 H :    0.032747
  27 H :    0.038563
  28 C :   -0.076345
  29 H :    0.049589
  30 H :    0.033362
  31 H :    0.036225
  32 H :    0.029356
  33 H :    0.060486
Sum of atomic charges:    0.0000000

LOEWDIN ATOMIC CHARGES
----------------------
   0 S :    0.401541
   1 C :   -0.179754
   2 C :   -0.063223
   3 C :   -0.059847
   4 C :   -0.204569
   5 H :    0.028877
   6 C :   -0.035577
   7 H :    0.032502
   8 H :    0.033432
   9 C :   -0.042419
  10 H :    0.023579
  11 H :    0.028652
  12 C :   -0.049781
  13 H :    0.020443
  14 H :    0.019088
  15 H :    0.023936
  16 S :    0.376054
  17 C :   -0.177509
  18 C :   -0.076006
  19 C :   -0.044698
  20 C :   -0.203010
  21 H :    0.038723
  22 C :   -0.038599
  23 H :    0.024955
  24 H :    0.045755
  25 C :   -0.043294
  26 H :    0.031869
  27 H :    0.024908
  28 C :   -0.082029
  29 H :    0.037617
  30 H :    0.031438
  31 H :    0.028334
  32 H :    0.018360
  33 H :    0.030253

  Mayer bond orders larger than 0.100000
B(  0-S ,  1-C ) :   1.1336 B(  0-S ,  4-C ) :   1.1526 B(  1-C ,  2-C ) :   1.6223
B(  1-C , 32-H ) :   0.9743 B(  2-C ,  3-C ) :   1.2404 B(  2-C ,  6-C ) :   1.0056
B(  3-C ,  4-C ) :   1.5732 B(  3-C ,  5-H ) :   0.9967 B(  4-C , 20-C ) :   1.0270
B(  6-C ,  7-H ) :   0.9368 B(  6-C ,  8-H ) :   0.9436 B(  6-C ,  9-C ) :   1.0699
B(  9-C , 10-H ) :   0.9541 B(  9-C , 11-H ) :   0.9583 B(  9-C , 12-C ) :   1.0698
B( 12-C , 13-H ) :   0.9748 B( 12-C , 14-H ) :   0.9731 B( 12-C , 15-H ) :   0.9775
B( 16-S , 17-C ) :   1.1380 B( 16-S , 20-C ) :   1.1059 B( 17-C , 18-C ) :   1.6821
B( 17-C , 33-H ) :   0.9605 B( 18-C , 19-C ) :   1.1594 B( 18-C , 21-H ) :   0.9814
B( 19-C , 20-C ) :   1.6504 B( 19-C , 22-C ) :   1.0409 B( 22-C , 23-H ) :   0.9248
B( 22-C , 24-H ) :   0.9372 B( 22-C , 25-C ) :   1.0644 B( 25-C , 26-H ) :   0.9563
B( 25-C , 27-H ) :   0.9581 B( 25-C , 28-C ) :   1.0614 B( 28-C , 29-H ) :   0.9730
B( 28-C , 30-H ) :   0.9728 B( 28-C , 31-H ) :   0.9738

Dispersion correction           -0.015003373
FINAL SINGLE POINT ENERGY     -1339.860990256371

DIPOLE MOMENT
-------------
                                X             Y             Z
Electronic contribution:     17.93419      19.63970       6.09873
Nuclear contribution   :    -18.58975     -20.13047      -6.36626
                        -----------------------------------------
Total Dipole Moment    :     -0.65557      -0.49078      -0.26754
                        -----------------------------------------
Magnitude (a.u.)       :      0.86151
Magnitude (Debye)      :      2.18979

Rotational constants in cm-1:     0.019719     0.008862     0.007196
Rotational constants in MHz :   591.154587   265.688590   215.729398

                             ****ORCA TERMINATED NORMALLY****
TOTAL RUN TIME: 0 days 0 hours 0 minutes 22 seconds 41 msec
