                         Program Version 4.2.1 -  RELEASE  -
|  1> ! wB97X-D3 SP def2-SVP
|  2> %pal
|  3> nprocs 24
|  4> end
|  5>
|  6> * xyz 0 1
|  7> S 	 -53.6362 	 -49.0192 	 -80.1921
|  8> C 	 -54.6866 	 -47.7854 	 -80.8281
|  9> C 	 -54.5943 	 -47.7132 	 -82.2127
| 10> C 	 -53.9229 	 -48.8723 	 -82.6443
| 11> C 	 -53.2957 	 -49.738 	 -81.7776
| 12> H 	 -53.8695 	 -49.2208 	 -83.6811
| 13> C 	 -55.3243 	 -46.7255 	 -83.0932
| 14> H 	 -54.6327 	 -46.5117 	 -83.9386
| 15> H 	 -55.4149 	 -45.7428 	 -82.6349
| 16> C 	 -56.6703 	 -47.1198 	 -83.7066
| 17> H 	 -57.297 	 -47.514 	 -82.8838
| 18> H 	 -57.1297 	 -46.3937 	 -84.3266
| 19> C 	 -56.4716 	 -48.1925 	 -84.7246
| 20> H 	 -57.2999 	 -48.6295 	 -85.2512
| 21> H 	 -55.7512 	 -47.9016 	 -85.4786
| 22> H 	 -56.0643 	 -49.0384 	 -84.1399
| 23> S 	 -53.0562 	 -52.3686 	 -81.2298
| 24> C 	 -51.737 	 -53.2051 	 -82.0731
| 25> C 	 -50.8273 	 -52.3417 	 -82.6187
| 26> C 	 -51.3061 	 -50.9787 	 -82.6713
| 27> C 	 -52.5098 	 -50.9157 	 -82.0044
| 28> H 	 -49.827 	 -52.6913 	 -82.9367
| 29> C 	 -50.5298 	 -49.8205 	 -83.236
| 30> H 	 -49.464 	 -50.0073 	 -83.1211
| 31> H 	 -50.7356 	 -48.93 	 -82.6873
| 32> C 	 -50.8188 	 -49.6118 	 -84.73
| 33> H 	 -50.4916 	 -48.5971 	 -85.1405
| 34> H 	 -51.8825 	 -49.6459 	 -84.9745
| 35> C 	 -49.9354 	 -50.6283 	 -85.5367
| 36> H 	 -48.8689 	 -50.5039 	 -85.2762
| 37> H 	 -50.0139 	 -50.4421 	 -86.6456
| 38> H 	 -50.2063 	 -51.6627 	 -85.3542
| 39> H 	 -55.2231 	 -47.061 	 -80.2093
| 40> H 	 -51.7284 	 -54.3175 	 -82.0402
| 41> *
| 42>
| 43>                          ****END OF INPUT****

CARTESIAN COORDINATES (ANGSTROEM)
---------------------------------
  S    -53.636200  -49.019200  -80.192100
  C    -54.686600  -47.785400  -80.828100
  C    -54.594300  -47.713200  -82.212700
  C    -53.922900  -48.872300  -82.644300
  C    -53.295700  -49.738000  -81.777600
  H    -53.869500  -49.220800  -83.681100
  C    -55.324300  -46.725500  -83.093200
  H    -54.632700  -46.511700  -83.938600
  H    -55.414900  -45.742800  -82.634900
  C    -56.670300  -47.119800  -83.706600
  H    -57.297000  -47.514000  -82.883800
  H    -57.129700  -46.393700  -84.326600
  C    -56.471600  -48.192500  -84.724600
  H    -57.299900  -48.629500  -85.251200
  H    -55.751200  -47.901600  -85.478600
  H    -56.064300  -49.038400  -84.139900
  S    -53.056200  -52.368600  -81.229800
  C    -51.737000  -53.205100  -82.073100
  C    -50.827300  -52.341700  -82.618700
  C    -51.306100  -50.978700  -82.671300
  C    -52.509800  -50.915700  -82.004400
  H    -49.827000  -52.691300  -82.936700
  C    -50.529800  -49.820500  -83.236000
  H    -49.464000  -50.007300  -83.121100
  H    -50.735600  -48.930000  -82.687300
  C    -50.818800  -49.611800  -84.730000
  H    -50.491600  -48.597100  -85.140500
  H    -51.882500  -49.645900  -84.974500
  C    -49.935400  -50.628300  -85.536700
  H    -48.868900  -50.503900  -85.276200
  H    -50.013900  -50.442100  -86.645600
  H    -50.206300  -51.662700  -85.354200
  H    -55.223100  -47.061000  -80.209300
  H    -51.728400  -54.317500  -82.040200

 Total Charge           Charge          ....    0
 Multiplicity           Mult            ....    1
 Number of Electrons    NEL             ....  134
 Basis Dimension        Dim             ....  322

ORBITAL ENERGIES
----------------

  NO   OCC          E(Eh)            E(eV)
   0   2.0000     -88.967981     -2420.9418
   1   2.0000     -88.960828     -2420.7472
   2   2.0000     -10.324628      -280.9474
   3   2.0000     -10.324376      -280.9405
   4   2.0000     -10.323922      -280.9282
   5   2.0000     -10.316551      -280.7276
   6   2.0000     -10.307725      -280.4875
   7   2.0000     -10.301909      -280.3292
   8   2.0000     -10.301697      -280.3234
   9   2.0000     -10.295094      -280.1437
  10   2.0000     -10.294820      -280.1363
  11   2.0000     -10.291178      -280.0372
  12   2.0000     -10.289292      -279.9859
  13   2.0000     -10.283258      -279.8217
  14   2.0000     -10.282263      -279.7946
  15   2.0000     -10.267100      -279.3820
  16   2.0000      -8.083060      -219.9513
  17   2.0000      -8.075490      -219.7453
  18   2.0000      -6.041424      -164.3955
  19   2.0000      -6.037829      -164.2977
  20   2.0000      -6.033950      -164.1921
  21   2.0000      -6.033613      -164.1829
  22   2.0000      -6.029895      -164.0818
  23   2.0000      -6.026408      -163.9869
  24   2.0000      -1.010460       -27.4960
  25   2.0000      -0.987177       -26.8624
  26   2.0000      -0.917944       -24.9785
  27   2.0000      -0.911191       -24.7948
  28   2.0000      -0.874585       -23.7987
  29   2.0000      -0.847600       -23.0644
  30   2.0000      -0.842905       -22.9366
  31   2.0000      -0.815276       -22.1848
  32   2.0000      -0.784263       -21.3409
  33   2.0000      -0.771145       -20.9839
  34   2.0000      -0.706427       -19.2229
  35   2.0000      -0.698128       -18.9970
  36   2.0000      -0.691675       -18.8214
  37   2.0000      -0.664482       -18.0815
  38   2.0000      -0.643573       -17.5125
  39   2.0000      -0.614564       -16.7231
  40   2.0000      -0.601376       -16.3643
  41   2.0000      -0.582445       -15.8491
  42   2.0000      -0.556074       -15.1315
  43   2.0000      -0.548464       -14.9245
  44   2.0000      -0.546807       -14.8794
  45   2.0000      -0.542035       -14.7495
  46   2.0000      -0.514484       -13.9998
  47   2.0000      -0.504649       -13.7322
  48   2.0000      -0.500682       -13.6243
  49   2.0000      -0.497495       -13.5375
  50   2.0000      -0.490322       -13.3423
  51   2.0000      -0.479726       -13.0540
  52   2.0000      -0.475405       -12.9364
  53   2.0000      -0.466839       -12.7033
  54   2.0000      -0.457942       -12.4612
  55   2.0000      -0.448757       -12.2113
  56   2.0000      -0.442150       -12.0315
  57   2.0000      -0.434173       -11.8145
  58   2.0000      -0.428677       -11.6649
  59   2.0000      -0.427015       -11.6197
  60   2.0000      -0.416273       -11.3274
  61   2.0000      -0.413159       -11.2426
  62   2.0000      -0.408368       -11.1122
  63   2.0000      -0.344173        -9.3654
  64   2.0000      -0.331991        -9.0339
  65   2.0000      -0.328750        -8.9457
  66   2.0000      -0.296181        -8.0595
  67   0.0000       0.031048         0.8449
  68   0.0000       0.061643         1.6774
  69   0.0000       0.101598         2.7646
  70   0.0000       0.119290         3.2460
  71   0.0000       0.130642         3.5550

MULLIKEN ATOMIC CHARGES
-----------------------
   0 S :    0.095034
   1 C :   -0.122933
   2 C :   -0.077339
   3 C :    0.004659
   4 C :   -0.161054
   5 H :    0.010345
   6 C :    0.049266
   7 H :    0.022860
   8 H :    0.023898
   9 C :   -0.011056
  10 H :    0.036163
  11 H :    0.025632
  12 C :   -0.080551
  13 H :    0.028668
  14 H :    0.019917
  15 H :    0.030935
  16 S :    0.119900
  17 C :   -0.111065
  18 C :   -0.029935
  19 C :   -0.024555
  20 C :   -0.186242
  21 H :    0.033945
  22 C :    0.111134
  23 H :    0.020971
  24 H :    0.031215
  25 C :   -0.081537
  26 H :    0.035215
  27 H :    0.035560
  28 C :   -0.087194
  29 H :    0.030591
  30 H :    0.041859
  31 H :    0.038288
  32 H :    0.055503
  33 H :    0.071903
Sum of atomic charges:    0.0000000

LOEWDIN ATOMIC CHARGES
----------------------
   0 S :    0.390643
   1 C :   -0.187431
   2 C :   -0.074215
   3 C :   -0.071351
   4 C :   -0.197330
   5 H :    0.026177
   6 C :   -0.033181
   7 H :    0.034687
   8 H :    0.031278
   9 C :   -0.037356
  10 H :    0.030205
  11 H :    0.022572
  12 C :   -0.071219
  13 H :    0.021599
  14 H :    0.019667
  15 H :    0.027953
  16 S :    0.404159
  17 C :   -0.174146
  18 C :   -0.070676
  19 C :   -0.040726
  20 C :   -0.205705
  21 H :    0.037644
  22 C :   -0.025288
  23 H :    0.032685
  24 H :    0.030556
  25 C :   -0.038486
  26 H :    0.029838
  27 H :    0.021153
  28 C :   -0.073059
  29 H :    0.024598
  30 H :    0.029882
  31 H :    0.020137
  32 H :    0.030958
  33 H :    0.033775

  Mayer bond orders larger than 0.100000
B(  0-S ,  1-C ) :   1.1694 B(  0-S ,  4-C ) :   1.1219 B(  1-C ,  2-C ) :   1.5690
B(  1-C ,  4-C ) :   0.1050 B(  1-C , 32-H ) :   0.9663 B(  2-C ,  3-C ) :   1.2475
B(  2-C ,  6-C ) :   1.0372 B(  3-C ,  4-C ) :   1.5998 B(  3-C ,  5-H ) :   0.9838
B(  4-C , 20-C ) :   1.0479 B(  6-C ,  7-H ) :   0.9346 B(  6-C ,  8-H ) :   0.9379
B(  6-C ,  9-C ) :   1.0699 B(  9-C , 10-H ) :   0.9527 B(  9-C , 11-H ) :   0.9540
B(  9-C , 12-C ) :   1.0777 B( 12-C , 13-H ) :   0.9707 B( 12-C , 14-H ) :   0.9728
B( 12-C , 15-H ) :   0.9708 B( 16-S , 17-C ) :   1.1407 B( 16-S , 20-C ) :   1.1438
B( 17-C , 18-C ) :   1.6266 B( 17-C , 33-H ) :   0.9665 B( 18-C , 19-C ) :   1.2090
B( 18-C , 21-H ) :   0.9808 B( 19-C , 20-C ) :   1.6134 B( 19-C , 22-C ) :   1.0471
B( 22-C , 23-H ) :   0.9403 B( 22-C , 24-H ) :   0.9215 B( 22-C , 25-C ) :   1.0598
B( 25-C , 26-H ) :   0.9572 B( 25-C , 27-H ) :   0.9574 B( 25-C , 28-C ) :   1.0651
B( 28-C , 29-H ) :   0.9754 B( 28-C , 30-H ) :   0.9751 B( 28-C , 31-H ) :   0.9761

Dispersion correction           -0.015035938
FINAL SINGLE POINT ENERGY     -1339.870037781244

DIPOLE MOMENT
-------------
                                X             Y             Z
Electronic contribution:     -0.17376     -10.95613      24.15085
Nuclear contribution   :      0.36607      11.12416     -24.66554
                        -----------------------------------------
Total Dipole Moment    :      0.19231       0.16803      -0.51469
                        -----------------------------------------
Magnitude (a.u.)       :      0.57456
Magnitude (Debye)      :      1.46043

Rotational constants in cm-1:     0.018235     0.009271     0.007467
Rotational constants in MHz :   546.684291   277.930151   223.842292

                             ****ORCA TERMINATED NORMALLY****
TOTAL RUN TIME: 0 days 0 hours 0 minutes 22 seconds 377 msec
