                         Program Version 4.2.1 -  RELEASE  -
|  1> ! wB97X-D3 SP def2-SVP
|  2> %pal
|  3> nprocs 24
|  4> end
|  5>
|  6> * xyz 0 1
|  7> S 	 -69.8867 	 5.88607 	 -113.796
|  8> C 	 -70.5844 	 6.36281 	 -112.365
|  9> C 	 -69.9809 	 7.42783 	 -111.754
| 10> C 	 -68.8123 	 7.82912 	 -112.555
| 11> C 	 -68.4862 	 6.89447 	 -113.547
| 12> H 	 -68.1952 	 8.71114 	 -112.321
| 13> C 	 -70.502 	 8.08419 	 -110.457
| 14> H 	 -71.5886 	 8.12205 	 -110.51
| 15> H 	 -70.1637 	 9.12762 	 -110.396
| 16> C 	 -70.0823 	 7.26851 	 -109.219
| 17> H 	 -70.7391 	 6.41168 	 -109.144
| 18> H 	 -69.0635 	 6.92909 	 -109.321
| 19> C 	 -70.2244 	 8.11653 	 -107.995
| 20> H 	 -70.3351 	 7.48841 	 -107.058
| 21> H 	 -69.3668 	 8.77165 	 -107.842
| 22> H 	 -71.0881 	 8.71078 	 -108.054
| 23> S 	 -67.3789 	 6.54361 	 -116.047
| 24> C 	 -65.6767 	 6.68479 	 -116.262
| 25> C 	 -65.0576 	 6.49671 	 -115.06
| 26> C 	 -65.9903 	 6.50694 	 -113.999
| 27> C 	 -67.2773 	 6.8959 	 -114.367
| 28> H 	 -64.0467 	 6.47717 	 -114.86
| 29> C 	 -65.5771 	 6.1411 	 -112.589
| 30> H 	 -65.1246 	 5.15337 	 -112.599
| 31> H 	 -66.4968 	 6.04722 	 -111.991
| 32> C 	 -64.4926 	 7.14487 	 -112.043
| 33> H 	 -63.6233 	 7.00376 	 -112.654
| 34> H 	 -64.3002 	 6.88911 	 -110.924
| 35> C 	 -65.0021 	 8.62849 	 -112.097
| 36> H 	 -65.8289 	 8.60513 	 -111.41
| 37> H 	 -65.3502 	 8.79864 	 -113.102
| 38> H 	 -64.2483 	 9.32705 	 -111.804
| 39> H 	 -71.4076 	 5.81245 	 -111.894
| 40> H 	 -65.1318 	 6.75674 	 -117.193
| 41> *
| 42>
| 43>                          ****END OF INPUT****

CARTESIAN COORDINATES (ANGSTROEM)
---------------------------------
  S    -69.886700    5.886070  -113.796000
  C    -70.584400    6.362810  -112.365000
  C    -69.980900    7.427830  -111.754000
  C    -68.812300    7.829120  -112.555000
  C    -68.486200    6.894470  -113.547000
  H    -68.195200    8.711140  -112.321000
  C    -70.502000    8.084190  -110.457000
  H    -71.588600    8.122050  -110.510000
  H    -70.163700    9.127620  -110.396000
  C    -70.082300    7.268510  -109.219000
  H    -70.739100    6.411680  -109.144000
  H    -69.063500    6.929090  -109.321000
  C    -70.224400    8.116530  -107.995000
  H    -70.335100    7.488410  -107.058000
  H    -69.366800    8.771650  -107.842000
  H    -71.088100    8.710780  -108.054000
  S    -67.378900    6.543610  -116.047000
  C    -65.676700    6.684790  -116.262000
  C    -65.057600    6.496710  -115.060000
  C    -65.990300    6.506940  -113.999000
  C    -67.277300    6.895900  -114.367000
  H    -64.046700    6.477170  -114.860000
  C    -65.577100    6.141100  -112.589000
  H    -65.124600    5.153370  -112.599000
  H    -66.496800    6.047220  -111.991000
  C    -64.492600    7.144870  -112.043000
  H    -63.623300    7.003760  -112.654000
  H    -64.300200    6.889110  -110.924000
  C    -65.002100    8.628490  -112.097000
  H    -65.828900    8.605130  -111.410000
  H    -65.350200    8.798640  -113.102000
  H    -64.248300    9.327050  -111.804000
  H    -71.407600    5.812450  -111.894000
  H    -65.131800    6.756740  -117.193000

 Total Charge           Charge          ....    0
 Multiplicity           Mult            ....    1
 Number of Electrons    NEL             ....  134
 Basis Dimension        Dim             ....  322

ORBITAL ENERGIES
----------------

  NO   OCC          E(Eh)            E(eV)
   0   2.0000     -88.963777     -2420.8274
   1   2.0000     -88.960976     -2420.7512
   2   2.0000     -10.329561      -281.0817
   3   2.0000     -10.322209      -280.8816
   4   2.0000     -10.317371      -280.7499
   5   2.0000     -10.305152      -280.4174
   6   2.0000     -10.300700      -280.2963
   7   2.0000     -10.300128      -280.2807
   8   2.0000     -10.299438      -280.2619
   9   2.0000     -10.295638      -280.1586
  10   2.0000     -10.294401      -280.1249
  11   2.0000     -10.288914      -279.9756
  12   2.0000     -10.285608      -279.8856
  13   2.0000     -10.282286      -279.7952
  14   2.0000     -10.275289      -279.6048
  15   2.0000     -10.270834      -279.4836
  16   2.0000      -8.080478      -219.8810
  17   2.0000      -8.077231      -219.7926
  18   2.0000      -6.038953      -164.3283
  19   2.0000      -6.035728      -164.2405
  20   2.0000      -6.034730      -164.2133
  21   2.0000      -6.031847      -164.1349
  22   2.0000      -6.031139      -164.1156
  23   2.0000      -6.027568      -164.0185
  24   2.0000      -1.016902       -27.6713
  25   2.0000      -0.995893       -27.0996
  26   2.0000      -0.915324       -24.9072
  27   2.0000      -0.905015       -24.6267
  28   2.0000      -0.875546       -23.8248
  29   2.0000      -0.848689       -23.0940
  30   2.0000      -0.842301       -22.9202
  31   2.0000      -0.817169       -22.2363
  32   2.0000      -0.779436       -21.2095
  33   2.0000      -0.769787       -20.9470
  34   2.0000      -0.701831       -19.0978
  35   2.0000      -0.700145       -19.0519
  36   2.0000      -0.694549       -18.8996
  37   2.0000      -0.661358       -17.9965
  38   2.0000      -0.641614       -17.4592
  39   2.0000      -0.617054       -16.7909
  40   2.0000      -0.598107       -16.2753
  41   2.0000      -0.572496       -15.5784
  42   2.0000      -0.569579       -15.4990
  43   2.0000      -0.551566       -15.0089
  44   2.0000      -0.543021       -14.7763
  45   2.0000      -0.525051       -14.2874
  46   2.0000      -0.523195       -14.2369
  47   2.0000      -0.512266       -13.9395
  48   2.0000      -0.505779       -13.7630
  49   2.0000      -0.501768       -13.6538
  50   2.0000      -0.490578       -13.3493
  51   2.0000      -0.485355       -13.2072
  52   2.0000      -0.469697       -12.7811
  53   2.0000      -0.460757       -12.5378
  54   2.0000      -0.459372       -12.5001
  55   2.0000      -0.451868       -12.2960
  56   2.0000      -0.442411       -12.0386
  57   2.0000      -0.435725       -11.8567
  58   2.0000      -0.433376       -11.7928
  59   2.0000      -0.425283       -11.5725
  60   2.0000      -0.423937       -11.5359
  61   2.0000      -0.420303       -11.4370
  62   2.0000      -0.409565       -11.1448
  63   2.0000      -0.350601        -9.5404
  64   2.0000      -0.327231        -8.9044
  65   2.0000      -0.321212        -8.7406
  66   2.0000      -0.288771        -7.8579
  67   0.0000       0.029520         0.8033
  68   0.0000       0.060960         1.6588
  69   0.0000       0.103115         2.8059
  70   0.0000       0.118131         3.2145
  71   0.0000       0.134012         3.6466

MULLIKEN ATOMIC CHARGES
-----------------------
   0 S :    0.129135
   1 C :   -0.116161
   2 C :   -0.114286
   3 C :    0.010363
   4 C :   -0.170483
   5 H :    0.024932
   6 C :    0.049554
   7 H :    0.030967
   8 H :    0.026320
   9 C :   -0.052076
  10 H :    0.024634
  11 H :    0.032900
  12 C :   -0.043108
  13 H :    0.034904
  14 H :    0.035388
  15 H :    0.016946
  16 S :    0.091284
  17 C :   -0.063524
  18 C :    0.015048
  19 C :   -0.112340
  20 C :   -0.125341
  21 H :   -0.012146
  22 C :    0.081163
  23 H :    0.035125
  24 H :    0.037839
  25 C :   -0.126978
  26 H :    0.028711
  27 H :    0.045258
  28 C :   -0.029643
  29 H :    0.025518
  30 H :    0.044292
  31 H :    0.037298
  32 H :    0.052443
  33 H :    0.056067
Sum of atomic charges:   -0.0000000

LOEWDIN ATOMIC CHARGES
----------------------
   0 S :    0.436046
   1 C :   -0.226599
   2 C :   -0.067390
   3 C :   -0.062543
   4 C :   -0.201552
   5 H :    0.032487
   6 C :   -0.027879
   7 H :    0.030721
   8 H :    0.029900
   9 C :   -0.037605
  10 H :    0.022616
  11 H :    0.023873
  12 C :   -0.064846
  13 H :    0.031957
  14 H :    0.026013
  15 H :    0.015879
  16 S :    0.419293
  17 C :   -0.174477
  18 C :   -0.068321
  19 C :   -0.048785
  20 C :   -0.215346
  21 H :    0.017822
  22 C :   -0.033274
  23 H :    0.033848
  24 H :    0.030987
  25 C :   -0.037322
  26 H :    0.012189
  27 H :    0.031680
  28 C :   -0.060355
  29 H :    0.021505
  30 H :    0.022959
  31 H :    0.022681
  32 H :    0.031685
  33 H :    0.032152

  Mayer bond orders larger than 0.100000
B(  0-S ,  1-C ) :   1.1617 B(  0-S ,  4-C ) :   1.1511 B(  1-C ,  2-C ) :   1.6153
B(  1-C , 32-H ) :   0.9604 B(  2-C ,  3-C ) :   1.2414 B(  2-C ,  6-C ) :   1.0226
B(  3-C ,  4-C ) :   1.5633 B(  3-C ,  5-H ) :   0.9912 B(  4-C , 20-C ) :   1.0642
B(  6-C ,  7-H ) :   0.9374 B(  6-C ,  8-H ) :   0.9501 B(  6-C ,  9-C ) :   1.0575
B(  9-C , 10-H ) :   0.9527 B(  9-C , 11-H ) :   0.9616 B(  9-C , 12-C ) :   1.0899
B( 12-C , 13-H ) :   0.9724 B( 12-C , 14-H ) :   0.9764 B( 12-C , 15-H ) :   0.9699
B( 16-S , 17-C ) :   1.1789 B( 16-S , 20-C ) :   1.1267 B( 17-C , 18-C ) :   1.5636
B( 17-C , 20-C ) :   0.1000 B( 17-C , 33-H ) :   0.9731 B( 18-C , 19-C ) :   1.2590
B( 18-C , 21-H ) :   1.0075 B( 19-C , 20-C ) :   1.5520 B( 19-C , 22-C ) :   1.0449
B( 22-C , 23-H ) :   0.9376 B( 22-C , 24-H ) :   0.9358 B( 22-C , 25-C ) :   1.0499
B( 25-C , 26-H ) :   0.9606 B( 25-C , 27-H ) :   0.9597 B( 25-C , 28-C ) :   1.0654
B( 28-C , 29-H ) :   0.9752 B( 28-C , 30-H ) :   0.9709 B( 28-C , 31-H ) :   0.9737

Dispersion correction           -0.015009112
FINAL SINGLE POINT ENERGY     -1339.859459319972

DIPOLE MOMENT
-------------
                                X             Y             Z
Electronic contribution:     -5.91557      -9.34799     -28.51675
Nuclear contribution   :      6.20756       9.38361      29.09960
                        -----------------------------------------
Total Dipole Moment    :      0.29199       0.03562       0.58285
                        -----------------------------------------
Magnitude (a.u.)       :      0.65287
Magnitude (Debye)      :      1.65948

Rotational constants in cm-1:     0.020831     0.008861     0.006687
Rotational constants in MHz :   624.487484   265.647663   200.478173

                             ****ORCA TERMINATED NORMALLY****
TOTAL RUN TIME: 0 days 0 hours 0 minutes 22 seconds 360 msec
