                         Program Version 4.2.1 -  RELEASE  -
|  1> ! wB97X-D3 SP def2-SVP
|  2> %pal
|  3> nprocs 24
|  4> end
|  5>
|  6> * xyz 0 1
|  7> S 	 -106.932 	 53.0404 	 -86.6478
|  8> C 	 -108.376 	 52.0824 	 -86.7189
|  9> C 	 -109.511 	 52.8958 	 -86.8106
| 10> C 	 -109.136 	 54.2892 	 -86.778
| 11> C 	 -107.798 	 54.5764 	 -86.5971
| 12> H 	 -109.852 	 55.0668 	 -86.7791
| 13> C 	 -110.957 	 52.3776 	 -87.118
| 14> H 	 -110.891 	 51.2546 	 -86.7841
| 15> H 	 -111.156 	 52.3448 	 -88.1862
| 16> C 	 -112.046 	 53.0366 	 -86.2812
| 17> H 	 -112.193 	 54.0942 	 -86.6344
| 18> H 	 -112.999 	 52.5293 	 -86.5793
| 19> C 	 -111.951 	 53.0262 	 -84.7827
| 20> H 	 -111.639 	 52.0292 	 -84.3246
| 21> H 	 -111.364 	 53.9399 	 -84.3513
| 22> H 	 -112.919 	 53.2457 	 -84.3093
| 23> S 	 -105.96 	 56.1851 	 -85.3343
| 24> C 	 -105.973 	 57.8965 	 -85.7086
| 25> C 	 -106.593 	 58.0966 	 -86.9403
| 26> C 	 -107.297 	 56.9556 	 -87.391
| 27> C 	 -107.117 	 55.8592 	 -86.5898
| 28> H 	 -106.584 	 59.1183 	 -87.382
| 29> C 	 -108.286 	 57.0576 	 -88.5506
| 30> H 	 -108.57 	 56.1119 	 -88.8975
| 31> H 	 -107.78 	 57.5163 	 -89.4408
| 32> C 	 -109.47 	 57.8771 	 -88.276
| 33> H 	 -109.225 	 58.921 	 -88.1817
| 34> H 	 -109.868 	 57.5586 	 -87.2901
| 35> C 	 -110.346 	 57.8693 	 -89.5144
| 36> H 	 -109.937 	 58.1535 	 -90.5275
| 37> H 	 -111.298 	 58.3853 	 -89.3487
| 38> H 	 -110.742 	 56.8587 	 -89.7457
| 39> H 	 -108.45 	 51.0493 	 -86.6159
| 40> H 	 -105.395 	 58.6711 	 -85.2172
| 41> *
| 42>
| 43>                          ****END OF INPUT****

CARTESIAN COORDINATES (ANGSTROEM)
---------------------------------
  S    -106.932000   53.040400  -86.647800
  C    -108.376000   52.082400  -86.718900
  C    -109.511000   52.895800  -86.810600
  C    -109.136000   54.289200  -86.778000
  C    -107.798000   54.576400  -86.597100
  H    -109.852000   55.066800  -86.779100
  C    -110.957000   52.377600  -87.118000
  H    -110.891000   51.254600  -86.784100
  H    -111.156000   52.344800  -88.186200
  C    -112.046000   53.036600  -86.281200
  H    -112.193000   54.094200  -86.634400
  H    -112.999000   52.529300  -86.579300
  C    -111.951000   53.026200  -84.782700
  H    -111.639000   52.029200  -84.324600
  H    -111.364000   53.939900  -84.351300
  H    -112.919000   53.245700  -84.309300
  S    -105.960000   56.185100  -85.334300
  C    -105.973000   57.896500  -85.708600
  C    -106.593000   58.096600  -86.940300
  C    -107.297000   56.955600  -87.391000
  C    -107.117000   55.859200  -86.589800
  H    -106.584000   59.118300  -87.382000
  C    -108.286000   57.057600  -88.550600
  H    -108.570000   56.111900  -88.897500
  H    -107.780000   57.516300  -89.440800
  C    -109.470000   57.877100  -88.276000
  H    -109.225000   58.921000  -88.181700
  H    -109.868000   57.558600  -87.290100
  C    -110.346000   57.869300  -89.514400
  H    -109.937000   58.153500  -90.527500
  H    -111.298000   58.385300  -89.348700
  H    -110.742000   56.858700  -89.745700
  H    -108.450000   51.049300  -86.615900
  H    -105.395000   58.671100  -85.217200

 Total Charge           Charge          ....    0
 Multiplicity           Mult            ....    1
 Number of Electrons    NEL             ....  134
 Basis Dimension        Dim             ....  322

ORBITAL ENERGIES
----------------

  NO   OCC          E(Eh)            E(eV)
   0   2.0000     -88.966062     -2420.8896
   1   2.0000     -88.963426     -2420.8179
   2   2.0000     -10.329965      -281.0926
   3   2.0000     -10.325112      -280.9606
   4   2.0000     -10.320728      -280.8413
   5   2.0000     -10.310701      -280.5684
   6   2.0000     -10.306492      -280.4539
   7   2.0000     -10.303934      -280.3843
   8   2.0000     -10.301670      -280.3227
   9   2.0000     -10.297987      -280.2225
  10   2.0000     -10.294360      -280.1238
  11   2.0000     -10.291454      -280.0447
  12   2.0000     -10.289685      -279.9966
  13   2.0000     -10.284929      -279.8672
  14   2.0000     -10.284635      -279.8591
  15   2.0000     -10.283612      -279.8313
  16   2.0000      -8.081128      -219.8987
  17   2.0000      -8.078219      -219.8195
  18   2.0000      -6.039629      -164.3467
  19   2.0000      -6.036823      -164.2703
  20   2.0000      -6.035638      -164.2381
  21   2.0000      -6.032638      -164.1564
  22   2.0000      -6.031809      -164.1339
  23   2.0000      -6.028948      -164.0560
  24   2.0000      -1.009147       -27.4603
  25   2.0000      -0.984253       -26.7829
  26   2.0000      -0.922937       -25.1144
  27   2.0000      -0.907624       -24.6977
  28   2.0000      -0.870891       -23.6982
  29   2.0000      -0.852170       -23.1887
  30   2.0000      -0.839585       -22.8463
  31   2.0000      -0.815493       -22.1907
  32   2.0000      -0.782140       -21.2831
  33   2.0000      -0.773396       -21.0452
  34   2.0000      -0.708058       -19.2672
  35   2.0000      -0.701274       -19.0826
  36   2.0000      -0.687938       -18.7197
  37   2.0000      -0.660302       -17.9677
  38   2.0000      -0.640538       -17.4299
  39   2.0000      -0.622690       -16.9443
  40   2.0000      -0.601633       -16.3713
  41   2.0000      -0.571941       -15.5633
  42   2.0000      -0.565153       -15.3786
  43   2.0000      -0.556186       -15.1346
  44   2.0000      -0.533023       -14.5043
  45   2.0000      -0.530659       -14.4400
  46   2.0000      -0.516713       -14.0605
  47   2.0000      -0.514503       -14.0003
  48   2.0000      -0.504640       -13.7319
  49   2.0000      -0.500265       -13.6129
  50   2.0000      -0.484789       -13.1918
  51   2.0000      -0.479852       -13.0574
  52   2.0000      -0.468907       -12.7596
  53   2.0000      -0.461665       -12.5626
  54   2.0000      -0.457354       -12.4452
  55   2.0000      -0.452719       -12.3191
  56   2.0000      -0.451401       -12.2832
  57   2.0000      -0.437531       -11.9058
  58   2.0000      -0.430416       -11.7122
  59   2.0000      -0.421558       -11.4712
  60   2.0000      -0.415291       -11.3006
  61   2.0000      -0.411645       -11.2014
  62   2.0000      -0.402020       -10.9395
  63   2.0000      -0.347856        -9.4657
  64   2.0000      -0.331935        -9.0324
  65   2.0000      -0.328233        -8.9317
  66   2.0000      -0.294006        -8.0003
  67   0.0000       0.030062         0.8180
  68   0.0000       0.067467         1.8359
  69   0.0000       0.113180         3.0798
  70   0.0000       0.118981         3.2376
  71   0.0000       0.129625         3.5273

MULLIKEN ATOMIC CHARGES
-----------------------
   0 S :    0.102421
   1 C :   -0.090737
   2 C :   -0.098750
   3 C :    0.028499
   4 C :   -0.122722
   5 H :   -0.018122
   6 C :    0.043888
   7 H :    0.027308
   8 H :    0.056349
   9 C :   -0.095752
  10 H :    0.034595
  11 H :    0.034255
  12 C :   -0.079716
  13 H :    0.046674
  14 H :    0.050937
  15 H :    0.031075
  16 S :    0.114817
  17 C :   -0.099357
  18 C :   -0.057903
  19 C :   -0.010986
  20 C :   -0.156407
  21 H :    0.037181
  22 C :    0.068137
  23 H :    0.005908
  24 H :    0.021652
  25 C :   -0.045934
  26 H :    0.023631
  27 H :    0.038770
  28 C :   -0.067096
  29 H :    0.044550
  30 H :    0.031659
  31 H :    0.014340
  32 H :    0.025892
  33 H :    0.060943
Sum of atomic charges:   -0.0000000

LOEWDIN ATOMIC CHARGES
----------------------
   0 S :    0.404621
   1 C :   -0.192301
   2 C :   -0.064935
   3 C :   -0.063248
   4 C :   -0.187272
   5 H :    0.018233
   6 C :   -0.032731
   7 H :    0.037219
   8 H :    0.035163
   9 C :   -0.060271
  10 H :    0.027739
  11 H :    0.030485
  12 C :   -0.083723
  13 H :    0.033408
  14 H :    0.039798
  15 H :    0.028510
  16 S :    0.412296
  17 C :   -0.181324
  18 C :   -0.072994
  19 C :   -0.052404
  20 C :   -0.207172
  21 H :    0.039146
  22 C :   -0.029858
  23 H :    0.018629
  24 H :    0.036104
  25 C :   -0.043458
  26 H :    0.023709
  27 H :    0.029244
  28 C :   -0.075388
  29 H :    0.035956
  30 H :    0.026491
  31 H :    0.022798
  32 H :    0.016627
  33 H :    0.030904

  Mayer bond orders larger than 0.100000
B(  0-S ,  1-C ) :   1.1504 B(  0-S ,  4-C ) :   1.1449 B(  1-C ,  2-C ) :   1.6047
B(  1-C ,  4-C ) :   0.1029 B(  1-C , 32-H ) :   0.9717 B(  2-C ,  3-C ) :   1.2501
B(  2-C ,  6-C ) :   1.0020 B(  3-C ,  4-C ) :   1.5766 B(  3-C ,  5-H ) :   1.0030
B(  4-C , 20-C ) :   1.0328 B(  6-C ,  7-H ) :   0.9404 B(  6-C ,  8-H ) :   0.9488
B(  6-C ,  9-C ) :   1.0743 B(  9-C , 10-H ) :   0.9479 B(  9-C , 11-H ) :   0.9548
B(  9-C , 12-C ) :   1.0828 B( 12-C , 13-H ) :   0.9724 B( 12-C , 14-H ) :   0.9679
B( 12-C , 15-H ) :   0.9702 B( 16-S , 17-C ) :   1.1625 B( 16-S , 20-C ) :   1.1341
B( 17-C , 18-C ) :   1.6027 B( 17-C , 20-C ) :   0.1030 B( 17-C , 33-H ) :   0.9674
B( 18-C , 19-C ) :   1.2341 B( 18-C , 21-H ) :   0.9861 B( 19-C , 20-C ) :   1.5975
B( 19-C , 22-C ) :   1.0480 B( 22-C , 23-H ) :   0.9352 B( 22-C , 24-H ) :   0.9261
B( 22-C , 25-C ) :   1.0720 B( 25-C , 26-H ) :   0.9450 B( 25-C , 27-H ) :   0.9498
B( 25-C , 28-C ) :   1.0762 B( 28-C , 29-H ) :   0.9714 B( 28-C , 30-H ) :   0.9718
B( 28-C , 31-H ) :   0.9709

Dispersion correction           -0.014591439
FINAL SINGLE POINT ENERGY     -1339.871078201565

DIPOLE MOMENT
-------------
                                X             Y             Z
Electronic contribution:     27.82067      -4.18018       8.05991
Nuclear contribution   :    -28.49424       4.50740      -8.35997
                        -----------------------------------------
Total Dipole Moment    :     -0.67357       0.32722      -0.30006
                        -----------------------------------------
Magnitude (a.u.)       :      0.80672
Magnitude (Debye)      :      2.05053

Rotational constants in cm-1:     0.016655     0.009704     0.007298
Rotational constants in MHz :   499.299830   290.911045   218.801377

                             ****ORCA TERMINATED NORMALLY****
TOTAL RUN TIME: 0 days 0 hours 0 minutes 22 seconds 265 msec
