                         Program Version 4.2.1 -  RELEASE  -
|  1> ! wB97X-D3 SP def2-SVP
|  2> %pal
|  3> nprocs 24
|  4> end
|  5>
|  6> * xyz 0 1
|  7> S 	 -101.102 	 -2.69785 	 -109.903
|  8> C 	 -100.071 	 -3.84389 	 -110.763
|  9> C 	 -100.203 	 -5.11012 	 -110.346
| 10> C 	 -100.965 	 -5.18041 	 -109.093
| 11> C 	 -101.392 	 -3.95214 	 -108.694
| 12> H 	 -101.225 	 -6.05433 	 -108.487
| 13> C 	 -99.8078 	 -6.32361 	 -111.097
| 14> H 	 -98.8267 	 -6.20952 	 -111.232
| 15> H 	 -100.104 	 -6.29693 	 -112.153
| 16> C 	 -100.002 	 -7.71277 	 -110.443
| 17> H 	 -101.108 	 -7.70551 	 -110.132
| 18> H 	 -99.776 	 -8.4858 	 -111.124
| 19> C 	 -99.1079 	 -7.9245 	 -109.247
| 20> H 	 -99.0571 	 -7.08058 	 -108.53
| 21> H 	 -99.6198 	 -8.7232 	 -108.713
| 22> H 	 -98.0569 	 -8.24062 	 -109.488
| 23> S 	 -103.911 	 -3.02355 	 -107.997
| 24> C 	 -104.482 	 -3.21148 	 -106.308
| 25> C 	 -103.531 	 -3.90847 	 -105.505
| 26> C 	 -102.331 	 -4.24907 	 -106.241
| 27> C 	 -102.402 	 -3.84605 	 -107.6
| 28> H 	 -103.777 	 -4.07476 	 -104.533
| 29> C 	 -101.171 	 -4.92913 	 -105.582
| 30> H 	 -100.986 	 -4.48104 	 -104.586
| 31> H 	 -100.162 	 -4.78316 	 -106.083
| 32> C 	 -101.231 	 -6.4969 	 -105.398
| 33> H 	 -101.542 	 -6.94221 	 -106.349
| 34> H 	 -101.969 	 -6.62294 	 -104.604
| 35> C 	 -99.9032 	 -7.04984 	 -104.783
| 36> H 	 -99.0601 	 -7.0032 	 -105.479
| 37> H 	 -100.195 	 -8.08223 	 -104.666
| 38> H 	 -99.482 	 -6.62891 	 -103.868
| 39> H 	 -99.5581 	 -3.64172 	 -111.674
| 40> H 	 -105.437 	 -2.78921 	 -106.056
| 41> *
| 42>
| 43>                          ****END OF INPUT****

CARTESIAN COORDINATES (ANGSTROEM)
---------------------------------
  S    -101.102000   -2.697850  -109.903000
  C    -100.071000   -3.843890  -110.763000
  C    -100.203000   -5.110120  -110.346000
  C    -100.965000   -5.180410  -109.093000
  C    -101.392000   -3.952140  -108.694000
  H    -101.225000   -6.054330  -108.487000
  C    -99.807800   -6.323610  -111.097000
  H    -98.826700   -6.209520  -111.232000
  H    -100.104000   -6.296930  -112.153000
  C    -100.002000   -7.712770  -110.443000
  H    -101.108000   -7.705510  -110.132000
  H    -99.776000   -8.485800  -111.124000
  C    -99.107900   -7.924500  -109.247000
  H    -99.057100   -7.080580  -108.530000
  H    -99.619800   -8.723200  -108.713000
  H    -98.056900   -8.240620  -109.488000
  S    -103.911000   -3.023550  -107.997000
  C    -104.482000   -3.211480  -106.308000
  C    -103.531000   -3.908470  -105.505000
  C    -102.331000   -4.249070  -106.241000
  C    -102.402000   -3.846050  -107.600000
  H    -103.777000   -4.074760  -104.533000
  C    -101.171000   -4.929130  -105.582000
  H    -100.986000   -4.481040  -104.586000
  H    -100.162000   -4.783160  -106.083000
  C    -101.231000   -6.496900  -105.398000
  H    -101.542000   -6.942210  -106.349000
  H    -101.969000   -6.622940  -104.604000
  C    -99.903200   -7.049840  -104.783000
  H    -99.060100   -7.003200  -105.479000
  H    -100.195000   -8.082230  -104.666000
  H    -99.482000   -6.628910  -103.868000
  H    -99.558100   -3.641720  -111.674000
  H    -105.437000   -2.789210  -106.056000

 Total Charge           Charge          ....    0
 Multiplicity           Mult            ....    1
 Number of Electrons    NEL             ....  134
 Basis Dimension        Dim             ....  322

ORBITAL ENERGIES
----------------

  NO   OCC          E(Eh)            E(eV)
   0   2.0000     -88.967550     -2420.9301
   1   2.0000     -88.965487     -2420.8740
   2   2.0000     -10.332083      -281.1503
   3   2.0000     -10.328474      -281.0521
   4   2.0000     -10.322852      -280.8991
   5   2.0000     -10.308481      -280.5080
   6   2.0000     -10.306620      -280.4574
   7   2.0000     -10.299397      -280.2608
   8   2.0000     -10.297423      -280.2071
   9   2.0000     -10.295056      -280.1427
  10   2.0000     -10.294601      -280.1303
  11   2.0000     -10.293676      -280.1052
  12   2.0000     -10.292572      -280.0751
  13   2.0000     -10.282692      -279.8063
  14   2.0000     -10.281670      -279.7785
  15   2.0000     -10.279537      -279.7204
  16   2.0000      -8.081737      -219.9152
  17   2.0000      -8.079306      -219.8491
  18   2.0000      -6.040414      -164.3680
  19   2.0000      -6.037791      -164.2967
  20   2.0000      -6.036692      -164.2667
  21   2.0000      -6.033916      -164.1912
  22   2.0000      -6.031981      -164.1386
  23   2.0000      -6.030207      -164.0903
  24   2.0000      -1.002009       -27.2661
  25   2.0000      -0.974732       -26.5238
  26   2.0000      -0.918424       -24.9916
  27   2.0000      -0.900897       -24.5147
  28   2.0000      -0.869489       -23.6600
  29   2.0000      -0.849658       -23.1204
  30   2.0000      -0.844718       -22.9859
  31   2.0000      -0.816113       -22.2076
  32   2.0000      -0.784908       -21.3584
  33   2.0000      -0.769567       -20.9410
  34   2.0000      -0.706212       -19.2170
  35   2.0000      -0.697773       -18.9874
  36   2.0000      -0.689957       -18.7747
  37   2.0000      -0.665642       -18.1130
  38   2.0000      -0.640015       -17.4157
  39   2.0000      -0.626123       -17.0377
  40   2.0000      -0.595556       -16.2059
  41   2.0000      -0.569954       -15.5092
  42   2.0000      -0.560518       -15.2525
  43   2.0000      -0.549462       -14.9516
  44   2.0000      -0.542998       -14.7757
  45   2.0000      -0.525604       -14.3024
  46   2.0000      -0.521278       -14.1847
  47   2.0000      -0.508863       -13.8469
  48   2.0000      -0.504154       -13.7187
  49   2.0000      -0.501666       -13.6510
  50   2.0000      -0.491534       -13.3753
  51   2.0000      -0.481874       -13.1125
  52   2.0000      -0.467330       -12.7167
  53   2.0000      -0.460655       -12.5351
  54   2.0000      -0.455661       -12.3992
  55   2.0000      -0.450440       -12.2571
  56   2.0000      -0.446311       -12.1447
  57   2.0000      -0.436126       -11.8676
  58   2.0000      -0.432204       -11.7609
  59   2.0000      -0.430063       -11.7026
  60   2.0000      -0.421654       -11.4738
  61   2.0000      -0.413001       -11.2383
  62   2.0000      -0.410919       -11.1817
  63   2.0000      -0.347029        -9.4431
  64   2.0000      -0.328833        -8.9480
  65   2.0000      -0.325281        -8.8513
  66   2.0000      -0.288692        -7.8557
  67   0.0000       0.029705         0.8083
  68   0.0000       0.066343         1.8053
  69   0.0000       0.101112         2.7514
  70   0.0000       0.116674         3.1749
  71   0.0000       0.128269         3.4904

MULLIKEN ATOMIC CHARGES
-----------------------
   0 S :    0.103814
   1 C :   -0.114117
   2 C :   -0.070563
   3 C :   -0.002701
   4 C :   -0.102586
   5 H :    0.009840
   6 C :    0.123547
   7 H :   -0.016480
   8 H :    0.030748
   9 C :   -0.071362
  10 H :    0.047730
  11 H :    0.026574
  12 C :   -0.086322
  13 H :    0.044194
  14 H :    0.032143
  15 H :    0.045435
  16 S :    0.090086
  17 C :   -0.114478
  18 C :    0.018500
  19 C :   -0.000772
  20 C :   -0.165420
  21 H :   -0.013751
  22 C :   -0.005307
  23 H :    0.025809
  24 H :    0.032210
  25 C :   -0.082506
  26 H :    0.042179
  27 H :    0.029746
  28 C :   -0.052437
  29 H :    0.030800
  30 H :    0.037925
  31 H :    0.039852
  32 H :    0.027478
  33 H :    0.060190
Sum of atomic charges:    0.0000000

LOEWDIN ATOMIC CHARGES
----------------------
   0 S :    0.384450
   1 C :   -0.186220
   2 C :   -0.052351
   3 C :   -0.059167
   4 C :   -0.185844
   5 H :    0.032045
   6 C :   -0.038471
   7 H :    0.017599
   8 H :    0.038152
   9 C :   -0.036770
  10 H :    0.032437
  11 H :    0.024713
  12 C :   -0.074080
  13 H :    0.025261
  14 H :    0.029195
  15 H :    0.031668
  16 S :    0.380986
  17 C :   -0.170688
  18 C :   -0.048991
  19 C :   -0.062857
  20 C :   -0.183617
  21 H :    0.015391
  22 C :   -0.049239
  23 H :    0.031459
  24 H :    0.033263
  25 C :   -0.032406
  26 H :    0.022593
  27 H :    0.023155
  28 C :   -0.068463
  29 H :    0.022956
  30 H :    0.029729
  31 H :    0.028938
  32 H :    0.022646
  33 H :    0.022531

  Mayer bond orders larger than 0.100000
B(  0-S ,  1-C ) :   1.1048 B(  0-S ,  4-C ) :   1.1318 B(  1-C ,  2-C ) :   1.6853
B(  1-C , 32-H ) :   0.9700 B(  2-C ,  3-C ) :   1.1863 B(  2-C ,  6-C ) :   1.0041
B(  3-C ,  4-C ) :   1.6065 B(  3-C ,  5-H ) :   0.9851 B(  4-C , 20-C ) :   1.0278
B(  6-C ,  7-H ) :   0.9056 B(  6-C ,  8-H ) :   0.9283 B(  6-C ,  9-C ) :   1.0810
B(  9-C , 10-H ) :   0.9572 B(  9-C , 11-H ) :   0.9482 B(  9-C , 12-C ) :   1.0693
B( 12-C , 13-H ) :   0.9769 B( 12-C , 14-H ) :   0.9729 B( 12-C , 15-H ) :   0.9709
B( 16-S , 17-C ) :   1.1491 B( 16-S , 20-C ) :   1.1471 B( 17-C , 18-C ) :   1.5892
B( 17-C , 20-C ) :   0.1002 B( 17-C , 33-H ) :   0.9732 B( 18-C , 19-C ) :   1.2245
B( 18-C , 21-H ) :   1.0097 B( 19-C , 20-C ) :   1.5872 B( 19-C , 22-C ) :   1.0542
B( 22-C , 23-H ) :   0.9363 B( 22-C , 24-H ) :   0.9403 B( 22-C , 25-C ) :   1.0502
B( 25-C , 26-H ) :   0.9546 B( 25-C , 27-H ) :   0.9576 B( 25-C , 28-C ) :   1.0684
B( 28-C , 29-H ) :   0.9755 B( 28-C , 30-H ) :   0.9754 B( 28-C , 31-H ) :   0.9750

Dispersion correction           -0.015153503
FINAL SINGLE POINT ENERGY     -1339.849942932039

DIPOLE MOMENT
-------------
                                X             Y             Z
Electronic contribution:    -15.43360      26.38510      -8.78175
Nuclear contribution   :     15.69183     -27.08112       8.85636
                        -----------------------------------------
Total Dipole Moment    :      0.25823      -0.69602       0.07461
                        -----------------------------------------
Magnitude (a.u.)       :      0.74611
Magnitude (Debye)      :      1.89647

Rotational constants in cm-1:     0.015492     0.011177     0.007252
Rotational constants in MHz :   464.432518   335.090378   217.417990

                             ****ORCA TERMINATED NORMALLY****
TOTAL RUN TIME: 0 days 0 hours 0 minutes 21 seconds 453 msec
