                         Program Version 4.2.1 -  RELEASE  -
|  1> ! wB97X-D3 SP def2-SVP
|  2> %pal
|  3> nprocs 24
|  4> end
|  5>
|  6> * xyz 0 1
|  7> S 	 -36.2167 	 -7.37598 	 18.4767
|  8> C 	 -36.0586 	 -9.14452 	 18.5235
|  9> C 	 -37.2331 	 -9.78267 	 18.8575
| 10> C 	 -38.1716 	 -8.80849 	 19.3132
| 11> C 	 -37.7267 	 -7.49644 	 19.2956
| 12> H 	 -39.1661 	 -9.08064 	 19.6948
| 13> C 	 -37.656 	 -11.2317 	 18.8521
| 14> H 	 -38.5944 	 -11.2824 	 19.4407
| 15> H 	 -36.9512 	 -11.8009 	 19.4366
| 16> C 	 -37.8204 	 -11.9246 	 17.478
| 17> H 	 -38.6636 	 -11.5757 	 16.8721
| 18> H 	 -37.0356 	 -11.6383 	 16.8367
| 19> C 	 -37.9955 	 -13.4319 	 17.5578
| 20> H 	 -38.2076 	 -13.8434 	 16.6345
| 21> H 	 -37.1767 	 -13.9559 	 18.0725
| 22> H 	 -38.9327 	 -13.5856 	 18.1233
| 23> S 	 -37.6162 	 -5.42859 	 21.1283
| 24> C 	 -39.0611 	 -4.37398 	 21.2915
| 25> C 	 -40.0421 	 -4.71085 	 20.3939
| 26> C 	 -39.6483 	 -5.81596 	 19.5858
| 27> C 	 -38.3757 	 -6.30445 	 19.8362
| 28> H 	 -41.029 	 -4.18874 	 20.4388
| 29> C 	 -40.6091 	 -6.44993 	 18.6493
| 30> H 	 -41.6147 	 -6.59988 	 19.184
| 31> H 	 -40.5673 	 -7.47708 	 18.3972
| 32> C 	 -40.8188 	 -5.60235 	 17.4183
| 33> H 	 -39.8771 	 -5.2293 	 17.1491
| 34> H 	 -41.3919 	 -4.70524 	 17.5693
| 35> C 	 -41.4992 	 -6.49797 	 16.3375
| 36> H 	 -42.5068 	 -6.66262 	 16.6745
| 37> H 	 -41.0519 	 -7.50728 	 16.1555
| 38> H 	 -41.4339 	 -6.01885 	 15.3321
| 39> H 	 -35.08 	 -9.75573 	 18.401
| 40> H 	 -39.1457 	 -3.65023 	 22.0576
| 41> *
| 42>
| 43>                          ****END OF INPUT****

CARTESIAN COORDINATES (ANGSTROEM)
---------------------------------
  S    -36.216700   -7.375980   18.476700
  C    -36.058600   -9.144520   18.523500
  C    -37.233100   -9.782670   18.857500
  C    -38.171600   -8.808490   19.313200
  C    -37.726700   -7.496440   19.295600
  H    -39.166100   -9.080640   19.694800
  C    -37.656000  -11.231700   18.852100
  H    -38.594400  -11.282400   19.440700
  H    -36.951200  -11.800900   19.436600
  C    -37.820400  -11.924600   17.478000
  H    -38.663600  -11.575700   16.872100
  H    -37.035600  -11.638300   16.836700
  C    -37.995500  -13.431900   17.557800
  H    -38.207600  -13.843400   16.634500
  H    -37.176700  -13.955900   18.072500
  H    -38.932700  -13.585600   18.123300
  S    -37.616200   -5.428590   21.128300
  C    -39.061100   -4.373980   21.291500
  C    -40.042100   -4.710850   20.393900
  C    -39.648300   -5.815960   19.585800
  C    -38.375700   -6.304450   19.836200
  H    -41.029000   -4.188740   20.438800
  C    -40.609100   -6.449930   18.649300
  H    -41.614700   -6.599880   19.184000
  H    -40.567300   -7.477080   18.397200
  C    -40.818800   -5.602350   17.418300
  H    -39.877100   -5.229300   17.149100
  H    -41.391900   -4.705240   17.569300
  C    -41.499200   -6.497970   16.337500
  H    -42.506800   -6.662620   16.674500
  H    -41.051900   -7.507280   16.155500
  H    -41.433900   -6.018850   15.332100
  H    -35.080000   -9.755730   18.401000
  H    -39.145700   -3.650230   22.057600

 Total Charge           Charge          ....    0
 Multiplicity           Mult            ....    1
 Number of Electrons    NEL             ....  134
 Basis Dimension        Dim             ....  322

ORBITAL ENERGIES
----------------

  NO   OCC          E(Eh)            E(eV)
   0   2.0000     -88.967007     -2420.9153
   1   2.0000     -88.964505     -2420.8472
   2   2.0000     -10.325146      -280.9615
   3   2.0000     -10.323349      -280.9126
   4   2.0000     -10.320152      -280.8256
   5   2.0000     -10.319125      -280.7977
   6   2.0000     -10.300977      -280.3038
   7   2.0000     -10.299841      -280.2729
   8   2.0000     -10.299099      -280.2527
   9   2.0000     -10.296453      -280.1807
  10   2.0000     -10.292052      -280.0610
  11   2.0000     -10.284092      -279.8444
  12   2.0000     -10.283421      -279.8261
  13   2.0000     -10.280386      -279.7435
  14   2.0000     -10.276588      -279.6402
  15   2.0000     -10.275459      -279.6094
  16   2.0000      -8.081808      -219.9172
  17   2.0000      -8.078927      -219.8388
  18   2.0000      -6.040326      -164.3656
  19   2.0000      -6.037454      -164.2875
  20   2.0000      -6.036467      -164.2606
  21   2.0000      -6.033462      -164.1788
  22   2.0000      -6.032389      -164.1497
  23   2.0000      -6.029686      -164.0761
  24   2.0000      -1.006852       -27.3978
  25   2.0000      -0.983841       -26.7717
  26   2.0000      -0.913489       -24.8573
  27   2.0000      -0.911559       -24.8048
  28   2.0000      -0.871096       -23.7037
  29   2.0000      -0.850162       -23.1341
  30   2.0000      -0.845239       -23.0001
  31   2.0000      -0.809816       -22.0362
  32   2.0000      -0.784028       -21.3345
  33   2.0000      -0.766773       -20.8649
  34   2.0000      -0.708768       -19.2866
  35   2.0000      -0.707162       -19.2429
  36   2.0000      -0.697690       -18.9851
  37   2.0000      -0.660987       -17.9864
  38   2.0000      -0.633694       -17.2437
  39   2.0000      -0.621263       -16.9054
  40   2.0000      -0.605105       -16.4658
  41   2.0000      -0.569208       -15.4889
  42   2.0000      -0.559709       -15.2304
  43   2.0000      -0.556388       -15.1401
  44   2.0000      -0.529968       -14.4212
  45   2.0000      -0.524801       -14.2806
  46   2.0000      -0.521508       -14.1910
  47   2.0000      -0.506413       -13.7802
  48   2.0000      -0.501699       -13.6519
  49   2.0000      -0.495541       -13.4843
  50   2.0000      -0.490244       -13.3402
  51   2.0000      -0.481746       -13.1090
  52   2.0000      -0.466177       -12.6853
  53   2.0000      -0.463099       -12.6016
  54   2.0000      -0.456345       -12.4178
  55   2.0000      -0.450123       -12.2485
  56   2.0000      -0.446955       -12.1623
  57   2.0000      -0.440962       -11.9992
  58   2.0000      -0.438441       -11.9306
  59   2.0000      -0.430852       -11.7241
  60   2.0000      -0.416548       -11.3349
  61   2.0000      -0.413881       -11.2623
  62   2.0000      -0.405478       -11.0336
  63   2.0000      -0.342219        -9.3122
  64   2.0000      -0.331167        -9.0115
  65   2.0000      -0.323447        -8.8015
  66   2.0000      -0.296734        -8.0745
  67   0.0000       0.031310         0.8520
  68   0.0000       0.066393         1.8066
  69   0.0000       0.107421         2.9231
  70   0.0000       0.113956         3.1009
  71   0.0000       0.130704         3.5566

MULLIKEN ATOMIC CHARGES
-----------------------
   0 S :    0.123603
   1 C :   -0.170644
   2 C :   -0.072936
   3 C :    0.022560
   4 C :   -0.167497
   5 H :    0.015793
   6 C :    0.077738
   7 H :    0.020342
   8 H :    0.023371
   9 C :   -0.057049
  10 H :    0.019636
  11 H :    0.013267
  12 C :   -0.022385
  13 H :    0.017983
  14 H :    0.038055
  15 H :    0.022347
  16 S :    0.104049
  17 C :   -0.086607
  18 C :   -0.032505
  19 C :   -0.002909
  20 C :   -0.151164
  21 H :    0.043291
  22 C :    0.038837
  23 H :    0.018774
  24 H :    0.000404
  25 C :   -0.033432
  26 H :    0.016926
  27 H :    0.025554
  28 C :   -0.074762
  29 H :    0.028230
  30 H :    0.040120
  31 H :    0.041148
  32 H :    0.075952
  33 H :    0.043913
Sum of atomic charges:   -0.0000000

LOEWDIN ATOMIC CHARGES
----------------------
   0 S :    0.410300
   1 C :   -0.207597
   2 C :   -0.066638
   3 C :   -0.062559
   4 C :   -0.204112
   5 H :    0.030029
   6 C :   -0.028147
   7 H :    0.032877
   8 H :    0.030785
   9 C :   -0.039798
  10 H :    0.027343
  11 H :    0.015842
  12 C :   -0.058619
  13 H :    0.016985
  14 H :    0.025839
  15 H :    0.028990
  16 S :    0.394252
  17 C :   -0.158167
  18 C :   -0.069785
  19 C :   -0.054310
  20 C :   -0.212085
  21 H :    0.045092
  22 C :   -0.041747
  23 H :    0.037111
  24 H :    0.021851
  25 C :   -0.031303
  26 H :    0.016390
  27 H :    0.022630
  28 C :   -0.068165
  29 H :    0.021804
  30 H :    0.028805
  31 H :    0.029491
  32 H :    0.046775
  33 H :    0.019843

  Mayer bond orders larger than 0.100000
B(  0-S ,  1-C ) :   1.1331 B(  0-S ,  4-C ) :   1.1569 B(  1-C ,  2-C ) :   1.6174
B(  1-C , 32-H ) :   0.9537 B(  2-C ,  3-C ) :   1.2526 B(  2-C ,  6-C ) :   1.0188
B(  3-C ,  4-C ) :   1.5828 B(  3-C ,  5-H ) :   0.9863 B(  4-C , 20-C ) :   1.0243
B(  6-C ,  7-H ) :   0.9393 B(  6-C ,  8-H ) :   0.9363 B(  6-C ,  9-C ) :   1.0522
B(  9-C , 10-H ) :   0.9510 B(  9-C , 11-H ) :   0.9572 B(  9-C , 12-C ) :   1.0889
B( 12-C , 13-H ) :   0.9716 B( 12-C , 14-H ) :   0.9761 B( 12-C , 15-H ) :   0.9725
B( 16-S , 17-C ) :   1.1490 B( 16-S , 20-C ) :   1.1342 B( 17-C , 18-C ) :   1.6187
B( 17-C , 33-H ) :   0.9733 B( 18-C , 19-C ) :   1.2251 B( 18-C , 21-H ) :   0.9841
B( 19-C , 20-C ) :   1.6022 B( 19-C , 22-C ) :   1.0492 B( 22-C , 23-H ) :   0.9238
B( 22-C , 24-H ) :   0.9461 B( 22-C , 25-C ) :   1.0404 B( 25-C , 26-H ) :   0.9603
B( 25-C , 27-H ) :   0.9526 B( 25-C , 28-C ) :   1.0774 B( 28-C , 29-H ) :   0.9740
B( 28-C , 30-H ) :   0.9781 B( 28-C , 31-H ) :   0.9757

Dispersion correction           -0.013810816
FINAL SINGLE POINT ENERGY     -1339.863015655939

DIPOLE MOMENT
-------------
                                X             Y             Z
Electronic contribution:     16.76121      19.59645      14.84880
Nuclear contribution   :    -17.34326     -19.99133     -14.91553
                        -----------------------------------------
Total Dipole Moment    :     -0.58204      -0.39488      -0.06673
                        -----------------------------------------
Magnitude (a.u.)       :      0.70651
Magnitude (Debye)      :      1.79581

Rotational constants in cm-1:     0.018915     0.008075     0.006478
Rotational constants in MHz :   567.068842   242.081114   194.195858

                             ****ORCA TERMINATED NORMALLY****
TOTAL RUN TIME: 0 days 0 hours 0 minutes 21 seconds 308 msec
