                         Program Version 4.2.1 -  RELEASE  -
|  1> ! wB97X-D3 SP def2-SVP
|  2> %pal
|  3> nprocs 24
|  4> end
|  5>
|  6> * xyz 0 1
|  7> S 	 -92.5397 	 -5.38072 	 -116.168
|  8> C 	 -92.26 	 -4.36942 	 -114.785
|  9> C 	 -92.36 	 -3.03171 	 -115.137
| 10> C 	 -92.7604 	 -2.88549 	 -116.497
| 11> C 	 -92.8339 	 -4.00787 	 -117.285
| 12> H 	 -92.9307 	 -1.93185 	 -116.874
| 13> C 	 -92.3228 	 -1.94322 	 -114.1
| 14> H 	 -93.1668 	 -2.13998 	 -113.454
| 15> H 	 -92.5301 	 -0.964097 	 -114.547
| 16> C 	 -91.0325 	 -1.83551 	 -113.278
| 17> H 	 -90.7768 	 -2.82516 	 -112.749
| 18> H 	 -90.1926 	 -1.59063 	 -113.863
| 19> C 	 -91.1408 	 -0.753424 	 -112.193
| 20> H 	 -91.8816 	 -1.13214 	 -111.482
| 21> H 	 -90.1943 	 -0.62297 	 -111.617
| 22> H 	 -91.3101 	 0.216228 	 -112.596
| 23> S 	 -92.2001 	 -3.47886 	 -119.893
| 24> C 	 -93.3224 	 -3.99884 	 -121.126
| 25> C 	 -94.43 	 -4.61589 	 -120.61
| 26> C 	 -94.4956 	 -4.51912 	 -119.215
| 27> C 	 -93.3081 	 -4.06372 	 -118.653
| 28> H 	 -95.059 	 -5.09268 	 -121.36
| 29> C 	 -95.6244 	 -5.25324 	 -118.414
| 30> H 	 -95.1169 	 -6.12134 	 -117.949
| 31> H 	 -96.3554 	 -5.59869 	 -119.18
| 32> C 	 -96.3323 	 -4.48517 	 -117.282
| 33> H 	 -96.8118 	 -3.5965 	 -117.738
| 34> H 	 -95.6045 	 -4.16093 	 -116.513
| 35> C 	 -97.4859 	 -5.30917 	 -116.636
| 36> H 	 -97.9616 	 -4.72097 	 -115.806
| 37> H 	 -97.1643 	 -6.2189 	 -116.171
| 38> H 	 -98.2606 	 -5.63714 	 -117.318
| 39> H 	 -92.1926 	 -4.70209 	 -113.732
| 40> H 	 -93.0405 	 -4.00295 	 -122.182
| 41> *
| 42>
| 43>                          ****END OF INPUT****

CARTESIAN COORDINATES (ANGSTROEM)
---------------------------------
  S    -92.539700   -5.380720  -116.168000
  C    -92.260000   -4.369420  -114.785000
  C    -92.360000   -3.031710  -115.137000
  C    -92.760400   -2.885490  -116.497000
  C    -92.833900   -4.007870  -117.285000
  H    -92.930700   -1.931850  -116.874000
  C    -92.322800   -1.943220  -114.100000
  H    -93.166800   -2.139980  -113.454000
  H    -92.530100   -0.964097  -114.547000
  C    -91.032500   -1.835510  -113.278000
  H    -90.776800   -2.825160  -112.749000
  H    -90.192600   -1.590630  -113.863000
  C    -91.140800   -0.753424  -112.193000
  H    -91.881600   -1.132140  -111.482000
  H    -90.194300   -0.622970  -111.617000
  H    -91.310100    0.216228  -112.596000
  S    -92.200100   -3.478860  -119.893000
  C    -93.322400   -3.998840  -121.126000
  C    -94.430000   -4.615890  -120.610000
  C    -94.495600   -4.519120  -119.215000
  C    -93.308100   -4.063720  -118.653000
  H    -95.059000   -5.092680  -121.360000
  C    -95.624400   -5.253240  -118.414000
  H    -95.116900   -6.121340  -117.949000
  H    -96.355400   -5.598690  -119.180000
  C    -96.332300   -4.485170  -117.282000
  H    -96.811800   -3.596500  -117.738000
  H    -95.604500   -4.160930  -116.513000
  C    -97.485900   -5.309170  -116.636000
  H    -97.961600   -4.720970  -115.806000
  H    -97.164300   -6.218900  -116.171000
  H    -98.260600   -5.637140  -117.318000
  H    -92.192600   -4.702090  -113.732000
  H    -93.040500   -4.002950  -122.182000

 Total Charge           Charge          ....    0
 Multiplicity           Mult            ....    1
 Number of Electrons    NEL             ....  134
 Basis Dimension        Dim             ....  322

ORBITAL ENERGIES
----------------

  NO   OCC          E(Eh)            E(eV)
   0   2.0000     -88.966441     -2420.8999
   1   2.0000     -88.965296     -2420.8688
   2   2.0000     -10.330116      -281.0968
   3   2.0000     -10.326168      -280.9893
   4   2.0000     -10.316862      -280.7361
   5   2.0000     -10.315303      -280.6937
   6   2.0000     -10.305760      -280.4340
   7   2.0000     -10.297890      -280.2198
   8   2.0000     -10.296097      -280.1711
   9   2.0000     -10.292951      -280.0854
  10   2.0000     -10.292125      -280.0630
  11   2.0000     -10.289372      -279.9880
  12   2.0000     -10.288858      -279.9741
  13   2.0000     -10.287521      -279.9377
  14   2.0000     -10.279028      -279.7066
  15   2.0000     -10.276087      -279.6265
  16   2.0000      -8.080209      -219.8737
  17   2.0000      -8.080107      -219.8709
  18   2.0000      -6.038842      -164.3252
  19   2.0000      -6.038480      -164.3154
  20   2.0000      -6.034669      -164.2117
  21   2.0000      -6.034591      -164.2096
  22   2.0000      -6.031058      -164.1134
  23   2.0000      -6.031014      -164.1122
  24   2.0000      -1.005872       -27.3712
  25   2.0000      -0.985773       -26.8242
  26   2.0000      -0.912865       -24.8403
  27   2.0000      -0.897801       -24.4304
  28   2.0000      -0.872336       -23.7375
  29   2.0000      -0.850053       -23.1311
  30   2.0000      -0.846282       -23.0285
  31   2.0000      -0.815754       -22.1978
  32   2.0000      -0.779257       -21.2047
  33   2.0000      -0.767355       -20.8808
  34   2.0000      -0.708221       -19.2717
  35   2.0000      -0.700698       -19.0670
  36   2.0000      -0.687495       -18.7077
  37   2.0000      -0.659761       -17.9530
  38   2.0000      -0.640714       -17.4347
  39   2.0000      -0.620709       -16.8903
  40   2.0000      -0.588662       -16.0183
  41   2.0000      -0.575465       -15.6592
  42   2.0000      -0.567636       -15.4462
  43   2.0000      -0.562044       -15.2940
  44   2.0000      -0.524416       -14.2701
  45   2.0000      -0.518167       -14.1000
  46   2.0000      -0.514462       -13.9992
  47   2.0000      -0.507048       -13.7975
  48   2.0000      -0.505566       -13.7572
  49   2.0000      -0.503777       -13.7085
  50   2.0000      -0.487144       -13.2558
  51   2.0000      -0.483718       -13.1626
  52   2.0000      -0.468552       -12.7499
  53   2.0000      -0.468031       -12.7358
  54   2.0000      -0.459711       -12.5094
  55   2.0000      -0.445226       -12.1152
  56   2.0000      -0.444079       -12.0840
  57   2.0000      -0.432407       -11.7664
  58   2.0000      -0.427736       -11.6393
  59   2.0000      -0.423551       -11.5254
  60   2.0000      -0.420944       -11.4545
  61   2.0000      -0.416270       -11.3273
  62   2.0000      -0.415170       -11.2974
  63   2.0000      -0.337300        -9.1784
  64   2.0000      -0.336173        -9.1477
  65   2.0000      -0.322103        -8.7649
  66   2.0000      -0.302345        -8.2272
  67   0.0000       0.031799         0.8653
  68   0.0000       0.057364         1.5610
  69   0.0000       0.113051         3.0763
  70   0.0000       0.118631         3.2281
  71   0.0000       0.131298         3.5728

MULLIKEN ATOMIC CHARGES
-----------------------
   0 S :    0.104880
   1 C :   -0.140590
   2 C :   -0.071905
   3 C :    0.057490
   4 C :   -0.142554
   5 H :   -0.019211
   6 C :    0.069111
   7 H :    0.033074
   8 H :    0.015357
   9 C :   -0.089738
  10 H :    0.033904
  11 H :    0.024204
  12 C :   -0.049708
  13 H :    0.033565
  14 H :    0.034684
  15 H :    0.028842
  16 S :    0.114318
  17 C :   -0.105699
  18 C :   -0.051431
  19 C :    0.019994
  20 C :   -0.190285
  21 H :    0.027693
  22 C :    0.027413
  23 H :    0.043311
  24 H :    0.024392
  25 C :   -0.078675
  26 H :    0.032548
  27 H :    0.053359
  28 C :   -0.051895
  29 H :    0.038611
  30 H :    0.019986
  31 H :    0.026747
  32 H :    0.066969
  33 H :    0.061243
Sum of atomic charges:    0.0000000

LOEWDIN ATOMIC CHARGES
----------------------
   0 S :    0.396247
   1 C :   -0.200815
   2 C :   -0.070978
   3 C :   -0.049442
   4 C :   -0.195142
   5 H :    0.018453
   6 C :   -0.032354
   7 H :    0.033108
   8 H :    0.029699
   9 C :   -0.038810
  10 H :    0.028754
  11 H :    0.017550
  12 C :   -0.065776
  13 H :    0.026150
  14 H :    0.030662
  15 H :    0.018903
  16 S :    0.409145
  17 C :   -0.183596
  18 C :   -0.077221
  19 C :   -0.051302
  20 C :   -0.198381
  21 H :    0.038344
  22 C :   -0.032569
  23 H :    0.032868
  24 H :    0.030478
  25 C :   -0.042583
  26 H :    0.026524
  27 H :    0.030424
  28 C :   -0.069686
  29 H :    0.032427
  30 H :    0.018797
  31 H :    0.022300
  32 H :    0.037899
  33 H :    0.029927

  Mayer bond orders larger than 0.100000
B(  0-S ,  1-C ) :   1.1613 B(  0-S ,  4-C ) :   1.1182 B(  1-C ,  2-C ) :   1.5731
B(  1-C , 32-H ) :   0.9632 B(  2-C ,  3-C ) :   1.2787 B(  2-C ,  6-C ) :   1.0180
B(  3-C ,  4-C ) :   1.5666 B(  3-C ,  5-H ) :   1.0035 B(  4-C , 20-C ) :   1.0357
B(  6-C ,  7-H ) :   0.9408 B(  6-C ,  8-H ) :   0.9424 B(  6-C ,  9-C ) :   1.0582
B(  9-C , 10-H ) :   0.9562 B(  9-C , 11-H ) :   0.9575 B(  9-C , 12-C ) :   1.0854
B( 12-C , 13-H ) :   0.9767 B( 12-C , 14-H ) :   0.9740 B( 12-C , 15-H ) :   0.9747
B( 16-S , 17-C ) :   1.1636 B( 16-S , 20-C ) :   1.1526 B( 17-C , 18-C ) :   1.6191
B( 17-C , 20-C ) :   0.1071 B( 17-C , 33-H ) :   0.9625 B( 18-C , 19-C ) :   1.2332
B( 18-C , 21-H ) :   0.9893 B( 19-C , 20-C ) :   1.5791 B( 19-C , 22-C ) :   1.0269
B( 22-C , 23-H ) :   0.9408 B( 22-C , 24-H ) :   0.9419 B( 22-C , 25-C ) :   1.0613
B( 25-C , 26-H ) :   0.9563 B( 25-C , 27-H ) :   0.9535 B( 25-C , 28-C ) :   1.0815
B( 28-C , 29-H ) :   0.9753 B( 28-C , 30-H ) :   0.9747 B( 28-C , 31-H ) :   0.9747

Dispersion correction           -0.014304254
FINAL SINGLE POINT ENERGY     -1339.883162595165

DIPOLE MOMENT
-------------
                                X             Y             Z
Electronic contribution:     10.63134      -7.43451     -20.17397
Nuclear contribution   :    -10.93479       7.61051      20.41408
                        -----------------------------------------
Total Dipole Moment    :     -0.30345       0.17600       0.24011
                        -----------------------------------------
Magnitude (a.u.)       :      0.42510
Magnitude (Debye)      :      1.08051

Rotational constants in cm-1:     0.019728     0.007780     0.006399
Rotational constants in MHz :   591.430490   233.227117   191.823330

                             ****ORCA TERMINATED NORMALLY****
TOTAL RUN TIME: 0 days 0 hours 0 minutes 21 seconds 309 msec
