                         Program Version 4.2.1 -  RELEASE  -
|  1> ! wB97X-D3 SP def2-SVP
|  2> %pal
|  3> nprocs 24
|  4> end
|  5>
|  6> * xyz 0 1
|  7> S 	 -39.6677 	 -7.64581 	 9.03463
|  8> C 	 -39.3244 	 -8.10786 	 7.34462
|  9> C 	 -38.3059 	 -7.29553 	 6.82311
| 10> C 	 -38.0102 	 -6.17653 	 7.70694
| 11> C 	 -38.6419 	 -6.25331 	 8.90208
| 12> H 	 -37.3214 	 -5.40651 	 7.49733
| 13> C 	 -37.7956 	 -7.29723 	 5.40286
| 14> H 	 -37.397 	 -8.2204 	 4.99456
| 15> H 	 -37.0448 	 -6.49776 	 5.51469
| 16> C 	 -38.9442 	 -6.83526 	 4.4183
| 17> H 	 -38.3772 	 -6.63795 	 3.47954
| 18> H 	 -39.6856 	 -7.59664 	 4.24584
| 19> C 	 -39.7862 	 -5.58344 	 4.87103
| 20> H 	 -39.1977 	 -4.91206 	 5.40893
| 21> H 	 -40.2658 	 -5.02771 	 4.12727
| 22> H 	 -40.5007 	 -5.91891 	 5.60644
| 23> S 	 -37.5731 	 -5.64203 	 11.404
| 24> C 	 -37.6625 	 -3.99896 	 11.9253
| 25> C 	 -38.0783 	 -3.1451 	 10.9293
| 26> C 	 -38.5666 	 -3.83272 	 9.78651
| 27> C 	 -38.5512 	 -5.26323 	 9.97332
| 28> H 	 -38.1159 	 -2.08396 	 11.0404
| 29> C 	 -39.1351 	 -3.08946 	 8.53522
| 30> H 	 -40.1832 	 -2.78273 	 8.80109
| 31> H 	 -39.1982 	 -3.84087 	 7.63865
| 32> C 	 -38.293 	 -1.79516 	 8.18188
| 33> H 	 -37.3065 	 -2.0053 	 7.83929
| 34> H 	 -38.1691 	 -1.19817 	 9.13918
| 35> C 	 -38.888 	 -1.01227 	 6.9814
| 36> H 	 -38.3647 	 -0.0321985 	 6.96883
| 37> H 	 -39.9671 	 -0.687177 	 7.03775
| 38> H 	 -38.7422 	 -1.59221 	 6.03906
| 39> H 	 -39.8459 	 -8.80699 	 6.71338
| 40> H 	 -37.4207 	 -3.6033 	 12.8892
| 41> *
| 42>
| 43>                          ****END OF INPUT****

CARTESIAN COORDINATES (ANGSTROEM)
---------------------------------
  S    -39.667700   -7.645810    9.034630
  C    -39.324400   -8.107860    7.344620
  C    -38.305900   -7.295530    6.823110
  C    -38.010200   -6.176530    7.706940
  C    -38.641900   -6.253310    8.902080
  H    -37.321400   -5.406510    7.497330
  C    -37.795600   -7.297230    5.402860
  H    -37.397000   -8.220400    4.994560
  H    -37.044800   -6.497760    5.514690
  C    -38.944200   -6.835260    4.418300
  H    -38.377200   -6.637950    3.479540
  H    -39.685600   -7.596640    4.245840
  C    -39.786200   -5.583440    4.871030
  H    -39.197700   -4.912060    5.408930
  H    -40.265800   -5.027710    4.127270
  H    -40.500700   -5.918910    5.606440
  S    -37.573100   -5.642030   11.404000
  C    -37.662500   -3.998960   11.925300
  C    -38.078300   -3.145100   10.929300
  C    -38.566600   -3.832720    9.786510
  C    -38.551200   -5.263230    9.973320
  H    -38.115900   -2.083960   11.040400
  C    -39.135100   -3.089460    8.535220
  H    -40.183200   -2.782730    8.801090
  H    -39.198200   -3.840870    7.638650
  C    -38.293000   -1.795160    8.181880
  H    -37.306500   -2.005300    7.839290
  H    -38.169100   -1.198170    9.139180
  C    -38.888000   -1.012270    6.981400
  H    -38.364700   -0.032198    6.968830
  H    -39.967100   -0.687177    7.037750
  H    -38.742200   -1.592210    6.039060
  H    -39.845900   -8.806990    6.713380
  H    -37.420700   -3.603300   12.889200

 Total Charge           Charge          ....    0
 Multiplicity           Mult            ....    1
 Number of Electrons    NEL             ....  134
 Basis Dimension        Dim             ....  322

ORBITAL ENERGIES
----------------

  NO   OCC          E(Eh)            E(eV)
   0   2.0000     -88.967725     -2420.9349
   1   2.0000     -88.965705     -2420.8799
   2   2.0000     -10.327468      -281.0247
   3   2.0000     -10.323844      -280.9261
   4   2.0000     -10.315961      -280.7116
   5   2.0000     -10.315443      -280.6975
   6   2.0000     -10.310853      -280.5726
   7   2.0000     -10.308990      -280.5219
   8   2.0000     -10.302975      -280.3582
   9   2.0000     -10.298286      -280.2306
  10   2.0000     -10.297791      -280.2171
  11   2.0000     -10.294222      -280.1200
  12   2.0000     -10.291501      -280.0460
  13   2.0000     -10.290434      -280.0169
  14   2.0000     -10.289812      -280.0000
  15   2.0000     -10.267512      -279.3932
  16   2.0000      -8.082278      -219.9300
  17   2.0000      -8.080053      -219.8694
  18   2.0000      -6.040748      -164.3771
  19   2.0000      -6.038642      -164.3198
  20   2.0000      -6.036921      -164.2730
  21   2.0000      -6.034553      -164.2085
  22   2.0000      -6.032980      -164.1657
  23   2.0000      -6.030804      -164.1065
  24   2.0000      -1.003507       -27.3068
  25   2.0000      -0.980917       -26.6921
  26   2.0000      -0.908775       -24.7290
  27   2.0000      -0.898667       -24.4540
  28   2.0000      -0.864435       -23.5225
  29   2.0000      -0.848397       -23.0861
  30   2.0000      -0.842489       -22.9253
  31   2.0000      -0.811418       -22.0798
  32   2.0000      -0.785371       -21.3710
  33   2.0000      -0.766601       -20.8603
  34   2.0000      -0.708793       -19.2872
  35   2.0000      -0.700712       -19.0673
  36   2.0000      -0.695434       -18.9237
  37   2.0000      -0.653076       -17.7711
  38   2.0000      -0.639126       -17.3915
  39   2.0000      -0.615351       -16.7445
  40   2.0000      -0.592438       -16.1211
  41   2.0000      -0.570756       -15.5311
  42   2.0000      -0.559308       -15.2195
  43   2.0000      -0.552500       -15.0343
  44   2.0000      -0.540141       -14.6980
  45   2.0000      -0.520300       -14.1581
  46   2.0000      -0.516437       -14.0530
  47   2.0000      -0.512473       -13.9451
  48   2.0000      -0.505139       -13.7455
  49   2.0000      -0.492768       -13.4089
  50   2.0000      -0.490920       -13.3586
  51   2.0000      -0.474484       -12.9114
  52   2.0000      -0.467788       -12.7292
  53   2.0000      -0.466789       -12.7020
  54   2.0000      -0.458046       -12.4641
  55   2.0000      -0.451664       -12.2904
  56   2.0000      -0.443642       -12.0721
  57   2.0000      -0.438244       -11.9252
  58   2.0000      -0.435252       -11.8438
  59   2.0000      -0.430250       -11.7077
  60   2.0000      -0.420335       -11.4379
  61   2.0000      -0.412765       -11.2319
  62   2.0000      -0.412228       -11.2173
  63   2.0000      -0.340809        -9.2739
  64   2.0000      -0.328895        -8.9497
  65   2.0000      -0.326077        -8.8730
  66   2.0000      -0.294425        -8.0117
  67   0.0000       0.028841         0.7848
  68   0.0000       0.058829         1.6008
  69   0.0000       0.108259         2.9459
  70   0.0000       0.114114         3.1052
  71   0.0000       0.119810         3.2602

MULLIKEN ATOMIC CHARGES
-----------------------
   0 S :    0.115360
   1 C :   -0.116577
   2 C :   -0.112598
   3 C :    0.019995
   4 C :   -0.158306
   5 H :    0.004177
   6 C :    0.082811
   7 H :    0.042732
   8 H :    0.025342
   9 C :   -0.119445
  10 H :    0.038802
  11 H :    0.034784
  12 C :    0.005106
  13 H :   -0.004186
  14 H :    0.027889
  15 H :    0.032338
  16 S :    0.117341
  17 C :   -0.067973
  18 C :   -0.036336
  19 C :   -0.048221
  20 C :   -0.126642
  21 H :    0.011574
  22 C :    0.018629
  23 H :    0.054774
  24 H :    0.050285
  25 C :   -0.099444
  26 H :    0.029529
  27 H :    0.042046
  28 C :   -0.080248
  29 H :    0.039625
  30 H :    0.039002
  31 H :    0.048660
  32 H :    0.044180
  33 H :    0.044993
Sum of atomic charges:   -0.0000000

LOEWDIN ATOMIC CHARGES
----------------------
   0 S :    0.401623
   1 C :   -0.192521
   2 C :   -0.058081
   3 C :   -0.061519
   4 C :   -0.202576
   5 H :    0.024714
   6 C :   -0.030023
   7 H :    0.033479
   8 H :    0.033109
   9 C :   -0.033063
  10 H :    0.026131
  11 H :    0.019320
  12 C :   -0.058765
  13 H :    0.010885
  14 H :    0.020664
  15 H :    0.029831
  16 S :    0.414857
  17 C :   -0.182969
  18 C :   -0.075283
  19 C :   -0.046498
  20 C :   -0.209704
  21 H :    0.025956
  22 C :   -0.040747
  23 H :    0.039476
  24 H :    0.039132
  25 C :   -0.043919
  26 H :    0.021929
  27 H :    0.027999
  28 C :   -0.076345
  29 H :    0.031149
  30 H :    0.027574
  31 H :    0.030893
  32 H :    0.026770
  33 H :    0.026523

  Mayer bond orders larger than 0.100000
B(  0-S ,  1-C ) :   1.1304 B(  0-S ,  4-C ) :   1.1415 B(  1-C ,  2-C ) :   1.6126
B(  1-C , 32-H ) :   0.9729 B(  2-C ,  3-C ) :   1.2162 B(  2-C ,  6-C ) :   1.0252
B(  3-C ,  4-C ) :   1.6095 B(  3-C ,  5-H ) :   0.9940 B(  4-C , 20-C ) :   1.0014
B(  6-C ,  7-H ) :   0.9430 B(  6-C ,  8-H ) :   0.9402 B(  6-C ,  9-C ) :   1.0613
B(  9-C , 10-H ) :   0.9612 B(  9-C , 11-H ) :   0.9633 B(  9-C , 12-C ) :   1.0684
B( 12-C , 13-H ) :   0.9731 B( 12-C , 14-H ) :   0.9717 B( 12-C , 15-H ) :   0.9698
B( 16-S , 17-C ) :   1.1757 B( 16-S , 20-C ) :   1.1474 B( 17-C , 18-C ) :   1.5843
B( 17-C , 20-C ) :   0.1064 B( 17-C , 33-H ) :   0.9659 B( 18-C , 19-C ) :   1.2756
B( 18-C , 21-H ) :   0.9915 B( 19-C , 20-C ) :   1.5532 B( 19-C , 22-C ) :   1.0218
B( 22-C , 23-H ) :   0.9392 B( 22-C , 24-H ) :   0.9399 B( 22-C , 25-C ) :   1.0467
B( 25-C , 26-H ) :   0.9569 B( 25-C , 27-H ) :   0.9545 B( 25-C , 28-C ) :   1.0773
B( 28-C , 29-H ) :   0.9736 B( 28-C , 30-H ) :   0.9762 B( 28-C , 31-H ) :   0.9751

Dispersion correction           -0.015688366
FINAL SINGLE POINT ENERGY     -1339.858213111344

DIPOLE MOMENT
-------------
                                X             Y             Z
Electronic contribution:      2.36720     -17.76772      25.49054
Nuclear contribution   :     -2.25265      18.37117     -26.07023
                        -----------------------------------------
Total Dipole Moment    :      0.11455       0.60345      -0.57969
                        -----------------------------------------
Magnitude (a.u.)       :      0.84458
Magnitude (Debye)      :      2.14674

Rotational constants in cm-1:     0.016435     0.010690     0.007113
Rotational constants in MHz :   492.723179   320.473497   213.251348

                             ****ORCA TERMINATED NORMALLY****
TOTAL RUN TIME: 0 days 0 hours 0 minutes 22 seconds 786 msec
