                         Program Version 4.2.1 -  RELEASE  -
|  1> ! wB97X-D3 SP def2-SVP
|  2> %pal
|  3> nprocs 24
|  4> end
|  5>
|  6> * xyz 0 1
|  7> S 	 -49.0913 	 19.4646 	 -89.558
|  8> C 	 -49.0806 	 20.9335 	 -88.6335
|  9> C 	 -50.2659 	 21.5882 	 -88.8342
| 10> C 	 -51.147 	 20.9384 	 -89.7062
| 11> C 	 -50.5876 	 19.8216 	 -90.3341
| 12> H 	 -52.1185 	 21.235 	 -90.0782
| 13> C 	 -50.6209 	 23.0024 	 -88.3672
| 14> H 	 -49.7335 	 23.4308 	 -87.8632
| 15> H 	 -51.4021 	 23.1557 	 -87.5602
| 16> C 	 -51.076 	 23.9341 	 -89.4603
| 17> H 	 -51.949 	 23.5005 	 -89.919
| 18> H 	 -51.4267 	 24.821 	 -88.9555
| 19> C 	 -50.0018 	 24.3219 	 -90.5614
| 20> H 	 -49.1807 	 24.9124 	 -90.1075
| 21> H 	 -49.48 	 23.4748 	 -90.9729
| 22> H 	 -50.4611 	 24.8872 	 -91.391
| 23> S 	 -51.66 	 17.2954 	 -90.9728
| 24> C 	 -52.0386 	 16.8847 	 -92.5448
| 25> C 	 -52.0009 	 17.9911 	 -93.3565
| 26> C 	 -51.4503 	 19.193 	 -92.7295
| 27> C 	 -51.2024 	 18.9974 	 -91.3771
| 28> H 	 -52.3188 	 17.8504 	 -94.3662
| 29> C 	 -51.2583 	 20.4725 	 -93.4539
| 30> H 	 -50.2313 	 20.6712 	 -93.5429
| 31> H 	 -51.6914 	 21.2955 	 -92.7722
| 32> C 	 -52.1194 	 20.7689 	 -94.7762
| 33> H 	 -53.1306 	 20.5246 	 -94.6613
| 34> H 	 -51.7017 	 20.0058 	 -95.4184
| 35> C 	 -51.8471 	 22.1608 	 -95.3456
| 36> H 	 -51.8658 	 22.895 	 -94.5252
| 37> H 	 -52.7294 	 22.3557 	 -95.8726
| 38> H 	 -50.9669 	 22.3766 	 -95.9328
| 39> H 	 -48.3545 	 21.4025 	 -88.029
| 40> H 	 -52.4828 	 16.015 	 -92.87
| 41> *
| 42>
| 43>                          ****END OF INPUT****

CARTESIAN COORDINATES (ANGSTROEM)
---------------------------------
  S    -49.091300   19.464600  -89.558000
  C    -49.080600   20.933500  -88.633500
  C    -50.265900   21.588200  -88.834200
  C    -51.147000   20.938400  -89.706200
  C    -50.587600   19.821600  -90.334100
  H    -52.118500   21.235000  -90.078200
  C    -50.620900   23.002400  -88.367200
  H    -49.733500   23.430800  -87.863200
  H    -51.402100   23.155700  -87.560200
  C    -51.076000   23.934100  -89.460300
  H    -51.949000   23.500500  -89.919000
  H    -51.426700   24.821000  -88.955500
  C    -50.001800   24.321900  -90.561400
  H    -49.180700   24.912400  -90.107500
  H    -49.480000   23.474800  -90.972900
  H    -50.461100   24.887200  -91.391000
  S    -51.660000   17.295400  -90.972800
  C    -52.038600   16.884700  -92.544800
  C    -52.000900   17.991100  -93.356500
  C    -51.450300   19.193000  -92.729500
  C    -51.202400   18.997400  -91.377100
  H    -52.318800   17.850400  -94.366200
  C    -51.258300   20.472500  -93.453900
  H    -50.231300   20.671200  -93.542900
  H    -51.691400   21.295500  -92.772200
  C    -52.119400   20.768900  -94.776200
  H    -53.130600   20.524600  -94.661300
  H    -51.701700   20.005800  -95.418400
  C    -51.847100   22.160800  -95.345600
  H    -51.865800   22.895000  -94.525200
  H    -52.729400   22.355700  -95.872600
  H    -50.966900   22.376600  -95.932800
  H    -48.354500   21.402500  -88.029000
  H    -52.482800   16.015000  -92.870000

 Total Charge           Charge          ....    0
 Multiplicity           Mult            ....    1
 Number of Electrons    NEL             ....  134
 Basis Dimension        Dim             ....  322

ORBITAL ENERGIES
----------------

  NO   OCC          E(Eh)            E(eV)
   0   2.0000     -88.968129     -2420.9459
   1   2.0000     -88.960266     -2420.7319
   2   2.0000     -10.329294      -281.0744
   3   2.0000     -10.328933      -281.0646
   4   2.0000     -10.311279      -280.5842
   5   2.0000     -10.308867      -280.5185
   6   2.0000     -10.307110      -280.4707
   7   2.0000     -10.297387      -280.2061
   8   2.0000     -10.295600      -280.1575
   9   2.0000     -10.292404      -280.0706
  10   2.0000     -10.290591      -280.0212
  11   2.0000     -10.290414      -280.0164
  12   2.0000     -10.288618      -279.9675
  13   2.0000     -10.285211      -279.8748
  14   2.0000     -10.279677      -279.7242
  15   2.0000     -10.276847      -279.6472
  16   2.0000      -8.083163      -219.9541
  17   2.0000      -8.075977      -219.7585
  18   2.0000      -6.041642      -164.4014
  19   2.0000      -6.037446      -164.2873
  20   2.0000      -6.034386      -164.2040
  21   2.0000      -6.034079      -164.1956
  22   2.0000      -6.030216      -164.0905
  23   2.0000      -6.026892      -164.0001
  24   2.0000      -1.010154       -27.4877
  25   2.0000      -0.990496       -26.9528
  26   2.0000      -0.910971       -24.7888
  27   2.0000      -0.908432       -24.7197
  28   2.0000      -0.873230       -23.7618
  29   2.0000      -0.852668       -23.2023
  30   2.0000      -0.841374       -22.8950
  31   2.0000      -0.814944       -22.1758
  32   2.0000      -0.784164       -21.3382
  33   2.0000      -0.776892       -21.1403
  34   2.0000      -0.715782       -19.4774
  35   2.0000      -0.708559       -19.2809
  36   2.0000      -0.694629       -18.9018
  37   2.0000      -0.651098       -17.7173
  38   2.0000      -0.642005       -17.4698
  39   2.0000      -0.623288       -16.9605
  40   2.0000      -0.599309       -16.3080
  41   2.0000      -0.577547       -15.7158
  42   2.0000      -0.568827       -15.4786
  43   2.0000      -0.543360       -14.7856
  44   2.0000      -0.534401       -14.5418
  45   2.0000      -0.532019       -14.4770
  46   2.0000      -0.518109       -14.0985
  47   2.0000      -0.515477       -14.0268
  48   2.0000      -0.509603       -13.8670
  49   2.0000      -0.504672       -13.7328
  50   2.0000      -0.488749       -13.2995
  51   2.0000      -0.485354       -13.2072
  52   2.0000      -0.473336       -12.8801
  53   2.0000      -0.466698       -12.6995
  54   2.0000      -0.457304       -12.4439
  55   2.0000      -0.455188       -12.3863
  56   2.0000      -0.444484       -12.0950
  57   2.0000      -0.442391       -12.0381
  58   2.0000      -0.436597       -11.8804
  59   2.0000      -0.421045       -11.4572
  60   2.0000      -0.415735       -11.3127
  61   2.0000      -0.414213       -11.2713
  62   2.0000      -0.397499       -10.8165
  63   2.0000      -0.338041        -9.1986
  64   2.0000      -0.332178        -9.0390
  65   2.0000      -0.324057        -8.8180
  66   2.0000      -0.303432        -8.2568
  67   0.0000       0.036602         0.9960
  68   0.0000       0.059070         1.6074
  69   0.0000       0.121853         3.3158
  70   0.0000       0.126569         3.4441
  71   0.0000       0.127953         3.4818

MULLIKEN ATOMIC CHARGES
-----------------------
   0 S :    0.135534
   1 C :   -0.088074
   2 C :   -0.063245
   3 C :    0.043952
   4 C :   -0.187242
   5 H :    0.012299
   6 C :    0.041237
   7 H :    0.006808
   8 H :    0.045047
   9 C :   -0.072008
  10 H :    0.022708
  11 H :    0.022632
  12 C :   -0.059593
  13 H :    0.029039
  14 H :    0.035925
  15 H :    0.041375
  16 S :    0.104461
  17 C :   -0.032806
  18 C :   -0.071167
  19 C :    0.004633
  20 C :   -0.182033
  21 H :    0.008544
  22 C :    0.018044
  23 H :    0.037953
  24 H :    0.032947
  25 C :   -0.081044
  26 H :    0.026558
  27 H :    0.031045
  28 C :   -0.002128
  29 H :    0.018211
  30 H :    0.020133
  31 H :    0.046277
  32 H :    0.025539
  33 H :    0.028439
Sum of atomic charges:   -0.0000000

LOEWDIN ATOMIC CHARGES
----------------------
   0 S :    0.435403
   1 C :   -0.197476
   2 C :   -0.070430
   3 C :   -0.056604
   4 C :   -0.208392
   5 H :    0.030063
   6 C :   -0.038920
   7 H :    0.024668
   8 H :    0.040359
   9 C :   -0.039444
  10 H :    0.017853
  11 H :    0.023754
  12 C :   -0.069588
  13 H :    0.026687
  14 H :    0.023456
  15 H :    0.028631
  16 S :    0.414680
  17 C :   -0.192349
  18 C :   -0.080890
  19 C :   -0.047352
  20 C :   -0.193483
  21 H :    0.024621
  22 C :   -0.036880
  23 H :    0.028759
  24 H :    0.038034
  25 C :   -0.030468
  26 H :    0.018681
  27 H :    0.022279
  28 C :   -0.060500
  29 H :    0.026152
  30 H :    0.024428
  31 H :    0.029178
  32 H :    0.026753
  33 H :    0.018336

  Mayer bond orders larger than 0.100000
B(  0-S ,  1-C ) :   1.1448 B(  0-S ,  4-C ) :   1.1702 B(  1-C ,  2-C ) :   1.5990
B(  1-C ,  4-C ) :   0.1031 B(  1-C , 32-H ) :   0.9694 B(  2-C ,  3-C ) :   1.2505
B(  2-C ,  6-C ) :   1.0164 B(  3-C ,  4-C ) :   1.5585 B(  3-C ,  5-H ) :   0.9925
B(  4-C , 20-C ) :   1.0365 B(  6-C ,  7-H ) :   0.9426 B(  6-C ,  8-H ) :   0.9403
B(  6-C ,  9-C ) :   1.0815 B(  9-C , 10-H ) :   0.9533 B(  9-C , 11-H ) :   0.9527
B(  9-C , 12-C ) :   1.0642 B( 12-C , 13-H ) :   0.9752 B( 12-C , 14-H ) :   0.9782
B( 12-C , 15-H ) :   0.9772 B( 16-S , 17-C ) :   1.1805 B( 16-S , 20-C ) :   1.1335
B( 17-C , 18-C ) :   1.6056 B( 17-C , 33-H ) :   0.9672 B( 18-C , 19-C ) :   1.2253
B( 18-C , 21-H ) :   0.9928 B( 19-C , 20-C ) :   1.6037 B( 19-C , 22-C ) :   1.0417
B( 22-C , 23-H ) :   0.9294 B( 22-C , 24-H ) :   0.9380 B( 22-C , 25-C ) :   1.0582
B( 25-C , 26-H ) :   0.9640 B( 25-C , 27-H ) :   0.9482 B( 25-C , 28-C ) :   1.0762
B( 28-C , 29-H ) :   0.9717 B( 28-C , 30-H ) :   0.9712 B( 28-C , 31-H ) :   0.9765

Dispersion correction           -0.014502356
FINAL SINGLE POINT ENERGY     -1339.858436176562

DIPOLE MOMENT
-------------
                                X             Y             Z
Electronic contribution:      4.69831     -27.89902      13.02750
Nuclear contribution   :     -4.97110      28.48818     -13.44066
                        -----------------------------------------
Total Dipole Moment    :     -0.27279       0.58916      -0.41316
                        -----------------------------------------
Magnitude (a.u.)       :      0.76956
Magnitude (Debye)      :      1.95607

Rotational constants in cm-1:     0.015913     0.010285     0.006871
Rotational constants in MHz :   477.068412   308.323469   206.002186

                             ****ORCA TERMINATED NORMALLY****
TOTAL RUN TIME: 0 days 0 hours 0 minutes 21 seconds 888 msec
