                         Program Version 4.2.1 -  RELEASE  -
|  1> ! wB97X-D3 SP def2-SVP
|  2> %pal
|  3> nprocs 24
|  4> end
|  5>
|  6> * xyz 0 1
|  7> S 	 -111.107 	 59.3145 	 -20.3859
|  8> C 	 -111.067 	 60.5711 	 -19.1789
|  9> C 	 -112.347 	 60.9381 	 -18.9008
| 10> C 	 -113.329 	 60.082 	 -19.5433
| 11> C 	 -112.766 	 59.0112 	 -20.2764
| 12> H 	 -114.382 	 60.1152 	 -19.4171
| 13> C 	 -112.798 	 62.2103 	 -18.1055
| 14> H 	 -111.974 	 62.5203 	 -17.4446
| 15> H 	 -113.619 	 62.0766 	 -17.4097
| 16> C 	 -113.239 	 63.4405 	 -18.971
| 17> H 	 -112.394 	 63.4901 	 -19.6304
| 18> H 	 -114.141 	 63.399 	 -19.6218
| 19> C 	 -113.259 	 64.7658 	 -18.1164
| 20> H 	 -112.344 	 64.8582 	 -17.5386
| 21> H 	 -113.401 	 65.6903 	 -18.6859
| 22> H 	 -114.046 	 64.873 	 -17.3892
| 23> S 	 -114.981 	 57.4255 	 -20.4824
| 24> C 	 -115.091 	 56.3307 	 -21.8066
| 25> C 	 -114.048 	 56.5204 	 -22.6845
| 26> C 	 -113.071 	 57.4428 	 -22.2659
| 27> C 	 -113.434 	 58.0249 	 -21.08
| 28> H 	 -113.961 	 56.05 	 -23.6644
| 29> C 	 -111.8 	 57.6099 	 -23.0738
| 30> H 	 -111.481 	 56.615 	 -23.5281
| 31> H 	 -111.003 	 57.8088 	 -22.4212
| 32> C 	 -111.9 	 58.6431 	 -24.2358
| 33> H 	 -112.089 	 59.5981 	 -23.8825
| 34> H 	 -112.917 	 58.3969 	 -24.7313
| 35> C 	 -110.667 	 58.6184 	 -25.1036
| 36> H 	 -110.864 	 59.2502 	 -25.9467
| 37> H 	 -110.585 	 57.6235 	 -25.5299
| 38> H 	 -109.795 	 58.9761 	 -24.482
| 39> H 	 -110.185 	 60.9867 	 -18.7551
| 40> H 	 -115.928 	 55.666 	 -22.0137
| 41> *
| 42>
| 43>                          ****END OF INPUT****

CARTESIAN COORDINATES (ANGSTROEM)
---------------------------------
  S    -111.107000   59.314500  -20.385900
  C    -111.067000   60.571100  -19.178900
  C    -112.347000   60.938100  -18.900800
  C    -113.329000   60.082000  -19.543300
  C    -112.766000   59.011200  -20.276400
  H    -114.382000   60.115200  -19.417100
  C    -112.798000   62.210300  -18.105500
  H    -111.974000   62.520300  -17.444600
  H    -113.619000   62.076600  -17.409700
  C    -113.239000   63.440500  -18.971000
  H    -112.394000   63.490100  -19.630400
  H    -114.141000   63.399000  -19.621800
  C    -113.259000   64.765800  -18.116400
  H    -112.344000   64.858200  -17.538600
  H    -113.401000   65.690300  -18.685900
  H    -114.046000   64.873000  -17.389200
  S    -114.981000   57.425500  -20.482400
  C    -115.091000   56.330700  -21.806600
  C    -114.048000   56.520400  -22.684500
  C    -113.071000   57.442800  -22.265900
  C    -113.434000   58.024900  -21.080000
  H    -113.961000   56.050000  -23.664400
  C    -111.800000   57.609900  -23.073800
  H    -111.481000   56.615000  -23.528100
  H    -111.003000   57.808800  -22.421200
  C    -111.900000   58.643100  -24.235800
  H    -112.089000   59.598100  -23.882500
  H    -112.917000   58.396900  -24.731300
  C    -110.667000   58.618400  -25.103600
  H    -110.864000   59.250200  -25.946700
  H    -110.585000   57.623500  -25.529900
  H    -109.795000   58.976100  -24.482000
  H    -110.185000   60.986700  -18.755100
  H    -115.928000   55.666000  -22.013700

 Total Charge           Charge          ....    0
 Multiplicity           Mult            ....    1
 Number of Electrons    NEL             ....  134
 Basis Dimension        Dim             ....  322

ORBITAL ENERGIES
----------------

  NO   OCC          E(Eh)            E(eV)
   0   2.0000     -88.968900     -2420.9668
   1   2.0000     -88.963672     -2420.8246
   2   2.0000     -10.328494      -281.0526
   3   2.0000     -10.327570      -281.0275
   4   2.0000     -10.316481      -280.7257
   5   2.0000     -10.311582      -280.5924
   6   2.0000     -10.306617      -280.4573
   7   2.0000     -10.298772      -280.2438
   8   2.0000     -10.298412      -280.2340
   9   2.0000     -10.292848      -280.0826
  10   2.0000     -10.291926      -280.0575
  11   2.0000     -10.291764      -280.0531
  12   2.0000     -10.290546      -280.0200
  13   2.0000     -10.284769      -279.8628
  14   2.0000     -10.279513      -279.7198
  15   2.0000     -10.278951      -279.7045
  16   2.0000      -8.083754      -219.9701
  17   2.0000      -8.079319      -219.8495
  18   2.0000      -6.042273      -164.4186
  19   2.0000      -6.038272      -164.3097
  20   2.0000      -6.037867      -164.2987
  21   2.0000      -6.034487      -164.2067
  22   2.0000      -6.033572      -164.1818
  23   2.0000      -6.030114      -164.0877
  24   2.0000      -1.015347       -27.6290
  25   2.0000      -0.991285       -26.9742
  26   2.0000      -0.911584       -24.8055
  27   2.0000      -0.903161       -24.5763
  28   2.0000      -0.872991       -23.7553
  29   2.0000      -0.858853       -23.3706
  30   2.0000      -0.839875       -22.8542
  31   2.0000      -0.810575       -22.0569
  32   2.0000      -0.783461       -21.3191
  33   2.0000      -0.775901       -21.1133
  34   2.0000      -0.708119       -19.2689
  35   2.0000      -0.701941       -19.1008
  36   2.0000      -0.693950       -18.8834
  37   2.0000      -0.672850       -18.3092
  38   2.0000      -0.641535       -17.4571
  39   2.0000      -0.614490       -16.7211
  40   2.0000      -0.602236       -16.3877
  41   2.0000      -0.572569       -15.5804
  42   2.0000      -0.563695       -15.3389
  43   2.0000      -0.557588       -15.1728
  44   2.0000      -0.529885       -14.4189
  45   2.0000      -0.520662       -14.1679
  46   2.0000      -0.517844       -14.0912
  47   2.0000      -0.512201       -13.9377
  48   2.0000      -0.508539       -13.8380
  49   2.0000      -0.501434       -13.6447
  50   2.0000      -0.488744       -13.2994
  51   2.0000      -0.481414       -13.0999
  52   2.0000      -0.467838       -12.7305
  53   2.0000      -0.464917       -12.6510
  54   2.0000      -0.463801       -12.6207
  55   2.0000      -0.453332       -12.3358
  56   2.0000      -0.448840       -12.2136
  57   2.0000      -0.437147       -11.8954
  58   2.0000      -0.433807       -11.8045
  59   2.0000      -0.426022       -11.5927
  60   2.0000      -0.423861       -11.5338
  61   2.0000      -0.410571       -11.1722
  62   2.0000      -0.403765       -10.9870
  63   2.0000      -0.362301        -9.8587
  64   2.0000      -0.334886        -9.1127
  65   2.0000      -0.326201        -8.8764
  66   2.0000      -0.285099        -7.7579
  67   0.0000       0.023040         0.6269
  68   0.0000       0.082904         2.2559
  69   0.0000       0.105019         2.8577
  70   0.0000       0.126806         3.4506
  71   0.0000       0.132622         3.6088

MULLIKEN ATOMIC CHARGES
-----------------------
   0 S :    0.073637
   1 C :   -0.097924
   2 C :   -0.060149
   3 C :    0.006526
   4 C :   -0.114368
   5 H :    0.000911
   6 C :    0.046574
   7 H :    0.018430
   8 H :    0.026634
   9 C :   -0.064257
  10 H :    0.023557
  11 H :    0.047505
  12 C :   -0.064198
  13 H :    0.024372
  14 H :    0.034197
  15 H :    0.022957
  16 S :    0.113448
  17 C :   -0.079951
  18 C :   -0.033489
  19 C :   -0.049006
  20 C :   -0.136259
  21 H :    0.015864
  22 C :    0.039304
  23 H :    0.026862
  24 H :    0.013809
  25 C :   -0.074703
  26 H :    0.011751
  27 H :    0.026233
  28 C :   -0.010350
  29 H :    0.030708
  30 H :    0.027036
  31 H :    0.054402
  32 H :    0.039005
  33 H :    0.060931
Sum of atomic charges:   -0.0000000

LOEWDIN ATOMIC CHARGES
----------------------
   0 S :    0.442620
   1 C :   -0.197221
   2 C :   -0.059222
   3 C :   -0.071312
   4 C :   -0.203271
   5 H :    0.018312
   6 C :   -0.029886
   7 H :    0.029885
   8 H :    0.025355
   9 C :   -0.039429
  10 H :    0.021244
  11 H :    0.030131
  12 C :   -0.071267
  13 H :    0.023038
  14 H :    0.028709
  15 H :    0.020279
  16 S :    0.418042
  17 C :   -0.195730
  18 C :   -0.068543
  19 C :   -0.061781
  20 C :   -0.188305
  21 H :    0.031599
  22 C :   -0.035438
  23 H :    0.037282
  24 H :    0.004479
  25 C :   -0.039230
  26 H :    0.012030
  27 H :    0.029838
  28 C :   -0.062519
  29 H :    0.025925
  30 H :    0.024927
  31 H :    0.039540
  32 H :    0.026320
  33 H :    0.033599

  Mayer bond orders larger than 0.100000
B(  0-S ,  1-C ) :   1.1294 B(  0-S ,  4-C ) :   1.1772 B(  1-C ,  2-C ) :   1.5972
B(  1-C , 32-H ) :   0.9796 B(  2-C ,  3-C ) :   1.2549 B(  2-C ,  6-C ) :   1.0266
B(  3-C ,  4-C ) :   1.5201 B(  3-C ,  5-H ) :   0.9965 B(  4-C , 20-C ) :   1.0749
B(  6-C ,  7-H ) :   0.9462 B(  6-C ,  8-H ) :   0.9483 B(  6-C ,  9-C ) :   1.0420
B(  9-C , 10-H ) :   0.9576 B(  9-C , 11-H ) :   0.9608 B(  9-C , 12-C ) :   1.0710
B( 12-C , 13-H ) :   0.9763 B( 12-C , 14-H ) :   0.9760 B( 12-C , 15-H ) :   0.9781
B( 16-S , 17-C ) :   1.1497 B( 16-S , 20-C ) :   1.1397 B( 17-C , 18-C ) :   1.5943
B( 17-C , 33-H ) :   0.9671 B( 18-C , 19-C ) :   1.2684 B( 18-C , 21-H ) :   0.9832
B( 19-C , 20-C ) :   1.5823 B( 19-C , 22-C ) :   1.0330 B( 22-C , 23-H ) :   0.9372
B( 22-C , 24-H ) :   0.9279 B( 22-C , 25-C ) :   1.0460 B( 25-C , 26-H ) :   0.9519
B( 25-C , 27-H ) :   0.9549 B( 25-C , 28-C ) :   1.0809 B( 28-C , 29-H ) :   0.9712
B( 28-C , 30-H ) :   0.9733 B( 28-C , 31-H ) :   0.9698

Dispersion correction           -0.013656713
FINAL SINGLE POINT ENERGY     -1339.871564165172

DIPOLE MOMENT
-------------
                                X             Y             Z
Electronic contribution:     -5.36365     -18.46803       6.29310
Nuclear contribution   :      5.36107      18.75088      -6.56383
                        -----------------------------------------
Total Dipole Moment    :     -0.00258       0.28285      -0.27073
                        -----------------------------------------
Magnitude (a.u.)       :      0.39154
Magnitude (Debye)      :      0.99522

Rotational constants in cm-1:     0.019414     0.007786     0.006374
Rotational constants in MHz :   582.016262   233.404016   191.077980

                             ****ORCA TERMINATED NORMALLY****
TOTAL RUN TIME: 0 days 0 hours 0 minutes 19 seconds 862 msec
