                         Program Version 4.2.1 -  RELEASE  -
|  1> ! wB97X-D3 SP def2-SVP
|  2> %pal
|  3> nprocs 24
|  4> end
|  5>
|  6> * xyz 0 1
|  7> S 	 -128.749 	 58.1835 	 -53.2205
|  8> C 	 -129.402 	 57.0155 	 -54.3245
|  9> C 	 -130.017 	 57.5895 	 -55.4183
| 10> C 	 -130.084 	 58.9978 	 -55.2794
| 11> C 	 -129.446 	 59.4933 	 -54.1291
| 12> H 	 -130.491 	 59.7896 	 -55.9069
| 13> C 	 -130.526 	 56.7266 	 -56.6025
| 14> H 	 -130.325 	 57.1591 	 -57.5234
| 15> H 	 -131.616 	 56.735 	 -56.4921
| 16> C 	 -129.997 	 55.2818 	 -56.7935
| 17> H 	 -128.939 	 55.2783 	 -56.7047
| 18> H 	 -130.321 	 54.743 	 -55.8653
| 19> C 	 -130.377 	 54.4283 	 -58.0003
| 20> H 	 -130.601 	 53.4132 	 -57.83
| 21> H 	 -131.206 	 54.8474 	 -58.5898
| 22> H 	 -129.448 	 54.2871 	 -58.5804
| 23> S 	 -128.362 	 61.9361 	 -54.8828
| 24> C 	 -128.509 	 63.3002 	 -53.8063
| 25> C 	 -129.181 	 62.9004 	 -52.635
| 26> C 	 -129.531 	 61.5297 	 -52.5778
| 27> C 	 -129.308 	 60.8894 	 -53.8146
| 28> H 	 -129.236 	 63.6292 	 -51.7841
| 29> C 	 -130.08 	 61.0259 	 -51.2727
| 30> H 	 -130.124 	 59.9415 	 -51.469
| 31> H 	 -131.087 	 61.294 	 -51.3128
| 32> C 	 -129.477 	 61.2782 	 -49.8711
| 33> H 	 -129.471 	 62.3257 	 -49.6971
| 34> H 	 -128.501 	 60.8818 	 -49.7597
| 35> C 	 -130.381 	 60.7525 	 -48.8361
| 36> H 	 -129.973 	 60.598 	 -47.8438
| 37> H 	 -130.841 	 59.8024 	 -49.1382
| 38> H 	 -131.309 	 61.3337 	 -48.586
| 39> H 	 -129.169 	 55.9697 	 -54.2013
| 40> H 	 -128.164 	 64.2509 	 -53.9917
| 41> *
| 42>
| 43>                          ****END OF INPUT****

CARTESIAN COORDINATES (ANGSTROEM)
---------------------------------
  S    -128.749000   58.183500  -53.220500
  C    -129.402000   57.015500  -54.324500
  C    -130.017000   57.589500  -55.418300
  C    -130.084000   58.997800  -55.279400
  C    -129.446000   59.493300  -54.129100
  H    -130.491000   59.789600  -55.906900
  C    -130.526000   56.726600  -56.602500
  H    -130.325000   57.159100  -57.523400
  H    -131.616000   56.735000  -56.492100
  C    -129.997000   55.281800  -56.793500
  H    -128.939000   55.278300  -56.704700
  H    -130.321000   54.743000  -55.865300
  C    -130.377000   54.428300  -58.000300
  H    -130.601000   53.413200  -57.830000
  H    -131.206000   54.847400  -58.589800
  H    -129.448000   54.287100  -58.580400
  S    -128.362000   61.936100  -54.882800
  C    -128.509000   63.300200  -53.806300
  C    -129.181000   62.900400  -52.635000
  C    -129.531000   61.529700  -52.577800
  C    -129.308000   60.889400  -53.814600
  H    -129.236000   63.629200  -51.784100
  C    -130.080000   61.025900  -51.272700
  H    -130.124000   59.941500  -51.469000
  H    -131.087000   61.294000  -51.312800
  C    -129.477000   61.278200  -49.871100
  H    -129.471000   62.325700  -49.697100
  H    -128.501000   60.881800  -49.759700
  C    -130.381000   60.752500  -48.836100
  H    -129.973000   60.598000  -47.843800
  H    -130.841000   59.802400  -49.138200
  H    -131.309000   61.333700  -48.586000
  H    -129.169000   55.969700  -54.201300
  H    -128.164000   64.250900  -53.991700

 Total Charge           Charge          ....    0
 Multiplicity           Mult            ....    1
 Number of Electrons    NEL             ....  134
 Basis Dimension        Dim             ....  322

ORBITAL ENERGIES
----------------

  NO   OCC          E(Eh)            E(eV)
   0   2.0000     -88.967352     -2420.9247
   1   2.0000     -88.966770     -2420.9089
   2   2.0000     -10.326436      -280.9966
   3   2.0000     -10.324912      -280.9551
   4   2.0000     -10.314722      -280.6779
   5   2.0000     -10.310495      -280.5628
   6   2.0000     -10.306408      -280.4516
   7   2.0000     -10.303508      -280.3727
   8   2.0000     -10.294943      -280.1396
   9   2.0000     -10.294277      -280.1215
  10   2.0000     -10.292266      -280.0668
  11   2.0000     -10.287534      -279.9380
  12   2.0000     -10.284598      -279.8581
  13   2.0000     -10.283243      -279.8213
  14   2.0000     -10.280028      -279.7338
  15   2.0000     -10.275608      -279.6135
  16   2.0000      -8.081527      -219.9095
  17   2.0000      -8.081489      -219.9085
  18   2.0000      -6.040063      -164.3585
  19   2.0000      -6.039874      -164.3533
  20   2.0000      -6.036002      -164.2480
  21   2.0000      -6.035936      -164.2462
  22   2.0000      -6.032459      -164.1515
  23   2.0000      -6.032399      -164.1499
  24   2.0000      -1.005295       -27.3555
  25   2.0000      -0.982361       -26.7314
  26   2.0000      -0.916238       -24.9321
  27   2.0000      -0.908034       -24.7089
  28   2.0000      -0.869132       -23.6503
  29   2.0000      -0.858330       -23.3563
  30   2.0000      -0.850599       -23.1460
  31   2.0000      -0.810629       -22.0584
  32   2.0000      -0.786153       -21.3923
  33   2.0000      -0.771793       -21.0016
  34   2.0000      -0.712795       -19.3961
  35   2.0000      -0.707595       -19.2546
  36   2.0000      -0.698107       -18.9965
  37   2.0000      -0.659637       -17.9496
  38   2.0000      -0.640787       -17.4367
  39   2.0000      -0.606550       -16.5051
  40   2.0000      -0.596202       -16.2235
  41   2.0000      -0.574151       -15.6234
  42   2.0000      -0.570794       -15.5321
  43   2.0000      -0.562833       -15.3155
  44   2.0000      -0.530897       -14.4465
  45   2.0000      -0.526140       -14.3170
  46   2.0000      -0.519980       -14.1494
  47   2.0000      -0.514370       -13.9967
  48   2.0000      -0.506651       -13.7867
  49   2.0000      -0.505457       -13.7542
  50   2.0000      -0.494041       -13.4435
  51   2.0000      -0.481397       -13.0995
  52   2.0000      -0.470624       -12.8063
  53   2.0000      -0.462478       -12.5847
  54   2.0000      -0.460783       -12.5385
  55   2.0000      -0.448283       -12.1984
  56   2.0000      -0.443580       -12.0704
  57   2.0000      -0.438119       -11.9218
  58   2.0000      -0.433490       -11.7959
  59   2.0000      -0.427608       -11.6358
  60   2.0000      -0.422146       -11.4872
  61   2.0000      -0.411160       -11.1882
  62   2.0000      -0.402918       -10.9640
  63   2.0000      -0.338543        -9.2122
  64   2.0000      -0.332633        -9.0514
  65   2.0000      -0.327794        -8.9197
  66   2.0000      -0.292316        -7.9543
  67   0.0000       0.030463         0.8289
  68   0.0000       0.066305         1.8042
  69   0.0000       0.108042         2.9400
  70   0.0000       0.124182         3.3792
  71   0.0000       0.131751         3.5851

MULLIKEN ATOMIC CHARGES
-----------------------
   0 S :    0.128283
   1 C :   -0.145359
   2 C :   -0.058427
   3 C :    0.006667
   4 C :   -0.178124
   5 H :    0.014900
   6 C :    0.114580
   7 H :    0.012181
   8 H :    0.040500
   9 C :   -0.129536
  10 H :    0.024645
  11 H :    0.029821
  12 C :   -0.018718
  13 H :    0.021030
  14 H :    0.039660
  15 H :    0.030446
  16 S :    0.117634
  17 C :   -0.069161
  18 C :   -0.058462
  19 C :   -0.040716
  20 C :   -0.161206
  21 H :    0.034924
  22 C :    0.048392
  23 H :    0.008125
  24 H :    0.023655
  25 C :    0.038795
  26 H :    0.017139
  27 H :    0.032288
  28 C :   -0.079437
  29 H :    0.029132
  30 H :    0.020436
  31 H :    0.027565
  32 H :    0.050218
  33 H :    0.028130
Sum of atomic charges:    0.0000000

LOEWDIN ATOMIC CHARGES
----------------------
   0 S :    0.424336
   1 C :   -0.201694
   2 C :   -0.059074
   3 C :   -0.062491
   4 C :   -0.204735
   5 H :    0.033671
   6 C :   -0.022652
   7 H :    0.019279
   8 H :    0.036492
   9 C :   -0.048768
  10 H :    0.018811
  11 H :    0.023767
  12 C :   -0.067819
  13 H :    0.023692
  14 H :    0.030272
  15 H :    0.034362
  16 S :    0.413289
  17 C :   -0.176032
  18 C :   -0.075908
  19 C :   -0.051217
  20 C :   -0.207665
  21 H :    0.036062
  22 C :   -0.035634
  23 H :    0.023382
  24 H :    0.031138
  25 C :   -0.028231
  26 H :    0.022290
  27 H :    0.026629
  28 C :   -0.071519
  29 H :    0.025726
  30 H :    0.024388
  31 H :    0.029593
  32 H :    0.023794
  33 H :    0.012466

  Mayer bond orders larger than 0.100000
B(  0-S ,  1-C ) :   1.1535 B(  0-S ,  4-C ) :   1.1481 B(  1-C ,  2-C ) :   1.5980
B(  1-C , 32-H ) :   0.9622 B(  2-C ,  3-C ) :   1.2425 B(  2-C ,  6-C ) :   1.0015
B(  3-C ,  4-C ) :   1.5526 B(  3-C ,  5-H ) :   1.0006 B(  4-C , 20-C ) :   1.0766
B(  6-C ,  7-H ) :   0.9440 B(  6-C ,  8-H ) :   0.9307 B(  6-C ,  9-C ) :   1.0753
B(  9-C , 10-H ) :   0.9655 B(  9-C , 11-H ) :   0.9511 B(  9-C , 12-C ) :   1.0686
B( 12-C , 13-H ) :   0.9736 B( 12-C , 14-H ) :   0.9780 B( 12-C , 15-H ) :   0.9754
B( 16-S , 17-C ) :   1.1690 B( 16-S , 20-C ) :   1.1418 B( 17-C , 18-C ) :   1.5754
B( 17-C , 20-C ) :   0.1084 B( 17-C , 33-H ) :   0.9791 B( 18-C , 19-C ) :   1.2692
B( 18-C , 21-H ) :   0.9810 B( 19-C , 20-C ) :   1.5398 B( 19-C , 22-C ) :   1.0340
B( 22-C , 23-H ) :   0.9159 B( 22-C , 24-H ) :   0.9302 B( 22-C , 25-C ) :   1.0656
B( 25-C , 26-H ) :   0.9443 B( 25-C , 27-H ) :   0.9534 B( 25-C , 28-C ) :   1.0854
B( 28-C , 29-H ) :   0.9717 B( 28-C , 30-H ) :   0.9722 B( 28-C , 31-H ) :   0.9713

Dispersion correction           -0.013273712
FINAL SINGLE POINT ENERGY     -1339.857236469684

DIPOLE MOMENT
-------------
                                X             Y             Z
Electronic contribution:      9.86576      13.67482      -3.84538
Nuclear contribution   :     -9.99744     -13.81221       3.94807
                        -----------------------------------------
Total Dipole Moment    :     -0.13167      -0.13739       0.10269
                        -----------------------------------------
Magnitude (a.u.)       :      0.21624
Magnitude (Debye)      :      0.54964

Rotational constants in cm-1:     0.023374     0.006685     0.005495
Rotational constants in MHz :   700.748591   200.404745   164.734802

                             ****ORCA TERMINATED NORMALLY****
TOTAL RUN TIME: 0 days 0 hours 0 minutes 21 seconds 416 msec
