                         Program Version 4.2.1 -  RELEASE  -
|  1> ! wB97X-D3 SP def2-SVP
|  2> %pal
|  3> nprocs 24
|  4> end
|  5>
|  6> * xyz 0 1
|  7> S 	 18.0975 	 -15.459 	 -118.673
|  8> C 	 16.9919 	 -15.4782 	 -119.97
|  9> C 	 15.9191 	 -14.6815 	 -119.654
| 10> C 	 15.9189 	 -14.0869 	 -118.344
| 11> C 	 16.9972 	 -14.5437 	 -117.606
| 12> H 	 15.195 	 -13.4468 	 -117.869
| 13> C 	 14.7047 	 -14.5025 	 -120.538
| 14> H 	 13.86 	 -14.5514 	 -119.928
| 15> H 	 14.7008 	 -15.301 	 -121.279
| 16> C 	 14.6117 	 -13.1662 	 -121.265
| 17> H 	 14.6 	 -12.3842 	 -120.508
| 18> H 	 15.5415 	 -13.0499 	 -121.765
| 19> C 	 13.4224 	 -12.9266 	 -122.1
| 20> H 	 13.3919 	 -11.8471 	 -122.495
| 21> H 	 13.3598 	 -13.606 	 -123.019
| 22> H 	 12.5109 	 -12.9913 	 -121.502
| 23> S 	 18.7787 	 -14.9739 	 -115.52
| 24> C 	 18.4235 	 -14.3377 	 -113.908
| 25> C 	 17.1818 	 -13.8314 	 -113.826
| 26> C 	 16.5016 	 -13.711 	 -115.137
| 27> C 	 17.248 	 -14.3145 	 -116.17
| 28> H 	 16.9703 	 -13.5169 	 -112.888
| 29> C 	 15.124 	 -12.9337 	 -115.261
| 30> H 	 15.223 	 -12.3174 	 -116.119
| 31> H 	 14.9486 	 -12.194 	 -114.44
| 32> C 	 13.9186 	 -13.897 	 -115.5
| 33> H 	 13.7618 	 -14.6446 	 -114.736
| 34> H 	 14.164 	 -14.5019 	 -116.346
| 35> C 	 12.7099 	 -13.1034 	 -115.804
| 36> H 	 12.3254 	 -12.4768 	 -115.045
| 37> H 	 11.9414 	 -13.6549 	 -116.299
| 38> H 	 12.874 	 -12.4288 	 -116.578
| 39> H 	 17.1432 	 -15.9266 	 -120.93
| 40> H 	 18.9461 	 -14.5259 	 -112.973
| 41> *
| 42>
| 43>                          ****END OF INPUT****

CARTESIAN COORDINATES (ANGSTROEM)
---------------------------------
  S     18.097500  -15.459000  -118.673000
  C     16.991900  -15.478200  -119.970000
  C     15.919100  -14.681500  -119.654000
  C     15.918900  -14.086900  -118.344000
  C     16.997200  -14.543700  -117.606000
  H     15.195000  -13.446800  -117.869000
  C     14.704700  -14.502500  -120.538000
  H     13.860000  -14.551400  -119.928000
  H     14.700800  -15.301000  -121.279000
  C     14.611700  -13.166200  -121.265000
  H     14.600000  -12.384200  -120.508000
  H     15.541500  -13.049900  -121.765000
  C     13.422400  -12.926600  -122.100000
  H     13.391900  -11.847100  -122.495000
  H     13.359800  -13.606000  -123.019000
  H     12.510900  -12.991300  -121.502000
  S     18.778700  -14.973900  -115.520000
  C     18.423500  -14.337700  -113.908000
  C     17.181800  -13.831400  -113.826000
  C     16.501600  -13.711000  -115.137000
  C     17.248000  -14.314500  -116.170000
  H     16.970300  -13.516900  -112.888000
  C     15.124000  -12.933700  -115.261000
  H     15.223000  -12.317400  -116.119000
  H     14.948600  -12.194000  -114.440000
  C     13.918600  -13.897000  -115.500000
  H     13.761800  -14.644600  -114.736000
  H     14.164000  -14.501900  -116.346000
  C     12.709900  -13.103400  -115.804000
  H     12.325400  -12.476800  -115.045000
  H     11.941400  -13.654900  -116.299000
  H     12.874000  -12.428800  -116.578000
  H     17.143200  -15.926600  -120.930000
  H     18.946100  -14.525900  -112.973000

 Total Charge           Charge          ....    0
 Multiplicity           Mult            ....    1
 Number of Electrons    NEL             ....  134
 Basis Dimension        Dim             ....  322

ORBITAL ENERGIES
----------------

  NO   OCC          E(Eh)            E(eV)
   0   2.0000     -88.966973     -2420.9144
   1   2.0000     -88.964537     -2420.8481
   2   2.0000     -10.339872      -281.3622
   3   2.0000     -10.338359      -281.3210
   4   2.0000     -10.319947      -280.8200
   5   2.0000     -10.314963      -280.6844
   6   2.0000     -10.312503      -280.6175
   7   2.0000     -10.303357      -280.3686
   8   2.0000     -10.301023      -280.3051
   9   2.0000     -10.296870      -280.1921
  10   2.0000     -10.288834      -279.9734
  11   2.0000     -10.287477      -279.9365
  12   2.0000     -10.283552      -279.8297
  13   2.0000     -10.282775      -279.8085
  14   2.0000     -10.277044      -279.6526
  15   2.0000     -10.265722      -279.3445
  16   2.0000      -8.081888      -219.9194
  17   2.0000      -8.078503      -219.8272
  18   2.0000      -6.040581      -164.3726
  19   2.0000      -6.037330      -164.2841
  20   2.0000      -6.036321      -164.2566
  21   2.0000      -6.033213      -164.1721
  22   2.0000      -6.032493      -164.1525
  23   2.0000      -6.028886      -164.0543
  24   2.0000      -1.006002       -27.3747
  25   2.0000      -0.981886       -26.7185
  26   2.0000      -0.917865       -24.9764
  27   2.0000      -0.914107       -24.8741
  28   2.0000      -0.876831       -23.8598
  29   2.0000      -0.855691       -23.2845
  30   2.0000      -0.845561       -23.0089
  31   2.0000      -0.825391       -22.4600
  32   2.0000      -0.782927       -21.3045
  33   2.0000      -0.772174       -21.0119
  34   2.0000      -0.716538       -19.4980
  35   2.0000      -0.702771       -19.1234
  36   2.0000      -0.695249       -18.9187
  37   2.0000      -0.665436       -18.1074
  38   2.0000      -0.642223       -17.4758
  39   2.0000      -0.624855       -17.0032
  40   2.0000      -0.591373       -16.0921
  41   2.0000      -0.579948       -15.7812
  42   2.0000      -0.572606       -15.5814
  43   2.0000      -0.563646       -15.3376
  44   2.0000      -0.529163       -14.3993
  45   2.0000      -0.521355       -14.1868
  46   2.0000      -0.519451       -14.1350
  47   2.0000      -0.517237       -14.0747
  48   2.0000      -0.510087       -13.8802
  49   2.0000      -0.507399       -13.8070
  50   2.0000      -0.497081       -13.5263
  51   2.0000      -0.488904       -13.3038
  52   2.0000      -0.477418       -12.9912
  53   2.0000      -0.469895       -12.7865
  54   2.0000      -0.463862       -12.6223
  55   2.0000      -0.453441       -12.3388
  56   2.0000      -0.446932       -12.1616
  57   2.0000      -0.434534       -11.8243
  58   2.0000      -0.425593       -11.5810
  59   2.0000      -0.424348       -11.5471
  60   2.0000      -0.418587       -11.3903
  61   2.0000      -0.417471       -11.3600
  62   2.0000      -0.411076       -11.1859
  63   2.0000      -0.369941       -10.0666
  64   2.0000      -0.334706        -9.1078
  65   2.0000      -0.324258        -8.8235
  66   2.0000      -0.285452        -7.7675
  67   0.0000       0.016570         0.4509
  68   0.0000       0.089566         2.4372
  69   0.0000       0.095670         2.6033
  70   0.0000       0.114992         3.1291
  71   0.0000       0.128209         3.4887

MULLIKEN ATOMIC CHARGES
-----------------------
   0 S :    0.105821
   1 C :   -0.095775
   2 C :   -0.096686
   3 C :    0.004582
   4 C :   -0.095346
   5 H :   -0.002841
   6 C :    0.103736
   7 H :   -0.000318
   8 H :    0.010313
   9 C :   -0.057334
  10 H :    0.011730
  11 H :    0.014501
  12 C :   -0.063185
  13 H :    0.043568
  14 H :    0.042179
  15 H :    0.027794
  16 S :    0.078080
  17 C :   -0.079430
  18 C :    0.003772
  19 C :   -0.055119
  20 C :   -0.115158
  21 H :   -0.023563
  22 C :    0.031078
  23 H :    0.019350
  24 H :    0.035612
  25 C :   -0.049542
  26 H :    0.028513
  27 H :    0.016345
  28 C :    0.030098
  29 H :    0.021799
  30 H :    0.018260
  31 H :   -0.015902
  32 H :    0.044357
  33 H :    0.058710
Sum of atomic charges:    0.0000000

LOEWDIN ATOMIC CHARGES
----------------------
   0 S :    0.404483
   1 C :   -0.207564
   2 C :   -0.059909
   3 C :   -0.065088
   4 C :   -0.170655
   5 H :    0.029323
   6 C :   -0.023185
   7 H :    0.018362
   8 H :    0.025966
   9 C :   -0.047265
  10 H :    0.022356
  11 H :    0.018583
  12 C :   -0.073410
  13 H :    0.037253
  14 H :    0.029822
  15 H :    0.023776
  16 S :    0.368612
  17 C :   -0.174716
  18 C :   -0.060878
  19 C :   -0.046731
  20 C :   -0.177716
  21 H :    0.015906
  22 C :   -0.025607
  23 H :    0.020732
  24 H :    0.035353
  25 C :   -0.037621
  26 H :    0.025865
  27 H :    0.022708
  28 C :   -0.062876
  29 H :    0.022173
  30 H :    0.027942
  31 H :    0.016591
  32 H :    0.031435
  33 H :    0.035978

  Mayer bond orders larger than 0.100000
B(  0-S ,  1-C ) :   1.1265 B(  0-S ,  4-C ) :   1.1448 B(  1-C ,  2-C ) :   1.6143
B(  1-C , 32-H ) :   0.9722 B(  2-C ,  3-C ) :   1.2270 B(  2-C ,  6-C ) :   1.0393
B(  3-C ,  4-C ) :   1.5665 B(  3-C ,  5-H ) :   0.9898 B(  4-C , 20-C ) :   1.0940
B(  6-C ,  7-H ) :   0.9334 B(  6-C ,  8-H ) :   0.9407 B(  6-C ,  9-C ) :   1.0659
B(  9-C , 10-H ) :   0.9484 B(  9-C , 11-H ) :   0.9512 B(  9-C , 12-C ) :   1.0979
B( 12-C , 13-H ) :   0.9696 B( 12-C , 14-H ) :   0.9717 B( 12-C , 15-H ) :   0.9687
B( 16-S , 17-C ) :   1.1190 B( 16-S , 20-C ) :   1.1146 B( 17-C , 18-C ) :   1.6994
B( 17-C , 33-H ) :   0.9578 B( 18-C , 19-C ) :   1.1818 B( 18-C , 21-H ) :   1.0009
B( 19-C , 20-C ) :   1.6186 B( 19-C , 22-C ) :   1.0187 B( 22-C , 23-H ) :   0.9403
B( 22-C , 24-H ) :   0.9456 B( 22-C , 25-C ) :   1.0559 B( 25-C , 26-H ) :   0.9521
B( 25-C , 27-H ) :   0.9489 B( 25-C , 28-C ) :   1.0925 B( 28-C , 29-H ) :   0.9706
B( 28-C , 30-H ) :   0.9632 B( 28-C , 31-H ) :   0.9571

Dispersion correction           -0.014126038
FINAL SINGLE POINT ENERGY     -1339.857610485687

DIPOLE MOMENT
-------------
                                X             Y             Z
Electronic contribution:     29.56050     -12.11223      10.20764
Nuclear contribution   :    -30.25817      12.43603     -10.15486
                        -----------------------------------------
Total Dipole Moment    :     -0.69767       0.32379       0.05278
                        -----------------------------------------
Magnitude (a.u.)       :      0.77095
Magnitude (Debye)      :      1.95960

Rotational constants in cm-1:     0.018604     0.009101     0.006384
Rotational constants in MHz :   557.736173   272.850680   191.381369

                             ****ORCA TERMINATED NORMALLY****
TOTAL RUN TIME: 0 days 0 hours 0 minutes 22 seconds 31 msec
