                         Program Version 4.2.1 -  RELEASE  -
|  1> ! wB97X-D3 SP def2-SVP
|  2> %pal
|  3> nprocs 24
|  4> end
|  5>
|  6> * xyz 0 1
|  7> S 	 -28.6876 	 -32.7226 	 -93.375
|  8> C 	 -28.5813 	 -31.0343 	 -93.7444
|  9> C 	 -29.0478 	 -30.2923 	 -92.6417
| 10> C 	 -29.6115 	 -31.1107 	 -91.6355
| 11> C 	 -29.6279 	 -32.4737 	 -91.9398
| 12> H 	 -29.9913 	 -30.7558 	 -90.6785
| 13> C 	 -29.0872 	 -28.8157 	 -92.5168
| 14> H 	 -30.0788 	 -28.5463 	 -92.2497
| 15> H 	 -28.9779 	 -28.362 	 -93.5102
| 16> C 	 -28.0841 	 -28.1551 	 -91.6056
| 17> H 	 -28.2935 	 -27.0895 	 -91.5961
| 18> H 	 -28.1858 	 -28.589 	 -90.5874
| 19> C 	 -26.5946 	 -28.2111 	 -91.9335
| 20> H 	 -26.4207 	 -27.8612 	 -92.9529
| 21> H 	 -26.1141 	 -27.5745 	 -91.1818
| 22> H 	 -26.1675 	 -29.237 	 -91.8305
| 23> S 	 -28.7666 	 -34.4915 	 -90.5152
| 24> C 	 -29.8009 	 -35.5179 	 -89.5849
| 25> C 	 -31.1114 	 -35.1128 	 -89.8078
| 26> C 	 -31.3245 	 -34.0408 	 -90.682
| 27> C 	 -30.0801 	 -33.5995 	 -91.1276
| 28> H 	 -31.8936 	 -35.597 	 -89.2308
| 29> C 	 -32.7027 	 -33.5172 	 -91.0046
| 30> H 	 -32.5998 	 -32.476 	 -91.0842
| 31> H 	 -33.2309 	 -33.6657 	 -90.065
| 32> C 	 -33.5095 	 -34.071 	 -92.1501
| 33> H 	 -32.9222 	 -33.9478 	 -93.115
| 34> H 	 -34.4674 	 -33.592 	 -92.2908
| 35> C 	 -33.9039 	 -35.5061 	 -91.8476
| 36> H 	 -34.363 	 -35.9837 	 -92.7315
| 37> H 	 -34.6352 	 -35.6102 	 -91.088
| 38> H 	 -33.1358 	 -36.2158 	 -91.5189
| 39> H 	 -28.015 	 -30.509 	 -94.4728
| 40> H 	 -29.5095 	 -36.3405 	 -88.9758
| 41> *
| 42>
| 43>                          ****END OF INPUT****

CARTESIAN COORDINATES (ANGSTROEM)
---------------------------------
  S    -28.687600  -32.722600  -93.375000
  C    -28.581300  -31.034300  -93.744400
  C    -29.047800  -30.292300  -92.641700
  C    -29.611500  -31.110700  -91.635500
  C    -29.627900  -32.473700  -91.939800
  H    -29.991300  -30.755800  -90.678500
  C    -29.087200  -28.815700  -92.516800
  H    -30.078800  -28.546300  -92.249700
  H    -28.977900  -28.362000  -93.510200
  C    -28.084100  -28.155100  -91.605600
  H    -28.293500  -27.089500  -91.596100
  H    -28.185800  -28.589000  -90.587400
  C    -26.594600  -28.211100  -91.933500
  H    -26.420700  -27.861200  -92.952900
  H    -26.114100  -27.574500  -91.181800
  H    -26.167500  -29.237000  -91.830500
  S    -28.766600  -34.491500  -90.515200
  C    -29.800900  -35.517900  -89.584900
  C    -31.111400  -35.112800  -89.807800
  C    -31.324500  -34.040800  -90.682000
  C    -30.080100  -33.599500  -91.127600
  H    -31.893600  -35.597000  -89.230800
  C    -32.702700  -33.517200  -91.004600
  H    -32.599800  -32.476000  -91.084200
  H    -33.230900  -33.665700  -90.065000
  C    -33.509500  -34.071000  -92.150100
  H    -32.922200  -33.947800  -93.115000
  H    -34.467400  -33.592000  -92.290800
  C    -33.903900  -35.506100  -91.847600
  H    -34.363000  -35.983700  -92.731500
  H    -34.635200  -35.610200  -91.088000
  H    -33.135800  -36.215800  -91.518900
  H    -28.015000  -30.509000  -94.472800
  H    -29.509500  -36.340500  -88.975800

 Total Charge           Charge          ....    0
 Multiplicity           Mult            ....    1
 Number of Electrons    NEL             ....  134
 Basis Dimension        Dim             ....  322

ORBITAL ENERGIES
----------------

  NO   OCC          E(Eh)            E(eV)
   0   2.0000     -88.967069     -2420.9170
   1   2.0000     -88.965826     -2420.8832
   2   2.0000     -10.327989      -281.0389
   3   2.0000     -10.323550      -280.9181
   4   2.0000     -10.312649      -280.6215
   5   2.0000     -10.311081      -280.5788
   6   2.0000     -10.301786      -280.3258
   7   2.0000     -10.296958      -280.1945
   8   2.0000     -10.292151      -280.0637
   9   2.0000     -10.289518      -279.9920
  10   2.0000     -10.288712      -279.9701
  11   2.0000     -10.285068      -279.8709
  12   2.0000     -10.284988      -279.8687
  13   2.0000     -10.284319      -279.8505
  14   2.0000     -10.278599      -279.6949
  15   2.0000     -10.270410      -279.4721
  16   2.0000      -8.081961      -219.9213
  17   2.0000      -8.081762      -219.9159
  18   2.0000      -6.040388      -164.3673
  19   2.0000      -6.040083      -164.3590
  20   2.0000      -6.036342      -164.2572
  21   2.0000      -6.035856      -164.2440
  22   2.0000      -6.032883      -164.1631
  23   2.0000      -6.032872      -164.1628
  24   2.0000      -1.014896       -27.6167
  25   2.0000      -0.989537       -26.9267
  26   2.0000      -0.917789       -24.9743
  27   2.0000      -0.914806       -24.8931
  28   2.0000      -0.870078       -23.6760
  29   2.0000      -0.853866       -23.2349
  30   2.0000      -0.848277       -23.0828
  31   2.0000      -0.813687       -22.1416
  32   2.0000      -0.787174       -21.4201
  33   2.0000      -0.777299       -21.1514
  34   2.0000      -0.710459       -19.3326
  35   2.0000      -0.696865       -18.9627
  36   2.0000      -0.690982       -18.8026
  37   2.0000      -0.665319       -18.1042
  38   2.0000      -0.637640       -17.3511
  39   2.0000      -0.621885       -16.9224
  40   2.0000      -0.594606       -16.1800
  41   2.0000      -0.571233       -15.5440
  42   2.0000      -0.557020       -15.1573
  43   2.0000      -0.553298       -15.0560
  44   2.0000      -0.550931       -14.9916
  45   2.0000      -0.544722       -14.8226
  46   2.0000      -0.516724       -14.0608
  47   2.0000      -0.514497       -14.0002
  48   2.0000      -0.510068       -13.8797
  49   2.0000      -0.490584       -13.3495
  50   2.0000      -0.487559       -13.2671
  51   2.0000      -0.482739       -13.1360
  52   2.0000      -0.473251       -12.8778
  53   2.0000      -0.464430       -12.6378
  54   2.0000      -0.462332       -12.5807
  55   2.0000      -0.444765       -12.1027
  56   2.0000      -0.439138       -11.9496
  57   2.0000      -0.437945       -11.9171
  58   2.0000      -0.435430       -11.8487
  59   2.0000      -0.425473       -11.5777
  60   2.0000      -0.418517       -11.3884
  61   2.0000      -0.416430       -11.3316
  62   2.0000      -0.410149       -11.1607
  63   2.0000      -0.340182        -9.2568
  64   2.0000      -0.331229        -9.0132
  65   2.0000      -0.325951        -8.8696
  66   2.0000      -0.298627        -8.1260
  67   0.0000       0.037883         1.0308
  68   0.0000       0.059024         1.6061
  69   0.0000       0.117053         3.1852
  70   0.0000       0.126346         3.4381
  71   0.0000       0.130019         3.5380

MULLIKEN ATOMIC CHARGES
-----------------------
   0 S :    0.121661
   1 C :   -0.079561
   2 C :   -0.123229
   3 C :    0.047348
   4 C :   -0.173709
   5 H :    0.012936
   6 C :    0.095322
   7 H :    0.019171
   8 H :    0.005266
   9 C :   -0.086726
  10 H :    0.029313
  11 H :    0.028117
  12 C :   -0.060096
  13 H :    0.026042
  14 H :    0.039773
  15 H :    0.044041
  16 S :    0.128665
  17 C :   -0.082974
  18 C :   -0.063120
  19 C :   -0.016420
  20 C :   -0.200222
  21 H :    0.013208
  22 C :    0.118849
  23 H :    0.005416
  24 H :    0.009867
  25 C :   -0.016319
  26 H :    0.047287
  27 H :    0.030830
  28 C :   -0.077376
  29 H :    0.029100
  30 H :    0.011448
  31 H :    0.034672
  32 H :    0.034400
  33 H :    0.047019
Sum of atomic charges:   -0.0000000

LOEWDIN ATOMIC CHARGES
----------------------
   0 S :    0.429035
   1 C :   -0.208722
   2 C :   -0.064200
   3 C :   -0.063845
   4 C :   -0.209831
   5 H :    0.031053
   6 C :   -0.036790
   7 H :    0.030128
   8 H :    0.029200
   9 C :   -0.043175
  10 H :    0.025716
  11 H :    0.025248
  12 C :   -0.066531
  13 H :    0.020509
  14 H :    0.030729
  15 H :    0.028574
  16 S :    0.449701
  17 C :   -0.198665
  18 C :   -0.071389
  19 C :   -0.056876
  20 C :   -0.214140
  21 H :    0.027542
  22 C :   -0.028661
  23 H :    0.024540
  24 H :    0.032390
  25 C :   -0.035565
  26 H :    0.035816
  27 H :    0.029211
  28 C :   -0.073305
  29 H :    0.028546
  30 H :    0.017287
  31 H :    0.025311
  32 H :    0.025024
  33 H :    0.026133

  Mayer bond orders larger than 0.100000
B(  0-S ,  1-C ) :   1.1503 B(  0-S ,  4-C ) :   1.1736 B(  1-C ,  2-C ) :   1.5719
B(  1-C ,  4-C ) :   0.1099 B(  1-C , 32-H ) :   0.9672 B(  2-C ,  3-C ) :   1.2736
B(  2-C ,  6-C ) :   1.0321 B(  3-C ,  4-C ) :   1.5428 B(  3-C ,  5-H ) :   0.9948
B(  4-C , 20-C ) :   1.0004 B(  6-C ,  7-H ) :   0.9351 B(  6-C ,  8-H ) :   0.9330
B(  6-C ,  9-C ) :   1.0824 B(  9-C , 10-H ) :   0.9544 B(  9-C , 11-H ) :   0.9536
B(  9-C , 12-C ) :   1.0817 B( 12-C , 13-H ) :   0.9739 B( 12-C , 14-H ) :   0.9732
B( 12-C , 15-H ) :   0.9744 B( 16-S , 17-C ) :   1.1589 B( 16-S , 20-C ) :   1.2050
B( 17-C , 18-C ) :   1.5748 B( 17-C , 20-C ) :   0.1091 B( 17-C , 33-H ) :   0.9756
B( 18-C , 19-C ) :   1.2777 B( 18-C , 21-H ) :   0.9825 B( 19-C , 20-C ) :   1.5530
B( 19-C , 22-C ) :   1.0302 B( 22-C , 23-H ) :   0.9182 B( 22-C , 24-H ) :   0.9272
B( 22-C , 25-C ) :   1.0847 B( 25-C , 26-H ) :   0.9538 B( 25-C , 27-H ) :   0.9488
B( 25-C , 28-C ) :   1.0709 B( 28-C , 29-H ) :   0.9714 B( 28-C , 30-H ) :   0.9737
B( 28-C , 31-H ) :   0.9757

Dispersion correction           -0.014163549
FINAL SINGLE POINT ENERGY     -1339.882134465335

DIPOLE MOMENT
-------------
                                X             Y             Z
Electronic contribution:     10.59147     -12.97147      -0.76211
Nuclear contribution   :    -10.91849      13.33219       1.05004
                        -----------------------------------------
Total Dipole Moment    :     -0.32702       0.36072       0.28793
                        -----------------------------------------
Magnitude (a.u.)       :      0.56565
Magnitude (Debye)      :      1.43778

Rotational constants in cm-1:     0.023452     0.007456     0.006732
Rotational constants in MHz :   703.072524   223.515420   201.823951

                             ****ORCA TERMINATED NORMALLY****
TOTAL RUN TIME: 0 days 0 hours 0 minutes 21 seconds 314 msec
