                         Program Version 4.2.1 -  RELEASE  -
|  1> ! wB97X-D3 SP def2-SVP
|  2> %pal
|  3> nprocs 24
|  4> end
|  5>
|  6> * xyz 0 1
|  7> S 	 -34.8396 	 -3.32634 	 5.87443
|  8> C 	 -35.803 	 -2.86985 	 7.2618
|  9> C 	 -36.869 	 -3.67731 	 7.49787
| 10> C 	 -36.7407 	 -4.81781 	 6.68358
| 11> C 	 -35.7972 	 -4.7729 	 5.68864
| 12> H 	 -37.3539 	 -5.71409 	 6.71555
| 13> C 	 -37.8667 	 -3.37836 	 8.62802
| 14> H 	 -38.0891 	 -2.30345 	 8.44511
| 15> H 	 -37.4747 	 -3.28493 	 9.64766
| 16> C 	 -39.1895 	 -4.11217 	 8.70403
| 17> H 	 -39.0237 	 -5.12412 	 8.80308
| 18> H 	 -39.835 	 -3.81524 	 9.57605
| 19> C 	 -40.1376 	 -3.96414 	 7.51913
| 20> H 	 -40.8117 	 -3.08846 	 7.58696
| 21> H 	 -39.5548 	 -3.94121 	 6.53998
| 22> H 	 -40.7007 	 -4.87767 	 7.34334
| 23> S 	 -33.828 	 -6.19633 	 4.44079
| 24> C 	 -34.2183 	 -7.45502 	 3.39612
| 25> C 	 -35.5878 	 -7.55801 	 3.19284
| 26> C 	 -36.2903 	 -6.56462 	 3.88416
| 27> C 	 -35.4901 	 -5.80426 	 4.70047
| 28> H 	 -35.9605 	 -8.26457 	 2.45324
| 29> C 	 -37.8191 	 -6.63982 	 3.8752
| 30> H 	 -38.1028 	 -6.46774 	 2.8157
| 31> H 	 -38.2741 	 -5.87508 	 4.50132
| 32> C 	 -38.4324 	 -8.03779 	 4.32574
| 33> H 	 -38.0813 	 -8.21835 	 5.3656
| 34> H 	 -37.9383 	 -8.88224 	 3.78412
| 35> C 	 -39.9353 	 -8.14162 	 4.31634
| 36> H 	 -40.4488 	 -7.30169 	 4.72852
| 37> H 	 -40.1464 	 -9.01411 	 4.94706
| 38> H 	 -40.3832 	 -8.25799 	 3.31676
| 39> H 	 -35.6017 	 -1.97188 	 7.86926
| 40> H 	 -33.3579 	 -7.96399 	 3.06825
| 41> *
| 42>
| 43>                          ****END OF INPUT****

CARTESIAN COORDINATES (ANGSTROEM)
---------------------------------
  S    -34.839600   -3.326340    5.874430
  C    -35.803000   -2.869850    7.261800
  C    -36.869000   -3.677310    7.497870
  C    -36.740700   -4.817810    6.683580
  C    -35.797200   -4.772900    5.688640
  H    -37.353900   -5.714090    6.715550
  C    -37.866700   -3.378360    8.628020
  H    -38.089100   -2.303450    8.445110
  H    -37.474700   -3.284930    9.647660
  C    -39.189500   -4.112170    8.704030
  H    -39.023700   -5.124120    8.803080
  H    -39.835000   -3.815240    9.576050
  C    -40.137600   -3.964140    7.519130
  H    -40.811700   -3.088460    7.586960
  H    -39.554800   -3.941210    6.539980
  H    -40.700700   -4.877670    7.343340
  S    -33.828000   -6.196330    4.440790
  C    -34.218300   -7.455020    3.396120
  C    -35.587800   -7.558010    3.192840
  C    -36.290300   -6.564620    3.884160
  C    -35.490100   -5.804260    4.700470
  H    -35.960500   -8.264570    2.453240
  C    -37.819100   -6.639820    3.875200
  H    -38.102800   -6.467740    2.815700
  H    -38.274100   -5.875080    4.501320
  C    -38.432400   -8.037790    4.325740
  H    -38.081300   -8.218350    5.365600
  H    -37.938300   -8.882240    3.784120
  C    -39.935300   -8.141620    4.316340
  H    -40.448800   -7.301690    4.728520
  H    -40.146400   -9.014110    4.947060
  H    -40.383200   -8.257990    3.316760
  H    -35.601700   -1.971880    7.869260
  H    -33.357900   -7.963990    3.068250

 Total Charge           Charge          ....    0
 Multiplicity           Mult            ....    1
 Number of Electrons    NEL             ....  134
 Basis Dimension        Dim             ....  322

ORBITAL ENERGIES
----------------

  NO   OCC          E(Eh)            E(eV)
   0   2.0000     -88.966040     -2420.8890
   1   2.0000     -88.961577     -2420.7676
   2   2.0000     -10.325453      -280.9699
   3   2.0000     -10.321846      -280.8717
   4   2.0000     -10.311454      -280.5889
   5   2.0000     -10.310593      -280.5655
   6   2.0000     -10.301390      -280.3151
   7   2.0000     -10.300159      -280.2816
   8   2.0000     -10.298015      -280.2232
   9   2.0000     -10.296057      -280.1700
  10   2.0000     -10.293893      -280.1111
  11   2.0000     -10.293242      -280.0933
  12   2.0000     -10.290655      -280.0230
  13   2.0000     -10.284061      -279.8435
  14   2.0000     -10.280615      -279.7498
  15   2.0000     -10.278892      -279.7029
  16   2.0000      -8.080908      -219.8927
  17   2.0000      -8.078710      -219.8329
  18   2.0000      -6.039356      -164.3392
  19   2.0000      -6.036781      -164.2692
  20   2.0000      -6.035475      -164.2336
  21   2.0000      -6.032830      -164.1617
  22   2.0000      -6.031664      -164.1299
  23   2.0000      -6.029830      -164.0800
  24   2.0000      -1.016615       -27.6635
  25   2.0000      -0.994289       -27.0560
  26   2.0000      -0.913480       -24.8570
  27   2.0000      -0.905743       -24.6465
  28   2.0000      -0.872724       -23.7480
  29   2.0000      -0.859770       -23.3955
  30   2.0000      -0.845025       -22.9943
  31   2.0000      -0.816149       -22.2085
  32   2.0000      -0.786140       -21.3919
  33   2.0000      -0.775986       -21.1157
  34   2.0000      -0.707044       -19.2397
  35   2.0000      -0.699055       -19.0222
  36   2.0000      -0.689417       -18.7600
  37   2.0000      -0.664989       -18.0953
  38   2.0000      -0.640939       -17.4408
  39   2.0000      -0.624311       -16.9884
  40   2.0000      -0.606109       -16.4931
  41   2.0000      -0.569046       -15.4845
  42   2.0000      -0.556524       -15.1438
  43   2.0000      -0.550965       -14.9925
  44   2.0000      -0.543412       -14.7870
  45   2.0000      -0.530075       -14.4241
  46   2.0000      -0.521080       -14.1793
  47   2.0000      -0.514057       -13.9882
  48   2.0000      -0.502020       -13.6607
  49   2.0000      -0.494734       -13.4624
  50   2.0000      -0.490070       -13.3355
  51   2.0000      -0.482670       -13.1341
  52   2.0000      -0.475339       -12.9346
  53   2.0000      -0.468040       -12.7360
  54   2.0000      -0.461200       -12.5499
  55   2.0000      -0.453678       -12.3452
  56   2.0000      -0.439030       -11.9466
  57   2.0000      -0.435885       -11.8610
  58   2.0000      -0.430434       -11.7127
  59   2.0000      -0.424935       -11.5631
  60   2.0000      -0.420039       -11.4298
  61   2.0000      -0.419542       -11.4163
  62   2.0000      -0.414737       -11.2856
  63   2.0000      -0.348916        -9.4945
  64   2.0000      -0.333223        -9.0675
  65   2.0000      -0.332912        -9.0590
  66   2.0000      -0.288815        -7.8591
  67   0.0000       0.032427         0.8824
  68   0.0000       0.076851         2.0912
  69   0.0000       0.112063         3.0494
  70   0.0000       0.119710         3.2575
  71   0.0000       0.124605         3.3907

MULLIKEN ATOMIC CHARGES
-----------------------
   0 S :    0.114707
   1 C :   -0.140721
   2 C :   -0.036252
   3 C :   -0.004983
   4 C :   -0.139447
   5 H :    0.006457
   6 C :    0.054335
   7 H :    0.025715
   8 H :    0.043548
   9 C :   -0.047381
  10 H :    0.011862
  11 H :    0.036689
  12 C :   -0.097973
  13 H :    0.045993
  14 H :    0.038769
  15 H :    0.026896
  16 S :    0.107972
  17 C :   -0.086150
  18 C :   -0.041860
  19 C :   -0.008814
  20 C :   -0.165942
  21 H :    0.030732
  22 C :    0.055361
  23 H :    0.033478
  24 H :    0.021551
  25 C :   -0.116126
  26 H :    0.028268
  27 H :    0.032324
  28 C :   -0.020553
  29 H :    0.022274
  30 H :    0.038061
  31 H :    0.035382
  32 H :    0.050570
  33 H :    0.045261
Sum of atomic charges:   -0.0000000

LOEWDIN ATOMIC CHARGES
----------------------
   0 S :    0.403404
   1 C :   -0.190583
   2 C :   -0.066076
   3 C :   -0.068484
   4 C :   -0.194628
   5 H :    0.028298
   6 C :   -0.037659
   7 H :    0.038180
   8 H :    0.037810
   9 C :   -0.047390
  10 H :    0.012738
  11 H :    0.037510
  12 C :   -0.076795
  13 H :    0.027219
  14 H :    0.030461
  15 H :    0.025197
  16 S :    0.444725
  17 C :   -0.189423
  18 C :   -0.074659
  19 C :   -0.059011
  20 C :   -0.210171
  21 H :    0.035195
  22 C :   -0.030802
  23 H :    0.034023
  24 H :    0.023847
  25 C :   -0.046687
  26 H :    0.024763
  27 H :    0.025949
  28 C :   -0.066415
  29 H :    0.020954
  30 H :    0.034057
  31 H :    0.027494
  32 H :    0.030755
  33 H :    0.016206

  Mayer bond orders larger than 0.100000
B(  0-S ,  1-C ) :   1.1458 B(  0-S ,  4-C ) :   1.1433 B(  1-C ,  2-C ) :   1.6230
B(  1-C , 32-H ) :   0.9635 B(  2-C ,  3-C ) :   1.2353 B(  2-C ,  6-C ) :   0.9895
B(  3-C ,  4-C ) :   1.5898 B(  3-C ,  5-H ) :   0.9918 B(  4-C , 20-C ) :   1.0345
B(  6-C ,  7-H ) :   0.9379 B(  6-C ,  8-H ) :   0.9444 B(  6-C ,  9-C ) :   1.0843
B(  9-C , 10-H ) :   0.9527 B(  9-C , 11-H ) :   0.9527 B(  9-C , 12-C ) :   1.0764
B( 12-C , 13-H ) :   0.9771 B( 12-C , 14-H ) :   0.9746 B( 12-C , 15-H ) :   0.9745
B( 16-S , 17-C ) :   1.2069 B( 16-S , 20-C ) :   1.1591 B( 17-C , 18-C ) :   1.5331
B( 17-C , 20-C ) :   0.1033 B( 17-C , 33-H ) :   0.9815 B( 18-C , 19-C ) :   1.2599
B( 18-C , 21-H ) :   0.9972 B( 19-C , 20-C ) :   1.5765 B( 19-C , 22-C ) :   1.0501
B( 22-C , 23-H ) :   0.9285 B( 22-C , 24-H ) :   0.9401 B( 22-C , 25-C ) :   1.0554
B( 25-C , 26-H ) :   0.9578 B( 25-C , 27-H ) :   0.9494 B( 25-C , 28-C ) :   1.0835
B( 28-C , 29-H ) :   0.9727 B( 28-C , 30-H ) :   0.9724 B( 28-C , 31-H ) :   0.9734

Dispersion correction           -0.014501121
FINAL SINGLE POINT ENERGY     -1339.879110815753

DIPOLE MOMENT
-------------
                                X             Y             Z
Electronic contribution:     31.23443       6.98027      -6.56037
Nuclear contribution   :    -31.76770      -7.25660       6.74212
                        -----------------------------------------
Total Dipole Moment    :     -0.53327      -0.27632       0.18174
                        -----------------------------------------
Magnitude (a.u.)       :      0.62751
Magnitude (Debye)      :      1.59499

Rotational constants in cm-1:     0.015873     0.010738     0.006727
Rotational constants in MHz :   475.861290   321.915605   201.669156

                             ****ORCA TERMINATED NORMALLY****
TOTAL RUN TIME: 0 days 0 hours 0 minutes 22 seconds 54 msec
