                         Program Version 4.2.1 -  RELEASE  -
|  1> ! wB97X-D3 SP def2-SVP
|  2> %pal
|  3> nprocs 24
|  4> end
|  5>
|  6> * xyz 0 1
|  7> S 	 -122.017 	 44.6909 	 -33.8928
|  8> C 	 -121.009 	 44.1488 	 -32.6519
|  9> C 	 -119.819 	 44.8446 	 -32.558
| 10> C 	 -119.753 	 46.0012 	 -33.4497
| 11> C 	 -120.9 	 46.0294 	 -34.2477
| 12> H 	 -118.916 	 46.7208 	 -33.5015
| 13> C 	 -118.704 	 44.4848 	 -31.5934
| 14> H 	 -117.89 	 43.9654 	 -32.1494
| 15> H 	 -119.072 	 43.7728 	 -30.8372
| 16> C 	 -118.093 	 45.6868 	 -30.883
| 17> H 	 -117.69 	 46.3212 	 -31.6777
| 18> H 	 -118.869 	 46.3477 	 -30.5084
| 19> C 	 -117.019 	 45.221 	 -29.874
| 20> H 	 -116.519 	 46.088 	 -29.4392
| 21> H 	 -117.545 	 44.6656 	 -29.0749
| 22> H 	 -116.356 	 44.5613 	 -30.3967
| 23> S 	 -122.776 	 47.6935 	 -35.4739
| 24> C 	 -122.174 	 48.8109 	 -36.7008
| 25> C 	 -120.815 	 48.6919 	 -36.8522
| 26> C 	 -120.193 	 47.7064 	 -36.0277
| 27> C 	 -121.151 	 47.0072 	 -35.2629
| 28> H 	 -120.301 	 49.3273 	 -37.5414
| 29> C 	 -118.676 	 47.3969 	 -36.0293
| 30> H 	 -118.784 	 46.3488 	 -36.2181
| 31> H 	 -118.186 	 47.4291 	 -35.0752
| 32> C 	 -117.748 	 48.0351 	 -37.1052
| 33> H 	 -117.694 	 49.1122 	 -36.8402
| 34> H 	 -118.106 	 48.0229 	 -38.1426
| 35> C 	 -116.202 	 47.6695 	 -37.2022
| 36> H 	 -115.66 	 48.0311 	 -36.3593
| 37> H 	 -115.727 	 48.184 	 -38.0288
| 38> H 	 -116.097 	 46.6065 	 -37.3462
| 39> H 	 -121.362 	 43.4902 	 -31.8825
| 40> H 	 -122.828 	 49.507 	 -37.237
| 41> *
| 42>
| 43>                          ****END OF INPUT****

CARTESIAN COORDINATES (ANGSTROEM)
---------------------------------
  S    -122.017000   44.690900  -33.892800
  C    -121.009000   44.148800  -32.651900
  C    -119.819000   44.844600  -32.558000
  C    -119.753000   46.001200  -33.449700
  C    -120.900000   46.029400  -34.247700
  H    -118.916000   46.720800  -33.501500
  C    -118.704000   44.484800  -31.593400
  H    -117.890000   43.965400  -32.149400
  H    -119.072000   43.772800  -30.837200
  C    -118.093000   45.686800  -30.883000
  H    -117.690000   46.321200  -31.677700
  H    -118.869000   46.347700  -30.508400
  C    -117.019000   45.221000  -29.874000
  H    -116.519000   46.088000  -29.439200
  H    -117.545000   44.665600  -29.074900
  H    -116.356000   44.561300  -30.396700
  S    -122.776000   47.693500  -35.473900
  C    -122.174000   48.810900  -36.700800
  C    -120.815000   48.691900  -36.852200
  C    -120.193000   47.706400  -36.027700
  C    -121.151000   47.007200  -35.262900
  H    -120.301000   49.327300  -37.541400
  C    -118.676000   47.396900  -36.029300
  H    -118.784000   46.348800  -36.218100
  H    -118.186000   47.429100  -35.075200
  C    -117.748000   48.035100  -37.105200
  H    -117.694000   49.112200  -36.840200
  H    -118.106000   48.022900  -38.142600
  C    -116.202000   47.669500  -37.202200
  H    -115.660000   48.031100  -36.359300
  H    -115.727000   48.184000  -38.028800
  H    -116.097000   46.606500  -37.346200
  H    -121.362000   43.490200  -31.882500
  H    -122.828000   49.507000  -37.237000

 Total Charge           Charge          ....    0
 Multiplicity           Mult            ....    1
 Number of Electrons    NEL             ....  134
 Basis Dimension        Dim             ....  322

ORBITAL ENERGIES
----------------

  NO   OCC          E(Eh)            E(eV)
   0   2.0000     -88.966544     -2420.9028
   1   2.0000     -88.966206     -2420.8935
   2   2.0000     -10.330613      -281.1103
   3   2.0000     -10.326470      -280.9975
   4   2.0000     -10.319180      -280.7992
   5   2.0000     -10.310989      -280.5763
   6   2.0000     -10.305878      -280.4372
   7   2.0000     -10.301418      -280.3158
   8   2.0000     -10.301237      -280.3109
   9   2.0000     -10.297311      -280.2041
  10   2.0000     -10.296936      -280.1939
  11   2.0000     -10.292427      -280.0712
  12   2.0000     -10.292157      -280.0638
  13   2.0000     -10.284090      -279.8443
  14   2.0000     -10.281913      -279.7851
  15   2.0000     -10.281652      -279.7780
  16   2.0000      -8.081978      -219.9218
  17   2.0000      -8.080235      -219.8744
  18   2.0000      -6.040450      -164.3690
  19   2.0000      -6.038749      -164.3227
  20   2.0000      -6.036434      -164.2597
  21   2.0000      -6.034896      -164.2179
  22   2.0000      -6.032700      -164.1581
  23   2.0000      -6.030991      -164.1116
  24   2.0000      -1.004622       -27.3371
  25   2.0000      -0.981000       -26.6944
  26   2.0000      -0.912388       -24.8273
  27   2.0000      -0.901454       -24.5298
  28   2.0000      -0.873538       -23.7702
  29   2.0000      -0.851887       -23.1810
  30   2.0000      -0.844220       -22.9724
  31   2.0000      -0.812747       -22.1160
  32   2.0000      -0.786180       -21.3931
  33   2.0000      -0.768394       -20.9091
  34   2.0000      -0.713596       -19.4179
  35   2.0000      -0.704417       -19.1682
  36   2.0000      -0.691069       -18.8049
  37   2.0000      -0.653138       -17.7728
  38   2.0000      -0.638715       -17.3803
  39   2.0000      -0.622472       -16.9383
  40   2.0000      -0.597554       -16.2603
  41   2.0000      -0.570656       -15.5283
  42   2.0000      -0.565252       -15.3813
  43   2.0000      -0.556995       -15.1566
  44   2.0000      -0.530895       -14.4464
  45   2.0000      -0.524212       -14.2645
  46   2.0000      -0.517946       -14.0940
  47   2.0000      -0.509118       -13.8538
  48   2.0000      -0.502868       -13.6837
  49   2.0000      -0.501372       -13.6430
  50   2.0000      -0.493033       -13.4161
  51   2.0000      -0.475461       -12.9380
  52   2.0000      -0.472584       -12.8597
  53   2.0000      -0.467283       -12.7154
  54   2.0000      -0.464116       -12.6292
  55   2.0000      -0.454433       -12.3657
  56   2.0000      -0.449634       -12.2352
  57   2.0000      -0.440521       -11.9872
  58   2.0000      -0.432993       -11.7823
  59   2.0000      -0.428243       -11.6531
  60   2.0000      -0.422089       -11.4856
  61   2.0000      -0.414423       -11.2770
  62   2.0000      -0.409592       -11.1456
  63   2.0000      -0.354184        -9.6378
  64   2.0000      -0.331875        -9.0308
  65   2.0000      -0.326925        -8.8961
  66   2.0000      -0.282459        -7.6861
  67   0.0000       0.020044         0.5454
  68   0.0000       0.082081         2.2335
  69   0.0000       0.106352         2.8940
  70   0.0000       0.118170         3.2156
  71   0.0000       0.133043         3.6203

MULLIKEN ATOMIC CHARGES
-----------------------
   0 S :    0.119592
   1 C :   -0.118541
   2 C :   -0.077792
   3 C :   -0.014113
   4 C :   -0.144459
   5 H :    0.028289
   6 C :    0.046651
   7 H :    0.042787
   8 H :    0.015762
   9 C :   -0.124754
  10 H :    0.020848
  11 H :    0.031196
  12 C :   -0.007149
  13 H :    0.040903
  14 H :    0.035863
  15 H :    0.026898
  16 S :    0.101387
  17 C :   -0.091746
  18 C :   -0.029315
  19 C :   -0.044119
  20 C :   -0.144203
  21 H :    0.009184
  22 C :    0.081395
  23 H :    0.037552
  24 H :    0.031599
  25 C :   -0.123309
  26 H :    0.031960
  27 H :    0.039809
  28 C :   -0.030306
  29 H :    0.026925
  30 H :    0.031272
  31 H :    0.037390
  32 H :    0.048675
  33 H :    0.063869
Sum of atomic charges:   -0.0000000

LOEWDIN ATOMIC CHARGES
----------------------
   0 S :    0.416537
   1 C :   -0.220005
   2 C :   -0.059984
   3 C :   -0.060877
   4 C :   -0.184111
   5 H :    0.035480
   6 C :   -0.035838
   7 H :    0.035850
   8 H :    0.026664
   9 C :   -0.048705
  10 H :    0.017851
  11 H :    0.023132
  12 C :   -0.056693
  13 H :    0.028514
  14 H :    0.029583
  15 H :    0.022805
  16 S :    0.388568
  17 C :   -0.180124
  18 C :   -0.071836
  19 C :   -0.043741
  20 C :   -0.198264
  21 H :    0.028108
  22 C :   -0.035429
  23 H :    0.039125
  24 H :    0.026204
  25 C :   -0.047820
  26 H :    0.025684
  27 H :    0.024839
  28 C :   -0.057774
  29 H :    0.019642
  30 H :    0.029952
  31 H :    0.022671
  32 H :    0.026587
  33 H :    0.033404

  Mayer bond orders larger than 0.100000
B(  0-S ,  1-C ) :   1.1380 B(  0-S ,  4-C ) :   1.1482 B(  1-C ,  2-C ) :   1.6187
B(  1-C , 32-H ) :   0.9643 B(  2-C ,  3-C ) :   1.2332 B(  2-C ,  6-C ) :   1.0302
B(  3-C ,  4-C ) :   1.5535 B(  3-C ,  5-H ) :   0.9826 B(  4-C , 20-C ) :   1.1008
B(  6-C ,  7-H ) :   0.9301 B(  6-C ,  8-H ) :   0.9479 B(  6-C ,  9-C ) :   1.0588
B(  9-C , 10-H ) :   0.9464 B(  9-C , 11-H ) :   0.9623 B(  9-C , 12-C ) :   1.0763
B( 12-C , 13-H ) :   0.9734 B( 12-C , 14-H ) :   0.9759 B( 12-C , 15-H ) :   0.9723
B( 16-S , 17-C ) :   1.1447 B( 16-S , 20-C ) :   1.1364 B( 17-C , 18-C ) :   1.5949
B( 17-C , 20-C ) :   0.1028 B( 17-C , 33-H ) :   0.9646 B( 18-C , 19-C ) :   1.2635
B( 18-C , 21-H ) :   0.9921 B( 19-C , 20-C ) :   1.5705 B( 19-C , 22-C ) :   1.0061
B( 22-C , 23-H ) :   0.9266 B( 22-C , 24-H ) :   0.9350 B( 22-C , 25-C ) :   1.0604
B( 25-C , 26-H ) :   0.9537 B( 25-C , 27-H ) :   0.9594 B( 25-C , 28-C ) :   1.0819
B( 28-C , 29-H ) :   0.9768 B( 28-C , 30-H ) :   0.9732 B( 28-C , 31-H ) :   0.9791

Dispersion correction           -0.013452444
FINAL SINGLE POINT ENERGY     -1339.879432091291

DIPOLE MOMENT
-------------
                                X             Y             Z
Electronic contribution:    -31.67946      -1.84597      -6.28110
Nuclear contribution   :     32.41507       2.05860       6.34348
                        -----------------------------------------
Total Dipole Moment    :      0.73561       0.21263       0.06238
                        -----------------------------------------
Magnitude (a.u.)       :      0.76827
Magnitude (Debye)      :      1.95278

Rotational constants in cm-1:     0.015212     0.009125     0.006298
Rotational constants in MHz :   456.031261   273.552264   188.810416

                             ****ORCA TERMINATED NORMALLY****
TOTAL RUN TIME: 0 days 0 hours 0 minutes 20 seconds 26 msec
