                         Program Version 4.2.1 -  RELEASE  -
|  1> ! wB97X-D3 SP def2-SVP
|  2> %pal
|  3> nprocs 24
|  4> end
|  5>
|  6> * xyz 0 1
|  7> S 	 -35.9421 	 12.2113 	 11.7876
|  8> C 	 -35.9953 	 13.6988 	 10.866
|  9> C 	 -34.6839 	 13.9562 	 10.4432
| 10> C 	 -33.6747 	 12.9868 	 10.8172
| 11> C 	 -34.2606 	 11.9457 	 11.5133
| 12> H 	 -32.6261 	 12.9131 	 10.5077
| 13> C 	 -34.4291 	 15.1346 	 9.44739
| 14> H 	 -35.2492 	 15.8177 	 9.57138
| 15> H 	 -34.4925 	 14.7057 	 8.4339
| 16> C 	 -33.0832 	 15.7969 	 9.61009
| 17> H 	 -32.93 	 15.8057 	 10.6772
| 18> H 	 -32.1926 	 15.1619 	 9.37798
| 19> C 	 -33.0161 	 17.1554 	 9.04801
| 20> H 	 -33.7961 	 17.8212 	 9.46628
| 21> H 	 -31.9859 	 17.6182 	 9.16448
| 22> H 	 -33.2616 	 17.248 	 8.00006
| 23> S 	 -32.6789 	 9.88176 	 10.9043
| 24> C 	 -32.2291 	 8.71954 	 12.0834
| 25> C 	 -32.5421 	 9.12409 	 13.3618
| 26> C 	 -33.3947 	 10.2779 	 13.3695
| 27> C 	 -33.5327 	 10.8336 	 12.092
| 28> H 	 -32.3445 	 8.48348 	 14.2101
| 29> C 	 -33.9563 	 10.8867 	 14.6502
| 30> H 	 -34.5752 	 10.2604 	 15.1274
| 31> H 	 -34.4983 	 11.8002 	 14.2848
| 32> C 	 -32.9 	 11.2308 	 15.71
| 33> H 	 -31.953 	 11.3663 	 15.1628
| 34> H 	 -32.5884 	 10.471 	 16.3814
| 35> C 	 -33.4409 	 12.4166 	 16.5802
| 36> H 	 -34.4108 	 12.1925 	 16.9582
| 37> H 	 -33.5564 	 13.336 	 15.9664
| 38> H 	 -32.7765 	 12.5327 	 17.4329
| 39> H 	 -36.8332 	 14.3789 	 10.822
| 40> H 	 -31.6928 	 7.83885 	 11.8226
| 41> *
| 42>
| 43>                          ****END OF INPUT****

CARTESIAN COORDINATES (ANGSTROEM)
---------------------------------
  S    -35.942100   12.211300   11.787600
  C    -35.995300   13.698800   10.866000
  C    -34.683900   13.956200   10.443200
  C    -33.674700   12.986800   10.817200
  C    -34.260600   11.945700   11.513300
  H    -32.626100   12.913100   10.507700
  C    -34.429100   15.134600    9.447390
  H    -35.249200   15.817700    9.571380
  H    -34.492500   14.705700    8.433900
  C    -33.083200   15.796900    9.610090
  H    -32.930000   15.805700   10.677200
  H    -32.192600   15.161900    9.377980
  C    -33.016100   17.155400    9.048010
  H    -33.796100   17.821200    9.466280
  H    -31.985900   17.618200    9.164480
  H    -33.261600   17.248000    8.000060
  S    -32.678900    9.881760   10.904300
  C    -32.229100    8.719540   12.083400
  C    -32.542100    9.124090   13.361800
  C    -33.394700   10.277900   13.369500
  C    -33.532700   10.833600   12.092000
  H    -32.344500    8.483480   14.210100
  C    -33.956300   10.886700   14.650200
  H    -34.575200   10.260400   15.127400
  H    -34.498300   11.800200   14.284800
  C    -32.900000   11.230800   15.710000
  H    -31.953000   11.366300   15.162800
  H    -32.588400   10.471000   16.381400
  C    -33.440900   12.416600   16.580200
  H    -34.410800   12.192500   16.958200
  H    -33.556400   13.336000   15.966400
  H    -32.776500   12.532700   17.432900
  H    -36.833200   14.378900   10.822000
  H    -31.692800    7.838850   11.822600

 Total Charge           Charge          ....    0
 Multiplicity           Mult            ....    1
 Number of Electrons    NEL             ....  134
 Basis Dimension        Dim             ....  322

ORBITAL ENERGIES
----------------

  NO   OCC          E(Eh)            E(eV)
   0   2.0000     -88.966496     -2420.9014
   1   2.0000     -88.964079     -2420.8357
   2   2.0000     -10.329439      -281.0783
   3   2.0000     -10.324714      -280.9497
   4   2.0000     -10.315116      -280.6886
   5   2.0000     -10.313943      -280.6567
   6   2.0000     -10.307098      -280.4704
   7   2.0000     -10.305823      -280.4357
   8   2.0000     -10.297441      -280.2076
   9   2.0000     -10.293680      -280.1053
  10   2.0000     -10.290004      -280.0053
  11   2.0000     -10.282404      -279.7984
  12   2.0000     -10.282068      -279.7893
  13   2.0000     -10.279997      -279.7329
  14   2.0000     -10.279100      -279.7085
  15   2.0000     -10.277839      -279.6742
  16   2.0000      -8.081219      -219.9011
  17   2.0000      -8.079781      -219.8620
  18   2.0000      -6.039691      -164.3484
  19   2.0000      -6.038132      -164.3059
  20   2.0000      -6.035516      -164.2347
  21   2.0000      -6.034112      -164.1965
  22   2.0000      -6.032204      -164.1446
  23   2.0000      -6.030691      -164.1034
  24   2.0000      -1.010189       -27.4886
  25   2.0000      -0.985904       -26.8278
  26   2.0000      -0.914794       -24.8928
  27   2.0000      -0.908979       -24.7346
  28   2.0000      -0.873920       -23.7806
  29   2.0000      -0.850073       -23.1317
  30   2.0000      -0.843648       -22.9568
  31   2.0000      -0.815140       -22.1811
  32   2.0000      -0.781214       -21.2579
  33   2.0000      -0.768857       -20.9217
  34   2.0000      -0.710988       -19.3470
  35   2.0000      -0.705054       -19.1855
  36   2.0000      -0.689125       -18.7520
  37   2.0000      -0.665366       -18.1055
  38   2.0000      -0.640167       -17.4198
  39   2.0000      -0.614374       -16.7180
  40   2.0000      -0.599860       -16.3230
  41   2.0000      -0.570359       -15.5203
  42   2.0000      -0.566469       -15.4144
  43   2.0000      -0.561047       -15.2669
  44   2.0000      -0.530947       -14.4478
  45   2.0000      -0.525675       -14.3043
  46   2.0000      -0.517636       -14.0856
  47   2.0000      -0.510628       -13.8949
  48   2.0000      -0.509372       -13.8607
  49   2.0000      -0.492117       -13.3912
  50   2.0000      -0.488956       -13.3052
  51   2.0000      -0.485727       -13.2173
  52   2.0000      -0.474975       -12.9247
  53   2.0000      -0.474521       -12.9124
  54   2.0000      -0.456472       -12.4212
  55   2.0000      -0.454814       -12.3761
  56   2.0000      -0.448885       -12.2148
  57   2.0000      -0.440928       -11.9983
  58   2.0000      -0.437149       -11.8954
  59   2.0000      -0.420568       -11.4442
  60   2.0000      -0.410244       -11.1633
  61   2.0000      -0.407718       -11.0946
  62   2.0000      -0.400381       -10.8949
  63   2.0000      -0.346190        -9.4203
  64   2.0000      -0.332754        -9.0547
  65   2.0000      -0.325557        -8.8589
  66   2.0000      -0.295323        -8.0361
  67   0.0000       0.035233         0.9587
  68   0.0000       0.067777         1.8443
  69   0.0000       0.109540         2.9807
  70   0.0000       0.123195         3.3523
  71   0.0000       0.136518         3.7149

MULLIKEN ATOMIC CHARGES
-----------------------
   0 S :    0.117830
   1 C :   -0.131788
   2 C :   -0.106382
   3 C :    0.013688
   4 C :   -0.129650
   5 H :    0.030099
   6 C :    0.080581
   7 H :    0.007660
   8 H :    0.048147
   9 C :   -0.081782
  10 H :    0.018155
  11 H :    0.030941
  12 C :   -0.044156
  13 H :    0.027355
  14 H :    0.043748
  15 H :    0.021188
  16 S :    0.108585
  17 C :   -0.081423
  18 C :   -0.027596
  19 C :   -0.064889
  20 C :   -0.186324
  21 H :    0.021500
  22 C :    0.138140
  23 H :    0.001087
  24 H :    0.029976
  25 C :   -0.099711
  26 H :    0.033074
  27 H :    0.017307
  28 C :   -0.047772
  29 H :    0.024157
  30 H :    0.048076
  31 H :    0.032902
  32 H :    0.057375
  33 H :    0.049900
Sum of atomic charges:    0.0000000

LOEWDIN ATOMIC CHARGES
----------------------
   0 S :    0.424996
   1 C :   -0.211620
   2 C :   -0.053519
   3 C :   -0.076785
   4 C :   -0.202465
   5 H :    0.036270
   6 C :   -0.025191
   7 H :    0.023857
   8 H :    0.035792
   9 C :   -0.061063
  10 H :    0.023889
  11 H :    0.029275
  12 C :   -0.071046
  13 H :    0.028050
  14 H :    0.035483
  15 H :    0.021564
  16 S :    0.427064
  17 C :   -0.184226
  18 C :   -0.074048
  19 C :   -0.050160
  20 C :   -0.205232
  21 H :    0.032059
  22 C :   -0.022621
  23 H :    0.014214
  24 H :    0.031958
  25 C :   -0.041165
  26 H :    0.024983
  27 H :    0.016901
  28 C :   -0.057276
  29 H :    0.020270
  30 H :    0.031190
  31 H :    0.024529
  32 H :    0.031347
  33 H :    0.022725

  Mayer bond orders larger than 0.100000
B(  0-S ,  1-C ) :   1.1294 B(  0-S ,  4-C ) :   1.1707 B(  1-C ,  2-C ) :   1.5964
B(  1-C , 32-H ) :   0.9739 B(  2-C ,  3-C ) :   1.2397 B(  2-C ,  6-C ) :   1.0216
B(  3-C ,  4-C ) :   1.5493 B(  3-C ,  5-H ) :   0.9896 B(  4-C , 20-C ) :   1.0110
B(  6-C ,  7-H ) :   0.9451 B(  6-C ,  8-H ) :   0.9362 B(  6-C ,  9-C ) :   1.0614
B(  9-C , 10-H ) :   0.9561 B(  9-C , 11-H ) :   0.9410 B(  9-C , 12-C ) :   1.0969
B( 12-C , 13-H ) :   0.9695 B( 12-C , 14-H ) :   0.9703 B( 12-C , 15-H ) :   0.9708
B( 16-S , 17-C ) :   1.1741 B( 16-S , 20-C ) :   1.1508 B( 17-C , 18-C ) :   1.5950
B( 17-C , 33-H ) :   0.9718 B( 18-C , 19-C ) :   1.2347 B( 18-C , 21-H ) :   0.9910
B( 19-C , 20-C ) :   1.5930 B( 19-C , 22-C ) :   1.0480 B( 22-C , 23-H ) :   0.9158
B( 22-C , 24-H ) :   0.9394 B( 22-C , 25-C ) :   1.0505 B( 25-C , 26-H ) :   0.9649
B( 25-C , 27-H ) :   0.9508 B( 25-C , 28-C ) :   1.0775 B( 28-C , 29-H ) :   0.9734
B( 28-C , 30-H ) :   0.9789 B( 28-C , 31-H ) :   0.9761

Dispersion correction           -0.013652191
FINAL SINGLE POINT ENERGY     -1339.870979739592

DIPOLE MOMENT
-------------
                                X             Y             Z
Electronic contribution:     -6.17550     -19.71733      -7.77384
Nuclear contribution   :      6.34250      19.86301       7.98398
                        -----------------------------------------
Total Dipole Moment    :      0.16700       0.14568       0.21014
                        -----------------------------------------
Magnitude (a.u.)       :      0.30541
Magnitude (Debye)      :      0.77628

Rotational constants in cm-1:     0.018345     0.007711     0.006820
Rotational constants in MHz :   549.979751   231.175177   204.466764

                             ****ORCA TERMINATED NORMALLY****
TOTAL RUN TIME: 0 days 0 hours 0 minutes 20 seconds 45 msec
