                         Program Version 4.2.1 -  RELEASE  -
|  1> ! wB97X-D3 SP def2-SVP
|  2> %pal
|  3> nprocs 24
|  4> end
|  5>
|  6> * xyz 0 1
|  7> S 	 -136.187 	 11.733 	 -2.92503
|  8> C 	 -136.184 	 10.5085 	 -1.68124
|  9> C 	 -135.417 	 10.8587 	 -0.532373
| 10> C 	 -134.647 	 12.0233 	 -0.821275
| 11> C 	 -134.856 	 12.6616 	 -2.00737
| 12> H 	 -134.026 	 12.5532 	 -0.0450055
| 13> C 	 -135.54 	 10.0512 	 0.748349
| 14> H 	 -135.014 	 9.13219 	 0.517251
| 15> H 	 -136.541 	 9.63265 	 0.875112
| 16> C 	 -134.976 	 10.7217 	 1.94896
| 17> H 	 -133.949 	 11.1103 	 1.81019
| 18> H 	 -135.526 	 11.5821 	 2.26001
| 19> C 	 -134.852 	 9.91082 	 3.20032
| 20> H 	 -134.364 	 8.99341 	 3.06545
| 21> H 	 -134.375 	 10.4253 	 3.95101
| 22> H 	 -135.85 	 9.61663 	 3.58961
| 23> S 	 -135.429 	 15.1186 	 -2.89256
| 24> C 	 -134.236 	 16.388 	 -2.73282
| 25> C 	 -133.031 	 15.8388 	 -2.43777
| 26> C 	 -132.984 	 14.4355 	 -2.25793
| 27> C 	 -134.233 	 13.9088 	 -2.41712
| 28> H 	 -132.185 	 16.4676 	 -2.37223
| 29> C 	 -131.678 	 13.6793 	 -1.8628
| 30> H 	 -130.87 	 14.1195 	 -2.46402
| 31> H 	 -131.726 	 12.5528 	 -2.14198
| 32> C 	 -131.192 	 13.851 	 -0.45227
| 33> H 	 -131.91 	 13.2769 	 0.171823
| 34> H 	 -131.259 	 14.8689 	 -0.0909739
| 35> C 	 -129.825 	 13.1431 	 -0.197976
| 36> H 	 -128.928 	 13.5201 	 -0.722692
| 37> H 	 -129.947 	 12.0152 	 -0.281814
| 38> H 	 -129.545 	 13.2844 	 0.859336
| 39> H 	 -136.911 	 9.715 	 -1.66598
| 40> H 	 -134.347 	 17.4802 	 -2.8732
| 41> *
| 42>
| 43>                          ****END OF INPUT****

CARTESIAN COORDINATES (ANGSTROEM)
---------------------------------
  S    -136.187000   11.733000   -2.925030
  C    -136.184000   10.508500   -1.681240
  C    -135.417000   10.858700   -0.532373
  C    -134.647000   12.023300   -0.821275
  C    -134.856000   12.661600   -2.007370
  H    -134.026000   12.553200   -0.045005
  C    -135.540000   10.051200    0.748349
  H    -135.014000    9.132190    0.517251
  H    -136.541000    9.632650    0.875112
  C    -134.976000   10.721700    1.948960
  H    -133.949000   11.110300    1.810190
  H    -135.526000   11.582100    2.260010
  C    -134.852000    9.910820    3.200320
  H    -134.364000    8.993410    3.065450
  H    -134.375000   10.425300    3.951010
  H    -135.850000    9.616630    3.589610
  S    -135.429000   15.118600   -2.892560
  C    -134.236000   16.388000   -2.732820
  C    -133.031000   15.838800   -2.437770
  C    -132.984000   14.435500   -2.257930
  C    -134.233000   13.908800   -2.417120
  H    -132.185000   16.467600   -2.372230
  C    -131.678000   13.679300   -1.862800
  H    -130.870000   14.119500   -2.464020
  H    -131.726000   12.552800   -2.141980
  C    -131.192000   13.851000   -0.452270
  H    -131.910000   13.276900    0.171823
  H    -131.259000   14.868900   -0.090974
  C    -129.825000   13.143100   -0.197976
  H    -128.928000   13.520100   -0.722692
  H    -129.947000   12.015200   -0.281814
  H    -129.545000   13.284400    0.859336
  H    -136.911000    9.715000   -1.665980
  H    -134.347000   17.480200   -2.873200

 Total Charge           Charge          ....    0
 Multiplicity           Mult            ....    1
 Number of Electrons    NEL             ....  134
 Basis Dimension        Dim             ....  322

ORBITAL ENERGIES
----------------

  NO   OCC          E(Eh)            E(eV)
   0   2.0000     -88.966527     -2420.9023
   1   2.0000     -88.962772     -2420.8001
   2   2.0000     -10.334231      -281.2087
   3   2.0000     -10.327127      -281.0154
   4   2.0000     -10.317124      -280.7432
   5   2.0000     -10.314860      -280.6816
   6   2.0000     -10.305898      -280.4377
   7   2.0000     -10.304953      -280.4120
   8   2.0000     -10.301831      -280.3271
   9   2.0000     -10.297990      -280.2226
  10   2.0000     -10.294344      -280.1234
  11   2.0000     -10.291514      -280.0463
  12   2.0000     -10.290189      -280.0103
  13   2.0000     -10.287039      -279.9246
  14   2.0000     -10.282840      -279.8103
  15   2.0000     -10.267343      -279.3886
  16   2.0000      -8.079498      -219.8543
  17   2.0000      -8.077721      -219.8060
  18   2.0000      -6.038139      -164.3061
  19   2.0000      -6.036378      -164.2582
  20   2.0000      -6.034344      -164.2029
  21   2.0000      -6.032211      -164.1448
  22   2.0000      -6.030147      -164.0886
  23   2.0000      -6.028270      -164.0376
  24   2.0000      -1.005301       -27.3556
  25   2.0000      -0.977457       -26.5980
  26   2.0000      -0.919556       -25.0224
  27   2.0000      -0.908840       -24.7308
  28   2.0000      -0.873329       -23.7645
  29   2.0000      -0.851717       -23.1764
  30   2.0000      -0.846422       -23.0323
  31   2.0000      -0.819178       -22.2910
  32   2.0000      -0.782218       -21.2852
  33   2.0000      -0.771856       -21.0033
  34   2.0000      -0.715624       -19.4731
  35   2.0000      -0.696589       -18.9551
  36   2.0000      -0.688931       -18.7468
  37   2.0000      -0.663508       -18.0550
  38   2.0000      -0.642225       -17.4758
  39   2.0000      -0.615804       -16.7569
  40   2.0000      -0.597351       -16.2547
  41   2.0000      -0.570118       -15.5137
  42   2.0000      -0.567358       -15.4386
  43   2.0000      -0.564466       -15.3599
  44   2.0000      -0.534928       -14.5561
  45   2.0000      -0.519373       -14.1329
  46   2.0000      -0.516557       -14.0562
  47   2.0000      -0.511195       -13.9103
  48   2.0000      -0.504738       -13.7346
  49   2.0000      -0.497355       -13.5337
  50   2.0000      -0.493487       -13.4285
  51   2.0000      -0.482995       -13.1430
  52   2.0000      -0.471121       -12.8198
  53   2.0000      -0.468902       -12.7595
  54   2.0000      -0.455669       -12.3994
  55   2.0000      -0.446398       -12.1471
  56   2.0000      -0.442548       -12.0423
  57   2.0000      -0.441117       -12.0034
  58   2.0000      -0.437707       -11.9106
  59   2.0000      -0.422978       -11.5098
  60   2.0000      -0.421338       -11.4652
  61   2.0000      -0.415165       -11.2972
  62   2.0000      -0.413083       -11.2405
  63   2.0000      -0.354074        -9.6348
  64   2.0000      -0.333154        -9.0656
  65   2.0000      -0.327431        -8.9098
  66   2.0000      -0.284155        -7.7323
  67   0.0000       0.025669         0.6985
  68   0.0000       0.064554         1.7566
  69   0.0000       0.106152         2.8885
  70   0.0000       0.117280         3.1913
  71   0.0000       0.129107         3.5132

MULLIKEN ATOMIC CHARGES
-----------------------
   0 S :    0.097312
   1 C :   -0.115473
   2 C :   -0.106220
   3 C :   -0.012766
   4 C :   -0.117504
   5 H :    0.036574
   6 C :    0.112798
   7 H :    0.028440
   8 H :    0.023648
   9 C :   -0.097469
  10 H :    0.029028
  11 H :    0.028009
  12 C :    0.008513
  13 H :    0.009165
  14 H :    0.014268
  15 H :    0.016172
  16 S :    0.093027
  17 C :   -0.085419
  18 C :   -0.036742
  19 C :   -0.008241
  20 C :   -0.162414
  21 H :   -0.003225
  22 C :    0.036472
  23 H :    0.022616
  24 H :    0.053604
  25 C :   -0.067651
  26 H :    0.018993
  27 H :    0.032571
  28 C :   -0.079845
  29 H :    0.043754
  30 H :    0.047158
  31 H :    0.030976
  32 H :    0.044009
  33 H :    0.065863
Sum of atomic charges:   -0.0000000

LOEWDIN ATOMIC CHARGES
----------------------
   0 S :    0.358976
   1 C :   -0.194115
   2 C :   -0.058188
   3 C :   -0.070376
   4 C :   -0.167310
   5 H :    0.038918
   6 C :   -0.033113
   7 H :    0.037603
   8 H :    0.034894
   9 C :   -0.045987
  10 H :    0.028331
  11 H :    0.025059
  12 C :   -0.051365
  13 H :    0.015548
  14 H :    0.017087
  15 H :    0.025329
  16 S :    0.396384
  17 C :   -0.187216
  18 C :   -0.070659
  19 C :   -0.058297
  20 C :   -0.180342
  21 H :    0.022641
  22 C :   -0.036048
  23 H :    0.030450
  24 H :    0.044252
  25 C :   -0.046492
  26 H :    0.023573
  27 H :    0.023216
  28 C :   -0.075192
  29 H :    0.026015
  30 H :    0.035585
  31 H :    0.028387
  32 H :    0.021423
  33 H :    0.041028

  Mayer bond orders larger than 0.100000
B(  0-S ,  1-C ) :   1.1495 B(  0-S ,  4-C ) :   1.1043 B(  1-C ,  2-C ) :   1.6007
B(  1-C ,  4-C ) :   0.1058 B(  1-C , 32-H ) :   0.9663 B(  2-C ,  3-C ) :   1.2603
B(  2-C ,  6-C ) :   1.0062 B(  3-C ,  4-C ) :   1.6004 B(  3-C ,  5-H ) :   0.9674
B(  4-C , 20-C ) :   1.0439 B(  6-C ,  7-H ) :   0.9269 B(  6-C ,  8-H ) :   0.9364
B(  6-C ,  9-C ) :   1.0787 B(  9-C , 10-H ) :   0.9440 B(  9-C , 11-H ) :   0.9525
B(  9-C , 12-C ) :   1.1059 B( 12-C , 13-H ) :   0.9713 B( 12-C , 14-H ) :   0.9701
B( 12-C , 15-H ) :   0.9686 B( 16-S , 17-C ) :   1.1355 B( 16-S , 20-C ) :   1.1334
B( 17-C , 18-C ) :   1.6369 B( 17-C , 33-H ) :   0.9633 B( 18-C , 19-C ) :   1.2224
B( 18-C , 21-H ) :   0.9928 B( 19-C , 20-C ) :   1.6252 B( 19-C , 22-C ) :   1.0271
B( 22-C , 23-H ) :   0.9328 B( 22-C , 24-H ) :   0.9421 B( 22-C , 25-C ) :   1.0663
B( 25-C , 26-H ) :   0.9446 B( 25-C , 27-H ) :   0.9554 B( 25-C , 28-C ) :   1.0778
B( 28-C , 29-H ) :   0.9760 B( 28-C , 30-H ) :   0.9740 B( 28-C , 31-H ) :   0.9732

Dispersion correction           -0.013867203
FINAL SINGLE POINT ENERGY     -1339.865748024357

DIPOLE MOMENT
-------------
                                X             Y             Z
Electronic contribution:    -18.36511      10.46680     -25.08844
Nuclear contribution   :     18.81843     -10.49940      25.85471
                        -----------------------------------------
Total Dipole Moment    :      0.45333      -0.03260       0.76627
                        -----------------------------------------
Magnitude (a.u.)       :      0.89092
Magnitude (Debye)      :      2.26454

Rotational constants in cm-1:     0.015112     0.009669     0.006734
Rotational constants in MHz :   453.055304   289.864521   201.890005

                             ****ORCA TERMINATED NORMALLY****
TOTAL RUN TIME: 0 days 0 hours 0 minutes 20 seconds 429 msec
