                         Program Version 4.2.1 -  RELEASE  -
|  1> ! wB97X-D3 SP def2-SVP
|  2> %pal
|  3> nprocs 24
|  4> end
|  5>
|  6> * xyz 0 1
|  7> S 	 -119.459 	 33.3288 	 -112.299
|  8> C 	 -119.388 	 31.8871 	 -113.309
|  9> C 	 -119.377 	 32.2666 	 -114.634
| 10> C 	 -119.433 	 33.6819 	 -114.877
| 11> C 	 -119.494 	 34.3934 	 -113.728
| 12> H 	 -119.331 	 34.3164 	 -115.769
| 13> C 	 -119.316 	 31.3206 	 -115.784
| 14> H 	 -120.282 	 31.2651 	 -116.334
| 15> H 	 -119.174 	 30.3816 	 -115.377
| 16> C 	 -118.186 	 31.4163 	 -116.843
| 17> H 	 -118.176 	 32.4111 	 -117.375
| 18> H 	 -117.297 	 31.4378 	 -116.183
| 19> C 	 -118.124 	 30.2114 	 -117.691
| 20> H 	 -118.958 	 30.2721 	 -118.336
| 21> H 	 -117.141 	 30.1 	 -118.293
| 22> H 	 -118.207 	 29.3124 	 -117.063
| 23> S 	 -118.033 	 36.4918 	 -112.779
| 24> C 	 -118.737 	 38.0984 	 -113.024
| 25> C 	 -119.984 	 38.0439 	 -113.695
| 26> C 	 -120.454 	 36.7326 	 -113.953
| 27> C 	 -119.497 	 35.8316 	 -113.603
| 28> H 	 -120.437 	 39.0013 	 -113.894
| 29> C 	 -121.829 	 36.4033 	 -114.495
| 30> H 	 -122.251 	 35.5658 	 -113.909
| 31> H 	 -121.673 	 35.947 	 -115.488
| 32> C 	 -122.96 	 37.5023 	 -114.641
| 33> H 	 -122.548 	 38.2486 	 -115.323
| 34> H 	 -123.094 	 38.0895 	 -113.698
| 35> C 	 -124.279 	 36.931 	 -115.269
| 36> H 	 -124.784 	 36.1708 	 -114.625
| 37> H 	 -124.086 	 36.5017 	 -116.245
| 38> H 	 -125.095 	 37.6295 	 -115.386
| 39> H 	 -119.309 	 30.8837 	 -112.899
| 40> H 	 -118.312 	 39.0823 	 -112.789
| 41> *
| 42>
| 43>                          ****END OF INPUT****

CARTESIAN COORDINATES (ANGSTROEM)
---------------------------------
  S    -119.459000   33.328800  -112.299000
  C    -119.388000   31.887100  -113.309000
  C    -119.377000   32.266600  -114.634000
  C    -119.433000   33.681900  -114.877000
  C    -119.494000   34.393400  -113.728000
  H    -119.331000   34.316400  -115.769000
  C    -119.316000   31.320600  -115.784000
  H    -120.282000   31.265100  -116.334000
  H    -119.174000   30.381600  -115.377000
  C    -118.186000   31.416300  -116.843000
  H    -118.176000   32.411100  -117.375000
  H    -117.297000   31.437800  -116.183000
  C    -118.124000   30.211400  -117.691000
  H    -118.958000   30.272100  -118.336000
  H    -117.141000   30.100000  -118.293000
  H    -118.207000   29.312400  -117.063000
  S    -118.033000   36.491800  -112.779000
  C    -118.737000   38.098400  -113.024000
  C    -119.984000   38.043900  -113.695000
  C    -120.454000   36.732600  -113.953000
  C    -119.497000   35.831600  -113.603000
  H    -120.437000   39.001300  -113.894000
  C    -121.829000   36.403300  -114.495000
  H    -122.251000   35.565800  -113.909000
  H    -121.673000   35.947000  -115.488000
  C    -122.960000   37.502300  -114.641000
  H    -122.548000   38.248600  -115.323000
  H    -123.094000   38.089500  -113.698000
  C    -124.279000   36.931000  -115.269000
  H    -124.784000   36.170800  -114.625000
  H    -124.086000   36.501700  -116.245000
  H    -125.095000   37.629500  -115.386000
  H    -119.309000   30.883700  -112.899000
  H    -118.312000   39.082300  -112.789000

 Total Charge           Charge          ....    0
 Multiplicity           Mult            ....    1
 Number of Electrons    NEL             ....  134
 Basis Dimension        Dim             ....  322

ORBITAL ENERGIES
----------------

  NO   OCC          E(Eh)            E(eV)
   0   2.0000     -88.969937     -2420.9951
   1   2.0000     -88.960756     -2420.7452
   2   2.0000     -10.323303      -280.9114
   3   2.0000     -10.323071      -280.9051
   4   2.0000     -10.322066      -280.8777
   5   2.0000     -10.317010      -280.7401
   6   2.0000     -10.306468      -280.4532
   7   2.0000     -10.301769      -280.3254
   8   2.0000     -10.300824      -280.2997
   9   2.0000     -10.299835      -280.2728
  10   2.0000     -10.295205      -280.1468
  11   2.0000     -10.291679      -280.0508
  12   2.0000     -10.286528      -279.9107
  13   2.0000     -10.286360      -279.9061
  14   2.0000     -10.282706      -279.8066
  15   2.0000     -10.280668      -279.7512
  16   2.0000      -8.083255      -219.9566
  17   2.0000      -8.075175      -219.7367
  18   2.0000      -6.041789      -164.4054
  19   2.0000      -6.038135      -164.3060
  20   2.0000      -6.033891      -164.1905
  21   2.0000      -6.033782      -164.1876
  22   2.0000      -6.029746      -164.0777
  23   2.0000      -6.025823      -163.9710
  24   2.0000      -1.003923       -27.3181
  25   2.0000      -0.979151       -26.6440
  26   2.0000      -0.915517       -24.9125
  27   2.0000      -0.900444       -24.5023
  28   2.0000      -0.871261       -23.7082
  29   2.0000      -0.852929       -23.2094
  30   2.0000      -0.846736       -23.0409
  31   2.0000      -0.814497       -22.1636
  32   2.0000      -0.782558       -21.2945
  33   2.0000      -0.767090       -20.8736
  34   2.0000      -0.709877       -19.3167
  35   2.0000      -0.701814       -19.0973
  36   2.0000      -0.689805       -18.7705
  37   2.0000      -0.653566       -17.7844
  38   2.0000      -0.648936       -17.6584
  39   2.0000      -0.615625       -16.7520
  40   2.0000      -0.593976       -16.1629
  41   2.0000      -0.573545       -15.6069
  42   2.0000      -0.561528       -15.2799
  43   2.0000      -0.558433       -15.1957
  44   2.0000      -0.525866       -14.3095
  45   2.0000      -0.521474       -14.1900
  46   2.0000      -0.515043       -14.0150
  47   2.0000      -0.510154       -13.8820
  48   2.0000      -0.504183       -13.7195
  49   2.0000      -0.495896       -13.4940
  50   2.0000      -0.492723       -13.4077
  51   2.0000      -0.476459       -12.9651
  52   2.0000      -0.469563       -12.7775
  53   2.0000      -0.462712       -12.5910
  54   2.0000      -0.461019       -12.5450
  55   2.0000      -0.452340       -12.3088
  56   2.0000      -0.444916       -12.1068
  57   2.0000      -0.435944       -11.8626
  58   2.0000      -0.432482       -11.7684
  59   2.0000      -0.425793       -11.5864
  60   2.0000      -0.419629       -11.4187
  61   2.0000      -0.417512       -11.3611
  62   2.0000      -0.410385       -11.1671
  63   2.0000      -0.340183        -9.2569
  64   2.0000      -0.335633        -9.1330
  65   2.0000      -0.322880        -8.7860
  66   2.0000      -0.297756        -8.1023
  67   0.0000       0.033930         0.9233
  68   0.0000       0.061423         1.6714
  69   0.0000       0.107062         2.9133
  70   0.0000       0.123623         3.3640
  71   0.0000       0.130225         3.5436

MULLIKEN ATOMIC CHARGES
-----------------------
   0 S :    0.093787
   1 C :   -0.122568
   2 C :   -0.071588
   3 C :    0.043807
   4 C :   -0.180027
   5 H :    0.027833
   6 C :    0.084560
   7 H :    0.034201
   8 H :   -0.024353
   9 C :   -0.101976
  10 H :    0.040655
  11 H :    0.023813
  12 C :   -0.036030
  13 H :    0.022420
  14 H :    0.053118
  15 H :    0.028430
  16 S :    0.119690
  17 C :   -0.088902
  18 C :   -0.073897
  19 C :    0.033471
  20 C :   -0.202532
  21 H :    0.013602
  22 C :    0.050294
  23 H :    0.043149
  24 H :    0.029513
  25 C :   -0.083171
  26 H :    0.030897
  27 H :    0.044015
  28 C :   -0.048632
  29 H :    0.037034
  30 H :    0.034839
  31 H :    0.031580
  32 H :    0.055929
  33 H :    0.057038
Sum of atomic charges:    0.0000000

LOEWDIN ATOMIC CHARGES
----------------------
   0 S :    0.375458
   1 C :   -0.190425
   2 C :   -0.062718
   3 C :   -0.064079
   4 C :   -0.183699
   5 H :    0.042025
   6 C :   -0.033962
   7 H :    0.031990
   8 H :    0.014737
   9 C :   -0.049255
  10 H :    0.025428
  11 H :    0.024295
  12 C :   -0.065608
  13 H :    0.018924
  14 H :    0.039870
  15 H :    0.027384
  16 S :    0.383444
  17 C :   -0.182982
  18 C :   -0.071672
  19 C :   -0.051374
  20 C :   -0.184880
  21 H :    0.028443
  22 C :   -0.035487
  23 H :    0.038404
  24 H :    0.036216
  25 C :   -0.042778
  26 H :    0.022277
  27 H :    0.028644
  28 C :   -0.067418
  29 H :    0.030880
  30 H :    0.026058
  31 H :    0.026784
  32 H :    0.032734
  33 H :    0.032340

  Mayer bond orders larger than 0.100000
B(  0-S ,  1-C ) :   1.1172 B(  0-S ,  4-C ) :   1.1305 B(  1-C ,  2-C ) :   1.6338
B(  1-C , 32-H ) :   0.9695 B(  2-C ,  3-C ) :   1.1803 B(  2-C ,  6-C ) :   1.0444
B(  3-C ,  4-C ) :   1.6377 B(  3-C ,  5-H ) :   0.9867 B(  4-C , 20-C ) :   1.0346
B(  6-C ,  7-H ) :   0.9314 B(  6-C ,  8-H ) :   0.9304 B(  6-C ,  9-C ) :   1.0523
B(  9-C , 10-H ) :   0.9521 B(  9-C , 11-H ) :   0.9543 B(  9-C , 12-C ) :   1.0868
B( 12-C , 13-H ) :   0.9742 B( 12-C , 14-H ) :   0.9715 B( 12-C , 15-H ) :   0.9694
B( 16-S , 17-C ) :   1.1384 B( 16-S , 20-C ) :   1.1275 B( 17-C , 18-C ) :   1.6411
B( 17-C , 20-C ) :   0.1049 B( 17-C , 33-H ) :   0.9607 B( 18-C , 19-C ) :   1.2077
B( 18-C , 21-H ) :   0.9866 B( 19-C , 20-C ) :   1.6336 B( 19-C , 22-C ) :   1.0298
B( 22-C , 23-H ) :   0.9319 B( 22-C , 24-H ) :   0.9261 B( 22-C , 25-C ) :   1.0619
B( 25-C , 26-H ) :   0.9505 B( 25-C , 27-H ) :   0.9590 B( 25-C , 28-C ) :   1.0743
B( 28-C , 29-H ) :   0.9767 B( 28-C , 30-H ) :   0.9753 B( 28-C , 31-H ) :   0.9749

Dispersion correction           -0.013479820
FINAL SINGLE POINT ENERGY     -1339.872500635448

DIPOLE MOMENT
-------------
                                X             Y             Z
Electronic contribution:     13.12273       7.03047      21.61954
Nuclear contribution   :    -13.46155      -6.99588     -22.16432
                        -----------------------------------------
Total Dipole Moment    :     -0.33882       0.03458      -0.54478
                        -----------------------------------------
Magnitude (a.u.)       :      0.64248
Magnitude (Debye)      :      1.63306

Rotational constants in cm-1:     0.016871     0.007746     0.006415
Rotational constants in MHz :   505.786379   232.211160   192.329657

                             ****ORCA TERMINATED NORMALLY****
TOTAL RUN TIME: 0 days 0 hours 0 minutes 20 seconds 762 msec
