                         Program Version 4.2.1 -  RELEASE  -
|  1> ! wB97X-D3 SP def2-SVP
|  2> %pal
|  3> nprocs 24
|  4> end
|  5>
|  6> * xyz 0 1
|  7> S 	 -102.528 	 62.3291 	 -9.13419
|  8> C 	 -103.156 	 63.9129 	 -9.45447
|  9> C 	 -103.136 	 64.2601 	 -10.7898
| 10> C 	 -102.55 	 63.2178 	 -11.5843
| 11> C 	 -102.244 	 62.0939 	 -10.8219
| 12> H 	 -102.281 	 63.3603 	 -12.5932
| 13> C 	 -103.461 	 65.6856 	 -11.293
| 14> H 	 -103.257 	 65.79 	 -12.3726
| 15> H 	 -102.867 	 66.3957 	 -10.7196
| 16> C 	 -104.918 	 66.1522 	 -11.0956
| 17> H 	 -105.579 	 65.2739 	 -11.2636
| 18> H 	 -105.119 	 66.5155 	 -10.0485
| 19> C 	 -105.409 	 67.3084 	 -11.8924
| 20> H 	 -104.646 	 68.1846 	 -12.0024
| 21> H 	 -105.674 	 66.9781 	 -12.9824
| 22> H 	 -106.346 	 67.7683 	 -11.4761
| 23> S 	 -102.18 	 59.2362 	 -10.8639
| 24> C 	 -101.177 	 58.4673 	 -12.0195
| 25> C 	 -100.352 	 59.3891 	 -12.6385
| 26> C 	 -100.649 	 60.7368 	 -12.2888
| 27> C 	 -101.575 	 60.8873 	 -11.2496
| 28> H 	 -99.6873 	 58.9109 	 -13.421
| 29> C 	 -99.9645 	 61.9445 	 -12.9724
| 30> H 	 -99.7984 	 62.6505 	 -12.0915
| 31> H 	 -100.727 	 62.4617 	 -13.6011
| 32> C 	 -98.6283 	 61.7283 	 -13.6524
| 33> H 	 -98.3072 	 62.653 	 -14.1113
| 34> H 	 -98.7573 	 61.0125 	 -14.4706
| 35> C 	 -97.4896 	 61.0987 	 -12.7865
| 36> H 	 -97.7987 	 60.2276 	 -12.2647
| 37> H 	 -97.1912 	 61.8151 	 -12.0238
| 38> H 	 -96.4829 	 60.9964 	 -13.2872
| 39> H 	 -103.466 	 64.6225 	 -8.73651
| 40> H 	 -101.15 	 57.4355 	 -12.1655
| 41> *
| 42>
| 43>                          ****END OF INPUT****

CARTESIAN COORDINATES (ANGSTROEM)
---------------------------------
  S    -102.528000   62.329100   -9.134190
  C    -103.156000   63.912900   -9.454470
  C    -103.136000   64.260100  -10.789800
  C    -102.550000   63.217800  -11.584300
  C    -102.244000   62.093900  -10.821900
  H    -102.281000   63.360300  -12.593200
  C    -103.461000   65.685600  -11.293000
  H    -103.257000   65.790000  -12.372600
  H    -102.867000   66.395700  -10.719600
  C    -104.918000   66.152200  -11.095600
  H    -105.579000   65.273900  -11.263600
  H    -105.119000   66.515500  -10.048500
  C    -105.409000   67.308400  -11.892400
  H    -104.646000   68.184600  -12.002400
  H    -105.674000   66.978100  -12.982400
  H    -106.346000   67.768300  -11.476100
  S    -102.180000   59.236200  -10.863900
  C    -101.177000   58.467300  -12.019500
  C    -100.352000   59.389100  -12.638500
  C    -100.649000   60.736800  -12.288800
  C    -101.575000   60.887300  -11.249600
  H    -99.687300   58.910900  -13.421000
  C    -99.964500   61.944500  -12.972400
  H    -99.798400   62.650500  -12.091500
  H    -100.727000   62.461700  -13.601100
  C    -98.628300   61.728300  -13.652400
  H    -98.307200   62.653000  -14.111300
  H    -98.757300   61.012500  -14.470600
  C    -97.489600   61.098700  -12.786500
  H    -97.798700   60.227600  -12.264700
  H    -97.191200   61.815100  -12.023800
  H    -96.482900   60.996400  -13.287200
  H    -103.466000   64.622500   -8.736510
  H    -101.150000   57.435500  -12.165500

 Total Charge           Charge          ....    0
 Multiplicity           Mult            ....    1
 Number of Electrons    NEL             ....  134
 Basis Dimension        Dim             ....  322

ORBITAL ENERGIES
----------------

  NO   OCC          E(Eh)            E(eV)
   0   2.0000     -88.970349     -2421.0063
   1   2.0000     -88.963830     -2420.8289
   2   2.0000     -10.330287      -281.1014
   3   2.0000     -10.327596      -281.0282
   4   2.0000     -10.313795      -280.6526
   5   2.0000     -10.309256      -280.5291
   6   2.0000     -10.308306      -280.5033
   7   2.0000     -10.303304      -280.3672
   8   2.0000     -10.300159      -280.2816
   9   2.0000     -10.299667      -280.2682
  10   2.0000     -10.298137      -280.2266
  11   2.0000     -10.295897      -280.1656
  12   2.0000     -10.295618      -280.1580
  13   2.0000     -10.290150      -280.0092
  14   2.0000     -10.289032      -279.9788
  15   2.0000     -10.277525      -279.6657
  16   2.0000      -8.085660      -220.0220
  17   2.0000      -8.078556      -219.8287
  18   2.0000      -6.044042      -164.4667
  19   2.0000      -6.040143      -164.3607
  20   2.0000      -6.037033      -164.2760
  21   2.0000      -6.036474      -164.2608
  22   2.0000      -6.032938      -164.1646
  23   2.0000      -6.029473      -164.0703
  24   2.0000      -1.008827       -27.4516
  25   2.0000      -0.985919       -26.8282
  26   2.0000      -0.911988       -24.8164
  27   2.0000      -0.906052       -24.6549
  28   2.0000      -0.872943       -23.7540
  29   2.0000      -0.855127       -23.2692
  30   2.0000      -0.838988       -22.8300
  31   2.0000      -0.814023       -22.1507
  32   2.0000      -0.785295       -21.3690
  33   2.0000      -0.773326       -21.0433
  34   2.0000      -0.708998       -19.2928
  35   2.0000      -0.701122       -19.0785
  36   2.0000      -0.686747       -18.6873
  37   2.0000      -0.653278       -17.7766
  38   2.0000      -0.639238       -17.3946
  39   2.0000      -0.623820       -16.9750
  40   2.0000      -0.596472       -16.2308
  41   2.0000      -0.572966       -15.5912
  42   2.0000      -0.566404       -15.4126
  43   2.0000      -0.549981       -14.9657
  44   2.0000      -0.536873       -14.6090
  45   2.0000      -0.525994       -14.3130
  46   2.0000      -0.518400       -14.1064
  47   2.0000      -0.512993       -13.9592
  48   2.0000      -0.505539       -13.7564
  49   2.0000      -0.500027       -13.6064
  50   2.0000      -0.487242       -13.2585
  51   2.0000      -0.478242       -13.0136
  52   2.0000      -0.473968       -12.8973
  53   2.0000      -0.464068       -12.6279
  54   2.0000      -0.457932       -12.4610
  55   2.0000      -0.456503       -12.4221
  56   2.0000      -0.445294       -12.1171
  57   2.0000      -0.437300       -11.8996
  58   2.0000      -0.433275       -11.7900
  59   2.0000      -0.420671       -11.4470
  60   2.0000      -0.414557       -11.2807
  61   2.0000      -0.408616       -11.1190
  62   2.0000      -0.407258       -11.0820
  63   2.0000      -0.351001        -9.5512
  64   2.0000      -0.335856        -9.1391
  65   2.0000      -0.329602        -8.9689
  66   2.0000      -0.287720        -7.8293
  67   0.0000       0.025878         0.7042
  68   0.0000       0.069110         1.8806
  69   0.0000       0.107598         2.9279
  70   0.0000       0.127334         3.4649
  71   0.0000       0.135254         3.6804

MULLIKEN ATOMIC CHARGES
-----------------------
   0 S :    0.128911
   1 C :   -0.093836
   2 C :   -0.094774
   3 C :    0.032619
   4 C :   -0.146028
   5 H :   -0.015933
   6 C :    0.079237
   7 H :    0.024670
   8 H :    0.039025
   9 C :   -0.096435
  10 H :    0.042655
  11 H :    0.030940
  12 C :   -0.117827
  13 H :    0.042218
  14 H :    0.041646
  15 H :    0.048750
  16 S :    0.097430
  17 C :   -0.081043
  18 C :   -0.065217
  19 C :   -0.061432
  20 C :   -0.111576
  21 H :    0.047597
  22 C :   -0.002098
  23 H :    0.051489
  24 H :    0.059554
  25 C :   -0.032889
  26 H :    0.027369
  27 H :    0.024433
  28 C :   -0.066034
  29 H :    0.038505
  30 H :    0.018829
  31 H :    0.041331
  32 H :    0.027946
  33 H :    0.039967
Sum of atomic charges:    0.0000000

LOEWDIN ATOMIC CHARGES
----------------------
   0 S :    0.432849
   1 C :   -0.195078
   2 C :   -0.060437
   3 C :   -0.053304
   4 C :   -0.196247
   5 H :    0.022048
   6 C :   -0.028889
   7 H :    0.030976
   8 H :    0.034597
   9 C :   -0.059679
  10 H :    0.030014
  11 H :    0.026747
  12 C :   -0.085408
  13 H :    0.031365
  14 H :    0.029481
  15 H :    0.032454
  16 S :    0.400731
  17 C :   -0.181777
  18 C :   -0.091816
  19 C :   -0.052625
  20 C :   -0.201472
  21 H :    0.046049
  22 C :   -0.040943
  23 H :    0.041876
  24 H :    0.035135
  25 C :   -0.042800
  26 H :    0.027116
  27 H :    0.021115
  28 C :   -0.070608
  29 H :    0.020566
  30 H :    0.023504
  31 H :    0.035514
  32 H :    0.019552
  33 H :    0.019395

  Mayer bond orders larger than 0.100000
B(  0-S ,  1-C ) :   1.1474 B(  0-S ,  4-C ) :   1.1653 B(  1-C ,  2-C ) :   1.6103
B(  1-C , 32-H ) :   0.9707 B(  2-C ,  3-C ) :   1.2644 B(  2-C ,  6-C ) :   1.0228
B(  3-C ,  4-C ) :   1.5407 B(  3-C ,  5-H ) :   1.0002 B(  4-C , 20-C ) :   1.0485
B(  6-C ,  7-H ) :   0.9485 B(  6-C ,  8-H ) :   0.9366 B(  6-C ,  9-C ) :   1.0520
B(  9-C , 10-H ) :   0.9585 B(  9-C , 11-H ) :   0.9542 B(  9-C , 12-C ) :   1.0866
B( 12-C , 13-H ) :   0.9696 B( 12-C , 14-H ) :   0.9712 B( 12-C , 15-H ) :   0.9738
B( 16-S , 17-C ) :   1.1857 B( 16-S , 20-C ) :   1.1213 B( 17-C , 18-C ) :   1.5899
B( 17-C , 20-C ) :   0.1045 B( 17-C , 33-H ) :   0.9701 B( 18-C , 19-C ) :   1.2491
B( 18-C , 21-H ) :   0.9810 B( 19-C , 20-C ) :   1.5869 B( 19-C , 22-C ) :   1.0107
B( 22-C , 23-H ) :   0.9405 B( 22-C , 24-H ) :   0.9288 B( 22-C , 25-C ) :   1.0794
B( 25-C , 26-H ) :   0.9510 B( 25-C , 27-H ) :   0.9470 B( 25-C , 28-C ) :   1.0745
B( 28-C , 29-H ) :   0.9749 B( 28-C , 30-H ) :   0.9720 B( 28-C , 31-H ) :   0.9741

Dispersion correction           -0.013827786
FINAL SINGLE POINT ENERGY     -1339.873394591661

DIPOLE MOMENT
-------------
                                X             Y             Z
Electronic contribution:     -4.65215     -21.23612      14.25903
Nuclear contribution   :      4.86531      21.69307     -14.69295
                        -----------------------------------------
Total Dipole Moment    :      0.21316       0.45696      -0.43392
                        -----------------------------------------
Magnitude (a.u.)       :      0.66524
Magnitude (Debye)      :      1.69089

Rotational constants in cm-1:     0.021160     0.007211     0.006056
Rotational constants in MHz :   634.360688   216.186150   181.544339

                             ****ORCA TERMINATED NORMALLY****
TOTAL RUN TIME: 0 days 0 hours 0 minutes 22 seconds 422 msec
