                         Program Version 4.2.1 -  RELEASE  -
|  1> ! wB97X-D3 SP def2-SVP
|  2> %pal
|  3> nprocs 24
|  4> end
|  5>
|  6> * xyz 0 1
|  7> S 	 45.2717 	 -34.3385 	 -120.24
|  8> C 	 44.1235 	 -33.3223 	 -121.126
|  9> C 	 44.4225 	 -31.9888 	 -120.966
| 10> C 	 45.5586 	 -31.7981 	 -120.129
| 11> C 	 46.2021 	 -32.9406 	 -119.753
| 12> H 	 46.0122 	 -30.849 	 -120.061
| 13> C 	 43.5053 	 -30.8819 	 -121.425
| 14> H 	 43.4374 	 -30.7743 	 -122.51
| 15> H 	 43.8479 	 -29.8845 	 -121.033
| 16> C 	 42.0578 	 -30.926 	 -120.978
| 17> H 	 41.6904 	 -29.9243 	 -121.29
| 18> H 	 41.4399 	 -31.6679 	 -121.593
| 19> C 	 41.8942 	 -30.976 	 -119.455
| 20> H 	 42.0617 	 -31.9889 	 -119.015
| 21> H 	 42.5078 	 -30.2805 	 -118.908
| 22> H 	 40.8713 	 -30.872 	 -119.2
| 23> S 	 48.3968 	 -34.4949 	 -119.204
| 24> C 	 49.6276 	 -34.0231 	 -118.127
| 25> C 	 49.4983 	 -32.6756 	 -117.826
| 26> C 	 48.2512 	 -32.1076 	 -118.25
| 27> C 	 47.4746 	 -32.9646 	 -119.02
| 28> H 	 50.2022 	 -32.1886 	 -117.155
| 29> C 	 47.7645 	 -30.6881 	 -117.867
| 30> H 	 47.961 	 -30.5024 	 -116.817
| 31> H 	 46.6765 	 -30.6532 	 -117.954
| 32> C 	 48.1388 	 -29.5523 	 -118.851
| 33> H 	 47.8437 	 -29.8596 	 -119.877
| 34> H 	 49.2427 	 -29.4457 	 -118.842
| 35> C 	 47.6624 	 -28.2208 	 -118.418
| 36> H 	 46.6522 	 -28.1815 	 -118.146
| 37> H 	 47.8042 	 -27.418 	 -119.162
| 38> H 	 48.254 	 -27.8117 	 -117.602
| 39> H 	 43.33 	 -33.6489 	 -121.803
| 40> H 	 50.5491 	 -34.5921 	 -117.894
| 41> *
| 42>
| 43>                          ****END OF INPUT****

CARTESIAN COORDINATES (ANGSTROEM)
---------------------------------
  S     45.271700  -34.338500  -120.240000
  C     44.123500  -33.322300  -121.126000
  C     44.422500  -31.988800  -120.966000
  C     45.558600  -31.798100  -120.129000
  C     46.202100  -32.940600  -119.753000
  H     46.012200  -30.849000  -120.061000
  C     43.505300  -30.881900  -121.425000
  H     43.437400  -30.774300  -122.510000
  H     43.847900  -29.884500  -121.033000
  C     42.057800  -30.926000  -120.978000
  H     41.690400  -29.924300  -121.290000
  H     41.439900  -31.667900  -121.593000
  C     41.894200  -30.976000  -119.455000
  H     42.061700  -31.988900  -119.015000
  H     42.507800  -30.280500  -118.908000
  H     40.871300  -30.872000  -119.200000
  S     48.396800  -34.494900  -119.204000
  C     49.627600  -34.023100  -118.127000
  C     49.498300  -32.675600  -117.826000
  C     48.251200  -32.107600  -118.250000
  C     47.474600  -32.964600  -119.020000
  H     50.202200  -32.188600  -117.155000
  C     47.764500  -30.688100  -117.867000
  H     47.961000  -30.502400  -116.817000
  H     46.676500  -30.653200  -117.954000
  C     48.138800  -29.552300  -118.851000
  H     47.843700  -29.859600  -119.877000
  H     49.242700  -29.445700  -118.842000
  C     47.662400  -28.220800  -118.418000
  H     46.652200  -28.181500  -118.146000
  H     47.804200  -27.418000  -119.162000
  H     48.254000  -27.811700  -117.602000
  H     43.330000  -33.648900  -121.803000
  H     50.549100  -34.592100  -117.894000

 Total Charge           Charge          ....    0
 Multiplicity           Mult            ....    1
 Number of Electrons    NEL             ....  134
 Basis Dimension        Dim             ....  322

ORBITAL ENERGIES
----------------

  NO   OCC          E(Eh)            E(eV)
   0   2.0000     -88.970731     -2421.0167
   1   2.0000     -88.961899     -2420.7764
   2   2.0000     -10.333516      -281.1893
   3   2.0000     -10.333328      -281.1842
   4   2.0000     -10.318805      -280.7890
   5   2.0000     -10.315723      -280.7051
   6   2.0000     -10.309132      -280.5258
   7   2.0000     -10.298693      -280.2417
   8   2.0000     -10.295622      -280.1581
   9   2.0000     -10.294768      -280.1349
  10   2.0000     -10.294490      -280.1273
  11   2.0000     -10.293690      -280.1056
  12   2.0000     -10.290404      -280.0161
  13   2.0000     -10.287391      -279.9342
  14   2.0000     -10.273839      -279.5654
  15   2.0000     -10.273405      -279.5536
  16   2.0000      -8.084764      -219.9976
  17   2.0000      -8.077148      -219.7904
  18   2.0000      -6.043473      -164.4513
  19   2.0000      -6.039333      -164.3386
  20   2.0000      -6.035569      -164.2362
  21   2.0000      -6.035369      -164.2308
  22   2.0000      -6.031532      -164.1263
  23   2.0000      -6.027999      -164.0302
  24   2.0000      -1.007929       -27.4271
  25   2.0000      -0.986156       -26.8347
  26   2.0000      -0.915078       -24.9005
  27   2.0000      -0.913102       -24.8468
  28   2.0000      -0.869217       -23.6526
  29   2.0000      -0.855779       -23.2869
  30   2.0000      -0.844727       -22.9862
  31   2.0000      -0.814279       -22.1577
  32   2.0000      -0.786518       -21.4023
  33   2.0000      -0.777671       -21.1615
  34   2.0000      -0.706006       -19.2114
  35   2.0000      -0.699647       -19.0384
  36   2.0000      -0.693584       -18.8734
  37   2.0000      -0.662989       -18.0409
  38   2.0000      -0.635167       -17.2838
  39   2.0000      -0.619512       -16.8578
  40   2.0000      -0.595114       -16.1939
  41   2.0000      -0.576138       -15.6775
  42   2.0000      -0.569675       -15.5016
  43   2.0000      -0.557778       -15.1779
  44   2.0000      -0.537702       -14.6316
  45   2.0000      -0.523648       -14.2492
  46   2.0000      -0.517137       -14.0720
  47   2.0000      -0.508751       -13.8438
  48   2.0000      -0.506938       -13.7945
  49   2.0000      -0.506246       -13.7756
  50   2.0000      -0.494404       -13.4534
  51   2.0000      -0.478729       -13.0269
  52   2.0000      -0.475541       -12.9401
  53   2.0000      -0.469094       -12.7647
  54   2.0000      -0.459215       -12.4959
  55   2.0000      -0.453736       -12.3468
  56   2.0000      -0.438955       -11.9446
  57   2.0000      -0.435680       -11.8555
  58   2.0000      -0.431391       -11.7387
  59   2.0000      -0.427895       -11.6436
  60   2.0000      -0.415845       -11.3157
  61   2.0000      -0.410345       -11.1660
  62   2.0000      -0.406691       -11.0666
  63   2.0000      -0.360645        -9.8137
  64   2.0000      -0.333589        -9.0774
  65   2.0000      -0.330168        -8.9843
  66   2.0000      -0.286055        -7.7840
  67   0.0000       0.019523         0.5312
  68   0.0000       0.082293         2.2393
  69   0.0000       0.101241         2.7549
  70   0.0000       0.119524         3.2524
  71   0.0000       0.128147         3.4870

MULLIKEN ATOMIC CHARGES
-----------------------
   0 S :    0.118803
   1 C :   -0.127870
   2 C :   -0.056259
   3 C :   -0.005267
   4 C :   -0.064267
   5 H :   -0.023421
   6 C :    0.044555
   7 H :    0.036172
   8 H :    0.020138
   9 C :   -0.109304
  10 H :    0.028590
  11 H :    0.039045
  12 C :   -0.024220
  13 H :    0.036328
  14 H :    0.027874
  15 H :    0.020224
  16 S :    0.083068
  17 C :   -0.090576
  18 C :   -0.038117
  19 C :   -0.056647
  20 C :   -0.133718
  21 H :    0.020606
  22 C :    0.037486
  23 H :    0.026313
  24 H :    0.017347
  25 C :   -0.081067
  26 H :    0.044583
  27 H :    0.025533
  28 C :   -0.013020
  29 H :    0.012477
  30 H :    0.030154
  31 H :    0.025437
  32 H :    0.052981
  33 H :    0.076038
Sum of atomic charges:   -0.0000000

LOEWDIN ATOMIC CHARGES
----------------------
   0 S :    0.401413
   1 C :   -0.189738
   2 C :   -0.063554
   3 C :   -0.067645
   4 C :   -0.187563
   5 H :    0.021041
   6 C :   -0.039846
   7 H :    0.033987
   8 H :    0.031886
   9 C :   -0.046378
  10 H :    0.027790
  11 H :    0.027140
  12 C :   -0.068406
  13 H :    0.032861
  14 H :    0.024010
  15 H :    0.021782
  16 S :    0.401227
  17 C :   -0.201979
  18 C :   -0.077988
  19 C :   -0.056822
  20 C :   -0.171534
  21 H :    0.031418
  22 C :   -0.031606
  23 H :    0.028496
  24 H :    0.027719
  25 C :   -0.044506
  26 H :    0.025776
  27 H :    0.027015
  28 C :   -0.066228
  29 H :    0.013507
  30 H :    0.032297
  31 H :    0.028987
  32 H :    0.034048
  33 H :    0.041394

  Mayer bond orders larger than 0.100000
B(  0-S ,  1-C ) :   1.1227 B(  0-S ,  4-C ) :   1.1387 B(  1-C ,  2-C ) :   1.6161
B(  1-C , 32-H ) :   0.9658 B(  2-C ,  3-C ) :   1.2630 B(  2-C ,  6-C ) :   1.0205
B(  3-C ,  4-C ) :   1.5621 B(  3-C ,  5-H ) :   0.9925 B(  4-C , 20-C ) :   1.0678
B(  6-C ,  7-H ) :   0.9334 B(  6-C ,  8-H ) :   0.9484 B(  6-C ,  9-C ) :   1.0866
B(  9-C , 10-H ) :   0.9549 B(  9-C , 11-H ) :   0.9504 B(  9-C , 12-C ) :   1.0760
B( 12-C , 13-H ) :   0.9695 B( 12-C , 14-H ) :   0.9745 B( 12-C , 15-H ) :   0.9723
B( 16-S , 17-C ) :   1.1730 B( 16-S , 20-C ) :   1.1288 B( 17-C , 18-C ) :   1.5888
B( 17-C , 33-H ) :   0.9616 B( 18-C , 19-C ) :   1.2594 B( 18-C , 21-H ) :   0.9887
B( 19-C , 20-C ) :   1.5884 B( 19-C , 22-C ) :   1.0363 B( 22-C , 23-H ) :   0.9405
B( 22-C , 24-H ) :   0.9362 B( 22-C , 25-C ) :   1.0542 B( 25-C , 26-H ) :   0.9494
B( 25-C , 27-H ) :   0.9509 B( 25-C , 28-C ) :   1.0886 B( 28-C , 29-H ) :   0.9714
B( 28-C , 30-H ) :   0.9682 B( 28-C , 31-H ) :   0.9710

Dispersion correction           -0.014484295
FINAL SINGLE POINT ENERGY     -1339.878708351831

DIPOLE MOMENT
-------------
                                X             Y             Z
Electronic contribution:     11.92565     -27.99598      -2.14784
Nuclear contribution   :    -12.03309      28.72957       2.17746
                        -----------------------------------------
Total Dipole Moment    :     -0.10745       0.73360       0.02962
                        -----------------------------------------
Magnitude (a.u.)       :      0.74202
Magnitude (Debye)      :      1.88605

Rotational constants in cm-1:     0.018078     0.009604     0.006702
Rotational constants in MHz :   541.956299   287.926432   200.922314

                             ****ORCA TERMINATED NORMALLY****
TOTAL RUN TIME: 0 days 0 hours 0 minutes 21 seconds 978 msec
