                         Program Version 4.2.1 -  RELEASE  -
|  1> ! wB97X-D3 SP def2-SVP
|  2> %pal
|  3> nprocs 24
|  4> end
|  5>
|  6> * xyz 0 1
|  7> S 	 -58.6863 	 -2.87994 	 -25.7062
|  8> C 	 -59.2113 	 -3.37721 	 -27.2708
|  9> C 	 -60.5701 	 -3.57768 	 -27.2735
| 10> C 	 -61.2041 	 -3.0157 	 -26.1451
| 11> C 	 -60.3291 	 -2.62476 	 -25.1736
| 12> H 	 -62.2492 	 -2.82714 	 -25.9834
| 13> C 	 -61.2917 	 -4.12111 	 -28.5024
| 14> H 	 -62.0403 	 -4.79747 	 -28.1284
| 15> H 	 -60.6246 	 -4.85203 	 -28.9541
| 16> C 	 -61.874 	 -3.01889 	 -29.4148
| 17> H 	 -62.721 	 -2.47275 	 -28.9466
| 18> H 	 -61.1238 	 -2.27043 	 -29.6114
| 19> C 	 -62.3999 	 -3.57644 	 -30.7985
| 20> H 	 -63.1426 	 -4.38188 	 -30.7905
| 21> H 	 -62.9192 	 -2.72508 	 -31.1597
| 22> H 	 -61.5564 	 -3.77047 	 -31.4647
| 23> S 	 -59.5372 	 -2.25578 	 -22.5357
| 24> C 	 -60.2575 	 -1.07286 	 -21.5868
| 25> C 	 -61.1224 	 -0.273622 	 -22.3166
| 26> C 	 -61.3817 	 -0.833944 	 -23.6173
| 27> C 	 -60.5919 	 -1.90034 	 -23.9145
| 28> H 	 -61.645 	 0.542896 	 -21.8697
| 29> C 	 -62.4017 	 -0.322394 	 -24.5425
| 30> H 	 -63.1367 	 0.147307 	 -23.8832
| 31> H 	 -62.9314 	 -1.21047 	 -24.8442
| 32> C 	 -62.0656 	 0.773653 	 -25.5552
| 33> H 	 -62.9796 	 0.825735 	 -26.1925
| 34> H 	 -61.3105 	 0.432171 	 -26.2115
| 35> C 	 -61.6597 	 2.12849 	 -24.9691
| 36> H 	 -62.1962 	 2.64296 	 -24.1757
| 37> H 	 -61.5847 	 2.84776 	 -25.8156
| 38> H 	 -60.6529 	 2.18719 	 -24.6481
| 39> H 	 -58.6444 	 -3.86665 	 -28.087
| 40> H 	 -59.9947 	 -0.846847 	 -20.597
| 41> *
| 42>
| 43>                          ****END OF INPUT****

CARTESIAN COORDINATES (ANGSTROEM)
---------------------------------
  S    -58.686300   -2.879940  -25.706200
  C    -59.211300   -3.377210  -27.270800
  C    -60.570100   -3.577680  -27.273500
  C    -61.204100   -3.015700  -26.145100
  C    -60.329100   -2.624760  -25.173600
  H    -62.249200   -2.827140  -25.983400
  C    -61.291700   -4.121110  -28.502400
  H    -62.040300   -4.797470  -28.128400
  H    -60.624600   -4.852030  -28.954100
  C    -61.874000   -3.018890  -29.414800
  H    -62.721000   -2.472750  -28.946600
  H    -61.123800   -2.270430  -29.611400
  C    -62.399900   -3.576440  -30.798500
  H    -63.142600   -4.381880  -30.790500
  H    -62.919200   -2.725080  -31.159700
  H    -61.556400   -3.770470  -31.464700
  S    -59.537200   -2.255780  -22.535700
  C    -60.257500   -1.072860  -21.586800
  C    -61.122400   -0.273622  -22.316600
  C    -61.381700   -0.833944  -23.617300
  C    -60.591900   -1.900340  -23.914500
  H    -61.645000    0.542896  -21.869700
  C    -62.401700   -0.322394  -24.542500
  H    -63.136700    0.147307  -23.883200
  H    -62.931400   -1.210470  -24.844200
  C    -62.065600    0.773653  -25.555200
  H    -62.979600    0.825735  -26.192500
  H    -61.310500    0.432171  -26.211500
  C    -61.659700    2.128490  -24.969100
  H    -62.196200    2.642960  -24.175700
  H    -61.584700    2.847760  -25.815600
  H    -60.652900    2.187190  -24.648100
  H    -58.644400   -3.866650  -28.087000
  H    -59.994700   -0.846847  -20.597000

 Total Charge           Charge          ....    0
 Multiplicity           Mult            ....    1
 Number of Electrons    NEL             ....  134
 Basis Dimension        Dim             ....  322

ORBITAL ENERGIES
----------------

  NO   OCC          E(Eh)            E(eV)
   0   2.0000     -88.963832     -2420.8289
   1   2.0000     -88.962137     -2420.7828
   2   2.0000     -10.327606      -281.0285
   3   2.0000     -10.322183      -280.8809
   4   2.0000     -10.309962      -280.5483
   5   2.0000     -10.308268      -280.5022
   6   2.0000     -10.296109      -280.1714
   7   2.0000     -10.294869      -280.1376
   8   2.0000     -10.293763      -280.1075
   9   2.0000     -10.290474      -280.0180
  10   2.0000     -10.289677      -279.9963
  11   2.0000     -10.289391      -279.9886
  12   2.0000     -10.287933      -279.9489
  13   2.0000     -10.284026      -279.8426
  14   2.0000     -10.279123      -279.7091
  15   2.0000     -10.277266      -279.6586
  16   2.0000      -8.079011      -219.8411
  17   2.0000      -8.078121      -219.8169
  18   2.0000      -6.037567      -164.2906
  19   2.0000      -6.036551      -164.2629
  20   2.0000      -6.033465      -164.1789
  21   2.0000      -6.032360      -164.1489
  22   2.0000      -6.029674      -164.0758
  23   2.0000      -6.028995      -164.0573
  24   2.0000      -1.012729       -27.5578
  25   2.0000      -0.991930       -26.9918
  26   2.0000      -0.915150       -24.9025
  27   2.0000      -0.906518       -24.6676
  28   2.0000      -0.868712       -23.6389
  29   2.0000      -0.854399       -23.2494
  30   2.0000      -0.845381       -23.0040
  31   2.0000      -0.818349       -22.2684
  32   2.0000      -0.789171       -21.4744
  33   2.0000      -0.773425       -21.0460
  34   2.0000      -0.714969       -19.4553
  35   2.0000      -0.703942       -19.1552
  36   2.0000      -0.694302       -18.8929
  37   2.0000      -0.667602       -18.1664
  38   2.0000      -0.640066       -17.4171
  39   2.0000      -0.619733       -16.8638
  40   2.0000      -0.593918       -16.1613
  41   2.0000      -0.568811       -15.4781
  42   2.0000      -0.559565       -15.2265
  43   2.0000      -0.551999       -15.0207
  44   2.0000      -0.540652       -14.7119
  45   2.0000      -0.528582       -14.3834
  46   2.0000      -0.521926       -14.2023
  47   2.0000      -0.506836       -13.7917
  48   2.0000      -0.501491       -13.6463
  49   2.0000      -0.498288       -13.5591
  50   2.0000      -0.489776       -13.3275
  51   2.0000      -0.487022       -13.2526
  52   2.0000      -0.472197       -12.8491
  53   2.0000      -0.468618       -12.7517
  54   2.0000      -0.467086       -12.7101
  55   2.0000      -0.450940       -12.2707
  56   2.0000      -0.442818       -12.0497
  57   2.0000      -0.440608       -11.9896
  58   2.0000      -0.434900       -11.8342
  59   2.0000      -0.421097       -11.4586
  60   2.0000      -0.420136       -11.4325
  61   2.0000      -0.413806       -11.2602
  62   2.0000      -0.408919       -11.1272
  63   2.0000      -0.353996        -9.6327
  64   2.0000      -0.330936        -9.0052
  65   2.0000      -0.328172        -8.9300
  66   2.0000      -0.288747        -7.8572
  67   0.0000       0.034129         0.9287
  68   0.0000       0.072160         1.9636
  69   0.0000       0.117381         3.1941
  70   0.0000       0.119794         3.2598
  71   0.0000       0.130799         3.5592

MULLIKEN ATOMIC CHARGES
-----------------------
   0 S :    0.111862
   1 C :   -0.112121
   2 C :   -0.127543
   3 C :    0.004948
   4 C :   -0.101362
   5 H :   -0.000534
   6 C :    0.094942
   7 H :    0.015322
   8 H :    0.011967
   9 C :   -0.081131
  10 H :    0.034009
  11 H :    0.030639
  12 C :   -0.040707
  13 H :    0.038431
  14 H :    0.021319
  15 H :    0.040025
  16 S :    0.104788
  17 C :   -0.059198
  18 C :   -0.026450
  19 C :   -0.060758
  20 C :   -0.161367
  21 H :    0.006604
  22 C :    0.048211
  23 H :    0.004124
  24 H :    0.021378
  25 C :    0.000106
  26 H :    0.032647
  27 H :    0.025672
  28 C :   -0.054792
  29 H :    0.031126
  30 H :    0.027552
  31 H :    0.025308
  32 H :    0.056393
  33 H :    0.038589
Sum of atomic charges:   -0.0000000

LOEWDIN ATOMIC CHARGES
----------------------
   0 S :    0.413338
   1 C :   -0.218839
   2 C :   -0.064565
   3 C :   -0.070627
   4 C :   -0.184411
   5 H :    0.027323
   6 C :   -0.035855
   7 H :    0.028600
   8 H :    0.028322
   9 C :   -0.033108
  10 H :    0.027419
  11 H :    0.024498
  12 C :   -0.065201
  13 H :    0.025996
  14 H :    0.022799
  15 H :    0.026422
  16 S :    0.420607
  17 C :   -0.192232
  18 C :   -0.070171
  19 C :   -0.057762
  20 C :   -0.194398
  21 H :    0.026058
  22 C :   -0.042078
  23 H :    0.032074
  24 H :    0.030057
  25 C :   -0.028586
  26 H :    0.031679
  27 H :    0.023538
  28 C :   -0.073529
  29 H :    0.024501
  30 H :    0.035453
  31 H :    0.024626
  32 H :    0.037419
  33 H :    0.020633

  Mayer bond orders larger than 0.100000
B(  0-S ,  1-C ) :   1.1359 B(  0-S ,  4-C ) :   1.1529 B(  1-C ,  2-C ) :   1.6227
B(  1-C , 32-H ) :   0.9554 B(  2-C ,  3-C ) :   1.2259 B(  2-C ,  6-C ) :   1.0350
B(  3-C ,  4-C ) :   1.5855 B(  3-C ,  5-H ) :   1.0049 B(  4-C , 20-C ) :   1.0283
B(  6-C ,  7-H ) :   0.9308 B(  6-C ,  8-H ) :   0.9412 B(  6-C ,  9-C ) :   1.0484
B(  9-C , 10-H ) :   0.9601 B(  9-C , 11-H ) :   0.9586 B(  9-C , 12-C ) :   1.0747
B( 12-C , 13-H ) :   0.9776 B( 12-C , 14-H ) :   0.9757 B( 12-C , 15-H ) :   0.9783
B( 16-S , 17-C ) :   1.1839 B( 16-S , 20-C ) :   1.1238 B( 17-C , 18-C ) :   1.5872
B( 17-C , 33-H ) :   0.9715 B( 18-C , 19-C ) :   1.2464 B( 18-C , 21-H ) :   0.9944
B( 19-C , 20-C ) :   1.6110 B( 19-C , 22-C ) :   1.0322 B( 22-C , 23-H ) :   0.9197
B( 22-C , 24-H ) :   0.9389 B( 22-C , 25-C ) :   1.0612 B( 25-C , 26-H ) :   0.9546
B( 25-C , 27-H ) :   0.9523 B( 25-C , 28-C ) :   1.0758 B( 28-C , 29-H ) :   0.9784
B( 28-C , 30-H ) :   0.9689 B( 28-C , 31-H ) :   0.9696

Dispersion correction           -0.014505452
FINAL SINGLE POINT ENERGY     -1339.870643467207

DIPOLE MOMENT
-------------
                                X             Y             Z
Electronic contribution:     17.51288      -9.68580      21.83970
Nuclear contribution   :    -18.05069      10.00841     -22.19426
                        -----------------------------------------
Total Dipole Moment    :     -0.53781       0.32261      -0.35456
                        -----------------------------------------
Magnitude (a.u.)       :      0.72044
Magnitude (Debye)      :      1.83120

Rotational constants in cm-1:     0.020466     0.008504     0.006643
Rotational constants in MHz :   613.556594   254.934254   199.142291

                             ****ORCA TERMINATED NORMALLY****
TOTAL RUN TIME: 0 days 0 hours 0 minutes 22 seconds 31 msec
