                         Program Version 4.2.1 -  RELEASE  -
|  1> ! wB97X-D3 SP def2-SVP
|  2> %pal
|  3> nprocs 24
|  4> end
|  5>
|  6> * xyz 0 1
|  7> S 	 -117.15 	 49.9207 	 -27.1681
|  8> C 	 -117.126 	 49.4677 	 -28.874
|  9> C 	 -118.422 	 49.5456 	 -29.436
| 10> C 	 -119.347 	 50.0063 	 -28.4849
| 11> C 	 -118.913 	 50.0662 	 -27.175
| 12> H 	 -120.342 	 50.2029 	 -28.755
| 13> C 	 -118.796 	 49.3644 	 -30.8965
| 14> H 	 -117.93 	 48.9054 	 -31.3522
| 15> H 	 -118.856 	 50.3324 	 -31.3675
| 16> C 	 -119.822 	 48.4214 	 -31.4023
| 17> H 	 -120.801 	 48.8949 	 -31.1753
| 18> H 	 -119.839 	 48.3644 	 -32.4948
| 19> C 	 -119.774 	 46.9953 	 -30.8581
| 20> H 	 -120.758 	 46.5629 	 -30.8438
| 21> H 	 -119.137 	 46.3203 	 -31.4598
| 22> H 	 -119.469 	 46.9828 	 -29.7926
| 23> S 	 -119.706 	 52.0754 	 -25.647
| 24> C 	 -120.875 	 51.9114 	 -24.406
| 25> C 	 -121.049 	 50.5364 	 -24.1537
| 26> C 	 -120.45 	 49.7144 	 -25.1887
| 27> C 	 -119.728 	 50.4442 	 -26.0694
| 28> H 	 -121.687 	 50.1494 	 -23.3272
| 29> C 	 -120.532 	 48.181 	 -25.3189
| 30> H 	 -120.177 	 47.7637 	 -24.3648
| 31> H 	 -119.839 	 47.9139 	 -26.0148
| 32> C 	 -121.973 	 47.7645 	 -25.5218
| 33> H 	 -122.597 	 48.1276 	 -24.6947
| 34> H 	 -122.105 	 46.6911 	 -25.601
| 35> C 	 -122.497 	 48.4884 	 -26.8439
| 36> H 	 -121.781 	 48.698 	 -27.6892
| 37> H 	 -123.059 	 49.4075 	 -26.7078
| 38> H 	 -123.264 	 47.8282 	 -27.3133
| 39> H 	 -116.264 	 49.37 	 -29.592
| 40> H 	 -121.089 	 52.6592 	 -23.6679
| 41> *
| 42>
| 43>                          ****END OF INPUT****

CARTESIAN COORDINATES (ANGSTROEM)
---------------------------------
  S    -117.150000   49.920700  -27.168100
  C    -117.126000   49.467700  -28.874000
  C    -118.422000   49.545600  -29.436000
  C    -119.347000   50.006300  -28.484900
  C    -118.913000   50.066200  -27.175000
  H    -120.342000   50.202900  -28.755000
  C    -118.796000   49.364400  -30.896500
  H    -117.930000   48.905400  -31.352200
  H    -118.856000   50.332400  -31.367500
  C    -119.822000   48.421400  -31.402300
  H    -120.801000   48.894900  -31.175300
  H    -119.839000   48.364400  -32.494800
  C    -119.774000   46.995300  -30.858100
  H    -120.758000   46.562900  -30.843800
  H    -119.137000   46.320300  -31.459800
  H    -119.469000   46.982800  -29.792600
  S    -119.706000   52.075400  -25.647000
  C    -120.875000   51.911400  -24.406000
  C    -121.049000   50.536400  -24.153700
  C    -120.450000   49.714400  -25.188700
  C    -119.728000   50.444200  -26.069400
  H    -121.687000   50.149400  -23.327200
  C    -120.532000   48.181000  -25.318900
  H    -120.177000   47.763700  -24.364800
  H    -119.839000   47.913900  -26.014800
  C    -121.973000   47.764500  -25.521800
  H    -122.597000   48.127600  -24.694700
  H    -122.105000   46.691100  -25.601000
  C    -122.497000   48.488400  -26.843900
  H    -121.781000   48.698000  -27.689200
  H    -123.059000   49.407500  -26.707800
  H    -123.264000   47.828200  -27.313300
  H    -116.264000   49.370000  -29.592000
  H    -121.089000   52.659200  -23.667900

 Total Charge           Charge          ....    0
 Multiplicity           Mult            ....    1
 Number of Electrons    NEL             ....  134
 Basis Dimension        Dim             ....  322

ORBITAL ENERGIES
----------------

  NO   OCC          E(Eh)            E(eV)
   0   2.0000     -88.972671     -2421.0695
   1   2.0000     -88.960402     -2420.7356
   2   2.0000     -10.327207      -281.0176
   3   2.0000     -10.324066      -280.9321
   4   2.0000     -10.315936      -280.7109
   5   2.0000     -10.312289      -280.6116
   6   2.0000     -10.302219      -280.3376
   7   2.0000     -10.301287      -280.3123
   8   2.0000     -10.298921      -280.2479
   9   2.0000     -10.290773      -280.0262
  10   2.0000     -10.287721      -279.9431
  11   2.0000     -10.287400      -279.9344
  12   2.0000     -10.286869      -279.9199
  13   2.0000     -10.282682      -279.8060
  14   2.0000     -10.278416      -279.6899
  15   2.0000     -10.277291      -279.6593
  16   2.0000      -8.086230      -220.0375
  17   2.0000      -8.077261      -219.7935
  18   2.0000      -6.044804      -164.4875
  19   2.0000      -6.040883      -164.3808
  20   2.0000      -6.036999      -164.2751
  21   2.0000      -6.035605      -164.2372
  22   2.0000      -6.031329      -164.1208
  23   2.0000      -6.028182      -164.0352
  24   2.0000      -1.016213       -27.6526
  25   2.0000      -0.986342       -26.8397
  26   2.0000      -0.917924       -24.9780
  27   2.0000      -0.909225       -24.7413
  28   2.0000      -0.872939       -23.7539
  29   2.0000      -0.848736       -23.0953
  30   2.0000      -0.837008       -22.7761
  31   2.0000      -0.813590       -22.1389
  32   2.0000      -0.784537       -21.3483
  33   2.0000      -0.775021       -21.0894
  34   2.0000      -0.708823       -19.2881
  35   2.0000      -0.703380       -19.1399
  36   2.0000      -0.693692       -18.8763
  37   2.0000      -0.659034       -17.9332
  38   2.0000      -0.635383       -17.2896
  39   2.0000      -0.624857       -17.0032
  40   2.0000      -0.596346       -16.2274
  41   2.0000      -0.564436       -15.3591
  42   2.0000      -0.561484       -15.2787
  43   2.0000      -0.551262       -15.0006
  44   2.0000      -0.544991       -14.8299
  45   2.0000      -0.543349       -14.7853
  46   2.0000      -0.518001       -14.0955
  47   2.0000      -0.507775       -13.8173
  48   2.0000      -0.505274       -13.7492
  49   2.0000      -0.492355       -13.3976
  50   2.0000      -0.486681       -13.2433
  51   2.0000      -0.475086       -12.9278
  52   2.0000      -0.467992       -12.7347
  53   2.0000      -0.464380       -12.6364
  54   2.0000      -0.461071       -12.5464
  55   2.0000      -0.447681       -12.1820
  56   2.0000      -0.445186       -12.1141
  57   2.0000      -0.443709       -12.0739
  58   2.0000      -0.435293       -11.8449
  59   2.0000      -0.424784       -11.5590
  60   2.0000      -0.414266       -11.2727
  61   2.0000      -0.413043       -11.2395
  62   2.0000      -0.397920       -10.8280
  63   2.0000      -0.337963        -9.1964
  64   2.0000      -0.325473        -8.8566
  65   2.0000      -0.321919        -8.7599
  66   2.0000      -0.312822        -8.5123
  67   0.0000       0.040586         1.1044
  68   0.0000       0.051954         1.4137
  69   0.0000       0.115307         3.1377
  70   0.0000       0.116944         3.1822
  71   0.0000       0.131538         3.5793

MULLIKEN ATOMIC CHARGES
-----------------------
   0 S :    0.129229
   1 C :   -0.127261
   2 C :   -0.119445
   3 C :    0.066300
   4 C :   -0.176642
   5 H :   -0.001116
   6 C :    0.084751
   7 H :   -0.003190
   8 H :    0.042551
   9 C :   -0.071920
  10 H :    0.016903
  11 H :    0.031773
  12 C :   -0.059587
  13 H :    0.028305
  14 H :    0.037473
  15 H :    0.045594
  16 S :    0.123630
  17 C :   -0.082679
  18 C :   -0.075951
  19 C :   -0.053660
  20 C :   -0.198356
  21 H :    0.036251
  22 C :    0.146124
  23 H :    0.023101
  24 H :    0.010319
  25 C :   -0.054806
  26 H :    0.035112
  27 H :    0.037617
  28 C :   -0.095617
  29 H :    0.033004
  30 H :    0.038311
  31 H :    0.023806
  32 H :    0.067772
  33 H :    0.062304
Sum of atomic charges:   -0.0000000

LOEWDIN ATOMIC CHARGES
----------------------
   0 S :    0.404413
   1 C :   -0.204623
   2 C :   -0.066185
   3 C :   -0.047792
   4 C :   -0.199555
   5 H :    0.020985
   6 C :   -0.040929
   7 H :    0.028366
   8 H :    0.036666
   9 C :   -0.047044
  10 H :    0.018526
  11 H :    0.030303
  12 C :   -0.068244
  13 H :    0.026592
  14 H :    0.027625
  15 H :    0.031566
  16 S :    0.452881
  17 C :   -0.201770
  18 C :   -0.074111
  19 C :   -0.048754
  20 C :   -0.231641
  21 H :    0.034987
  22 C :   -0.016975
  23 H :    0.032341
  24 H :    0.015433
  25 C :   -0.032123
  26 H :    0.027718
  27 H :    0.023312
  28 C :   -0.083134
  29 H :    0.027804
  30 H :    0.025727
  31 H :    0.025472
  32 H :    0.043459
  33 H :    0.028703

  Mayer bond orders larger than 0.100000
B(  0-S ,  1-C ) :   1.1515 B(  0-S ,  4-C ) :   1.1347 B(  1-C ,  2-C ) :   1.5873
B(  1-C ,  4-C ) :   0.1089 B(  1-C , 32-H ) :   0.9528 B(  2-C ,  3-C ) :   1.2757
B(  2-C ,  6-C ) :   1.0229 B(  3-C ,  4-C ) :   1.5575 B(  3-C ,  5-H ) :   0.9917
B(  4-C , 20-C ) :   1.0317 B(  6-C ,  7-H ) :   0.9283 B(  6-C ,  8-H ) :   0.9354
B(  6-C ,  9-C ) :   1.0800 B(  9-C , 10-H ) :   0.9545 B(  9-C , 11-H ) :   0.9518
B(  9-C , 12-C ) :   1.0737 B( 12-C , 13-H ) :   0.9729 B( 12-C , 14-H ) :   0.9755
B( 12-C , 15-H ) :   0.9744 B( 16-S , 17-C ) :   1.1760 B( 16-S , 20-C ) :   1.1778
B( 17-C , 18-C ) :   1.5812 B( 17-C , 20-C ) :   0.1016 B( 17-C , 33-H ) :   0.9681
B( 18-C , 19-C ) :   1.2547 B( 18-C , 21-H ) :   0.9810 B( 19-C , 20-C ) :   1.5956
B( 19-C , 22-C ) :   1.0288 B( 22-C , 23-H ) :   0.9329 B( 22-C , 24-H ) :   0.9335
B( 22-C , 25-C ) :   1.0708 B( 25-C , 26-H ) :   0.9587 B( 25-C , 27-H ) :   0.9646
B( 25-C , 28-C ) :   1.0457 B( 28-C , 29-H ) :   0.9776 B( 28-C , 30-H ) :   0.9754
B( 28-C , 31-H ) :   0.9747

Dispersion correction           -0.015956127
FINAL SINGLE POINT ENERGY     -1339.859407989478

DIPOLE MOMENT
-------------
                                X             Y             Z
Electronic contribution:     14.94667      18.35894      14.58506
Nuclear contribution   :    -15.25552     -18.62775     -14.83090
                        -----------------------------------------
Total Dipole Moment    :     -0.30885      -0.26881      -0.24583
                        -----------------------------------------
Magnitude (a.u.)       :      0.47758
Magnitude (Debye)      :      1.21391

Rotational constants in cm-1:     0.019536     0.009859     0.007762
Rotational constants in MHz :   585.684677   295.570405   232.685660

                             ****ORCA TERMINATED NORMALLY****
TOTAL RUN TIME: 0 days 0 hours 0 minutes 23 seconds 134 msec
