                         Program Version 4.2.1 -  RELEASE  -
|  1> ! wB97X-D3 SP def2-SVP
|  2> %pal
|  3> nprocs 24
|  4> end
|  5>
|  6> * xyz 0 1
|  7> S 	 -99.7143 	 1.19825 	 -105.128
|  8> C 	 -100.558 	 1.84284 	 -106.558
|  9> C 	 -101.136 	 3.03378 	 -106.255
| 10> C 	 -100.802 	 3.51597 	 -104.919
| 11> C 	 -100.272 	 2.52323 	 -104.122
| 12> H 	 -101.049 	 4.45184 	 -104.509
| 13> C 	 -101.904 	 3.83417 	 -107.254
| 14> H 	 -102.826 	 4.19591 	 -106.771
| 15> H 	 -102.072 	 3.23213 	 -108.122
| 16> C 	 -101.111 	 5.08612 	 -107.77
| 17> H 	 -100.882 	 5.70637 	 -106.907
| 18> H 	 -100.161 	 4.85011 	 -108.194
| 19> C 	 -101.952 	 5.89292 	 -108.764
| 20> H 	 -102.037 	 5.59884 	 -109.84
| 21> H 	 -102.955 	 6.05089 	 -108.434
| 22> H 	 -101.513 	 6.94271 	 -108.869
| 23> S 	 -101.523 	 2.80118 	 -101.655
| 24> C 	 -100.433 	 2.78007 	 -100.234
| 25> C 	 -99.1122 	 2.66166 	 -100.522
| 26> C 	 -98.8714 	 2.54923 	 -101.942
| 27> C 	 -100.06 	 2.55426 	 -102.686
| 28> H 	 -98.4534 	 2.62772 	 -99.6252
| 29> C 	 -97.4765 	 2.58058 	 -102.57
| 30> H 	 -97.4983 	 2.31621 	 -103.693
| 31> H 	 -96.9768 	 1.84132 	 -101.988
| 32> C 	 -96.6602 	 3.8505 	 -102.341
| 33> H 	 -96.6445 	 3.98994 	 -101.286
| 34> H 	 -97.1879 	 4.71063 	 -102.676
| 35> C 	 -95.1907 	 3.76035 	 -102.884
| 36> H 	 -95.2639 	 3.84494 	 -103.981
| 37> H 	 -94.628 	 2.83797 	 -102.628
| 38> H 	 -94.5159 	 4.52015 	 -102.518
| 39> H 	 -100.804 	 1.27226 	 -107.485
| 40> H 	 -100.802 	 2.81921 	 -99.185
| 41> *
| 42>
| 43>                          ****END OF INPUT****

CARTESIAN COORDINATES (ANGSTROEM)
---------------------------------
  S    -99.714300    1.198250  -105.128000
  C    -100.558000    1.842840  -106.558000
  C    -101.136000    3.033780  -106.255000
  C    -100.802000    3.515970  -104.919000
  C    -100.272000    2.523230  -104.122000
  H    -101.049000    4.451840  -104.509000
  C    -101.904000    3.834170  -107.254000
  H    -102.826000    4.195910  -106.771000
  H    -102.072000    3.232130  -108.122000
  C    -101.111000    5.086120  -107.770000
  H    -100.882000    5.706370  -106.907000
  H    -100.161000    4.850110  -108.194000
  C    -101.952000    5.892920  -108.764000
  H    -102.037000    5.598840  -109.840000
  H    -102.955000    6.050890  -108.434000
  H    -101.513000    6.942710  -108.869000
  S    -101.523000    2.801180  -101.655000
  C    -100.433000    2.780070  -100.234000
  C    -99.112200    2.661660  -100.522000
  C    -98.871400    2.549230  -101.942000
  C    -100.060000    2.554260  -102.686000
  H    -98.453400    2.627720  -99.625200
  C    -97.476500    2.580580  -102.570000
  H    -97.498300    2.316210  -103.693000
  H    -96.976800    1.841320  -101.988000
  C    -96.660200    3.850500  -102.341000
  H    -96.644500    3.989940  -101.286000
  H    -97.187900    4.710630  -102.676000
  C    -95.190700    3.760350  -102.884000
  H    -95.263900    3.844940  -103.981000
  H    -94.628000    2.837970  -102.628000
  H    -94.515900    4.520150  -102.518000
  H    -100.804000    1.272260  -107.485000
  H    -100.802000    2.819210  -99.185000

 Total Charge           Charge          ....    0
 Multiplicity           Mult            ....    1
 Number of Electrons    NEL             ....  134
 Basis Dimension        Dim             ....  322

ORBITAL ENERGIES
----------------

  NO   OCC          E(Eh)            E(eV)
   0   2.0000     -88.968324     -2420.9512
   1   2.0000     -88.961449     -2420.7641
   2   2.0000     -10.331406      -281.1319
   3   2.0000     -10.329796      -281.0881
   4   2.0000     -10.322832      -280.8985
   5   2.0000     -10.313830      -280.6536
   6   2.0000     -10.312292      -280.6117
   7   2.0000     -10.300559      -280.2925
   8   2.0000     -10.298663      -280.2409
   9   2.0000     -10.293166      -280.0913
  10   2.0000     -10.292389      -280.0701
  11   2.0000     -10.290950      -280.0310
  12   2.0000     -10.287398      -279.9343
  13   2.0000     -10.282741      -279.8076
  14   2.0000     -10.282712      -279.8068
  15   2.0000     -10.282286      -279.7952
  16   2.0000      -8.081604      -219.9116
  17   2.0000      -8.075655      -219.7498
  18   2.0000      -6.040218      -164.3627
  19   2.0000      -6.036568      -164.2634
  20   2.0000      -6.034374      -164.2037
  21   2.0000      -6.032088      -164.1415
  22   2.0000      -6.030282      -164.0923
  23   2.0000      -6.026155      -163.9800
  24   2.0000      -1.000765       -27.2322
  25   2.0000      -0.978134       -26.6164
  26   2.0000      -0.910752       -24.7828
  27   2.0000      -0.905135       -24.6300
  28   2.0000      -0.870025       -23.6746
  29   2.0000      -0.846571       -23.0364
  30   2.0000      -0.840300       -22.8657
  31   2.0000      -0.816396       -22.2153
  32   2.0000      -0.780932       -21.2502
  33   2.0000      -0.766928       -20.8692
  34   2.0000      -0.711675       -19.3657
  35   2.0000      -0.702186       -19.1075
  36   2.0000      -0.692341       -18.8396
  37   2.0000      -0.656846       -17.8737
  38   2.0000      -0.637613       -17.3503
  39   2.0000      -0.617316       -16.7980
  40   2.0000      -0.590892       -16.0790
  41   2.0000      -0.572322       -15.5737
  42   2.0000      -0.566729       -15.4215
  43   2.0000      -0.555978       -15.1289
  44   2.0000      -0.521271       -14.1845
  45   2.0000      -0.516678       -14.0595
  46   2.0000      -0.514069       -13.9885
  47   2.0000      -0.512448       -13.9444
  48   2.0000      -0.506157       -13.7732
  49   2.0000      -0.498843       -13.5742
  50   2.0000      -0.487774       -13.2730
  51   2.0000      -0.470024       -12.7900
  52   2.0000      -0.467361       -12.7176
  53   2.0000      -0.463511       -12.6128
  54   2.0000      -0.459423       -12.5015
  55   2.0000      -0.452067       -12.3014
  56   2.0000      -0.449783       -12.2392
  57   2.0000      -0.437591       -11.9075
  58   2.0000      -0.433958       -11.8086
  59   2.0000      -0.425700       -11.5839
  60   2.0000      -0.421197       -11.4613
  61   2.0000      -0.418078       -11.3765
  62   2.0000      -0.408980       -11.1289
  63   2.0000      -0.342271        -9.3137
  64   2.0000      -0.334627        -9.1057
  65   2.0000      -0.323086        -8.7916
  66   2.0000      -0.296403        -8.0655
  67   0.0000       0.031930         0.8689
  68   0.0000       0.061736         1.6799
  69   0.0000       0.103198         2.8082
  70   0.0000       0.114547         3.1170
  71   0.0000       0.128682         3.5016

MULLIKEN ATOMIC CHARGES
-----------------------
   0 S :    0.096811
   1 C :   -0.137362
   2 C :   -0.091556
   3 C :    0.049940
   4 C :   -0.161311
   5 H :   -0.003703
   6 C :    0.079179
   7 H :    0.034994
   8 H :    0.012804
   9 C :   -0.058776
  10 H :    0.025593
  11 H :    0.025840
  12 C :   -0.072263
  13 H :    0.041649
  14 H :    0.021290
  15 H :    0.034031
  16 S :    0.101354
  17 C :   -0.109043
  18 C :   -0.047410
  19 C :   -0.012488
  20 C :   -0.163058
  21 H :    0.040383
  22 C :    0.066349
  23 H :    0.044867
  24 H :    0.015786
  25 C :   -0.047705
  26 H :    0.008502
  27 H :    0.023635
  28 C :   -0.061706
  29 H :    0.041703
  30 H :    0.032697
  31 H :    0.033796
  32 H :    0.068133
  33 H :    0.067046
Sum of atomic charges:    0.0000000

LOEWDIN ATOMIC CHARGES
----------------------
   0 S :    0.385434
   1 C :   -0.199990
   2 C :   -0.062185
   3 C :   -0.058845
   4 C :   -0.184208
   5 H :    0.021031
   6 C :   -0.026166
   7 H :    0.033969
   8 H :    0.025754
   9 C :   -0.032795
  10 H :    0.023626
  11 H :    0.022213
  12 C :   -0.078134
  13 H :    0.029332
  14 H :    0.018209
  15 H :    0.034099
  16 S :    0.365334
  17 C :   -0.170084
  18 C :   -0.080828
  19 C :   -0.045771
  20 C :   -0.184921
  21 H :    0.044608
  22 C :   -0.034347
  23 H :    0.032843
  24 H :    0.027690
  25 C :   -0.035263
  26 H :    0.016203
  27 H :    0.021058
  28 C :   -0.068652
  29 H :    0.029443
  30 H :    0.028906
  31 H :    0.025417
  32 H :    0.040887
  33 H :    0.036134

  Mayer bond orders larger than 0.100000
B(  0-S ,  1-C ) :   1.1054 B(  0-S ,  4-C ) :   1.1355 B(  1-C ,  2-C ) :   1.6625
B(  1-C , 32-H ) :   0.9575 B(  2-C ,  3-C ) :   1.1795 B(  2-C ,  6-C ) :   1.0523
B(  3-C ,  4-C ) :   1.6107 B(  3-C ,  5-H ) :   0.9972 B(  4-C , 20-C ) :   1.0415
B(  6-C ,  7-H ) :   0.9315 B(  6-C ,  8-H ) :   0.9416 B(  6-C ,  9-C ) :   1.0606
B(  9-C , 10-H ) :   0.9559 B(  9-C , 11-H ) :   0.9563 B(  9-C , 12-C ) :   1.0784
B( 12-C , 13-H ) :   0.9770 B( 12-C , 14-H ) :   0.9737 B( 12-C , 15-H ) :   0.9729
B( 16-S , 17-C ) :   1.1288 B( 16-S , 20-C ) :   1.1142 B( 17-C , 18-C ) :   1.6830
B( 17-C , 33-H ) :   0.9566 B( 18-C , 19-C ) :   1.1786 B( 18-C , 21-H ) :   0.9801
B( 19-C , 20-C ) :   1.6275 B( 19-C , 22-C ) :   1.0424 B( 22-C , 23-H ) :   0.9321
B( 22-C , 24-H ) :   0.9223 B( 22-C , 25-C ) :   1.0688 B( 25-C , 26-H ) :   0.9520
B( 25-C , 27-H ) :   0.9562 B( 25-C , 28-C ) :   1.0723 B( 28-C , 29-H ) :   0.9785
B( 28-C , 30-H ) :   0.9758 B( 28-C , 31-H ) :   0.9760

Dispersion correction           -0.013701154
FINAL SINGLE POINT ENERGY     -1339.874058274513

DIPOLE MOMENT
-------------
                                X             Y             Z
Electronic contribution:    -10.86777     -15.81867      13.20615
Nuclear contribution   :     11.05210      16.26532     -13.18539
                        -----------------------------------------
Total Dipole Moment    :      0.18434       0.44665       0.02076
                        -----------------------------------------
Magnitude (a.u.)       :      0.48364
Magnitude (Debye)      :      1.22932

Rotational constants in cm-1:     0.017868     0.007668     0.006635
Rotational constants in MHz :   535.670187   229.876277   198.899370

                             ****ORCA TERMINATED NORMALLY****
TOTAL RUN TIME: 0 days 0 hours 0 minutes 20 seconds 842 msec
