                         Program Version 4.2.1 -  RELEASE  -
|  1> ! wB97X-D3 SP def2-SVP
|  2> %pal
|  3> nprocs 24
|  4> end
|  5>
|  6> * xyz 0 1
|  7> S 	 -111.472 	 30.8198 	 -22.7778
|  8> C 	 -112.794 	 31.3091 	 -23.8935
|  9> C 	 -113.969 	 30.6947 	 -23.5425
| 10> C 	 -113.776 	 29.7025 	 -22.5066
| 11> C 	 -112.452 	 29.6223 	 -22.0504
| 12> H 	 -114.469 	 29.0954 	 -21.9788
| 13> C 	 -115.312 	 30.8272 	 -24.2228
| 14> H 	 -115.541 	 31.8842 	 -24.093
| 15> H 	 -116.044 	 30.3304 	 -23.6681
| 16> C 	 -115.325 	 30.4391 	 -25.6762
| 17> H 	 -114.372 	 30.8024 	 -26.0249
| 18> H 	 -115.275 	 29.3657 	 -25.6646
| 19> C 	 -116.398 	 31.0492 	 -26.6225
| 20> H 	 -117.331 	 30.4062 	 -26.6376
| 21> H 	 -116.594 	 32.1284 	 -26.4547
| 22> H 	 -116.014 	 30.9627 	 -27.6591
| 23> S 	 -110.693 	 29.3547 	 -19.8299
| 24> C 	 -110.813 	 27.855 	 -18.9139
| 25> C 	 -111.637 	 26.9606 	 -19.5147
| 26> C 	 -112.294 	 27.4658 	 -20.6841
| 27> C 	 -111.944 	 28.7643 	 -20.935
| 28> H 	 -111.853 	 26.0383 	 -18.9792
| 29> C 	 -113.173 	 26.5375 	 -21.527
| 30> H 	 -112.831 	 26.7525 	 -22.5951
| 31> H 	 -114.171 	 26.9342 	 -21.5397
| 32> C 	 -113.165 	 24.9693 	 -21.388
| 33> H 	 -113.372 	 24.6652 	 -20.3083
| 34> H 	 -112.132 	 24.7097 	 -21.4902
| 35> C 	 -114.086 	 24.2262 	 -22.3885
| 36> H 	 -115.023 	 24.6101 	 -22.3912
| 37> H 	 -114.254 	 23.2395 	 -22.1059
| 38> H 	 -113.633 	 24.3404 	 -23.3928
| 39> H 	 -112.735 	 32.1447 	 -24.511
| 40> H 	 -110.67 	 27.6742 	 -17.8986
| 41> *
| 42>
| 43>                          ****END OF INPUT****

CARTESIAN COORDINATES (ANGSTROEM)
---------------------------------
  S    -111.472000   30.819800  -22.777800
  C    -112.794000   31.309100  -23.893500
  C    -113.969000   30.694700  -23.542500
  C    -113.776000   29.702500  -22.506600
  C    -112.452000   29.622300  -22.050400
  H    -114.469000   29.095400  -21.978800
  C    -115.312000   30.827200  -24.222800
  H    -115.541000   31.884200  -24.093000
  H    -116.044000   30.330400  -23.668100
  C    -115.325000   30.439100  -25.676200
  H    -114.372000   30.802400  -26.024900
  H    -115.275000   29.365700  -25.664600
  C    -116.398000   31.049200  -26.622500
  H    -117.331000   30.406200  -26.637600
  H    -116.594000   32.128400  -26.454700
  H    -116.014000   30.962700  -27.659100
  S    -110.693000   29.354700  -19.829900
  C    -110.813000   27.855000  -18.913900
  C    -111.637000   26.960600  -19.514700
  C    -112.294000   27.465800  -20.684100
  C    -111.944000   28.764300  -20.935000
  H    -111.853000   26.038300  -18.979200
  C    -113.173000   26.537500  -21.527000
  H    -112.831000   26.752500  -22.595100
  H    -114.171000   26.934200  -21.539700
  C    -113.165000   24.969300  -21.388000
  H    -113.372000   24.665200  -20.308300
  H    -112.132000   24.709700  -21.490200
  C    -114.086000   24.226200  -22.388500
  H    -115.023000   24.610100  -22.391200
  H    -114.254000   23.239500  -22.105900
  H    -113.633000   24.340400  -23.392800
  H    -112.735000   32.144700  -24.511000
  H    -110.670000   27.674200  -17.898600

 Total Charge           Charge          ....    0
 Multiplicity           Mult            ....    1
 Number of Electrons    NEL             ....  134
 Basis Dimension        Dim             ....  322

ORBITAL ENERGIES
----------------

  NO   OCC          E(Eh)            E(eV)
   0   2.0000     -88.968472     -2420.9552
   1   2.0000     -88.965907     -2420.8854
   2   2.0000     -10.331181      -281.1257
   3   2.0000     -10.330824      -281.1160
   4   2.0000     -10.311332      -280.5856
   5   2.0000     -10.309128      -280.5256
   6   2.0000     -10.305101      -280.4161
   7   2.0000     -10.304483      -280.3992
   8   2.0000     -10.298536      -280.2374
   9   2.0000     -10.297119      -280.1988
  10   2.0000     -10.292402      -280.0705
  11   2.0000     -10.290912      -280.0300
  12   2.0000     -10.290308      -280.0135
  13   2.0000     -10.283486      -279.8279
  14   2.0000     -10.283388      -279.8252
  15   2.0000     -10.274443      -279.5818
  16   2.0000      -8.082600      -219.9387
  17   2.0000      -8.080608      -219.8845
  18   2.0000      -6.041298      -164.3921
  19   2.0000      -6.039122      -164.3329
  20   2.0000      -6.037359      -164.2849
  21   2.0000      -6.035145      -164.2246
  22   2.0000      -6.033027      -164.1670
  23   2.0000      -6.031356      -164.1215
  24   2.0000      -1.005747       -27.3678
  25   2.0000      -0.984081       -26.7782
  26   2.0000      -0.916665       -24.9437
  27   2.0000      -0.903173       -24.5766
  28   2.0000      -0.868160       -23.6238
  29   2.0000      -0.855284       -23.2735
  30   2.0000      -0.842622       -22.9289
  31   2.0000      -0.816829       -22.2270
  32   2.0000      -0.786758       -21.4088
  33   2.0000      -0.779663       -21.2157
  34   2.0000      -0.710450       -19.3323
  35   2.0000      -0.707274       -19.2459
  36   2.0000      -0.699249       -19.0275
  37   2.0000      -0.655134       -17.8271
  38   2.0000      -0.644453       -17.5365
  39   2.0000      -0.613922       -16.7057
  40   2.0000      -0.593513       -16.1503
  41   2.0000      -0.578650       -15.7459
  42   2.0000      -0.564197       -15.3526
  43   2.0000      -0.559528       -15.2255
  44   2.0000      -0.528899       -14.3921
  45   2.0000      -0.519833       -14.1454
  46   2.0000      -0.518603       -14.1119
  47   2.0000      -0.515204       -14.0194
  48   2.0000      -0.509291       -13.8585
  49   2.0000      -0.498168       -13.5558
  50   2.0000      -0.495276       -13.4772
  51   2.0000      -0.480760       -13.0821
  52   2.0000      -0.473959       -12.8971
  53   2.0000      -0.469171       -12.7668
  54   2.0000      -0.463668       -12.6171
  55   2.0000      -0.453578       -12.3425
  56   2.0000      -0.442838       -12.0502
  57   2.0000      -0.437299       -11.8995
  58   2.0000      -0.429363       -11.6836
  59   2.0000      -0.423977       -11.5370
  60   2.0000      -0.423334       -11.5195
  61   2.0000      -0.417109       -11.3501
  62   2.0000      -0.415020       -11.2933
  63   2.0000      -0.353185        -9.6107
  64   2.0000      -0.332984        -9.0610
  65   2.0000      -0.329696        -8.9715
  66   2.0000      -0.288851        -7.8600
  67   0.0000       0.024205         0.6586
  68   0.0000       0.072372         1.9693
  69   0.0000       0.097798         2.6612
  70   0.0000       0.124443         3.3863
  71   0.0000       0.135776         3.6947

MULLIKEN ATOMIC CHARGES
-----------------------
   0 S :    0.094513
   1 C :   -0.106937
   2 C :   -0.095717
   3 C :    0.010399
   4 C :   -0.143096
   5 H :   -0.003637
   6 C :    0.120429
   7 H :    0.017714
   8 H :   -0.000796
   9 C :   -0.057412
  10 H :    0.015187
  11 H :    0.025986
  12 C :   -0.067920
  13 H :    0.045047
  14 H :    0.044258
  15 H :    0.038135
  16 S :    0.103978
  17 C :   -0.045704
  18 C :   -0.075871
  19 C :   -0.036175
  20 C :   -0.132258
  21 H :    0.024781
  22 C :    0.014042
  23 H :    0.043304
  24 H :    0.024833
  25 C :   -0.086959
  26 H :    0.032357
  27 H :    0.029383
  28 C :    0.029209
  29 H :    0.004920
  30 H :    0.020911
  31 H :    0.042579
  32 H :    0.031166
  33 H :    0.039349
Sum of atomic charges:   -0.0000000

LOEWDIN ATOMIC CHARGES
----------------------
   0 S :    0.401042
   1 C :   -0.181847
   2 C :   -0.048585
   3 C :   -0.070239
   4 C :   -0.192829
   5 H :    0.023410
   6 C :   -0.027999
   7 H :    0.031706
   8 H :    0.018108
   9 C :   -0.039620
  10 H :    0.021754
  11 H :    0.026014
  12 C :   -0.073269
  13 H :    0.031629
  14 H :    0.029591
  15 H :    0.031491
  16 S :    0.385761
  17 C :   -0.179277
  18 C :   -0.067654
  19 C :   -0.057926
  20 C :   -0.188473
  21 H :    0.033052
  22 C :   -0.041496
  23 H :    0.043388
  24 H :    0.021925
  25 C :   -0.039552
  26 H :    0.023838
  27 H :    0.021188
  28 C :   -0.047389
  29 H :    0.013043
  30 H :    0.023617
  31 H :    0.035739
  32 H :    0.015197
  33 H :    0.024661

  Mayer bond orders larger than 0.100000
B(  0-S ,  1-C ) :   1.1178 B(  0-S ,  4-C ) :   1.1662 B(  1-C ,  2-C ) :   1.6221
B(  1-C , 32-H ) :   0.9741 B(  2-C ,  3-C ) :   1.2255 B(  2-C ,  6-C ) :   1.0257
B(  3-C ,  4-C ) :   1.5635 B(  3-C ,  5-H ) :   0.9980 B(  4-C , 20-C ) :   1.0386
B(  6-C ,  7-H ) :   0.9245 B(  6-C ,  8-H ) :   0.9387 B(  6-C ,  9-C ) :   1.0638
B(  9-C , 10-H ) :   0.9607 B(  9-C , 11-H ) :   0.9541 B(  9-C , 12-C ) :   1.0729
B( 12-C , 13-H ) :   0.9764 B( 12-C , 14-H ) :   0.9742 B( 12-C , 15-H ) :   0.9756
B( 16-S , 17-C ) :   1.1293 B( 16-S , 20-C ) :   1.1183 B( 17-C , 18-C ) :   1.6647
B( 17-C , 33-H ) :   0.9564 B( 18-C , 19-C ) :   1.2268 B( 18-C , 21-H ) :   0.9804
B( 19-C , 20-C ) :   1.6387 B( 19-C , 22-C ) :   1.0173 B( 22-C , 23-H ) :   0.9339
B( 22-C , 24-H ) :   0.9298 B( 22-C , 25-C ) :   1.0615 B( 25-C , 26-H ) :   0.9508
B( 25-C , 27-H ) :   0.9569 B( 25-C , 28-C ) :   1.0764 B( 28-C , 29-H ) :   0.9730
B( 28-C , 30-H ) :   0.9700 B( 28-C , 31-H ) :   0.9754

Dispersion correction           -0.013347846
FINAL SINGLE POINT ENERGY     -1339.854568357551

DIPOLE MOMENT
-------------
                                X             Y             Z
Electronic contribution:     22.91084      13.68586      16.79844
Nuclear contribution   :    -23.64934     -14.09985     -16.92638
                        -----------------------------------------
Total Dipole Moment    :     -0.73850      -0.41399      -0.12794
                        -----------------------------------------
Magnitude (a.u.)       :      0.85623
Magnitude (Debye)      :      2.17638

Rotational constants in cm-1:     0.017324     0.008183     0.005827
Rotational constants in MHz :   519.356616   245.315500   174.674204

                             ****ORCA TERMINATED NORMALLY****
TOTAL RUN TIME: 0 days 0 hours 0 minutes 20 seconds 815 msec
