                         Program Version 4.2.1 -  RELEASE  -
|  1> ! wB97X-D3 SP def2-SVP
|  2> %pal
|  3> nprocs 24
|  4> end
|  5>
|  6> * xyz 0 1
|  7> S 	 -58.9149 	 -0.730625 	 -30.7466
|  8> C 	 -59.4367 	 0.819597 	 -31.2959
|  9> C 	 -58.8603 	 1.77912 	 -30.5959
| 10> C 	 -57.7384 	 1.28755 	 -29.8232
| 11> C 	 -57.5966 	 -0.11062 	 -29.8124
| 12> H 	 -57.0902 	 1.98018 	 -29.203
| 13> C 	 -59.4392 	 3.1959 	 -30.5305
| 14> H 	 -59.8337 	 3.30315 	 -29.4766
| 15> H 	 -60.3 	 3.24989 	 -31.1097
| 16> C 	 -58.3335 	 4.23828 	 -30.9267
| 17> H 	 -57.4811 	 4.24555 	 -30.3145
| 18> H 	 -58.104 	 3.92294 	 -31.9237
| 19> C 	 -58.7194 	 5.69257 	 -30.8838
| 20> H 	 -58.6644 	 6.21775 	 -29.9441
| 21> H 	 -58.0087 	 6.24269 	 -31.4587
| 22> H 	 -59.6814 	 5.95414 	 -31.3065
| 23> S 	 -57.0896 	 -2.52911 	 -28.5506
| 24> C 	 -55.5037 	 -2.99446 	 -28.0335
| 25> C 	 -54.5874 	 -2.0151 	 -28.4247
| 26> C 	 -55.1947 	 -0.855503 	 -29.0471
| 27> C 	 -56.5505 	 -0.97143 	 -29.2014
| 28> H 	 -53.4983 	 -2.22314 	 -28.3098
| 29> C 	 -54.3453 	 0.345911 	 -29.5379
| 30> H 	 -53.7259 	 0.550225 	 -28.683
| 31> H 	 -54.8851 	 1.29152 	 -29.5433
| 32> C 	 -53.5557 	 0.271231 	 -30.865
| 33> H 	 -54.2502 	 0.169444 	 -31.5914
| 34> H 	 -53.0504 	 -0.654513 	 -30.8311
| 35> C 	 -52.5874 	 1.42524 	 -31.0561
| 36> H 	 -52.1293 	 1.64976 	 -30.0262
| 37> H 	 -53.1868 	 2.27148 	 -31.4993
| 38> H 	 -51.8245 	 1.22507 	 -31.7056
| 39> H 	 -60.2661 	 0.9578 	 -31.9325
| 40> H 	 -55.2756 	 -3.96346 	 -27.6147
| 41> *
| 42>
| 43>                          ****END OF INPUT****

CARTESIAN COORDINATES (ANGSTROEM)
---------------------------------
  S    -58.914900   -0.730625  -30.746600
  C    -59.436700    0.819597  -31.295900
  C    -58.860300    1.779120  -30.595900
  C    -57.738400    1.287550  -29.823200
  C    -57.596600   -0.110620  -29.812400
  H    -57.090200    1.980180  -29.203000
  C    -59.439200    3.195900  -30.530500
  H    -59.833700    3.303150  -29.476600
  H    -60.300000    3.249890  -31.109700
  C    -58.333500    4.238280  -30.926700
  H    -57.481100    4.245550  -30.314500
  H    -58.104000    3.922940  -31.923700
  C    -58.719400    5.692570  -30.883800
  H    -58.664400    6.217750  -29.944100
  H    -58.008700    6.242690  -31.458700
  H    -59.681400    5.954140  -31.306500
  S    -57.089600   -2.529110  -28.550600
  C    -55.503700   -2.994460  -28.033500
  C    -54.587400   -2.015100  -28.424700
  C    -55.194700   -0.855503  -29.047100
  C    -56.550500   -0.971430  -29.201400
  H    -53.498300   -2.223140  -28.309800
  C    -54.345300    0.345911  -29.537900
  H    -53.725900    0.550225  -28.683000
  H    -54.885100    1.291520  -29.543300
  C    -53.555700    0.271231  -30.865000
  H    -54.250200    0.169444  -31.591400
  H    -53.050400   -0.654513  -30.831100
  C    -52.587400    1.425240  -31.056100
  H    -52.129300    1.649760  -30.026200
  H    -53.186800    2.271480  -31.499300
  H    -51.824500    1.225070  -31.705600
  H    -60.266100    0.957800  -31.932500
  H    -55.275600   -3.963460  -27.614700

 Total Charge           Charge          ....    0
 Multiplicity           Mult            ....    1
 Number of Electrons    NEL             ....  134
 Basis Dimension        Dim             ....  322

ORBITAL ENERGIES
----------------

  NO   OCC          E(Eh)            E(eV)
   0   2.0000     -88.963188     -2420.8114
   1   2.0000     -88.960759     -2420.7453
   2   2.0000     -10.336352      -281.2664
   3   2.0000     -10.333412      -281.1864
   4   2.0000     -10.320941      -280.8471
   5   2.0000     -10.309184      -280.5272
   6   2.0000     -10.302950      -280.3575
   7   2.0000     -10.302225      -280.3378
   8   2.0000     -10.301517      -280.3185
   9   2.0000     -10.295450      -280.1534
  10   2.0000     -10.295211      -280.1469
  11   2.0000     -10.288441      -279.9627
  12   2.0000     -10.284073      -279.8438
  13   2.0000     -10.281070      -279.7621
  14   2.0000     -10.271789      -279.5096
  15   2.0000     -10.270981      -279.4876
  16   2.0000      -8.078178      -219.8184
  17   2.0000      -8.076603      -219.7755
  18   2.0000      -6.036720      -164.2675
  19   2.0000      -6.035190      -164.2259
  20   2.0000      -6.032547      -164.1540
  21   2.0000      -6.030968      -164.1110
  22   2.0000      -6.028989      -164.0571
  23   2.0000      -6.027188      -164.0081
  24   2.0000      -1.009561       -27.4715
  25   2.0000      -0.988515       -26.8989
  26   2.0000      -0.911931       -24.8149
  27   2.0000      -0.908389       -24.7185
  28   2.0000      -0.873712       -23.7749
  29   2.0000      -0.852915       -23.2090
  30   2.0000      -0.841676       -22.9032
  31   2.0000      -0.815960       -22.2034
  32   2.0000      -0.783757       -21.3271
  33   2.0000      -0.776898       -21.1405
  34   2.0000      -0.714010       -19.4292
  35   2.0000      -0.706112       -19.2143
  36   2.0000      -0.695197       -18.9173
  37   2.0000      -0.662007       -18.0141
  38   2.0000      -0.639907       -17.4128
  39   2.0000      -0.620412       -16.8823
  40   2.0000      -0.597720       -16.2648
  41   2.0000      -0.570464       -15.5231
  42   2.0000      -0.566739       -15.4218
  43   2.0000      -0.564148       -15.3512
  44   2.0000      -0.528575       -14.3833
  45   2.0000      -0.528024       -14.3683
  46   2.0000      -0.517413       -14.0795
  47   2.0000      -0.510321       -13.8865
  48   2.0000      -0.507972       -13.8226
  49   2.0000      -0.505361       -13.7516
  50   2.0000      -0.493334       -13.4243
  51   2.0000      -0.487785       -13.2733
  52   2.0000      -0.471414       -12.8278
  53   2.0000      -0.465535       -12.6679
  54   2.0000      -0.457660       -12.4536
  55   2.0000      -0.451121       -12.2756
  56   2.0000      -0.445256       -12.1160
  57   2.0000      -0.436687       -11.8829
  58   2.0000      -0.435161       -11.8413
  59   2.0000      -0.423676       -11.5288
  60   2.0000      -0.417924       -11.3723
  61   2.0000      -0.415053       -11.2942
  62   2.0000      -0.408173       -11.1070
  63   2.0000      -0.358801        -9.7635
  64   2.0000      -0.330296        -8.9878
  65   2.0000      -0.323312        -8.7978
  66   2.0000      -0.293125        -7.9763
  67   0.0000       0.028563         0.7772
  68   0.0000       0.077460         2.1078
  69   0.0000       0.110191         2.9985
  70   0.0000       0.123740         3.3671
  71   0.0000       0.132070         3.5938

MULLIKEN ATOMIC CHARGES
-----------------------
   0 S :    0.096952
   1 C :   -0.111315
   2 C :   -0.102777
   3 C :   -0.010734
   4 C :   -0.116576
   5 H :    0.035965
   6 C :    0.102493
   7 H :    0.045299
   8 H :   -0.004129
   9 C :   -0.061973
  10 H :    0.025390
  11 H :    0.029285
  12 C :   -0.023262
  13 H :    0.025323
  14 H :    0.015896
  15 H :    0.017150
  16 S :    0.088011
  17 C :   -0.091468
  18 C :   -0.051769
  19 C :   -0.048416
  20 C :   -0.130383
  21 H :    0.038067
  22 C :    0.040941
  23 H :    0.010119
  24 H :   -0.001297
  25 C :    0.013736
  26 H :    0.007708
  27 H :    0.004287
  28 C :   -0.041910
  29 H :    0.039155
  30 H :    0.044277
  31 H :    0.020176
  32 H :    0.031290
  33 H :    0.064491
Sum of atomic charges:    0.0000000

LOEWDIN ATOMIC CHARGES
----------------------
   0 S :    0.412979
   1 C :   -0.193397
   2 C :   -0.069963
   3 C :   -0.074319
   4 C :   -0.196140
   5 H :    0.035016
   6 C :   -0.018134
   7 H :    0.039795
   8 H :    0.017207
   9 C :   -0.033021
  10 H :    0.021740
  11 H :    0.026225
  12 C :   -0.068063
  13 H :    0.024295
  14 H :    0.025633
  15 H :    0.020136
  16 S :    0.398255
  17 C :   -0.187898
  18 C :   -0.076180
  19 C :   -0.058316
  20 C :   -0.184294
  21 H :    0.038830
  22 C :   -0.031405
  23 H :    0.025420
  24 H :    0.024570
  25 C :   -0.027848
  26 H :    0.012583
  27 H :    0.016946
  28 C :   -0.058265
  29 H :    0.036192
  30 H :    0.035530
  31 H :    0.012627
  32 H :    0.021664
  33 H :    0.031600

  Mayer bond orders larger than 0.100000
B(  0-S ,  1-C ) :   1.1303 B(  0-S ,  4-C ) :   1.1602 B(  1-C ,  2-C ) :   1.6356
B(  1-C , 32-H ) :   0.9725 B(  2-C ,  3-C ) :   1.2346 B(  2-C ,  6-C ) :   1.0227
B(  3-C ,  4-C ) :   1.5683 B(  3-C ,  5-H ) :   0.9807 B(  4-C , 20-C ) :   1.0324
B(  6-C ,  7-H ) :   0.9377 B(  6-C ,  8-H ) :   0.9393 B(  6-C ,  9-C ) :   1.0490
B(  9-C , 10-H ) :   0.9577 B(  9-C , 11-H ) :   0.9596 B(  9-C , 12-C ) :   1.0919
B( 12-C , 13-H ) :   0.9736 B( 12-C , 14-H ) :   0.9684 B( 12-C , 15-H ) :   0.9721
B( 16-S , 17-C ) :   1.1606 B( 16-S , 20-C ) :   1.1328 B( 17-C , 18-C ) :   1.5997
B( 17-C , 33-H ) :   0.9708 B( 18-C , 19-C ) :   1.2356 B( 18-C , 21-H ) :   0.9851
B( 19-C , 20-C ) :   1.6222 B( 19-C , 22-C ) :   1.0291 B( 22-C , 23-H ) :   0.9287
B( 22-C , 24-H ) :   0.9379 B( 22-C , 25-C ) :   1.0576 B( 25-C , 26-H ) :   0.9531
B( 25-C , 27-H ) :   0.9521 B( 25-C , 28-C ) :   1.0780 B( 28-C , 29-H ) :   0.9750
B( 28-C , 30-H ) :   0.9753 B( 28-C , 31-H ) :   0.9746

Dispersion correction           -0.013380072
FINAL SINGLE POINT ENERGY     -1339.856724956292

DIPOLE MOMENT
-------------
                                X             Y             Z
Electronic contribution:    -12.38749     -28.45094       7.03594
Nuclear contribution   :     12.72993      29.01949      -7.14199
                        -----------------------------------------
Total Dipole Moment    :      0.34244       0.56855      -0.10606
                        -----------------------------------------
Magnitude (a.u.)       :      0.67213
Magnitude (Debye)      :      1.70842

Rotational constants in cm-1:     0.017040     0.008627     0.006265
Rotational constants in MHz :   510.842003   258.625064   187.816397

                             ****ORCA TERMINATED NORMALLY****
TOTAL RUN TIME: 0 days 0 hours 0 minutes 21 seconds 18 msec
