                         Program Version 4.2.1 -  RELEASE  -
|  1> ! wB97X-D3 SP def2-SVP
|  2> %pal
|  3> nprocs 24
|  4> end
|  5>
|  6> * xyz 0 1
|  7> S 	 -39.9955 	 -9.52588 	 17.7283
|  8> C 	 -39.5071 	 -11.1134 	 18.1829
|  9> C 	 -39.65 	 -12.005 	 17.1443
| 10> C 	 -40.2413 	 -11.3904 	 15.9615
| 11> C 	 -40.1088 	 -10.0393 	 16.0354
| 12> H 	 -40.6681 	 -11.8617 	 15.0467
| 13> C 	 -39.599 	 -13.5555 	 17.3366
| 14> H 	 -40.5624 	 -14.0055 	 16.9762
| 15> H 	 -39.7807 	 -13.8503 	 18.372
| 16> C 	 -38.2517 	 -14.1958 	 16.9306
| 17> H 	 -38.3322 	 -15.2894 	 17.0074
| 18> H 	 -37.9574 	 -13.9467 	 15.9267
| 19> C 	 -37.0638 	 -13.6569 	 17.6727
| 20> H 	 -37.1348 	 -13.8602 	 18.7707
| 21> H 	 -36.2041 	 -14.2655 	 17.1996
| 22> H 	 -36.9571 	 -12.6167 	 17.3765
| 23> S 	 -41.8204 	 -7.93937 	 15.4184
| 24> C 	 -42.365 	 -7.74134 	 13.7246
| 25> C 	 -41.609 	 -8.4949 	 12.919
| 26> C 	 -40.5883 	 -9.25654 	 13.6239
| 27> C 	 -40.6506 	 -9.16205 	 14.9987
| 28> H 	 -41.6824 	 -8.54587 	 11.8659
| 29> C 	 -39.8687 	 -10.2979 	 12.808
| 30> H 	 -40.6461 	 -11.114 	 12.696
| 31> H 	 -39.0814 	 -10.5996 	 13.4104
| 32> C 	 -39.2171 	 -9.85977 	 11.5203
| 33> H 	 -39.8651 	 -9.35789 	 10.7752
| 34> H 	 -38.6486 	 -10.6974 	 11.0213
| 35> C 	 -38.1903 	 -8.74991 	 11.883
| 36> H 	 -37.4449 	 -9.10255 	 12.684
| 37> H 	 -38.7343 	 -7.92077 	 12.3568
| 38> H 	 -37.6493 	 -8.3048 	 11.0401
| 39> H 	 -39.4424 	 -11.4687 	 19.1758
| 40> H 	 -43.2242 	 -7.20161 	 13.4356
| 41> *
| 42>
| 43>                          ****END OF INPUT****

CARTESIAN COORDINATES (ANGSTROEM)
---------------------------------
  S    -39.995500   -9.525880   17.728300
  C    -39.507100  -11.113400   18.182900
  C    -39.650000  -12.005000   17.144300
  C    -40.241300  -11.390400   15.961500
  C    -40.108800  -10.039300   16.035400
  H    -40.668100  -11.861700   15.046700
  C    -39.599000  -13.555500   17.336600
  H    -40.562400  -14.005500   16.976200
  H    -39.780700  -13.850300   18.372000
  C    -38.251700  -14.195800   16.930600
  H    -38.332200  -15.289400   17.007400
  H    -37.957400  -13.946700   15.926700
  C    -37.063800  -13.656900   17.672700
  H    -37.134800  -13.860200   18.770700
  H    -36.204100  -14.265500   17.199600
  H    -36.957100  -12.616700   17.376500
  S    -41.820400   -7.939370   15.418400
  C    -42.365000   -7.741340   13.724600
  C    -41.609000   -8.494900   12.919000
  C    -40.588300   -9.256540   13.623900
  C    -40.650600   -9.162050   14.998700
  H    -41.682400   -8.545870   11.865900
  C    -39.868700  -10.297900   12.808000
  H    -40.646100  -11.114000   12.696000
  H    -39.081400  -10.599600   13.410400
  C    -39.217100   -9.859770   11.520300
  H    -39.865100   -9.357890   10.775200
  H    -38.648600  -10.697400   11.021300
  C    -38.190300   -8.749910   11.883000
  H    -37.444900   -9.102550   12.684000
  H    -38.734300   -7.920770   12.356800
  H    -37.649300   -8.304800   11.040100
  H    -39.442400  -11.468700   19.175800
  H    -43.224200   -7.201610   13.435600

 Total Charge           Charge          ....    0
 Multiplicity           Mult            ....    1
 Number of Electrons    NEL             ....  134
 Basis Dimension        Dim             ....  322

ORBITAL ENERGIES
----------------

  NO   OCC          E(Eh)            E(eV)
   0   2.0000     -88.967410     -2420.9263
   1   2.0000     -88.959723     -2420.7171
   2   2.0000     -10.330705      -281.1128
   3   2.0000     -10.326709      -281.0040
   4   2.0000     -10.316819      -280.7349
   5   2.0000     -10.312709      -280.6231
   6   2.0000     -10.307263      -280.4749
   7   2.0000     -10.302721      -280.3513
   8   2.0000     -10.300650      -280.2949
   9   2.0000     -10.297980      -280.2223
  10   2.0000     -10.294841      -280.1369
  11   2.0000     -10.289606      -279.9944
  12   2.0000     -10.289285      -279.9857
  13   2.0000     -10.283455      -279.8270
  14   2.0000     -10.281829      -279.7828
  15   2.0000     -10.280337      -279.7422
  16   2.0000      -8.082474      -219.9353
  17   2.0000      -8.074619      -219.7215
  18   2.0000      -6.041069      -164.3858
  19   2.0000      -6.037263      -164.2823
  20   2.0000      -6.033344      -164.1756
  21   2.0000      -6.032787      -164.1605
  22   2.0000      -6.029204      -164.0630
  23   2.0000      -6.025017      -163.9490
  24   2.0000      -1.011404       -27.5217
  25   2.0000      -0.987297       -26.8657
  26   2.0000      -0.915347       -24.9079
  27   2.0000      -0.909813       -24.7573
  28   2.0000      -0.877731       -23.8843
  29   2.0000      -0.850802       -23.1515
  30   2.0000      -0.838228       -22.8093
  31   2.0000      -0.821169       -22.3451
  32   2.0000      -0.778483       -21.1836
  33   2.0000      -0.769774       -20.9466
  34   2.0000      -0.706837       -19.2340
  35   2.0000      -0.698089       -18.9960
  36   2.0000      -0.685834       -18.6625
  37   2.0000      -0.661090       -17.9892
  38   2.0000      -0.645326       -17.5602
  39   2.0000      -0.618382       -16.8270
  40   2.0000      -0.603013       -16.4088
  41   2.0000      -0.574895       -15.6437
  42   2.0000      -0.561439       -15.2775
  43   2.0000      -0.551286       -15.0013
  44   2.0000      -0.545112       -14.8333
  45   2.0000      -0.534130       -14.5344
  46   2.0000      -0.521203       -14.1826
  47   2.0000      -0.511462       -13.9176
  48   2.0000      -0.505783       -13.7631
  49   2.0000      -0.495308       -13.4780
  50   2.0000      -0.490780       -13.3548
  51   2.0000      -0.473593       -12.8871
  52   2.0000      -0.468266       -12.7422
  53   2.0000      -0.463724       -12.6186
  54   2.0000      -0.457114       -12.4387
  55   2.0000      -0.452107       -12.3025
  56   2.0000      -0.440172       -11.9777
  57   2.0000      -0.434339       -11.8190
  58   2.0000      -0.430193       -11.7062
  59   2.0000      -0.425534       -11.5794
  60   2.0000      -0.416582       -11.3358
  61   2.0000      -0.410525       -11.1709
  62   2.0000      -0.406640       -11.0652
  63   2.0000      -0.360131        -9.7997
  64   2.0000      -0.332258        -9.0412
  65   2.0000      -0.321904        -8.7595
  66   2.0000      -0.293307        -7.9813
  67   0.0000       0.023208         0.6315
  68   0.0000       0.075414         2.0521
  69   0.0000       0.090778         2.4702
  70   0.0000       0.117357         3.1934
  71   0.0000       0.128887         3.5072

MULLIKEN ATOMIC CHARGES
-----------------------
   0 S :    0.096368
   1 C :   -0.065514
   2 C :   -0.110847
   3 C :   -0.012095
   4 C :   -0.125106
   5 H :    0.049998
   6 C :    0.039954
   7 H :    0.032763
   8 H :    0.008276
   9 C :   -0.057471
  10 H :    0.033082
  11 H :    0.019247
  12 C :   -0.082487
  13 H :    0.038970
  14 H :    0.042934
  15 H :    0.053131
  16 S :    0.071921
  17 C :   -0.061978
  18 C :    0.003433
  19 C :   -0.126950
  20 C :   -0.111174
  21 H :    0.005235
  22 C :    0.072418
  23 H :    0.059763
  24 H :    0.009907
  25 C :   -0.072685
  26 H :    0.036396
  27 H :    0.047556
  28 C :   -0.108141
  29 H :    0.040553
  30 H :    0.045700
  31 H :    0.039479
  32 H :    0.041878
  33 H :    0.045487
Sum of atomic charges:   -0.0000000

LOEWDIN ATOMIC CHARGES
----------------------
   0 S :    0.399324
   1 C :   -0.191936
   2 C :   -0.064346
   3 C :   -0.049943
   4 C :   -0.185445
   5 H :    0.044017
   6 C :   -0.042609
   7 H :    0.036849
   8 H :    0.024941
   9 C :   -0.047806
  10 H :    0.023586
  11 H :    0.020982
  12 C :   -0.067986
  13 H :    0.023755
  14 H :    0.038118
  15 H :    0.027356
  16 S :    0.372675
  17 C :   -0.154004
  18 C :   -0.063747
  19 C :   -0.063322
  20 C :   -0.196760
  21 H :    0.024945
  22 C :   -0.036952
  23 H :    0.039238
  24 H :    0.021271
  25 C :   -0.045467
  26 H :    0.022861
  27 H :    0.033892
  28 C :   -0.074088
  29 H :    0.031125
  30 H :    0.027134
  31 H :    0.023643
  32 H :    0.024010
  33 H :    0.024687

  Mayer bond orders larger than 0.100000
B(  0-S ,  1-C ) :   1.1388 B(  0-S ,  4-C ) :   1.1307 B(  1-C ,  2-C ) :   1.6241
B(  1-C , 32-H ) :   0.9685 B(  2-C ,  3-C ) :   1.2154 B(  2-C ,  6-C ) :   1.0116
B(  3-C ,  4-C ) :   1.5883 B(  3-C ,  5-H ) :   0.9830 B(  4-C , 20-C ) :   1.0524
B(  6-C ,  7-H ) :   0.9494 B(  6-C ,  8-H ) :   0.9479 B(  6-C ,  9-C ) :   1.0513
B(  9-C , 10-H ) :   0.9581 B(  9-C , 11-H ) :   0.9608 B(  9-C , 12-C ) :   1.0737
B( 12-C , 13-H ) :   0.9753 B( 12-C , 14-H ) :   0.9731 B( 12-C , 15-H ) :   0.9710
B( 16-S , 17-C ) :   1.1280 B( 16-S , 20-C ) :   1.1126 B( 17-C , 18-C ) :   1.6378
B( 17-C , 33-H ) :   0.9752 B( 18-C , 19-C ) :   1.2066 B( 18-C , 21-H ) :   0.9983
B( 19-C , 20-C ) :   1.6382 B( 19-C , 22-C ) :   1.0422 B( 22-C , 23-H ) :   0.9342
B( 22-C , 24-H ) :   0.9254 B( 22-C , 25-C ) :   1.0642 B( 25-C , 26-H ) :   0.9551
B( 25-C , 27-H ) :   0.9558 B( 25-C , 28-C ) :   1.0640 B( 28-C , 29-H ) :   0.9741
B( 28-C , 30-H ) :   0.9706 B( 28-C , 31-H ) :   0.9752

Dispersion correction           -0.014486087
FINAL SINGLE POINT ENERGY     -1339.849713199530

DIPOLE MOMENT
-------------
                                X             Y             Z
Electronic contribution:    -15.57098      18.09269      11.28260
Nuclear contribution   :     15.38486     -18.74966     -11.70247
                        -----------------------------------------
Total Dipole Moment    :     -0.18612      -0.65697      -0.41987
                        -----------------------------------------
Magnitude (a.u.)       :      0.80159
Magnitude (Debye)      :      2.03747

Rotational constants in cm-1:     0.019900     0.008689     0.006757
Rotational constants in MHz :   596.576817   260.501667   202.567915

                             ****ORCA TERMINATED NORMALLY****
TOTAL RUN TIME: 0 days 0 hours 0 minutes 22 seconds 150 msec
