                         Program Version 4.2.1 -  RELEASE  -
|  1> ! wB97X-D3 SP def2-SVP
|  2> %pal
|  3> nprocs 24
|  4> end
|  5>
|  6> * xyz 0 1
|  7> S 	 -104.876 	 42.1198 	 -95.9649
|  8> C 	 -103.504 	 41.2177 	 -95.4938
|  9> C 	 -102.493 	 42.0336 	 -95.0135
| 10> C 	 -102.923 	 43.4115 	 -94.8783
| 11> C 	 -104.126 	 43.6739 	 -95.5
| 12> H 	 -102.367 	 44.1443 	 -94.3952
| 13> C 	 -101.195 	 41.5834 	 -94.4147
| 14> H 	 -101.427 	 40.7049 	 -93.8013
| 15> H 	 -100.967 	 42.3528 	 -93.648
| 16> C 	 -100.138 	 41.3294 	 -95.4767
| 17> H 	 -100.605 	 40.8091 	 -96.3095
| 18> H 	 -99.9149 	 42.3465 	 -95.8213
| 19> C 	 -98.7999 	 40.5931 	 -95.1305
| 20> H 	 -98.2696 	 40.9645 	 -94.2623
| 21> H 	 -98.8664 	 39.5491 	 -95.0389
| 22> H 	 -98.0332 	 40.6845 	 -95.9125
| 23> S 	 -106.445 	 44.6005 	 -94.2947
| 24> C 	 -106.989 	 46.2263 	 -94.6712
| 25> C 	 -106.003 	 46.9355 	 -95.2135
| 26> C 	 -104.801 	 46.2421 	 -95.479
| 27> C 	 -104.982 	 44.8729 	 -95.3339
| 28> H 	 -106.225 	 47.9968 	 -95.3265
| 29> C 	 -103.578 	 46.9037 	 -96.0795
| 30> H 	 -103.012 	 46.1916 	 -96.6929
| 31> H 	 -102.939 	 47.2456 	 -95.3016
| 32> C 	 -103.793 	 48.0832 	 -97.0312
| 33> H 	 -102.861 	 48.5538 	 -97.4589
| 34> H 	 -104.375 	 48.8658 	 -96.5205
| 35> C 	 -104.427 	 47.6807 	 -98.3545
| 36> H 	 -103.508 	 47.441 	 -98.9608
| 37> H 	 -104.913 	 48.5477 	 -98.8041
| 38> H 	 -105.116 	 46.8096 	 -98.3551
| 39> H 	 -103.142 	 40.2212 	 -95.7353
| 40> H 	 -107.943 	 46.7418 	 -94.501
| 41> *
| 42>
| 43>                          ****END OF INPUT****

CARTESIAN COORDINATES (ANGSTROEM)
---------------------------------
  S    -104.876000   42.119800  -95.964900
  C    -103.504000   41.217700  -95.493800
  C    -102.493000   42.033600  -95.013500
  C    -102.923000   43.411500  -94.878300
  C    -104.126000   43.673900  -95.500000
  H    -102.367000   44.144300  -94.395200
  C    -101.195000   41.583400  -94.414700
  H    -101.427000   40.704900  -93.801300
  H    -100.967000   42.352800  -93.648000
  C    -100.138000   41.329400  -95.476700
  H    -100.605000   40.809100  -96.309500
  H    -99.914900   42.346500  -95.821300
  C    -98.799900   40.593100  -95.130500
  H    -98.269600   40.964500  -94.262300
  H    -98.866400   39.549100  -95.038900
  H    -98.033200   40.684500  -95.912500
  S    -106.445000   44.600500  -94.294700
  C    -106.989000   46.226300  -94.671200
  C    -106.003000   46.935500  -95.213500
  C    -104.801000   46.242100  -95.479000
  C    -104.982000   44.872900  -95.333900
  H    -106.225000   47.996800  -95.326500
  C    -103.578000   46.903700  -96.079500
  H    -103.012000   46.191600  -96.692900
  H    -102.939000   47.245600  -95.301600
  C    -103.793000   48.083200  -97.031200
  H    -102.861000   48.553800  -97.458900
  H    -104.375000   48.865800  -96.520500
  C    -104.427000   47.680700  -98.354500
  H    -103.508000   47.441000  -98.960800
  H    -104.913000   48.547700  -98.804100
  H    -105.116000   46.809600  -98.355100
  H    -103.142000   40.221200  -95.735300
  H    -107.943000   46.741800  -94.501000

 Total Charge           Charge          ....    0
 Multiplicity           Mult            ....    1
 Number of Electrons    NEL             ....  134
 Basis Dimension        Dim             ....  322

ORBITAL ENERGIES
----------------

  NO   OCC          E(Eh)            E(eV)
   0   2.0000     -88.969680     -2420.9881
   1   2.0000     -88.960468     -2420.7374
   2   2.0000     -10.333820      -281.1975
   3   2.0000     -10.333095      -281.1778
   4   2.0000     -10.313574      -280.6466
   5   2.0000     -10.310121      -280.5526
   6   2.0000     -10.306354      -280.4501
   7   2.0000     -10.298931      -280.2482
   8   2.0000     -10.294788      -280.1354
   9   2.0000     -10.292934      -280.0850
  10   2.0000     -10.292724      -280.0792
  11   2.0000     -10.290238      -280.0116
  12   2.0000     -10.287876      -279.9473
  13   2.0000     -10.284980      -279.8685
  14   2.0000     -10.278418      -279.6900
  15   2.0000     -10.276971      -279.6506
  16   2.0000      -8.084105      -219.9797
  17   2.0000      -8.074436      -219.7166
  18   2.0000      -6.042789      -164.4326
  19   2.0000      -6.038510      -164.3162
  20   2.0000      -6.034804      -164.2154
  21   2.0000      -6.033156      -164.1705
  22   2.0000      -6.029301      -164.0656
  23   2.0000      -6.024729      -163.9412
  24   2.0000      -1.005841       -27.3703
  25   2.0000      -0.986657       -26.8483
  26   2.0000      -0.912938       -24.8423
  27   2.0000      -0.910197       -24.7677
  28   2.0000      -0.870322       -23.6827
  29   2.0000      -0.850926       -23.1549
  30   2.0000      -0.844091       -22.9689
  31   2.0000      -0.819811       -22.3082
  32   2.0000      -0.784663       -21.3518
  33   2.0000      -0.775070       -21.0907
  34   2.0000      -0.708625       -19.2827
  35   2.0000      -0.707909       -19.2632
  36   2.0000      -0.686674       -18.6854
  37   2.0000      -0.652040       -17.7429
  38   2.0000      -0.638713       -17.3803
  39   2.0000      -0.618956       -16.8427
  40   2.0000      -0.596607       -16.2345
  41   2.0000      -0.573724       -15.6118
  42   2.0000      -0.559494       -15.2246
  43   2.0000      -0.557727       -15.1765
  44   2.0000      -0.546117       -14.8606
  45   2.0000      -0.525190       -14.2911
  46   2.0000      -0.516308       -14.0494
  47   2.0000      -0.510132       -13.8814
  48   2.0000      -0.505072       -13.7437
  49   2.0000      -0.503940       -13.7129
  50   2.0000      -0.488081       -13.2814
  51   2.0000      -0.480352       -13.0710
  52   2.0000      -0.470420       -12.8008
  53   2.0000      -0.465882       -12.6773
  54   2.0000      -0.459002       -12.4901
  55   2.0000      -0.445193       -12.1143
  56   2.0000      -0.436966       -11.8904
  57   2.0000      -0.435269       -11.8443
  58   2.0000      -0.430650       -11.7186
  59   2.0000      -0.424547       -11.5525
  60   2.0000      -0.419066       -11.4034
  61   2.0000      -0.416335       -11.3290
  62   2.0000      -0.407392       -11.0857
  63   2.0000      -0.350262        -9.5311
  64   2.0000      -0.330197        -8.9851
  65   2.0000      -0.323806        -8.8112
  66   2.0000      -0.297685        -8.1004
  67   0.0000       0.024933         0.6785
  68   0.0000       0.062906         1.7118
  69   0.0000       0.108925         2.9640
  70   0.0000       0.120800         3.2871
  71   0.0000       0.129812         3.5324

MULLIKEN ATOMIC CHARGES
-----------------------
   0 S :    0.118213
   1 C :   -0.068617
   2 C :   -0.170987
   3 C :    0.066750
   4 C :   -0.150378
   5 H :   -0.006156
   6 C :    0.060552
   7 H :    0.026461
   8 H :    0.026018
   9 C :   -0.060108
  10 H :    0.030261
  11 H :    0.025760
  12 C :   -0.022105
  13 H :    0.025871
  14 H :    0.021036
  15 H :    0.026046
  16 S :    0.086349
  17 C :   -0.069021
  18 C :   -0.058864
  19 C :   -0.011929
  20 C :   -0.160084
  21 H :    0.017905
  22 C :    0.102573
  23 H :    0.024014
  24 H :    0.031426
  25 C :   -0.117589
  26 H :    0.036891
  27 H :    0.029613
  28 C :   -0.081792
  29 H :    0.032745
  30 H :    0.036292
  31 H :    0.052741
  32 H :    0.047630
  33 H :    0.052481
Sum of atomic charges:   -0.0000000

LOEWDIN ATOMIC CHARGES
----------------------
   0 S :    0.419207
   1 C :   -0.211738
   2 C :   -0.066028
   3 C :   -0.041175
   4 C :   -0.193702
   5 H :    0.020536
   6 C :   -0.039156
   7 H :    0.029542
   8 H :    0.033544
   9 C :   -0.039276
  10 H :    0.025420
  11 H :    0.028754
  12 C :   -0.069131
  13 H :    0.024747
  14 H :    0.017846
  15 H :    0.031363
  16 S :    0.367465
  17 C :   -0.183118
  18 C :   -0.082098
  19 C :   -0.054634
  20 C :   -0.169786
  21 H :    0.034320
  22 C :   -0.030077
  23 H :    0.033276
  24 H :    0.030358
  25 C :   -0.051562
  26 H :    0.034786
  27 H :    0.015071
  28 C :   -0.073553
  29 H :    0.030237
  30 H :    0.026657
  31 H :    0.027073
  32 H :    0.036161
  33 H :    0.038673

  Mayer bond orders larger than 0.100000
B(  0-S ,  1-C ) :   1.1525 B(  0-S ,  4-C ) :   1.1432 B(  1-C ,  2-C ) :   1.6168
B(  1-C , 32-H ) :   0.9513 B(  2-C ,  3-C ) :   1.2541 B(  2-C ,  6-C ) :   1.0179
B(  3-C ,  4-C ) :   1.5621 B(  3-C ,  5-H ) :   0.9973 B(  4-C , 20-C ) :   1.0220
B(  6-C ,  7-H ) :   0.9449 B(  6-C ,  8-H ) :   0.9438 B(  6-C ,  9-C ) :   1.0420
B(  9-C , 10-H ) :   0.9624 B(  9-C , 11-H ) :   0.9541 B(  9-C , 12-C ) :   1.0743
B( 12-C , 13-H ) :   0.9751 B( 12-C , 14-H ) :   0.9760 B( 12-C , 15-H ) :   0.9734
B( 16-S , 17-C ) :   1.1177 B( 16-S , 20-C ) :   1.1262 B( 17-C , 18-C ) :   1.6841
B( 17-C , 33-H ) :   0.9566 B( 18-C , 19-C ) :   1.1948 B( 18-C , 21-H ) :   0.9857
B( 19-C , 20-C ) :   1.6210 B( 19-C , 22-C ) :   1.0395 B( 22-C , 23-H ) :   0.9406
B( 22-C , 24-H ) :   0.9193 B( 22-C , 25-C ) :   1.0836 B( 25-C , 26-H ) :   0.9640
B( 25-C , 27-H ) :   0.9533 B( 25-C , 28-C ) :   1.0512 B( 28-C , 29-H ) :   0.9848
B( 28-C , 30-H ) :   0.9747 B( 28-C , 31-H ) :   0.9787

Dispersion correction           -0.013671768
FINAL SINGLE POINT ENERGY     -1339.851587226620

DIPOLE MOMENT
-------------
                                X             Y             Z
Electronic contribution:    -23.87994      -5.75555       7.63655
Nuclear contribution   :     24.54446       6.04219      -7.58191
                        -----------------------------------------
Total Dipole Moment    :      0.66451       0.28663       0.05464
                        -----------------------------------------
Magnitude (a.u.)       :      0.72575
Magnitude (Debye)      :      1.84472

Rotational constants in cm-1:     0.020771     0.007358     0.006079
Rotational constants in MHz :   622.697110   220.585516   182.247181

                             ****ORCA TERMINATED NORMALLY****
TOTAL RUN TIME: 0 days 0 hours 0 minutes 21 seconds 124 msec
