                         Program Version 4.2.1 -  RELEASE  -
|  1> ! wB97X-D3 SP def2-SVP
|  2> %pal
|  3> nprocs 24
|  4> end
|  5>
|  6> * xyz 0 1
|  7> S 	 -48.3917 	 15.405 	 23.4848
|  8> C 	 -49.6611 	 15.0901 	 24.6951
|  9> C 	 -50.2597 	 13.8406 	 24.4843
| 10> C 	 -49.7402 	 13.2342 	 23.3051
| 11> C 	 -48.6522 	 13.9196 	 22.761
| 12> H 	 -50.1413 	 12.3494 	 22.9017
| 13> C 	 -51.2958 	 13.2624 	 25.3384
| 14> H 	 -52.0476 	 12.6704 	 24.8637
| 15> H 	 -51.7873 	 14.1929 	 25.8386
| 16> C 	 -50.5903 	 12.4319 	 26.4264
| 17> H 	 -49.6796 	 12.9367 	 26.7421
| 18> H 	 -51.2143 	 12.3867 	 27.3427
| 19> C 	 -50.2633 	 11.0183 	 25.9811
| 20> H 	 -50.3646 	 10.3451 	 26.7745
| 21> H 	 -50.9621 	 10.6819 	 25.2146
| 22> H 	 -49.2971 	 10.952 	 25.4775
| 23> S 	 -47.0208 	 12.1265 	 21.4325
| 24> C 	 -46.7667 	 12.3923 	 19.7817
| 25> C 	 -47.3943 	 13.4952 	 19.2906
| 26> C 	 -48.2394 	 14.2014 	 20.2162
| 27> C 	 -48.0484 	 13.5903 	 21.4571
| 28> H 	 -47.2909 	 13.7772 	 18.2081
| 29> C 	 -48.9887 	 15.5231 	 19.9003
| 30> H 	 -49.4872 	 15.7982 	 20.8078
| 31> H 	 -49.7237 	 15.3294 	 19.0609
| 32> C 	 -48.1461 	 16.632 	 19.3674
| 33> H 	 -47.6247 	 16.3611 	 18.4831
| 34> H 	 -47.4194 	 16.6597 	 20.2159
| 35> C 	 -48.8662 	 18.0037 	 19.092
| 36> H 	 -48.1591 	 18.8486 	 19.0142
| 37> H 	 -49.5902 	 18.2836 	 19.8194
| 38> H 	 -49.499 	 18.0127 	 18.1943
| 39> H 	 -49.8097 	 15.6747 	 25.6553
| 40> H 	 -45.998 	 11.8384 	 19.2234
| 41> *
| 42>
| 43>                          ****END OF INPUT****

CARTESIAN COORDINATES (ANGSTROEM)
---------------------------------
  S    -48.391700   15.405000   23.484800
  C    -49.661100   15.090100   24.695100
  C    -50.259700   13.840600   24.484300
  C    -49.740200   13.234200   23.305100
  C    -48.652200   13.919600   22.761000
  H    -50.141300   12.349400   22.901700
  C    -51.295800   13.262400   25.338400
  H    -52.047600   12.670400   24.863700
  H    -51.787300   14.192900   25.838600
  C    -50.590300   12.431900   26.426400
  H    -49.679600   12.936700   26.742100
  H    -51.214300   12.386700   27.342700
  C    -50.263300   11.018300   25.981100
  H    -50.364600   10.345100   26.774500
  H    -50.962100   10.681900   25.214600
  H    -49.297100   10.952000   25.477500
  S    -47.020800   12.126500   21.432500
  C    -46.766700   12.392300   19.781700
  C    -47.394300   13.495200   19.290600
  C    -48.239400   14.201400   20.216200
  C    -48.048400   13.590300   21.457100
  H    -47.290900   13.777200   18.208100
  C    -48.988700   15.523100   19.900300
  H    -49.487200   15.798200   20.807800
  H    -49.723700   15.329400   19.060900
  C    -48.146100   16.632000   19.367400
  H    -47.624700   16.361100   18.483100
  H    -47.419400   16.659700   20.215900
  C    -48.866200   18.003700   19.092000
  H    -48.159100   18.848600   19.014200
  H    -49.590200   18.283600   19.819400
  H    -49.499000   18.012700   18.194300
  H    -49.809700   15.674700   25.655300
  H    -45.998000   11.838400   19.223400

 Total Charge           Charge          ....    0
 Multiplicity           Mult            ....    1
 Number of Electrons    NEL             ....  134
 Basis Dimension        Dim             ....  322

ORBITAL ENERGIES
----------------

  NO   OCC          E(Eh)            E(eV)
   0   2.0000     -88.970317     -2421.0054
   1   2.0000     -88.965717     -2420.8802
   2   2.0000     -10.328182      -281.0441
   3   2.0000     -10.322232      -280.8822
   4   2.0000     -10.317301      -280.7480
   5   2.0000     -10.310609      -280.5659
   6   2.0000     -10.307575      -280.4834
   7   2.0000     -10.299173      -280.2547
   8   2.0000     -10.294883      -280.1380
   9   2.0000     -10.294020      -280.1145
  10   2.0000     -10.293246      -280.0935
  11   2.0000     -10.287480      -279.9366
  12   2.0000     -10.286322      -279.9050
  13   2.0000     -10.284670      -279.8601
  14   2.0000     -10.280887      -279.7572
  15   2.0000     -10.269863      -279.4572
  16   2.0000      -8.085241      -220.0106
  17   2.0000      -8.081206      -219.9008
  18   2.0000      -6.043599      -164.4547
  19   2.0000      -6.039600      -164.3459
  20   2.0000      -6.039505      -164.3433
  21   2.0000      -6.036276      -164.2554
  22   2.0000      -6.035768      -164.2416
  23   2.0000      -6.031984      -164.1386
  24   2.0000      -1.009429       -27.4679
  25   2.0000      -0.987247       -26.8644
  26   2.0000      -0.921489       -25.0750
  27   2.0000      -0.911307       -24.7979
  28   2.0000      -0.864292       -23.5186
  29   2.0000      -0.848584       -23.0911
  30   2.0000      -0.846901       -23.0454
  31   2.0000      -0.808672       -22.0051
  32   2.0000      -0.788811       -21.4646
  33   2.0000      -0.772449       -21.0194
  34   2.0000      -0.702660       -19.1204
  35   2.0000      -0.701290       -19.0831
  36   2.0000      -0.690453       -18.7882
  37   2.0000      -0.651708       -17.7339
  38   2.0000      -0.637685       -17.3523
  39   2.0000      -0.615963       -16.7612
  40   2.0000      -0.599614       -16.3163
  41   2.0000      -0.573786       -15.6135
  42   2.0000      -0.569232       -15.4896
  43   2.0000      -0.555405       -15.1133
  44   2.0000      -0.533574       -14.5193
  45   2.0000      -0.523088       -14.2339
  46   2.0000      -0.513365       -13.9694
  47   2.0000      -0.507799       -13.8179
  48   2.0000      -0.501754       -13.6534
  49   2.0000      -0.497967       -13.5504
  50   2.0000      -0.491765       -13.3816
  51   2.0000      -0.473485       -12.8842
  52   2.0000      -0.468865       -12.7585
  53   2.0000      -0.465934       -12.6787
  54   2.0000      -0.458921       -12.4879
  55   2.0000      -0.452431       -12.3113
  56   2.0000      -0.446132       -12.1399
  57   2.0000      -0.439389       -11.9564
  58   2.0000      -0.433002       -11.7826
  59   2.0000      -0.430192       -11.7061
  60   2.0000      -0.422340       -11.4925
  61   2.0000      -0.414570       -11.2810
  62   2.0000      -0.408447       -11.1144
  63   2.0000      -0.337292        -9.1782
  64   2.0000      -0.330458        -8.9922
  65   2.0000      -0.328492        -8.9387
  66   2.0000      -0.297683        -8.1004
  67   0.0000       0.041479         1.1287
  68   0.0000       0.062858         1.7105
  69   0.0000       0.106915         2.9093
  70   0.0000       0.116697         3.1755
  71   0.0000       0.128695         3.5020

MULLIKEN ATOMIC CHARGES
-----------------------
   0 S :    0.121043
   1 C :   -0.152333
   2 C :   -0.092094
   3 C :    0.062302
   4 C :   -0.157282
   5 H :   -0.010921
   6 C :    0.041071
   7 H :    0.029684
   8 H :    0.037728
   9 C :   -0.081225
  10 H :    0.028676
  11 H :    0.029802
  12 C :   -0.015745
  13 H :    0.025505
  14 H :    0.011076
  15 H :    0.041265
  16 S :    0.119466
  17 C :   -0.087584
  18 C :   -0.061103
  19 C :   -0.004900
  20 C :   -0.217225
  21 H :    0.031727
  22 C :    0.086095
  23 H :    0.026890
  24 H :    0.030205
  25 C :   -0.083294
  26 H :    0.027780
  27 H :    0.030862
  28 C :   -0.038179
  29 H :    0.043412
  30 H :    0.018905
  31 H :    0.027263
  32 H :    0.067903
  33 H :    0.063224
Sum of atomic charges:   -0.0000000

LOEWDIN ATOMIC CHARGES
----------------------
   0 S :    0.441424
   1 C :   -0.215846
   2 C :   -0.057828
   3 C :   -0.059835
   4 C :   -0.227807
   5 H :    0.021400
   6 C :   -0.033831
   7 H :    0.025851
   8 H :    0.043351
   9 C :   -0.039149
  10 H :    0.025265
  11 H :    0.024317
  12 C :   -0.062231
  13 H :    0.020546
  14 H :    0.022090
  15 H :    0.030040
  16 S :    0.414286
  17 C :   -0.209130
  18 C :   -0.079801
  19 C :   -0.049930
  20 C :   -0.188311
  21 H :    0.036195
  22 C :   -0.028670
  23 H :    0.022097
  24 H :    0.034833
  25 C :   -0.042339
  26 H :    0.018390
  27 H :    0.029061
  28 C :   -0.066981
  29 H :    0.032676
  30 H :    0.020780
  31 H :    0.027146
  32 H :    0.038781
  33 H :    0.033159

  Mayer bond orders larger than 0.100000
B(  0-S ,  1-C ) :   1.1388 B(  0-S ,  4-C ) :   1.1933 B(  1-C ,  2-C ) :   1.5866
B(  1-C ,  4-C ) :   0.1019 B(  1-C , 32-H ) :   0.9536 B(  2-C ,  3-C ) :   1.2729
B(  2-C ,  6-C ) :   1.0370 B(  3-C ,  4-C ) :   1.5336 B(  3-C ,  5-H ) :   1.0015
B(  4-C , 20-C ) :   0.9796 B(  6-C ,  7-H ) :   0.9492 B(  6-C ,  8-H ) :   0.9359
B(  6-C ,  9-C ) :   1.0621 B(  9-C , 10-H ) :   0.9550 B(  9-C , 11-H ) :   0.9591
B(  9-C , 12-C ) :   1.0729 B( 12-C , 13-H ) :   0.9745 B( 12-C , 14-H ) :   0.9745
B( 12-C , 15-H ) :   0.9712 B( 16-S , 17-C ) :   1.1487 B( 16-S , 20-C ) :   1.1574
B( 17-C , 18-C ) :   1.6436 B( 17-C , 33-H ) :   0.9604 B( 18-C , 19-C ) :   1.2125
B( 18-C , 21-H ) :   0.9772 B( 19-C , 20-C ) :   1.6093 B( 19-C , 22-C ) :   1.0471
B( 22-C , 23-H ) :   0.9341 B( 22-C , 24-H ) :   0.9260 B( 22-C , 25-C ) :   1.0619
B( 25-C , 26-H ) :   0.9544 B( 25-C , 27-H ) :   0.9567 B( 25-C , 28-C ) :   1.0722
B( 28-C , 29-H ) :   0.9769 B( 28-C , 30-H ) :   0.9762 B( 28-C , 31-H ) :   0.9732

Dispersion correction           -0.014643112
FINAL SINGLE POINT ENERGY     -1339.870608260282

DIPOLE MOMENT
-------------
                                X             Y             Z
Electronic contribution:     11.65352      -4.93094      -1.53465
Nuclear contribution   :    -11.96027       4.94842       1.51249
                        -----------------------------------------
Total Dipole Moment    :     -0.30674       0.01747      -0.02215
                        -----------------------------------------
Magnitude (a.u.)       :      0.30804
Magnitude (Debye)      :      0.78297

Rotational constants in cm-1:     0.020509     0.008544     0.006589
Rotational constants in MHz :   614.837396   256.138745   197.529686

                             ****ORCA TERMINATED NORMALLY****
TOTAL RUN TIME: 0 days 0 hours 0 minutes 21 seconds 379 msec
