                         Program Version 4.2.1 -  RELEASE  -
|  1> ! wB97X-D3 SP def2-SVP
|  2> %pal
|  3> nprocs 24
|  4> end
|  5>
|  6> * xyz 0 1
|  7> S 	 -62.5176 	 -44.9174 	 -82.6491
|  8> C 	 -61.9532 	 -45.7124 	 -84.0625
|  9> C 	 -62.3303 	 -47.0096 	 -84.1693
| 10> C 	 -63.242 	 -47.3657 	 -83.1079
| 11> C 	 -63.4629 	 -46.3309 	 -82.2079
| 12> H 	 -63.7363 	 -48.3158 	 -82.9067
| 13> C 	 -61.8194 	 -47.9645 	 -85.2476
| 14> H 	 -61.9578 	 -48.948 	 -84.8062
| 15> H 	 -60.7792 	 -47.7502 	 -85.3195
| 16> C 	 -62.3868 	 -47.9432 	 -86.6571
| 17> H 	 -63.4889 	 -48.0948 	 -86.5717
| 18> H 	 -62.1927 	 -46.9079 	 -87.072
| 19> C 	 -61.773 	 -49.1027 	 -87.4938
| 20> H 	 -60.8756 	 -49.4684 	 -87.1387
| 21> H 	 -62.5032 	 -49.91 	 -87.4756
| 22> H 	 -61.7344 	 -48.7022 	 -88.5048
| 23> S 	 -63.4699 	 -45.8827 	 -79.466
| 24> C 	 -64.9309 	 -46.0985 	 -78.5874
| 25> C 	 -65.8781 	 -46.7272 	 -79.3366
| 26> C 	 -65.616 	 -46.792 	 -80.736
| 27> C 	 -64.2303 	 -46.4065 	 -80.9581
| 28> H 	 -66.8373 	 -46.995 	 -78.8489
| 29> C 	 -66.5227 	 -47.492 	 -81.7045
| 30> H 	 -67.0851 	 -48.1481 	 -81.0848
| 31> H 	 -65.9413 	 -48.1221 	 -82.4545
| 32> C 	 -67.4232 	 -46.5393 	 -82.5075
| 33> H 	 -67.885 	 -45.8854 	 -81.7867
| 34> H 	 -68.1923 	 -47.0594 	 -83.1143
| 35> C 	 -66.6308 	 -45.6092 	 -83.5283
| 36> H 	 -65.7201 	 -45.2469 	 -83.0537
| 37> H 	 -67.3549 	 -44.7423 	 -83.6985
| 38> H 	 -66.3581 	 -46.0779 	 -84.476
| 39> H 	 -61.3996 	 -45.2337 	 -84.8478
| 40> H 	 -65.1228 	 -45.8738 	 -77.5826
| 41> *
| 42>
| 43>                          ****END OF INPUT****

CARTESIAN COORDINATES (ANGSTROEM)
---------------------------------
  S    -62.517600  -44.917400  -82.649100
  C    -61.953200  -45.712400  -84.062500
  C    -62.330300  -47.009600  -84.169300
  C    -63.242000  -47.365700  -83.107900
  C    -63.462900  -46.330900  -82.207900
  H    -63.736300  -48.315800  -82.906700
  C    -61.819400  -47.964500  -85.247600
  H    -61.957800  -48.948000  -84.806200
  H    -60.779200  -47.750200  -85.319500
  C    -62.386800  -47.943200  -86.657100
  H    -63.488900  -48.094800  -86.571700
  H    -62.192700  -46.907900  -87.072000
  C    -61.773000  -49.102700  -87.493800
  H    -60.875600  -49.468400  -87.138700
  H    -62.503200  -49.910000  -87.475600
  H    -61.734400  -48.702200  -88.504800
  S    -63.469900  -45.882700  -79.466000
  C    -64.930900  -46.098500  -78.587400
  C    -65.878100  -46.727200  -79.336600
  C    -65.616000  -46.792000  -80.736000
  C    -64.230300  -46.406500  -80.958100
  H    -66.837300  -46.995000  -78.848900
  C    -66.522700  -47.492000  -81.704500
  H    -67.085100  -48.148100  -81.084800
  H    -65.941300  -48.122100  -82.454500
  C    -67.423200  -46.539300  -82.507500
  H    -67.885000  -45.885400  -81.786700
  H    -68.192300  -47.059400  -83.114300
  C    -66.630800  -45.609200  -83.528300
  H    -65.720100  -45.246900  -83.053700
  H    -67.354900  -44.742300  -83.698500
  H    -66.358100  -46.077900  -84.476000
  H    -61.399600  -45.233700  -84.847800
  H    -65.122800  -45.873800  -77.582600

 Total Charge           Charge          ....    0
 Multiplicity           Mult            ....    1
 Number of Electrons    NEL             ....  134
 Basis Dimension        Dim             ....  322

ORBITAL ENERGIES
----------------

  NO   OCC          E(Eh)            E(eV)
   0   2.0000     -88.969065     -2420.9713
   1   2.0000     -88.967502     -2420.9288
   2   2.0000     -10.332315      -281.1566
   3   2.0000     -10.329364      -281.0763
   4   2.0000     -10.307722      -280.4874
   5   2.0000     -10.307352      -280.4773
   6   2.0000     -10.307262      -280.4748
   7   2.0000     -10.299182      -280.2550
   8   2.0000     -10.297011      -280.1959
   9   2.0000     -10.294468      -280.1267
  10   2.0000     -10.292806      -280.0815
  11   2.0000     -10.291992      -280.0593
  12   2.0000     -10.288110      -279.9537
  13   2.0000     -10.286014      -279.8967
  14   2.0000     -10.276697      -279.6431
  15   2.0000     -10.275027      -279.5977
  16   2.0000      -8.083903      -219.9742
  17   2.0000      -8.082468      -219.9351
  18   2.0000      -6.042283      -164.4189
  19   2.0000      -6.040870      -164.3804
  20   2.0000      -6.038352      -164.3119
  21   2.0000      -6.036973      -164.2744
  22   2.0000      -6.034848      -164.2166
  23   2.0000      -6.033291      -164.1742
  24   2.0000      -1.006702       -27.3938
  25   2.0000      -0.986819       -26.8527
  26   2.0000      -0.913001       -24.8440
  27   2.0000      -0.905647       -24.6439
  28   2.0000      -0.870231       -23.6802
  29   2.0000      -0.850107       -23.1326
  30   2.0000      -0.841631       -22.9019
  31   2.0000      -0.813923       -22.1480
  32   2.0000      -0.783435       -21.3183
  33   2.0000      -0.769542       -20.9403
  34   2.0000      -0.704444       -19.1689
  35   2.0000      -0.700645       -19.0655
  36   2.0000      -0.687986       -18.7210
  37   2.0000      -0.655050       -17.8248
  38   2.0000      -0.641212       -17.4483
  39   2.0000      -0.617722       -16.8091
  40   2.0000      -0.594930       -16.1889
  41   2.0000      -0.571966       -15.5640
  42   2.0000      -0.563520       -15.3342
  43   2.0000      -0.548186       -14.9169
  44   2.0000      -0.538657       -14.6576
  45   2.0000      -0.531240       -14.4558
  46   2.0000      -0.514622       -14.0036
  47   2.0000      -0.507393       -13.8069
  48   2.0000      -0.499535       -13.5930
  49   2.0000      -0.498137       -13.5550
  50   2.0000      -0.492739       -13.4081
  51   2.0000      -0.474168       -12.9028
  52   2.0000      -0.471517       -12.8306
  53   2.0000      -0.469855       -12.7854
  54   2.0000      -0.463266       -12.6061
  55   2.0000      -0.448522       -12.2049
  56   2.0000      -0.443183       -12.0596
  57   2.0000      -0.434905       -11.8344
  58   2.0000      -0.430663       -11.7189
  59   2.0000      -0.422311       -11.4917
  60   2.0000      -0.420452       -11.4411
  61   2.0000      -0.419189       -11.4067
  62   2.0000      -0.408892       -11.1265
  63   2.0000      -0.346298        -9.4233
  64   2.0000      -0.332657        -9.0521
  65   2.0000      -0.330672        -8.9980
  66   2.0000      -0.288371        -7.8470
  67   0.0000       0.028158         0.7662
  68   0.0000       0.070418         1.9162
  69   0.0000       0.108956         2.9649
  70   0.0000       0.121974         3.3191
  71   0.0000       0.129433         3.5221

MULLIKEN ATOMIC CHARGES
-----------------------
   0 S :    0.125524
   1 C :   -0.116751
   2 C :   -0.077671
   3 C :    0.028162
   4 C :   -0.177920
   5 H :    0.018323
   6 C :    0.058469
   7 H :    0.017928
   8 H :    0.023809
   9 C :   -0.103468
  10 H :    0.036925
  11 H :    0.035536
  12 C :   -0.003507
  13 H :    0.022425
  14 H :    0.031031
  15 H :    0.039530
  16 S :    0.125560
  17 C :   -0.069355
  18 C :   -0.051471
  19 C :   -0.042155
  20 C :   -0.173984
  21 H :    0.028384
  22 C :    0.071946
  23 H :    0.015608
  24 H :    0.031807
  25 C :   -0.071858
  26 H :    0.023493
  27 H :    0.036120
  28 C :   -0.076712
  29 H :    0.042767
  30 H :    0.041193
  31 H :    0.037871
  32 H :    0.038580
  33 H :    0.033861
Sum of atomic charges:   -0.0000000

LOEWDIN ATOMIC CHARGES
----------------------
   0 S :    0.415945
   1 C :   -0.200702
   2 C :   -0.064770
   3 C :   -0.058794
   4 C :   -0.200219
   5 H :    0.031622
   6 C :   -0.034562
   7 H :    0.028755
   8 H :    0.027405
   9 C :   -0.041670
  10 H :    0.027059
  11 H :    0.024805
  12 C :   -0.053901
  13 H :    0.013448
  14 H :    0.029606
  15 H :    0.032588
  16 S :    0.425398
  17 C :   -0.195444
  18 C :   -0.076576
  19 C :   -0.055071
  20 C :   -0.201063
  21 H :    0.035323
  22 C :   -0.034966
  23 H :    0.026743
  24 H :    0.034673
  25 C :   -0.037416
  26 H :    0.019776
  27 H :    0.025255
  28 C :   -0.068790
  29 H :    0.022462
  30 H :    0.033750
  31 H :    0.022151
  32 H :    0.025304
  33 H :    0.021877

  Mayer bond orders larger than 0.100000
B(  0-S ,  1-C ) :   1.1401 B(  0-S ,  4-C ) :   1.1449 B(  1-C ,  2-C ) :   1.6329
B(  1-C , 32-H ) :   0.9664 B(  2-C ,  3-C ) :   1.2316 B(  2-C ,  6-C ) :   1.0047
B(  3-C ,  4-C ) :   1.5784 B(  3-C ,  5-H ) :   0.9893 B(  4-C , 20-C ) :   1.0482
B(  6-C ,  7-H ) :   0.9422 B(  6-C ,  8-H ) :   0.9367 B(  6-C ,  9-C ) :   1.0735
B(  9-C , 10-H ) :   0.9597 B(  9-C , 11-H ) :   0.9604 B(  9-C , 12-C ) :   1.0570
B( 12-C , 13-H ) :   0.9791 B( 12-C , 14-H ) :   0.9773 B( 12-C , 15-H ) :   0.9761
B( 16-S , 17-C ) :   1.1563 B( 16-S , 20-C ) :   1.1696 B( 17-C , 18-C ) :   1.6111
B( 17-C , 20-C ) :   0.1025 B( 17-C , 33-H ) :   0.9695 B( 18-C , 19-C ) :   1.2758
B( 18-C , 21-H ) :   0.9733 B( 19-C , 20-C ) :   1.5231 B( 19-C , 22-C ) :   1.0259
B( 22-C , 23-H ) :   0.9349 B( 22-C , 24-H ) :   0.9437 B( 22-C , 25-C ) :   1.0653
B( 25-C , 26-H ) :   0.9589 B( 25-C , 27-H ) :   0.9578 B( 25-C , 28-C ) :   1.0671
B( 28-C , 29-H ) :   0.9736 B( 28-C , 30-H ) :   0.9763 B( 28-C , 31-H ) :   0.9775

Dispersion correction           -0.014883742
FINAL SINGLE POINT ENERGY     -1339.878034249144

DIPOLE MOMENT
-------------
                                X             Y             Z
Electronic contribution:      8.67151      12.03364      24.07186
Nuclear contribution   :     -8.85516     -12.49028     -24.42509
                        -----------------------------------------
Total Dipole Moment    :     -0.18365      -0.45664      -0.35322
                        -----------------------------------------
Magnitude (a.u.)       :      0.60582
Magnitude (Debye)      :      1.53987

Rotational constants in cm-1:     0.021868     0.007997     0.006794
Rotational constants in MHz :   655.586856   239.745722   203.671472

                             ****ORCA TERMINATED NORMALLY****
TOTAL RUN TIME: 0 days 0 hours 0 minutes 22 seconds 128 msec
