                         Program Version 4.2.1 -  RELEASE  -
|  1> ! wB97X-D3 SP def2-SVP
|  2> %pal
|  3> nprocs 24
|  4> end
|  5>
|  6> * xyz 0 1
|  7> S 	 -108.986 	 14.3218 	 -124.549
|  8> C 	 -109.653 	 13.1177 	 -123.487
|  9> C 	 -110.782 	 13.645 	 -122.806
| 10> C 	 -111.002 	 15.0323 	 -123.103
| 11> C 	 -110.146 	 15.5616 	 -124.055
| 12> H 	 -111.779 	 15.6439 	 -122.699
| 13> C 	 -111.74 	 12.793 	 -121.947
| 14> H 	 -112.415 	 13.4198 	 -121.418
| 15> H 	 -111.181 	 12.2126 	 -121.276
| 16> C 	 -112.69 	 11.8151 	 -122.734
| 17> H 	 -112.121 	 11.119 	 -123.305
| 18> H 	 -113.28 	 11.3715 	 -121.919
| 19> C 	 -113.644 	 12.4878 	 -123.679
| 20> H 	 -114.527 	 12.9725 	 -123.238
| 21> H 	 -113.169 	 13.0891 	 -124.416
| 22> H 	 -114.126 	 11.7097 	 -124.242
| 23> S 	 -108.681 	 17.8543 	 -124.092
| 24> C 	 -109.183 	 19.2802 	 -124.884
| 25> C 	 -110.388 	 19.043 	 -125.566
| 26> C 	 -110.905 	 17.7042 	 -125.382
| 27> C 	 -110.073 	 16.9323 	 -124.614
| 28> H 	 -110.833 	 19.7708 	 -126.246
| 29> C 	 -112.108 	 17.2899 	 -126.124
| 30> H 	 -112.089 	 16.1182 	 -126.276
| 31> H 	 -112.234 	 17.6744 	 -127.125
| 32> C 	 -113.438 	 17.2802 	 -125.32
| 33> H 	 -113.641 	 18.3011 	 -124.824
| 34> H 	 -113.197 	 16.647 	 -124.486
| 35> C 	 -114.595 	 16.7051 	 -126.058
| 36> H 	 -114.729 	 15.5908 	 -126.262
| 37> H 	 -114.873 	 17.3322 	 -126.925
| 38> H 	 -115.372 	 16.9801 	 -125.383
| 39> H 	 -109.316 	 12.1525 	 -123.303
| 40> H 	 -108.545 	 20.1128 	 -125.075
| 41> *
| 42>
| 43>                          ****END OF INPUT****

CARTESIAN COORDINATES (ANGSTROEM)
---------------------------------
  S    -108.986000   14.321800  -124.549000
  C    -109.653000   13.117700  -123.487000
  C    -110.782000   13.645000  -122.806000
  C    -111.002000   15.032300  -123.103000
  C    -110.146000   15.561600  -124.055000
  H    -111.779000   15.643900  -122.699000
  C    -111.740000   12.793000  -121.947000
  H    -112.415000   13.419800  -121.418000
  H    -111.181000   12.212600  -121.276000
  C    -112.690000   11.815100  -122.734000
  H    -112.121000   11.119000  -123.305000
  H    -113.280000   11.371500  -121.919000
  C    -113.644000   12.487800  -123.679000
  H    -114.527000   12.972500  -123.238000
  H    -113.169000   13.089100  -124.416000
  H    -114.126000   11.709700  -124.242000
  S    -108.681000   17.854300  -124.092000
  C    -109.183000   19.280200  -124.884000
  C    -110.388000   19.043000  -125.566000
  C    -110.905000   17.704200  -125.382000
  C    -110.073000   16.932300  -124.614000
  H    -110.833000   19.770800  -126.246000
  C    -112.108000   17.289900  -126.124000
  H    -112.089000   16.118200  -126.276000
  H    -112.234000   17.674400  -127.125000
  C    -113.438000   17.280200  -125.320000
  H    -113.641000   18.301100  -124.824000
  H    -113.197000   16.647000  -124.486000
  C    -114.595000   16.705100  -126.058000
  H    -114.729000   15.590800  -126.262000
  H    -114.873000   17.332200  -126.925000
  H    -115.372000   16.980100  -125.383000
  H    -109.316000   12.152500  -123.303000
  H    -108.545000   20.112800  -125.075000

 Total Charge           Charge          ....    0
 Multiplicity           Mult            ....    1
 Number of Electrons    NEL             ....  134
 Basis Dimension        Dim             ....  322

ORBITAL ENERGIES
----------------

  NO   OCC          E(Eh)            E(eV)
   0   2.0000     -88.968508     -2420.9562
   1   2.0000     -88.962850     -2420.8022
   2   2.0000     -10.333219      -281.1812
   3   2.0000     -10.327171      -281.0166
   4   2.0000     -10.315408      -280.6965
   5   2.0000     -10.314450      -280.6705
   6   2.0000     -10.305876      -280.4372
   7   2.0000     -10.303067      -280.3607
   8   2.0000     -10.296286      -280.1762
   9   2.0000     -10.296214      -280.1742
  10   2.0000     -10.291817      -280.0546
  11   2.0000     -10.289316      -279.9865
  12   2.0000     -10.287776      -279.9446
  13   2.0000     -10.286242      -279.9029
  14   2.0000     -10.279805      -279.7277
  15   2.0000     -10.269520      -279.4478
  16   2.0000      -8.082716      -219.9419
  17   2.0000      -8.078552      -219.8286
  18   2.0000      -6.041233      -164.3903
  19   2.0000      -6.037090      -164.2776
  20   2.0000      -6.037023      -164.2758
  21   2.0000      -6.033699      -164.1853
  22   2.0000      -6.032700      -164.1581
  23   2.0000      -6.029502      -164.0711
  24   2.0000      -1.006093       -27.3772
  25   2.0000      -0.983063       -26.7505
  26   2.0000      -0.912977       -24.8434
  27   2.0000      -0.909504       -24.7489
  28   2.0000      -0.866572       -23.5806
  29   2.0000      -0.857030       -23.3210
  30   2.0000      -0.847000       -23.0480
  31   2.0000      -0.815005       -22.1774
  32   2.0000      -0.784020       -21.3343
  33   2.0000      -0.774557       -21.0768
  34   2.0000      -0.702513       -19.1163
  35   2.0000      -0.698471       -19.0064
  36   2.0000      -0.687087       -18.6966
  37   2.0000      -0.666226       -18.1289
  38   2.0000      -0.645898       -17.5758
  39   2.0000      -0.614976       -16.7344
  40   2.0000      -0.599986       -16.3265
  41   2.0000      -0.579470       -15.7682
  42   2.0000      -0.562896       -15.3172
  43   2.0000      -0.551082       -14.9957
  44   2.0000      -0.545962       -14.8564
  45   2.0000      -0.523008       -14.2318
  46   2.0000      -0.515016       -14.0143
  47   2.0000      -0.514200       -13.9921
  48   2.0000      -0.509758       -13.8712
  49   2.0000      -0.501526       -13.6472
  50   2.0000      -0.489585       -13.3223
  51   2.0000      -0.479901       -13.0588
  52   2.0000      -0.476527       -12.9670
  53   2.0000      -0.467583       -12.7236
  54   2.0000      -0.461268       -12.5517
  55   2.0000      -0.445327       -12.1180
  56   2.0000      -0.441774       -12.0213
  57   2.0000      -0.438305       -11.9269
  58   2.0000      -0.428716       -11.6660
  59   2.0000      -0.419884       -11.4256
  60   2.0000      -0.418723       -11.3940
  61   2.0000      -0.415685       -11.3114
  62   2.0000      -0.402813       -10.9611
  63   2.0000      -0.339616        -9.2414
  64   2.0000      -0.326546        -8.8858
  65   2.0000      -0.324356        -8.8262
  66   2.0000      -0.304182        -8.2772
  67   0.0000       0.034859         0.9486
  68   0.0000       0.060859         1.6561
  69   0.0000       0.116482         3.1696
  70   0.0000       0.123325         3.3558
  71   0.0000       0.127525         3.4701

MULLIKEN ATOMIC CHARGES
-----------------------
   0 S :    0.122652
   1 C :   -0.084192
   2 C :   -0.132583
   3 C :    0.068072
   4 C :   -0.175355
   5 H :    0.012265
   6 C :    0.110316
   7 H :    0.005414
   8 H :    0.017448
   9 C :   -0.064168
  10 H :    0.023167
  11 H :    0.033314
  12 C :   -0.043904
  13 H :    0.026940
  14 H :    0.036571
  15 H :    0.016278
  16 S :    0.115595
  17 C :   -0.080721
  18 C :   -0.054301
  19 C :    0.029169
  20 C :   -0.172827
  21 H :    0.023235
  22 C :   -0.002584
  23 H :    0.033602
  24 H :    0.027973
  25 C :   -0.098614
  26 H :    0.035559
  27 H :    0.011486
  28 C :   -0.032013
  29 H :    0.061458
  30 H :    0.028863
  31 H :    0.019235
  32 H :    0.023963
  33 H :    0.058686
Sum of atomic charges:    0.0000000

LOEWDIN ATOMIC CHARGES
----------------------
   0 S :    0.415000
   1 C :   -0.194399
   2 C :   -0.060567
   3 C :   -0.058478
   4 C :   -0.197338
   5 H :    0.028194
   6 C :   -0.022822
   7 H :    0.023367
   8 H :    0.022879
   9 C :   -0.029561
  10 H :    0.017932
  11 H :    0.029473
  12 C :   -0.069770
  13 H :    0.026085
  14 H :    0.021961
  15 H :    0.026864
  16 S :    0.432337
  17 C :   -0.198369
  18 C :   -0.069715
  19 C :   -0.058239
  20 C :   -0.204340
  21 H :    0.031179
  22 C :   -0.044504
  23 H :    0.044459
  24 H :    0.025029
  25 C :   -0.045519
  26 H :    0.027805
  27 H :    0.018818
  28 C :   -0.079569
  29 H :    0.039668
  30 H :    0.028566
  31 H :    0.029924
  32 H :    0.016424
  33 H :    0.027228

  Mayer bond orders larger than 0.100000
B(  0-S ,  1-C ) :   1.1565 B(  0-S ,  4-C ) :   1.1618 B(  1-C ,  2-C ) :   1.5723
B(  1-C ,  4-C ) :   0.1072 B(  1-C , 32-H ) :   0.9786 B(  2-C ,  3-C ) :   1.2577
B(  2-C ,  6-C ) :   1.0277 B(  3-C ,  4-C ) :   1.5695 B(  3-C ,  5-H ) :   0.9934
B(  4-C , 20-C ) :   0.9861 B(  6-C ,  7-H ) :   0.9429 B(  6-C ,  8-H ) :   0.9386
B(  6-C ,  9-C ) :   1.0694 B(  9-C , 10-H ) :   0.9589 B(  9-C , 11-H ) :   0.9559
B(  9-C , 12-C ) :   1.0906 B( 12-C , 13-H ) :   0.9731 B( 12-C , 14-H ) :   0.9727
B( 12-C , 15-H ) :   0.9669 B( 16-S , 17-C ) :   1.1796 B( 16-S , 20-C ) :   1.1579
B( 17-C , 18-C ) :   1.5736 B( 17-C , 33-H ) :   0.9702 B( 18-C , 19-C ) :   1.2461
B( 18-C , 21-H ) :   0.9894 B( 19-C , 20-C ) :   1.6021 B( 19-C , 22-C ) :   1.0564
B( 22-C , 23-H ) :   0.9386 B( 22-C , 24-H ) :   0.9476 B( 22-C , 25-C ) :   1.0373
B( 25-C , 26-H ) :   0.9523 B( 25-C , 27-H ) :   0.9527 B( 25-C , 28-C ) :   1.0880
B( 28-C , 29-H ) :   0.9691 B( 28-C , 30-H ) :   0.9673 B( 28-C , 31-H ) :   0.9640

Dispersion correction           -0.014900359
FINAL SINGLE POINT ENERGY     -1339.866390270915

DIPOLE MOMENT
-------------
                                X             Y             Z
Electronic contribution:     29.30077       9.67814       1.13492
Nuclear contribution   :    -29.95224      -9.83340      -1.15255
                        -----------------------------------------
Total Dipole Moment    :     -0.65146      -0.15526      -0.01763
                        -----------------------------------------
Magnitude (a.u.)       :      0.66994
Magnitude (Debye)      :      1.70285

Rotational constants in cm-1:     0.017892     0.009854     0.006980
Rotational constants in MHz :   536.374563   295.429774   209.262321

                             ****ORCA TERMINATED NORMALLY****
TOTAL RUN TIME: 0 days 0 hours 0 minutes 22 seconds 222 msec
