                         Program Version 4.2.1 -  RELEASE  -
|  1> ! wB97X-D3 SP def2-SVP
|  2> %pal
|  3> nprocs 24
|  4> end
|  5>
|  6> * xyz 0 1
|  7> S 	 -139.041 	 5.49105 	 0.597414
|  8> C 	 -139.606 	 5.44012 	 2.24763
|  9> C 	 -139.095 	 6.49814 	 3.02989
| 10> C 	 -138.316 	 7.40047 	 2.16024
| 11> C 	 -138.251 	 7.04678 	 0.818346
| 12> H 	 -137.8 	 8.29028 	 2.44867
| 13> C 	 -139.369 	 6.61368 	 4.52227
| 14> H 	 -138.657 	 6.01781 	 5.14362
| 15> H 	 -140.316 	 6.12388 	 4.75458
| 16> C 	 -139.337 	 8.02299 	 5.14374
| 17> H 	 -139.572 	 7.8364 	 6.21918
| 18> H 	 -138.313 	 8.34982 	 4.99907
| 19> C 	 -140.303 	 8.95496 	 4.39744
| 20> H 	 -141.334 	 8.49148 	 4.40931
| 21> H 	 -140.259 	 9.86832 	 5.02118
| 22> H 	 -139.985 	 9.07831 	 3.33236
| 23> S 	 -135.847 	 7.15512 	 -0.48141
| 24> C 	 -135.606 	 8.34382 	 -1.69084
| 25> C 	 -136.601 	 9.32734 	 -1.70771
| 26> C 	 -137.669 	 9.05669 	 -0.799156
| 27> C 	 -137.443 	 7.79053 	 -0.173269
| 28> H 	 -136.441 	 10.2328 	 -2.20746
| 29> C 	 -138.862 	 9.92071 	 -0.600481
| 30> H 	 -138.54 	 11.0262 	 -0.518482
| 31> H 	 -139.257 	 9.78269 	 0.426133
| 32> C 	 -139.978 	 9.87396 	 -1.62856
| 33> H 	 -140.24 	 8.90056 	 -1.94958
| 34> H 	 -139.634 	 10.3224 	 -2.53837
| 35> C 	 -141.272 	 10.6486 	 -1.25226
| 36> H 	 -141.642 	 10.2173 	 -0.303813
| 37> H 	 -142.2 	 10.6553 	 -1.9105
| 38> H 	 -140.88 	 11.6437 	 -1.10266
| 39> H 	 -140.121 	 4.60949 	 2.60434
| 40> H 	 -134.665 	 8.57793 	 -2.18791
| 41> *
| 42>
| 43>                          ****END OF INPUT****

CARTESIAN COORDINATES (ANGSTROEM)
---------------------------------
  S    -139.041000    5.491050    0.597414
  C    -139.606000    5.440120    2.247630
  C    -139.095000    6.498140    3.029890
  C    -138.316000    7.400470    2.160240
  C    -138.251000    7.046780    0.818346
  H    -137.800000    8.290280    2.448670
  C    -139.369000    6.613680    4.522270
  H    -138.657000    6.017810    5.143620
  H    -140.316000    6.123880    4.754580
  C    -139.337000    8.022990    5.143740
  H    -139.572000    7.836400    6.219180
  H    -138.313000    8.349820    4.999070
  C    -140.303000    8.954960    4.397440
  H    -141.334000    8.491480    4.409310
  H    -140.259000    9.868320    5.021180
  H    -139.985000    9.078310    3.332360
  S    -135.847000    7.155120   -0.481410
  C    -135.606000    8.343820   -1.690840
  C    -136.601000    9.327340   -1.707710
  C    -137.669000    9.056690   -0.799156
  C    -137.443000    7.790530   -0.173269
  H    -136.441000   10.232800   -2.207460
  C    -138.862000    9.920710   -0.600481
  H    -138.540000   11.026200   -0.518482
  H    -139.257000    9.782690    0.426133
  C    -139.978000    9.873960   -1.628560
  H    -140.240000    8.900560   -1.949580
  H    -139.634000   10.322400   -2.538370
  C    -141.272000   10.648600   -1.252260
  H    -141.642000   10.217300   -0.303813
  H    -142.200000   10.655300   -1.910500
  H    -140.880000   11.643700   -1.102660
  H    -140.121000    4.609490    2.604340
  H    -134.665000    8.577930   -2.187910

 Total Charge           Charge          ....    0
 Multiplicity           Mult            ....    1
 Number of Electrons    NEL             ....  134
 Basis Dimension        Dim             ....  322

ORBITAL ENERGIES
----------------

  NO   OCC          E(Eh)            E(eV)
   0   2.0000     -88.971476     -2421.0369
   1   2.0000     -88.966259     -2420.8950
   2   2.0000     -10.331061      -281.1225
   3   2.0000     -10.330195      -281.0989
   4   2.0000     -10.316110      -280.7156
   5   2.0000     -10.313888      -280.6552
   6   2.0000     -10.311391      -280.5872
   7   2.0000     -10.309971      -280.5486
   8   2.0000     -10.299217      -280.2559
   9   2.0000     -10.298929      -280.2481
  10   2.0000     -10.294160      -280.1183
  11   2.0000     -10.291973      -280.0588
  12   2.0000     -10.289114      -279.9810
  13   2.0000     -10.284187      -279.8470
  14   2.0000     -10.282170      -279.7921
  15   2.0000     -10.278978      -279.7052
  16   2.0000      -8.086611      -220.0479
  17   2.0000      -8.080767      -219.8889
  18   2.0000      -6.044868      -164.4892
  19   2.0000      -6.041115      -164.3871
  20   2.0000      -6.039233      -164.3359
  21   2.0000      -6.037563      -164.2905
  22   2.0000      -6.035263      -164.2279
  23   2.0000      -6.031636      -164.1292
  24   2.0000      -1.003761       -27.3137
  25   2.0000      -0.980894       -26.6915
  26   2.0000      -0.911155       -24.7938
  27   2.0000      -0.910597       -24.7786
  28   2.0000      -0.867358       -23.6020
  29   2.0000      -0.853783       -23.2326
  30   2.0000      -0.838666       -22.8213
  31   2.0000      -0.813530       -22.1373
  32   2.0000      -0.781152       -21.2562
  33   2.0000      -0.767929       -20.8964
  34   2.0000      -0.705641       -19.2015
  35   2.0000      -0.695563       -18.9272
  36   2.0000      -0.688103       -18.7242
  37   2.0000      -0.659816       -17.9545
  38   2.0000      -0.644508       -17.5379
  39   2.0000      -0.620940       -16.8966
  40   2.0000      -0.599396       -16.3104
  41   2.0000      -0.570041       -15.5116
  42   2.0000      -0.559798       -15.2329
  43   2.0000      -0.545318       -14.8389
  44   2.0000      -0.539992       -14.6939
  45   2.0000      -0.522441       -14.2164
  46   2.0000      -0.519427       -14.1343
  47   2.0000      -0.506426       -13.7805
  48   2.0000      -0.503663       -13.7054
  49   2.0000      -0.497414       -13.5353
  50   2.0000      -0.491087       -13.3632
  51   2.0000      -0.482991       -13.1429
  52   2.0000      -0.470295       -12.7974
  53   2.0000      -0.464868       -12.6497
  54   2.0000      -0.457984       -12.4624
  55   2.0000      -0.445833       -12.1317
  56   2.0000      -0.444858       -12.1052
  57   2.0000      -0.443755       -12.0752
  58   2.0000      -0.425554       -11.5799
  59   2.0000      -0.422895       -11.5075
  60   2.0000      -0.420215       -11.4346
  61   2.0000      -0.414615       -11.2823
  62   2.0000      -0.408493       -11.1157
  63   2.0000      -0.337620        -9.1871
  64   2.0000      -0.330810        -9.0018
  65   2.0000      -0.320423        -8.7192
  66   2.0000      -0.303890        -8.2693
  67   0.0000       0.037559         1.0220
  68   0.0000       0.053090         1.4446
  69   0.0000       0.105129         2.8607
  70   0.0000       0.114955         3.1281
  71   0.0000       0.131771         3.5857

MULLIKEN ATOMIC CHARGES
-----------------------
   0 S :    0.114267
   1 C :   -0.104489
   2 C :   -0.077509
   3 C :    0.035311
   4 C :   -0.169520
   5 H :    0.008521
   6 C :    0.041217
   7 H :    0.041921
   8 H :    0.018446
   9 C :   -0.096599
  10 H :    0.043335
  11 H :    0.033433
  12 C :   -0.072278
  13 H :    0.039780
  14 H :    0.046194
  15 H :    0.055685
  16 S :    0.141509
  17 C :   -0.084751
  18 C :   -0.033510
  19 C :    0.001531
  20 C :   -0.203769
  21 H :    0.001161
  22 C :    0.033175
  23 H :    0.029617
  24 H :    0.021612
  25 C :   -0.020623
  26 H :    0.018880
  27 H :    0.012749
  28 C :   -0.081353
  29 H :    0.033652
  30 H :    0.054648
  31 H :    0.026498
  32 H :    0.031464
  33 H :    0.059793
Sum of atomic charges:    0.0000000

LOEWDIN ATOMIC CHARGES
----------------------
   0 S :    0.406865
   1 C :   -0.184310
   2 C :   -0.058915
   3 C :   -0.060546
   4 C :   -0.209233
   5 H :    0.024985
   6 C :   -0.042502
   7 H :    0.036173
   8 H :    0.027090
   9 C :   -0.046256
  10 H :    0.032300
  11 H :    0.021181
  12 C :   -0.072977
  13 H :    0.031268
  14 H :    0.030030
  15 H :    0.031829
  16 S :    0.441598
  17 C :   -0.203664
  18 C :   -0.063707
  19 C :   -0.047491
  20 C :   -0.203890
  21 H :    0.022557
  22 C :   -0.041928
  23 H :    0.040406
  24 H :    0.031391
  25 C :   -0.037155
  26 H :    0.017713
  27 H :    0.019533
  28 C :   -0.071306
  29 H :    0.025085
  30 H :    0.036965
  31 H :    0.021275
  32 H :    0.014302
  33 H :    0.031332

  Mayer bond orders larger than 0.100000
B(  0-S ,  1-C ) :   1.1586 B(  0-S ,  4-C ) :   1.1424 B(  1-C ,  2-C ) :   1.5964
B(  1-C , 32-H ) :   0.9771 B(  2-C ,  3-C ) :   1.2224 B(  2-C ,  6-C ) :   1.0204
B(  3-C ,  4-C ) :   1.5937 B(  3-C ,  5-H ) :   0.9891 B(  4-C , 20-C ) :   1.0197
B(  6-C ,  7-H ) :   0.9358 B(  6-C ,  8-H ) :   0.9422 B(  6-C ,  9-C ) :   1.0778
B(  9-C , 10-H ) :   0.9545 B(  9-C , 11-H ) :   0.9499 B(  9-C , 12-C ) :   1.0759
B( 12-C , 13-H ) :   0.9746 B( 12-C , 14-H ) :   0.9746 B( 12-C , 15-H ) :   0.9681
B( 16-S , 17-C ) :   1.1713 B( 16-S , 20-C ) :   1.1814 B( 17-C , 18-C ) :   1.5885
B( 17-C , 20-C ) :   0.1026 B( 17-C , 33-H ) :   0.9615 B( 18-C , 19-C ) :   1.2699
B( 18-C , 21-H ) :   0.9940 B( 19-C , 20-C ) :   1.5450 B( 19-C , 22-C ) :   1.0649
B( 22-C , 23-H ) :   0.9256 B( 22-C , 24-H ) :   0.9282 B( 22-C , 25-C ) :   1.0560
B( 25-C , 26-H ) :   0.9571 B( 25-C , 27-H ) :   0.9521 B( 25-C , 28-C ) :   1.0645
B( 28-C , 29-H ) :   0.9783 B( 28-C , 30-H ) :   0.9759 B( 28-C , 31-H ) :   0.9772

Dispersion correction           -0.014420752
FINAL SINGLE POINT ENERGY     -1339.870844018753

DIPOLE MOMENT
-------------
                                X             Y             Z
Electronic contribution:     17.07120     -18.49343     -10.85179
Nuclear contribution   :    -17.09777      18.89944      11.25684
                        -----------------------------------------
Total Dipole Moment    :     -0.02657       0.40600       0.40505
                        -----------------------------------------
Magnitude (a.u.)       :      0.57412
Magnitude (Debye)      :      1.45929

Rotational constants in cm-1:     0.016141     0.009399     0.007503
Rotational constants in MHz :   483.898528   281.768706   224.925956

                             ****ORCA TERMINATED NORMALLY****
TOTAL RUN TIME: 0 days 0 hours 0 minutes 21 seconds 711 msec
