                         Program Version 4.2.1 -  RELEASE  -
|  1> ! wB97X-D3 SP def2-SVP
|  2> %pal
|  3> nprocs 24
|  4> end
|  5>
|  6> * xyz 0 1
|  7> S 	 -45.1117 	 22.04 	 30.3225
|  8> C 	 -44.9806 	 21.8797 	 28.58
|  9> C 	 -45.4226 	 23.0535 	 27.9398
| 10> C 	 -45.7957 	 24.1053 	 28.8263
| 11> C 	 -45.6851 	 23.7182 	 30.1728
| 12> H 	 -46.1493 	 25.1237 	 28.5992
| 13> C 	 -45.67 	 23.0923 	 26.4402
| 14> H 	 -44.7887 	 22.5923 	 26.0289
| 15> H 	 -45.5889 	 24.1513 	 26.1324
| 16> C 	 -46.8681 	 22.3927 	 25.8532
| 17> H 	 -47.1483 	 22.8362 	 24.8853
| 18> H 	 -46.6297 	 21.3264 	 25.7005
| 19> C 	 -48.1556 	 22.5793 	 26.6524
| 20> H 	 -48.2061 	 21.8445 	 27.4896
| 21> H 	 -48.1327 	 23.4934 	 27.1985
| 22> H 	 -49.1287 	 22.5778 	 26.1429
| 23> S 	 -46.8147 	 23.7544 	 32.6847
| 24> C 	 -47.2438 	 25.255 	 33.3742
| 25> C 	 -46.5536 	 26.2941 	 32.7335
| 26> C 	 -45.9337 	 25.8886 	 31.5126
| 27> C 	 -46.0533 	 24.5271 	 31.3171
| 28> H 	 -46.5898 	 27.3574 	 33.1661
| 29> C 	 -45.2201 	 26.893 	 30.6609
| 30> H 	 -44.9047 	 26.4823 	 29.696
| 31> H 	 -44.3705 	 27.2038 	 31.2182
| 32> C 	 -46.0189 	 28.1081 	 30.1819
| 33> H 	 -45.3352 	 28.7147 	 29.6445
| 34> H 	 -46.1482 	 28.7289 	 31.1017
| 35> C 	 -47.3997 	 27.7038 	 29.5845
| 36> H 	 -47.8783 	 28.7213 	 29.2555
| 37> H 	 -48.0942 	 27.3337 	 30.3514
| 38> H 	 -47.2772 	 27.0608 	 28.7392
| 39> H 	 -44.7679 	 20.9219 	 28.0757
| 40> H 	 -47.7656 	 25.2858 	 34.3262
| 41> *
| 42>
| 43>                          ****END OF INPUT****

CARTESIAN COORDINATES (ANGSTROEM)
---------------------------------
  S    -45.111700   22.040000   30.322500
  C    -44.980600   21.879700   28.580000
  C    -45.422600   23.053500   27.939800
  C    -45.795700   24.105300   28.826300
  C    -45.685100   23.718200   30.172800
  H    -46.149300   25.123700   28.599200
  C    -45.670000   23.092300   26.440200
  H    -44.788700   22.592300   26.028900
  H    -45.588900   24.151300   26.132400
  C    -46.868100   22.392700   25.853200
  H    -47.148300   22.836200   24.885300
  H    -46.629700   21.326400   25.700500
  C    -48.155600   22.579300   26.652400
  H    -48.206100   21.844500   27.489600
  H    -48.132700   23.493400   27.198500
  H    -49.128700   22.577800   26.142900
  S    -46.814700   23.754400   32.684700
  C    -47.243800   25.255000   33.374200
  C    -46.553600   26.294100   32.733500
  C    -45.933700   25.888600   31.512600
  C    -46.053300   24.527100   31.317100
  H    -46.589800   27.357400   33.166100
  C    -45.220100   26.893000   30.660900
  H    -44.904700   26.482300   29.696000
  H    -44.370500   27.203800   31.218200
  C    -46.018900   28.108100   30.181900
  H    -45.335200   28.714700   29.644500
  H    -46.148200   28.728900   31.101700
  C    -47.399700   27.703800   29.584500
  H    -47.878300   28.721300   29.255500
  H    -48.094200   27.333700   30.351400
  H    -47.277200   27.060800   28.739200
  H    -44.767900   20.921900   28.075700
  H    -47.765600   25.285800   34.326200

 Total Charge           Charge          ....    0
 Multiplicity           Mult            ....    1
 Number of Electrons    NEL             ....  134
 Basis Dimension        Dim             ....  322

ORBITAL ENERGIES
----------------

  NO   OCC          E(Eh)            E(eV)
   0   2.0000     -88.969083     -2420.9718
   1   2.0000     -88.965226     -2420.8669
   2   2.0000     -10.333764      -281.1960
   3   2.0000     -10.325341      -280.9668
   4   2.0000     -10.319361      -280.8041
   5   2.0000     -10.317551      -280.7548
   6   2.0000     -10.304233      -280.3924
   7   2.0000     -10.303384      -280.3693
   8   2.0000     -10.303064      -280.3606
   9   2.0000     -10.298546      -280.2377
  10   2.0000     -10.290670      -280.0234
  11   2.0000     -10.289885      -280.0020
  12   2.0000     -10.288660      -279.9687
  13   2.0000     -10.286518      -279.9104
  14   2.0000     -10.285814      -279.8912
  15   2.0000     -10.269665      -279.4518
  16   2.0000      -8.082982      -219.9491
  17   2.0000      -8.081152      -219.8993
  18   2.0000      -6.041535      -164.3985
  19   2.0000      -6.039514      -164.3435
  20   2.0000      -6.037601      -164.2915
  21   2.0000      -6.035547      -164.2356
  22   2.0000      -6.033778      -164.1874
  23   2.0000      -6.031950      -164.1377
  24   2.0000      -1.009317       -27.4649
  25   2.0000      -0.982149       -26.7256
  26   2.0000      -0.915600       -24.9147
  27   2.0000      -0.911487       -24.8028
  28   2.0000      -0.867214       -23.5981
  29   2.0000      -0.850182       -23.1346
  30   2.0000      -0.842704       -22.9312
  31   2.0000      -0.810087       -22.0436
  32   2.0000      -0.786447       -21.4003
  33   2.0000      -0.772010       -21.0075
  34   2.0000      -0.708774       -19.2867
  35   2.0000      -0.699860       -19.0442
  36   2.0000      -0.693826       -18.8800
  37   2.0000      -0.658640       -17.9225
  38   2.0000      -0.635185       -17.2843
  39   2.0000      -0.614362       -16.7176
  40   2.0000      -0.595300       -16.1989
  41   2.0000      -0.569748       -15.5036
  42   2.0000      -0.558885       -15.2080
  43   2.0000      -0.548407       -14.9229
  44   2.0000      -0.543037       -14.7768
  45   2.0000      -0.541334       -14.7304
  46   2.0000      -0.517927       -14.0935
  47   2.0000      -0.508220       -13.8294
  48   2.0000      -0.501732       -13.6528
  49   2.0000      -0.495433       -13.4814
  50   2.0000      -0.491878       -13.3847
  51   2.0000      -0.479753       -13.0548
  52   2.0000      -0.476312       -12.9611
  53   2.0000      -0.464396       -12.6369
  54   2.0000      -0.462251       -12.5785
  55   2.0000      -0.451849       -12.2954
  56   2.0000      -0.442663       -12.0455
  57   2.0000      -0.436944       -11.8898
  58   2.0000      -0.427122       -11.6226
  59   2.0000      -0.424730       -11.5575
  60   2.0000      -0.418338       -11.3835
  61   2.0000      -0.407195       -11.0803
  62   2.0000      -0.404558       -11.0086
  63   2.0000      -0.355183        -9.6650
  64   2.0000      -0.333566        -9.0768
  65   2.0000      -0.329675        -8.9709
  66   2.0000      -0.281904        -7.6710
  67   0.0000       0.021673         0.5898
  68   0.0000       0.070421         1.9163
  69   0.0000       0.106407         2.8955
  70   0.0000       0.118655         3.2288
  71   0.0000       0.127123         3.4592

MULLIKEN ATOMIC CHARGES
-----------------------
   0 S :    0.105819
   1 C :   -0.132757
   2 C :   -0.103202
   3 C :    0.025636
   4 C :   -0.141355
   5 H :   -0.000109
   6 C :    0.065685
   7 H :    0.025782
   8 H :    0.023405
   9 C :   -0.052499
  10 H :    0.032854
  11 H :    0.032600
  12 C :   -0.053253
  13 H :    0.032291
  14 H :    0.010081
  15 H :    0.038080
  16 S :    0.110640
  17 C :   -0.104903
  18 C :   -0.066654
  19 C :   -0.048651
  20 C :   -0.142340
  21 H :    0.050508
  22 C :    0.063962
  23 H :    0.018175
  24 H :    0.033337
  25 C :   -0.074985
  26 H :    0.023257
  27 H :    0.014973
  28 C :   -0.068771
  29 H :    0.044934
  30 H :    0.060814
  31 H :    0.047800
  32 H :    0.062566
  33 H :    0.066280
Sum of atomic charges:   -0.0000000

LOEWDIN ATOMIC CHARGES
----------------------
   0 S :    0.393371
   1 C :   -0.207455
   2 C :   -0.062241
   3 C :   -0.071075
   4 C :   -0.174192
   5 H :    0.030960
   6 C :   -0.038071
   7 H :    0.035124
   8 H :    0.030713
   9 C :   -0.044146
  10 H :    0.031636
  11 H :    0.025322
  12 C :   -0.074833
  13 H :    0.030583
  14 H :    0.020073
  15 H :    0.026742
  16 S :    0.423476
  17 C :   -0.198435
  18 C :   -0.079074
  19 C :   -0.058570
  20 C :   -0.201815
  21 H :    0.044165
  22 C :   -0.033079
  23 H :    0.027442
  24 H :    0.032520
  25 C :   -0.041675
  26 H :    0.020206
  27 H :    0.020230
  28 C :   -0.066096
  29 H :    0.040125
  30 H :    0.035802
  31 H :    0.017827
  32 H :    0.034389
  33 H :    0.030051

  Mayer bond orders larger than 0.100000
B(  0-S ,  1-C ) :   1.1312 B(  0-S ,  4-C ) :   1.1554 B(  1-C ,  2-C ) :   1.5854
B(  1-C ,  4-C ) :   0.1050 B(  1-C , 32-H ) :   0.9683 B(  2-C ,  3-C ) :   1.2547
B(  2-C ,  6-C ) :   1.0259 B(  3-C ,  4-C ) :   1.5454 B(  3-C ,  5-H ) :   0.9810
B(  4-C , 20-C ) :   1.0723 B(  6-C ,  7-H ) :   0.9373 B(  6-C ,  8-H ) :   0.9381
B(  6-C ,  9-C ) :   1.0810 B(  9-C , 10-H ) :   0.9551 B(  9-C , 11-H ) :   0.9572
B(  9-C , 12-C ) :   1.0739 B( 12-C , 13-H ) :   0.9667 B( 12-C , 14-H ) :   0.9740
B( 12-C , 15-H ) :   0.9780 B( 16-S , 17-C ) :   1.1800 B( 16-S , 20-C ) :   1.1402
B( 17-C , 18-C ) :   1.5717 B( 17-C , 33-H ) :   0.9699 B( 18-C , 19-C ) :   1.2478
B( 18-C , 21-H ) :   0.9794 B( 19-C , 20-C ) :   1.5743 B( 19-C , 22-C ) :   1.0422
B( 22-C , 23-H ) :   0.9366 B( 22-C , 24-H ) :   0.9293 B( 22-C , 25-C ) :   1.0779
B( 25-C , 26-H ) :   0.9595 B( 25-C , 27-H ) :   0.9480 B( 25-C , 28-C ) :   1.0660
B( 28-C , 29-H ) :   0.9715 B( 28-C , 30-H ) :   0.9664 B( 28-C , 31-H ) :   0.9728

Dispersion correction           -0.015543260
FINAL SINGLE POINT ENERGY     -1339.876327120518

DIPOLE MOMENT
-------------
                                X             Y             Z
Electronic contribution:      7.12120     -13.82087      20.69770
Nuclear contribution   :     -7.22969      14.35161     -20.95103
                        -----------------------------------------
Total Dipole Moment    :     -0.10849       0.53074      -0.25333
                        -----------------------------------------
Magnitude (a.u.)       :      0.59802
Magnitude (Debye)      :      1.52005

Rotational constants in cm-1:     0.019186     0.009505     0.007513
Rotational constants in MHz :   575.176001   284.954068   225.244775

                             ****ORCA TERMINATED NORMALLY****
TOTAL RUN TIME: 0 days 0 hours 0 minutes 22 seconds 628 msec
