                         Program Version 4.2.1 -  RELEASE  -
|  1> ! wB97X-D3 SP def2-SVP
|  2> %pal
|  3> nprocs 24
|  4> end
|  5>
|  6> * xyz 0 1
|  7> S 	 -75.8761 	 -2.98633 	 4.27342
|  8> C 	 -74.4854 	 -1.96598 	 4.30648
|  9> C 	 -73.5158 	 -2.48331 	 3.41132
| 10> C 	 -73.8379 	 -3.7571 	 2.83302
| 11> C 	 -75.0073 	 -4.30933 	 3.30519
| 12> H 	 -73.2347 	 -4.2983 	 2.07283
| 13> C 	 -72.1487 	 -1.86192 	 3.18089
| 14> H 	 -72.3659 	 -0.818249 	 3.08755
| 15> H 	 -71.9645 	 -2.02273 	 2.08894
| 16> C 	 -70.9076 	 -2.22109 	 4.14205
| 17> H 	 -70.114 	 -1.55423 	 3.80505
| 18> H 	 -71.0989 	 -1.90212 	 5.2186
| 19> C 	 -70.5544 	 -3.67066 	 4.00721
| 20> H 	 -69.5818 	 -3.87288 	 4.48224
| 21> H 	 -71.2658 	 -4.4262 	 4.41737
| 22> H 	 -70.3972 	 -3.87955 	 2.92183
| 23> S 	 -75.4105 	 -5.90644 	 1.1081
| 24> C 	 -76.3374 	 -7.37542 	 1.23861
| 25> C 	 -76.6825 	 -7.66755 	 2.54347
| 26> C 	 -76.2343 	 -6.64203 	 3.42303
| 27> C 	 -75.5028 	 -5.58696 	 2.81587
| 28> H 	 -77.2304 	 -8.57503 	 2.86862
| 29> C 	 -76.6558 	 -6.638 	 4.83501
| 30> H 	 -77.7465 	 -6.62887 	 4.94897
| 31> H 	 -76.3457 	 -5.74402 	 5.4248
| 32> C 	 -76.1653 	 -7.88614 	 5.62175
| 33> H 	 -75.032 	 -7.93183 	 5.6861
| 34> H 	 -76.447 	 -8.83839 	 5.10631
| 35> C 	 -76.7252 	 -7.87045 	 7.05439
| 36> H 	 -77.8142 	 -7.5702 	 7.1022
| 37> H 	 -76.2554 	 -7.03522 	 7.5146
| 38> H 	 -76.6114 	 -8.69033 	 7.72354
| 39> H 	 -74.3256 	 -1.03979 	 4.87839
| 40> H 	 -76.79 	 -7.96434 	 0.393277
| 41> *
| 42>
| 43>                          ****END OF INPUT****

CARTESIAN COORDINATES (ANGSTROEM)
---------------------------------
  S    -75.876100   -2.986330    4.273420
  C    -74.485400   -1.965980    4.306480
  C    -73.515800   -2.483310    3.411320
  C    -73.837900   -3.757100    2.833020
  C    -75.007300   -4.309330    3.305190
  H    -73.234700   -4.298300    2.072830
  C    -72.148700   -1.861920    3.180890
  H    -72.365900   -0.818249    3.087550
  H    -71.964500   -2.022730    2.088940
  C    -70.907600   -2.221090    4.142050
  H    -70.114000   -1.554230    3.805050
  H    -71.098900   -1.902120    5.218600
  C    -70.554400   -3.670660    4.007210
  H    -69.581800   -3.872880    4.482240
  H    -71.265800   -4.426200    4.417370
  H    -70.397200   -3.879550    2.921830
  S    -75.410500   -5.906440    1.108100
  C    -76.337400   -7.375420    1.238610
  C    -76.682500   -7.667550    2.543470
  C    -76.234300   -6.642030    3.423030
  C    -75.502800   -5.586960    2.815870
  H    -77.230400   -8.575030    2.868620
  C    -76.655800   -6.638000    4.835010
  H    -77.746500   -6.628870    4.948970
  H    -76.345700   -5.744020    5.424800
  C    -76.165300   -7.886140    5.621750
  H    -75.032000   -7.931830    5.686100
  H    -76.447000   -8.838390    5.106310
  C    -76.725200   -7.870450    7.054390
  H    -77.814200   -7.570200    7.102200
  H    -76.255400   -7.035220    7.514600
  H    -76.611400   -8.690330    7.723540
  H    -74.325600   -1.039790    4.878390
  H    -76.790000   -7.964340    0.393277

 Total Charge           Charge          ....    0
 Multiplicity           Mult            ....    1
 Number of Electrons    NEL             ....  134
 Basis Dimension        Dim             ....  322

ORBITAL ENERGIES
----------------

  NO   OCC          E(Eh)            E(eV)
   0   2.0000     -88.969714     -2420.9890
   1   2.0000     -88.969203     -2420.9751
   2   2.0000     -10.336727      -281.2766
   3   2.0000     -10.329300      -281.0746
   4   2.0000     -10.324196      -280.9356
   5   2.0000     -10.318757      -280.7876
   6   2.0000     -10.304704      -280.4053
   7   2.0000     -10.302258      -280.3387
   8   2.0000     -10.298592      -280.2389
   9   2.0000     -10.298421      -280.2343
  10   2.0000     -10.296414      -280.1797
  11   2.0000     -10.293372      -280.0969
  12   2.0000     -10.291898      -280.0568
  13   2.0000     -10.290091      -280.0076
  14   2.0000     -10.280494      -279.7465
  15   2.0000     -10.273389      -279.5531
  16   2.0000      -8.084409      -219.9880
  17   2.0000      -8.082048      -219.9237
  18   2.0000      -6.042932      -164.4365
  19   2.0000      -6.040855      -164.3800
  20   2.0000      -6.038826      -164.3248
  21   2.0000      -6.036797      -164.2696
  22   2.0000      -6.035236      -164.2271
  23   2.0000      -6.032595      -164.1552
  24   2.0000      -1.004250       -27.3270
  25   2.0000      -0.979258       -26.6470
  26   2.0000      -0.908702       -24.7270
  27   2.0000      -0.900191       -24.4954
  28   2.0000      -0.874742       -23.8029
  29   2.0000      -0.849607       -23.1190
  30   2.0000      -0.843985       -22.9660
  31   2.0000      -0.815318       -22.1859
  32   2.0000      -0.775839       -21.1117
  33   2.0000      -0.760204       -20.6862
  34   2.0000      -0.703800       -19.1514
  35   2.0000      -0.698914       -19.0184
  36   2.0000      -0.694046       -18.8859
  37   2.0000      -0.662008       -18.0141
  38   2.0000      -0.631221       -17.1764
  39   2.0000      -0.612642       -16.6708
  40   2.0000      -0.597865       -16.2687
  41   2.0000      -0.565367       -15.3844
  42   2.0000      -0.555719       -15.1219
  43   2.0000      -0.544827       -14.8255
  44   2.0000      -0.538290       -14.6476
  45   2.0000      -0.519393       -14.1334
  46   2.0000      -0.517059       -14.0699
  47   2.0000      -0.511956       -13.9310
  48   2.0000      -0.504625       -13.7315
  49   2.0000      -0.498469       -13.5640
  50   2.0000      -0.484696       -13.1893
  51   2.0000      -0.481474       -13.1016
  52   2.0000      -0.465053       -12.6547
  53   2.0000      -0.458749       -12.4832
  54   2.0000      -0.455300       -12.3893
  55   2.0000      -0.454402       -12.3649
  56   2.0000      -0.435228       -11.8431
  57   2.0000      -0.432598       -11.7716
  58   2.0000      -0.429436       -11.6856
  59   2.0000      -0.427277       -11.6268
  60   2.0000      -0.420381       -11.4391
  61   2.0000      -0.412964       -11.2373
  62   2.0000      -0.407517       -11.0891
  63   2.0000      -0.354511        -9.6467
  64   2.0000      -0.332399        -9.0450
  65   2.0000      -0.323247        -8.7960
  66   2.0000      -0.285671        -7.7735
  67   0.0000       0.021276         0.5790
  68   0.0000       0.063154         1.7185
  69   0.0000       0.097173         2.6442
  70   0.0000       0.116161         3.1609
  71   0.0000       0.129316         3.5189

MULLIKEN ATOMIC CHARGES
-----------------------
   0 S :    0.106998
   1 C :   -0.120282
   2 C :   -0.113662
   3 C :   -0.017277
   4 C :   -0.095001
   5 H :    0.034917
   6 C :    0.028354
   7 H :    0.009057
   8 H :    0.023740
   9 C :   -0.034846
  10 H :    0.034817
  11 H :    0.040072
  12 C :   -0.069272
  13 H :    0.032374
  14 H :    0.060249
  15 H :    0.027971
  16 S :    0.110859
  17 C :   -0.105396
  18 C :   -0.040292
  19 C :   -0.014074
  20 C :   -0.164380
  21 H :    0.040924
  22 C :    0.023717
  23 H :    0.035541
  24 H :    0.025062
  25 C :   -0.121897
  26 H :    0.044927
  27 H :    0.031333
  28 C :   -0.029102
  29 H :    0.023411
  30 H :    0.014780
  31 H :    0.033845
  32 H :    0.062651
  33 H :    0.079882
Sum of atomic charges:   -0.0000000

LOEWDIN ATOMIC CHARGES
----------------------
   0 S :    0.380025
   1 C :   -0.210715
   2 C :   -0.069864
   3 C :   -0.068966
   4 C :   -0.166627
   5 H :    0.035724
   6 C :   -0.047516
   7 H :    0.024294
   8 H :    0.035434
   9 C :   -0.036823
  10 H :    0.027290
  11 H :    0.030695
  12 C :   -0.076139
  13 H :    0.027339
  14 H :    0.034643
  15 H :    0.028249
  16 S :    0.425301
  17 C :   -0.194404
  18 C :   -0.073740
  19 C :   -0.052687
  20 C :   -0.207433
  21 H :    0.041121
  22 C :   -0.040039
  23 H :    0.033694
  24 H :    0.028642
  25 C :   -0.042668
  26 H :    0.031652
  27 H :    0.019049
  28 C :   -0.072651
  29 H :    0.028954
  30 H :    0.022052
  31 H :    0.021371
  32 H :    0.039697
  33 H :    0.045046

  Mayer bond orders larger than 0.100000
B(  0-S ,  1-C ) :   1.1407 B(  0-S ,  4-C ) :   1.1022 B(  1-C ,  2-C ) :   1.5892
B(  1-C , 32-H ) :   0.9661 B(  2-C ,  3-C ) :   1.2415 B(  2-C ,  6-C ) :   1.0250
B(  3-C ,  4-C ) :   1.5519 B(  3-C ,  5-H ) :   0.9887 B(  4-C , 20-C ) :   1.1008
B(  6-C ,  7-H ) :   0.9356 B(  6-C ,  8-H ) :   0.9434 B(  6-C ,  9-C ) :   1.0448
B(  9-C , 10-H ) :   0.9522 B(  9-C , 11-H ) :   0.9567 B(  9-C , 12-C ) :   1.0805
B( 12-C , 13-H ) :   0.9702 B( 12-C , 14-H ) :   0.9724 B( 12-C , 15-H ) :   0.9721
B( 16-S , 17-C ) :   1.1727 B( 16-S , 20-C ) :   1.1306 B( 17-C , 18-C ) :   1.5855
B( 17-C , 33-H ) :   0.9566 B( 18-C , 19-C ) :   1.2656 B( 18-C , 21-H ) :   0.9831
B( 19-C , 20-C ) :   1.5389 B( 19-C , 22-C ) :   1.0626 B( 22-C , 23-H ) :   0.9360
B( 22-C , 24-H ) :   0.9361 B( 22-C , 25-C ) :   1.0394 B( 25-C , 26-H ) :   0.9566
B( 25-C , 27-H ) :   0.9612 B( 25-C , 28-C ) :   1.0696 B( 28-C , 29-H ) :   0.9718
B( 28-C , 30-H ) :   0.9716 B( 28-C , 31-H ) :   0.9764

Dispersion correction           -0.014034906
FINAL SINGLE POINT ENERGY     -1339.869293086111

DIPOLE MOMENT
-------------
                                X             Y             Z
Electronic contribution:    -11.77046       4.80397     -14.99294
Nuclear contribution   :     11.96635      -4.89988      15.10474
                        -----------------------------------------
Total Dipole Moment    :      0.19589      -0.09590       0.11180
                        -----------------------------------------
Magnitude (a.u.)       :      0.24509
Magnitude (Debye)      :      0.62298

Rotational constants in cm-1:     0.017989     0.008107     0.007110
Rotational constants in MHz :   539.289716   243.045044   213.157932

                             ****ORCA TERMINATED NORMALLY****
TOTAL RUN TIME: 0 days 0 hours 0 minutes 19 seconds 973 msec
