                         Program Version 4.2.1 -  RELEASE  -
|  1> ! wB97X-D3 SP def2-SVP
|  2> %pal
|  3> nprocs 24
|  4> end
|  5>
|  6> * xyz 0 1
|  7> S 	 -57.5015 	 4.29812 	 -21.3583
|  8> C 	 -57.764 	 3.66204 	 -19.7966
|  9> C 	 -57.0689 	 4.25367 	 -18.811
| 10> C 	 -56.2031 	 5.23121 	 -19.3537
| 11> C 	 -56.408 	 5.53343 	 -20.6849
| 12> H 	 -55.5393 	 5.72264 	 -18.7175
| 13> C 	 -57.1509 	 4.03998 	 -17.2885
| 14> H 	 -56.2379 	 3.76726 	 -16.8031
| 15> H 	 -57.731 	 3.10984 	 -17.0507
| 16> C 	 -57.647 	 5.30306 	 -16.5986
| 17> H 	 -57.0199 	 6.14872 	 -16.9176
| 18> H 	 -58.7295 	 5.44067 	 -16.8435
| 19> C 	 -57.6057 	 5.1955 	 -15.068
| 20> H 	 -58.4097 	 4.49948 	 -14.796
| 21> H 	 -56.5851 	 4.97403 	 -14.7268
| 22> H 	 -57.8213 	 6.21571 	 -14.748
| 23> S 	 -54.833 	 5.82009 	 -23.091
| 24> C 	 -54.117 	 7.37788 	 -23.3701
| 25> C 	 -54.3687 	 8.19291 	 -22.3193
| 26> C 	 -55.268 	 7.70137 	 -21.2813
| 27> C 	 -55.6356 	 6.38877 	 -21.5849
| 28> H 	 -53.7584 	 9.04453 	 -22.3623
| 29> C 	 -55.7353 	 8.49972 	 -20.0667
| 30> H 	 -55.85 	 7.89435 	 -19.1563
| 31> H 	 -56.7401 	 8.82858 	 -20.2696
| 32> C 	 -54.8607 	 9.68732 	 -19.7669
| 33> H 	 -55.0104 	 10.4453 	 -20.4588
| 34> H 	 -53.7679 	 9.60829 	 -19.6524
| 35> C 	 -55.5627 	 10.3274 	 -18.5595
| 36> H 	 -55.5257 	 9.56602 	 -17.7926
| 37> H 	 -56.65 	 10.4345 	 -18.7818
| 38> H 	 -55.1426 	 11.2419 	 -18.2162
| 39> H 	 -58.5215 	 2.89144 	 -19.6631
| 40> H 	 -53.385 	 7.5624 	 -24.1099
| 41> *
| 42>
| 43>                          ****END OF INPUT****

CARTESIAN COORDINATES (ANGSTROEM)
---------------------------------
  S    -57.501500    4.298120  -21.358300
  C    -57.764000    3.662040  -19.796600
  C    -57.068900    4.253670  -18.811000
  C    -56.203100    5.231210  -19.353700
  C    -56.408000    5.533430  -20.684900
  H    -55.539300    5.722640  -18.717500
  C    -57.150900    4.039980  -17.288500
  H    -56.237900    3.767260  -16.803100
  H    -57.731000    3.109840  -17.050700
  C    -57.647000    5.303060  -16.598600
  H    -57.019900    6.148720  -16.917600
  H    -58.729500    5.440670  -16.843500
  C    -57.605700    5.195500  -15.068000
  H    -58.409700    4.499480  -14.796000
  H    -56.585100    4.974030  -14.726800
  H    -57.821300    6.215710  -14.748000
  S    -54.833000    5.820090  -23.091000
  C    -54.117000    7.377880  -23.370100
  C    -54.368700    8.192910  -22.319300
  C    -55.268000    7.701370  -21.281300
  C    -55.635600    6.388770  -21.584900
  H    -53.758400    9.044530  -22.362300
  C    -55.735300    8.499720  -20.066700
  H    -55.850000    7.894350  -19.156300
  H    -56.740100    8.828580  -20.269600
  C    -54.860700    9.687320  -19.766900
  H    -55.010400   10.445300  -20.458800
  H    -53.767900    9.608290  -19.652400
  C    -55.562700   10.327400  -18.559500
  H    -55.525700    9.566020  -17.792600
  H    -56.650000   10.434500  -18.781800
  H    -55.142600   11.241900  -18.216200
  H    -58.521500    2.891440  -19.663100
  H    -53.385000    7.562400  -24.109900

 Total Charge           Charge          ....    0
 Multiplicity           Mult            ....    1
 Number of Electrons    NEL             ....  134
 Basis Dimension        Dim             ....  322

ORBITAL ENERGIES
----------------

  NO   OCC          E(Eh)            E(eV)
   0   2.0000     -88.962398     -2420.7899
   1   2.0000     -88.962022     -2420.7797
   2   2.0000     -10.330010      -281.0939
   3   2.0000     -10.328449      -281.0514
   4   2.0000     -10.309911      -280.5469
   5   2.0000     -10.308230      -280.5012
   6   2.0000     -10.306427      -280.4521
   7   2.0000     -10.295233      -280.1475
   8   2.0000     -10.295011      -280.1415
   9   2.0000     -10.294204      -280.1195
  10   2.0000     -10.290018      -280.0056
  11   2.0000     -10.289555      -279.9930
  12   2.0000     -10.287959      -279.9496
  13   2.0000     -10.282124      -279.7908
  14   2.0000     -10.280385      -279.7435
  15   2.0000     -10.276033      -279.6251
  16   2.0000      -8.077532      -219.8008
  17   2.0000      -8.076623      -219.7761
  18   2.0000      -6.035932      -164.2461
  19   2.0000      -6.035277      -164.2282
  20   2.0000      -6.032018      -164.1396
  21   2.0000      -6.031221      -164.1179
  22   2.0000      -6.028288      -164.0380
  23   2.0000      -6.027228      -164.0092
  24   2.0000      -1.006589       -27.3907
  25   2.0000      -0.984334       -26.7851
  26   2.0000      -0.921497       -25.0752
  27   2.0000      -0.914448       -24.8834
  28   2.0000      -0.874065       -23.7845
  29   2.0000      -0.853832       -23.2340
  30   2.0000      -0.842921       -22.9370
  31   2.0000      -0.815846       -22.2003
  32   2.0000      -0.783001       -21.3065
  33   2.0000      -0.770684       -20.9714
  34   2.0000      -0.710574       -19.3357
  35   2.0000      -0.705449       -19.1962
  36   2.0000      -0.688296       -18.7295
  37   2.0000      -0.654335       -17.8054
  38   2.0000      -0.639395       -17.3988
  39   2.0000      -0.632428       -17.2092
  40   2.0000      -0.602603       -16.3976
  41   2.0000      -0.577922       -15.7261
  42   2.0000      -0.575688       -15.6653
  43   2.0000      -0.566341       -15.4109
  44   2.0000      -0.539118       -14.6701
  45   2.0000      -0.526024       -14.3138
  46   2.0000      -0.522379       -14.2147
  47   2.0000      -0.504905       -13.7392
  48   2.0000      -0.501291       -13.6408
  49   2.0000      -0.500712       -13.6251
  50   2.0000      -0.486223       -13.2308
  51   2.0000      -0.479320       -13.0430
  52   2.0000      -0.472169       -12.8484
  53   2.0000      -0.464691       -12.6449
  54   2.0000      -0.456441       -12.4204
  55   2.0000      -0.455913       -12.4060
  56   2.0000      -0.443329       -12.0636
  57   2.0000      -0.439705       -11.9650
  58   2.0000      -0.433443       -11.7946
  59   2.0000      -0.423968       -11.5367
  60   2.0000      -0.422538       -11.4978
  61   2.0000      -0.420658       -11.4467
  62   2.0000      -0.410370       -11.1667
  63   2.0000      -0.353620        -9.6225
  64   2.0000      -0.330319        -8.9884
  65   2.0000      -0.326935        -8.8964
  66   2.0000      -0.290323        -7.9001
  67   0.0000       0.029584         0.8050
  68   0.0000       0.075472         2.0537
  69   0.0000       0.110758         3.0139
  70   0.0000       0.121559         3.3078
  71   0.0000       0.129953         3.5362

MULLIKEN ATOMIC CHARGES
-----------------------
   0 S :    0.100122
   1 C :   -0.130496
   2 C :   -0.051024
   3 C :    0.040499
   4 C :   -0.178291
   5 H :   -0.007587
   6 C :    0.079409
   7 H :    0.012587
   8 H :    0.016942
   9 C :   -0.132841
  10 H :    0.033892
  11 H :    0.039955
  12 C :   -0.026398
  13 H :    0.044086
  14 H :    0.032791
  15 H :    0.032797
  16 S :    0.096800
  17 C :   -0.079575
  18 C :   -0.032625
  19 C :   -0.023485
  20 C :   -0.112899
  21 H :   -0.001144
  22 C :    0.067377
  23 H :    0.013056
  24 H :    0.036063
  25 C :   -0.062830
  26 H :    0.014638
  27 H :    0.045490
  28 C :   -0.019181
  29 H :    0.008493
  30 H :    0.025776
  31 H :    0.026299
  32 H :    0.043727
  33 H :    0.047577
Sum of atomic charges:   -0.0000000

LOEWDIN ATOMIC CHARGES
----------------------
   0 S :    0.404852
   1 C :   -0.196611
   2 C :   -0.069483
   3 C :   -0.045424
   4 C :   -0.180708
   5 H :    0.017127
   6 C :   -0.035314
   7 H :    0.024204
   8 H :    0.032285
   9 C :   -0.043121
  10 H :    0.021721
  11 H :    0.030530
  12 C :   -0.063197
  13 H :    0.029746
  14 H :    0.023512
  15 H :    0.028098
  16 S :    0.381679
  17 C :   -0.181667
  18 C :   -0.071340
  19 C :   -0.048974
  20 C :   -0.189592
  21 H :    0.022854
  22 C :   -0.026315
  23 H :    0.029292
  24 H :    0.039582
  25 C :   -0.041253
  26 H :    0.017246
  27 H :    0.029552
  28 C :   -0.054060
  29 H :    0.016499
  30 H :    0.029575
  31 H :    0.016826
  32 H :    0.026149
  33 H :    0.025730

  Mayer bond orders larger than 0.100000
B(  0-S ,  1-C ) :   1.1565 B(  0-S ,  4-C ) :   1.1359 B(  1-C ,  2-C ) :   1.6310
B(  1-C , 32-H ) :   0.9607 B(  2-C ,  3-C ) :   1.2550 B(  2-C ,  6-C ) :   1.0171
B(  3-C ,  4-C ) :   1.5688 B(  3-C ,  5-H ) :   0.9911 B(  4-C , 20-C ) :   1.0635
B(  6-C ,  7-H ) :   0.9387 B(  6-C ,  8-H ) :   0.9398 B(  6-C ,  9-C ) :   1.0574
B(  9-C , 10-H ) :   0.9571 B(  9-C , 11-H ) :   0.9551 B(  9-C , 12-C ) :   1.0847
B( 12-C , 13-H ) :   0.9759 B( 12-C , 14-H ) :   0.9728 B( 12-C , 15-H ) :   0.9743
B( 16-S , 17-C ) :   1.1343 B( 16-S , 20-C ) :   1.1279 B( 17-C , 18-C ) :   1.6492
B( 17-C , 33-H ) :   0.9656 B( 18-C , 19-C ) :   1.2056 B( 18-C , 21-H ) :   0.9945
B( 19-C , 20-C ) :   1.6084 B( 19-C , 22-C ) :   1.0207 B( 22-C , 23-H ) :   0.9386
B( 22-C , 24-H ) :   0.9172 B( 22-C , 25-C ) :   1.0846 B( 25-C , 26-H ) :   0.9355
B( 25-C , 27-H ) :   0.9602 B( 25-C , 28-C ) :   1.0777 B( 28-C , 29-H ) :   0.9756
B( 28-C , 30-H ) :   0.9694 B( 28-C , 31-H ) :   0.9712

Dispersion correction           -0.013657466
FINAL SINGLE POINT ENERGY     -1339.865682593171

DIPOLE MOMENT
-------------
                                X             Y             Z
Electronic contribution:      2.13936     -14.63031     -29.78232
Nuclear contribution   :     -1.99502      15.02298      30.50094
                        -----------------------------------------
Total Dipole Moment    :      0.14434       0.39266       0.71862
                        -----------------------------------------
Magnitude (a.u.)       :      0.83152
Magnitude (Debye)      :      2.11357

Rotational constants in cm-1:     0.016333     0.009625     0.006384
Rotational constants in MHz :   489.655460   288.555429   191.396669

                             ****ORCA TERMINATED NORMALLY****
TOTAL RUN TIME: 0 days 0 hours 0 minutes 21 seconds 843 msec
