                         Program Version 4.2.1 -  RELEASE  -
|  1> ! wB97X-D3 SP def2-SVP
|  2> %pal
|  3> nprocs 24
|  4> end
|  5>
|  6> * xyz 0 1
|  7> S 	 -123.958 	 67.5281 	 -40.936
|  8> C 	 -123.367 	 69.0917 	 -40.457
|  9> C 	 -122.505 	 69.6378 	 -41.4083
| 10> C 	 -122.35 	 68.7027 	 -42.5087
| 11> C 	 -123.121 	 67.5635 	 -42.4935
| 12> H 	 -121.691 	 68.8395 	 -43.4121
| 13> C 	 -121.752 	 71.0008 	 -41.2979
| 14> H 	 -120.861 	 70.8383 	 -41.9633
| 15> H 	 -121.381 	 71.0729 	 -40.2393
| 16> C 	 -122.527 	 72.2049 	 -41.7744
| 17> H 	 -121.901 	 73.066 	 -41.794
| 18> H 	 -122.83 	 72.034 	 -42.7917
| 19> C 	 -123.845 	 72.4259 	 -40.9527
| 20> H 	 -124.439 	 73.3313 	 -41.2501
| 21> H 	 -124.608 	 71.6503 	 -41.0983
| 22> H 	 -123.501 	 72.2778 	 -39.9744
| 23> S 	 -122.501 	 64.9468 	 -42.8375
| 24> C 	 -122.345 	 64.3164 	 -44.4117
| 25> C 	 -122.757 	 65.2248 	 -45.3402
| 26> C 	 -123.225 	 66.4664 	 -44.7977
| 27> C 	 -123.015 	 66.4502 	 -43.4417
| 28> H 	 -122.544 	 64.9528 	 -46.4113
| 29> C 	 -123.837 	 67.5471 	 -45.6479
| 30> H 	 -123.929 	 68.4511 	 -45.0404
| 31> H 	 -124.926 	 67.2626 	 -45.8273
| 32> C 	 -123.105 	 67.9537 	 -46.8803
| 33> H 	 -123.736 	 68.5312 	 -47.5843
| 34> H 	 -122.771 	 67.0564 	 -47.4636
| 35> C 	 -121.831 	 68.7526 	 -46.7274
| 36> H 	 -121.229 	 68.8417 	 -47.6386
| 37> H 	 -121.136 	 68.3828 	 -45.9215
| 38> H 	 -122.001 	 69.8361 	 -46.3713
| 39> H 	 -123.608 	 69.5603 	 -39.5162
| 40> H 	 -122.055 	 63.3603 	 -44.8472
| 41> *
| 42>
| 43>                          ****END OF INPUT****

CARTESIAN COORDINATES (ANGSTROEM)
---------------------------------
  S    -123.958000   67.528100  -40.936000
  C    -123.367000   69.091700  -40.457000
  C    -122.505000   69.637800  -41.408300
  C    -122.350000   68.702700  -42.508700
  C    -123.121000   67.563500  -42.493500
  H    -121.691000   68.839500  -43.412100
  C    -121.752000   71.000800  -41.297900
  H    -120.861000   70.838300  -41.963300
  H    -121.381000   71.072900  -40.239300
  C    -122.527000   72.204900  -41.774400
  H    -121.901000   73.066000  -41.794000
  H    -122.830000   72.034000  -42.791700
  C    -123.845000   72.425900  -40.952700
  H    -124.439000   73.331300  -41.250100
  H    -124.608000   71.650300  -41.098300
  H    -123.501000   72.277800  -39.974400
  S    -122.501000   64.946800  -42.837500
  C    -122.345000   64.316400  -44.411700
  C    -122.757000   65.224800  -45.340200
  C    -123.225000   66.466400  -44.797700
  C    -123.015000   66.450200  -43.441700
  H    -122.544000   64.952800  -46.411300
  C    -123.837000   67.547100  -45.647900
  H    -123.929000   68.451100  -45.040400
  H    -124.926000   67.262600  -45.827300
  C    -123.105000   67.953700  -46.880300
  H    -123.736000   68.531200  -47.584300
  H    -122.771000   67.056400  -47.463600
  C    -121.831000   68.752600  -46.727400
  H    -121.229000   68.841700  -47.638600
  H    -121.136000   68.382800  -45.921500
  H    -122.001000   69.836100  -46.371300
  H    -123.608000   69.560300  -39.516200
  H    -122.055000   63.360300  -44.847200

 Total Charge           Charge          ....    0
 Multiplicity           Mult            ....    1
 Number of Electrons    NEL             ....  134
 Basis Dimension        Dim             ....  322

ORBITAL ENERGIES
----------------

  NO   OCC          E(Eh)            E(eV)
   0   2.0000     -88.967603     -2420.9316
   1   2.0000     -88.965073     -2420.8627
   2   2.0000     -10.328478      -281.0522
   3   2.0000     -10.323573      -280.9187
   4   2.0000     -10.316747      -280.7330
   5   2.0000     -10.309810      -280.5442
   6   2.0000     -10.306944      -280.4662
   7   2.0000     -10.303422      -280.3704
   8   2.0000     -10.302472      -280.3445
   9   2.0000     -10.298708      -280.2421
  10   2.0000     -10.295667      -280.1593
  11   2.0000     -10.291287      -280.0401
  12   2.0000     -10.291188      -280.0375
  13   2.0000     -10.286971      -279.9227
  14   2.0000     -10.284532      -279.8564
  15   2.0000     -10.277607      -279.6679
  16   2.0000      -8.083925      -219.9748
  17   2.0000      -8.079662      -219.8588
  18   2.0000      -6.042359      -164.4210
  19   2.0000      -6.038206      -164.3079
  20   2.0000      -6.038197      -164.3077
  21   2.0000      -6.034646      -164.2111
  22   2.0000      -6.034101      -164.1962
  23   2.0000      -6.030485      -164.0978
  24   2.0000      -1.016092       -27.6493
  25   2.0000      -0.986576       -26.8461
  26   2.0000      -0.916724       -24.9453
  27   2.0000      -0.910539       -24.7770
  28   2.0000      -0.871250       -23.7079
  29   2.0000      -0.852759       -23.2047
  30   2.0000      -0.839900       -22.8548
  31   2.0000      -0.814844       -22.1730
  32   2.0000      -0.783532       -21.3210
  33   2.0000      -0.777278       -21.1508
  34   2.0000      -0.708320       -19.2744
  35   2.0000      -0.697602       -18.9827
  36   2.0000      -0.694660       -18.9027
  37   2.0000      -0.650956       -17.7134
  38   2.0000      -0.640501       -17.4289
  39   2.0000      -0.616572       -16.7778
  40   2.0000      -0.598517       -16.2865
  41   2.0000      -0.568719       -15.4756
  42   2.0000      -0.557655       -15.1746
  43   2.0000      -0.553429       -15.0596
  44   2.0000      -0.540597       -14.7104
  45   2.0000      -0.533547       -14.5185
  46   2.0000      -0.516598       -14.0573
  47   2.0000      -0.514749       -14.0070
  48   2.0000      -0.506323       -13.7777
  49   2.0000      -0.495477       -13.4826
  50   2.0000      -0.489802       -13.3282
  51   2.0000      -0.477893       -13.0041
  52   2.0000      -0.467922       -12.7328
  53   2.0000      -0.460199       -12.5227
  54   2.0000      -0.456882       -12.4324
  55   2.0000      -0.453209       -12.3324
  56   2.0000      -0.447533       -12.1780
  57   2.0000      -0.441151       -12.0043
  58   2.0000      -0.440008       -11.9732
  59   2.0000      -0.420230       -11.4350
  60   2.0000      -0.413514       -11.2523
  61   2.0000      -0.411298       -11.1920
  62   2.0000      -0.407808       -11.0970
  63   2.0000      -0.346179        -9.4200
  64   2.0000      -0.331853        -9.0302
  65   2.0000      -0.328008        -8.9256
  66   2.0000      -0.299535        -8.1508
  67   0.0000       0.037902         1.0314
  68   0.0000       0.070420         1.9162
  69   0.0000       0.116380         3.1669
  70   0.0000       0.122687         3.3385
  71   0.0000       0.130341         3.5468

MULLIKEN ATOMIC CHARGES
-----------------------
   0 S :    0.101776
   1 C :   -0.123899
   2 C :   -0.096093
   3 C :    0.015749
   4 C :   -0.167971
   5 H :    0.024859
   6 C :    0.014442
   7 H :    0.036571
   8 H :    0.046407
   9 C :   -0.015916
  10 H :    0.031723
  11 H :    0.018126
  12 C :   -0.065495
  13 H :    0.048689
  14 H :    0.038273
  15 H :    0.014524
  16 S :    0.141833
  17 C :   -0.077711
  18 C :   -0.091861
  19 C :   -0.036642
  20 C :   -0.167390
  21 H :    0.037394
  22 C :    0.090231
  23 H :    0.019342
  24 H :    0.057768
  25 C :   -0.066103
  26 H :    0.034900
  27 H :    0.030468
  28 C :   -0.107853
  29 H :    0.041882
  30 H :    0.043758
  31 H :    0.031037
  32 H :    0.048897
  33 H :    0.048283
Sum of atomic charges:   -0.0000000

LOEWDIN ATOMIC CHARGES
----------------------
   0 S :    0.397390
   1 C :   -0.194956
   2 C :   -0.066950
   3 C :   -0.067577
   4 C :   -0.199682
   5 H :    0.036488
   6 C :   -0.034058
   7 H :    0.038241
   8 H :    0.034661
   9 C :   -0.035897
  10 H :    0.021941
  11 H :    0.022375
  12 C :   -0.069453
  13 H :    0.035201
  14 H :    0.027961
  15 H :    0.013351
  16 S :    0.450111
  17 C :   -0.211602
  18 C :   -0.081206
  19 C :   -0.058385
  20 C :   -0.213039
  21 H :    0.037652
  22 C :   -0.037749
  23 H :    0.031915
  24 H :    0.049335
  25 C :   -0.051252
  26 H :    0.031613
  27 H :    0.026490
  28 C :   -0.079985
  29 H :    0.028665
  30 H :    0.026574
  31 H :    0.026868
  32 H :    0.026498
  33 H :    0.038462

  Mayer bond orders larger than 0.100000
B(  0-S ,  1-C ) :   1.1552 B(  0-S ,  4-C ) :   1.1335 B(  1-C ,  2-C ) :   1.5968
B(  1-C , 32-H ) :   0.9695 B(  2-C ,  3-C ) :   1.2558 B(  2-C ,  6-C ) :   0.9999
B(  3-C ,  4-C ) :   1.6001 B(  3-C ,  5-H ) :   0.9764 B(  4-C , 20-C ) :   1.0172
B(  6-C ,  7-H ) :   0.9415 B(  6-C ,  8-H ) :   0.9467 B(  6-C ,  9-C ) :   1.0792
B(  9-C , 10-H ) :   0.9573 B(  9-C , 11-H ) :   0.9501 B(  9-C , 12-C ) :   1.0655
B( 12-C , 13-H ) :   0.9734 B( 12-C , 14-H ) :   0.9713 B( 12-C , 15-H ) :   0.9791
B( 16-S , 17-C ) :   1.1480 B( 16-S , 20-C ) :   1.1614 B( 17-C , 18-C ) :   1.6560
B( 17-C , 33-H ) :   0.9599 B( 18-C , 19-C ) :   1.2220 B( 18-C , 21-H ) :   0.9756
B( 19-C , 20-C ) :   1.5964 B( 19-C , 22-C ) :   1.0478 B( 22-C , 23-H ) :   0.9269
B( 22-C , 24-H ) :   0.9272 B( 22-C , 25-C ) :   1.0676 B( 25-C , 26-H ) :   0.9490
B( 25-C , 27-H ) :   0.9552 B( 25-C , 28-C ) :   1.0768 B( 28-C , 29-H ) :   0.9723
B( 28-C , 30-H ) :   0.9712 B( 28-C , 31-H ) :   0.9704

Dispersion correction           -0.014951782
FINAL SINGLE POINT ENERGY     -1339.876692999011

DIPOLE MOMENT
-------------
                                X             Y             Z
Electronic contribution:     -3.07812     -25.02555      12.61321
Nuclear contribution   :      3.27466      25.44946     -13.08857
                        -----------------------------------------
Total Dipole Moment    :      0.19653       0.42391      -0.47536
                        -----------------------------------------
Magnitude (a.u.)       :      0.66655
Magnitude (Debye)      :      1.69425

Rotational constants in cm-1:     0.019619     0.009032     0.006818
Rotational constants in MHz :   588.164505   270.778511   204.389568

                             ****ORCA TERMINATED NORMALLY****
TOTAL RUN TIME: 0 days 0 hours 0 minutes 22 seconds 15 msec
