                         Program Version 4.2.1 -  RELEASE  -
|  1> ! wB97X-D3 SP def2-SVP
|  2> %pal
|  3> nprocs 24
|  4> end
|  5>
|  6> * xyz 0 1
|  7> S 	 -116.308 	 60.5429 	 -38.6806
|  8> C 	 -115.946 	 59.4583 	 -37.4535
|  9> C 	 -116.752 	 59.6251 	 -36.3454
| 10> C 	 -117.565 	 60.8112 	 -36.4657
| 11> C 	 -117.37 	 61.4759 	 -37.6622
| 12> H 	 -118.192 	 61.1897 	 -35.6726
| 13> C 	 -116.745 	 58.7304 	 -35.0411
| 14> H 	 -117.776 	 58.6905 	 -34.7344
| 15> H 	 -116.2 	 59.2862 	 -34.2616
| 16> C 	 -115.987 	 57.3924 	 -35.1629
| 17> H 	 -116.61 	 56.7801 	 -35.7885
| 18> H 	 -114.953 	 57.5599 	 -35.6202
| 19> C 	 -115.793 	 56.7065 	 -33.8174
| 20> H 	 -116.786 	 56.6155 	 -33.4056
| 21> H 	 -115.283 	 55.7689 	 -33.7421
| 22> H 	 -115.28 	 57.4129 	 -33.0516
| 23> S 	 -118.759 	 62.3528 	 -39.7928
| 24> C 	 -119.663 	 63.842 	 -39.763
| 25> C 	 -119.347 	 64.4609 	 -38.6167
| 26> C 	 -118.509 	 63.762 	 -37.6801
| 27> C 	 -118.15 	 62.5219 	 -38.2087
| 28> H 	 -119.69 	 65.504 	 -38.5433
| 29> C 	 -118.162 	 64.4267 	 -36.322
| 30> H 	 -117.881 	 65.4581 	 -36.6116
| 31> H 	 -117.189 	 63.9539 	 -35.993
| 32> C 	 -119.2 	 64.3615 	 -35.2662
| 33> H 	 -119.44 	 63.2968 	 -35.1203
| 34> H 	 -120.158 	 64.7574 	 -35.5395
| 35> C 	 -118.816 	 65.0077 	 -33.938
| 36> H 	 -119.621 	 64.7723 	 -33.2404
| 37> H 	 -118.591 	 66.0703 	 -34.0004
| 38> H 	 -117.959 	 64.5639 	 -33.4356
| 39> H 	 -115.172 	 58.6796 	 -37.4836
| 40> H 	 -120.115 	 64.3885 	 -40.6036
| 41> *
| 42>
| 43>                          ****END OF INPUT****

CARTESIAN COORDINATES (ANGSTROEM)
---------------------------------
  S    -116.308000   60.542900  -38.680600
  C    -115.946000   59.458300  -37.453500
  C    -116.752000   59.625100  -36.345400
  C    -117.565000   60.811200  -36.465700
  C    -117.370000   61.475900  -37.662200
  H    -118.192000   61.189700  -35.672600
  C    -116.745000   58.730400  -35.041100
  H    -117.776000   58.690500  -34.734400
  H    -116.200000   59.286200  -34.261600
  C    -115.987000   57.392400  -35.162900
  H    -116.610000   56.780100  -35.788500
  H    -114.953000   57.559900  -35.620200
  C    -115.793000   56.706500  -33.817400
  H    -116.786000   56.615500  -33.405600
  H    -115.283000   55.768900  -33.742100
  H    -115.280000   57.412900  -33.051600
  S    -118.759000   62.352800  -39.792800
  C    -119.663000   63.842000  -39.763000
  C    -119.347000   64.460900  -38.616700
  C    -118.509000   63.762000  -37.680100
  C    -118.150000   62.521900  -38.208700
  H    -119.690000   65.504000  -38.543300
  C    -118.162000   64.426700  -36.322000
  H    -117.881000   65.458100  -36.611600
  H    -117.189000   63.953900  -35.993000
  C    -119.200000   64.361500  -35.266200
  H    -119.440000   63.296800  -35.120300
  H    -120.158000   64.757400  -35.539500
  C    -118.816000   65.007700  -33.938000
  H    -119.621000   64.772300  -33.240400
  H    -118.591000   66.070300  -34.000400
  H    -117.959000   64.563900  -33.435600
  H    -115.172000   58.679600  -37.483600
  H    -120.115000   64.388500  -40.603600

 Total Charge           Charge          ....    0
 Multiplicity           Mult            ....    1
 Number of Electrons    NEL             ....  134
 Basis Dimension        Dim             ....  322

ORBITAL ENERGIES
----------------

  NO   OCC          E(Eh)            E(eV)
   0   2.0000     -88.965473     -2420.8736
   1   2.0000     -88.959825     -2420.7199
   2   2.0000     -10.325678      -280.9760
   3   2.0000     -10.322653      -280.8937
   4   2.0000     -10.310734      -280.5693
   5   2.0000     -10.309401      -280.5331
   6   2.0000     -10.304268      -280.3934
   7   2.0000     -10.301439      -280.3164
   8   2.0000     -10.299855      -280.2733
   9   2.0000     -10.296956      -280.1944
  10   2.0000     -10.296058      -280.1700
  11   2.0000     -10.295967      -280.1675
  12   2.0000     -10.287207      -279.9291
  13   2.0000     -10.284163      -279.8463
  14   2.0000     -10.283914      -279.8395
  15   2.0000     -10.277600      -279.6677
  16   2.0000      -8.081847      -219.9182
  17   2.0000      -8.075796      -219.7536
  18   2.0000      -6.040226      -164.3629
  19   2.0000      -6.036099      -164.2506
  20   2.0000      -6.034386      -164.2040
  21   2.0000      -6.032655      -164.1569
  22   2.0000      -6.030078      -164.0868
  23   2.0000      -6.026403      -163.9868
  24   2.0000      -1.017600       -27.6903
  25   2.0000      -0.991817       -26.9887
  26   2.0000      -0.912512       -24.8307
  27   2.0000      -0.911087       -24.7919
  28   2.0000      -0.879057       -23.9203
  29   2.0000      -0.854615       -23.2553
  30   2.0000      -0.845101       -22.9964
  31   2.0000      -0.816668       -22.2227
  32   2.0000      -0.781319       -21.2608
  33   2.0000      -0.772630       -21.0243
  34   2.0000      -0.711899       -19.3718
  35   2.0000      -0.701911       -19.1000
  36   2.0000      -0.693971       -18.8839
  37   2.0000      -0.661865       -18.0103
  38   2.0000      -0.636008       -17.3066
  39   2.0000      -0.615794       -16.7566
  40   2.0000      -0.592924       -16.1343
  41   2.0000      -0.575954       -15.6725
  42   2.0000      -0.566893       -15.4260
  43   2.0000      -0.562109       -15.2958
  44   2.0000      -0.532638       -14.4938
  45   2.0000      -0.528234       -14.3740
  46   2.0000      -0.519931       -14.1480
  47   2.0000      -0.512497       -13.9457
  48   2.0000      -0.510718       -13.8973
  49   2.0000      -0.500606       -13.6222
  50   2.0000      -0.490987       -13.3604
  51   2.0000      -0.484031       -13.1712
  52   2.0000      -0.476712       -12.9720
  53   2.0000      -0.464987       -12.6529
  54   2.0000      -0.460475       -12.5301
  55   2.0000      -0.445355       -12.1187
  56   2.0000      -0.444107       -12.0848
  57   2.0000      -0.439444       -11.9579
  58   2.0000      -0.432746       -11.7756
  59   2.0000      -0.424838       -11.5604
  60   2.0000      -0.419865       -11.4251
  61   2.0000      -0.414640       -11.2829
  62   2.0000      -0.409521       -11.1436
  63   2.0000      -0.359838        -9.7917
  64   2.0000      -0.330840        -9.0026
  65   2.0000      -0.324914        -8.8414
  66   2.0000      -0.290184        -7.8963
  67   0.0000       0.031584         0.8594
  68   0.0000       0.078216         2.1284
  69   0.0000       0.118439         3.2229
  70   0.0000       0.127686         3.4745
  71   0.0000       0.131463         3.5773

MULLIKEN ATOMIC CHARGES
-----------------------
   0 S :    0.120656
   1 C :   -0.118731
   2 C :   -0.105264
   3 C :    0.023163
   4 C :   -0.142634
   5 H :    0.006174
   6 C :    0.052876
   7 H :    0.032365
   8 H :    0.035859
   9 C :   -0.095904
  10 H :    0.037164
  11 H :    0.048634
  12 C :   -0.049757
  13 H :    0.020729
  14 H :    0.042296
  15 H :    0.031403
  16 S :    0.094595
  17 C :   -0.095583
  18 C :   -0.055844
  19 C :   -0.050807
  20 C :   -0.139151
  21 H :    0.022194
  22 C :    0.062053
  23 H :    0.025288
  24 H :    0.030903
  25 C :   -0.041386
  26 H :    0.017306
  27 H :    0.018531
  28 C :   -0.037193
  29 H :    0.032721
  30 H :    0.036367
  31 H :    0.021037
  32 H :    0.052126
  33 H :    0.067818
Sum of atomic charges:   -0.0000000

LOEWDIN ATOMIC CHARGES
----------------------
   0 S :    0.439197
   1 C :   -0.223128
   2 C :   -0.064555
   3 C :   -0.054729
   4 C :   -0.198256
   5 H :    0.029161
   6 C :   -0.028006
   7 H :    0.028965
   8 H :    0.032615
   9 C :   -0.044951
  10 H :    0.023688
  11 H :    0.031257
  12 C :   -0.070293
  13 H :    0.023185
  14 H :    0.023919
  15 H :    0.031971
  16 S :    0.418567
  17 C :   -0.204491
  18 C :   -0.076783
  19 C :   -0.064735
  20 C :   -0.209014
  21 H :    0.032615
  22 C :   -0.034581
  23 H :    0.031953
  24 H :    0.035525
  25 C :   -0.045527
  26 H :    0.025760
  27 H :    0.023160
  28 C :   -0.064759
  29 H :    0.030148
  30 H :    0.025702
  31 H :    0.022944
  32 H :    0.031938
  33 H :    0.041538

  Mayer bond orders larger than 0.100000
B(  0-S ,  1-C ) :   1.1568 B(  0-S ,  4-C ) :   1.1499 B(  1-C ,  2-C ) :   1.6105
B(  1-C , 32-H ) :   0.9582 B(  2-C ,  3-C ) :   1.2712 B(  2-C ,  6-C ) :   0.9958
B(  3-C ,  4-C ) :   1.5449 B(  3-C ,  5-H ) :   0.9968 B(  4-C , 20-C ) :   1.0710
B(  6-C ,  7-H ) :   0.9421 B(  6-C ,  8-H ) :   0.9434 B(  6-C ,  9-C ) :   1.0667
B(  9-C , 10-H ) :   0.9569 B(  9-C , 11-H ) :   0.9482 B(  9-C , 12-C ) :   1.0825
B( 12-C , 13-H ) :   0.9714 B( 12-C , 14-H ) :   0.9751 B( 12-C , 15-H ) :   0.9734
B( 16-S , 17-C ) :   1.1287 B( 16-S , 20-C ) :   1.1577 B( 17-C , 18-C ) :   1.6408
B( 17-C , 33-H ) :   0.9618 B( 18-C , 19-C ) :   1.2444 B( 18-C , 21-H ) :   0.9798
B( 19-C , 20-C ) :   1.5707 B( 19-C , 22-C ) :   1.0374 B( 22-C , 23-H ) :   0.9326
B( 22-C , 24-H ) :   0.9307 B( 22-C , 25-C ) :   1.0766 B( 25-C , 26-H ) :   0.9446
B( 25-C , 27-H ) :   0.9481 B( 25-C , 28-C ) :   1.0885 B( 28-C , 29-H ) :   0.9724
B( 28-C , 30-H ) :   0.9743 B( 28-C , 31-H ) :   0.9733

Dispersion correction           -0.013446681
FINAL SINGLE POINT ENERGY     -1339.880533152701

DIPOLE MOMENT
-------------
                                X             Y             Z
Electronic contribution:     -0.94124       3.05252     -29.42433
Nuclear contribution   :      0.92158      -3.00943      30.09209
                        -----------------------------------------
Total Dipole Moment    :     -0.01966       0.04309       0.66776
                        -----------------------------------------
Magnitude (a.u.)       :      0.66943
Magnitude (Debye)      :      1.70157

Rotational constants in cm-1:     0.018913     0.007884     0.005872
Rotational constants in MHz :   566.990711   236.349907   176.035999

                             ****ORCA TERMINATED NORMALLY****
TOTAL RUN TIME: 0 days 0 hours 0 minutes 21 seconds 52 msec
