                         Program Version 4.2.1 -  RELEASE  -
|  1> ! wB97X-D3 SP def2-SVP
|  2> %pal
|  3> nprocs 24
|  4> end
|  5>
|  6> * xyz 0 1
|  7> S 	 -112.68 	 58.3634 	 -80.7181
|  8> C 	 -113.161 	 59.0047 	 -82.2377
|  9> C 	 -112.38 	 60.1456 	 -82.5332
| 10> C 	 -111.379 	 60.4037 	 -81.5556
| 11> C 	 -111.593 	 59.6757 	 -80.4165
| 12> H 	 -110.612 	 61.1437 	 -81.5868
| 13> C 	 -112.467 	 60.9384 	 -83.7768
| 14> H 	 -112.323 	 62.0538 	 -83.6557
| 15> H 	 -113.562 	 60.9347 	 -84.0499
| 16> C 	 -111.627 	 60.3374 	 -84.9324
| 17> H 	 -111.799 	 60.9227 	 -85.8136
| 18> H 	 -110.563 	 60.6501 	 -84.6917
| 19> C 	 -111.709 	 58.8759 	 -85.3333
| 20> H 	 -110.968 	 58.5621 	 -86.0601
| 21> H 	 -111.537 	 58.2973 	 -84.4297
| 22> H 	 -112.709 	 58.6339 	 -85.7191
| 23> S 	 -109.93 	 58.1606 	 -78.8693
| 24> C 	 -108.899 	 58.9527 	 -77.6955
| 25> C 	 -109.19 	 60.3137 	 -77.6263
| 26> C 	 -110.333 	 60.7464 	 -78.4615
| 27> C 	 -110.692 	 59.6844 	 -79.2455
| 28> H 	 -108.578 	 60.9854 	 -76.9611
| 29> C 	 -110.856 	 62.204 	 -78.6609
| 30> H 	 -111.649 	 62.2245 	 -79.4686
| 31> H 	 -109.982 	 62.705 	 -79.0514
| 32> C 	 -111.365 	 62.8031 	 -77.3517
| 33> H 	 -110.409 	 62.8052 	 -76.6847
| 34> H 	 -112.252 	 62.2105 	 -77.0183
| 35> C 	 -111.81 	 64.286 	 -77.5952
| 36> H 	 -110.921 	 64.8596 	 -77.9569
| 37> H 	 -112.248 	 64.8159 	 -76.7082
| 38> H 	 -112.605 	 64.2414 	 -78.3563
| 39> H 	 -114.069 	 58.7622 	 -82.8439
| 40> H 	 -108.198 	 58.4312 	 -77.049
| 41> *
| 42>
| 43>                          ****END OF INPUT****

CARTESIAN COORDINATES (ANGSTROEM)
---------------------------------
  S    -112.680000   58.363400  -80.718100
  C    -113.161000   59.004700  -82.237700
  C    -112.380000   60.145600  -82.533200
  C    -111.379000   60.403700  -81.555600
  C    -111.593000   59.675700  -80.416500
  H    -110.612000   61.143700  -81.586800
  C    -112.467000   60.938400  -83.776800
  H    -112.323000   62.053800  -83.655700
  H    -113.562000   60.934700  -84.049900
  C    -111.627000   60.337400  -84.932400
  H    -111.799000   60.922700  -85.813600
  H    -110.563000   60.650100  -84.691700
  C    -111.709000   58.875900  -85.333300
  H    -110.968000   58.562100  -86.060100
  H    -111.537000   58.297300  -84.429700
  H    -112.709000   58.633900  -85.719100
  S    -109.930000   58.160600  -78.869300
  C    -108.899000   58.952700  -77.695500
  C    -109.190000   60.313700  -77.626300
  C    -110.333000   60.746400  -78.461500
  C    -110.692000   59.684400  -79.245500
  H    -108.578000   60.985400  -76.961100
  C    -110.856000   62.204000  -78.660900
  H    -111.649000   62.224500  -79.468600
  H    -109.982000   62.705000  -79.051400
  C    -111.365000   62.803100  -77.351700
  H    -110.409000   62.805200  -76.684700
  H    -112.252000   62.210500  -77.018300
  C    -111.810000   64.286000  -77.595200
  H    -110.921000   64.859600  -77.956900
  H    -112.248000   64.815900  -76.708200
  H    -112.605000   64.241400  -78.356300
  H    -114.069000   58.762200  -82.843900
  H    -108.198000   58.431200  -77.049000

 Total Charge           Charge          ....    0
 Multiplicity           Mult            ....    1
 Number of Electrons    NEL             ....  134
 Basis Dimension        Dim             ....  322

ORBITAL ENERGIES
----------------

  NO   OCC          E(Eh)            E(eV)
   0   2.0000     -88.967846     -2420.9382
   1   2.0000     -88.963753     -2420.8268
   2   2.0000     -10.324708      -280.9496
   3   2.0000     -10.323727      -280.9229
   4   2.0000     -10.318974      -280.7936
   5   2.0000     -10.317093      -280.7424
   6   2.0000     -10.307373      -280.4779
   7   2.0000     -10.305150      -280.4174
   8   2.0000     -10.300017      -280.2777
   9   2.0000     -10.299914      -280.2749
  10   2.0000     -10.299793      -280.2716
  11   2.0000     -10.298129      -280.2263
  12   2.0000     -10.290077      -280.0072
  13   2.0000     -10.287863      -279.9470
  14   2.0000     -10.287438      -279.9354
  15   2.0000     -10.274893      -279.5940
  16   2.0000      -8.083189      -219.9548
  17   2.0000      -8.078756      -219.8341
  18   2.0000      -6.041615      -164.4007
  19   2.0000      -6.037557      -164.2903
  20   2.0000      -6.037333      -164.2842
  21   2.0000      -6.034062      -164.1952
  22   2.0000      -6.033286      -164.1741
  23   2.0000      -6.029374      -164.0676
  24   2.0000      -1.010766       -27.5043
  25   2.0000      -0.983830       -26.7714
  26   2.0000      -0.910565       -24.7777
  27   2.0000      -0.906201       -24.6590
  28   2.0000      -0.865132       -23.5415
  29   2.0000      -0.852444       -23.1962
  30   2.0000      -0.841990       -22.9117
  31   2.0000      -0.812400       -22.1065
  32   2.0000      -0.780212       -21.2307
  33   2.0000      -0.770461       -20.9653
  34   2.0000      -0.700978       -19.0746
  35   2.0000      -0.691020       -18.8036
  36   2.0000      -0.689094       -18.7512
  37   2.0000      -0.654214       -17.8021
  38   2.0000      -0.639490       -17.4014
  39   2.0000      -0.617389       -16.8000
  40   2.0000      -0.590761       -16.0754
  41   2.0000      -0.571433       -15.5495
  42   2.0000      -0.563926       -15.3452
  43   2.0000      -0.544565       -14.8184
  44   2.0000      -0.542044       -14.7498
  45   2.0000      -0.518126       -14.0989
  46   2.0000      -0.515136       -14.0176
  47   2.0000      -0.511759       -13.9257
  48   2.0000      -0.501275       -13.6404
  49   2.0000      -0.496198       -13.5022
  50   2.0000      -0.488588       -13.2951
  51   2.0000      -0.482812       -13.1380
  52   2.0000      -0.466910       -12.7053
  53   2.0000      -0.463470       -12.6117
  54   2.0000      -0.456884       -12.4324
  55   2.0000      -0.448103       -12.1935
  56   2.0000      -0.445309       -12.1175
  57   2.0000      -0.442733       -12.0474
  58   2.0000      -0.434142       -11.8136
  59   2.0000      -0.419513       -11.4155
  60   2.0000      -0.417843       -11.3701
  61   2.0000      -0.414594       -11.2817
  62   2.0000      -0.404038       -10.9944
  63   2.0000      -0.347563        -9.4577
  64   2.0000      -0.329057        -8.9541
  65   2.0000      -0.327377        -8.9084
  66   2.0000      -0.293646        -7.9905
  67   0.0000       0.034203         0.9307
  68   0.0000       0.069637         1.8949
  69   0.0000       0.108695         2.9577
  70   0.0000       0.116142         3.1604
  71   0.0000       0.130801         3.5593

MULLIKEN ATOMIC CHARGES
-----------------------
   0 S :    0.114353
   1 C :   -0.120748
   2 C :   -0.109659
   3 C :    0.041166
   4 C :   -0.150934
   5 H :    0.011168
   6 C :    0.027537
   7 H :    0.041051
   8 H :    0.020803
   9 C :   -0.081146
  10 H :    0.019474
  11 H :    0.024641
  12 C :   -0.029274
  13 H :    0.039152
  14 H :    0.042448
  15 H :    0.026329
  16 S :    0.106259
  17 C :   -0.096713
  18 C :   -0.059281
  19 C :   -0.036212
  20 C :   -0.157012
  21 H :    0.038364
  22 C :    0.034415
  23 H :    0.042722
  24 H :    0.034720
  25 C :   -0.119249
  26 H :    0.049042
  27 H :    0.056028
  28 C :   -0.056836
  29 H :    0.037027
  30 H :    0.049460
  31 H :    0.030692
  32 H :    0.068830
  33 H :    0.061384
Sum of atomic charges:   -0.0000000

LOEWDIN ATOMIC CHARGES
----------------------
   0 S :    0.427752
   1 C :   -0.221913
   2 C :   -0.065679
   3 C :   -0.055114
   4 C :   -0.199034
   5 H :    0.028656
   6 C :   -0.046246
   7 H :    0.039474
   8 H :    0.031229
   9 C :   -0.045391
  10 H :    0.018533
  11 H :    0.026929
  12 C :   -0.064794
  13 H :    0.030652
  14 H :    0.026623
  15 H :    0.024634
  16 S :    0.396112
  17 C :   -0.190954
  18 C :   -0.074233
  19 C :   -0.058818
  20 C :   -0.195745
  21 H :    0.035508
  22 C :   -0.033574
  23 H :    0.034163
  24 H :    0.028991
  25 C :   -0.047684
  26 H :    0.034419
  27 H :    0.034740
  28 C :   -0.074948
  29 H :    0.028254
  30 H :    0.030173
  31 H :    0.024199
  32 H :    0.041742
  33 H :    0.031345

  Mayer bond orders larger than 0.100000
B(  0-S ,  1-C ) :   1.1484 B(  0-S ,  4-C ) :   1.1686 B(  1-C ,  2-C ) :   1.5718
B(  1-C , 32-H ) :   0.9604 B(  2-C ,  3-C ) :   1.2548 B(  2-C ,  6-C ) :   1.0399
B(  3-C ,  4-C ) :   1.5488 B(  3-C ,  5-H ) :   0.9972 B(  4-C , 20-C ) :   1.0104
B(  6-C ,  7-H ) :   0.9454 B(  6-C ,  8-H ) :   0.9357 B(  6-C ,  9-C ) :   1.0587
B(  9-C , 10-H ) :   0.9541 B(  9-C , 11-H ) :   0.9537 B(  9-C , 12-C ) :   1.0838
B( 12-C , 13-H ) :   0.9702 B( 12-C , 14-H ) :   0.9685 B( 12-C , 15-H ) :   0.9727
B( 16-S , 17-C ) :   1.1295 B( 16-S , 20-C ) :   1.1413 B( 17-C , 18-C ) :   1.6522
B( 17-C , 33-H ) :   0.9693 B( 18-C , 19-C ) :   1.1910 B( 18-C , 21-H ) :   0.9754
B( 19-C , 20-C ) :   1.6511 B( 19-C , 22-C ) :   1.0221 B( 22-C , 23-H ) :   0.9349
B( 22-C , 24-H ) :   0.9390 B( 22-C , 25-C ) :   1.0549 B( 25-C , 26-H ) :   0.9564
B( 25-C , 27-H ) :   0.9565 B( 25-C , 28-C ) :   1.0732 B( 28-C , 29-H ) :   0.9741
B( 28-C , 30-H ) :   0.9761 B( 28-C , 31-H ) :   0.9734

Dispersion correction           -0.014211688
FINAL SINGLE POINT ENERGY     -1339.876141125085

DIPOLE MOMENT
-------------
                                X             Y             Z
Electronic contribution:      2.04829     -20.45195      10.42998
Nuclear contribution   :     -1.95345      21.06055     -10.66904
                        -----------------------------------------
Total Dipole Moment    :      0.09484       0.60860      -0.23906
                        -----------------------------------------
Magnitude (a.u.)       :      0.66071
Magnitude (Debye)      :      1.67939

Rotational constants in cm-1:     0.018647     0.008422     0.006727
Rotational constants in MHz :   559.015817   252.495766   201.678094

                             ****ORCA TERMINATED NORMALLY****
TOTAL RUN TIME: 0 days 0 hours 0 minutes 20 seconds 224 msec
