                         Program Version 4.2.1 -  RELEASE  -
|  1> ! wB97X-D3 SP def2-SVP
|  2> %pal
|  3> nprocs 24
|  4> end
|  5>
|  6> * xyz 0 1
|  7> S 	 -140.271 	 6.73381 	 4.86187
|  8> C 	 -138.895 	 7.5043 	 4.05459
|  9> C 	 -137.943 	 7.97517 	 4.91622
| 10> C 	 -138.388 	 7.84408 	 6.26037
| 11> C 	 -139.567 	 7.10093 	 6.42279
| 12> H 	 -137.82 	 7.94469 	 7.21476
| 13> C 	 -136.656 	 8.65252 	 4.51749
| 14> H 	 -136.45 	 9.51387 	 5.11909
| 15> H 	 -136.763 	 9.10252 	 3.48469
| 16> C 	 -135.437 	 7.72297 	 4.61398
| 17> H 	 -135.356 	 7.25581 	 5.61415
| 18> H 	 -135.549 	 6.8316 	 3.9598
| 19> C 	 -134.126 	 8.46445 	 4.36468
| 20> H 	 -133.321 	 7.79845 	 4.72932
| 21> H 	 -133.944 	 8.59148 	 3.27685
| 22> H 	 -133.975 	 9.34393 	 4.90345
| 23> S 	 -139.948 	 5.07057 	 8.16538
| 24> C 	 -141.038 	 5.35365 	 9.56426
| 25> C 	 -141.567 	 6.60786 	 9.69647
| 26> C 	 -141.092 	 7.39389 	 8.60282
| 27> C 	 -140.239 	 6.70251 	 7.68111
| 28> H 	 -142.218 	 6.8737 	 10.5096
| 29> C 	 -141.545 	 8.81908 	 8.49627
| 30> H 	 -142.521 	 8.72369 	 8.93675
| 31> H 	 -141.67 	 8.94464 	 7.47923
| 32> C 	 -140.789 	 9.92826 	 9.31321
| 33> H 	 -139.795 	 10.1015 	 8.99514
| 34> H 	 -140.603 	 9.61802 	 10.299
| 35> C 	 -141.711 	 11.2108 	 9.43514
| 36> H 	 -141.788 	 11.7214 	 8.51213
| 37> H 	 -141.298 	 11.8467 	 10.2344
| 38> H 	 -142.647 	 10.9298 	 9.88929
| 39> H 	 -138.838 	 7.44147 	 2.93514
| 40> H 	 -141.414 	 4.50764 	 10.2229
| 41> *
| 42>
| 43>                          ****END OF INPUT****

CARTESIAN COORDINATES (ANGSTROEM)
---------------------------------
  S    -140.271000    6.733810    4.861870
  C    -138.895000    7.504300    4.054590
  C    -137.943000    7.975170    4.916220
  C    -138.388000    7.844080    6.260370
  C    -139.567000    7.100930    6.422790
  H    -137.820000    7.944690    7.214760
  C    -136.656000    8.652520    4.517490
  H    -136.450000    9.513870    5.119090
  H    -136.763000    9.102520    3.484690
  C    -135.437000    7.722970    4.613980
  H    -135.356000    7.255810    5.614150
  H    -135.549000    6.831600    3.959800
  C    -134.126000    8.464450    4.364680
  H    -133.321000    7.798450    4.729320
  H    -133.944000    8.591480    3.276850
  H    -133.975000    9.343930    4.903450
  S    -139.948000    5.070570    8.165380
  C    -141.038000    5.353650    9.564260
  C    -141.567000    6.607860    9.696470
  C    -141.092000    7.393890    8.602820
  C    -140.239000    6.702510    7.681110
  H    -142.218000    6.873700   10.509600
  C    -141.545000    8.819080    8.496270
  H    -142.521000    8.723690    8.936750
  H    -141.670000    8.944640    7.479230
  C    -140.789000    9.928260    9.313210
  H    -139.795000   10.101500    8.995140
  H    -140.603000    9.618020   10.299000
  C    -141.711000   11.210800    9.435140
  H    -141.788000   11.721400    8.512130
  H    -141.298000   11.846700   10.234400
  H    -142.647000   10.929800    9.889290
  H    -138.838000    7.441470    2.935140
  H    -141.414000    4.507640   10.222900

 Total Charge           Charge          ....    0
 Multiplicity           Mult            ....    1
 Number of Electrons    NEL             ....  134
 Basis Dimension        Dim             ....  322

ORBITAL ENERGIES
----------------

  NO   OCC          E(Eh)            E(eV)
   0   2.0000     -88.967304     -2420.9234
   1   2.0000     -88.964527     -2420.8479
   2   2.0000     -10.329614      -281.0831
   3   2.0000     -10.325826      -280.9800
   4   2.0000     -10.321483      -280.8618
   5   2.0000     -10.317815      -280.7620
   6   2.0000     -10.304563      -280.4014
   7   2.0000     -10.301844      -280.3274
   8   2.0000     -10.296802      -280.1902
   9   2.0000     -10.294192      -280.1192
  10   2.0000     -10.293267      -280.0940
  11   2.0000     -10.289290      -279.9858
  12   2.0000     -10.282819      -279.8097
  13   2.0000     -10.278884      -279.7027
  14   2.0000     -10.276806      -279.6461
  15   2.0000     -10.276309      -279.6326
  16   2.0000      -8.081653      -219.9130
  17   2.0000      -8.079044      -219.8420
  18   2.0000      -6.040116      -164.3599
  19   2.0000      -6.037453      -164.2875
  20   2.0000      -6.036259      -164.2550
  21   2.0000      -6.033548      -164.1812
  22   2.0000      -6.032443      -164.1511
  23   2.0000      -6.029963      -164.0836
  24   2.0000      -1.000983       -27.2381
  25   2.0000      -0.980488       -26.6804
  26   2.0000      -0.911116       -24.7927
  27   2.0000      -0.902674       -24.5630
  28   2.0000      -0.869126       -23.6501
  29   2.0000      -0.849761       -23.1232
  30   2.0000      -0.843039       -22.9403
  31   2.0000      -0.813364       -22.1327
  32   2.0000      -0.782253       -21.2862
  33   2.0000      -0.761804       -20.7297
  34   2.0000      -0.713805       -19.4236
  35   2.0000      -0.699525       -19.0350
  36   2.0000      -0.687593       -18.7104
  37   2.0000      -0.660779       -17.9807
  38   2.0000      -0.643032       -17.4978
  39   2.0000      -0.613044       -16.6818
  40   2.0000      -0.585472       -15.9315
  41   2.0000      -0.572383       -15.5753
  42   2.0000      -0.562667       -15.3109
  43   2.0000      -0.553430       -15.0596
  44   2.0000      -0.525640       -14.3034
  45   2.0000      -0.523959       -14.2576
  46   2.0000      -0.518658       -14.1134
  47   2.0000      -0.507075       -13.7982
  48   2.0000      -0.501349       -13.6424
  49   2.0000      -0.498451       -13.5636
  50   2.0000      -0.483437       -13.1550
  51   2.0000      -0.472163       -12.8482
  52   2.0000      -0.466456       -12.6929
  53   2.0000      -0.458999       -12.4900
  54   2.0000      -0.455922       -12.4063
  55   2.0000      -0.455414       -12.3925
  56   2.0000      -0.448864       -12.2142
  57   2.0000      -0.439827       -11.9683
  58   2.0000      -0.432642       -11.7728
  59   2.0000      -0.426710       -11.6114
  60   2.0000      -0.422076       -11.4853
  61   2.0000      -0.414640       -11.2829
  62   2.0000      -0.412126       -11.2145
  63   2.0000      -0.341603        -9.2955
  64   2.0000      -0.331442        -9.0190
  65   2.0000      -0.316686        -8.6175
  66   2.0000      -0.302295        -8.2259
  67   0.0000       0.042130         1.1464
  68   0.0000       0.055439         1.5086
  69   0.0000       0.109977         2.9926
  70   0.0000       0.119825         3.2606
  71   0.0000       0.125494         3.4149

MULLIKEN ATOMIC CHARGES
-----------------------
   0 S :    0.111242
   1 C :   -0.153248
   2 C :   -0.054968
   3 C :    0.045293
   4 C :   -0.196869
   5 H :    0.032336
   6 C :    0.073127
   7 H :    0.016533
   8 H :    0.029729
   9 C :   -0.104029
  10 H :    0.029750
  11 H :    0.033214
  12 C :   -0.027336
  13 H :    0.028547
  14 H :    0.039377
  15 H :    0.022173
  16 S :    0.116978
  17 C :   -0.112961
  18 C :   -0.027340
  19 C :   -0.055877
  20 C :   -0.190758
  21 H :    0.025188
  22 C :    0.120300
  23 H :   -0.000384
  24 H :    0.011084
  25 C :   -0.015779
  26 H :    0.018434
  27 H :    0.000154
  28 C :   -0.047322
  29 H :    0.044168
  30 H :    0.029022
  31 H :    0.023736
  32 H :    0.066541
  33 H :    0.069944
Sum of atomic charges:    0.0000000

LOEWDIN ATOMIC CHARGES
----------------------
   0 S :    0.395732
   1 C :   -0.191157
   2 C :   -0.068669
   3 C :   -0.066139
   4 C :   -0.205665
   5 H :    0.039960
   6 C :   -0.032350
   7 H :    0.027011
   8 H :    0.036290
   9 C :   -0.044469
  10 H :    0.025926
  11 H :    0.028011
  12 C :   -0.065245
  13 H :    0.031687
  14 H :    0.029519
  15 H :    0.015586
  16 S :    0.404761
  17 C :   -0.175700
  18 C :   -0.072754
  19 C :   -0.045208
  20 C :   -0.225765
  21 H :    0.037406
  22 C :   -0.026332
  23 H :    0.029182
  24 H :    0.021663
  25 C :   -0.025157
  26 H :    0.018421
  27 H :    0.016804
  28 C :   -0.057257
  29 H :    0.021167
  30 H :    0.028689
  31 H :    0.022749
  32 H :    0.035025
  33 H :    0.036281

  Mayer bond orders larger than 0.100000
B(  0-S ,  1-C ) :   1.1421 B(  0-S ,  4-C ) :   1.1567 B(  1-C ,  2-C ) :   1.6199
B(  1-C , 32-H ) :   0.9606 B(  2-C ,  3-C ) :   1.2304 B(  2-C ,  6-C ) :   1.0238
B(  3-C ,  4-C ) :   1.6044 B(  3-C ,  5-H ) :   0.9790 B(  4-C , 20-C ) :   1.0038
B(  6-C ,  7-H ) :   0.9403 B(  6-C ,  8-H ) :   0.9439 B(  6-C ,  9-C ) :   1.0542
B(  9-C , 10-H ) :   0.9597 B(  9-C , 11-H ) :   0.9537 B(  9-C , 12-C ) :   1.0845
B( 12-C , 13-H ) :   0.9730 B( 12-C , 14-H ) :   0.9750 B( 12-C , 15-H ) :   0.9738
B( 16-S , 17-C ) :   1.1534 B( 16-S , 20-C ) :   1.1495 B( 17-C , 18-C ) :   1.6305
B( 17-C , 33-H ) :   0.9523 B( 18-C , 19-C ) :   1.2334 B( 18-C , 21-H ) :   0.9910
B( 19-C , 20-C ) :   1.5898 B( 19-C , 22-C ) :   1.0391 B( 22-C , 23-H ) :   0.9320
B( 22-C , 24-H ) :   0.9265 B( 22-C , 25-C ) :   1.0530 B( 25-C , 26-H ) :   0.9562
B( 25-C , 27-H ) :   0.9534 B( 25-C , 28-C ) :   1.0764 B( 28-C , 29-H ) :   0.9816
B( 28-C , 30-H ) :   0.9758 B( 28-C , 31-H ) :   0.9753

Dispersion correction           -0.013592708
FINAL SINGLE POINT ENERGY     -1339.863153200010

DIPOLE MOMENT
-------------
                                X             Y             Z
Electronic contribution:    -12.30171     -20.77959      -2.21724
Nuclear contribution   :     12.50992      21.13685       2.44774
                        -----------------------------------------
Total Dipole Moment    :      0.20821       0.35726       0.23049
                        -----------------------------------------
Magnitude (a.u.)       :      0.47341
Magnitude (Debye)      :      1.20331

Rotational constants in cm-1:     0.017726     0.007561     0.006487
Rotational constants in MHz :   531.397250   226.687689   194.466802

                             ****ORCA TERMINATED NORMALLY****
TOTAL RUN TIME: 0 days 0 hours 0 minutes 20 seconds 702 msec
