                         Program Version 4.2.1 -  RELEASE  -
|  1> ! wB97X-D3 SP def2-SVP
|  2> %pal
|  3> nprocs 24
|  4> end
|  5>
|  6> * xyz 0 1
|  7> S 	 -61.4739 	 11.1383 	 -87.5863
|  8> C 	 -60.2049 	 10.8066 	 -88.7815
|  9> C 	 -59.1583 	 9.99246 	 -88.2989
| 10> C 	 -59.3158 	 9.72708 	 -86.9145
| 11> C 	 -60.5224 	 10.2077 	 -86.3647
| 12> H 	 -58.5551 	 9.237 	 -86.2729
| 13> C 	 -57.85 	 9.55737 	 -89.0464
| 14> H 	 -57.7732 	 10.1702 	 -89.8803
| 15> H 	 -57.943 	 8.59239 	 -89.4082
| 16> C 	 -56.4872 	 9.7071 	 -88.3229
| 17> H 	 -56.2244 	 8.86835 	 -87.6469
| 18> H 	 -55.7262 	 9.63705 	 -89.1195
| 19> C 	 -56.2137 	 10.9553 	 -87.5549
| 20> H 	 -56.4139 	 11.8941 	 -88.0583
| 21> H 	 -56.8432 	 10.9944 	 -86.6869
| 22> H 	 -55.1189 	 11.1123 	 -87.3553
| 23> S 	 -61.4615 	 11.4811 	 -84.1053
| 24> C 	 -61.8997 	 10.4388 	 -82.7092
| 25> C 	 -61.7754 	 9.12058 	 -83.0329
| 26> C 	 -61.1794 	 8.85937 	 -84.316
| 27> C 	 -60.9872 	 10.0221 	 -85.033
| 28> H 	 -62.0829 	 8.42847 	 -82.2415
| 29> C 	 -60.881 	 7.48962 	 -84.8794
| 30> H 	 -60.9445 	 6.68186 	 -84.1499
| 31> H 	 -59.8376 	 7.37233 	 -85.1542
| 32> C 	 -61.7301 	 7.03169 	 -86.0978
| 33> H 	 -61.2784 	 6.26797 	 -86.6274
| 34> H 	 -61.9402 	 7.78048 	 -86.8347
| 35> C 	 -63.0816 	 6.41387 	 -85.6407
| 36> H 	 -63.6158 	 7.0278 	 -84.8712
| 37> H 	 -62.9069 	 5.42746 	 -85.2825
| 38> H 	 -63.7857 	 6.29521 	 -86.4663
| 39> H 	 -60.2722 	 11.1627 	 -89.7961
| 40> H 	 -62.1924 	 10.7957 	 -81.7319
| 41> *
| 42>
| 43>                          ****END OF INPUT****

CARTESIAN COORDINATES (ANGSTROEM)
---------------------------------
  S    -61.473900   11.138300  -87.586300
  C    -60.204900   10.806600  -88.781500
  C    -59.158300    9.992460  -88.298900
  C    -59.315800    9.727080  -86.914500
  C    -60.522400   10.207700  -86.364700
  H    -58.555100    9.237000  -86.272900
  C    -57.850000    9.557370  -89.046400
  H    -57.773200   10.170200  -89.880300
  H    -57.943000    8.592390  -89.408200
  C    -56.487200    9.707100  -88.322900
  H    -56.224400    8.868350  -87.646900
  H    -55.726200    9.637050  -89.119500
  C    -56.213700   10.955300  -87.554900
  H    -56.413900   11.894100  -88.058300
  H    -56.843200   10.994400  -86.686900
  H    -55.118900   11.112300  -87.355300
  S    -61.461500   11.481100  -84.105300
  C    -61.899700   10.438800  -82.709200
  C    -61.775400    9.120580  -83.032900
  C    -61.179400    8.859370  -84.316000
  C    -60.987200   10.022100  -85.033000
  H    -62.082900    8.428470  -82.241500
  C    -60.881000    7.489620  -84.879400
  H    -60.944500    6.681860  -84.149900
  H    -59.837600    7.372330  -85.154200
  C    -61.730100    7.031690  -86.097800
  H    -61.278400    6.267970  -86.627400
  H    -61.940200    7.780480  -86.834700
  C    -63.081600    6.413870  -85.640700
  H    -63.615800    7.027800  -84.871200
  H    -62.906900    5.427460  -85.282500
  H    -63.785700    6.295210  -86.466300
  H    -60.272200   11.162700  -89.796100
  H    -62.192400   10.795700  -81.731900

 Total Charge           Charge          ....    0
 Multiplicity           Mult            ....    1
 Number of Electrons    NEL             ....  134
 Basis Dimension        Dim             ....  322

ORBITAL ENERGIES
----------------

  NO   OCC          E(Eh)            E(eV)
   0   2.0000     -88.972043     -2421.0524
   1   2.0000     -88.963826     -2420.8288
   2   2.0000     -10.332804      -281.1699
   3   2.0000     -10.325985      -280.9843
   4   2.0000     -10.320273      -280.8289
   5   2.0000     -10.319354      -280.8039
   6   2.0000     -10.308038      -280.4960
   7   2.0000     -10.307641      -280.4852
   8   2.0000     -10.299262      -280.2572
   9   2.0000     -10.296467      -280.1811
  10   2.0000     -10.291910      -280.0571
  11   2.0000     -10.290388      -280.0157
  12   2.0000     -10.289171      -279.9826
  13   2.0000     -10.274730      -279.5896
  14   2.0000     -10.272562      -279.5306
  15   2.0000     -10.270718      -279.4804
  16   2.0000      -8.085123      -220.0074
  17   2.0000      -8.077473      -219.7992
  18   2.0000      -6.043671      -164.4567
  19   2.0000      -6.039917      -164.3545
  20   2.0000      -6.036141      -164.2517
  21   2.0000      -6.035881      -164.2447
  22   2.0000      -6.032230      -164.1453
  23   2.0000      -6.028033      -164.0311
  24   2.0000      -0.999121       -27.1875
  25   2.0000      -0.973507       -26.4905
  26   2.0000      -0.910168       -24.7669
  27   2.0000      -0.903065       -24.5736
  28   2.0000      -0.870169       -23.6785
  29   2.0000      -0.848123       -23.0786
  30   2.0000      -0.841638       -22.9021
  31   2.0000      -0.813648       -22.1405
  32   2.0000      -0.787771       -21.4363
  33   2.0000      -0.771686       -20.9986
  34   2.0000      -0.712074       -19.3765
  35   2.0000      -0.696592       -18.9552
  36   2.0000      -0.692242       -18.8369
  37   2.0000      -0.658798       -17.9268
  38   2.0000      -0.637770       -17.3546
  39   2.0000      -0.621403       -16.9092
  40   2.0000      -0.596591       -16.2341
  41   2.0000      -0.560586       -15.2543
  42   2.0000      -0.558013       -15.1843
  43   2.0000      -0.548086       -14.9142
  44   2.0000      -0.542027       -14.7493
  45   2.0000      -0.541319       -14.7300
  46   2.0000      -0.516473       -14.0539
  47   2.0000      -0.511426       -13.9166
  48   2.0000      -0.496348       -13.5063
  49   2.0000      -0.492590       -13.4041
  50   2.0000      -0.484445       -13.1824
  51   2.0000      -0.477500       -12.9934
  52   2.0000      -0.468526       -12.7492
  53   2.0000      -0.463306       -12.6072
  54   2.0000      -0.458235       -12.4692
  55   2.0000      -0.445616       -12.1258
  56   2.0000      -0.443233       -12.0610
  57   2.0000      -0.435931       -11.8623
  58   2.0000      -0.430780       -11.7221
  59   2.0000      -0.423106       -11.5133
  60   2.0000      -0.421296       -11.4640
  61   2.0000      -0.416524       -11.3342
  62   2.0000      -0.410418       -11.1681
  63   2.0000      -0.345142        -9.3918
  64   2.0000      -0.335185        -9.1208
  65   2.0000      -0.330816        -9.0020
  66   2.0000      -0.287858        -7.8330
  67   0.0000       0.022687         0.6174
  68   0.0000       0.061661         1.6779
  69   0.0000       0.105662         2.8752
  70   0.0000       0.122571         3.3353
  71   0.0000       0.127406         3.4669

MULLIKEN ATOMIC CHARGES
-----------------------
   0 S :    0.115410
   1 C :   -0.128956
   2 C :   -0.107218
   3 C :    0.015264
   4 C :   -0.169998
   5 H :    0.038335
   6 C :    0.169531
   7 H :   -0.001164
   8 H :    0.023576
   9 C :   -0.118134
  10 H :    0.032159
  11 H :    0.028252
  12 C :   -0.044040
  13 H :    0.018458
  14 H :    0.032127
  15 H :    0.038251
  16 S :    0.090322
  17 C :   -0.095697
  18 C :   -0.038033
  19 C :    0.011523
  20 C :   -0.164897
  21 H :    0.027015
  22 C :    0.070561
  23 H :    0.007455
  24 H :    0.021535
  25 C :   -0.024863
  26 H :    0.003643
  27 H :    0.037282
  28 C :   -0.075928
  29 H :    0.039346
  30 H :    0.019671
  31 H :    0.027521
  32 H :    0.046566
  33 H :    0.055122
Sum of atomic charges:    0.0000000

LOEWDIN ATOMIC CHARGES
----------------------
   0 S :    0.381459
   1 C :   -0.189611
   2 C :   -0.060121
   3 C :   -0.061530
   4 C :   -0.179526
   5 H :    0.038258
   6 C :   -0.014660
   7 H :    0.022515
   8 H :    0.026417
   9 C :   -0.048172
  10 H :    0.024803
  11 H :    0.029633
  12 C :   -0.073201
  13 H :    0.023505
  14 H :    0.023180
  15 H :    0.035744
  16 S :    0.362551
  17 C :   -0.166695
  18 C :   -0.072256
  19 C :   -0.050029
  20 C :   -0.183851
  21 H :    0.037412
  22 C :   -0.031684
  23 H :    0.030122
  24 H :    0.031042
  25 C :   -0.027665
  26 H :    0.015130
  27 H :    0.023385
  28 C :   -0.067186
  29 H :    0.027565
  30 H :    0.015503
  31 H :    0.024209
  32 H :    0.023751
  33 H :    0.030001

  Mayer bond orders larger than 0.100000
B(  0-S ,  1-C ) :   1.1372 B(  0-S ,  4-C ) :   1.1304 B(  1-C ,  2-C ) :   1.6105
B(  1-C ,  4-C ) :   0.1088 B(  1-C , 32-H ) :   0.9656 B(  2-C ,  3-C ) :   1.2524
B(  2-C ,  6-C ) :   1.0068 B(  3-C ,  4-C ) :   1.5662 B(  3-C ,  5-H ) :   0.9787
B(  4-C , 20-C ) :   1.0891 B(  6-C ,  7-H ) :   0.9360 B(  6-C ,  8-H ) :   0.9319
B(  6-C ,  9-C ) :   1.0726 B(  9-C , 10-H ) :   0.9506 B(  9-C , 11-H ) :   0.9542
B(  9-C , 12-C ) :   1.0927 B( 12-C , 13-H ) :   0.9705 B( 12-C , 14-H ) :   0.9684
B( 12-C , 15-H ) :   0.9698 B( 16-S , 17-C ) :   1.1234 B( 16-S , 20-C ) :   1.1191
B( 17-C , 18-C ) :   1.6566 B( 17-C , 33-H ) :   0.9669 B( 18-C , 19-C ) :   1.2003
B( 18-C , 21-H ) :   0.9856 B( 19-C , 20-C ) :   1.6071 B( 19-C , 22-C ) :   1.0501
B( 22-C , 23-H ) :   0.9339 B( 22-C , 24-H ) :   0.9320 B( 22-C , 25-C ) :   1.0604
B( 25-C , 26-H ) :   0.9522 B( 25-C , 27-H ) :   0.9628 B( 25-C , 28-C ) :   1.0749
B( 28-C , 29-H ) :   0.9805 B( 28-C , 30-H ) :   0.9773 B( 28-C , 31-H ) :   0.9751

Dispersion correction           -0.015276601
FINAL SINGLE POINT ENERGY     -1339.873150572937

DIPOLE MOMENT
-------------
                                X             Y             Z
Electronic contribution:    -12.71575      16.75770       6.48557
Nuclear contribution   :     13.14559     -17.28451      -6.59986
                        -----------------------------------------
Total Dipole Moment    :      0.42984      -0.52681      -0.11430
                        -----------------------------------------
Magnitude (a.u.)       :      0.68946
Magnitude (Debye)      :      1.75248

Rotational constants in cm-1:     0.018503     0.008961     0.008029
Rotational constants in MHz :   554.717424   268.638125   240.696941

                             ****ORCA TERMINATED NORMALLY****
TOTAL RUN TIME: 0 days 0 hours 0 minutes 21 seconds 77 msec
