                         Program Version 4.2.1 -  RELEASE  -
|  1> ! wB97X-D3 SP def2-SVP
|  2> %pal
|  3> nprocs 24
|  4> end
|  5>
|  6> * xyz 0 1
|  7> S 	 -41.8067 	 -3.45858 	 -9.26194
|  8> C 	 -42.605 	 -2.82941 	 -7.83182
|  9> C 	 -43.8069 	 -3.40346 	 -7.64883
| 10> C 	 -44.1597 	 -4.36994 	 -8.63162
| 11> C 	 -43.2438 	 -4.37201 	 -9.675
| 12> H 	 -45.1383 	 -4.78712 	 -8.7257
| 13> C 	 -44.7481 	 -3.15541 	 -6.50189
| 14> H 	 -44.5448 	 -2.0414 	 -6.24637
| 15> H 	 -44.3439 	 -3.74918 	 -5.68063
| 16> C 	 -46.2439 	 -3.59372 	 -6.72674
| 17> H 	 -46.6117 	 -3.21723 	 -7.67132
| 18> H 	 -46.2174 	 -4.70232 	 -6.8515
| 19> C 	 -47.2015 	 -3.1078 	 -5.62902
| 20> H 	 -47.0207 	 -3.42023 	 -4.64067
| 21> H 	 -47.174 	 -2.00161 	 -5.52825
| 22> H 	 -48.1318 	 -3.29771 	 -6.03083
| 23> S 	 -42.7004 	 -4.49986 	 -12.3656
| 24> C 	 -43.2891 	 -5.87992 	 -13.2093
| 25> C 	 -43.9138 	 -6.78847 	 -12.4115
| 26> C 	 -43.9312 	 -6.4486 	 -11.0083
| 27> C 	 -43.3499 	 -5.20961 	 -10.8547
| 28> H 	 -44.404 	 -7.70269 	 -12.8566
| 29> C 	 -44.6795 	 -7.29275 	 -9.93058
| 30> H 	 -44.2957 	 -7.17317 	 -8.9165
| 31> H 	 -44.3155 	 -8.31789 	 -10.0971
| 32> C 	 -46.182 	 -7.14921 	 -9.80663
| 33> H 	 -46.6132 	 -6.86714 	 -10.7698
| 34> H 	 -46.5107 	 -6.33394 	 -9.1632
| 35> C 	 -46.7866 	 -8.48506 	 -9.26677
| 36> H 	 -46.2611 	 -9.32365 	 -9.75894
| 37> H 	 -47.8038 	 -8.64014 	 -9.47985
| 38> H 	 -46.6067 	 -8.72605 	 -8.18499
| 39> H 	 -42.2338 	 -1.99984 	 -7.24518
| 40> H 	 -43.2207 	 -6.08451 	 -14.2969
| 41> *
| 42>
| 43>                          ****END OF INPUT****

CARTESIAN COORDINATES (ANGSTROEM)
---------------------------------
  S    -41.806700   -3.458580   -9.261940
  C    -42.605000   -2.829410   -7.831820
  C    -43.806900   -3.403460   -7.648830
  C    -44.159700   -4.369940   -8.631620
  C    -43.243800   -4.372010   -9.675000
  H    -45.138300   -4.787120   -8.725700
  C    -44.748100   -3.155410   -6.501890
  H    -44.544800   -2.041400   -6.246370
  H    -44.343900   -3.749180   -5.680630
  C    -46.243900   -3.593720   -6.726740
  H    -46.611700   -3.217230   -7.671320
  H    -46.217400   -4.702320   -6.851500
  C    -47.201500   -3.107800   -5.629020
  H    -47.020700   -3.420230   -4.640670
  H    -47.174000   -2.001610   -5.528250
  H    -48.131800   -3.297710   -6.030830
  S    -42.700400   -4.499860  -12.365600
  C    -43.289100   -5.879920  -13.209300
  C    -43.913800   -6.788470  -12.411500
  C    -43.931200   -6.448600  -11.008300
  C    -43.349900   -5.209610  -10.854700
  H    -44.404000   -7.702690  -12.856600
  C    -44.679500   -7.292750   -9.930580
  H    -44.295700   -7.173170   -8.916500
  H    -44.315500   -8.317890  -10.097100
  C    -46.182000   -7.149210   -9.806630
  H    -46.613200   -6.867140  -10.769800
  H    -46.510700   -6.333940   -9.163200
  C    -46.786600   -8.485060   -9.266770
  H    -46.261100   -9.323650   -9.758940
  H    -47.803800   -8.640140   -9.479850
  H    -46.606700   -8.726050   -8.184990
  H    -42.233800   -1.999840   -7.245180
  H    -43.220700   -6.084510  -14.296900

 Total Charge           Charge          ....    0
 Multiplicity           Mult            ....    1
 Number of Electrons    NEL             ....  134
 Basis Dimension        Dim             ....  322

ORBITAL ENERGIES
----------------

  NO   OCC          E(Eh)            E(eV)
   0   2.0000     -88.967041     -2420.9163
   1   2.0000     -88.963603     -2420.8227
   2   2.0000     -10.326841      -281.0076
   3   2.0000     -10.326073      -280.9867
   4   2.0000     -10.314908      -280.6829
   5   2.0000     -10.307865      -280.4913
   6   2.0000     -10.303902      -280.3834
   7   2.0000     -10.297866      -280.2192
   8   2.0000     -10.296976      -280.1949
   9   2.0000     -10.296281      -280.1760
  10   2.0000     -10.296081      -280.1706
  11   2.0000     -10.294363      -280.1239
  12   2.0000     -10.291202      -280.0378
  13   2.0000     -10.284987      -279.8687
  14   2.0000     -10.283190      -279.8198
  15   2.0000     -10.274307      -279.5781
  16   2.0000      -8.081773      -219.9162
  17   2.0000      -8.078256      -219.8205
  18   2.0000      -6.040314      -164.3653
  19   2.0000      -6.036815      -164.2701
  20   2.0000      -6.036442      -164.2599
  21   2.0000      -6.032893      -164.1634
  22   2.0000      -6.032333      -164.1481
  23   2.0000      -6.028868      -164.0538
  24   2.0000      -1.006685       -27.3933
  25   2.0000      -0.984543       -26.7908
  26   2.0000      -0.910496       -24.7759
  27   2.0000      -0.908067       -24.7098
  28   2.0000      -0.870862       -23.6974
  29   2.0000      -0.853853       -23.2345
  30   2.0000      -0.845136       -22.9973
  31   2.0000      -0.811731       -22.0883
  32   2.0000      -0.784438       -21.3456
  33   2.0000      -0.773264       -21.0416
  34   2.0000      -0.716145       -19.4873
  35   2.0000      -0.708870       -19.2893
  36   2.0000      -0.690743       -18.7961
  37   2.0000      -0.655867       -17.8470
  38   2.0000      -0.632106       -17.2005
  39   2.0000      -0.621165       -16.9027
  40   2.0000      -0.598646       -16.2900
  41   2.0000      -0.570884       -15.5345
  42   2.0000      -0.556625       -15.1465
  43   2.0000      -0.552265       -15.0279
  44   2.0000      -0.534543       -14.5457
  45   2.0000      -0.526846       -14.3362
  46   2.0000      -0.519104       -14.1255
  47   2.0000      -0.505539       -13.7564
  48   2.0000      -0.501959       -13.6590
  49   2.0000      -0.498039       -13.5523
  50   2.0000      -0.494269       -13.4498
  51   2.0000      -0.477022       -12.9804
  52   2.0000      -0.474676       -12.9166
  53   2.0000      -0.464025       -12.6268
  54   2.0000      -0.460733       -12.5372
  55   2.0000      -0.454036       -12.3550
  56   2.0000      -0.445676       -12.1274
  57   2.0000      -0.443809       -12.0766
  58   2.0000      -0.435262       -11.8441
  59   2.0000      -0.425334       -11.5739
  60   2.0000      -0.421318       -11.4646
  61   2.0000      -0.416022       -11.3205
  62   2.0000      -0.411247       -11.1906
  63   2.0000      -0.351226        -9.5574
  64   2.0000      -0.335547        -9.1307
  65   2.0000      -0.328598        -8.9416
  66   2.0000      -0.286453        -7.7948
  67   0.0000       0.026600         0.7238
  68   0.0000       0.080694         2.1958
  69   0.0000       0.107812         2.9337
  70   0.0000       0.119367         3.2481
  71   0.0000       0.132728         3.6117

MULLIKEN ATOMIC CHARGES
-----------------------
   0 S :    0.101896
   1 C :   -0.140920
   2 C :   -0.058953
   3 C :   -0.003445
   4 C :   -0.097764
   5 H :   -0.017462
   6 C :    0.035625
   7 H :    0.036423
   8 H :    0.045927
   9 C :   -0.135360
  10 H :    0.034851
  11 H :    0.046365
  12 C :    0.032776
  13 H :    0.026431
  14 H :    0.022391
  15 H :    0.016942
  16 S :    0.112184
  17 C :   -0.084794
  18 C :   -0.066851
  19 C :   -0.030721
  20 C :   -0.165513
  21 H :    0.034269
  22 C :    0.038483
  23 H :    0.026420
  24 H :    0.028587
  25 C :   -0.043845
  26 H :    0.030025
  27 H :    0.043227
  28 C :   -0.061512
  29 H :    0.021895
  30 H :    0.028392
  31 H :    0.040098
  32 H :    0.040004
  33 H :    0.063929
Sum of atomic charges:   -0.0000000

LOEWDIN ATOMIC CHARGES
----------------------
   0 S :    0.394833
   1 C :   -0.204594
   2 C :   -0.065369
   3 C :   -0.069941
   4 C :   -0.181767
   5 H :    0.023265
   6 C :   -0.039361
   7 H :    0.038348
   8 H :    0.035879
   9 C :   -0.040610
  10 H :    0.022973
  11 H :    0.027349
  12 C :   -0.053706
  13 H :    0.019829
  14 H :    0.032073
  15 H :    0.019557
  16 S :    0.395640
  17 C :   -0.200646
  18 C :   -0.080281
  19 C :   -0.053547
  20 C :   -0.178334
  21 H :    0.039440
  22 C :   -0.035914
  23 H :    0.034254
  24 H :    0.034562
  25 C :   -0.038950
  26 H :    0.026338
  27 H :    0.022631
  28 C :   -0.066811
  29 H :    0.026311
  30 H :    0.018560
  31 H :    0.031678
  32 H :    0.027677
  33 H :    0.038633

  Mayer bond orders larger than 0.100000
B(  0-S ,  1-C ) :   1.1064 B(  0-S ,  4-C ) :   1.1572 B(  1-C ,  2-C ) :   1.6443
B(  1-C , 32-H ) :   0.9687 B(  2-C ,  3-C ) :   1.2409 B(  2-C ,  6-C ) :   1.0078
B(  3-C ,  4-C ) :   1.5657 B(  3-C ,  5-H ) :   0.9828 B(  4-C , 20-C ) :   1.0604
B(  6-C ,  7-H ) :   0.9457 B(  6-C ,  8-H ) :   0.9312 B(  6-C ,  9-C ) :   1.0669
B(  9-C , 10-H ) :   0.9616 B(  9-C , 11-H ) :   0.9390 B(  9-C , 12-C ) :   1.0803
B( 12-C , 13-H ) :   0.9755 B( 12-C , 14-H ) :   0.9704 B( 12-C , 15-H ) :   0.9709
B( 16-S , 17-C ) :   1.1344 B( 16-S , 20-C ) :   1.1250 B( 17-C , 18-C ) :   1.6596
B( 17-C , 33-H ) :   0.9589 B( 18-C , 19-C ) :   1.2101 B( 18-C , 21-H ) :   0.9777
B( 19-C , 20-C ) :   1.6264 B( 19-C , 22-C ) :   1.0388 B( 22-C , 23-H ) :   0.9280
B( 22-C , 24-H ) :   0.9400 B( 22-C , 25-C ) :   1.0512 B( 25-C , 26-H ) :   0.9581
B( 25-C , 27-H ) :   0.9432 B( 25-C , 28-C ) :   1.0667 B( 28-C , 29-H ) :   0.9781
B( 28-C , 30-H ) :   0.9756 B( 28-C , 31-H ) :   0.9773

Dispersion correction           -0.014387097
FINAL SINGLE POINT ENERGY     -1339.872594035355

DIPOLE MOMENT
-------------
                                X             Y             Z
Electronic contribution:     25.97217       9.75831     -18.72065
Nuclear contribution   :    -26.68785     -10.07381      19.02827
                        -----------------------------------------
Total Dipole Moment    :     -0.71567      -0.31551       0.30762
                        -----------------------------------------
Magnitude (a.u.)       :      0.84046
Magnitude (Debye)      :      2.13627

Rotational constants in cm-1:     0.015875     0.010234     0.006734
Rotational constants in MHz :   475.922467   306.796352   201.872129

                             ****ORCA TERMINATED NORMALLY****
TOTAL RUN TIME: 0 days 0 hours 0 minutes 20 seconds 892 msec
