                         Program Version 4.2.1 -  RELEASE  -
|  1> ! wB97X-D3 SP def2-SVP
|  2> %pal
|  3> nprocs 24
|  4> end
|  5>
|  6> * xyz 0 1
|  7> S 	 -99.5833 	 51.0617 	 -99.4511
|  8> C 	 -99.829 	 52.8029 	 -99.5175
|  9> C 	 -99.093 	 53.4547 	 -100.537
| 10> C 	 -98.5719 	 52.4292 	 -101.413
| 11> C 	 -98.7456 	 51.1554 	 -100.975
| 12> H 	 -97.9432 	 52.5468 	 -102.252
| 13> C 	 -99.0649 	 54.9422 	 -100.981
| 14> H 	 -98.2177 	 55.0943 	 -101.614
| 15> H 	 -98.8569 	 55.5444 	 -100.037
| 16> C 	 -100.31 	 55.4257 	 -101.757
| 17> H 	 -100.495 	 54.7738 	 -102.594
| 18> H 	 -101.223 	 55.4164 	 -101.204
| 19> C 	 -100.048 	 56.7469 	 -102.4
| 20> H 	 -99.4247 	 56.5255 	 -103.22
| 21> H 	 -100.917 	 57.3778 	 -102.705
| 22> H 	 -99.5625 	 57.354 	 -101.696
| 23> S 	 -97.1861 	 48.7379 	 -100.692
| 24> C 	 -96.7368 	 47.858 	 -102.144
| 25> C 	 -97.5218 	 48.3013 	 -103.223
| 26> C 	 -98.2561 	 49.5158 	 -102.92
| 27> C 	 -98.1196 	 49.9497 	 -101.576
| 28> H 	 -97.4705 	 47.7816 	 -104.157
| 29> C 	 -99.0696 	 50.2241 	 -104.012
| 30> H 	 -98.7623 	 49.8973 	 -104.957
| 31> H 	 -98.7801 	 51.2593 	 -104.007
| 32> C 	 -100.605 	 50.2928 	 -103.718
| 33> H 	 -100.802 	 50.3514 	 -102.657
| 34> H 	 -101.068 	 49.3466 	 -103.932
| 35> C 	 -101.313 	 51.577 	 -104.371
| 36> H 	 -101.426 	 51.5955 	 -105.4
| 37> H 	 -100.793 	 52.4614 	 -104.017
| 38> H 	 -102.384 	 51.7069 	 -104.067
| 39> H 	 -100.394 	 53.4088 	 -98.8032
| 40> H 	 -96.0988 	 46.9239 	 -102.155
| 41> *
| 42>
| 43>                          ****END OF INPUT****

CARTESIAN COORDINATES (ANGSTROEM)
---------------------------------
  S    -99.583300   51.061700  -99.451100
  C    -99.829000   52.802900  -99.517500
  C    -99.093000   53.454700  -100.537000
  C    -98.571900   52.429200  -101.413000
  C    -98.745600   51.155400  -100.975000
  H    -97.943200   52.546800  -102.252000
  C    -99.064900   54.942200  -100.981000
  H    -98.217700   55.094300  -101.614000
  H    -98.856900   55.544400  -100.037000
  C    -100.310000   55.425700  -101.757000
  H    -100.495000   54.773800  -102.594000
  H    -101.223000   55.416400  -101.204000
  C    -100.048000   56.746900  -102.400000
  H    -99.424700   56.525500  -103.220000
  H    -100.917000   57.377800  -102.705000
  H    -99.562500   57.354000  -101.696000
  S    -97.186100   48.737900  -100.692000
  C    -96.736800   47.858000  -102.144000
  C    -97.521800   48.301300  -103.223000
  C    -98.256100   49.515800  -102.920000
  C    -98.119600   49.949700  -101.576000
  H    -97.470500   47.781600  -104.157000
  C    -99.069600   50.224100  -104.012000
  H    -98.762300   49.897300  -104.957000
  H    -98.780100   51.259300  -104.007000
  C    -100.605000   50.292800  -103.718000
  H    -100.802000   50.351400  -102.657000
  H    -101.068000   49.346600  -103.932000
  C    -101.313000   51.577000  -104.371000
  H    -101.426000   51.595500  -105.400000
  H    -100.793000   52.461400  -104.017000
  H    -102.384000   51.706900  -104.067000
  H    -100.394000   53.408800  -98.803200
  H    -96.098800   46.923900  -102.155000

 Total Charge           Charge          ....    0
 Multiplicity           Mult            ....    1
 Number of Electrons    NEL             ....  134
 Basis Dimension        Dim             ....  322

ORBITAL ENERGIES
----------------

  NO   OCC          E(Eh)            E(eV)
   0   2.0000     -88.972491     -2421.0646
   1   2.0000     -88.967726     -2420.9349
   2   2.0000     -10.331583      -281.1367
   3   2.0000     -10.329258      -281.0734
   4   2.0000     -10.325327      -280.9664
   5   2.0000     -10.321476      -280.8616
   6   2.0000     -10.310719      -280.5689
   7   2.0000     -10.307801      -280.4895
   8   2.0000     -10.304365      -280.3960
   9   2.0000     -10.297614      -280.2123
  10   2.0000     -10.289904      -280.0025
  11   2.0000     -10.286727      -279.9161
  12   2.0000     -10.285828      -279.8916
  13   2.0000     -10.282554      -279.8025
  14   2.0000     -10.276703      -279.6433
  15   2.0000     -10.270981      -279.4876
  16   2.0000      -8.086939      -220.0568
  17   2.0000      -8.081690      -219.9140
  18   2.0000      -6.045423      -164.5043
  19   2.0000      -6.041642      -164.4014
  20   2.0000      -6.040320      -164.3655
  21   2.0000      -6.037583      -164.2910
  22   2.0000      -6.036207      -164.2535
  23   2.0000      -6.032475      -164.1520
  24   2.0000      -1.002579       -27.2816
  25   2.0000      -0.978097       -26.6154
  26   2.0000      -0.917099       -24.9555
  27   2.0000      -0.897740       -24.4287
  28   2.0000      -0.865771       -23.5588
  29   2.0000      -0.853806       -23.2332
  30   2.0000      -0.839498       -22.8439
  31   2.0000      -0.811754       -22.0889
  32   2.0000      -0.782218       -21.2852
  33   2.0000      -0.769455       -20.9379
  34   2.0000      -0.710970       -19.3465
  35   2.0000      -0.706438       -19.2232
  36   2.0000      -0.688747       -18.7418
  37   2.0000      -0.658810       -17.9271
  38   2.0000      -0.642583       -17.4856
  39   2.0000      -0.618665       -16.8347
  40   2.0000      -0.589848       -16.0506
  41   2.0000      -0.580064       -15.7843
  42   2.0000      -0.564208       -15.3529
  43   2.0000      -0.557134       -15.1604
  44   2.0000      -0.526321       -14.3219
  45   2.0000      -0.516323       -14.0499
  46   2.0000      -0.511200       -13.9105
  47   2.0000      -0.507856       -13.8195
  48   2.0000      -0.504060       -13.7162
  49   2.0000      -0.495370       -13.4797
  50   2.0000      -0.488436       -13.2910
  51   2.0000      -0.485902       -13.2221
  52   2.0000      -0.470824       -12.8118
  53   2.0000      -0.462499       -12.5852
  54   2.0000      -0.458768       -12.4837
  55   2.0000      -0.451089       -12.2747
  56   2.0000      -0.439284       -11.9535
  57   2.0000      -0.437047       -11.8927
  58   2.0000      -0.433189       -11.7877
  59   2.0000      -0.432481       -11.7684
  60   2.0000      -0.422385       -11.4937
  61   2.0000      -0.421394       -11.4667
  62   2.0000      -0.413929       -11.2636
  63   2.0000      -0.347662        -9.4604
  64   2.0000      -0.334137        -9.0923
  65   2.0000      -0.326969        -8.8973
  66   2.0000      -0.289142        -7.8680
  67   0.0000       0.028925         0.7871
  68   0.0000       0.061690         1.6787
  69   0.0000       0.106717         2.9039
  70   0.0000       0.116197         3.1619
  71   0.0000       0.129851         3.5334

MULLIKEN ATOMIC CHARGES
-----------------------
   0 S :    0.124419
   1 C :   -0.119825
   2 C :   -0.080459
   3 C :    0.019642
   4 C :   -0.158667
   5 H :    0.005146
   6 C :    0.038013
   7 H :    0.016088
   8 H :    0.044584
   9 C :   -0.039561
  10 H :    0.023734
  11 H :    0.021945
  12 C :   -0.031187
  13 H :    0.024586
  14 H :    0.040083
  15 H :    0.013432
  16 S :    0.106733
  17 C :   -0.128950
  18 C :   -0.023677
  19 C :   -0.078038
  20 C :   -0.138918
  21 H :    0.017143
  22 C :    0.145064
  23 H :    0.001975
  24 H :   -0.005711
  25 C :   -0.059495
  26 H :    0.039354
  27 H :    0.020973
  28 C :   -0.059157
  29 H :    0.021165
  30 H :    0.034497
  31 H :    0.030571
  32 H :    0.048699
  33 H :    0.085802
Sum of atomic charges:   -0.0000000

LOEWDIN ATOMIC CHARGES
----------------------
   0 S :    0.408705
   1 C :   -0.195582
   2 C :   -0.055195
   3 C :   -0.060635
   4 C :   -0.191071
   5 H :    0.024860
   6 C :   -0.027637
   7 H :    0.026725
   8 H :    0.039151
   9 C :   -0.037362
  10 H :    0.023660
  11 H :    0.019544
  12 C :   -0.060485
  13 H :    0.021022
  14 H :    0.034060
  15 H :    0.015798
  16 S :    0.398138
  17 C :   -0.198123
  18 C :   -0.071942
  19 C :   -0.051918
  20 C :   -0.203605
  21 H :    0.028640
  22 C :   -0.024896
  23 H :    0.020266
  24 H :    0.025993
  25 C :   -0.030714
  26 H :    0.027872
  27 H :    0.019243
  28 C :   -0.065495
  29 H :    0.011819
  30 H :    0.022647
  31 H :    0.033183
  32 H :    0.028276
  33 H :    0.045059

  Mayer bond orders larger than 0.100000
B(  0-S ,  1-C ) :   1.1415 B(  0-S ,  4-C ) :   1.1268 B(  1-C ,  2-C ) :   1.6206
B(  1-C , 32-H ) :   0.9653 B(  2-C ,  3-C ) :   1.2155 B(  2-C ,  6-C ) :   1.0313
B(  3-C ,  4-C ) :   1.6160 B(  3-C ,  5-H ) :   0.9900 B(  4-C , 20-C ) :   1.0405
B(  6-C ,  7-H ) :   0.9435 B(  6-C ,  8-H ) :   0.9338 B(  6-C ,  9-C ) :   1.0619
B(  9-C , 10-H ) :   0.9595 B(  9-C , 11-H ) :   0.9543 B(  9-C , 12-C ) :   1.0743
B( 12-C , 13-H ) :   0.9796 B( 12-C , 14-H ) :   0.9712 B( 12-C , 15-H ) :   0.9733
B( 16-S , 17-C ) :   1.1644 B( 16-S , 20-C ) :   1.1355 B( 17-C , 18-C ) :   1.5819
B( 17-C , 20-C ) :   0.1029 B( 17-C , 33-H ) :   0.9593 B( 18-C , 19-C ) :   1.2643
B( 18-C , 21-H ) :   0.9938 B( 19-C , 20-C ) :   1.5604 B( 19-C , 22-C ) :   1.0440
B( 22-C , 23-H ) :   0.9335 B( 22-C , 24-H ) :   0.9329 B( 22-C , 25-C ) :   1.0355
B( 25-C , 26-H ) :   0.9607 B( 25-C , 27-H ) :   0.9579 B( 25-C , 28-C ) :   1.0641
B( 28-C , 29-H ) :   0.9791 B( 28-C , 30-H ) :   0.9754 B( 28-C , 31-H ) :   0.9755

Dispersion correction           -0.015161897
FINAL SINGLE POINT ENERGY     -1339.860169804606

DIPOLE MOMENT
-------------
                                X             Y             Z
Electronic contribution:     12.49730     -23.06345      18.40781
Nuclear contribution   :    -12.63412      23.48904     -18.90336
                        -----------------------------------------
Total Dipole Moment    :     -0.13682       0.42559      -0.49555
                        -----------------------------------------
Magnitude (a.u.)       :      0.66739
Magnitude (Debye)      :      1.69637

Rotational constants in cm-1:     0.020452     0.008608     0.007005
Rotational constants in MHz :   613.132817   258.051781   210.018879

                             ****ORCA TERMINATED NORMALLY****
TOTAL RUN TIME: 0 days 0 hours 0 minutes 22 seconds 246 msec
