                         Program Version 4.2.1 -  RELEASE  -
|  1> ! wB97X-D3 SP def2-SVP
|  2> %pal
|  3> nprocs 24
|  4> end
|  5>
|  6> * xyz 0 1
|  7> S 	 -60.8902 	 6.82628 	 -8.75517
|  8> C 	 -60.5585 	 5.13867 	 -8.90174
|  9> C 	 -60.9903 	 4.53009 	 -10.0882
| 10> C 	 -61.5136 	 5.47081 	 -10.9688
| 11> C 	 -61.4653 	 6.80522 	 -10.4507
| 12> H 	 -61.909 	 5.26966 	 -11.9621
| 13> C 	 -60.6775 	 3.15687 	 -10.4508
| 14> H 	 -61.4521 	 2.78539 	 -11.1294
| 15> H 	 -60.8634 	 2.67828 	 -9.47801
| 16> C 	 -59.3027 	 2.97795 	 -11.2227
| 17> H 	 -59.4401 	 3.16665 	 -12.2869
| 18> H 	 -58.4708 	 3.59595 	 -10.8229
| 19> C 	 -58.8689 	 1.52931 	 -11.1719
| 20> H 	 -58.5811 	 1.2387 	 -10.1716
| 21> H 	 -59.6928 	 0.908893 	 -11.5018
| 22> H 	 -57.9934 	 1.41232 	 -11.8035
| 23> S 	 -62.3388 	 9.55544 	 -10.208
| 24> C 	 -62.806 	 10.3121 	 -11.5851
| 25> C 	 -62.3918 	 9.64146 	 -12.6896
| 26> C 	 -61.8441 	 8.36397 	 -12.4952
| 27> C 	 -61.8717 	 8.0517 	 -11.1097
| 28> H 	 -62.4407 	 10.1333 	 -13.6773
| 29> C 	 -61.2789 	 7.51583 	 -13.6438
| 30> H 	 -60.7549 	 6.67009 	 -13.2259
| 31> H 	 -60.3581 	 8.10698 	 -13.8988
| 32> C 	 -62.1953 	 7.04195 	 -14.7655
| 33> H 	 -61.5242 	 6.67449 	 -15.4984
| 34> H 	 -62.7234 	 7.81195 	 -15.3529
| 35> C 	 -63.3849 	 6.12891 	 -14.4856
| 36> H 	 -63.1754 	 5.04886 	 -14.3472
| 37> H 	 -64.1069 	 6.22065 	 -15.3476
| 38> H 	 -63.9372 	 6.46399 	 -13.6158
| 39> H 	 -60.2882 	 4.55965 	 -8.02838
| 40> H 	 -63.1496 	 11.3311 	 -11.6862
| 41> *
| 42>
| 43>                          ****END OF INPUT****

CARTESIAN COORDINATES (ANGSTROEM)
---------------------------------
  S    -60.890200    6.826280   -8.755170
  C    -60.558500    5.138670   -8.901740
  C    -60.990300    4.530090  -10.088200
  C    -61.513600    5.470810  -10.968800
  C    -61.465300    6.805220  -10.450700
  H    -61.909000    5.269660  -11.962100
  C    -60.677500    3.156870  -10.450800
  H    -61.452100    2.785390  -11.129400
  H    -60.863400    2.678280   -9.478010
  C    -59.302700    2.977950  -11.222700
  H    -59.440100    3.166650  -12.286900
  H    -58.470800    3.595950  -10.822900
  C    -58.868900    1.529310  -11.171900
  H    -58.581100    1.238700  -10.171600
  H    -59.692800    0.908893  -11.501800
  H    -57.993400    1.412320  -11.803500
  S    -62.338800    9.555440  -10.208000
  C    -62.806000   10.312100  -11.585100
  C    -62.391800    9.641460  -12.689600
  C    -61.844100    8.363970  -12.495200
  C    -61.871700    8.051700  -11.109700
  H    -62.440700   10.133300  -13.677300
  C    -61.278900    7.515830  -13.643800
  H    -60.754900    6.670090  -13.225900
  H    -60.358100    8.106980  -13.898800
  C    -62.195300    7.041950  -14.765500
  H    -61.524200    6.674490  -15.498400
  H    -62.723400    7.811950  -15.352900
  C    -63.384900    6.128910  -14.485600
  H    -63.175400    5.048860  -14.347200
  H    -64.106900    6.220650  -15.347600
  H    -63.937200    6.463990  -13.615800
  H    -60.288200    4.559650   -8.028380
  H    -63.149600   11.331100  -11.686200

 Total Charge           Charge          ....    0
 Multiplicity           Mult            ....    1
 Number of Electrons    NEL             ....  134
 Basis Dimension        Dim             ....  322

ORBITAL ENERGIES
----------------

  NO   OCC          E(Eh)            E(eV)
   0   2.0000     -88.969083     -2420.9718
   1   2.0000     -88.964988     -2420.8604
   2   2.0000     -10.335778      -281.2508
   3   2.0000     -10.331148      -281.1248
   4   2.0000     -10.307676      -280.4861
   5   2.0000     -10.305862      -280.4368
   6   2.0000     -10.303252      -280.3657
   7   2.0000     -10.297811      -280.2177
   8   2.0000     -10.293608      -280.1033
   9   2.0000     -10.292551      -280.0745
  10   2.0000     -10.291808      -280.0543
  11   2.0000     -10.291633      -280.0496
  12   2.0000     -10.288619      -279.9675
  13   2.0000     -10.285227      -279.8753
  14   2.0000     -10.284314      -279.8504
  15   2.0000     -10.273430      -279.5542
  16   2.0000      -8.083404      -219.9606
  17   2.0000      -8.080993      -219.8950
  18   2.0000      -6.041743      -164.4042
  19   2.0000      -6.039383      -164.3400
  20   2.0000      -6.038116      -164.3055
  21   2.0000      -6.035416      -164.2320
  22   2.0000      -6.034268      -164.2008
  23   2.0000      -6.031711      -164.1312
  24   2.0000      -1.006540       -27.3894
  25   2.0000      -0.986665       -26.8485
  26   2.0000      -0.913253       -24.8509
  27   2.0000      -0.911181       -24.7945
  28   2.0000      -0.867597       -23.6085
  29   2.0000      -0.859687       -23.3933
  30   2.0000      -0.847787       -23.0695
  31   2.0000      -0.810520       -22.0554
  32   2.0000      -0.790941       -21.5226
  33   2.0000      -0.766191       -20.8491
  34   2.0000      -0.710523       -19.3343
  35   2.0000      -0.699832       -19.0434
  36   2.0000      -0.695910       -18.9367
  37   2.0000      -0.651192       -17.7198
  38   2.0000      -0.631276       -17.1779
  39   2.0000      -0.620106       -16.8739
  40   2.0000      -0.598948       -16.2982
  41   2.0000      -0.576880       -15.6977
  42   2.0000      -0.554807       -15.0971
  43   2.0000      -0.551654       -15.0113
  44   2.0000      -0.540273       -14.7016
  45   2.0000      -0.529471       -14.4076
  46   2.0000      -0.519924       -14.1478
  47   2.0000      -0.514578       -14.0024
  48   2.0000      -0.498179       -13.5561
  49   2.0000      -0.496205       -13.5024
  50   2.0000      -0.489023       -13.3070
  51   2.0000      -0.476347       -12.9621
  52   2.0000      -0.473319       -12.8797
  53   2.0000      -0.462512       -12.5856
  54   2.0000      -0.461578       -12.5602
  55   2.0000      -0.449978       -12.2445
  56   2.0000      -0.446254       -12.1432
  57   2.0000      -0.440236       -11.9794
  58   2.0000      -0.437426       -11.9030
  59   2.0000      -0.429128       -11.6772
  60   2.0000      -0.422142       -11.4871
  61   2.0000      -0.411738       -11.2040
  62   2.0000      -0.406819       -11.0701
  63   2.0000      -0.356529        -9.7016
  64   2.0000      -0.333333        -9.0705
  65   2.0000      -0.329325        -8.9614
  66   2.0000      -0.270880        -7.3710
  67   0.0000       0.017561         0.4778
  68   0.0000       0.078911         2.1473
  69   0.0000       0.101371         2.7584
  70   0.0000       0.118032         3.2118
  71   0.0000       0.134697         3.6653

MULLIKEN ATOMIC CHARGES
-----------------------
   0 S :    0.111607
   1 C :   -0.122623
   2 C :   -0.086318
   3 C :    0.012994
   4 C :   -0.156528
   5 H :   -0.001321
   6 C :    0.055430
   7 H :    0.020214
   8 H :    0.029947
   9 C :   -0.069505
  10 H :    0.031215
  11 H :    0.045013
  12 C :   -0.031984
  13 H :    0.026177
  14 H :    0.026901
  15 H :    0.031494
  16 S :    0.113596
  17 C :   -0.063766
  18 C :   -0.066017
  19 C :   -0.059985
  20 C :   -0.145479
  21 H :    0.017888
  22 C :    0.068004
  23 H :    0.009660
  24 H :    0.045226
  25 C :   -0.032469
  26 H :    0.018912
  27 H :    0.023580
  28 C :   -0.080478
  29 H :    0.042066
  30 H :    0.040580
  31 H :    0.046111
  32 H :    0.043807
  33 H :    0.056048
Sum of atomic charges:   -0.0000000

LOEWDIN ATOMIC CHARGES
----------------------
   0 S :    0.404135
   1 C :   -0.211441
   2 C :   -0.070851
   3 C :   -0.063024
   4 C :   -0.171394
   5 H :    0.030021
   6 C :   -0.037567
   7 H :    0.031766
   8 H :    0.036561
   9 C :   -0.031911
  10 H :    0.025836
  11 H :    0.029400
  12 C :   -0.061145
  13 H :    0.020374
  14 H :    0.022699
  15 H :    0.024937
  16 S :    0.422750
  17 C :   -0.220618
  18 C :   -0.085729
  19 C :   -0.056172
  20 C :   -0.189746
  21 H :    0.031981
  22 C :   -0.038610
  23 H :    0.029050
  24 H :    0.049508
  25 C :   -0.046737
  26 H :    0.023875
  27 H :    0.029370
  28 C :   -0.071261
  29 H :    0.022138
  30 H :    0.035833
  31 H :    0.029132
  32 H :    0.021643
  33 H :    0.035195

  Mayer bond orders larger than 0.100000
B(  0-S ,  1-C ) :   1.1523 B(  0-S ,  4-C ) :   1.1586 B(  1-C ,  2-C ) :   1.5669
B(  1-C ,  4-C ) :   0.1096 B(  1-C , 32-H ) :   0.9624 B(  2-C ,  3-C ) :   1.2828
B(  2-C ,  6-C ) :   1.0449 B(  3-C ,  4-C ) :   1.5071 B(  3-C ,  5-H ) :   0.9883
B(  4-C , 20-C ) :   1.1098 B(  6-C ,  7-H ) :   0.9286 B(  6-C ,  8-H ) :   0.9422
B(  6-C ,  9-C ) :   1.0417 B(  9-C , 10-H ) :   0.9535 B(  9-C , 11-H ) :   0.9626
B(  9-C , 12-C ) :   1.0876 B( 12-C , 13-H ) :   0.9787 B( 12-C , 14-H ) :   0.9712
B( 12-C , 15-H ) :   0.9736 B( 16-S , 17-C ) :   1.1796 B( 16-S , 20-C ) :   1.1380
B( 17-C , 18-C ) :   1.5806 B( 17-C , 33-H ) :   0.9625 B( 18-C , 19-C ) :   1.2871
B( 18-C , 21-H ) :   0.9865 B( 19-C , 20-C ) :   1.5244 B( 19-C , 22-C ) :   1.0310
B( 22-C , 23-H ) :   0.9267 B( 22-C , 24-H ) :   0.9286 B( 22-C , 25-C ) :   1.0622
B( 25-C , 26-H ) :   0.9493 B( 25-C , 27-H ) :   0.9611 B( 25-C , 28-C ) :   1.0718
B( 28-C , 29-H ) :   0.9695 B( 28-C , 30-H ) :   0.9760 B( 28-C , 31-H ) :   0.9709

Dispersion correction           -0.014391804
FINAL SINGLE POINT ENERGY     -1339.861214991571

DIPOLE MOMENT
-------------
                                X             Y             Z
Electronic contribution:     -4.20582      23.53113      20.36087
Nuclear contribution   :      4.34965     -23.83782     -21.02277
                        -----------------------------------------
Total Dipole Moment    :      0.14383      -0.30668      -0.66190
                        -----------------------------------------
Magnitude (a.u.)       :      0.74354
Magnitude (Debye)      :      1.88993

Rotational constants in cm-1:     0.018883     0.008970     0.006476
Rotational constants in MHz :   566.109436   268.921928   194.157925

                             ****ORCA TERMINATED NORMALLY****
TOTAL RUN TIME: 0 days 0 hours 0 minutes 22 seconds 4 msec
