                         Program Version 4.2.1 -  RELEASE  -
|  1> ! wB97X-D3 SP def2-SVP
|  2> %pal
|  3> nprocs 24
|  4> end
|  5>
|  6> * xyz 0 1
|  7> S 	 -151.335 	 6.39803 	 2.88887
|  8> C 	 -151.065 	 5.00376 	 3.87532
|  9> C 	 -150.485 	 5.26179 	 5.10436
| 10> C 	 -150.146 	 6.66999 	 5.15342
| 11> C 	 -150.724 	 7.43519 	 4.16015
| 12> H 	 -149.613 	 7.14526 	 5.98038
| 13> C 	 -150.257 	 4.33301 	 6.33383
| 14> H 	 -149.645 	 4.85559 	 7.016
| 15> H 	 -149.657 	 3.46696 	 6.04356
| 16> C 	 -151.538 	 3.74214 	 6.90688
| 17> H 	 -152.105 	 3.05999 	 6.28461
| 18> H 	 -151.405 	 3.15507 	 7.82926
| 19> C 	 -152.422 	 4.9671 	 7.35406
| 20> H 	 -153.284 	 4.63017 	 7.78234
| 21> H 	 -151.891 	 5.60778 	 8.06873
| 22> H 	 -152.612 	 5.70473 	 6.49066
| 23> S 	 -151.333 	 9.96108 	 5.15355
| 24> C 	 -150.487 	 11.3034 	 4.50015
| 25> C 	 -149.685 	 10.9318 	 3.36901
| 26> C 	 -149.913 	 9.5727 	 3.00061
| 27> C 	 -150.529 	 8.87001 	 4.02862
| 28> H 	 -149.215 	 11.6972 	 2.84523
| 29> C 	 -149.176 	 8.90701 	 1.87405
| 30> H 	 -148.983 	 9.62105 	 1.17729
| 31> H 	 -149.909 	 8.17695 	 1.38485
| 32> C 	 -147.84 	 8.21318 	 2.30492
| 33> H 	 -148.118 	 7.56547 	 3.13685
| 34> H 	 -147.182 	 8.97605 	 2.7675
| 35> C 	 -147.385 	 7.23695 	 1.18947
| 36> H 	 -148.059 	 6.35166 	 1.04906
| 37> H 	 -146.346 	 6.89962 	 1.40775
| 38> H 	 -147.505 	 7.87393 	 0.220213
| 39> H 	 -151.513 	 4.07071 	 3.65342
| 40> H 	 -150.686 	 12.2808 	 4.80228
| 41> *
| 42>
| 43>                          ****END OF INPUT****

CARTESIAN COORDINATES (ANGSTROEM)
---------------------------------
  S    -151.335000    6.398030    2.888870
  C    -151.065000    5.003760    3.875320
  C    -150.485000    5.261790    5.104360
  C    -150.146000    6.669990    5.153420
  C    -150.724000    7.435190    4.160150
  H    -149.613000    7.145260    5.980380
  C    -150.257000    4.333010    6.333830
  H    -149.645000    4.855590    7.016000
  H    -149.657000    3.466960    6.043560
  C    -151.538000    3.742140    6.906880
  H    -152.105000    3.059990    6.284610
  H    -151.405000    3.155070    7.829260
  C    -152.422000    4.967100    7.354060
  H    -153.284000    4.630170    7.782340
  H    -151.891000    5.607780    8.068730
  H    -152.612000    5.704730    6.490660
  S    -151.333000    9.961080    5.153550
  C    -150.487000   11.303400    4.500150
  C    -149.685000   10.931800    3.369010
  C    -149.913000    9.572700    3.000610
  C    -150.529000    8.870010    4.028620
  H    -149.215000   11.697200    2.845230
  C    -149.176000    8.907010    1.874050
  H    -148.983000    9.621050    1.177290
  H    -149.909000    8.176950    1.384850
  C    -147.840000    8.213180    2.304920
  H    -148.118000    7.565470    3.136850
  H    -147.182000    8.976050    2.767500
  C    -147.385000    7.236950    1.189470
  H    -148.059000    6.351660    1.049060
  H    -146.346000    6.899620    1.407750
  H    -147.505000    7.873930    0.220213
  H    -151.513000    4.070710    3.653420
  H    -150.686000   12.280800    4.802280

 Total Charge           Charge          ....    0
 Multiplicity           Mult            ....    1
 Number of Electrons    NEL             ....  134
 Basis Dimension        Dim             ....  322

ORBITAL ENERGIES
----------------

  NO   OCC          E(Eh)            E(eV)
   0   2.0000     -88.969693     -2420.9884
   1   2.0000     -88.967940     -2420.9407
   2   2.0000     -10.327131      -281.0155
   3   2.0000     -10.322166      -280.8804
   4   2.0000     -10.313941      -280.6566
   5   2.0000     -10.311032      -280.5774
   6   2.0000     -10.306357      -280.4502
   7   2.0000     -10.300184      -280.2822
   8   2.0000     -10.295957      -280.1672
   9   2.0000     -10.295723      -280.1609
  10   2.0000     -10.293623      -280.1037
  11   2.0000     -10.291007      -280.0325
  12   2.0000     -10.289309      -279.9863
  13   2.0000     -10.284738      -279.8620
  14   2.0000     -10.283725      -279.8344
  15   2.0000     -10.271313      -279.4966
  16   2.0000      -8.084310      -219.9852
  17   2.0000      -8.082779      -219.9436
  18   2.0000      -6.042861      -164.4346
  19   2.0000      -6.041066      -164.3858
  20   2.0000      -6.038848      -164.3254
  21   2.0000      -6.037200      -164.2806
  22   2.0000      -6.035028      -164.2215
  23   2.0000      -6.033867      -164.1899
  24   2.0000      -1.007259       -27.4089
  25   2.0000      -0.984406       -26.7870
  26   2.0000      -0.910942       -24.7880
  27   2.0000      -0.904686       -24.6177
  28   2.0000      -0.865582       -23.5537
  29   2.0000      -0.848191       -23.0804
  30   2.0000      -0.843617       -22.9560
  31   2.0000      -0.806590       -21.9484
  32   2.0000      -0.781672       -21.2704
  33   2.0000      -0.769072       -20.9275
  34   2.0000      -0.707728       -19.2582
  35   2.0000      -0.699415       -19.0321
  36   2.0000      -0.689578       -18.7644
  37   2.0000      -0.668232       -18.1835
  38   2.0000      -0.643059       -17.4985
  39   2.0000      -0.611506       -16.6399
  40   2.0000      -0.591444       -16.0940
  41   2.0000      -0.572069       -15.5668
  42   2.0000      -0.560994       -15.2654
  43   2.0000      -0.555736       -15.1224
  44   2.0000      -0.539054       -14.6684
  45   2.0000      -0.519097       -14.1253
  46   2.0000      -0.513245       -13.9661
  47   2.0000      -0.511981       -13.9317
  48   2.0000      -0.506681       -13.7875
  49   2.0000      -0.488695       -13.2981
  50   2.0000      -0.483008       -13.1433
  51   2.0000      -0.475608       -12.9419
  52   2.0000      -0.470475       -12.8023
  53   2.0000      -0.465047       -12.6546
  54   2.0000      -0.463706       -12.6181
  55   2.0000      -0.449281       -12.2255
  56   2.0000      -0.445464       -12.1217
  57   2.0000      -0.433519       -11.7966
  58   2.0000      -0.431953       -11.7540
  59   2.0000      -0.425885       -11.5889
  60   2.0000      -0.420346       -11.4382
  61   2.0000      -0.412981       -11.2378
  62   2.0000      -0.404677       -11.0118
  63   2.0000      -0.339667        -9.2428
  64   2.0000      -0.331000        -9.0070
  65   2.0000      -0.328163        -8.9298
  66   2.0000      -0.292074        -7.9477
  67   0.0000       0.031614         0.8603
  68   0.0000       0.061364         1.6698
  69   0.0000       0.106201         2.8899
  70   0.0000       0.115712         3.1487
  71   0.0000       0.124332         3.3833

MULLIKEN ATOMIC CHARGES
-----------------------
   0 S :    0.117732
   1 C :   -0.108211
   2 C :   -0.107604
   3 C :    0.010117
   4 C :   -0.155375
   5 H :    0.021393
   6 C :    0.121506
   7 H :    0.011882
   8 H :    0.031394
   9 C :   -0.078212
  10 H :    0.031824
  11 H :    0.032239
  12 C :   -0.061632
  13 H :    0.014748
  14 H :    0.022070
  15 H :    0.058204
  16 S :    0.127547
  17 C :   -0.086566
  18 C :   -0.017349
  19 C :   -0.035926
  20 C :   -0.179497
  21 H :   -0.000468
  22 C :    0.058531
  23 H :   -0.005925
  24 H :    0.032631
  25 C :   -0.059441
  26 H :    0.031698
  27 H :    0.037816
  28 C :   -0.076450
  29 H :    0.051556
  30 H :    0.048922
  31 H :    0.038414
  32 H :    0.033522
  33 H :    0.038909
Sum of atomic charges:    0.0000000

LOEWDIN ATOMIC CHARGES
----------------------
   0 S :    0.422593
   1 C :   -0.196514
   2 C :   -0.058235
   3 C :   -0.059594
   4 C :   -0.200432
   5 H :    0.031137
   6 C :   -0.023113
   7 H :    0.025191
   8 H :    0.033738
   9 C :   -0.038656
  10 H :    0.022216
  11 H :    0.028402
  12 C :   -0.063944
  13 H :    0.006344
  14 H :    0.023395
  15 H :    0.037569
  16 S :    0.428531
  17 C :   -0.188977
  18 C :   -0.061210
  19 C :   -0.054151
  20 C :   -0.202021
  21 H :    0.019703
  22 C :   -0.034819
  23 H :    0.010841
  24 H :    0.028405
  25 C :   -0.043321
  26 H :    0.025321
  27 H :    0.029703
  28 C :   -0.073124
  29 H :    0.032584
  30 H :    0.029721
  31 H :    0.031183
  32 H :    0.017863
  33 H :    0.013674

  Mayer bond orders larger than 0.100000
B(  0-S ,  1-C ) :   1.1499 B(  0-S ,  4-C ) :   1.1381 B(  1-C ,  2-C ) :   1.6200
B(  1-C , 32-H ) :   0.9662 B(  2-C ,  3-C ) :   1.2319 B(  2-C ,  6-C ) :   1.0107
B(  3-C ,  4-C ) :   1.5910 B(  3-C ,  5-H ) :   0.9847 B(  4-C , 20-C ) :   1.0427
B(  6-C ,  7-H ) :   0.9442 B(  6-C ,  8-H ) :   0.9357 B(  6-C ,  9-C ) :   1.0725
B(  9-C , 10-H ) :   0.9591 B(  9-C , 11-H ) :   0.9557 B(  9-C , 12-C ) :   1.0653
B( 12-C , 13-H ) :   0.9769 B( 12-C , 14-H ) :   0.9766 B( 12-C , 15-H ) :   0.9732
B( 16-S , 17-C ) :   1.1851 B( 16-S , 20-C ) :   1.1630 B( 17-C , 18-C ) :   1.5578
B( 17-C , 20-C ) :   0.1111 B( 17-C , 33-H ) :   0.9766 B( 18-C , 19-C ) :   1.2650
B( 18-C , 21-H ) :   0.9971 B( 19-C , 20-C ) :   1.5352 B( 19-C , 22-C ) :   1.0731
B( 22-C , 23-H ) :   0.9187 B( 22-C , 24-H ) :   0.9287 B( 22-C , 25-C ) :   1.0477
B( 25-C , 26-H ) :   0.9577 B( 25-C , 27-H ) :   0.9572 B( 25-C , 28-C ) :   1.0558
B( 28-C , 29-H ) :   0.9736 B( 28-C , 30-H ) :   0.9727 B( 28-C , 31-H ) :   0.9766

Dispersion correction           -0.015908957
FINAL SINGLE POINT ENERGY     -1339.855658746539

DIPOLE MOMENT
-------------
                                X             Y             Z
Electronic contribution:     -8.93880      12.76820      -2.34065
Nuclear contribution   :      9.13678     -12.97282       2.53116
                        -----------------------------------------
Total Dipole Moment    :      0.19798      -0.20462       0.19050
                        -----------------------------------------
Magnitude (a.u.)       :      0.34257
Magnitude (Debye)      :      0.87075

Rotational constants in cm-1:     0.019495     0.009626     0.007357
Rotational constants in MHz :   584.431574   288.588219   220.572031

                             ****ORCA TERMINATED NORMALLY****
TOTAL RUN TIME: 0 days 0 hours 0 minutes 21 seconds 174 msec
