                         Program Version 4.2.1 -  RELEASE  -
|  1> ! wB97X-D3 SP def2-SVP
|  2> %pal
|  3> nprocs 24
|  4> end
|  5>
|  6> * xyz 0 1
|  7> S 	 -106.042 	 31.0305 	 -22.6369
|  8> C 	 -104.327 	 30.9917 	 -22.4452
|  9> C 	 -103.842 	 32.3013 	 -22.1268
| 10> C 	 -104.862 	 33.2843 	 -22.2933
| 11> C 	 -106.17 	 32.7843 	 -22.5795
| 12> H 	 -104.691 	 34.3398 	 -22.0758
| 13> C 	 -102.436 	 32.7506 	 -21.6934
| 14> H 	 -102.549 	 33.5442 	 -20.9734
| 15> H 	 -101.967 	 33.1731 	 -22.586
| 16> C 	 -101.519 	 31.7341 	 -21.0372
| 17> H 	 -101.836 	 31.4135 	 -20.0362
| 18> H 	 -101.523 	 30.8875 	 -21.7426
| 19> C 	 -100.061 	 32.1923 	 -20.8322
| 20> H 	 -99.9781 	 33.2077 	 -20.4799
| 21> H 	 -99.5877 	 31.4682 	 -20.1797
| 22> H 	 -99.4965 	 32.0614 	 -21.7647
| 23> S 	 -107.953 	 34.7367 	 -21.7403
| 24> C 	 -109.21 	 35.2976 	 -22.8199
| 25> C 	 -109.331 	 34.3628 	 -23.8545
| 26> C 	 -108.3 	 33.3975 	 -23.9546
| 27> C 	 -107.365 	 33.5762 	 -22.9835
| 28> H 	 -110.199 	 34.4727 	 -24.4336
| 29> C 	 -108.328 	 32.3866 	 -25.091
| 30> H 	 -107.314 	 31.965 	 -25.1333
| 31> H 	 -108.606 	 32.9939 	 -25.9869
| 32> C 	 -109.288 	 31.1686 	 -24.8758
| 33> H 	 -109.286 	 30.7258 	 -23.8968
| 34> H 	 -108.936 	 30.345 	 -25.5763
| 35> C 	 -110.734 	 31.5629 	 -25.2209
| 36> H 	 -111.305 	 30.6527 	 -24.91
| 37> H 	 -110.912 	 31.6593 	 -26.3022
| 38> H 	 -111.093 	 32.4682 	 -24.7406
| 39> H 	 -103.613 	 30.1896 	 -22.4368
| 40> H 	 -109.941 	 36.0465 	 -22.6339
| 41> *
| 42>
| 43>                          ****END OF INPUT****

CARTESIAN COORDINATES (ANGSTROEM)
---------------------------------
  S    -106.042000   31.030500  -22.636900
  C    -104.327000   30.991700  -22.445200
  C    -103.842000   32.301300  -22.126800
  C    -104.862000   33.284300  -22.293300
  C    -106.170000   32.784300  -22.579500
  H    -104.691000   34.339800  -22.075800
  C    -102.436000   32.750600  -21.693400
  H    -102.549000   33.544200  -20.973400
  H    -101.967000   33.173100  -22.586000
  C    -101.519000   31.734100  -21.037200
  H    -101.836000   31.413500  -20.036200
  H    -101.523000   30.887500  -21.742600
  C    -100.061000   32.192300  -20.832200
  H    -99.978100   33.207700  -20.479900
  H    -99.587700   31.468200  -20.179700
  H    -99.496500   32.061400  -21.764700
  S    -107.953000   34.736700  -21.740300
  C    -109.210000   35.297600  -22.819900
  C    -109.331000   34.362800  -23.854500
  C    -108.300000   33.397500  -23.954600
  C    -107.365000   33.576200  -22.983500
  H    -110.199000   34.472700  -24.433600
  C    -108.328000   32.386600  -25.091000
  H    -107.314000   31.965000  -25.133300
  H    -108.606000   32.993900  -25.986900
  C    -109.288000   31.168600  -24.875800
  H    -109.286000   30.725800  -23.896800
  H    -108.936000   30.345000  -25.576300
  C    -110.734000   31.562900  -25.220900
  H    -111.305000   30.652700  -24.910000
  H    -110.912000   31.659300  -26.302200
  H    -111.093000   32.468200  -24.740600
  H    -103.613000   30.189600  -22.436800
  H    -109.941000   36.046500  -22.633900

 Total Charge           Charge          ....    0
 Multiplicity           Mult            ....    1
 Number of Electrons    NEL             ....  134
 Basis Dimension        Dim             ....  322

ORBITAL ENERGIES
----------------

  NO   OCC          E(Eh)            E(eV)
   0   2.0000     -88.973598     -2421.0947
   1   2.0000     -88.962993     -2420.8061
   2   2.0000     -10.336190      -281.2620
   3   2.0000     -10.330870      -281.1173
   4   2.0000     -10.318783      -280.7883
   5   2.0000     -10.316792      -280.7342
   6   2.0000     -10.306043      -280.4417
   7   2.0000     -10.301451      -280.3167
   8   2.0000     -10.297084      -280.1979
   9   2.0000     -10.295047      -280.1425
  10   2.0000     -10.293527      -280.1011
  11   2.0000     -10.291496      -280.0459
  12   2.0000     -10.289567      -279.9933
  13   2.0000     -10.288551      -279.9657
  14   2.0000     -10.279177      -279.7106
  15   2.0000     -10.278841      -279.7015
  16   2.0000      -8.087263      -220.0656
  17   2.0000      -8.077075      -219.7884
  18   2.0000      -6.045806      -164.5147
  19   2.0000      -6.041684      -164.4026
  20   2.0000      -6.038297      -164.3104
  21   2.0000      -6.035656      -164.2385
  22   2.0000      -6.031870      -164.1355
  23   2.0000      -6.027584      -164.0189
  24   2.0000      -1.001185       -27.2436
  25   2.0000      -0.981563       -26.7097
  26   2.0000      -0.911698       -24.8086
  27   2.0000      -0.903920       -24.5969
  28   2.0000      -0.864077       -23.5127
  29   2.0000      -0.850551       -23.1447
  30   2.0000      -0.846653       -23.0386
  31   2.0000      -0.808421       -21.9983
  32   2.0000      -0.781798       -21.2738
  33   2.0000      -0.773038       -21.0354
  34   2.0000      -0.708398       -19.2765
  35   2.0000      -0.698888       -19.0177
  36   2.0000      -0.688256       -18.7284
  37   2.0000      -0.664758       -18.0890
  38   2.0000      -0.633773       -17.2458
  39   2.0000      -0.609253       -16.5786
  40   2.0000      -0.590392       -16.0654
  41   2.0000      -0.579293       -15.7634
  42   2.0000      -0.566974       -15.4282
  43   2.0000      -0.549319       -14.9477
  44   2.0000      -0.539054       -14.6684
  45   2.0000      -0.525300       -14.2941
  46   2.0000      -0.521655       -14.1949
  47   2.0000      -0.513783       -13.9807
  48   2.0000      -0.503203       -13.6928
  49   2.0000      -0.497620       -13.5409
  50   2.0000      -0.495159       -13.4739
  51   2.0000      -0.481464       -13.1013
  52   2.0000      -0.475498       -12.9390
  53   2.0000      -0.463637       -12.6162
  54   2.0000      -0.459439       -12.5020
  55   2.0000      -0.444463       -12.0944
  56   2.0000      -0.440045       -11.9742
  57   2.0000      -0.435126       -11.8404
  58   2.0000      -0.431173       -11.7328
  59   2.0000      -0.422132       -11.4868
  60   2.0000      -0.416756       -11.3405
  61   2.0000      -0.412934       -11.2365
  62   2.0000      -0.411600       -11.2002
  63   2.0000      -0.342945        -9.3320
  64   2.0000      -0.328112        -8.9284
  65   2.0000      -0.325607        -8.8602
  66   2.0000      -0.293018        -7.9734
  67   0.0000       0.022591         0.6147
  68   0.0000       0.068930         1.8757
  69   0.0000       0.102233         2.7819
  70   0.0000       0.119372         3.2483
  71   0.0000       0.123959         3.3731

MULLIKEN ATOMIC CHARGES
-----------------------
   0 S :    0.129081
   1 C :   -0.107612
   2 C :   -0.109934
   3 C :    0.015806
   4 C :   -0.155823
   5 H :    0.019788
   6 C :    0.066738
   7 H :    0.026635
   8 H :    0.043242
   9 C :   -0.113286
  10 H :    0.039587
  11 H :    0.025497
  12 C :   -0.034273
  13 H :    0.036966
  14 H :    0.031038
  15 H :    0.027605
  16 S :    0.091994
  17 C :   -0.071669
  18 C :   -0.059433
  19 C :   -0.011696
  20 C :   -0.151743
  21 H :    0.001499
  22 C :    0.056501
  23 H :    0.029946
  24 H :    0.043432
  25 C :   -0.068051
  26 H :    0.032768
  27 H :    0.042849
  28 C :   -0.074588
  29 H :    0.037947
  30 H :    0.032845
  31 H :    0.037801
  32 H :    0.040830
  33 H :    0.047711
Sum of atomic charges:    0.0000000

LOEWDIN ATOMIC CHARGES
----------------------
   0 S :    0.432455
   1 C :   -0.215362
   2 C :   -0.061970
   3 C :   -0.060405
   4 C :   -0.206518
   5 H :    0.030860
   6 C :   -0.033764
   7 H :    0.029075
   8 H :    0.037187
   9 C :   -0.044379
  10 H :    0.026577
  11 H :    0.021708
  12 C :   -0.062234
  13 H :    0.023360
  14 H :    0.028063
  15 H :    0.026333
  16 S :    0.385603
  17 C :   -0.177099
  18 C :   -0.069703
  19 C :   -0.059673
  20 C :   -0.178699
  21 H :    0.019005
  22 C :   -0.032018
  23 H :    0.026722
  24 H :    0.038948
  25 C :   -0.038263
  26 H :    0.021897
  27 H :    0.034098
  28 C :   -0.072714
  29 H :    0.032398
  30 H :    0.024662
  31 H :    0.021359
  32 H :    0.027088
  33 H :    0.025402

  Mayer bond orders larger than 0.100000
B(  0-S ,  1-C ) :   1.1640 B(  0-S ,  4-C ) :   1.1548 B(  1-C ,  2-C ) :   1.5501
B(  1-C ,  4-C ) :   0.1077 B(  1-C , 32-H ) :   0.9682 B(  2-C ,  3-C ) :   1.3133
B(  2-C ,  6-C ) :   1.0066 B(  3-C ,  4-C ) :   1.5119 B(  3-C ,  5-H ) :   0.9878
B(  4-C , 20-C ) :   1.0263 B(  6-C ,  7-H ) :   0.9448 B(  6-C ,  8-H ) :   0.9389
B(  6-C ,  9-C ) :   1.0700 B(  9-C , 10-H ) :   0.9629 B(  9-C , 11-H ) :   0.9524
B(  9-C , 12-C ) :   1.0872 B( 12-C , 13-H ) :   0.9760 B( 12-C , 14-H ) :   0.9741
B( 12-C , 15-H ) :   0.9741 B( 16-S , 17-C ) :   1.1464 B( 16-S , 20-C ) :   1.1349
B( 17-C , 18-C ) :   1.6156 B( 17-C , 20-C ) :   0.1015 B( 17-C , 33-H ) :   0.9712
B( 18-C , 19-C ) :   1.2163 B( 18-C , 21-H ) :   0.9924 B( 19-C , 20-C ) :   1.6115
B( 19-C , 22-C ) :   1.0331 B( 22-C , 23-H ) :   0.9282 B( 22-C , 24-H ) :   0.9418
B( 22-C , 25-C ) :   1.0603 B( 25-C , 26-H ) :   0.9586 B( 25-C , 27-H ) :   0.9575
B( 25-C , 28-C ) :   1.0714 B( 28-C , 29-H ) :   0.9739 B( 28-C , 30-H ) :   0.9767
B( 28-C , 31-H ) :   0.9739

Dispersion correction           -0.013919548
FINAL SINGLE POINT ENERGY     -1339.867430027864

DIPOLE MOMENT
-------------
                                X             Y             Z
Electronic contribution:    -10.09053       6.79006       5.19600
Nuclear contribution   :     10.28458      -6.87513      -5.34257
                        -----------------------------------------
Total Dipole Moment    :      0.19405      -0.08507      -0.14657
                        -----------------------------------------
Magnitude (a.u.)       :      0.25763
Magnitude (Debye)      :      0.65485

Rotational constants in cm-1:     0.027150     0.006616     0.005577
Rotational constants in MHz :   813.946656   198.333704   167.208680

                             ****ORCA TERMINATED NORMALLY****
TOTAL RUN TIME: 0 days 0 hours 0 minutes 20 seconds 867 msec
