                         Program Version 4.2.1 -  RELEASE  -
|  1> ! wB97X-D3 SP def2-SVP
|  2> %pal
|  3> nprocs 24
|  4> end
|  5>
|  6> * xyz 0 1
|  7> S 	 -143.854 	 28.0506 	 -19.6083
|  8> C 	 -145.194 	 27.0618 	 -20.0244
|  9> C 	 -145.286 	 26.796 	 -21.424
| 10> C 	 -144.161 	 27.4101 	 -22.1261
| 11> C 	 -143.249 	 27.9915 	 -21.2696
| 12> H 	 -143.991 	 27.3315 	 -23.2094
| 13> C 	 -146.471 	 26.0297 	 -22.0471
| 14> H 	 -147.089 	 25.4133 	 -21.3212
| 15> H 	 -146.011 	 25.2013 	 -22.6997
| 16> C 	 -147.301 	 26.6809 	 -23.0962
| 17> H 	 -147.881 	 27.4715 	 -22.6726
| 18> H 	 -146.653 	 27.2288 	 -23.7502
| 19> C 	 -148.241 	 25.6518 	 -23.8174
| 20> H 	 -148.813 	 25.0482 	 -23.1672
| 21> H 	 -148.923 	 26.177 	 -24.4367
| 22> H 	 -147.693 	 24.9072 	 -24.3865
| 23> S 	 -142.2 	 30.079 	 -22.7856
| 24> C 	 -140.456 	 30.2994 	 -22.786
| 25> C 	 -139.796 	 29.3606 	 -21.9426
| 26> C 	 -140.715 	 28.5609 	 -21.2623
| 27> C 	 -142.045 	 28.7139 	 -21.6587
| 28> H 	 -138.705 	 29.3681 	 -22.0303
| 29> C 	 -140.274 	 27.5691 	 -20.3036
| 30> H 	 -141.019 	 27.3741 	 -19.5793
| 31> H 	 -139.424 	 27.9468 	 -19.7534
| 32> C 	 -140.14 	 26.281 	 -20.988
| 33> H 	 -139.63 	 26.3463 	 -21.9251
| 34> H 	 -141.135 	 26.0071 	 -21.255
| 35> C 	 -139.557 	 25.1993 	 -20.1138
| 36> H 	 -139.862 	 25.413 	 -19.0646
| 37> H 	 -138.459 	 25.2292 	 -20.1678
| 38> H 	 -139.883 	 24.2135 	 -20.2794
| 39> H 	 -145.984 	 26.8854 	 -19.3544
| 40> H 	 -139.894 	 30.9809 	 -23.5087
| 41> *
| 42>
| 43>                          ****END OF INPUT****

CARTESIAN COORDINATES (ANGSTROEM)
---------------------------------
  S    -143.854000   28.050600  -19.608300
  C    -145.194000   27.061800  -20.024400
  C    -145.286000   26.796000  -21.424000
  C    -144.161000   27.410100  -22.126100
  C    -143.249000   27.991500  -21.269600
  H    -143.991000   27.331500  -23.209400
  C    -146.471000   26.029700  -22.047100
  H    -147.089000   25.413300  -21.321200
  H    -146.011000   25.201300  -22.699700
  C    -147.301000   26.680900  -23.096200
  H    -147.881000   27.471500  -22.672600
  H    -146.653000   27.228800  -23.750200
  C    -148.241000   25.651800  -23.817400
  H    -148.813000   25.048200  -23.167200
  H    -148.923000   26.177000  -24.436700
  H    -147.693000   24.907200  -24.386500
  S    -142.200000   30.079000  -22.785600
  C    -140.456000   30.299400  -22.786000
  C    -139.796000   29.360600  -21.942600
  C    -140.715000   28.560900  -21.262300
  C    -142.045000   28.713900  -21.658700
  H    -138.705000   29.368100  -22.030300
  C    -140.274000   27.569100  -20.303600
  H    -141.019000   27.374100  -19.579300
  H    -139.424000   27.946800  -19.753400
  C    -140.140000   26.281000  -20.988000
  H    -139.630000   26.346300  -21.925100
  H    -141.135000   26.007100  -21.255000
  C    -139.557000   25.199300  -20.113800
  H    -139.862000   25.413000  -19.064600
  H    -138.459000   25.229200  -20.167800
  H    -139.883000   24.213500  -20.279400
  H    -145.984000   26.885400  -19.354400
  H    -139.894000   30.980900  -23.508700

 Total Charge           Charge          ....    0
 Multiplicity           Mult            ....    1
 Number of Electrons    NEL             ....  134
 Basis Dimension        Dim             ....  322

ORBITAL ENERGIES
----------------

  NO   OCC          E(Eh)            E(eV)
   0   2.0000     -88.970005     -2420.9969
   1   2.0000     -88.968108     -2420.9453
   2   2.0000     -10.332352      -281.1576
   3   2.0000     -10.325218      -280.9635
   4   2.0000     -10.324624      -280.9473
   5   2.0000     -10.314032      -280.6591
   6   2.0000     -10.313584      -280.6469
   7   2.0000     -10.304019      -280.3866
   8   2.0000     -10.301963      -280.3307
   9   2.0000     -10.297330      -280.2046
  10   2.0000     -10.296256      -280.1754
  11   2.0000     -10.283369      -279.8247
  12   2.0000     -10.276510      -279.6380
  13   2.0000     -10.271237      -279.4946
  14   2.0000     -10.268993      -279.4335
  15   2.0000     -10.267534      -279.3938
  16   2.0000      -8.084575      -219.9925
  17   2.0000      -8.081835      -219.9179
  18   2.0000      -6.042943      -164.4368
  19   2.0000      -6.040254      -164.3637
  20   2.0000      -6.039129      -164.3331
  21   2.0000      -6.036413      -164.2591
  22   2.0000      -6.035467      -164.2334
  23   2.0000      -6.032831      -164.1617
  24   2.0000      -1.004452       -27.3325
  25   2.0000      -0.981617       -26.7112
  26   2.0000      -0.925346       -25.1799
  27   2.0000      -0.913041       -24.8451
  28   2.0000      -0.867599       -23.6086
  29   2.0000      -0.853007       -23.2115
  30   2.0000      -0.847526       -23.0624
  31   2.0000      -0.811210       -22.0741
  32   2.0000      -0.783884       -21.3306
  33   2.0000      -0.768753       -20.9188
  34   2.0000      -0.709988       -19.3198
  35   2.0000      -0.702232       -19.1087
  36   2.0000      -0.689004       -18.7487
  37   2.0000      -0.664953       -18.0943
  38   2.0000      -0.642374       -17.4799
  39   2.0000      -0.621159       -16.9026
  40   2.0000      -0.601619       -16.3709
  41   2.0000      -0.572384       -15.5753
  42   2.0000      -0.566592       -15.4177
  43   2.0000      -0.558050       -15.1853
  44   2.0000      -0.528000       -14.3676
  45   2.0000      -0.520320       -14.1586
  46   2.0000      -0.517409       -14.0794
  47   2.0000      -0.510189       -13.8829
  48   2.0000      -0.505778       -13.7629
  49   2.0000      -0.496737       -13.5169
  50   2.0000      -0.495567       -13.4851
  51   2.0000      -0.478767       -13.0279
  52   2.0000      -0.468881       -12.7589
  53   2.0000      -0.464756       -12.6466
  54   2.0000      -0.461676       -12.5629
  55   2.0000      -0.451872       -12.2961
  56   2.0000      -0.445632       -12.1263
  57   2.0000      -0.439645       -11.9634
  58   2.0000      -0.433854       -11.8058
  59   2.0000      -0.428326       -11.6553
  60   2.0000      -0.425533       -11.5793
  61   2.0000      -0.411813       -11.2060
  62   2.0000      -0.408581       -11.1180
  63   2.0000      -0.341621        -9.2960
  64   2.0000      -0.333451        -9.0737
  65   2.0000      -0.325416        -8.8550
  66   2.0000      -0.291126        -7.9219
  67   0.0000       0.029243         0.7957
  68   0.0000       0.061984         1.6867
  69   0.0000       0.102310         2.7840
  70   0.0000       0.117010         3.1840
  71   0.0000       0.129420         3.5217

MULLIKEN ATOMIC CHARGES
-----------------------
   0 S :    0.126975
   1 C :   -0.106594
   2 C :   -0.066650
   3 C :    0.013176
   4 C :   -0.159981
   5 H :    0.031271
   6 C :   -0.001801
   7 H :    0.034529
   8 H :    0.029113
   9 C :   -0.039564
  10 H :    0.016701
  11 H :    0.018095
  12 C :   -0.020560
  13 H :    0.016692
  14 H :    0.028984
  15 H :    0.026306
  16 S :    0.118773
  17 C :   -0.136717
  18 C :   -0.057184
  19 C :   -0.028110
  20 C :   -0.164154
  21 H :    0.031431
  22 C :    0.131618
  23 H :   -0.010881
  24 H :    0.019539
  25 C :   -0.065793
  26 H :    0.014123
  27 H :    0.016864
  28 C :   -0.005113
  29 H :    0.018813
  30 H :    0.031378
  31 H :    0.021610
  32 H :    0.036364
  33 H :    0.080745
Sum of atomic charges:   -0.0000000

LOEWDIN ATOMIC CHARGES
----------------------
   0 S :    0.422784
   1 C :   -0.202661
   2 C :   -0.056903
   3 C :   -0.060747
   4 C :   -0.194169
   5 H :    0.037304
   6 C :   -0.047042
   7 H :    0.034710
   8 H :    0.038274
   9 C :   -0.039367
  10 H :    0.018200
  11 H :    0.022092
  12 C :   -0.053559
  13 H :    0.020354
  14 H :    0.024127
  15 H :    0.025069
  16 S :    0.402378
  17 C :   -0.196503
  18 C :   -0.073914
  19 C :   -0.049090
  20 C :   -0.202964
  21 H :    0.039036
  22 C :   -0.033907
  23 H :    0.018841
  24 H :    0.028324
  25 C :   -0.035268
  26 H :    0.017957
  27 H :    0.024896
  28 C :   -0.059939
  29 H :    0.027769
  30 H :    0.026595
  31 H :    0.018023
  32 H :    0.017153
  33 H :    0.042145

  Mayer bond orders larger than 0.100000
B(  0-S ,  1-C ) :   1.1582 B(  0-S ,  4-C ) :   1.1490 B(  1-C ,  2-C ) :   1.5901
B(  1-C , 32-H ) :   0.9737 B(  2-C ,  3-C ) :   1.2353 B(  2-C ,  6-C ) :   1.0205
B(  3-C ,  4-C ) :   1.5707 B(  3-C ,  5-H ) :   0.9907 B(  4-C , 20-C ) :   1.0459
B(  6-C ,  7-H ) :   0.9497 B(  6-C ,  8-H ) :   0.9402 B(  6-C ,  9-C ) :   1.0558
B(  9-C , 10-H ) :   0.9510 B(  9-C , 11-H ) :   0.9519 B(  9-C , 12-C ) :   1.0730
B( 12-C , 13-H ) :   0.9756 B( 12-C , 14-H ) :   0.9752 B( 12-C , 15-H ) :   0.9753
B( 16-S , 17-C ) :   1.1768 B( 16-S , 20-C ) :   1.1332 B( 17-C , 18-C ) :   1.5812
B( 17-C , 20-C ) :   0.1110 B( 17-C , 33-H ) :   0.9554 B( 18-C , 19-C ) :   1.2547
B( 18-C , 21-H ) :   0.9939 B( 19-C , 20-C ) :   1.5494 B( 19-C , 22-C ) :   1.0766
B( 22-C , 23-H ) :   0.8943 B( 22-C , 24-H ) :   0.9305 B( 22-C , 25-C ) :   1.0656
B( 25-C , 26-H ) :   0.9573 B( 25-C , 27-H ) :   0.9468 B( 25-C , 28-C ) :   1.0823
B( 28-C , 29-H ) :   0.9676 B( 28-C , 30-H ) :   0.9755 B( 28-C , 31-H ) :   0.9736

Dispersion correction           -0.014188847
FINAL SINGLE POINT ENERGY     -1339.865535889219

DIPOLE MOMENT
-------------
                                X             Y             Z
Electronic contribution:      5.21371      19.70384       4.42182
Nuclear contribution   :     -5.30260     -20.03291      -4.66314
                        -----------------------------------------
Total Dipole Moment    :     -0.08889      -0.32908      -0.24131
                        -----------------------------------------
Magnitude (a.u.)       :      0.41764
Magnitude (Debye)      :      1.06156

Rotational constants in cm-1:     0.019645     0.007792     0.006683
Rotational constants in MHz :   588.933761   233.611711   200.353443

                             ****ORCA TERMINATED NORMALLY****
TOTAL RUN TIME: 0 days 0 hours 0 minutes 20 seconds 194 msec
