                         Program Version 4.2.1 -  RELEASE  -
|  1> ! wB97X-D3 SP def2-SVP
|  2> %pal
|  3> nprocs 24
|  4> end
|  5>
|  6> * xyz 0 1
|  7> S 	 -44.2793 	 17.3688 	 27.9501
|  8> C 	 -45.9895 	 17.0201 	 27.8187
|  9> C 	 -46.7653 	 18.1652 	 27.5496
| 10> C 	 -45.9304 	 19.3178 	 27.4126
| 11> C 	 -44.5981 	 19.0474 	 27.5758
| 12> H 	 -46.2227 	 20.3809 	 27.2959
| 13> C 	 -48.2317 	 18.3423 	 27.4024
| 14> H 	 -48.5127 	 18.1013 	 26.3892
| 15> H 	 -48.531 	 19.3384 	 27.4429
| 16> C 	 -49.1316 	 17.6098 	 28.3654
| 17> H 	 -48.9467 	 16.5654 	 28.1192
| 18> H 	 -48.7175 	 17.6737 	 29.3648
| 19> C 	 -50.6747 	 17.9457 	 28.2512
| 20> H 	 -51.0263 	 17.6994 	 27.2455
| 21> H 	 -51.298 	 17.3358 	 28.8896
| 22> H 	 -50.8643 	 18.9545 	 28.4031
| 23> S 	 -43.1456 	 20.0189 	 29.6051
| 24> C 	 -41.9138 	 21.2096 	 29.3121
| 25> C 	 -41.9119 	 21.6016 	 27.9343
| 26> C 	 -42.9443 	 20.9727 	 27.1787
| 27> C 	 -43.6172 	 19.9874 	 27.9009
| 28> H 	 -41.1385 	 22.2632 	 27.6094
| 29> C 	 -43.2078 	 21.2797 	 25.7496
| 30> H 	 -43.1302 	 22.3325 	 25.501
| 31> H 	 -44.2514 	 21.1507 	 25.5414
| 32> C 	 -42.3956 	 20.5318 	 24.687
| 33> H 	 -42.662 	 20.7963 	 23.6119
| 34> H 	 -42.6727 	 19.5209 	 24.6912
| 35> C 	 -40.931 	 20.4879 	 24.8987
| 36> H 	 -40.5149 	 21.4494 	 24.7398
| 37> H 	 -40.4464 	 19.7511 	 24.36
| 38> H 	 -40.6433 	 20.1893 	 25.9905
| 39> H 	 -46.5087 	 16.1421 	 28.1248
| 40> H 	 -41.0258 	 21.4598 	 29.8503
| 41> *
| 42>
| 43>                          ****END OF INPUT****

CARTESIAN COORDINATES (ANGSTROEM)
---------------------------------
  S    -44.279300   17.368800   27.950100
  C    -45.989500   17.020100   27.818700
  C    -46.765300   18.165200   27.549600
  C    -45.930400   19.317800   27.412600
  C    -44.598100   19.047400   27.575800
  H    -46.222700   20.380900   27.295900
  C    -48.231700   18.342300   27.402400
  H    -48.512700   18.101300   26.389200
  H    -48.531000   19.338400   27.442900
  C    -49.131600   17.609800   28.365400
  H    -48.946700   16.565400   28.119200
  H    -48.717500   17.673700   29.364800
  C    -50.674700   17.945700   28.251200
  H    -51.026300   17.699400   27.245500
  H    -51.298000   17.335800   28.889600
  H    -50.864300   18.954500   28.403100
  S    -43.145600   20.018900   29.605100
  C    -41.913800   21.209600   29.312100
  C    -41.911900   21.601600   27.934300
  C    -42.944300   20.972700   27.178700
  C    -43.617200   19.987400   27.900900
  H    -41.138500   22.263200   27.609400
  C    -43.207800   21.279700   25.749600
  H    -43.130200   22.332500   25.501000
  H    -44.251400   21.150700   25.541400
  C    -42.395600   20.531800   24.687000
  H    -42.662000   20.796300   23.611900
  H    -42.672700   19.520900   24.691200
  C    -40.931000   20.487900   24.898700
  H    -40.514900   21.449400   24.739800
  H    -40.446400   19.751100   24.360000
  H    -40.643300   20.189300   25.990500
  H    -46.508700   16.142100   28.124800
  H    -41.025800   21.459800   29.850300

 Total Charge           Charge          ....    0
 Multiplicity           Mult            ....    1
 Number of Electrons    NEL             ....  134
 Basis Dimension        Dim             ....  322

ORBITAL ENERGIES
----------------

  NO   OCC          E(Eh)            E(eV)
   0   2.0000     -88.971344     -2421.0334
   1   2.0000     -88.966247     -2420.8946
   2   2.0000     -10.321340      -280.8579
   3   2.0000     -10.320357      -280.8312
   4   2.0000     -10.316832      -280.7353
   5   2.0000     -10.314535      -280.6728
   6   2.0000     -10.304856      -280.4094
   7   2.0000     -10.302260      -280.3387
   8   2.0000     -10.296197      -280.1738
   9   2.0000     -10.293898      -280.1112
  10   2.0000     -10.287252      -279.9304
  11   2.0000     -10.283595      -279.8308
  12   2.0000     -10.282876      -279.8113
  13   2.0000     -10.280478      -279.7460
  14   2.0000     -10.277447      -279.6636
  15   2.0000     -10.265828      -279.3474
  16   2.0000      -8.085922      -220.0291
  17   2.0000      -8.080547      -219.8829
  18   2.0000      -6.044422      -164.4771
  19   2.0000      -6.040472      -164.3696
  20   2.0000      -6.039061      -164.3312
  21   2.0000      -6.036648      -164.2656
  22   2.0000      -6.034989      -164.2204
  23   2.0000      -6.031426      -164.1234
  24   2.0000      -1.011002       -27.5108
  25   2.0000      -0.980029       -26.6679
  26   2.0000      -0.918708       -24.9993
  27   2.0000      -0.912024       -24.8174
  28   2.0000      -0.871188       -23.7062
  29   2.0000      -0.854693       -23.2574
  30   2.0000      -0.848817       -23.0975
  31   2.0000      -0.811815       -22.0906
  32   2.0000      -0.789863       -21.4933
  33   2.0000      -0.775057       -21.0904
  34   2.0000      -0.719393       -19.5757
  35   2.0000      -0.706229       -19.2175
  36   2.0000      -0.688300       -18.7296
  37   2.0000      -0.663264       -18.0483
  38   2.0000      -0.645684       -17.5700
  39   2.0000      -0.615138       -16.7387
  40   2.0000      -0.594299       -16.1717
  41   2.0000      -0.574745       -15.6396
  42   2.0000      -0.565413       -15.3857
  43   2.0000      -0.557007       -15.1569
  44   2.0000      -0.538213       -14.6455
  45   2.0000      -0.526569       -14.3287
  46   2.0000      -0.518690       -14.1143
  47   2.0000      -0.517130       -14.0718
  48   2.0000      -0.505964       -13.7680
  49   2.0000      -0.501447       -13.6451
  50   2.0000      -0.486259       -13.2318
  51   2.0000      -0.483692       -13.1619
  52   2.0000      -0.476850       -12.9757
  53   2.0000      -0.463636       -12.6162
  54   2.0000      -0.457080       -12.4378
  55   2.0000      -0.451119       -12.2756
  56   2.0000      -0.441033       -12.0011
  57   2.0000      -0.437622       -11.9083
  58   2.0000      -0.435784       -11.8583
  59   2.0000      -0.432199       -11.7607
  60   2.0000      -0.419541       -11.4163
  61   2.0000      -0.413668       -11.2565
  62   2.0000      -0.402433       -10.9508
  63   2.0000      -0.343352        -9.3431
  64   2.0000      -0.331010        -9.0072
  65   2.0000      -0.321280        -8.7425
  66   2.0000      -0.295609        -8.0439
  67   0.0000       0.026638         0.7249
  68   0.0000       0.057687         1.5697
  69   0.0000       0.111751         3.0409
  70   0.0000       0.115961         3.1555
  71   0.0000       0.127411         3.4670

MULLIKEN ATOMIC CHARGES
-----------------------
   0 S :    0.125325
   1 C :   -0.100656
   2 C :   -0.095982
   3 C :    0.029894
   4 C :   -0.166121
   5 H :    0.033165
   6 C :    0.121434
   7 H :    0.026628
   8 H :   -0.008797
   9 C :   -0.115559
  10 H :    0.020873
  11 H :    0.031234
  12 C :   -0.007515
  13 H :    0.021434
  14 H :    0.034089
  15 H :    0.024543
  16 S :    0.125507
  17 C :   -0.083795
  18 C :   -0.068878
  19 C :   -0.013872
  20 C :   -0.184387
  21 H :    0.017697
  22 C :    0.104236
  23 H :    0.018331
  24 H :    0.003595
  25 C :   -0.052406
  26 H :    0.029335
  27 H :    0.005349
  28 C :   -0.041081
  29 H :    0.016664
  30 H :    0.017273
  31 H :    0.040569
  32 H :    0.037693
  33 H :    0.054183
Sum of atomic charges:   -0.0000000

LOEWDIN ATOMIC CHARGES
----------------------
   0 S :    0.418998
   1 C :   -0.198681
   2 C :   -0.053961
   3 C :   -0.048923
   4 C :   -0.209552
   5 H :    0.040585
   6 C :   -0.033617
   7 H :    0.035260
   8 H :    0.019583
   9 C :   -0.039917
  10 H :    0.019870
  11 H :    0.022279
  12 C :   -0.053490
  13 H :    0.027493
  14 H :    0.028626
  15 H :    0.015634
  16 S :    0.414161
  17 C :   -0.203419
  18 C :   -0.063062
  19 C :   -0.055394
  20 C :   -0.196697
  21 H :    0.027172
  22 C :   -0.034585
  23 H :    0.031011
  24 H :    0.029013
  25 C :   -0.042745
  26 H :    0.031584
  27 H :    0.016274
  28 C :   -0.064061
  29 H :    0.014451
  30 H :    0.016388
  31 H :    0.038916
  32 H :    0.022327
  33 H :    0.028479

  Mayer bond orders larger than 0.100000
B(  0-S ,  1-C ) :   1.1399 B(  0-S ,  4-C ) :   1.1388 B(  1-C ,  2-C ) :   1.6055
B(  1-C , 32-H ) :   0.9663 B(  2-C ,  3-C ) :   1.2440 B(  2-C ,  6-C ) :   1.0257
B(  3-C ,  4-C ) :   1.5841 B(  3-C ,  5-H ) :   0.9829 B(  4-C , 20-C ) :   1.0589
B(  6-C ,  7-H ) :   0.9200 B(  6-C ,  8-H ) :   0.9393 B(  6-C ,  9-C ) :   1.0517
B(  9-C , 10-H ) :   0.9527 B(  9-C , 11-H ) :   0.9668 B(  9-C , 12-C ) :   1.0753
B( 12-C , 13-H ) :   0.9735 B( 12-C , 14-H ) :   0.9757 B( 12-C , 15-H ) :   0.9790
B( 16-S , 17-C ) :   1.1574 B( 16-S , 20-C ) :   1.1461 B( 17-C , 18-C ) :   1.6029
B( 17-C , 20-C ) :   0.1103 B( 17-C , 33-H ) :   0.9632 B( 18-C , 19-C ) :   1.2390
B( 18-C , 21-H ) :   0.9923 B( 19-C , 20-C ) :   1.5700 B( 19-C , 22-C ) :   1.0542
B( 22-C , 23-H ) :   0.9344 B( 22-C , 24-H ) :   0.9202 B( 22-C , 25-C ) :   1.0717
B( 25-C , 26-H ) :   0.9506 B( 25-C , 27-H ) :   0.9495 B( 25-C , 28-C ) :   1.0973
B( 28-C , 29-H ) :   0.9752 B( 28-C , 30-H ) :   0.9698 B( 28-C , 31-H ) :   0.9607

Dispersion correction           -0.014339419
FINAL SINGLE POINT ENERGY     -1339.851897090214

DIPOLE MOMENT
-------------
                                X             Y             Z
Electronic contribution:     12.83916      -3.05829      13.21803
Nuclear contribution   :    -13.23263       3.19271     -13.48444
                        -----------------------------------------
Total Dipole Moment    :     -0.39346       0.13442      -0.26641
                        -----------------------------------------
Magnitude (a.u.)       :      0.49382
Magnitude (Debye)      :      1.25518

Rotational constants in cm-1:     0.024113     0.007104     0.006539
Rotational constants in MHz :   722.874652   212.981294   196.042601

                             ****ORCA TERMINATED NORMALLY****
TOTAL RUN TIME: 0 days 0 hours 0 minutes 21 seconds 460 msec
