                         Program Version 4.2.1 -  RELEASE  -
|  1> ! wB97X-D3 SP def2-SVP
|  2> %pal
|  3> nprocs 24
|  4> end
|  5>
|  6> * xyz 0 1
|  7> S 	 19.9384 	 -14.209 	 -124.532
|  8> C 	 18.7614 	 -14.9223 	 -125.608
|  9> C 	 19.0834 	 -16.23 	 -125.998
| 10> C 	 20.2348 	 -16.6622 	 -125.277
| 11> C 	 20.7817 	 -15.7791 	 -124.443
| 12> H 	 20.6811 	 -17.657 	 -125.361
| 13> C 	 18.2459 	 -17.1586 	 -126.846
| 14> H 	 18.9841 	 -17.9004 	 -127.257
| 15> H 	 17.7034 	 -16.6509 	 -127.631
| 16> C 	 17.1909 	 -17.8823 	 -126.011
| 17> H 	 17.7254 	 -18.4213 	 -125.312
| 18> H 	 16.5366 	 -17.1837 	 -125.376
| 19> C 	 16.2729 	 -18.7371 	 -126.841
| 20> H 	 16.0276 	 -18.1077 	 -127.676
| 21> H 	 16.819 	 -19.5248 	 -127.273
| 22> H 	 15.4028 	 -19.1232 	 -126.263
| 23> S 	 23.1656 	 -14.5924 	 -123.932
| 24> C 	 24.3827 	 -15.4443 	 -122.915
| 25> C 	 23.8527 	 -16.6232 	 -122.451
| 26> C 	 22.5826 	 -16.9117 	 -122.952
| 27> C 	 22.0195 	 -15.9262 	 -123.731
| 28> H 	 24.373 	 -17.273 	 -121.681
| 29> C 	 21.748 	 -17.9802 	 -122.276
| 30> H 	 22.3137 	 -18.7593 	 -121.824
| 31> H 	 21.114 	 -18.514 	 -122.92
| 32> C 	 20.8295 	 -17.3882 	 -121.135
| 33> H 	 20.1981 	 -16.5398 	 -121.472
| 34> H 	 21.4829 	 -16.7989 	 -120.428
| 35> C 	 19.755 	 -18.3954 	 -120.462
| 36> H 	 18.8043 	 -18.5588 	 -121.012
| 37> H 	 19.5677 	 -17.9752 	 -119.478
| 38> H 	 20.1777 	 -19.3599 	 -120.478
| 39> H 	 17.8045 	 -14.4754 	 -125.856
| 40> H 	 25.3587 	 -15.0923 	 -122.611
| 41> *
| 42>
| 43>                          ****END OF INPUT****

CARTESIAN COORDINATES (ANGSTROEM)
---------------------------------
  S     19.938400  -14.209000  -124.532000
  C     18.761400  -14.922300  -125.608000
  C     19.083400  -16.230000  -125.998000
  C     20.234800  -16.662200  -125.277000
  C     20.781700  -15.779100  -124.443000
  H     20.681100  -17.657000  -125.361000
  C     18.245900  -17.158600  -126.846000
  H     18.984100  -17.900400  -127.257000
  H     17.703400  -16.650900  -127.631000
  C     17.190900  -17.882300  -126.011000
  H     17.725400  -18.421300  -125.312000
  H     16.536600  -17.183700  -125.376000
  C     16.272900  -18.737100  -126.841000
  H     16.027600  -18.107700  -127.676000
  H     16.819000  -19.524800  -127.273000
  H     15.402800  -19.123200  -126.263000
  S     23.165600  -14.592400  -123.932000
  C     24.382700  -15.444300  -122.915000
  C     23.852700  -16.623200  -122.451000
  C     22.582600  -16.911700  -122.952000
  C     22.019500  -15.926200  -123.731000
  H     24.373000  -17.273000  -121.681000
  C     21.748000  -17.980200  -122.276000
  H     22.313700  -18.759300  -121.824000
  H     21.114000  -18.514000  -122.920000
  C     20.829500  -17.388200  -121.135000
  H     20.198100  -16.539800  -121.472000
  H     21.482900  -16.798900  -120.428000
  C     19.755000  -18.395400  -120.462000
  H     18.804300  -18.558800  -121.012000
  H     19.567700  -17.975200  -119.478000
  H     20.177700  -19.359900  -120.478000
  H     17.804500  -14.475400  -125.856000
  H     25.358700  -15.092300  -122.611000

 Total Charge           Charge          ....    0
 Multiplicity           Mult            ....    1
 Number of Electrons    NEL             ....  134
 Basis Dimension        Dim             ....  322

ORBITAL ENERGIES
----------------

  NO   OCC          E(Eh)            E(eV)
   0   2.0000     -88.969052     -2420.9710
   1   2.0000     -88.965842     -2420.8836
   2   2.0000     -10.327454      -281.0243
   3   2.0000     -10.326690      -281.0035
   4   2.0000     -10.319250      -280.8011
   5   2.0000     -10.317106      -280.7427
   6   2.0000     -10.304000      -280.3861
   7   2.0000     -10.298155      -280.2271
   8   2.0000     -10.297732      -280.2155
   9   2.0000     -10.295876      -280.1650
  10   2.0000     -10.292353      -280.0692
  11   2.0000     -10.291618      -280.0492
  12   2.0000     -10.286368      -279.9063
  13   2.0000     -10.282729      -279.8073
  14   2.0000     -10.280593      -279.7491
  15   2.0000     -10.274486      -279.5830
  16   2.0000      -8.083306      -219.9579
  17   2.0000      -8.079537      -219.8554
  18   2.0000      -6.041900      -164.4084
  19   2.0000      -6.038210      -164.3080
  20   2.0000      -6.037991      -164.3021
  21   2.0000      -6.034146      -164.1975
  22   2.0000      -6.033888      -164.1904
  23   2.0000      -6.030214      -164.0905
  24   2.0000      -1.009564       -27.4716
  25   2.0000      -0.984109       -26.7790
  26   2.0000      -0.920417       -25.0458
  27   2.0000      -0.895752       -24.3747
  28   2.0000      -0.874758       -23.8034
  29   2.0000      -0.854647       -23.2561
  30   2.0000      -0.840190       -22.8627
  31   2.0000      -0.817497       -22.2452
  32   2.0000      -0.780899       -21.2493
  33   2.0000      -0.770572       -20.9683
  34   2.0000      -0.707652       -19.2562
  35   2.0000      -0.701733       -19.0951
  36   2.0000      -0.695069       -18.9138
  37   2.0000      -0.665365       -18.1055
  38   2.0000      -0.645837       -17.5741
  39   2.0000      -0.624416       -16.9912
  40   2.0000      -0.598187       -16.2775
  41   2.0000      -0.570270       -15.5178
  42   2.0000      -0.563489       -15.3333
  43   2.0000      -0.544615       -14.8197
  44   2.0000      -0.532243       -14.4831
  45   2.0000      -0.526321       -14.3219
  46   2.0000      -0.515272       -14.0213
  47   2.0000      -0.510864       -13.9013
  48   2.0000      -0.505337       -13.7509
  49   2.0000      -0.500681       -13.6242
  50   2.0000      -0.489019       -13.3069
  51   2.0000      -0.485749       -13.2179
  52   2.0000      -0.469272       -12.7695
  53   2.0000      -0.465043       -12.6545
  54   2.0000      -0.461231       -12.5507
  55   2.0000      -0.446627       -12.1533
  56   2.0000      -0.440297       -11.9811
  57   2.0000      -0.438036       -11.9196
  58   2.0000      -0.437692       -11.9102
  59   2.0000      -0.430218       -11.7068
  60   2.0000      -0.423641       -11.5279
  61   2.0000      -0.416959       -11.3460
  62   2.0000      -0.400367       -10.8945
  63   2.0000      -0.355733        -9.6800
  64   2.0000      -0.334854        -9.1118
  65   2.0000      -0.329743        -8.9728
  66   2.0000      -0.286801        -7.8043
  67   0.0000       0.025579         0.6960
  68   0.0000       0.063753         1.7348
  69   0.0000       0.103350         2.8123
  70   0.0000       0.126154         3.4328
  71   0.0000       0.127248         3.4626

MULLIKEN ATOMIC CHARGES
-----------------------
   0 S :    0.109412
   1 C :   -0.114147
   2 C :   -0.083566
   3 C :    0.011351
   4 C :   -0.126242
   5 H :    0.018095
   6 C :    0.049974
   7 H :    0.038698
   8 H :    0.021101
   9 C :   -0.078857
  10 H :   -0.000684
  11 H :    0.031805
  12 C :    0.011818
  13 H :    0.013103
  14 H :    0.011050
  15 H :    0.050394
  16 S :    0.091470
  17 C :   -0.088164
  18 C :   -0.053003
  19 C :   -0.018643
  20 C :   -0.152150
  21 H :    0.043352
  22 C :    0.100400
  23 H :    0.009007
  24 H :   -0.002725
  25 C :   -0.126599
  26 H :    0.035706
  27 H :    0.028194
  28 C :   -0.037646
  29 H :    0.042133
  30 H :    0.046161
  31 H :    0.017630
  32 H :    0.048262
  33 H :    0.053311
Sum of atomic charges:    0.0000000

LOEWDIN ATOMIC CHARGES
----------------------
   0 S :    0.389281
   1 C :   -0.191161
   2 C :   -0.059379
   3 C :   -0.059438
   4 C :   -0.184794
   5 H :    0.035360
   6 C :   -0.029640
   7 H :    0.039457
   8 H :    0.026116
   9 C :   -0.040309
  10 H :    0.008299
  11 H :    0.030411
  12 C :   -0.060154
  13 H :    0.022588
  14 H :    0.017663
  15 H :    0.035116
  16 S :    0.380112
  17 C :   -0.173546
  18 C :   -0.073349
  19 C :   -0.071073
  20 C :   -0.176111
  21 H :    0.044929
  22 C :   -0.026668
  23 H :    0.023083
  24 H :    0.017662
  25 C :   -0.045826
  26 H :    0.025947
  27 H :    0.026063
  28 C :   -0.065074
  29 H :    0.031118
  30 H :    0.031334
  31 H :    0.014320
  32 H :    0.027537
  33 H :    0.030127

  Mayer bond orders larger than 0.100000
B(  0-S ,  1-C ) :   1.1377 B(  0-S ,  4-C ) :   1.1135 B(  1-C ,  2-C ) :   1.6171
B(  1-C , 32-H ) :   0.9655 B(  2-C ,  3-C ) :   1.2257 B(  2-C ,  6-C ) :   1.0362
B(  3-C ,  4-C ) :   1.6220 B(  3-C ,  5-H ) :   0.9864 B(  4-C , 20-C ) :   1.0526
B(  6-C ,  7-H ) :   0.9366 B(  6-C ,  8-H ) :   0.9374 B(  6-C ,  9-C ) :   1.0621
B(  9-C , 10-H ) :   0.9518 B(  9-C , 11-H ) :   0.9565 B(  9-C , 12-C ) :   1.0811
B( 12-C , 13-H ) :   0.9707 B( 12-C , 14-H ) :   0.9696 B( 12-C , 15-H ) :   0.9727
B( 16-S , 17-C ) :   1.1331 B( 16-S , 20-C ) :   1.1345 B( 17-C , 18-C ) :   1.6130
B( 17-C , 20-C ) :   0.1090 B( 17-C , 33-H ) :   0.9685 B( 18-C , 19-C ) :   1.2575
B( 18-C , 21-H ) :   0.9751 B( 19-C , 20-C ) :   1.5846 B( 19-C , 22-C ) :   1.0709
B( 22-C , 23-H ) :   0.9348 B( 22-C , 24-H ) :   0.9306 B( 22-C , 25-C ) :   1.0447
B( 25-C , 26-H ) :   0.9597 B( 25-C , 27-H ) :   0.9620 B( 25-C , 28-C ) :   1.0506
B( 28-C , 29-H ) :   0.9775 B( 28-C , 30-H ) :   0.9764 B( 28-C , 31-H ) :   0.9813

Dispersion correction           -0.014243475
FINAL SINGLE POINT ENERGY     -1339.864129586815

DIPOLE MOMENT
-------------
                                X             Y             Z
Electronic contribution:     18.85158      22.67670      -3.50716
Nuclear contribution   :    -19.18077     -23.30452       3.59684
                        -----------------------------------------
Total Dipole Moment    :     -0.32920      -0.62782       0.08968
                        -----------------------------------------
Magnitude (a.u.)       :      0.71454
Magnitude (Debye)      :      1.81622

Rotational constants in cm-1:     0.018793     0.008639     0.006830
Rotational constants in MHz :   563.395980   258.983623   204.743628

                             ****ORCA TERMINATED NORMALLY****
TOTAL RUN TIME: 0 days 0 hours 0 minutes 20 seconds 284 msec
