                         Program Version 4.2.1 -  RELEASE  -
|  1> ! wB97X-D3 SP def2-SVP
|  2> %pal
|  3> nprocs 24
|  4> end
|  5>
|  6> * xyz 0 1
|  7> S 	 -94.415 	 4.09056 	 -4.06137
|  8> C 	 -93.0048 	 3.193 	 -4.54368
|  9> C 	 -92.0195 	 3.09533 	 -3.55151
| 10> C 	 -92.5887 	 3.51591 	 -2.34448
| 11> C 	 -93.9091 	 3.8979 	 -2.35336
| 12> H 	 -92.0673 	 3.57129 	 -1.42998
| 13> C 	 -90.601 	 2.6801 	 -3.84416
| 14> H 	 -90.0552 	 3.57549 	 -4.10956
| 15> H 	 -90.5654 	 2.04786 	 -4.72296
| 16> C 	 -89.9416 	 1.93668 	 -2.68
| 17> H 	 -89.979 	 2.70706 	 -1.88674
| 18> H 	 -90.3971 	 1.03836 	 -2.37966
| 19> C 	 -88.4648 	 1.58619 	 -3.03126
| 20> H 	 -87.809 	 2.46391 	 -2.94057
| 21> H 	 -87.9903 	 0.849727 	 -2.46893
| 22> H 	 -88.2695 	 1.33799 	 -4.1204
| 23> S 	 -95.7049 	 5.76288 	 -1.23324
| 24> C 	 -96.3336 	 5.47635 	 0.416345
| 25> C 	 -95.6898 	 4.38377 	 0.900603
| 26> C 	 -94.7437 	 3.73335 	 0.04629
| 27> C 	 -94.6643 	 4.34887 	 -1.20138
| 28> H 	 -95.8458 	 3.9917 	 1.89716
| 29> C 	 -94.1243 	 2.43336 	 0.560984
| 30> H 	 -93.1355 	 2.70605 	 0.982778
| 31> H 	 -93.9003 	 1.81806 	 -0.352152
| 32> C 	 -94.841 	 1.53674 	 1.58752
| 33> H 	 -95.08 	 2.01785 	 2.52782
| 34> H 	 -94.0302 	 0.797067 	 1.87053
| 35> C 	 -95.9741 	 0.749653 	 0.994207
| 36> H 	 -96.9256 	 1.23517 	 0.914629
| 37> H 	 -96.1053 	 -0.287444 	 1.43355
| 38> H 	 -95.7439 	 0.505569 	 -0.108452
| 39> H 	 -92.7909 	 2.98955 	 -5.58215
| 40> H 	 -97.1145 	 6.06015 	 0.890138
| 41> *
| 42>
| 43>                          ****END OF INPUT****

CARTESIAN COORDINATES (ANGSTROEM)
---------------------------------
  S    -94.415000    4.090560   -4.061370
  C    -93.004800    3.193000   -4.543680
  C    -92.019500    3.095330   -3.551510
  C    -92.588700    3.515910   -2.344480
  C    -93.909100    3.897900   -2.353360
  H    -92.067300    3.571290   -1.429980
  C    -90.601000    2.680100   -3.844160
  H    -90.055200    3.575490   -4.109560
  H    -90.565400    2.047860   -4.722960
  C    -89.941600    1.936680   -2.680000
  H    -89.979000    2.707060   -1.886740
  H    -90.397100    1.038360   -2.379660
  C    -88.464800    1.586190   -3.031260
  H    -87.809000    2.463910   -2.940570
  H    -87.990300    0.849727   -2.468930
  H    -88.269500    1.337990   -4.120400
  S    -95.704900    5.762880   -1.233240
  C    -96.333600    5.476350    0.416345
  C    -95.689800    4.383770    0.900603
  C    -94.743700    3.733350    0.046290
  C    -94.664300    4.348870   -1.201380
  H    -95.845800    3.991700    1.897160
  C    -94.124300    2.433360    0.560984
  H    -93.135500    2.706050    0.982778
  H    -93.900300    1.818060   -0.352152
  C    -94.841000    1.536740    1.587520
  H    -95.080000    2.017850    2.527820
  H    -94.030200    0.797067    1.870530
  C    -95.974100    0.749653    0.994207
  H    -96.925600    1.235170    0.914629
  H    -96.105300   -0.287444    1.433550
  H    -95.743900    0.505569   -0.108452
  H    -92.790900    2.989550   -5.582150
  H    -97.114500    6.060150    0.890138

 Total Charge           Charge          ....    0
 Multiplicity           Mult            ....    1
 Number of Electrons    NEL             ....  134
 Basis Dimension        Dim             ....  322

ORBITAL ENERGIES
----------------

  NO   OCC          E(Eh)            E(eV)
   0   2.0000     -88.967550     -2420.9301
   1   2.0000     -88.962228     -2420.7853
   2   2.0000     -10.329778      -281.0876
   3   2.0000     -10.328775      -281.0603
   4   2.0000     -10.319152      -280.7984
   5   2.0000     -10.312961      -280.6299
   6   2.0000     -10.300886      -280.3014
   7   2.0000     -10.300315      -280.2858
   8   2.0000     -10.298068      -280.2247
   9   2.0000     -10.294839      -280.1368
  10   2.0000     -10.293861      -280.1102
  11   2.0000     -10.290740      -280.0253
  12   2.0000     -10.289531      -279.9924
  13   2.0000     -10.289029      -279.9787
  14   2.0000     -10.281619      -279.7771
  15   2.0000     -10.280263      -279.7402
  16   2.0000      -8.081752      -219.9157
  17   2.0000      -8.076452      -219.7714
  18   2.0000      -6.040203      -164.3623
  19   2.0000      -6.036613      -164.2646
  20   2.0000      -6.035177      -164.2255
  21   2.0000      -6.032338      -164.1483
  22   2.0000      -6.030990      -164.1116
  23   2.0000      -6.027059      -164.0046
  24   2.0000      -1.004688       -27.3389
  25   2.0000      -0.983145       -26.7527
  26   2.0000      -0.915443       -24.9105
  27   2.0000      -0.907884       -24.7048
  28   2.0000      -0.871287       -23.7089
  29   2.0000      -0.851420       -23.1683
  30   2.0000      -0.842083       -22.9142
  31   2.0000      -0.816671       -22.2228
  32   2.0000      -0.781513       -21.2661
  33   2.0000      -0.770650       -20.9704
  34   2.0000      -0.716989       -19.5103
  35   2.0000      -0.699399       -19.0316
  36   2.0000      -0.694797       -18.9064
  37   2.0000      -0.654675       -17.8146
  38   2.0000      -0.643727       -17.5167
  39   2.0000      -0.624457       -16.9923
  40   2.0000      -0.599749       -16.3200
  41   2.0000      -0.576263       -15.6809
  42   2.0000      -0.561947       -15.2914
  43   2.0000      -0.552586       -15.0366
  44   2.0000      -0.536486       -14.5985
  45   2.0000      -0.527328       -14.3493
  46   2.0000      -0.520223       -14.1560
  47   2.0000      -0.508474       -13.8363
  48   2.0000      -0.500758       -13.6263
  49   2.0000      -0.496760       -13.5175
  50   2.0000      -0.492935       -13.4134
  51   2.0000      -0.481296       -13.0967
  52   2.0000      -0.470177       -12.7942
  53   2.0000      -0.461061       -12.5461
  54   2.0000      -0.451841       -12.2952
  55   2.0000      -0.448738       -12.2108
  56   2.0000      -0.446251       -12.1431
  57   2.0000      -0.440261       -11.9801
  58   2.0000      -0.437189       -11.8965
  59   2.0000      -0.431846       -11.7511
  60   2.0000      -0.421374       -11.4662
  61   2.0000      -0.413713       -11.2577
  62   2.0000      -0.405661       -11.0386
  63   2.0000      -0.354360        -9.6426
  64   2.0000      -0.332568        -9.0496
  65   2.0000      -0.326517        -8.8850
  66   2.0000      -0.283820        -7.7231
  67   0.0000       0.021120         0.5747
  68   0.0000       0.071616         1.9488
  69   0.0000       0.106734         2.9044
  70   0.0000       0.132610         3.6085
  71   0.0000       0.134923         3.6714

MULLIKEN ATOMIC CHARGES
-----------------------
   0 S :    0.112708
   1 C :   -0.116862
   2 C :   -0.070825
   3 C :    0.003736
   4 C :   -0.140745
   5 H :   -0.005152
   6 C :    0.082449
   7 H :    0.043941
   8 H :    0.018169
   9 C :   -0.078472
  10 H :    0.041693
  11 H :    0.033388
  12 C :   -0.042709
  13 H :    0.020742
  14 H :    0.023530
  15 H :    0.026944
  16 S :    0.084661
  17 C :   -0.089801
  18 C :   -0.016936
  19 C :   -0.041473
  20 C :   -0.150119
  21 H :    0.009331
  22 C :    0.008120
  23 H :    0.042352
  24 H :    0.042822
  25 C :   -0.054805
  26 H :    0.032721
  27 H :    0.034833
  28 C :   -0.072828
  29 H :    0.039325
  30 H :    0.043743
  31 H :    0.031084
  32 H :    0.041204
  33 H :    0.063233
Sum of atomic charges:   -0.0000000

LOEWDIN ATOMIC CHARGES
----------------------
   0 S :    0.394447
   1 C :   -0.190760
   2 C :   -0.063212
   3 C :   -0.056452
   4 C :   -0.179395
   5 H :    0.022692
   6 C :   -0.025423
   7 H :    0.037172
   8 H :    0.028641
   9 C :   -0.032871
  10 H :    0.028641
  11 H :    0.020538
  12 C :   -0.070553
  13 H :    0.026672
  14 H :    0.015242
  15 H :    0.030626
  16 S :    0.377673
  17 C :   -0.172706
  18 C :   -0.071677
  19 C :   -0.064481
  20 C :   -0.195240
  21 H :    0.027895
  22 C :   -0.038854
  23 H :    0.034402
  24 H :    0.036935
  25 C :   -0.049037
  26 H :    0.020768
  27 H :    0.039027
  28 C :   -0.077908
  29 H :    0.022033
  30 H :    0.033367
  31 H :    0.035412
  32 H :    0.021708
  33 H :    0.034677

  Mayer bond orders larger than 0.100000
B(  0-S ,  1-C ) :   1.1587 B(  0-S ,  4-C ) :   1.1278 B(  1-C ,  2-C ) :   1.5867
B(  1-C ,  4-C ) :   0.1028 B(  1-C , 32-H ) :   0.9669 B(  2-C ,  3-C ) :   1.2630
B(  2-C ,  6-C ) :   1.0167 B(  3-C ,  4-C ) :   1.5448 B(  3-C ,  5-H ) :   1.0020
B(  4-C , 20-C ) :   1.0902 B(  6-C ,  7-H ) :   0.9348 B(  6-C ,  8-H ) :   0.9363
B(  6-C ,  9-C ) :   1.0623 B(  9-C , 10-H ) :   0.9528 B(  9-C , 11-H ) :   0.9675
B(  9-C , 12-C ) :   1.0734 B( 12-C , 13-H ) :   0.9733 B( 12-C , 14-H ) :   0.9784
B( 12-C , 15-H ) :   0.9745 B( 16-S , 17-C ) :   1.1261 B( 16-S , 20-C ) :   1.1293
B( 17-C , 18-C ) :   1.6022 B( 17-C , 33-H ) :   0.9730 B( 18-C , 19-C ) :   1.2679
B( 18-C , 21-H ) :   0.9820 B( 19-C , 20-C ) :   1.5819 B( 19-C , 22-C ) :   1.0239
B( 22-C , 23-H ) :   0.9265 B( 22-C , 24-H ) :   0.9340 B( 22-C , 25-C ) :   1.0941
B( 25-C , 26-H ) :   0.9473 B( 25-C , 27-H ) :   0.9455 B( 25-C , 28-C ) :   1.0697
B( 28-C , 29-H ) :   0.9757 B( 28-C , 30-H ) :   0.9757 B( 28-C , 31-H ) :   0.9714

Dispersion correction           -0.013783909
FINAL SINGLE POINT ENERGY     -1339.871714999663

DIPOLE MOMENT
-------------
                                X             Y             Z
Electronic contribution:    -17.77728      21.12595      -9.55584
Nuclear contribution   :     18.34395     -21.55818       9.88570
                        -----------------------------------------
Total Dipole Moment    :      0.56668      -0.43222       0.32986
                        -----------------------------------------
Magnitude (a.u.)       :      0.78533
Magnitude (Debye)      :      1.99616

Rotational constants in cm-1:     0.017677     0.008395     0.006491
Rotational constants in MHz :   529.938081   251.679856   194.604995

                             ****ORCA TERMINATED NORMALLY****
TOTAL RUN TIME: 0 days 0 hours 0 minutes 21 seconds 396 msec
