                         Program Version 4.2.1 -  RELEASE  -
|  1> ! wB97X-D3 SP def2-SVP
|  2> %pal
|  3> nprocs 24
|  4> end
|  5>
|  6> * xyz 0 1
|  7> S 	 -110.615 	 55.1584 	 -90.8195
|  8> C 	 -110.461 	 56.2212 	 -89.4116
|  9> C 	 -111.264 	 55.7192 	 -88.387
| 10> C 	 -112.081 	 54.6367 	 -88.783
| 11> C 	 -111.682 	 54.0651 	 -89.9523
| 12> H 	 -112.921 	 54.2171 	 -88.2737
| 13> C 	 -111.351 	 56.3015 	 -86.9883
| 14> H 	 -112.342 	 56.6029 	 -86.7523
| 15> H 	 -110.791 	 57.2367 	 -86.966
| 16> C 	 -110.929 	 55.3957 	 -85.8059
| 17> H 	 -110.682 	 56.0992 	 -84.9633
| 18> H 	 -111.779 	 54.8034 	 -85.409
| 19> C 	 -109.747 	 54.5158 	 -86.0612
| 20> H 	 -108.894 	 55.0898 	 -86.3388
| 21> H 	 -109.526 	 53.8179 	 -85.2302
| 22> H 	 -109.906 	 53.9516 	 -86.986
| 23> S 	 -112.957 	 53.3647 	 -92.2971
| 24> C 	 -113.5 	 51.7227 	 -92.4819
| 25> C 	 -113.344 	 50.9941 	 -91.3214
| 26> C 	 -112.578 	 51.6597 	 -90.3083
| 27> C 	 -112.314 	 52.9696 	 -90.6783
| 28> H 	 -113.717 	 50.0076 	 -91.1696
| 29> C 	 -112.267 	 51.0793 	 -88.9539
| 30> H 	 -112.631 	 50.0742 	 -88.8603
| 31> H 	 -112.758 	 51.6353 	 -88.2074
| 32> C 	 -110.746 	 50.9736 	 -88.5647
| 33> H 	 -110.614 	 50.6461 	 -87.5788
| 34> H 	 -110.43 	 51.9868 	 -88.6525
| 35> C 	 -109.86 	 49.9583 	 -89.3491
| 36> H 	 -108.761 	 50.0878 	 -89.1577
| 37> H 	 -110.093 	 50.0513 	 -90.452
| 38> H 	 -110.082 	 48.8668 	 -89.2598
| 39> H 	 -109.787 	 57.079 	 -89.3867
| 40> H 	 -114.121 	 51.3897 	 -93.2929
| 41> *
| 42>
| 43>                          ****END OF INPUT****

CARTESIAN COORDINATES (ANGSTROEM)
---------------------------------
  S    -110.615000   55.158400  -90.819500
  C    -110.461000   56.221200  -89.411600
  C    -111.264000   55.719200  -88.387000
  C    -112.081000   54.636700  -88.783000
  C    -111.682000   54.065100  -89.952300
  H    -112.921000   54.217100  -88.273700
  C    -111.351000   56.301500  -86.988300
  H    -112.342000   56.602900  -86.752300
  H    -110.791000   57.236700  -86.966000
  C    -110.929000   55.395700  -85.805900
  H    -110.682000   56.099200  -84.963300
  H    -111.779000   54.803400  -85.409000
  C    -109.747000   54.515800  -86.061200
  H    -108.894000   55.089800  -86.338800
  H    -109.526000   53.817900  -85.230200
  H    -109.906000   53.951600  -86.986000
  S    -112.957000   53.364700  -92.297100
  C    -113.500000   51.722700  -92.481900
  C    -113.344000   50.994100  -91.321400
  C    -112.578000   51.659700  -90.308300
  C    -112.314000   52.969600  -90.678300
  H    -113.717000   50.007600  -91.169600
  C    -112.267000   51.079300  -88.953900
  H    -112.631000   50.074200  -88.860300
  H    -112.758000   51.635300  -88.207400
  C    -110.746000   50.973600  -88.564700
  H    -110.614000   50.646100  -87.578800
  H    -110.430000   51.986800  -88.652500
  C    -109.860000   49.958300  -89.349100
  H    -108.761000   50.087800  -89.157700
  H    -110.093000   50.051300  -90.452000
  H    -110.082000   48.866800  -89.259800
  H    -109.787000   57.079000  -89.386700
  H    -114.121000   51.389700  -93.292900

 Total Charge           Charge          ....    0
 Multiplicity           Mult            ....    1
 Number of Electrons    NEL             ....  134
 Basis Dimension        Dim             ....  322

ORBITAL ENERGIES
----------------

  NO   OCC          E(Eh)            E(eV)
   0   2.0000     -88.967575     -2420.9308
   1   2.0000     -88.964528     -2420.8479
   2   2.0000     -10.328784      -281.0605
   3   2.0000     -10.328006      -281.0393
   4   2.0000     -10.320832      -280.8441
   5   2.0000     -10.316413      -280.7239
   6   2.0000     -10.304744      -280.4063
   7   2.0000     -10.304588      -280.4021
   8   2.0000     -10.293567      -280.1022
   9   2.0000     -10.291890      -280.0566
  10   2.0000     -10.289219      -279.9839
  11   2.0000     -10.289085      -279.9802
  12   2.0000     -10.288992      -279.9777
  13   2.0000     -10.283557      -279.8298
  14   2.0000     -10.280875      -279.7568
  15   2.0000     -10.269827      -279.4562
  16   2.0000      -8.081913      -219.9200
  17   2.0000      -8.079056      -219.8423
  18   2.0000      -6.040407      -164.3678
  19   2.0000      -6.037634      -164.2924
  20   2.0000      -6.036533      -164.2624
  21   2.0000      -6.033558      -164.1815
  22   2.0000      -6.032644      -164.1566
  23   2.0000      -6.029772      -164.0785
  24   2.0000      -1.008426       -27.4407
  25   2.0000      -0.984155       -26.7802
  26   2.0000      -0.911719       -24.8091
  27   2.0000      -0.905198       -24.6317
  28   2.0000      -0.868484       -23.6327
  29   2.0000      -0.849852       -23.1257
  30   2.0000      -0.843558       -22.9544
  31   2.0000      -0.815667       -22.1954
  32   2.0000      -0.785862       -21.3844
  33   2.0000      -0.774335       -21.0707
  34   2.0000      -0.710662       -19.3381
  35   2.0000      -0.695037       -18.9129
  36   2.0000      -0.689994       -18.7757
  37   2.0000      -0.664440       -18.0803
  38   2.0000      -0.645382       -17.5618
  39   2.0000      -0.620618       -16.8879
  40   2.0000      -0.596635       -16.2353
  41   2.0000      -0.561717       -15.2851
  42   2.0000      -0.556199       -15.1349
  43   2.0000      -0.551976       -15.0200
  44   2.0000      -0.548155       -14.9161
  45   2.0000      -0.543606       -14.7923
  46   2.0000      -0.517267       -14.0756
  47   2.0000      -0.508973       -13.8499
  48   2.0000      -0.502363       -13.6700
  49   2.0000      -0.492049       -13.3893
  50   2.0000      -0.489687       -13.3250
  51   2.0000      -0.481190       -13.0939
  52   2.0000      -0.470630       -12.8065
  53   2.0000      -0.468439       -12.7469
  54   2.0000      -0.458289       -12.4707
  55   2.0000      -0.449866       -12.2415
  56   2.0000      -0.446044       -12.1375
  57   2.0000      -0.439300       -11.9540
  58   2.0000      -0.435581       -11.8528
  59   2.0000      -0.420827       -11.4513
  60   2.0000      -0.415839       -11.3156
  61   2.0000      -0.409485       -11.1427
  62   2.0000      -0.405685       -11.0392
  63   2.0000      -0.347155        -9.4466
  64   2.0000      -0.333737        -9.0814
  65   2.0000      -0.327854        -8.9214
  66   2.0000      -0.294248        -8.0069
  67   0.0000       0.025739         0.7004
  68   0.0000       0.065555         1.7839
  69   0.0000       0.103614         2.8195
  70   0.0000       0.121927         3.3178
  71   0.0000       0.122980         3.3465

MULLIKEN ATOMIC CHARGES
-----------------------
   0 S :    0.090505
   1 C :   -0.123996
   2 C :   -0.105587
   3 C :    0.034959
   4 C :   -0.152083
   5 H :    0.015136
   6 C :    0.115212
   7 H :    0.020443
   8 H :    0.011455
   9 C :   -0.115552
  10 H :    0.032846
  11 H :    0.029888
  12 C :   -0.025202
  13 H :    0.014887
  14 H :    0.043095
  15 H :    0.033272
  16 S :    0.113040
  17 C :   -0.076691
  18 C :   -0.025505
  19 C :   -0.040444
  20 C :   -0.167430
  21 H :    0.007189
  22 C :    0.097804
  23 H :    0.003317
  24 H :    0.022649
  25 C :   -0.051319
  26 H :    0.019307
  27 H :    0.049795
  28 C :   -0.106712
  29 H :    0.053718
  30 H :    0.036408
  31 H :    0.030472
  32 H :    0.058482
  33 H :    0.056644
Sum of atomic charges:    0.0000000

LOEWDIN ATOMIC CHARGES
----------------------
   0 S :    0.390321
   1 C :   -0.189119
   2 C :   -0.064078
   3 C :   -0.057925
   4 C :   -0.189513
   5 H :    0.031406
   6 C :   -0.030948
   7 H :    0.030054
   8 H :    0.028758
   9 C :   -0.048176
  10 H :    0.030308
  11 H :    0.022697
  12 C :   -0.070923
  13 H :    0.021511
  14 H :    0.031090
  15 H :    0.027222
  16 S :    0.399108
  17 C :   -0.186198
  18 C :   -0.064613
  19 C :   -0.054528
  20 C :   -0.187209
  21 H :    0.026311
  22 C :   -0.023076
  23 H :    0.025220
  24 H :    0.027210
  25 C :   -0.029313
  26 H :    0.017914
  27 H :    0.020848
  28 C :   -0.083657
  29 H :    0.034220
  30 H :    0.029395
  31 H :    0.025741
  32 H :    0.031825
  33 H :    0.028118

  Mayer bond orders larger than 0.100000
B(  0-S ,  1-C ) :   1.1307 B(  0-S ,  4-C ) :   1.1430 B(  1-C ,  2-C ) :   1.6003
B(  1-C , 32-H ) :   0.9701 B(  2-C ,  3-C ) :   1.2168 B(  2-C ,  6-C ) :   1.0390
B(  3-C ,  4-C ) :   1.5838 B(  3-C ,  5-H ) :   0.9968 B(  4-C , 20-C ) :   1.0364
B(  6-C ,  7-H ) :   0.9354 B(  6-C ,  8-H ) :   0.9375 B(  6-C ,  9-C ) :   1.0614
B(  9-C , 10-H ) :   0.9549 B(  9-C , 11-H ) :   0.9553 B(  9-C , 12-C ) :   1.0950
B( 12-C , 13-H ) :   0.9680 B( 12-C , 14-H ) :   0.9716 B( 12-C , 15-H ) :   0.9601
B( 16-S , 17-C ) :   1.1482 B( 16-S , 20-C ) :   1.1433 B( 17-C , 18-C ) :   1.6087
B( 17-C , 33-H ) :   0.9669 B( 18-C , 19-C ) :   1.2464 B( 18-C , 21-H ) :   0.9884
B( 19-C , 20-C ) :   1.5984 B( 19-C , 22-C ) :   1.0426 B( 22-C , 23-H ) :   0.9315
B( 22-C , 24-H ) :   0.9325 B( 22-C , 25-C ) :   1.0688 B( 25-C , 26-H ) :   0.9567
B( 25-C , 27-H ) :   0.9556 B( 25-C , 28-C ) :   1.0632 B( 28-C , 29-H ) :   0.9753
B( 28-C , 30-H ) :   0.9767 B( 28-C , 31-H ) :   0.9744

Dispersion correction           -0.015846669
FINAL SINGLE POINT ENERGY     -1339.880014249035

DIPOLE MOMENT
-------------
                                X             Y             Z
Electronic contribution:     -8.63227       9.09166     -24.50989
Nuclear contribution   :      8.39293      -9.22016      25.12867
                        -----------------------------------------
Total Dipole Moment    :     -0.23934      -0.12850       0.61878
                        -----------------------------------------
Magnitude (a.u.)       :      0.67578
Magnitude (Debye)      :      1.71770

Rotational constants in cm-1:     0.019105     0.010132     0.007767
Rotational constants in MHz :   572.761768   303.735111   232.837150

                             ****ORCA TERMINATED NORMALLY****
TOTAL RUN TIME: 0 days 0 hours 0 minutes 21 seconds 699 msec
