                         Program Version 4.2.1 -  RELEASE  -
|  1> ! wB97X-D3 SP def2-SVP
|  2> %pal
|  3> nprocs 24
|  4> end
|  5>
|  6> * xyz 0 1
|  7> S 	 -126.695 	 68.1478 	 -49.7905
|  8> C 	 -126.238 	 69.6943 	 -49.1451
|  9> C 	 -127.403 	 70.4948 	 -48.9634
| 10> C 	 -128.616 	 69.9118 	 -49.4416
| 11> C 	 -128.425 	 68.5834 	 -49.7615
| 12> H 	 -129.514 	 70.4301 	 -49.4902
| 13> C 	 -127.24 	 71.945 	 -48.5613
| 14> H 	 -126.332 	 72.1311 	 -47.935
| 15> H 	 -128.177 	 72.1256 	 -47.9289
| 16> C 	 -127.352 	 72.9401 	 -49.711
| 17> H 	 -126.893 	 72.6861 	 -50.6322
| 18> H 	 -128.362 	 73.0133 	 -50.0878
| 19> C 	 -126.84 	 74.2461 	 -49.2277
| 20> H 	 -125.839 	 74.1031 	 -48.9568
| 21> H 	 -126.81 	 74.9684 	 -50.0436
| 22> H 	 -127.612 	 74.5836 	 -48.4951
| 23> S 	 -129.573 	 67.3658 	 -52.0578
| 24> C 	 -131.213 	 66.7799 	 -51.9137
| 25> C 	 -131.562 	 66.7852 	 -50.6086
| 26> C 	 -130.662 	 67.3699 	 -49.6482
| 27> C 	 -129.438 	 67.6361 	 -50.2473
| 28> H 	 -132.551 	 66.3999 	 -50.3934
| 29> C 	 -131.028 	 67.5055 	 -48.1764
| 30> H 	 -131.892 	 66.8374 	 -48.1974
| 31> H 	 -131.335 	 68.5003 	 -47.9174
| 32> C 	 -130.055 	 67.0099 	 -47.0717
| 33> H 	 -129.049 	 67.4018 	 -47.3523
| 34> H 	 -130.033 	 65.9501 	 -47.1721
| 35> C 	 -130.401 	 67.5703 	 -45.6759
| 36> H 	 -129.824 	 67.1159 	 -44.8299
| 37> H 	 -131.41 	 67.3158 	 -45.4677
| 38> H 	 -130.289 	 68.6238 	 -45.5544
| 39> H 	 -125.273 	 70.0937 	 -48.9365
| 40> H 	 -131.953 	 66.4248 	 -52.6574
| 41> *
| 42>
| 43>                          ****END OF INPUT****

CARTESIAN COORDINATES (ANGSTROEM)
---------------------------------
  S    -126.695000   68.147800  -49.790500
  C    -126.238000   69.694300  -49.145100
  C    -127.403000   70.494800  -48.963400
  C    -128.616000   69.911800  -49.441600
  C    -128.425000   68.583400  -49.761500
  H    -129.514000   70.430100  -49.490200
  C    -127.240000   71.945000  -48.561300
  H    -126.332000   72.131100  -47.935000
  H    -128.177000   72.125600  -47.928900
  C    -127.352000   72.940100  -49.711000
  H    -126.893000   72.686100  -50.632200
  H    -128.362000   73.013300  -50.087800
  C    -126.840000   74.246100  -49.227700
  H    -125.839000   74.103100  -48.956800
  H    -126.810000   74.968400  -50.043600
  H    -127.612000   74.583600  -48.495100
  S    -129.573000   67.365800  -52.057800
  C    -131.213000   66.779900  -51.913700
  C    -131.562000   66.785200  -50.608600
  C    -130.662000   67.369900  -49.648200
  C    -129.438000   67.636100  -50.247300
  H    -132.551000   66.399900  -50.393400
  C    -131.028000   67.505500  -48.176400
  H    -131.892000   66.837400  -48.197400
  H    -131.335000   68.500300  -47.917400
  C    -130.055000   67.009900  -47.071700
  H    -129.049000   67.401800  -47.352300
  H    -130.033000   65.950100  -47.172100
  C    -130.401000   67.570300  -45.675900
  H    -129.824000   67.115900  -44.829900
  H    -131.410000   67.315800  -45.467700
  H    -130.289000   68.623800  -45.554400
  H    -125.273000   70.093700  -48.936500
  H    -131.953000   66.424800  -52.657400

 Total Charge           Charge          ....    0
 Multiplicity           Mult            ....    1
 Number of Electrons    NEL             ....  134
 Basis Dimension        Dim             ....  322

ORBITAL ENERGIES
----------------

  NO   OCC          E(Eh)            E(eV)
   0   2.0000     -88.967562     -2420.9304
   1   2.0000     -88.963547     -2420.8212
   2   2.0000     -10.333414      -281.1865
   3   2.0000     -10.329848      -281.0895
   4   2.0000     -10.319216      -280.8001
   5   2.0000     -10.313185      -280.6360
   6   2.0000     -10.308952      -280.5208
   7   2.0000     -10.301215      -280.3103
   8   2.0000     -10.297713      -280.2150
   9   2.0000     -10.294441      -280.1260
  10   2.0000     -10.291788      -280.0538
  11   2.0000     -10.289455      -279.9903
  12   2.0000     -10.285056      -279.8706
  13   2.0000     -10.275826      -279.6194
  14   2.0000     -10.274671      -279.5880
  15   2.0000     -10.272889      -279.5395
  16   2.0000      -8.081501      -219.9088
  17   2.0000      -8.077156      -219.7906
  18   2.0000      -6.039964      -164.3558
  19   2.0000      -6.036046      -164.2492
  20   2.0000      -6.035911      -164.2455
  21   2.0000      -6.032440      -164.1511
  22   2.0000      -6.031845      -164.1348
  23   2.0000      -6.027658      -164.0209
  24   2.0000      -0.999967       -27.2105
  25   2.0000      -0.979431       -26.6517
  26   2.0000      -0.918552       -24.9951
  27   2.0000      -0.905434       -24.6381
  28   2.0000      -0.868929       -23.6448
  29   2.0000      -0.854073       -23.2405
  30   2.0000      -0.846432       -23.0326
  31   2.0000      -0.815295       -22.1853
  32   2.0000      -0.781195       -21.2574
  33   2.0000      -0.764539       -20.8042
  34   2.0000      -0.714091       -19.4314
  35   2.0000      -0.699770       -19.0417
  36   2.0000      -0.690435       -18.7877
  37   2.0000      -0.653760       -17.7897
  38   2.0000      -0.643091       -17.4994
  39   2.0000      -0.623505       -16.9664
  40   2.0000      -0.592641       -16.1266
  41   2.0000      -0.575933       -15.6719
  42   2.0000      -0.565878       -15.3983
  43   2.0000      -0.563742       -15.3402
  44   2.0000      -0.528788       -14.3891
  45   2.0000      -0.517884       -14.0923
  46   2.0000      -0.514736       -14.0067
  47   2.0000      -0.513664       -13.9775
  48   2.0000      -0.507007       -13.7964
  49   2.0000      -0.499636       -13.5958
  50   2.0000      -0.497175       -13.5288
  51   2.0000      -0.474636       -12.9155
  52   2.0000      -0.474068       -12.9000
  53   2.0000      -0.463926       -12.6241
  54   2.0000      -0.452968       -12.3259
  55   2.0000      -0.448305       -12.1990
  56   2.0000      -0.445603       -12.1255
  57   2.0000      -0.439979       -11.9724
  58   2.0000      -0.432103       -11.7581
  59   2.0000      -0.426254       -11.5989
  60   2.0000      -0.422726       -11.5030
  61   2.0000      -0.404785       -11.0148
  62   2.0000      -0.403940       -10.9918
  63   2.0000      -0.342829        -9.3288
  64   2.0000      -0.328562        -8.9406
  65   2.0000      -0.326018        -8.8714
  66   2.0000      -0.297314        -8.0903
  67   0.0000       0.031167         0.8481
  68   0.0000       0.054717         1.4889
  69   0.0000       0.117164         3.1882
  70   0.0000       0.118545         3.2258
  71   0.0000       0.123943         3.3727

MULLIKEN ATOMIC CHARGES
-----------------------
   0 S :    0.115938
   1 C :   -0.089973
   2 C :   -0.105362
   3 C :    0.071278
   4 C :   -0.173818
   5 H :   -0.004843
   6 C :    0.000963
   7 H :    0.037123
   8 H :    0.033774
   9 C :   -0.050009
  10 H :    0.011885
  11 H :    0.011000
  12 C :   -0.017178
  13 H :    0.024273
  14 H :    0.022893
  15 H :    0.038740
  16 S :    0.088251
  17 C :   -0.087298
  18 C :   -0.050356
  19 C :   -0.044866
  20 C :   -0.125271
  21 H :    0.011264
  22 C :    0.078833
  23 H :    0.016838
  24 H :    0.026830
  25 C :   -0.067087
  26 H :    0.047666
  27 H :    0.029274
  28 C :   -0.042116
  29 H :    0.038446
  30 H :    0.016812
  31 H :    0.031426
  32 H :    0.036454
  33 H :    0.068216
Sum of atomic charges:   -0.0000000

LOEWDIN ATOMIC CHARGES
----------------------
   0 S :    0.403822
   1 C :   -0.204268
   2 C :   -0.061268
   3 C :   -0.046106
   4 C :   -0.183463
   5 H :    0.024480
   6 C :   -0.038596
   7 H :    0.033223
   8 H :    0.038306
   9 C :   -0.047244
  10 H :    0.016668
  11 H :    0.021090
  12 C :   -0.057119
  13 H :    0.018141
  14 H :    0.024498
  15 H :    0.034183
  16 S :    0.370751
  17 C :   -0.187209
  18 C :   -0.085074
  19 C :   -0.045540
  20 C :   -0.184815
  21 H :    0.026796
  22 C :   -0.029697
  23 H :    0.031684
  24 H :    0.027953
  25 C :   -0.034373
  26 H :    0.029368
  27 H :    0.021704
  28 C :   -0.064004
  29 H :    0.034690
  30 H :    0.017960
  31 H :    0.022951
  32 H :    0.023879
  33 H :    0.046629

  Mayer bond orders larger than 0.100000
B(  0-S ,  1-C ) :   1.1422 B(  0-S ,  4-C ) :   1.1492 B(  1-C ,  2-C ) :   1.5848
B(  1-C , 32-H ) :   0.9736 B(  2-C ,  3-C ) :   1.2484 B(  2-C ,  6-C ) :   1.0346
B(  3-C ,  4-C ) :   1.5548 B(  3-C ,  5-H ) :   1.0066 B(  4-C , 20-C ) :   1.0110
B(  6-C ,  7-H ) :   0.9554 B(  6-C ,  8-H ) :   0.9310 B(  6-C ,  9-C ) :   1.0492
B(  9-C , 10-H ) :   0.9560 B(  9-C , 11-H ) :   0.9445 B(  9-C , 12-C ) :   1.0946
B( 12-C , 13-H ) :   0.9761 B( 12-C , 14-H ) :   0.9703 B( 12-C , 15-H ) :   0.9726
B( 16-S , 17-C ) :   1.1422 B( 16-S , 20-C ) :   1.1134 B( 17-C , 18-C ) :   1.6598
B( 17-C , 33-H ) :   0.9547 B( 18-C , 19-C ) :   1.2295 B( 18-C , 21-H ) :   0.9787
B( 19-C , 20-C ) :   1.6063 B( 19-C , 22-C ) :   1.0202 B( 22-C , 23-H ) :   0.9366
B( 22-C , 24-H ) :   0.9295 B( 22-C , 25-C ) :   1.0598 B( 25-C , 26-H ) :   0.9579
B( 25-C , 27-H ) :   0.9590 B( 25-C , 28-C ) :   1.0775 B( 28-C , 29-H ) :   0.9732
B( 28-C , 30-H ) :   0.9757 B( 28-C , 31-H ) :   0.9755

Dispersion correction           -0.014235288
FINAL SINGLE POINT ENERGY     -1339.855695347694

DIPOLE MOMENT
-------------
                                X             Y             Z
Electronic contribution:      3.93947     -17.48506     -18.51997
Nuclear contribution   :     -4.39933      17.97393      18.80358
                        -----------------------------------------
Total Dipole Moment    :     -0.45986       0.48888       0.28361
                        -----------------------------------------
Magnitude (a.u.)       :      0.72863
Magnitude (Debye)      :      1.85203

Rotational constants in cm-1:     0.017431     0.008385     0.007105
Rotational constants in MHz :   522.579574   251.368869   213.008065

                             ****ORCA TERMINATED NORMALLY****
TOTAL RUN TIME: 0 days 0 hours 0 minutes 20 seconds 530 msec
