                         Program Version 4.2.1 -  RELEASE  -
|  1> ! wB97X-D3 SP def2-SVP
|  2> %pal
|  3> nprocs 24
|  4> end
|  5>
|  6> * xyz 0 1
|  7> S 	 -59.4067 	 0.262535 	 -27.9828
|  8> C 	 -60.7278 	 1.29573 	 -27.716
|  9> C 	 -60.9169 	 2.1941 	 -28.7342
| 10> C 	 -59.8069 	 2.18309 	 -29.6359
| 11> C 	 -58.9005 	 1.1772 	 -29.3315
| 12> H 	 -59.8398 	 2.87622 	 -30.5339
| 13> C 	 -62.0528 	 3.18431 	 -28.7635
| 14> H 	 -61.6134 	 4.20261 	 -28.597
| 15> H 	 -62.7339 	 3.0568 	 -27.9321
| 16> C 	 -62.9092 	 3.20237 	 -30.1281
| 17> H 	 -62.1219 	 3.40487 	 -30.9476
| 18> H 	 -63.4402 	 2.25592 	 -30.3974
| 19> C 	 -63.9132 	 4.40278 	 -30.2082
| 20> H 	 -64.8836 	 4.07988 	 -29.9025
| 21> H 	 -63.5922 	 5.43022 	 -29.828
| 22> H 	 -64.0366 	 4.50297 	 -31.3136
| 23> S 	 -56.2931 	 0.151866 	 -29.2576
| 24> C 	 -55.2831 	 0.161907 	 -30.6606
| 25> C 	 -56.0144 	 0.614732 	 -31.764
| 26> C 	 -57.3509 	 1.05761 	 -31.4974
| 27> C 	 -57.6435 	 0.964141 	 -30.0916
| 28> H 	 -55.5083 	 0.45495 	 -32.684
| 29> C 	 -58.2794 	 1.48547 	 -32.5973
| 30> H 	 -58.625 	 2.52313 	 -32.3303
| 31> H 	 -59.1353 	 0.836037 	 -32.6575
| 32> C 	 -57.668 	 1.53634 	 -34.0294
| 33> H 	 -57.3541 	 0.534014 	 -34.391
| 34> H 	 -56.7962 	 2.16516 	 -34.0839
| 35> C 	 -58.5943 	 2.14439 	 -35.0775
| 36> H 	 -59.1685 	 3.02782 	 -34.7332
| 37> H 	 -59.3274 	 1.34341 	 -35.3909
| 38> H 	 -58.1766 	 2.50518 	 -36.0255
| 39> H 	 -61.3914 	 1.206 	 -26.9465
| 40> H 	 -54.3556 	 -0.336747 	 -30.7885
| 41> *
| 42>
| 43>                          ****END OF INPUT****

CARTESIAN COORDINATES (ANGSTROEM)
---------------------------------
  S    -59.406700    0.262535  -27.982800
  C    -60.727800    1.295730  -27.716000
  C    -60.916900    2.194100  -28.734200
  C    -59.806900    2.183090  -29.635900
  C    -58.900500    1.177200  -29.331500
  H    -59.839800    2.876220  -30.533900
  C    -62.052800    3.184310  -28.763500
  H    -61.613400    4.202610  -28.597000
  H    -62.733900    3.056800  -27.932100
  C    -62.909200    3.202370  -30.128100
  H    -62.121900    3.404870  -30.947600
  H    -63.440200    2.255920  -30.397400
  C    -63.913200    4.402780  -30.208200
  H    -64.883600    4.079880  -29.902500
  H    -63.592200    5.430220  -29.828000
  H    -64.036600    4.502970  -31.313600
  S    -56.293100    0.151866  -29.257600
  C    -55.283100    0.161907  -30.660600
  C    -56.014400    0.614732  -31.764000
  C    -57.350900    1.057610  -31.497400
  C    -57.643500    0.964141  -30.091600
  H    -55.508300    0.454950  -32.684000
  C    -58.279400    1.485470  -32.597300
  H    -58.625000    2.523130  -32.330300
  H    -59.135300    0.836037  -32.657500
  C    -57.668000    1.536340  -34.029400
  H    -57.354100    0.534014  -34.391000
  H    -56.796200    2.165160  -34.083900
  C    -58.594300    2.144390  -35.077500
  H    -59.168500    3.027820  -34.733200
  H    -59.327400    1.343410  -35.390900
  H    -58.176600    2.505180  -36.025500
  H    -61.391400    1.206000  -26.946500
  H    -54.355600   -0.336747  -30.788500

 Total Charge           Charge          ....    0
 Multiplicity           Mult            ....    1
 Number of Electrons    NEL             ....  134
 Basis Dimension        Dim             ....  322

ORBITAL ENERGIES
----------------

  NO   OCC          E(Eh)            E(eV)
   0   2.0000     -88.968715     -2420.9618
   1   2.0000     -88.965995     -2420.8878
   2   2.0000     -10.335441      -281.2416
   3   2.0000     -10.330360      -281.1034
   4   2.0000     -10.312928      -280.6290
   5   2.0000     -10.311403      -280.5875
   6   2.0000     -10.306007      -280.4407
   7   2.0000     -10.300014      -280.2776
   8   2.0000     -10.299336      -280.2592
   9   2.0000     -10.298662      -280.2408
  10   2.0000     -10.296441      -280.1804
  11   2.0000     -10.295671      -280.1595
  12   2.0000     -10.291306      -280.0407
  13   2.0000     -10.291275      -280.0398
  14   2.0000     -10.287922      -279.9486
  15   2.0000     -10.284578      -279.8576
  16   2.0000      -8.084968      -220.0032
  17   2.0000      -8.080247      -219.8747
  18   2.0000      -6.043353      -164.4480
  19   2.0000      -6.039306      -164.3379
  20   2.0000      -6.038712      -164.3217
  21   2.0000      -6.035732      -164.2406
  22   2.0000      -6.034725      -164.2132
  23   2.0000      -6.031196      -164.1172
  24   2.0000      -1.011175       -27.5155
  25   2.0000      -0.983236       -26.7552
  26   2.0000      -0.909378       -24.7454
  27   2.0000      -0.901620       -24.5343
  28   2.0000      -0.866555       -23.5802
  29   2.0000      -0.853272       -23.2187
  30   2.0000      -0.845480       -23.0067
  31   2.0000      -0.814377       -22.1603
  32   2.0000      -0.780554       -21.2399
  33   2.0000      -0.770088       -20.9552
  34   2.0000      -0.707815       -19.2606
  35   2.0000      -0.701410       -19.0863
  36   2.0000      -0.690608       -18.7924
  37   2.0000      -0.649576       -17.6759
  38   2.0000      -0.635277       -17.2868
  39   2.0000      -0.626307       -17.0427
  40   2.0000      -0.597161       -16.2496
  41   2.0000      -0.572405       -15.5759
  42   2.0000      -0.568704       -15.4752
  43   2.0000      -0.556643       -15.1470
  44   2.0000      -0.525715       -14.3054
  45   2.0000      -0.518343       -14.1048
  46   2.0000      -0.512613       -13.9489
  47   2.0000      -0.507896       -13.8206
  48   2.0000      -0.506551       -13.7839
  49   2.0000      -0.499126       -13.5819
  50   2.0000      -0.490680       -13.3521
  51   2.0000      -0.481235       -13.0951
  52   2.0000      -0.470428       -12.8010
  53   2.0000      -0.463740       -12.6190
  54   2.0000      -0.460085       -12.5196
  55   2.0000      -0.453870       -12.3504
  56   2.0000      -0.451371       -12.2824
  57   2.0000      -0.444754       -12.1024
  58   2.0000      -0.427946       -11.6450
  59   2.0000      -0.426075       -11.5941
  60   2.0000      -0.419034       -11.4025
  61   2.0000      -0.416612       -11.3366
  62   2.0000      -0.404091       -10.9959
  63   2.0000      -0.354257        -9.6398
  64   2.0000      -0.331484        -9.0202
  65   2.0000      -0.328030        -8.9261
  66   2.0000      -0.281847        -7.6694
  67   0.0000       0.022038         0.5997
  68   0.0000       0.084083         2.2880
  69   0.0000       0.107922         2.9367
  70   0.0000       0.124801         3.3960
  71   0.0000       0.130720         3.5571

MULLIKEN ATOMIC CHARGES
-----------------------
   0 S :    0.133803
   1 C :   -0.091772
   2 C :   -0.069546
   3 C :   -0.027418
   4 C :   -0.113098
   5 H :    0.030910
   6 C :    0.059802
   7 H :    0.043042
   8 H :    0.015673
   9 C :   -0.141588
  10 H :    0.036167
  11 H :    0.051506
  12 C :   -0.057769
  13 H :    0.033282
  14 H :    0.053647
  15 H :    0.030709
  16 S :    0.097028
  17 C :   -0.071498
  18 C :   -0.056642
  19 C :   -0.030926
  20 C :   -0.143514
  21 H :    0.010744
  22 C :    0.055056
  23 H :    0.046743
  24 H :    0.042148
  25 C :   -0.085471
  26 H :    0.038188
  27 H :    0.029856
  28 C :   -0.069256
  29 H :    0.029833
  30 H :    0.033888
  31 H :    0.034796
  32 H :    0.003193
  33 H :    0.048484
Sum of atomic charges:    0.0000000

LOEWDIN ATOMIC CHARGES
----------------------
   0 S :    0.446286
   1 C :   -0.201042
   2 C :   -0.065370
   3 C :   -0.073222
   4 C :   -0.208056
   5 H :    0.038536
   6 C :   -0.034923
   7 H :    0.038581
   8 H :    0.024317
   9 C :   -0.044398
  10 H :    0.024991
  11 H :    0.032456
  12 C :   -0.077951
  13 H :    0.019968
  14 H :    0.035485
  15 H :    0.032763
  16 S :    0.405141
  17 C :   -0.194990
  18 C :   -0.072655
  19 C :   -0.052840
  20 C :   -0.186765
  21 H :    0.026591
  22 C :   -0.030435
  23 H :    0.037964
  24 H :    0.034793
  25 C :   -0.044799
  26 H :    0.027707
  27 H :    0.021756
  28 C :   -0.075362
  29 H :    0.025274
  30 H :    0.028757
  31 H :    0.027199
  32 H :    0.007914
  33 H :    0.026329

  Mayer bond orders larger than 0.100000
B(  0-S ,  1-C ) :   1.1479 B(  0-S ,  4-C ) :   1.1686 B(  1-C ,  2-C ) :   1.5916
B(  1-C , 32-H ) :   0.9766 B(  2-C ,  3-C ) :   1.2731 B(  2-C ,  6-C ) :   1.0352
B(  3-C ,  4-C ) :   1.5337 B(  3-C ,  5-H ) :   0.9784 B(  4-C , 20-C ) :   1.0738
B(  6-C ,  7-H ) :   0.9432 B(  6-C ,  8-H ) :   0.9451 B(  6-C ,  9-C ) :   1.0367
B(  9-C , 10-H ) :   0.9656 B(  9-C , 11-H ) :   0.9577 B(  9-C , 12-C ) :   1.0674
B( 12-C , 13-H ) :   0.9778 B( 12-C , 14-H ) :   0.9742 B( 12-C , 15-H ) :   0.9756
B( 16-S , 17-C ) :   1.1668 B( 16-S , 20-C ) :   1.1530 B( 17-C , 18-C ) :   1.5801
B( 17-C , 20-C ) :   0.1066 B( 17-C , 33-H ) :   0.9647 B( 18-C , 19-C ) :   1.2833
B( 18-C , 21-H ) :   0.9894 B( 19-C , 20-C ) :   1.5277 B( 19-C , 22-C ) :   1.0343
B( 22-C , 23-H ) :   0.9267 B( 22-C , 24-H ) :   0.9275 B( 22-C , 25-C ) :   1.0910
B( 25-C , 26-H ) :   0.9490 B( 25-C , 27-H ) :   0.9515 B( 25-C , 28-C ) :   1.0774
B( 28-C , 29-H ) :   0.9737 B( 28-C , 30-H ) :   0.9754 B( 28-C , 31-H ) :   0.9757

Dispersion correction           -0.013211030
FINAL SINGLE POINT ENERGY     -1339.868390429142

DIPOLE MOMENT
-------------
                                X             Y             Z
Electronic contribution:     18.80806     -16.57251      22.82809
Nuclear contribution   :    -19.24034      16.78623     -23.42722
                        -----------------------------------------
Total Dipole Moment    :     -0.43229       0.21372      -0.59913
                        -----------------------------------------
Magnitude (a.u.)       :      0.76909
Magnitude (Debye)      :      1.95488

Rotational constants in cm-1:     0.015808     0.008963     0.005904
Rotational constants in MHz :   473.907806   268.705982   176.989847

                             ****ORCA TERMINATED NORMALLY****
TOTAL RUN TIME: 0 days 0 hours 0 minutes 21 seconds 64 msec
