                         Program Version 4.2.1 -  RELEASE  -
|  1> ! wB97X-D3 SP def2-SVP
|  2> %pal
|  3> nprocs 24
|  4> end
|  5>
|  6> * xyz 0 1
|  7> S 	 -67.9262 	 9.36762 	 -77.7557
|  8> C 	 -67.6698 	 9.19577 	 -76.0595
|  9> C 	 -68.827 	 8.86496 	 -75.4515
| 10> C 	 -69.9589 	 8.63046 	 -76.3966
| 11> C 	 -69.4922 	 8.66162 	 -77.6714
| 12> H 	 -71.0059 	 8.46935 	 -76.1903
| 13> C 	 -69.0059 	 8.74854 	 -73.9384
| 14> H 	 -69.8667 	 9.46635 	 -73.7135
| 15> H 	 -68.1763 	 9.18242 	 -73.5016
| 16> C 	 -69.3955 	 7.32536 	 -73.4177
| 17> H 	 -69.4644 	 7.47259 	 -72.3562
| 18> H 	 -70.4399 	 7.07053 	 -73.5977
| 19> C 	 -68.503 	 6.12673 	 -73.8915
| 20> H 	 -68.6509 	 5.76765 	 -74.919
| 21> H 	 -67.4758 	 6.36633 	 -73.7741
| 22> H 	 -68.714 	 5.42779 	 -73.1642
| 23> S 	 -69.8234 	 9.45866 	 -80.34
| 24> C 	 -71.1772 	 8.90427 	 -81.2998
| 25> C 	 -71.9064 	 7.98259 	 -80.5746
| 26> C 	 -71.3904 	 7.70148 	 -79.298
| 27> C 	 -70.3094 	 8.53839 	 -78.9389
| 28> H 	 -72.7942 	 7.58281 	 -81.0092
| 29> C 	 -72.1163 	 6.66177 	 -78.3496
| 30> H 	 -71.4486 	 6.44332 	 -77.489
| 31> H 	 -72.2713 	 5.76006 	 -78.9981
| 32> C 	 -73.5502 	 7.00178 	 -77.9615
| 33> H 	 -74.1784 	 7.26319 	 -78.8331
| 34> H 	 -73.4449 	 7.81764 	 -77.2738
| 35> C 	 -74.3319 	 5.76282 	 -77.3039
| 36> H 	 -74.011 	 4.84275 	 -77.82
| 37> H 	 -75.3603 	 5.84241 	 -77.29
| 38> H 	 -73.9475 	 5.71398 	 -76.2422
| 39> H 	 -66.7244 	 9.29982 	 -75.5634
| 40> H 	 -71.3535 	 9.1902 	 -82.3265
| 41> *
| 42>
| 43>                          ****END OF INPUT****

CARTESIAN COORDINATES (ANGSTROEM)
---------------------------------
  S    -67.926200    9.367620  -77.755700
  C    -67.669800    9.195770  -76.059500
  C    -68.827000    8.864960  -75.451500
  C    -69.958900    8.630460  -76.396600
  C    -69.492200    8.661620  -77.671400
  H    -71.005900    8.469350  -76.190300
  C    -69.005900    8.748540  -73.938400
  H    -69.866700    9.466350  -73.713500
  H    -68.176300    9.182420  -73.501600
  C    -69.395500    7.325360  -73.417700
  H    -69.464400    7.472590  -72.356200
  H    -70.439900    7.070530  -73.597700
  C    -68.503000    6.126730  -73.891500
  H    -68.650900    5.767650  -74.919000
  H    -67.475800    6.366330  -73.774100
  H    -68.714000    5.427790  -73.164200
  S    -69.823400    9.458660  -80.340000
  C    -71.177200    8.904270  -81.299800
  C    -71.906400    7.982590  -80.574600
  C    -71.390400    7.701480  -79.298000
  C    -70.309400    8.538390  -78.938900
  H    -72.794200    7.582810  -81.009200
  C    -72.116300    6.661770  -78.349600
  H    -71.448600    6.443320  -77.489000
  H    -72.271300    5.760060  -78.998100
  C    -73.550200    7.001780  -77.961500
  H    -74.178400    7.263190  -78.833100
  H    -73.444900    7.817640  -77.273800
  C    -74.331900    5.762820  -77.303900
  H    -74.011000    4.842750  -77.820000
  H    -75.360300    5.842410  -77.290000
  H    -73.947500    5.713980  -76.242200
  H    -66.724400    9.299820  -75.563400
  H    -71.353500    9.190200  -82.326500

 Total Charge           Charge          ....    0
 Multiplicity           Mult            ....    1
 Number of Electrons    NEL             ....  134
 Basis Dimension        Dim             ....  322

ORBITAL ENERGIES
----------------

  NO   OCC          E(Eh)            E(eV)
   0   2.0000     -88.965582     -2420.8766
   1   2.0000     -88.959553     -2420.7125
   2   2.0000     -10.333627      -281.1923
   3   2.0000     -10.331811      -281.1429
   4   2.0000     -10.317841      -280.7627
   5   2.0000     -10.307777      -280.4889
   6   2.0000     -10.307751      -280.4882
   7   2.0000     -10.302219      -280.3376
   8   2.0000     -10.301138      -280.3082
   9   2.0000     -10.296820      -280.1907
  10   2.0000     -10.292804      -280.0814
  11   2.0000     -10.291695      -280.0513
  12   2.0000     -10.291412      -280.0436
  13   2.0000     -10.290042      -280.0063
  14   2.0000     -10.283698      -279.8336
  15   2.0000     -10.271842      -279.5110
  16   2.0000      -8.080337      -219.8771
  17   2.0000      -8.075979      -219.7586
  18   2.0000      -6.038859      -164.3257
  19   2.0000      -6.034723      -164.2132
  20   2.0000      -6.034647      -164.2111
  21   2.0000      -6.031210      -164.1176
  22   2.0000      -6.030455      -164.0970
  23   2.0000      -6.026248      -163.9826
  24   2.0000      -1.009967       -27.4826
  25   2.0000      -0.987738       -26.8777
  26   2.0000      -0.905784       -24.6476
  27   2.0000      -0.902739       -24.5648
  28   2.0000      -0.868451       -23.6317
  29   2.0000      -0.848180       -23.0801
  30   2.0000      -0.840346       -22.8670
  31   2.0000      -0.819197       -22.2915
  32   2.0000      -0.783911       -21.3313
  33   2.0000      -0.774757       -21.0822
  34   2.0000      -0.710834       -19.3428
  35   2.0000      -0.696819       -18.9614
  36   2.0000      -0.692017       -18.8307
  37   2.0000      -0.660238       -17.9660
  38   2.0000      -0.642740       -17.4898
  39   2.0000      -0.619441       -16.8558
  40   2.0000      -0.593829       -16.1589
  41   2.0000      -0.569888       -15.5074
  42   2.0000      -0.564070       -15.3491
  43   2.0000      -0.547423       -14.8961
  44   2.0000      -0.540037       -14.6952
  45   2.0000      -0.528709       -14.3869
  46   2.0000      -0.518396       -14.1063
  47   2.0000      -0.511944       -13.9307
  48   2.0000      -0.504539       -13.7292
  49   2.0000      -0.503689       -13.7061
  50   2.0000      -0.491138       -13.3645
  51   2.0000      -0.483023       -13.1437
  52   2.0000      -0.468605       -12.7514
  53   2.0000      -0.467608       -12.7243
  54   2.0000      -0.459228       -12.4962
  55   2.0000      -0.454838       -12.3768
  56   2.0000      -0.452526       -12.3138
  57   2.0000      -0.439592       -11.9619
  58   2.0000      -0.434020       -11.8103
  59   2.0000      -0.425029       -11.5656
  60   2.0000      -0.417060       -11.3488
  61   2.0000      -0.410184       -11.1617
  62   2.0000      -0.404647       -11.0110
  63   2.0000      -0.359791        -9.7904
  64   2.0000      -0.333523        -9.0756
  65   2.0000      -0.320487        -8.7209
  66   2.0000      -0.290890        -7.9155
  67   0.0000       0.027374         0.7449
  68   0.0000       0.085271         2.3203
  69   0.0000       0.099849         2.7170
  70   0.0000       0.117561         3.1990
  71   0.0000       0.128042         3.4842

MULLIKEN ATOMIC CHARGES
-----------------------
   0 S :    0.082451
   1 C :   -0.107137
   2 C :   -0.103851
   3 C :   -0.002535
   4 C :   -0.086912
   5 H :    0.017275
   6 C :    0.075956
   7 H :    0.040479
   8 H :   -0.002701
   9 C :   -0.078117
  10 H :    0.021719
  11 H :    0.018627
  12 C :   -0.001053
  13 H :    0.055234
  14 H :    0.016010
  15 H :    0.018318
  16 S :    0.093252
  17 C :   -0.092391
  18 C :   -0.029620
  19 C :   -0.032341
  20 C :   -0.144981
  21 H :    0.010317
  22 C :    0.029907
  23 H :    0.039558
  24 H :    0.027688
  25 C :   -0.086236
  26 H :    0.037478
  27 H :    0.027168
  28 C :   -0.045585
  29 H :    0.032102
  30 H :    0.031714
  31 H :    0.035068
  32 H :    0.043390
  33 H :    0.059750
Sum of atomic charges:    0.0000000

LOEWDIN ATOMIC CHARGES
----------------------
   0 S :    0.405199
   1 C :   -0.203821
   2 C :   -0.057343
   3 C :   -0.066751
   4 C :   -0.185068
   5 H :    0.030877
   6 C :   -0.031173
   7 H :    0.043882
   8 H :    0.014714
   9 C :   -0.040474
  10 H :    0.023229
  11 H :    0.022518
  12 C :   -0.055696
  13 H :    0.034151
  14 H :    0.020505
  15 H :    0.019994
  16 S :    0.406177
  17 C :   -0.183514
  18 C :   -0.070224
  19 C :   -0.061317
  20 C :   -0.197495
  21 H :    0.027743
  22 C :   -0.034180
  23 H :    0.031009
  24 H :    0.033309
  25 C :   -0.039824
  26 H :    0.025923
  27 H :    0.016428
  28 C :   -0.060651
  29 H :    0.026267
  30 H :    0.013480
  31 H :    0.031538
  32 H :    0.029568
  33 H :    0.031017

  Mayer bond orders larger than 0.100000
B(  0-S ,  1-C ) :   1.1086 B(  0-S ,  4-C ) :   1.1514 B(  1-C ,  2-C ) :   1.6606
B(  1-C , 32-H ) :   0.9722 B(  2-C ,  3-C ) :   1.1676 B(  2-C ,  6-C ) :   1.0323
B(  3-C ,  4-C ) :   1.6035 B(  3-C ,  5-H ) :   1.0005 B(  4-C , 20-C ) :   1.0268
B(  6-C ,  7-H ) :   0.9365 B(  6-C ,  8-H ) :   0.9419 B(  6-C ,  9-C ) :   1.0649
B(  9-C , 10-H ) :   0.9582 B(  9-C , 11-H ) :   0.9529 B(  9-C , 12-C ) :   1.0604
B( 12-C , 13-H ) :   0.9741 B( 12-C , 14-H ) :   0.9786 B( 12-C , 15-H ) :   0.9720
B( 16-S , 17-C ) :   1.1600 B( 16-S , 20-C ) :   1.1547 B( 17-C , 18-C ) :   1.5851
B( 17-C , 20-C ) :   0.1029 B( 17-C , 33-H ) :   0.9714 B( 18-C , 19-C ) :   1.2664
B( 18-C , 21-H ) :   0.9957 B( 19-C , 20-C ) :   1.5684 B( 19-C , 22-C ) :   1.0373
B( 22-C , 23-H ) :   0.9409 B( 22-C , 24-H ) :   0.9321 B( 22-C , 25-C ) :   1.0617
B( 25-C , 26-H ) :   0.9556 B( 25-C , 27-H ) :   0.9607 B( 25-C , 28-C ) :   1.0646
B( 28-C , 29-H ) :   0.9767 B( 28-C , 30-H ) :   0.9803 B( 28-C , 31-H ) :   0.9780

Dispersion correction           -0.014139323
FINAL SINGLE POINT ENERGY     -1339.861947192495

DIPOLE MOMENT
-------------
                                X             Y             Z
Electronic contribution:     15.08940      17.41781     -20.92614
Nuclear contribution   :    -15.57536     -17.71751      21.39512
                        -----------------------------------------
Total Dipole Moment    :     -0.48596      -0.29969       0.46898
                        -----------------------------------------
Magnitude (a.u.)       :      0.73886
Magnitude (Debye)      :      1.87803

Rotational constants in cm-1:     0.016269     0.009943     0.006539
Rotational constants in MHz :   487.731482   298.087033   196.037338

                             ****ORCA TERMINATED NORMALLY****
TOTAL RUN TIME: 0 days 0 hours 0 minutes 21 seconds 457 msec
