                         Program Version 4.2.1 -  RELEASE  -
|  1> ! wB97X-D3 SP def2-SVP
|  2> %pal
|  3> nprocs 24
|  4> end
|  5>
|  6> * xyz 0 1
|  7> S 	 -139.157 	 9.56033 	 2.78868
|  8> C 	 -140.286 	 9.35575 	 1.4276
|  9> C 	 -141.619 	 9.55003 	 1.79712
| 10> C 	 -141.759 	 9.60796 	 3.22775
| 11> C 	 -140.546 	 9.68457 	 3.91398
| 12> H 	 -142.615 	 9.69247 	 3.82121
| 13> C 	 -142.739 	 9.55011 	 0.751184
| 14> H 	 -143.737 	 9.43382 	 1.10884
| 15> H 	 -142.525 	 8.63384 	 0.121431
| 16> C 	 -142.684 	 10.6827 	 -0.217255
| 17> H 	 -142.822 	 11.5463 	 0.394714
| 18> H 	 -141.723 	 10.7865 	 -0.662395
| 19> C 	 -143.791 	 10.6277 	 -1.32007
| 20> H 	 -143.918 	 9.56495 	 -1.61119
| 21> H 	 -144.762 	 10.8954 	 -0.931316
| 22> H 	 -143.601 	 11.2895 	 -2.10757
| 23> S 	 -140.565 	 11.6603 	 5.93476
| 24> C 	 -140.137 	 11.2328 	 7.50254
| 25> C 	 -139.985 	 9.82045 	 7.61159
| 26> C 	 -140.037 	 9.12031 	 6.37015
| 27> C 	 -140.354 	 9.94795 	 5.32812
| 28> H 	 -139.792 	 9.47562 	 8.58171
| 29> C 	 -139.842 	 7.61378 	 6.26617
| 30> H 	 -140.533 	 7.25437 	 5.45361
| 31> H 	 -140.282 	 7.11094 	 7.10778
| 32> C 	 -138.325 	 7.22555 	 6.14075
| 33> H 	 -137.667 	 7.90472 	 6.62062
| 34> H 	 -138.019 	 7.23932 	 5.04562
| 35> C 	 -138.017 	 5.83499 	 6.69496
| 36> H 	 -138.907 	 5.09171 	 6.61549
| 37> H 	 -137.699 	 5.74584 	 7.7284
| 38> H 	 -137.151 	 5.42727 	 6.19876
| 39> H 	 -139.926 	 9.0555 	 0.426912
| 40> H 	 -140.104 	 12.0084 	 8.29452
| 41> *
| 42>
| 43>                          ****END OF INPUT****

CARTESIAN COORDINATES (ANGSTROEM)
---------------------------------
  S    -139.157000    9.560330    2.788680
  C    -140.286000    9.355750    1.427600
  C    -141.619000    9.550030    1.797120
  C    -141.759000    9.607960    3.227750
  C    -140.546000    9.684570    3.913980
  H    -142.615000    9.692470    3.821210
  C    -142.739000    9.550110    0.751184
  H    -143.737000    9.433820    1.108840
  H    -142.525000    8.633840    0.121431
  C    -142.684000   10.682700   -0.217255
  H    -142.822000   11.546300    0.394714
  H    -141.723000   10.786500   -0.662395
  C    -143.791000   10.627700   -1.320070
  H    -143.918000    9.564950   -1.611190
  H    -144.762000   10.895400   -0.931316
  H    -143.601000   11.289500   -2.107570
  S    -140.565000   11.660300    5.934760
  C    -140.137000   11.232800    7.502540
  C    -139.985000    9.820450    7.611590
  C    -140.037000    9.120310    6.370150
  C    -140.354000    9.947950    5.328120
  H    -139.792000    9.475620    8.581710
  C    -139.842000    7.613780    6.266170
  H    -140.533000    7.254370    5.453610
  H    -140.282000    7.110940    7.107780
  C    -138.325000    7.225550    6.140750
  H    -137.667000    7.904720    6.620620
  H    -138.019000    7.239320    5.045620
  C    -138.017000    5.834990    6.694960
  H    -138.907000    5.091710    6.615490
  H    -137.699000    5.745840    7.728400
  H    -137.151000    5.427270    6.198760
  H    -139.926000    9.055500    0.426912
  H    -140.104000   12.008400    8.294520

 Total Charge           Charge          ....    0
 Multiplicity           Mult            ....    1
 Number of Electrons    NEL             ....  134
 Basis Dimension        Dim             ....  322

ORBITAL ENERGIES
----------------

  NO   OCC          E(Eh)            E(eV)
   0   2.0000     -88.966534     -2420.9025
   1   2.0000     -88.961498     -2420.7654
   2   2.0000     -10.330132      -281.0972
   3   2.0000     -10.324409      -280.9415
   4   2.0000     -10.320839      -280.8443
   5   2.0000     -10.320364      -280.8314
   6   2.0000     -10.308554      -280.5100
   7   2.0000     -10.304786      -280.4075
   8   2.0000     -10.295913      -280.1660
   9   2.0000     -10.294950      -280.1398
  10   2.0000     -10.292491      -280.0729
  11   2.0000     -10.291344      -280.0417
  12   2.0000     -10.288663      -279.9688
  13   2.0000     -10.278970      -279.7050
  14   2.0000     -10.277468      -279.6641
  15   2.0000     -10.276310      -279.6326
  16   2.0000      -8.079920      -219.8658
  17   2.0000      -8.076733      -219.7791
  18   2.0000      -6.038439      -164.3143
  19   2.0000      -6.035020      -164.2213
  20   2.0000      -6.034626      -164.2105
  21   2.0000      -6.031070      -164.1137
  22   2.0000      -6.030744      -164.1049
  23   2.0000      -6.027799      -164.0248
  24   2.0000      -0.999013       -27.1845
  25   2.0000      -0.977363       -26.5954
  26   2.0000      -0.914439       -24.8832
  27   2.0000      -0.903269       -24.5792
  28   2.0000      -0.865566       -23.5532
  29   2.0000      -0.849316       -23.1111
  30   2.0000      -0.844487       -22.9797
  31   2.0000      -0.807365       -21.9695
  32   2.0000      -0.783200       -21.3120
  33   2.0000      -0.769738       -20.9456
  34   2.0000      -0.702742       -19.1226
  35   2.0000      -0.701211       -19.0809
  36   2.0000      -0.692960       -18.8564
  37   2.0000      -0.660207       -17.9651
  38   2.0000      -0.646257       -17.5856
  39   2.0000      -0.612572       -16.6689
  40   2.0000      -0.595767       -16.2116
  41   2.0000      -0.576832       -15.6964
  42   2.0000      -0.559382       -15.2216
  43   2.0000      -0.547519       -14.8987
  44   2.0000      -0.525756       -14.3066
  45   2.0000      -0.525032       -14.2868
  46   2.0000      -0.523300       -14.2397
  47   2.0000      -0.513123       -13.9628
  48   2.0000      -0.505213       -13.7475
  49   2.0000      -0.497619       -13.5409
  50   2.0000      -0.489175       -13.3111
  51   2.0000      -0.474926       -12.9234
  52   2.0000      -0.466344       -12.6899
  53   2.0000      -0.456763       -12.4292
  54   2.0000      -0.453397       -12.3375
  55   2.0000      -0.446022       -12.1369
  56   2.0000      -0.445288       -12.1169
  57   2.0000      -0.442773       -12.0485
  58   2.0000      -0.437053       -11.8928
  59   2.0000      -0.426131       -11.5956
  60   2.0000      -0.420496       -11.4423
  61   2.0000      -0.412648       -11.2287
  62   2.0000      -0.406839       -11.0707
  63   2.0000      -0.337120        -9.1735
  64   2.0000      -0.329720        -8.9721
  65   2.0000      -0.315895        -8.5959
  66   2.0000      -0.304665        -8.2903
  67   0.0000       0.036536         0.9942
  68   0.0000       0.051642         1.4052
  69   0.0000       0.108880         2.9628
  70   0.0000       0.112138         3.0514
  71   0.0000       0.130852         3.5607

MULLIKEN ATOMIC CHARGES
-----------------------
   0 S :    0.111367
   1 C :   -0.146376
   2 C :   -0.058291
   3 C :    0.071785
   4 C :   -0.188600
   5 H :   -0.009069
   6 C :    0.058797
   7 H :    0.015012
   8 H :    0.030189
   9 C :   -0.066111
  10 H :    0.019518
  11 H :    0.020330
  12 C :   -0.018189
  13 H :    0.025318
  14 H :    0.020550
  15 H :    0.031356
  16 S :    0.110725
  17 C :   -0.116147
  18 C :   -0.032726
  19 C :    0.006004
  20 C :   -0.200652
  21 H :   -0.002518
  22 C :    0.072635
  23 H :    0.044724
  24 H :    0.018337
  25 C :   -0.048058
  26 H :    0.030949
  27 H :    0.043913
  28 C :   -0.084194
  29 H :    0.041487
  30 H :    0.028967
  31 H :    0.027065
  32 H :    0.064830
  33 H :    0.077072
Sum of atomic charges:   -0.0000000

LOEWDIN ATOMIC CHARGES
----------------------
   0 S :    0.381284
   1 C :   -0.187268
   2 C :   -0.057858
   3 C :   -0.048217
   4 C :   -0.185276
   5 H :    0.024593
   6 C :   -0.032470
   7 H :    0.023919
   8 H :    0.036132
   9 C :   -0.037327
  10 H :    0.021035
  11 H :    0.017624
  12 C :   -0.057789
  13 H :    0.027497
  14 H :    0.023105
  15 H :    0.020510
  16 S :    0.404984
  17 C :   -0.202697
  18 C :   -0.075859
  19 C :   -0.046138
  20 C :   -0.194316
  21 H :    0.019600
  22 C :   -0.030332
  23 H :    0.041688
  24 H :    0.026803
  25 C :   -0.038646
  26 H :    0.022276
  27 H :    0.033264
  28 C :   -0.078519
  29 H :    0.033122
  30 H :    0.022190
  31 H :    0.024827
  32 H :    0.031640
  33 H :    0.036617

  Mayer bond orders larger than 0.100000
B(  0-S ,  1-C ) :   1.1455 B(  0-S ,  4-C ) :   1.1303 B(  1-C ,  2-C ) :   1.5990
B(  1-C ,  4-C ) :   0.1035 B(  1-C , 32-H ) :   0.9648 B(  2-C ,  3-C ) :   1.2213
B(  2-C ,  6-C ) :   1.0134 B(  3-C ,  4-C ) :   1.5938 B(  3-C ,  5-H ) :   1.0044
B(  4-C , 20-C ) :   1.0441 B(  6-C ,  7-H ) :   0.9523 B(  6-C ,  8-H ) :   0.9352
B(  6-C ,  9-C ) :   1.0636 B(  9-C , 10-H ) :   0.9528 B(  9-C , 11-H ) :   0.9591
B(  9-C , 12-C ) :   1.0773 B( 12-C , 13-H ) :   0.9751 B( 12-C , 14-H ) :   0.9739
B( 12-C , 15-H ) :   0.9762 B( 16-S , 17-C ) :   1.1999 B( 16-S , 20-C ) :   1.1243
B( 17-C , 18-C ) :   1.5628 B( 17-C , 20-C ) :   0.1019 B( 17-C , 33-H ) :   0.9637
B( 18-C , 19-C ) :   1.2329 B( 18-C , 21-H ) :   1.0056 B( 19-C , 20-C ) :   1.5997
B( 19-C , 22-C ) :   1.0429 B( 22-C , 23-H ) :   0.9270 B( 22-C , 24-H ) :   0.9473
B( 22-C , 25-C ) :   1.0370 B( 25-C , 26-H ) :   0.9642 B( 25-C , 27-H ) :   0.9546
B( 25-C , 28-C ) :   1.0723 B( 28-C , 29-H ) :   0.9759 B( 28-C , 30-H ) :   0.9764
B( 28-C , 31-H ) :   0.9741

Dispersion correction           -0.013848604
FINAL SINGLE POINT ENERGY     -1339.868703214166

DIPOLE MOMENT
-------------
                                X             Y             Z
Electronic contribution:      5.93143      13.25217       9.71530
Nuclear contribution   :     -6.17545     -13.48935      -9.69572
                        -----------------------------------------
Total Dipole Moment    :     -0.24402      -0.23718       0.01958
                        -----------------------------------------
Magnitude (a.u.)       :      0.34086
Magnitude (Debye)      :      0.86639

Rotational constants in cm-1:     0.021918     0.007065     0.005915
Rotational constants in MHz :   657.081072   211.799852   177.327526

                             ****ORCA TERMINATED NORMALLY****
TOTAL RUN TIME: 0 days 0 hours 0 minutes 19 seconds 616 msec
