                         Program Version 4.2.1 -  RELEASE  -
|  1> ! wB97X-D3 SP def2-SVP
|  2> %pal
|  3> nprocs 24
|  4> end
|  5>
|  6> * xyz 0 1
|  7> S 	 -28.8926 	 5.62781 	 4.88048
|  8> C 	 -28.1675 	 7.19467 	 4.43986
|  9> C 	 -29.1668 	 8.17694 	 4.3491
| 10> C 	 -30.4762 	 7.652 	 4.60261
| 11> C 	 -30.5442 	 6.31972 	 4.8391
| 12> H 	 -31.3509 	 8.28662 	 4.8227
| 13> C 	 -28.7994 	 9.62976 	 4.24743
| 14> H 	 -27.7491 	 9.79708 	 4.38234
| 15> H 	 -29.2394 	 10.124 	 5.10122
| 16> C 	 -29.263 	 10.2103 	 2.83371
| 17> H 	 -28.441 	 10.3127 	 2.06172
| 18> H 	 -30.0447 	 9.58368 	 2.38405
| 19> C 	 -29.8145 	 11.6235 	 2.87407
| 20> H 	 -29.0415 	 12.2209 	 3.37208
| 21> H 	 -30.0197 	 12.1299 	 1.97527
| 22> H 	 -30.7719 	 11.7253 	 3.40732
| 23> S 	 -31.6954 	 4.51735 	 6.47349
| 24> C 	 -33.2944 	 3.95096 	 6.13602
| 25> C 	 -33.8304 	 4.73925 	 5.15645
| 26> C 	 -32.9249 	 5.57818 	 4.47052
| 27> C 	 -31.705 	 5.5955 	 5.11949
| 28> H 	 -34.8818 	 4.60166 	 5.02765
| 29> C 	 -33.4918 	 6.42671 	 3.31176
| 30> H 	 -32.7621 	 7.0528 	 2.89247
| 31> H 	 -34.1678 	 7.06941 	 3.8245
| 32> C 	 -34.2486 	 5.59511 	 2.21912
| 33> H 	 -34.4893 	 6.31695 	 1.39995
| 34> H 	 -35.2065 	 5.30802 	 2.59597
| 35> C 	 -33.5578 	 4.46123 	 1.48404
| 36> H 	 -33.4367 	 3.53409 	 2.11611
| 37> H 	 -32.5715 	 4.78958 	 1.16998
| 38> H 	 -34.196 	 4.07408 	 0.729438
| 39> H 	 -27.1783 	 7.41088 	 4.23927
| 40> H 	 -33.8766 	 3.50657 	 6.86828
| 41> *
| 42>
| 43>                          ****END OF INPUT****

CARTESIAN COORDINATES (ANGSTROEM)
---------------------------------
  S    -28.892600    5.627810    4.880480
  C    -28.167500    7.194670    4.439860
  C    -29.166800    8.176940    4.349100
  C    -30.476200    7.652000    4.602610
  C    -30.544200    6.319720    4.839100
  H    -31.350900    8.286620    4.822700
  C    -28.799400    9.629760    4.247430
  H    -27.749100    9.797080    4.382340
  H    -29.239400   10.124000    5.101220
  C    -29.263000   10.210300    2.833710
  H    -28.441000   10.312700    2.061720
  H    -30.044700    9.583680    2.384050
  C    -29.814500   11.623500    2.874070
  H    -29.041500   12.220900    3.372080
  H    -30.019700   12.129900    1.975270
  H    -30.771900   11.725300    3.407320
  S    -31.695400    4.517350    6.473490
  C    -33.294400    3.950960    6.136020
  C    -33.830400    4.739250    5.156450
  C    -32.924900    5.578180    4.470520
  C    -31.705000    5.595500    5.119490
  H    -34.881800    4.601660    5.027650
  C    -33.491800    6.426710    3.311760
  H    -32.762100    7.052800    2.892470
  H    -34.167800    7.069410    3.824500
  C    -34.248600    5.595110    2.219120
  H    -34.489300    6.316950    1.399950
  H    -35.206500    5.308020    2.595970
  C    -33.557800    4.461230    1.484040
  H    -33.436700    3.534090    2.116110
  H    -32.571500    4.789580    1.169980
  H    -34.196000    4.074080    0.729438
  H    -27.178300    7.410880    4.239270
  H    -33.876600    3.506570    6.868280

 Total Charge           Charge          ....    0
 Multiplicity           Mult            ....    1
 Number of Electrons    NEL             ....  134
 Basis Dimension        Dim             ....  322

ORBITAL ENERGIES
----------------

  NO   OCC          E(Eh)            E(eV)
   0   2.0000     -88.964824     -2420.8559
   1   2.0000     -88.961065     -2420.7536
   2   2.0000     -10.325913      -280.9824
   3   2.0000     -10.321883      -280.8727
   4   2.0000     -10.312588      -280.6198
   5   2.0000     -10.306243      -280.4471
   6   2.0000     -10.303246      -280.3656
   7   2.0000     -10.302097      -280.3343
   8   2.0000     -10.295519      -280.1553
   9   2.0000     -10.293929      -280.1121
  10   2.0000     -10.293593      -280.1029
  11   2.0000     -10.291742      -280.0525
  12   2.0000     -10.288227      -279.9569
  13   2.0000     -10.287903      -279.9481
  14   2.0000     -10.274777      -279.5909
  15   2.0000     -10.272924      -279.5405
  16   2.0000      -8.078383      -219.8240
  17   2.0000      -8.076921      -219.7842
  18   2.0000      -6.037141      -164.2790
  19   2.0000      -6.035338      -164.2299
  20   2.0000      -6.033072      -164.1682
  21   2.0000      -6.031227      -164.1180
  22   2.0000      -6.028916      -164.0551
  23   2.0000      -6.027745      -164.0233
  24   2.0000      -1.013168       -27.5697
  25   2.0000      -0.982512       -26.7355
  26   2.0000      -0.908895       -24.7323
  27   2.0000      -0.906282       -24.6612
  28   2.0000      -0.876870       -23.8608
  29   2.0000      -0.852441       -23.1961
  30   2.0000      -0.844232       -22.9727
  31   2.0000      -0.820642       -22.3308
  32   2.0000      -0.788423       -21.4541
  33   2.0000      -0.772515       -21.0212
  34   2.0000      -0.715095       -19.4587
  35   2.0000      -0.698771       -19.0145
  36   2.0000      -0.696935       -18.9646
  37   2.0000      -0.660835       -17.9822
  38   2.0000      -0.644655       -17.5420
  39   2.0000      -0.620910       -16.8958
  40   2.0000      -0.599677       -16.3180
  41   2.0000      -0.568686       -15.4747
  42   2.0000      -0.559487       -15.2244
  43   2.0000      -0.551847       -15.0165
  44   2.0000      -0.539483       -14.6801
  45   2.0000      -0.528522       -14.3818
  46   2.0000      -0.525810       -14.3080
  47   2.0000      -0.514985       -14.0135
  48   2.0000      -0.511522       -13.9192
  49   2.0000      -0.500273       -13.6131
  50   2.0000      -0.493352       -13.4248
  51   2.0000      -0.487017       -13.2524
  52   2.0000      -0.473842       -12.8939
  53   2.0000      -0.463305       -12.6072
  54   2.0000      -0.454537       -12.3686
  55   2.0000      -0.447883       -12.1875
  56   2.0000      -0.442109       -12.0304
  57   2.0000      -0.435653       -11.8547
  58   2.0000      -0.426652       -11.6098
  59   2.0000      -0.425103       -11.5676
  60   2.0000      -0.421185       -11.4610
  61   2.0000      -0.415261       -11.2998
  62   2.0000      -0.405744       -11.0408
  63   2.0000      -0.354580        -9.6486
  64   2.0000      -0.330043        -8.9809
  65   2.0000      -0.327522        -8.9123
  66   2.0000      -0.288964        -7.8631
  67   0.0000       0.025698         0.6993
  68   0.0000       0.071923         1.9571
  69   0.0000       0.107153         2.9158
  70   0.0000       0.126493         3.4420
  71   0.0000       0.131235         3.5711

MULLIKEN ATOMIC CHARGES
-----------------------
   0 S :    0.103426
   1 C :   -0.085773
   2 C :   -0.107440
   3 C :    0.005626
   4 C :   -0.128853
   5 H :    0.030045
   6 C :    0.091593
   7 H :    0.016144
   8 H :    0.037205
   9 C :   -0.095325
  10 H :    0.042786
  11 H :    0.040754
  12 C :   -0.059277
  13 H :    0.025850
  14 H :    0.020936
  15 H :    0.026892
  16 S :    0.098755
  17 C :   -0.060158
  18 C :   -0.064462
  19 C :   -0.030090
  20 C :   -0.170389
  21 H :    0.015085
  22 C :    0.129218
  23 H :    0.004170
  24 H :    0.029894
  25 C :   -0.100982
  26 H :    0.030521
  27 H :    0.017918
  28 C :   -0.026412
  29 H :    0.033886
  30 H :    0.038766
  31 H :    0.028197
  32 H :    0.018890
  33 H :    0.042605
Sum of atomic charges:    0.0000000

LOEWDIN ATOMIC CHARGES
----------------------
   0 S :    0.372954
   1 C :   -0.176279
   2 C :   -0.058345
   3 C :   -0.068988
   4 C :   -0.178873
   5 H :    0.037858
   6 C :   -0.024046
   7 H :    0.028877
   8 H :    0.034317
   9 C :   -0.043673
  10 H :    0.033599
  11 H :    0.023047
  12 C :   -0.072373
  13 H :    0.024650
  14 H :    0.017864
  15 H :    0.022435
  16 S :    0.417757
  17 C :   -0.187013
  18 C :   -0.062804
  19 C :   -0.052900
  20 C :   -0.204253
  21 H :    0.027648
  22 C :   -0.018530
  23 H :    0.018917
  24 H :    0.034841
  25 C :   -0.042547
  26 H :    0.030697
  27 H :    0.015431
  28 C :   -0.064289
  29 H :    0.030934
  30 H :    0.027912
  31 H :    0.024442
  32 H :    0.013695
  33 H :    0.017039

  Mayer bond orders larger than 0.100000
B(  0-S ,  1-C ) :   1.1208 B(  0-S ,  4-C ) :   1.1165 B(  1-C ,  2-C ) :   1.6209
B(  1-C , 32-H ) :   0.9760 B(  2-C ,  3-C ) :   1.2225 B(  2-C ,  6-C ) :   1.0392
B(  3-C ,  4-C ) :   1.5982 B(  3-C ,  5-H ) :   0.9854 B(  4-C , 20-C ) :   1.0889
B(  6-C ,  7-H ) :   0.9399 B(  6-C ,  8-H ) :   0.9521 B(  6-C ,  9-C ) :   1.0135
B(  9-C , 10-H ) :   0.9587 B(  9-C , 11-H ) :   0.9717 B(  9-C , 12-C ) :   1.0755
B( 12-C , 13-H ) :   0.9745 B( 12-C , 14-H ) :   0.9745 B( 12-C , 15-H ) :   0.9764
B( 16-S , 17-C ) :   1.1496 B( 16-S , 20-C ) :   1.1553 B( 17-C , 18-C ) :   1.6259
B( 17-C , 33-H ) :   0.9660 B( 18-C , 19-C ) :   1.2290 B( 18-C , 21-H ) :   0.9885
B( 19-C , 20-C ) :   1.5728 B( 19-C , 22-C ) :   1.0274 B( 22-C , 23-H ) :   0.9296
B( 22-C , 24-H ) :   0.9357 B( 22-C , 25-C ) :   1.0734 B( 25-C , 26-H ) :   0.9552
B( 25-C , 27-H ) :   0.9528 B( 25-C , 28-C ) :   1.0856 B( 28-C , 29-H ) :   0.9698
B( 28-C , 30-H ) :   0.9746 B( 28-C , 31-H ) :   0.9704

Dispersion correction           -0.013980981
FINAL SINGLE POINT ENERGY     -1339.861075521243

DIPOLE MOMENT
-------------
                                X             Y             Z
Electronic contribution:      8.29918     -18.75477      19.04222
Nuclear contribution   :     -8.76206      19.40981     -19.25447
                        -----------------------------------------
Total Dipole Moment    :     -0.46288       0.65504      -0.21224
                        -----------------------------------------
Magnitude (a.u.)       :      0.82969
Magnitude (Debye)      :      2.10890

Rotational constants in cm-1:     0.018061     0.008581     0.006740
Rotational constants in MHz :   541.450769   257.238006   202.065988

                             ****ORCA TERMINATED NORMALLY****
TOTAL RUN TIME: 0 days 0 hours 0 minutes 21 seconds 413 msec
