                         Program Version 4.2.1 -  RELEASE  -
|  1> ! wB97X-D3 SP def2-SVP
|  2> %pal
|  3> nprocs 24
|  4> end
|  5>
|  6> * xyz 0 1
|  7> S 	 -35.1532 	 -7.83772 	 9.04346
|  8> C 	 -35.0148 	 -8.03871 	 10.8035
|  9> C 	 -36.2209 	 -7.62191 	 11.3972
| 10> C 	 -37.2548 	 -7.35273 	 10.406
| 11> C 	 -36.8895 	 -7.57576 	 9.10678
| 12> H 	 -38.2562 	 -7.04065 	 10.5966
| 13> C 	 -36.336 	 -7.44633 	 12.9222
| 14> H 	 -35.6948 	 -8.25191 	 13.3026
| 15> H 	 -37.4217 	 -7.59726 	 13.3243
| 16> C 	 -35.8627 	 -6.11413 	 13.5077
| 17> H 	 -36.1735 	 -5.28495 	 12.9666
| 18> H 	 -36.2872 	 -6.0883 	 14.518
| 19> C 	 -34.4101 	 -6.15408 	 13.9637
| 20> H 	 -33.7388 	 -6.01566 	 13.1466
| 21> H 	 -34.2112 	 -5.28937 	 14.6351
| 22> H 	 -34.1079 	 -7.03936 	 14.5646
| 23> S 	 -38.9671 	 -8.33683 	 7.43627
| 24> C 	 -39.2877 	 -7.30834 	 6.00646
| 25> C 	 -38.541 	 -6.17296 	 6.0517
| 26> C 	 -37.5539 	 -6.12515 	 7.06162
| 27> C 	 -37.6711 	 -7.20155 	 7.91579
| 28> H 	 -38.7422 	 -5.33744 	 5.40703
| 29> C 	 -36.4966 	 -5.05262 	 7.11685
| 30> H 	 -36.4576 	 -4.36923 	 6.22132
| 31> H 	 -35.5746 	 -5.58107 	 7.21438
| 32> C 	 -36.6245 	 -4.08422 	 8.32309
| 33> H 	 -36.6616 	 -4.69439 	 9.28361
| 34> H 	 -37.5627 	 -3.55607 	 8.3532
| 35> C 	 -35.4884 	 -3.10757 	 8.48187
| 36> H 	 -35.2329 	 -2.48252 	 7.55271
| 37> H 	 -34.5601 	 -3.58129 	 8.92012
| 38> H 	 -35.8246 	 -2.26584 	 9.06398
| 39> H 	 -34.0697 	 -8.17449 	 11.3412
| 40> H 	 -40.0513 	 -7.40575 	 5.29298
| 41> *
| 42>
| 43>                          ****END OF INPUT****

CARTESIAN COORDINATES (ANGSTROEM)
---------------------------------
  S    -35.153200   -7.837720    9.043460
  C    -35.014800   -8.038710   10.803500
  C    -36.220900   -7.621910   11.397200
  C    -37.254800   -7.352730   10.406000
  C    -36.889500   -7.575760    9.106780
  H    -38.256200   -7.040650   10.596600
  C    -36.336000   -7.446330   12.922200
  H    -35.694800   -8.251910   13.302600
  H    -37.421700   -7.597260   13.324300
  C    -35.862700   -6.114130   13.507700
  H    -36.173500   -5.284950   12.966600
  H    -36.287200   -6.088300   14.518000
  C    -34.410100   -6.154080   13.963700
  H    -33.738800   -6.015660   13.146600
  H    -34.211200   -5.289370   14.635100
  H    -34.107900   -7.039360   14.564600
  S    -38.967100   -8.336830    7.436270
  C    -39.287700   -7.308340    6.006460
  C    -38.541000   -6.172960    6.051700
  C    -37.553900   -6.125150    7.061620
  C    -37.671100   -7.201550    7.915790
  H    -38.742200   -5.337440    5.407030
  C    -36.496600   -5.052620    7.116850
  H    -36.457600   -4.369230    6.221320
  H    -35.574600   -5.581070    7.214380
  C    -36.624500   -4.084220    8.323090
  H    -36.661600   -4.694390    9.283610
  H    -37.562700   -3.556070    8.353200
  C    -35.488400   -3.107570    8.481870
  H    -35.232900   -2.482520    7.552710
  H    -34.560100   -3.581290    8.920120
  H    -35.824600   -2.265840    9.063980
  H    -34.069700   -8.174490   11.341200
  H    -40.051300   -7.405750    5.292980

 Total Charge           Charge          ....    0
 Multiplicity           Mult            ....    1
 Number of Electrons    NEL             ....  134
 Basis Dimension        Dim             ....  322

ORBITAL ENERGIES
----------------

  NO   OCC          E(Eh)            E(eV)
   0   2.0000     -88.967307     -2420.9235
   1   2.0000     -88.965858     -2420.8841
   2   2.0000     -10.329939      -281.0919
   3   2.0000     -10.329115      -281.0695
   4   2.0000     -10.322455      -280.8883
   5   2.0000     -10.314412      -280.6694
   6   2.0000     -10.310595      -280.5656
   7   2.0000     -10.301934      -280.3299
   8   2.0000     -10.301825      -280.3269
   9   2.0000     -10.296119      -280.1717
  10   2.0000     -10.293430      -280.0985
  11   2.0000     -10.288794      -279.9723
  12   2.0000     -10.285322      -279.8778
  13   2.0000     -10.283105      -279.8175
  14   2.0000     -10.282077      -279.7895
  15   2.0000     -10.280642      -279.7505
  16   2.0000      -8.080732      -219.8879
  17   2.0000      -8.079767      -219.8616
  18   2.0000      -6.039439      -164.3415
  19   2.0000      -6.038389      -164.3129
  20   2.0000      -6.035506      -164.2345
  21   2.0000      -6.034420      -164.2049
  22   2.0000      -6.031280      -164.1195
  23   2.0000      -6.030420      -164.0961
  24   2.0000      -1.002765       -27.2866
  25   2.0000      -0.980028       -26.6679
  26   2.0000      -0.913213       -24.8498
  27   2.0000      -0.905746       -24.6466
  28   2.0000      -0.869361       -23.6565
  29   2.0000      -0.850983       -23.1564
  30   2.0000      -0.843384       -22.9496
  31   2.0000      -0.817169       -22.2363
  32   2.0000      -0.780817       -21.2471
  33   2.0000      -0.770372       -20.9629
  34   2.0000      -0.708903       -19.2902
  35   2.0000      -0.696529       -18.9535
  36   2.0000      -0.686811       -18.6891
  37   2.0000      -0.666422       -18.1343
  38   2.0000      -0.641503       -17.4562
  39   2.0000      -0.615179       -16.7399
  40   2.0000      -0.597234       -16.2516
  41   2.0000      -0.575547       -15.6614
  42   2.0000      -0.565217       -15.3803
  43   2.0000      -0.545987       -14.8571
  44   2.0000      -0.540230       -14.7004
  45   2.0000      -0.524344       -14.2681
  46   2.0000      -0.517004       -14.0684
  47   2.0000      -0.514158       -13.9910
  48   2.0000      -0.507941       -13.8218
  49   2.0000      -0.496461       -13.5094
  50   2.0000      -0.486934       -13.2502
  51   2.0000      -0.479457       -13.0467
  52   2.0000      -0.469296       -12.7702
  53   2.0000      -0.464868       -12.6497
  54   2.0000      -0.462962       -12.5978
  55   2.0000      -0.448341       -12.2000
  56   2.0000      -0.444635       -12.0991
  57   2.0000      -0.436930       -11.8895
  58   2.0000      -0.429586       -11.6896
  59   2.0000      -0.427896       -11.6436
  60   2.0000      -0.420700       -11.4478
  61   2.0000      -0.407024       -11.0757
  62   2.0000      -0.401365       -10.9217
  63   2.0000      -0.338823        -9.2198
  64   2.0000      -0.332695        -9.0531
  65   2.0000      -0.323891        -8.8135
  66   2.0000      -0.303475        -8.2580
  67   0.0000       0.033703         0.9171
  68   0.0000       0.055580         1.5124
  69   0.0000       0.104331         2.8390
  70   0.0000       0.114897         3.1265
  71   0.0000       0.124973         3.4007

MULLIKEN ATOMIC CHARGES
-----------------------
   0 S :    0.092419
   1 C :   -0.123816
   2 C :   -0.087337
   3 C :    0.052921
   4 C :   -0.141694
   5 H :    0.004821
   6 C :    0.017137
   7 H :    0.027128
   8 H :    0.046226
   9 C :   -0.018723
  10 H :    0.025233
  11 H :    0.028266
  12 C :   -0.083452
  13 H :    0.025556
  14 H :    0.032865
  15 H :    0.038952
  16 S :    0.103923
  17 C :   -0.056247
  18 C :   -0.043391
  19 C :   -0.001609
  20 C :   -0.203149
  21 H :    0.013377
  22 C :    0.097393
  23 H :    0.028889
  24 H :    0.020269
  25 C :   -0.099944
  26 H :    0.040909
  27 H :    0.020794
  28 C :   -0.062408
  29 H :    0.025909
  30 H :    0.054189
  31 H :    0.024189
  32 H :    0.065052
  33 H :    0.035353
Sum of atomic charges:   -0.0000000

LOEWDIN ATOMIC CHARGES
----------------------
   0 S :    0.393001
   1 C :   -0.193640
   2 C :   -0.061160
   3 C :   -0.058288
   4 C :   -0.195463
   5 H :    0.027621
   6 C :   -0.037693
   7 H :    0.033020
   8 H :    0.040440
   9 C :   -0.037969
  10 H :    0.017791
  11 H :    0.032703
  12 C :   -0.069584
  13 H :    0.013888
  14 H :    0.029547
  15 H :    0.029437
  16 S :    0.378801
  17 C :   -0.164632
  18 C :   -0.066228
  19 C :   -0.053482
  20 C :   -0.185917
  21 H :    0.030207
  22 C :   -0.029881
  23 H :    0.035557
  24 H :    0.024278
  25 C :   -0.048522
  26 H :    0.033290
  27 H :    0.019733
  28 C :   -0.080406
  29 H :    0.029154
  30 H :    0.033990
  31 H :    0.025466
  32 H :    0.033853
  33 H :    0.021087

  Mayer bond orders larger than 0.100000
B(  0-S ,  1-C ) :   1.1355 B(  0-S ,  4-C ) :   1.1400 B(  1-C ,  2-C ) :   1.6028
B(  1-C , 32-H ) :   0.9656 B(  2-C ,  3-C ) :   1.2310 B(  2-C ,  6-C ) :   1.0210
B(  3-C ,  4-C ) :   1.5943 B(  3-C ,  5-H ) :   0.9981 B(  4-C , 20-C ) :   1.0042
B(  6-C ,  7-H ) :   0.9407 B(  6-C ,  8-H ) :   0.9504 B(  6-C ,  9-C ) :   1.0633
B(  9-C , 10-H ) :   0.9588 B(  9-C , 11-H ) :   0.9564 B(  9-C , 12-C ) :   1.0763
B( 12-C , 13-H ) :   0.9755 B( 12-C , 14-H ) :   0.9745 B( 12-C , 15-H ) :   0.9735
B( 16-S , 17-C ) :   1.1282 B( 16-S , 20-C ) :   1.1332 B( 17-C , 18-C ) :   1.6450
B( 17-C , 33-H ) :   0.9690 B( 18-C , 19-C ) :   1.2354 B( 18-C , 21-H ) :   0.9846
B( 19-C , 20-C ) :   1.6169 B( 19-C , 22-C ) :   1.0353 B( 22-C , 23-H ) :   0.9382
B( 22-C , 24-H ) :   0.9257 B( 22-C , 25-C ) :   1.0574 B( 25-C , 26-H ) :   0.9510
B( 25-C , 27-H ) :   0.9570 B( 25-C , 28-C ) :   1.0928 B( 28-C , 29-H ) :   0.9673
B( 28-C , 30-H ) :   0.9735 B( 28-C , 31-H ) :   0.9701

Dispersion correction           -0.015064340
FINAL SINGLE POINT ENERGY     -1339.864754289244

DIPOLE MOMENT
-------------
                                X             Y             Z
Electronic contribution:    -10.14993     -19.66394     -17.82666
Nuclear contribution   :     10.13278      20.35378      18.25073
                        -----------------------------------------
Total Dipole Moment    :     -0.01715       0.68984       0.42407
                        -----------------------------------------
Magnitude (a.u.)       :      0.80995
Magnitude (Debye)      :      2.05872

Rotational constants in cm-1:     0.020547     0.008566     0.007095
Rotational constants in MHz :   615.979536   256.807512   212.703762

                             ****ORCA TERMINATED NORMALLY****
TOTAL RUN TIME: 0 days 0 hours 0 minutes 22 seconds 101 msec
