                         Program Version 4.2.1 -  RELEASE  -
|  1> ! wB97X-D3 SP def2-SVP
|  2> %pal
|  3> nprocs 24
|  4> end
|  5>
|  6> * xyz 0 1
|  7> S 	 -102.291 	 23.9281 	 -117.693
|  8> C 	 -102.87 	 22.2878 	 -118.122
|  9> C 	 -102.908 	 22.0881 	 -119.502
| 10> C 	 -102.191 	 23.1201 	 -120.184
| 11> C 	 -101.799 	 24.2075 	 -119.392
| 12> H 	 -101.98 	 23.1877 	 -121.228
| 13> C 	 -103.423 	 20.8117 	 -120.181
| 14> H 	 -104.018 	 20.0962 	 -119.525
| 15> H 	 -102.513 	 20.3298 	 -120.476
| 16> C 	 -104.286 	 21.1248 	 -121.44
| 17> H 	 -105.057 	 21.9141 	 -121.137
| 18> H 	 -103.735 	 21.6694 	 -122.251
| 19> C 	 -104.9 	 19.9389 	 -122.182
| 20> H 	 -104.208 	 19.1595 	 -122.368
| 21> H 	 -105.713 	 19.5431 	 -121.578
| 22> H 	 -105.279 	 20.1918 	 -123.168
| 23> S 	 -101.606 	 26.8958 	 -119.322
| 24> C 	 -100.253 	 27.644 	 -120.203
| 25> C 	 -99.4544 	 26.7254 	 -120.853
| 26> C 	 -99.8552 	 25.3706 	 -120.58
| 27> C 	 -101.009 	 25.3019 	 -119.725
| 28> H 	 -98.636 	 27.0839 	 -121.495
| 29> C 	 -99.054 	 24.1491 	 -121.14
| 30> H 	 -99.5129 	 23.2562 	 -120.727
| 31> H 	 -98.0471 	 24.2303 	 -120.683
| 32> C 	 -98.968 	 23.9557 	 -122.635
| 33> H 	 -98.4739 	 24.6863 	 -123.26
| 34> H 	 -100.032 	 24.1335 	 -122.986
| 35> C 	 -98.4947 	 22.5532 	 -123.084
| 36> H 	 -99.1199 	 21.8353 	 -122.566
| 37> H 	 -97.4247 	 22.4011 	 -122.854
| 38> H 	 -98.751 	 22.423 	 -124.165
| 39> H 	 -103.435 	 21.5943 	 -117.527
| 40> H 	 -100.117 	 28.7203 	 -120.368
| 41> *
| 42>
| 43>                          ****END OF INPUT****

CARTESIAN COORDINATES (ANGSTROEM)
---------------------------------
  S    -102.291000   23.928100  -117.693000
  C    -102.870000   22.287800  -118.122000
  C    -102.908000   22.088100  -119.502000
  C    -102.191000   23.120100  -120.184000
  C    -101.799000   24.207500  -119.392000
  H    -101.980000   23.187700  -121.228000
  C    -103.423000   20.811700  -120.181000
  H    -104.018000   20.096200  -119.525000
  H    -102.513000   20.329800  -120.476000
  C    -104.286000   21.124800  -121.440000
  H    -105.057000   21.914100  -121.137000
  H    -103.735000   21.669400  -122.251000
  C    -104.900000   19.938900  -122.182000
  H    -104.208000   19.159500  -122.368000
  H    -105.713000   19.543100  -121.578000
  H    -105.279000   20.191800  -123.168000
  S    -101.606000   26.895800  -119.322000
  C    -100.253000   27.644000  -120.203000
  C    -99.454400   26.725400  -120.853000
  C    -99.855200   25.370600  -120.580000
  C    -101.009000   25.301900  -119.725000
  H    -98.636000   27.083900  -121.495000
  C    -99.054000   24.149100  -121.140000
  H    -99.512900   23.256200  -120.727000
  H    -98.047100   24.230300  -120.683000
  C    -98.968000   23.955700  -122.635000
  H    -98.473900   24.686300  -123.260000
  H    -100.032000   24.133500  -122.986000
  C    -98.494700   22.553200  -123.084000
  H    -99.119900   21.835300  -122.566000
  H    -97.424700   22.401100  -122.854000
  H    -98.751000   22.423000  -124.165000
  H    -103.435000   21.594300  -117.527000
  H    -100.117000   28.720300  -120.368000

 Total Charge           Charge          ....    0
 Multiplicity           Mult            ....    1
 Number of Electrons    NEL             ....  134
 Basis Dimension        Dim             ....  322

ORBITAL ENERGIES
----------------

  NO   OCC          E(Eh)            E(eV)
   0   2.0000     -88.969958     -2420.9956
   1   2.0000     -88.966662     -2420.9059
   2   2.0000     -10.329723      -281.0861
   3   2.0000     -10.327889      -281.0361
   4   2.0000     -10.322000      -280.8759
   5   2.0000     -10.315940      -280.7110
   6   2.0000     -10.314372      -280.6683
   7   2.0000     -10.306979      -280.4672
   8   2.0000     -10.303934      -280.3843
   9   2.0000     -10.299267      -280.2573
  10   2.0000     -10.296972      -280.1948
  11   2.0000     -10.296535      -280.1830
  12   2.0000     -10.295425      -280.1528
  13   2.0000     -10.290021      -280.0057
  14   2.0000     -10.285886      -279.8932
  15   2.0000     -10.276835      -279.6469
  16   2.0000      -8.084152      -219.9810
  17   2.0000      -8.080079      -219.8701
  18   2.0000      -6.042703      -164.4303
  19   2.0000      -6.038769      -164.3233
  20   2.0000      -6.038749      -164.3227
  21   2.0000      -6.034873      -164.2172
  22   2.0000      -6.034861      -164.2169
  23   2.0000      -6.030630      -164.1018
  24   2.0000      -1.002532       -27.2803
  25   2.0000      -0.974595       -26.5201
  26   2.0000      -0.908905       -24.7326
  27   2.0000      -0.906536       -24.6681
  28   2.0000      -0.874498       -23.7963
  29   2.0000      -0.849245       -23.1091
  30   2.0000      -0.844388       -22.9770
  31   2.0000      -0.813182       -22.1278
  32   2.0000      -0.785043       -21.3621
  33   2.0000      -0.769466       -20.9382
  34   2.0000      -0.713003       -19.4018
  35   2.0000      -0.695794       -18.9335
  36   2.0000      -0.692147       -18.8343
  37   2.0000      -0.657039       -17.8789
  38   2.0000      -0.639108       -17.3910
  39   2.0000      -0.617905       -16.8141
  40   2.0000      -0.593121       -16.1396
  41   2.0000      -0.565828       -15.3970
  42   2.0000      -0.564337       -15.3564
  43   2.0000      -0.560434       -15.2502
  44   2.0000      -0.526012       -14.3135
  45   2.0000      -0.525269       -14.2933
  46   2.0000      -0.513467       -13.9722
  47   2.0000      -0.510361       -13.8876
  48   2.0000      -0.506042       -13.7701
  49   2.0000      -0.502728       -13.6799
  50   2.0000      -0.494394       -13.4531
  51   2.0000      -0.480442       -13.0735
  52   2.0000      -0.471279       -12.8242
  53   2.0000      -0.467367       -12.7177
  54   2.0000      -0.458100       -12.4655
  55   2.0000      -0.451804       -12.2942
  56   2.0000      -0.445714       -12.1285
  57   2.0000      -0.437772       -11.9124
  58   2.0000      -0.431897       -11.7525
  59   2.0000      -0.424069       -11.5395
  60   2.0000      -0.419622       -11.4185
  61   2.0000      -0.413085       -11.2406
  62   2.0000      -0.410508       -11.1705
  63   2.0000      -0.349867        -9.5204
  64   2.0000      -0.332143        -9.0381
  65   2.0000      -0.331372        -9.0171
  66   2.0000      -0.284793        -7.7496
  67   0.0000       0.020306         0.5526
  68   0.0000       0.064987         1.7684
  69   0.0000       0.102679         2.7940
  70   0.0000       0.116510         3.1704
  71   0.0000       0.123094         3.3496

MULLIKEN ATOMIC CHARGES
-----------------------
   0 S :    0.100481
   1 C :   -0.100923
   2 C :   -0.090342
   3 C :    0.026093
   4 C :   -0.155482
   5 H :    0.003530
   6 C :    0.074142
   7 H :    0.038126
   8 H :    0.037606
   9 C :   -0.154890
  10 H :    0.045636
  11 H :    0.033086
  12 C :   -0.011882
  13 H :    0.019531
  14 H :    0.030483
  15 H :    0.032165
  16 S :    0.111394
  17 C :   -0.098282
  18 C :   -0.038945
  19 C :   -0.049270
  20 C :   -0.141187
  21 H :    0.033999
  22 C :    0.087378
  23 H :    0.017192
  24 H :    0.039267
  25 C :   -0.108047
  26 H :    0.025150
  27 H :    0.023783
  28 C :   -0.050875
  29 H :    0.023737
  30 H :    0.049338
  31 H :    0.043940
  32 H :    0.039987
  33 H :    0.064081
Sum of atomic charges:   -0.0000000

LOEWDIN ATOMIC CHARGES
----------------------
   0 S :    0.372385
   1 C :   -0.187119
   2 C :   -0.058240
   3 C :   -0.057181
   4 C :   -0.181789
   5 H :    0.025805
   6 C :   -0.030283
   7 H :    0.037225
   8 H :    0.031462
   9 C :   -0.055096
  10 H :    0.032623
  11 H :    0.024827
  12 C :   -0.063790
  13 H :    0.020288
  14 H :    0.024633
  15 H :    0.029006
  16 S :    0.401828
  17 C :   -0.179619
  18 C :   -0.072398
  19 C :   -0.044682
  20 C :   -0.210556
  21 H :    0.039676
  22 C :   -0.033576
  23 H :    0.028815
  24 H :    0.034565
  25 C :   -0.054590
  26 H :    0.018910
  27 H :    0.027105
  28 C :   -0.063848
  29 H :    0.021147
  30 H :    0.029547
  31 H :    0.034385
  32 H :    0.024887
  33 H :    0.033647

  Mayer bond orders larger than 0.100000
B(  0-S ,  1-C ) :   1.1245 B(  0-S ,  4-C ) :   1.1191 B(  1-C ,  2-C ) :   1.6352
B(  1-C ,  4-C ) :   0.1050 B(  1-C , 32-H ) :   0.9615 B(  2-C ,  3-C ) :   1.2137
B(  2-C ,  6-C ) :   1.0224 B(  3-C ,  4-C ) :   1.5824 B(  3-C ,  5-H ) :   0.9946
B(  4-C , 20-C ) :   1.0902 B(  6-C ,  7-H ) :   0.9496 B(  6-C ,  8-H ) :   0.9353
B(  6-C ,  9-C ) :   1.0449 B(  9-C , 10-H ) :   0.9606 B(  9-C , 11-H ) :   0.9546
B(  9-C , 12-C ) :   1.0858 B( 12-C , 13-H ) :   0.9714 B( 12-C , 14-H ) :   0.9746
B( 12-C , 15-H ) :   0.9743 B( 16-S , 17-C ) :   1.1445 B( 16-S , 20-C ) :   1.1365
B( 17-C , 18-C ) :   1.6245 B( 17-C , 20-C ) :   0.1013 B( 17-C , 33-H ) :   0.9628
B( 18-C , 19-C ) :   1.2394 B( 18-C , 21-H ) :   0.9864 B( 19-C , 20-C ) :   1.5572
B( 19-C , 22-C ) :   1.0414 B( 22-C , 23-H ) :   0.9323 B( 22-C , 24-H ) :   0.9326
B( 22-C , 25-C ) :   1.0514 B( 25-C , 26-H ) :   0.9525 B( 25-C , 27-H ) :   0.9517
B( 25-C , 28-C ) :   1.0867 B( 28-C , 29-H ) :   0.9745 B( 28-C , 30-H ) :   0.9753
B( 28-C , 31-H ) :   0.9736

Dispersion correction           -0.014021343
FINAL SINGLE POINT ENERGY     -1339.873342939778

DIPOLE MOMENT
-------------
                                X             Y             Z
Electronic contribution:     -1.40002      22.59514      23.01528
Nuclear contribution   :      1.54456     -22.97529     -23.76033
                        -----------------------------------------
Total Dipole Moment    :      0.14454      -0.38016      -0.74505
                        -----------------------------------------
Magnitude (a.u.)       :      0.84883
Magnitude (Debye)      :      2.15754

Rotational constants in cm-1:     0.015966     0.009138     0.006670
Rotational constants in MHz :   478.656483   273.954777   199.951373

                             ****ORCA TERMINATED NORMALLY****
TOTAL RUN TIME: 0 days 0 hours 0 minutes 21 seconds 312 msec
