                         Program Version 4.2.1 -  RELEASE  -
|  1> ! wB97X-D3 SP def2-SVP
|  2> %pal
|  3> nprocs 24
|  4> end
|  5>
|  6> * xyz 0 1
|  7> S 	 -100.51 	 22.2401 	 -123.614
|  8> C 	 -100.575 	 23.911 	 -122.969
|  9> C 	 -100.42 	 23.8189 	 -121.621
| 10> C 	 -100.241 	 22.4923 	 -121.097
| 11> C 	 -100.321 	 21.5403 	 -122.078
| 12> H 	 -100.136 	 22.2103 	 -120.05
| 13> C 	 -100.557 	 25.0032 	 -120.611
| 14> H 	 -100.628 	 25.9987 	 -121.154
| 15> H 	 -99.6336 	 25.0462 	 -120.069
| 16> C 	 -101.74 	 24.9024 	 -119.593
| 17> H 	 -102.66 	 24.8539 	 -120.172
| 18> H 	 -101.612 	 24.0501 	 -118.901
| 19> C 	 -101.744 	 26.1314 	 -118.664
| 20> H 	 -101.322 	 27.033 	 -119.178
| 21> H 	 -102.828 	 26.3911 	 -118.444
| 22> H 	 -101.274 	 25.9939 	 -117.69
| 23> S 	 -99.3907 	 19.4999 	 -120.535
| 24> C 	 -99.5996 	 17.8406 	 -121.006
| 25> C 	 -99.9977 	 17.7438 	 -122.296
| 26> C 	 -100.389 	 19.0197 	 -122.864
| 27> C 	 -100.129 	 20.1022 	 -121.972
| 28> H 	 -100.223 	 16.7977 	 -122.742
| 29> C 	 -101.095 	 18.9248 	 -124.207
| 30> H 	 -100.979 	 17.9081 	 -124.638
| 31> H 	 -100.681 	 19.6793 	 -124.851
| 32> C 	 -102.601 	 19.1023 	 -124.149
| 33> H 	 -102.879 	 19.8652 	 -123.43
| 34> H 	 -102.935 	 18.2405 	 -123.662
| 35> C 	 -103.229 	 19.3576 	 -125.556
| 36> H 	 -102.954 	 18.5161 	 -126.145
| 37> H 	 -102.98 	 20.3512 	 -125.879
| 38> H 	 -104.256 	 19.2961 	 -125.358
| 39> H 	 -100.531 	 24.8412 	 -123.508
| 40> H 	 -99.4719 	 17.0143 	 -120.25
| 41> *
| 42>
| 43>                          ****END OF INPUT****

CARTESIAN COORDINATES (ANGSTROEM)
---------------------------------
  S    -100.510000   22.240100  -123.614000
  C    -100.575000   23.911000  -122.969000
  C    -100.420000   23.818900  -121.621000
  C    -100.241000   22.492300  -121.097000
  C    -100.321000   21.540300  -122.078000
  H    -100.136000   22.210300  -120.050000
  C    -100.557000   25.003200  -120.611000
  H    -100.628000   25.998700  -121.154000
  H    -99.633600   25.046200  -120.069000
  C    -101.740000   24.902400  -119.593000
  H    -102.660000   24.853900  -120.172000
  H    -101.612000   24.050100  -118.901000
  C    -101.744000   26.131400  -118.664000
  H    -101.322000   27.033000  -119.178000
  H    -102.828000   26.391100  -118.444000
  H    -101.274000   25.993900  -117.690000
  S    -99.390700   19.499900  -120.535000
  C    -99.599600   17.840600  -121.006000
  C    -99.997700   17.743800  -122.296000
  C    -100.389000   19.019700  -122.864000
  C    -100.129000   20.102200  -121.972000
  H    -100.223000   16.797700  -122.742000
  C    -101.095000   18.924800  -124.207000
  H    -100.979000   17.908100  -124.638000
  H    -100.681000   19.679300  -124.851000
  C    -102.601000   19.102300  -124.149000
  H    -102.879000   19.865200  -123.430000
  H    -102.935000   18.240500  -123.662000
  C    -103.229000   19.357600  -125.556000
  H    -102.954000   18.516100  -126.145000
  H    -102.980000   20.351200  -125.879000
  H    -104.256000   19.296100  -125.358000
  H    -100.531000   24.841200  -123.508000
  H    -99.471900   17.014300  -120.250000

 Total Charge           Charge          ....    0
 Multiplicity           Mult            ....    1
 Number of Electrons    NEL             ....  134
 Basis Dimension        Dim             ....  322

ORBITAL ENERGIES
----------------

  NO   OCC          E(Eh)            E(eV)
   0   2.0000     -88.964671     -2420.8518
   1   2.0000     -88.964474     -2420.8464
   2   2.0000     -10.331625      -281.1378
   3   2.0000     -10.329439      -281.0783
   4   2.0000     -10.319703      -280.8134
   5   2.0000     -10.313797      -280.6527
   6   2.0000     -10.309057      -280.5237
   7   2.0000     -10.302681      -280.3502
   8   2.0000     -10.297418      -280.2070
   9   2.0000     -10.292056      -280.0611
  10   2.0000     -10.291720      -280.0520
  11   2.0000     -10.291226      -280.0385
  12   2.0000     -10.287263      -279.9307
  13   2.0000     -10.284732      -279.8618
  14   2.0000     -10.273086      -279.5449
  15   2.0000     -10.269894      -279.4580
  16   2.0000      -8.080235      -219.8744
  17   2.0000      -8.079316      -219.8494
  18   2.0000      -6.038778      -164.3235
  19   2.0000      -6.038029      -164.3031
  20   2.0000      -6.034591      -164.2096
  21   2.0000      -6.033767      -164.1871
  22   2.0000      -6.030976      -164.1112
  23   2.0000      -6.029898      -164.0819
  24   2.0000      -1.012353       -27.5475
  25   2.0000      -0.987731       -26.8775
  26   2.0000      -0.911421       -24.8010
  27   2.0000      -0.905679       -24.6448
  28   2.0000      -0.873871       -23.7792
  29   2.0000      -0.852581       -23.1999
  30   2.0000      -0.839817       -22.8526
  31   2.0000      -0.815618       -22.1941
  32   2.0000      -0.782057       -21.2809
  33   2.0000      -0.769338       -20.9347
  34   2.0000      -0.708982       -19.2924
  35   2.0000      -0.694907       -18.9094
  36   2.0000      -0.688963       -18.7476
  37   2.0000      -0.668584       -18.1931
  38   2.0000      -0.633465       -17.2375
  39   2.0000      -0.618497       -16.8302
  40   2.0000      -0.599510       -16.3135
  41   2.0000      -0.572090       -15.5674
  42   2.0000      -0.567404       -15.4399
  43   2.0000      -0.564482       -15.3603
  44   2.0000      -0.523153       -14.2357
  45   2.0000      -0.521794       -14.1987
  46   2.0000      -0.514965       -14.0129
  47   2.0000      -0.512301       -13.9404
  48   2.0000      -0.507583       -13.8120
  49   2.0000      -0.501830       -13.6555
  50   2.0000      -0.490313       -13.3421
  51   2.0000      -0.486574       -13.2404
  52   2.0000      -0.477526       -12.9942
  53   2.0000      -0.463809       -12.6209
  54   2.0000      -0.460376       -12.5275
  55   2.0000      -0.449989       -12.2448
  56   2.0000      -0.438874       -11.9424
  57   2.0000      -0.433644       -11.8001
  58   2.0000      -0.429733       -11.6936
  59   2.0000      -0.424562       -11.5529
  60   2.0000      -0.418251       -11.3812
  61   2.0000      -0.413630       -11.2554
  62   2.0000      -0.408730       -11.1221
  63   2.0000      -0.363660        -9.8957
  64   2.0000      -0.331968        -9.0333
  65   2.0000      -0.327858        -8.9215
  66   2.0000      -0.285036        -7.7562
  67   0.0000       0.019608         0.5336
  68   0.0000       0.090586         2.4650
  69   0.0000       0.107176         2.9164
  70   0.0000       0.128158         3.4874
  71   0.0000       0.128592         3.4992

MULLIKEN ATOMIC CHARGES
-----------------------
   0 S :    0.079027
   1 C :   -0.113766
   2 C :   -0.064566
   3 C :   -0.030473
   4 C :   -0.084905
   5 H :    0.021886
   6 C :    0.030984
   7 H :    0.024703
   8 H :    0.027442
   9 C :   -0.066696
  10 H :    0.042828
  11 H :    0.039887
  12 C :   -0.086597
  13 H :    0.034578
  14 H :    0.037880
  15 H :    0.043825
  16 S :    0.088857
  17 C :   -0.113158
  18 C :   -0.005867
  19 C :   -0.084630
  20 C :   -0.111517
  21 H :    0.015012
  22 C :    0.052545
  23 H :    0.023368
  24 H :    0.025463
  25 C :   -0.083943
  26 H :    0.023376
  27 H :   -0.002073
  28 C :    0.019781
  29 H :    0.025912
  30 H :    0.041562
  31 H :    0.021156
  32 H :    0.046845
  33 H :    0.081271
Sum of atomic charges:   -0.0000000

LOEWDIN ATOMIC CHARGES
----------------------
   0 S :    0.413292
   1 C :   -0.192687
   2 C :   -0.057830
   3 C :   -0.083128
   4 C :   -0.193674
   5 H :    0.028786
   6 C :   -0.033016
   7 H :    0.030075
   8 H :    0.025486
   9 C :   -0.040257
  10 H :    0.027026
  11 H :    0.028702
  12 C :   -0.075355
  13 H :    0.026289
  14 H :    0.033779
  15 H :    0.025130
  16 S :    0.420918
  17 C :   -0.191138
  18 C :   -0.071496
  19 C :   -0.051709
  20 C :   -0.207444
  21 H :    0.029044
  22 C :   -0.036713
  23 H :    0.033393
  24 H :    0.017227
  25 C :   -0.037138
  26 H :    0.019779
  27 H :    0.012042
  28 C :   -0.046837
  29 H :    0.022771
  30 H :    0.027681
  31 H :    0.022665
  32 H :    0.032384
  33 H :    0.041955

  Mayer bond orders larger than 0.100000
B(  0-S ,  1-C ) :   1.0985 B(  0-S ,  4-C ) :   1.1594 B(  1-C ,  2-C ) :   1.6501
B(  1-C , 32-H ) :   0.9704 B(  2-C ,  3-C ) :   1.2222 B(  2-C ,  6-C ) :   1.0159
B(  3-C ,  4-C ) :   1.5635 B(  3-C ,  5-H ) :   0.9874 B(  4-C , 20-C ) :   1.0809
B(  6-C ,  7-H ) :   0.9482 B(  6-C ,  8-H ) :   0.9396 B(  6-C ,  9-C ) :   1.0664
B(  9-C , 10-H ) :   0.9630 B(  9-C , 11-H ) :   0.9542 B(  9-C , 12-C ) :   1.0690
B( 12-C , 13-H ) :   0.9751 B( 12-C , 14-H ) :   0.9766 B( 12-C , 15-H ) :   0.9786
B( 16-S , 17-C ) :   1.1592 B( 16-S , 20-C ) :   1.1457 B( 17-C , 18-C ) :   1.6014
B( 17-C , 33-H ) :   0.9601 B( 18-C , 19-C ) :   1.2607 B( 18-C , 21-H ) :   0.9897
B( 19-C , 20-C ) :   1.5371 B( 19-C , 22-C ) :   1.0494 B( 22-C , 23-H ) :   0.9342
B( 22-C , 24-H ) :   0.9308 B( 22-C , 25-C ) :   1.0597 B( 25-C , 26-H ) :   0.9577
B( 25-C , 27-H ) :   0.9512 B( 25-C , 28-C ) :   1.0720 B( 28-C , 29-H ) :   0.9740
B( 28-C , 30-H ) :   0.9758 B( 28-C , 31-H ) :   0.9723

Dispersion correction           -0.013816185
FINAL SINGLE POINT ENERGY     -1339.875564059964

DIPOLE MOMENT
-------------
                                X             Y             Z
Electronic contribution:     14.06668      -9.83846      -0.57508
Nuclear contribution   :    -14.37303       9.81552       0.77134
                        -----------------------------------------
Total Dipole Moment    :     -0.30635      -0.02295       0.19626
                        -----------------------------------------
Magnitude (a.u.)       :      0.36455
Magnitude (Debye)      :      0.92661

Rotational constants in cm-1:     0.019932     0.008026     0.006421
Rotational constants in MHz :   597.543285   240.618058   192.507728

                             ****ORCA TERMINATED NORMALLY****
TOTAL RUN TIME: 0 days 0 hours 0 minutes 22 seconds 193 msec
