                         Program Version 4.2.1 -  RELEASE  -
|  1> ! wB97X-D3 SP def2-SVP
|  2> %pal
|  3> nprocs 24
|  4> end
|  5>
|  6> * xyz 0 1
|  7> S 	 -86.5784 	 3.56326 	 -112.363
|  8> C 	 -88.0336 	 3.57828 	 -111.407
|  9> C 	 -89.1788 	 3.58802 	 -112.259
| 10> C 	 -88.8719 	 3.50283 	 -113.617
| 11> C 	 -87.5156 	 3.47832 	 -113.852
| 12> H 	 -89.603 	 3.29965 	 -114.486
| 13> C 	 -90.583 	 3.59723 	 -111.694
| 14> H 	 -91.0842 	 4.35349 	 -112.383
| 15> H 	 -90.5659 	 4.02112 	 -110.722
| 16> C 	 -91.3462 	 2.30813 	 -111.588
| 17> H 	 -92.0562 	 2.50444 	 -110.855
| 18> H 	 -91.8021 	 2.04182 	 -112.537
| 19> C 	 -90.4097 	 1.1146 	 -111.067
| 20> H 	 -89.9793 	 1.32259 	 -110.055
| 21> H 	 -90.9746 	 0.209998 	 -110.897
| 22> H 	 -89.5579 	 0.880779 	 -111.753
| 23> S 	 -87.3498 	 2.0485 	 -116.267
| 24> C 	 -86.4057 	 2.71477 	 -117.568
| 25> C 	 -85.6816 	 3.80999 	 -117.16
| 26> C 	 -85.9735 	 4.20015 	 -115.841
| 27> C 	 -86.8188 	 3.35209 	 -115.119
| 28> H 	 -84.9709 	 4.20501 	 -117.882
| 29> C 	 -85.4391 	 5.44612 	 -115.237
| 30> H 	 -84.3435 	 5.35364 	 -115.132
| 31> H 	 -85.695 	 5.53879 	 -114.15
| 32> C 	 -85.9173 	 6.77175 	 -115.819
| 33> H 	 -85.7085 	 7.53363 	 -115.064
| 34> H 	 -86.8841 	 6.72313 	 -115.952
| 35> C 	 -85.2268 	 7.25353 	 -117.128
| 36> H 	 -84.1473 	 7.48177 	 -116.939
| 37> H 	 -85.4233 	 8.30179 	 -117.334
| 38> H 	 -85.4322 	 6.65411 	 -118.049
| 39> H 	 -88.1281 	 3.71508 	 -110.368
| 40> H 	 -86.3049 	 2.34768 	 -118.557
| 41> *
| 42>
| 43>                          ****END OF INPUT****

CARTESIAN COORDINATES (ANGSTROEM)
---------------------------------
  S    -86.578400    3.563260  -112.363000
  C    -88.033600    3.578280  -111.407000
  C    -89.178800    3.588020  -112.259000
  C    -88.871900    3.502830  -113.617000
  C    -87.515600    3.478320  -113.852000
  H    -89.603000    3.299650  -114.486000
  C    -90.583000    3.597230  -111.694000
  H    -91.084200    4.353490  -112.383000
  H    -90.565900    4.021120  -110.722000
  C    -91.346200    2.308130  -111.588000
  H    -92.056200    2.504440  -110.855000
  H    -91.802100    2.041820  -112.537000
  C    -90.409700    1.114600  -111.067000
  H    -89.979300    1.322590  -110.055000
  H    -90.974600    0.209998  -110.897000
  H    -89.557900    0.880779  -111.753000
  S    -87.349800    2.048500  -116.267000
  C    -86.405700    2.714770  -117.568000
  C    -85.681600    3.809990  -117.160000
  C    -85.973500    4.200150  -115.841000
  C    -86.818800    3.352090  -115.119000
  H    -84.970900    4.205010  -117.882000
  C    -85.439100    5.446120  -115.237000
  H    -84.343500    5.353640  -115.132000
  H    -85.695000    5.538790  -114.150000
  C    -85.917300    6.771750  -115.819000
  H    -85.708500    7.533630  -115.064000
  H    -86.884100    6.723130  -115.952000
  C    -85.226800    7.253530  -117.128000
  H    -84.147300    7.481770  -116.939000
  H    -85.423300    8.301790  -117.334000
  H    -85.432200    6.654110  -118.049000
  H    -88.128100    3.715080  -110.368000
  H    -86.304900    2.347680  -118.557000

 Total Charge           Charge          ....    0
 Multiplicity           Mult            ....    1
 Number of Electrons    NEL             ....  134
 Basis Dimension        Dim             ....  322

ORBITAL ENERGIES
----------------

  NO   OCC          E(Eh)            E(eV)
   0   2.0000     -88.970692     -2421.0156
   1   2.0000     -88.964267     -2420.8408
   2   2.0000     -10.330866      -281.1171
   3   2.0000     -10.329092      -281.0689
   4   2.0000     -10.315518      -280.6995
   5   2.0000     -10.313363      -280.6409
   6   2.0000     -10.302128      -280.3352
   7   2.0000     -10.300304      -280.2855
   8   2.0000     -10.299256      -280.2570
   9   2.0000     -10.290893      -280.0294
  10   2.0000     -10.288626      -279.9677
  11   2.0000     -10.284793      -279.8635
  12   2.0000     -10.284745      -279.8621
  13   2.0000     -10.281831      -279.7829
  14   2.0000     -10.279880      -279.7298
  15   2.0000     -10.274858      -279.5931
  16   2.0000      -8.084659      -219.9948
  17   2.0000      -8.078112      -219.8166
  18   2.0000      -6.043089      -164.4408
  19   2.0000      -6.039167      -164.3341
  20   2.0000      -6.036643      -164.2654
  21   2.0000      -6.035646      -164.2383
  22   2.0000      -6.032696      -164.1580
  23   2.0000      -6.028952      -164.0561
  24   2.0000      -1.004659       -27.3382
  25   2.0000      -0.983327       -26.7577
  26   2.0000      -0.912165       -24.8213
  27   2.0000      -0.907664       -24.6988
  28   2.0000      -0.867442       -23.6043
  29   2.0000      -0.849297       -23.1105
  30   2.0000      -0.843342       -22.9485
  31   2.0000      -0.811954       -22.0944
  32   2.0000      -0.782421       -21.2908
  33   2.0000      -0.771748       -21.0003
  34   2.0000      -0.714694       -19.4478
  35   2.0000      -0.702575       -19.1180
  36   2.0000      -0.693911       -18.8823
  37   2.0000      -0.661887       -18.0108
  38   2.0000      -0.631390       -17.1810
  39   2.0000      -0.620400       -16.8820
  40   2.0000      -0.600605       -16.3433
  41   2.0000      -0.571002       -15.5378
  42   2.0000      -0.550264       -14.9734
  43   2.0000      -0.546703       -14.8766
  44   2.0000      -0.544642       -14.8205
  45   2.0000      -0.537346       -14.6219
  46   2.0000      -0.514886       -14.0108
  47   2.0000      -0.507956       -13.8222
  48   2.0000      -0.505631       -13.7589
  49   2.0000      -0.492845       -13.4110
  50   2.0000      -0.484757       -13.1909
  51   2.0000      -0.481850       -13.1118
  52   2.0000      -0.469421       -12.7736
  53   2.0000      -0.466914       -12.7054
  54   2.0000      -0.459111       -12.4931
  55   2.0000      -0.447187       -12.1686
  56   2.0000      -0.440325       -11.9818
  57   2.0000      -0.439120       -11.9491
  58   2.0000      -0.429127       -11.6771
  59   2.0000      -0.422478       -11.4962
  60   2.0000      -0.416357       -11.3296
  61   2.0000      -0.410997       -11.1838
  62   2.0000      -0.405128       -11.0241
  63   2.0000      -0.344248        -9.3675
  64   2.0000      -0.332639        -9.0516
  65   2.0000      -0.330069        -8.9816
  66   2.0000      -0.291009        -7.9188
  67   0.0000       0.026798         0.7292
  68   0.0000       0.065187         1.7738
  69   0.0000       0.110093         2.9958
  70   0.0000       0.114851         3.1253
  71   0.0000       0.132541         3.6066

MULLIKEN ATOMIC CHARGES
-----------------------
   0 S :    0.125819
   1 C :   -0.091290
   2 C :   -0.129137
   3 C :    0.013722
   4 C :   -0.178440
   5 H :    0.051857
   6 C :    0.046029
   7 H :    0.040054
   8 H :    0.006118
   9 C :   -0.006236
  10 H :    0.020538
  11 H :    0.032536
  12 C :   -0.097727
  13 H :    0.025492
  14 H :    0.031429
  15 H :    0.062140
  16 S :    0.090241
  17 C :   -0.078262
  18 C :   -0.040958
  19 C :   -0.006957
  20 C :   -0.137578
  21 H :    0.027787
  22 C :    0.026187
  23 H :    0.031463
  24 H :    0.014481
  25 C :    0.011202
  26 H :    0.025428
  27 H :   -0.004445
  28 C :   -0.077228
  29 H :    0.021208
  30 H :    0.017470
  31 H :    0.052308
  32 H :    0.031031
  33 H :    0.043718
Sum of atomic charges:   -0.0000000

LOEWDIN ATOMIC CHARGES
----------------------
   0 S :    0.424741
   1 C :   -0.199884
   2 C :   -0.063128
   3 C :   -0.074181
   4 C :   -0.191211
   5 H :    0.050454
   6 C :   -0.037053
   7 H :    0.040436
   8 H :    0.023026
   9 C :   -0.028519
  10 H :    0.019880
  11 H :    0.023607
  12 C :   -0.071922
  13 H :    0.025289
  14 H :    0.021256
  15 H :    0.033600
  16 S :    0.382150
  17 C :   -0.174645
  18 C :   -0.077602
  19 C :   -0.053036
  20 C :   -0.186670
  21 H :    0.036623
  22 C :   -0.043389
  23 H :    0.033652
  24 H :    0.027099
  25 C :   -0.020432
  26 H :    0.032097
  27 H :    0.003720
  28 C :   -0.083074
  29 H :    0.029952
  30 H :    0.025548
  31 H :    0.028126
  32 H :    0.017945
  33 H :    0.025546

  Mayer bond orders larger than 0.100000
B(  0-S ,  1-C ) :   1.1502 B(  0-S ,  4-C ) :   1.1651 B(  1-C ,  2-C ) :   1.5660
B(  1-C ,  4-C ) :   0.1108 B(  1-C , 32-H ) :   0.9725 B(  2-C ,  3-C ) :   1.2732
B(  2-C ,  6-C ) :   1.0304 B(  3-C ,  4-C ) :   1.5624 B(  3-C ,  5-H ) :   0.9754
B(  4-C , 20-C ) :   1.0207 B(  6-C ,  7-H ) :   0.9405 B(  6-C ,  8-H ) :   0.9371
B(  6-C ,  9-C ) :   1.0719 B(  9-C , 10-H ) :   0.9557 B(  9-C , 11-H ) :   0.9559
B(  9-C , 12-C ) :   1.0763 B( 12-C , 13-H ) :   0.9757 B( 12-C , 14-H ) :   0.9768
B( 12-C , 15-H ) :   0.9716 B( 16-S , 17-C ) :   1.1683 B( 16-S , 20-C ) :   1.1098
B( 17-C , 18-C ) :   1.6062 B( 17-C , 33-H ) :   0.9655 B( 18-C , 19-C ) :   1.2390
B( 18-C , 21-H ) :   0.9904 B( 19-C , 20-C ) :   1.5854 B( 19-C , 22-C ) :   1.0563
B( 22-C , 23-H ) :   0.9331 B( 22-C , 24-H ) :   0.9250 B( 22-C , 25-C ) :   1.0704
B( 25-C , 26-H ) :   0.9529 B( 25-C , 27-H ) :   0.9515 B( 25-C , 28-C ) :   1.0867
B( 28-C , 29-H ) :   0.9697 B( 28-C , 30-H ) :   0.9672 B( 28-C , 31-H ) :   0.9729

Dispersion correction           -0.014875934
FINAL SINGLE POINT ENERGY     -1339.859878711923

DIPOLE MOMENT
-------------
                                X             Y             Z
Electronic contribution:      6.84977      -9.81061      -3.09759
Nuclear contribution   :     -7.07014      10.15835       3.11404
                        -----------------------------------------
Total Dipole Moment    :     -0.22037       0.34774       0.01645
                        -----------------------------------------
Magnitude (a.u.)       :      0.41202
Magnitude (Debye)      :      1.04726

Rotational constants in cm-1:     0.023666     0.007704     0.006695
Rotational constants in MHz :   709.483280   230.970936   200.722430

                             ****ORCA TERMINATED NORMALLY****
TOTAL RUN TIME: 0 days 0 hours 0 minutes 21 seconds 701 msec
