                         Program Version 4.2.1 -  RELEASE  -
|  1> ! wB97X-D3 SP def2-SVP
|  2> %pal
|  3> nprocs 24
|  4> end
|  5>
|  6> * xyz 0 1
|  7> S 	 -89.1153 	 -32.8314 	 -60.418
|  8> C 	 -87.8544 	 -33.9951 	 -60.6404
|  9> C 	 -87.2275 	 -34.3963 	 -59.4147
| 10> C 	 -87.7376 	 -33.5963 	 -58.3718
| 11> C 	 -88.7872 	 -32.7416 	 -58.7151
| 12> H 	 -87.3347 	 -33.532 	 -57.3872
| 13> C 	 -86.1659 	 -35.4241 	 -59.2024
| 14> H 	 -85.2107 	 -34.8659 	 -58.9322
| 15> H 	 -85.9521 	 -35.8526 	 -60.1925
| 16> C 	 -86.5003 	 -36.4773 	 -58.1605
| 17> H 	 -86.8943 	 -36.118 	 -57.2514
| 18> H 	 -87.3018 	 -36.9909 	 -58.5268
| 19> C 	 -85.2991 	 -37.3243 	 -57.8755
| 20> H 	 -85.4224 	 -37.909 	 -57.0117
| 21> H 	 -85.0499 	 -38.0581 	 -58.6761
| 22> H 	 -84.3965 	 -36.8007 	 -57.6642
| 23> S 	 -89.3508 	 -30.0271 	 -58.4495
| 24> C 	 -90.2006 	 -29.5092 	 -57.0326
| 25> C 	 -90.3808 	 -30.5336 	 -56.1694
| 26> C 	 -89.9183 	 -31.821 	 -56.668
| 27> C 	 -89.3445 	 -31.6909 	 -57.9005
| 28> H 	 -90.8495 	 -30.2863 	 -55.2264
| 29> C 	 -90.0325 	 -33.063 	 -55.8132
| 30> H 	 -90.5036 	 -32.7644 	 -54.8458
| 31> H 	 -89.0578 	 -33.3849 	 -55.6861
| 32> C 	 -90.9773 	 -34.1346 	 -56.4613
| 33> H 	 -90.4591 	 -34.5643 	 -57.3841
| 34> H 	 -91.8253 	 -33.6712 	 -56.8736
| 35> C 	 -91.3119 	 -35.2982 	 -55.4357
| 36> H 	 -91.0786 	 -34.9429 	 -54.426
| 37> H 	 -90.7479 	 -36.2199 	 -55.536
| 38> H 	 -92.2988 	 -35.6337 	 -55.4983
| 39> H 	 -87.5733 	 -34.4597 	 -61.6017
| 40> H 	 -90.4868 	 -28.4854 	 -56.8044
| 41> *
| 42>
| 43>                          ****END OF INPUT****

CARTESIAN COORDINATES (ANGSTROEM)
---------------------------------
  S    -89.115300  -32.831400  -60.418000
  C    -87.854400  -33.995100  -60.640400
  C    -87.227500  -34.396300  -59.414700
  C    -87.737600  -33.596300  -58.371800
  C    -88.787200  -32.741600  -58.715100
  H    -87.334700  -33.532000  -57.387200
  C    -86.165900  -35.424100  -59.202400
  H    -85.210700  -34.865900  -58.932200
  H    -85.952100  -35.852600  -60.192500
  C    -86.500300  -36.477300  -58.160500
  H    -86.894300  -36.118000  -57.251400
  H    -87.301800  -36.990900  -58.526800
  C    -85.299100  -37.324300  -57.875500
  H    -85.422400  -37.909000  -57.011700
  H    -85.049900  -38.058100  -58.676100
  H    -84.396500  -36.800700  -57.664200
  S    -89.350800  -30.027100  -58.449500
  C    -90.200600  -29.509200  -57.032600
  C    -90.380800  -30.533600  -56.169400
  C    -89.918300  -31.821000  -56.668000
  C    -89.344500  -31.690900  -57.900500
  H    -90.849500  -30.286300  -55.226400
  C    -90.032500  -33.063000  -55.813200
  H    -90.503600  -32.764400  -54.845800
  H    -89.057800  -33.384900  -55.686100
  C    -90.977300  -34.134600  -56.461300
  H    -90.459100  -34.564300  -57.384100
  H    -91.825300  -33.671200  -56.873600
  C    -91.311900  -35.298200  -55.435700
  H    -91.078600  -34.942900  -54.426000
  H    -90.747900  -36.219900  -55.536000
  H    -92.298800  -35.633700  -55.498300
  H    -87.573300  -34.459700  -61.601700
  H    -90.486800  -28.485400  -56.804400

 Total Charge           Charge          ....    0
 Multiplicity           Mult            ....    1
 Number of Electrons    NEL             ....  134
 Basis Dimension        Dim             ....  322

ORBITAL ENERGIES
----------------

  NO   OCC          E(Eh)            E(eV)
   0   2.0000     -88.969946     -2420.9953
   1   2.0000     -88.962248     -2420.7858
   2   2.0000     -10.324584      -280.9462
   3   2.0000     -10.320031      -280.8223
   4   2.0000     -10.318198      -280.7724
   5   2.0000     -10.310938      -280.5749
   6   2.0000     -10.302047      -280.3329
   7   2.0000     -10.298806      -280.2448
   8   2.0000     -10.296388      -280.1790
   9   2.0000     -10.289913      -280.0028
  10   2.0000     -10.289806      -279.9999
  11   2.0000     -10.288679      -279.9692
  12   2.0000     -10.287027      -279.9242
  13   2.0000     -10.275947      -279.6227
  14   2.0000     -10.273207      -279.5482
  15   2.0000     -10.271737      -279.5082
  16   2.0000      -8.084782      -219.9981
  17   2.0000      -8.077406      -219.7974
  18   2.0000      -6.043080      -164.4406
  19   2.0000      -6.039198      -164.3349
  20   2.0000      -6.036003      -164.2480
  21   2.0000      -6.035846      -164.2437
  22   2.0000      -6.031885      -164.1359
  23   2.0000      -6.028020      -164.0308
  24   2.0000      -1.008741       -27.4492
  25   2.0000      -0.984733       -26.7959
  26   2.0000      -0.921386       -25.0722
  27   2.0000      -0.902568       -24.5601
  28   2.0000      -0.871108       -23.7040
  29   2.0000      -0.854979       -23.2652
  30   2.0000      -0.842399       -22.9229
  31   2.0000      -0.813709       -22.1421
  32   2.0000      -0.783557       -21.3217
  33   2.0000      -0.770783       -20.9741
  34   2.0000      -0.719077       -19.5671
  35   2.0000      -0.707004       -19.2386
  36   2.0000      -0.691216       -18.8089
  37   2.0000      -0.659651       -17.9500
  38   2.0000      -0.640210       -17.4210
  39   2.0000      -0.623316       -16.9613
  40   2.0000      -0.592685       -16.1278
  41   2.0000      -0.571394       -15.5484
  42   2.0000      -0.564728       -15.3670
  43   2.0000      -0.557213       -15.1625
  44   2.0000      -0.530083       -14.4243
  45   2.0000      -0.525690       -14.3048
  46   2.0000      -0.517136       -14.0720
  47   2.0000      -0.509404       -13.8616
  48   2.0000      -0.500494       -13.6191
  49   2.0000      -0.497157       -13.5283
  50   2.0000      -0.492068       -13.3899
  51   2.0000      -0.483392       -13.1538
  52   2.0000      -0.470952       -12.8153
  53   2.0000      -0.463416       -12.6102
  54   2.0000      -0.458158       -12.4671
  55   2.0000      -0.453730       -12.3466
  56   2.0000      -0.445103       -12.1119
  57   2.0000      -0.443502       -12.0683
  58   2.0000      -0.436906       -11.8888
  59   2.0000      -0.426694       -11.6109
  60   2.0000      -0.423192       -11.5156
  61   2.0000      -0.419333       -11.4106
  62   2.0000      -0.411486       -11.1971
  63   2.0000      -0.346768        -9.4360
  64   2.0000      -0.329933        -8.9779
  65   2.0000      -0.327489        -8.9114
  66   2.0000      -0.289414        -7.8753
  67   0.0000       0.031454         0.8559
  68   0.0000       0.074949         2.0395
  69   0.0000       0.118218         3.2169
  70   0.0000       0.120999         3.2926
  71   0.0000       0.128843         3.5060

MULLIKEN ATOMIC CHARGES
-----------------------
   0 S :    0.132342
   1 C :   -0.131548
   2 C :   -0.097017
   3 C :    0.025434
   4 C :   -0.186004
   5 H :    0.006906
   6 C :    0.057703
   7 H :    0.043238
   8 H :    0.015373
   9 C :   -0.010058
  10 H :    0.014036
  11 H :    0.005110
  12 C :   -0.019209
  13 H :    0.012396
  14 H :    0.030881
  15 H :    0.017403
  16 S :    0.111960
  17 C :   -0.093430
  18 C :   -0.037170
  19 C :   -0.065181
  20 C :   -0.145097
  21 H :    0.014151
  22 C :    0.120068
  23 H :    0.025198
  24 H :    0.014765
  25 C :   -0.101770
  26 H :    0.054431
  27 H :    0.024932
  28 C :   -0.018001
  29 H :    0.020788
  30 H :    0.026146
  31 H :    0.023177
  32 H :    0.052886
  33 H :    0.055161
Sum of atomic charges:    0.0000000

LOEWDIN ATOMIC CHARGES
----------------------
   0 S :    0.431120
   1 C :   -0.214109
   2 C :   -0.064087
   3 C :   -0.057101
   4 C :   -0.203269
   5 H :    0.025484
   6 C :   -0.031770
   7 H :    0.039430
   8 H :    0.030890
   9 C :   -0.031720
  10 H :    0.021467
  11 H :    0.018883
  12 C :   -0.060473
  13 H :    0.020174
  14 H :    0.030468
  15 H :    0.021841
  16 S :    0.403142
  17 C :   -0.189801
  18 C :   -0.075759
  19 C :   -0.052938
  20 C :   -0.206007
  21 H :    0.030434
  22 C :   -0.021743
  23 H :    0.033529
  24 H :    0.018973
  25 C :   -0.034736
  26 H :    0.034594
  27 H :    0.017359
  28 C :   -0.065730
  29 H :    0.023766
  30 H :    0.026065
  31 H :    0.018731
  32 H :    0.030139
  33 H :    0.032752

  Mayer bond orders larger than 0.100000
B(  0-S ,  1-C ) :   1.1643 B(  0-S ,  4-C ) :   1.1589 B(  1-C ,  2-C ) :   1.5601
B(  1-C ,  4-C ) :   0.1038 B(  1-C , 32-H ) :   0.9611 B(  2-C ,  3-C ) :   1.2785
B(  2-C ,  6-C ) :   1.0338 B(  3-C ,  4-C ) :   1.5441 B(  3-C ,  5-H ) :   0.9892
B(  4-C , 20-C ) :   1.0565 B(  6-C ,  7-H ) :   0.9370 B(  6-C ,  8-H ) :   0.9363
B(  6-C ,  9-C ) :   1.0560 B(  9-C , 10-H ) :   0.9545 B(  9-C , 11-H ) :   0.9456
B(  9-C , 12-C ) :   1.0923 B( 12-C , 13-H ) :   0.9698 B( 12-C , 14-H ) :   0.9724
B( 12-C , 15-H ) :   0.9728 B( 16-S , 17-C ) :   1.1427 B( 16-S , 20-C ) :   1.1278
B( 17-C , 18-C ) :   1.6474 B( 17-C , 33-H ) :   0.9633 B( 18-C , 19-C ) :   1.2173
B( 18-C , 21-H ) :   0.9905 B( 19-C , 20-C ) :   1.6166 B( 19-C , 22-C ) :   1.0387
B( 22-C , 23-H ) :   0.9340 B( 22-C , 24-H ) :   0.9261 B( 22-C , 25-C ) :   1.0594
B( 25-C , 26-H ) :   0.9550 B( 25-C , 27-H ) :   0.9661 B( 25-C , 28-C ) :   1.0585
B( 28-C , 29-H ) :   0.9785 B( 28-C , 30-H ) :   0.9764 B( 28-C , 31-H ) :   0.9783

Dispersion correction           -0.014456673
FINAL SINGLE POINT ENERGY     -1339.875643775934

DIPOLE MOMENT
-------------
                                X             Y             Z
Electronic contribution:     -5.71243      26.52657     -15.05653
Nuclear contribution   :      5.89605     -26.98053      15.52035
                        -----------------------------------------
Total Dipole Moment    :      0.18361      -0.45396       0.46382
                        -----------------------------------------
Magnitude (a.u.)       :      0.67448
Magnitude (Debye)      :      1.71439

Rotational constants in cm-1:     0.017883     0.009133     0.007027
Rotational constants in MHz :   536.107958   273.811635   210.658496

                             ****ORCA TERMINATED NORMALLY****
TOTAL RUN TIME: 0 days 0 hours 0 minutes 20 seconds 694 msec
