                         Program Version 4.2.1 -  RELEASE  -
|  1> ! wB97X-D3 SP def2-SVP
|  2> %pal
|  3> nprocs 24
|  4> end
|  5>
|  6> * xyz 0 1
|  7> S 	 16.8666 	 -12.1479 	 -119.915
|  8> C 	 15.4441 	 -12.4689 	 -120.967
|  9> C 	 14.3104 	 -12.4852 	 -120.24
| 10> C 	 14.511 	 -12.5718 	 -118.827
| 11> C 	 15.8244 	 -12.3627 	 -118.508
| 12> H 	 13.863 	 -12.7396 	 -117.932
| 13> C 	 12.9624 	 -12.694 	 -120.776
| 14> H 	 12.6931 	 -11.7451 	 -121.315
| 15> H 	 12.249 	 -12.6901 	 -119.93
| 16> C 	 12.7308 	 -13.9719 	 -121.521
| 17> H 	 13.3767 	 -13.8327 	 -122.405
| 18> H 	 12.8898 	 -14.8912 	 -121.002
| 19> C 	 11.2508 	 -13.9377 	 -122.043
| 20> H 	 10.9527 	 -14.7897 	 -122.721
| 21> H 	 10.4647 	 -13.9454 	 -121.264
| 22> H 	 11.0914 	 -13.0182 	 -122.614
| 23> S 	 17.0157 	 -10.7378 	 -116.561
| 24> C 	 16.9645 	 -11.3569 	 -114.932
| 25> C 	 16.506 	 -12.6612 	 -114.822
| 26> C 	 16.139 	 -13.1747 	 -116.123
| 27> C 	 16.3009 	 -12.2641 	 -117.145
| 28> H 	 16.3509 	 -13.1821 	 -113.883
| 29> C 	 15.544 	 -14.5065 	 -116.289
| 30> H 	 15.4111 	 -14.6597 	 -117.368
| 31> H 	 14.5146 	 -14.5392 	 -115.866
| 32> C 	 16.3436 	 -15.7401 	 -115.699
| 33> H 	 16.6871 	 -15.4287 	 -114.735
| 34> H 	 17.1523 	 -16.0206 	 -116.35
| 35> C 	 15.4828 	 -16.9596 	 -115.462
| 36> H 	 14.907 	 -16.9094 	 -114.567
| 37> H 	 16.0556 	 -17.9207 	 -115.433
| 38> H 	 14.848 	 -17.0164 	 -116.395
| 39> H 	 15.4093 	 -12.6453 	 -121.991
| 40> H 	 17.235 	 -10.7535 	 -114.149
| 41> *
| 42>
| 43>                          ****END OF INPUT****

CARTESIAN COORDINATES (ANGSTROEM)
---------------------------------
  S     16.866600  -12.147900  -119.915000
  C     15.444100  -12.468900  -120.967000
  C     14.310400  -12.485200  -120.240000
  C     14.511000  -12.571800  -118.827000
  C     15.824400  -12.362700  -118.508000
  H     13.863000  -12.739600  -117.932000
  C     12.962400  -12.694000  -120.776000
  H     12.693100  -11.745100  -121.315000
  H     12.249000  -12.690100  -119.930000
  C     12.730800  -13.971900  -121.521000
  H     13.376700  -13.832700  -122.405000
  H     12.889800  -14.891200  -121.002000
  C     11.250800  -13.937700  -122.043000
  H     10.952700  -14.789700  -122.721000
  H     10.464700  -13.945400  -121.264000
  H     11.091400  -13.018200  -122.614000
  S     17.015700  -10.737800  -116.561000
  C     16.964500  -11.356900  -114.932000
  C     16.506000  -12.661200  -114.822000
  C     16.139000  -13.174700  -116.123000
  C     16.300900  -12.264100  -117.145000
  H     16.350900  -13.182100  -113.883000
  C     15.544000  -14.506500  -116.289000
  H     15.411100  -14.659700  -117.368000
  H     14.514600  -14.539200  -115.866000
  C     16.343600  -15.740100  -115.699000
  H     16.687100  -15.428700  -114.735000
  H     17.152300  -16.020600  -116.350000
  C     15.482800  -16.959600  -115.462000
  H     14.907000  -16.909400  -114.567000
  H     16.055600  -17.920700  -115.433000
  H     14.848000  -17.016400  -116.395000
  H     15.409300  -12.645300  -121.991000
  H     17.235000  -10.753500  -114.149000

 Total Charge           Charge          ....    0
 Multiplicity           Mult            ....    1
 Number of Electrons    NEL             ....  134
 Basis Dimension        Dim             ....  322

ORBITAL ENERGIES
----------------

  NO   OCC          E(Eh)            E(eV)
   0   2.0000     -88.966562     -2420.9032
   1   2.0000     -88.964826     -2420.8560
   2   2.0000     -10.325127      -280.9610
   3   2.0000     -10.323121      -280.9064
   4   2.0000     -10.313793      -280.6526
   5   2.0000     -10.309167      -280.5267
   6   2.0000     -10.299579      -280.2658
   7   2.0000     -10.296460      -280.1809
   8   2.0000     -10.294788      -280.1354
   9   2.0000     -10.294287      -280.1218
  10   2.0000     -10.291793      -280.0539
  11   2.0000     -10.289852      -280.0011
  12   2.0000     -10.288957      -279.9768
  13   2.0000     -10.285714      -279.8885
  14   2.0000     -10.282582      -279.8033
  15   2.0000     -10.279889      -279.7300
  16   2.0000      -8.080346      -219.8774
  17   2.0000      -8.079462      -219.8533
  18   2.0000      -6.039045      -164.3308
  19   2.0000      -6.037973      -164.3016
  20   2.0000      -6.035159      -164.2250
  21   2.0000      -6.034121      -164.1968
  22   2.0000      -6.030793      -164.1062
  23   2.0000      -6.030100      -164.0874
  24   2.0000      -1.006145       -27.3786
  25   2.0000      -0.983304       -26.7571
  26   2.0000      -0.919955       -25.0332
  27   2.0000      -0.908466       -24.7206
  28   2.0000      -0.871687       -23.7198
  29   2.0000      -0.855166       -23.2703
  30   2.0000      -0.845643       -23.0111
  31   2.0000      -0.814348       -22.1595
  32   2.0000      -0.778518       -21.1846
  33   2.0000      -0.768378       -20.9086
  34   2.0000      -0.713224       -19.4078
  35   2.0000      -0.702286       -19.1102
  36   2.0000      -0.698792       -19.0151
  37   2.0000      -0.660934       -17.9849
  38   2.0000      -0.643036       -17.4979
  39   2.0000      -0.611687       -16.6448
  40   2.0000      -0.600446       -16.3390
  41   2.0000      -0.574752       -15.6398
  42   2.0000      -0.569109       -15.4862
  43   2.0000      -0.563580       -15.3358
  44   2.0000      -0.530386       -14.4325
  45   2.0000      -0.525831       -14.3086
  46   2.0000      -0.521900       -14.2016
  47   2.0000      -0.516230       -14.0473
  48   2.0000      -0.506208       -13.7746
  49   2.0000      -0.494251       -13.4493
  50   2.0000      -0.490703       -13.3527
  51   2.0000      -0.474492       -12.9116
  52   2.0000      -0.465905       -12.6779
  53   2.0000      -0.461599       -12.5607
  54   2.0000      -0.456370       -12.4185
  55   2.0000      -0.453659       -12.3447
  56   2.0000      -0.448477       -12.2037
  57   2.0000      -0.444753       -12.1023
  58   2.0000      -0.431559       -11.7433
  59   2.0000      -0.426653       -11.6098
  60   2.0000      -0.422252       -11.4901
  61   2.0000      -0.412252       -11.2179
  62   2.0000      -0.408631       -11.1194
  63   2.0000      -0.343640        -9.3509
  64   2.0000      -0.332541        -9.0489
  65   2.0000      -0.328954        -8.9513
  66   2.0000      -0.293364        -7.9828
  67   0.0000       0.036203         0.9851
  68   0.0000       0.062300         1.6953
  69   0.0000       0.108407         2.9499
  70   0.0000       0.121111         3.2956
  71   0.0000       0.124366         3.3842

MULLIKEN ATOMIC CHARGES
-----------------------
   0 S :    0.106362
   1 C :   -0.100069
   2 C :   -0.039331
   3 C :    0.001801
   4 C :   -0.174958
   5 H :    0.040211
   6 C :    0.018230
   7 H :    0.045316
   8 H :    0.011994
   9 C :   -0.033260
  10 H :    0.030049
  11 H :    0.040855
  12 C :   -0.082436
  13 H :    0.040692
  14 H :    0.031968
  15 H :    0.026174
  16 S :    0.104750
  17 C :   -0.062855
  18 C :   -0.018057
  19 C :   -0.031365
  20 C :   -0.150914
  21 H :    0.025268
  22 C :    0.007711
  23 H :    0.036646
  24 H :    0.036801
  25 C :   -0.037785
  26 H :    0.013139
  27 H :    0.037580
  28 C :   -0.075461
  29 H :    0.033575
  30 H :    0.039859
  31 H :    0.033144
  32 H :    0.017345
  33 H :    0.027022
Sum of atomic charges:    0.0000000

LOEWDIN ATOMIC CHARGES
----------------------
   0 S :    0.375097
   1 C :   -0.171332
   2 C :   -0.064014
   3 C :   -0.063384
   4 C :   -0.185566
   5 H :    0.046526
   6 C :   -0.043693
   7 H :    0.041352
   8 H :    0.027766
   9 C :   -0.030106
  10 H :    0.027368
  11 H :    0.026231
  12 C :   -0.074232
  13 H :    0.028849
  14 H :    0.023514
  15 H :    0.023652
  16 S :    0.390146
  17 C :   -0.163120
  18 C :   -0.066084
  19 C :   -0.057930
  20 C :   -0.192702
  21 H :    0.033290
  22 C :   -0.042202
  23 H :    0.031842
  24 H :    0.033782
  25 C :   -0.032311
  26 H :    0.014748
  27 H :    0.026564
  28 C :   -0.069429
  29 H :    0.018900
  30 H :    0.031643
  31 H :    0.029838
  32 H :    0.016369
  33 H :    0.008626

  Mayer bond orders larger than 0.100000
B(  0-S ,  1-C ) :   1.0987 B(  0-S ,  4-C ) :   1.1312 B(  1-C ,  2-C ) :   1.6580
B(  1-C , 32-H ) :   0.9795 B(  2-C ,  3-C ) :   1.1847 B(  2-C ,  6-C ) :   1.0263
B(  3-C ,  4-C ) :   1.6183 B(  3-C ,  5-H ) :   0.9852 B(  4-C , 20-C ) :   1.0367
B(  6-C ,  7-H ) :   0.9287 B(  6-C ,  8-H ) :   0.9419 B(  6-C ,  9-C ) :   1.0681
B(  9-C , 10-H ) :   0.9516 B(  9-C , 11-H ) :   0.9598 B(  9-C , 12-C ) :   1.0721
B( 12-C , 13-H ) :   0.9759 B( 12-C , 14-H ) :   0.9765 B( 12-C , 15-H ) :   0.9749
B( 16-S , 17-C ) :   1.1587 B( 16-S , 20-C ) :   1.1149 B( 17-C , 18-C ) :   1.6148
B( 17-C , 33-H ) :   0.9777 B( 18-C , 19-C ) :   1.2050 B( 18-C , 21-H ) :   0.9907
B( 19-C , 20-C ) :   1.6278 B( 19-C , 22-C ) :   1.0697 B( 22-C , 23-H ) :   0.9203
B( 22-C , 24-H ) :   0.9346 B( 22-C , 25-C ) :   1.0492 B( 25-C , 26-H ) :   0.9614
B( 25-C , 27-H ) :   0.9570 B( 25-C , 28-C ) :   1.0825 B( 28-C , 29-H ) :   0.9773
B( 28-C , 30-H ) :   0.9742 B( 28-C , 31-H ) :   0.9739

Dispersion correction           -0.013663851
FINAL SINGLE POINT ENERGY     -1339.867856871179

DIPOLE MOMENT
-------------
                                X             Y             Z
Electronic contribution:     20.18593      21.99655       3.16282
Nuclear contribution   :    -20.78554     -22.42172      -3.02066
                        -----------------------------------------
Total Dipole Moment    :     -0.59961      -0.42516       0.14215
                        -----------------------------------------
Magnitude (a.u.)       :      0.74867
Magnitude (Debye)      :      1.90296

Rotational constants in cm-1:     0.017377     0.008292     0.006396
Rotational constants in MHz :   520.952507   248.577542   191.737805

                             ****ORCA TERMINATED NORMALLY****
TOTAL RUN TIME: 0 days 0 hours 0 minutes 21 seconds 433 msec
