                         Program Version 4.2.1 -  RELEASE  -
|  1> ! wB97X-D3 SP def2-SVP
|  2> %pal
|  3> nprocs 24
|  4> end
|  5>
|  6> * xyz 0 1
|  7> S 	 -48.8933 	 14.293 	 -106.054
|  8> C 	 -50.4368 	 13.6794 	 -106.482
|  9> C 	 -50.8711 	 12.6032 	 -105.723
| 10> C 	 -49.9281 	 12.213 	 -104.744
| 11> C 	 -48.8433 	 13.0866 	 -104.73
| 12> H 	 -49.9791 	 11.431 	 -104.048
| 13> C 	 -52.2422 	 11.9832 	 -105.798
| 14> H 	 -52.3371 	 11.7912 	 -106.891
| 15> H 	 -52.9033 	 12.7602 	 -105.404
| 16> C 	 -52.5116 	 10.6954 	 -105.077
| 17> H 	 -52.2611 	 10.7761 	 -103.997
| 18> H 	 -53.6014 	 10.436 	 -105.03
| 19> C 	 -51.7048 	 9.4838 	 -105.63
| 20> H 	 -51.787 	 8.57315 	 -105.082
| 21> H 	 -52.0353 	 9.35298 	 -106.673
| 22> H 	 -50.6436 	 9.76979 	 -105.754
| 23> S 	 -46.1181 	 12.7074 	 -104.813
| 24> C 	 -45.3051 	 12.3055 	 -103.369
| 25> C 	 -46.0867 	 12.188 	 -102.267
| 26> C 	 -47.4557 	 12.4788 	 -102.608
| 27> C 	 -47.6298 	 12.9283 	 -103.945
| 28> H 	 -45.6564 	 11.7248 	 -101.41
| 29> C 	 -48.5376 	 12.388 	 -101.587
| 30> H 	 -48.0689 	 11.8391 	 -100.836
| 31> H 	 -49.3711 	 11.7731 	 -101.9
| 32> C 	 -49.0345 	 13.6412 	 -100.962
| 33> H 	 -49.5834 	 14.2629 	 -101.587
| 34> H 	 -48.1425 	 14.1788 	 -100.555
| 35> C 	 -49.8801 	 13.3881 	 -99.6391
| 36> H 	 -49.2091 	 12.9131 	 -98.973
| 37> H 	 -50.7166 	 12.6681 	 -99.7952
| 38> H 	 -50.359 	 14.2304 	 -99.1003
| 39> H 	 -51.1778 	 14.0314 	 -107.207
| 40> H 	 -44.3124 	 11.781 	 -103.478
| 41> *
| 42>
| 43>                          ****END OF INPUT****

CARTESIAN COORDINATES (ANGSTROEM)
---------------------------------
  S    -48.893300   14.293000  -106.054000
  C    -50.436800   13.679400  -106.482000
  C    -50.871100   12.603200  -105.723000
  C    -49.928100   12.213000  -104.744000
  C    -48.843300   13.086600  -104.730000
  H    -49.979100   11.431000  -104.048000
  C    -52.242200   11.983200  -105.798000
  H    -52.337100   11.791200  -106.891000
  H    -52.903300   12.760200  -105.404000
  C    -52.511600   10.695400  -105.077000
  H    -52.261100   10.776100  -103.997000
  H    -53.601400   10.436000  -105.030000
  C    -51.704800    9.483800  -105.630000
  H    -51.787000    8.573150  -105.082000
  H    -52.035300    9.352980  -106.673000
  H    -50.643600    9.769790  -105.754000
  S    -46.118100   12.707400  -104.813000
  C    -45.305100   12.305500  -103.369000
  C    -46.086700   12.188000  -102.267000
  C    -47.455700   12.478800  -102.608000
  C    -47.629800   12.928300  -103.945000
  H    -45.656400   11.724800  -101.410000
  C    -48.537600   12.388000  -101.587000
  H    -48.068900   11.839100  -100.836000
  H    -49.371100   11.773100  -101.900000
  C    -49.034500   13.641200  -100.962000
  H    -49.583400   14.262900  -101.587000
  H    -48.142500   14.178800  -100.555000
  C    -49.880100   13.388100  -99.639100
  H    -49.209100   12.913100  -98.973000
  H    -50.716600   12.668100  -99.795200
  H    -50.359000   14.230400  -99.100300
  H    -51.177800   14.031400  -107.207000
  H    -44.312400   11.781000  -103.478000

 Total Charge           Charge          ....    0
 Multiplicity           Mult            ....    1
 Number of Electrons    NEL             ....  134
 Basis Dimension        Dim             ....  322

ORBITAL ENERGIES
----------------

  NO   OCC          E(Eh)            E(eV)
   0   2.0000     -88.972247     -2421.0579
   1   2.0000     -88.964292     -2420.8415
   2   2.0000     -10.331356      -281.1305
   3   2.0000     -10.325778      -280.9787
   4   2.0000     -10.313814      -280.6532
   5   2.0000     -10.309118      -280.5254
   6   2.0000     -10.306914      -280.4654
   7   2.0000     -10.297097      -280.1983
   8   2.0000     -10.294399      -280.1248
   9   2.0000     -10.294261      -280.1211
  10   2.0000     -10.292538      -280.0742
  11   2.0000     -10.290809      -280.0271
  12   2.0000     -10.281844      -279.7832
  13   2.0000     -10.280575      -279.7487
  14   2.0000     -10.279492      -279.7192
  15   2.0000     -10.278804      -279.7005
  16   2.0000      -8.086411      -220.0424
  17   2.0000      -8.080022      -219.8686
  18   2.0000      -6.044828      -164.4881
  19   2.0000      -6.041118      -164.3872
  20   2.0000      -6.038359      -164.3121
  21   2.0000      -6.037206      -164.2807
  22   2.0000      -6.034390      -164.2041
  23   2.0000      -6.030898      -164.1091
  24   2.0000      -1.008021       -27.4297
  25   2.0000      -0.987054       -26.8591
  26   2.0000      -0.916641       -24.9431
  27   2.0000      -0.915306       -24.9067
  28   2.0000      -0.871171       -23.7058
  29   2.0000      -0.852059       -23.1857
  30   2.0000      -0.846288       -23.0287
  31   2.0000      -0.816599       -22.2208
  32   2.0000      -0.785339       -21.3702
  33   2.0000      -0.769456       -20.9380
  34   2.0000      -0.713741       -19.4219
  35   2.0000      -0.699789       -19.0422
  36   2.0000      -0.688551       -18.7364
  37   2.0000      -0.661513       -18.0007
  38   2.0000      -0.636128       -17.3099
  39   2.0000      -0.624055       -16.9814
  40   2.0000      -0.597503       -16.2589
  41   2.0000      -0.575290       -15.6544
  42   2.0000      -0.570612       -15.5271
  43   2.0000      -0.559172       -15.2158
  44   2.0000      -0.534151       -14.5350
  45   2.0000      -0.520453       -14.1622
  46   2.0000      -0.517469       -14.0811
  47   2.0000      -0.508701       -13.8425
  48   2.0000      -0.501375       -13.6431
  49   2.0000      -0.494525       -13.4567
  50   2.0000      -0.489830       -13.3289
  51   2.0000      -0.483269       -13.1504
  52   2.0000      -0.476047       -12.9539
  53   2.0000      -0.464529       -12.6405
  54   2.0000      -0.456032       -12.4093
  55   2.0000      -0.452224       -12.3056
  56   2.0000      -0.445316       -12.1177
  57   2.0000      -0.443080       -12.0568
  58   2.0000      -0.436970       -11.8906
  59   2.0000      -0.432189       -11.7605
  60   2.0000      -0.417835       -11.3699
  61   2.0000      -0.412286       -11.2189
  62   2.0000      -0.409747       -11.1498
  63   2.0000      -0.353802        -9.6274
  64   2.0000      -0.333347        -9.0708
  65   2.0000      -0.329363        -8.9624
  66   2.0000      -0.283586        -7.7168
  67   0.0000       0.026793         0.7291
  68   0.0000       0.064692         1.7604
  69   0.0000       0.108001         2.9388
  70   0.0000       0.116247         3.1633
  71   0.0000       0.137075         3.7300

MULLIKEN ATOMIC CHARGES
-----------------------
   0 S :    0.127395
   1 C :   -0.103818
   2 C :   -0.127299
   3 C :    0.039682
   4 C :   -0.160400
   5 H :   -0.004248
   6 C :    0.075804
   7 H :    0.036961
   8 H :    0.055038
   9 C :   -0.099034
  10 H :    0.024764
  11 H :    0.040518
  12 C :   -0.065100
  13 H :    0.041411
  14 H :    0.026344
  15 H :    0.040320
  16 S :    0.105775
  17 C :   -0.111834
  18 C :   -0.019360
  19 C :   -0.087019
  20 C :   -0.113011
  21 H :    0.018089
  22 C :    0.114427
  23 H :   -0.017885
  24 H :    0.014209
  25 C :   -0.031834
  26 H :    0.026391
  27 H :    0.031139
  28 C :   -0.077824
  29 H :    0.016432
  30 H :    0.024025
  31 H :    0.044666
  32 H :    0.037188
  33 H :    0.078084
Sum of atomic charges:   -0.0000000

LOEWDIN ATOMIC CHARGES
----------------------
   0 S :    0.409675
   1 C :   -0.220320
   2 C :   -0.065481
   3 C :   -0.052861
   4 C :   -0.177791
   5 H :    0.022243
   6 C :   -0.038355
   7 H :    0.038535
   8 H :    0.042435
   9 C :   -0.051707
  10 H :    0.021544
  11 H :    0.032576
  12 C :   -0.068186
  13 H :    0.022894
  14 H :    0.026610
  15 H :    0.029287
  16 S :    0.423786
  17 C :   -0.204765
  18 C :   -0.075702
  19 C :   -0.046580
  20 C :   -0.204877
  21 H :    0.032941
  22 C :   -0.035410
  23 H :    0.023274
  24 H :    0.026802
  25 C :   -0.024846
  26 H :    0.013737
  27 H :    0.031710
  28 C :   -0.071105
  29 H :    0.015334
  30 H :    0.022545
  31 H :    0.030667
  32 H :    0.032145
  33 H :    0.039242

  Mayer bond orders larger than 0.100000
B(  0-S ,  1-C ) :   1.1316 B(  0-S ,  4-C ) :   1.1491 B(  1-C ,  2-C ) :   1.6384
B(  1-C , 32-H ) :   0.9606 B(  2-C ,  3-C ) :   1.2474 B(  2-C ,  6-C ) :   0.9870
B(  3-C ,  4-C ) :   1.5611 B(  3-C ,  5-H ) :   0.9920 B(  4-C , 20-C ) :   1.0489
B(  6-C ,  7-H ) :   0.9376 B(  6-C ,  8-H ) :   0.9338 B(  6-C ,  9-C ) :   1.0996
B(  9-C , 10-H ) :   0.9435 B(  9-C , 11-H ) :   0.9532 B(  9-C , 12-C ) :   1.0666
B( 12-C , 13-H ) :   0.9765 B( 12-C , 14-H ) :   0.9721 B( 12-C , 15-H ) :   0.9769
B( 16-S , 17-C ) :   1.1854 B( 16-S , 20-C ) :   1.1466 B( 17-C , 18-C ) :   1.6036
B( 17-C , 33-H ) :   0.9500 B( 18-C , 19-C ) :   1.2545 B( 18-C , 21-H ) :   0.9934
B( 19-C , 20-C ) :   1.5613 B( 19-C , 22-C ) :   1.0562 B( 22-C , 23-H ) :   0.9157
B( 22-C , 24-H ) :   0.9215 B( 22-C , 25-C ) :   1.0746 B( 25-C , 26-H ) :   0.9608
B( 25-C , 27-H ) :   0.9546 B( 25-C , 28-C ) :   1.0630 B( 28-C , 29-H ) :   0.9787
B( 28-C , 30-H ) :   0.9769 B( 28-C , 31-H ) :   0.9777

Dispersion correction           -0.014339773
FINAL SINGLE POINT ENERGY     -1339.864324398317

DIPOLE MOMENT
-------------
                                X             Y             Z
Electronic contribution:     20.05087      11.57078     -15.56586
Nuclear contribution   :    -20.45462     -12.12363      15.91369
                        -----------------------------------------
Total Dipole Moment    :     -0.40375      -0.55285       0.34783
                        -----------------------------------------
Magnitude (a.u.)       :      0.76788
Magnitude (Debye)      :      1.95179

Rotational constants in cm-1:     0.015685     0.009787     0.007727
Rotational constants in MHz :   470.235354   293.398926   231.645854

                             ****ORCA TERMINATED NORMALLY****
TOTAL RUN TIME: 0 days 0 hours 0 minutes 22 seconds 278 msec
