                         Program Version 4.2.1 -  RELEASE  -
|  1> ! wB97X-D3 SP def2-SVP
|  2> %pal
|  3> nprocs 24
|  4> end
|  5>
|  6> * xyz 0 1
|  7> S 	 -57.6741 	 16.6699 	 23.3618
|  8> C 	 -58.6667 	 15.4472 	 22.6441
|  9> C 	 -57.8986 	 14.3781 	 22.2343
| 10> C 	 -56.5153 	 14.6065 	 22.4932
| 11> C 	 -56.1824 	 15.7512 	 23.0796
| 12> H 	 -55.6973 	 13.8435 	 22.3431
| 13> C 	 -58.5467 	 13.0425 	 21.8293
| 14> H 	 -59.3153 	 12.8269 	 22.5434
| 15> H 	 -57.7697 	 12.2363 	 21.922
| 16> C 	 -59.1898 	 13.0715 	 20.4723
| 17> H 	 -59.8889 	 13.8804 	 20.4025
| 18> H 	 -58.4775 	 13.4148 	 19.727
| 19> C 	 -59.7352 	 11.7296 	 19.9676
| 20> H 	 -58.8184 	 11.16 	 19.7802
| 21> H 	 -60.2268 	 11.2568 	 20.7838
| 22> H 	 -60.3452 	 11.7145 	 19.0156
| 23> S 	 -55.1355 	 17.4112 	 25.0079
| 24> C 	 -53.4284 	 17.5944 	 25.131
| 25> C 	 -52.7116 	 16.6644 	 24.4845
| 26> C 	 -53.6052 	 15.8638 	 23.6671
| 27> C 	 -54.9459 	 16.2466 	 23.7731
| 28> H 	 -51.7068 	 16.5116 	 24.708
| 29> C 	 -53.0763 	 14.6351 	 22.8996
| 30> H 	 -53.7844 	 13.8207 	 23.0836
| 31> H 	 -52.1998 	 14.267 	 23.4016
| 32> C 	 -52.8642 	 14.8137 	 21.3111
| 33> H 	 -53.8419 	 15.1037 	 20.8329
| 34> H 	 -52.5284 	 13.822 	 21.033
| 35> C 	 -51.7423 	 15.8139 	 21.0192
| 36> H 	 -51.8751 	 16.6742 	 21.6773
| 37> H 	 -51.7964 	 16.2013 	 20.0163
| 38> H 	 -50.6899 	 15.5641 	 21.1509
| 39> H 	 -59.764 	 15.3476 	 22.8104
| 40> H 	 -52.9068 	 18.3695 	 25.6453
| 41> *
| 42>
| 43>                          ****END OF INPUT****

CARTESIAN COORDINATES (ANGSTROEM)
---------------------------------
  S    -57.674100   16.669900   23.361800
  C    -58.666700   15.447200   22.644100
  C    -57.898600   14.378100   22.234300
  C    -56.515300   14.606500   22.493200
  C    -56.182400   15.751200   23.079600
  H    -55.697300   13.843500   22.343100
  C    -58.546700   13.042500   21.829300
  H    -59.315300   12.826900   22.543400
  H    -57.769700   12.236300   21.922000
  C    -59.189800   13.071500   20.472300
  H    -59.888900   13.880400   20.402500
  H    -58.477500   13.414800   19.727000
  C    -59.735200   11.729600   19.967600
  H    -58.818400   11.160000   19.780200
  H    -60.226800   11.256800   20.783800
  H    -60.345200   11.714500   19.015600
  S    -55.135500   17.411200   25.007900
  C    -53.428400   17.594400   25.131000
  C    -52.711600   16.664400   24.484500
  C    -53.605200   15.863800   23.667100
  C    -54.945900   16.246600   23.773100
  H    -51.706800   16.511600   24.708000
  C    -53.076300   14.635100   22.899600
  H    -53.784400   13.820700   23.083600
  H    -52.199800   14.267000   23.401600
  C    -52.864200   14.813700   21.311100
  H    -53.841900   15.103700   20.832900
  H    -52.528400   13.822000   21.033000
  C    -51.742300   15.813900   21.019200
  H    -51.875100   16.674200   21.677300
  H    -51.796400   16.201300   20.016300
  H    -50.689900   15.564100   21.150900
  H    -59.764000   15.347600   22.810400
  H    -52.906800   18.369500   25.645300

 Total Charge           Charge          ....    0
 Multiplicity           Mult            ....    1
 Number of Electrons    NEL             ....  134
 Basis Dimension        Dim             ....  322

ORBITAL ENERGIES
----------------

  NO   OCC          E(Eh)            E(eV)
   0   2.0000     -88.967554     -2420.9302
   1   2.0000     -88.962278     -2420.7866
   2   2.0000     -10.332075      -281.1501
   3   2.0000     -10.330296      -281.1016
   4   2.0000     -10.314962      -280.6844
   5   2.0000     -10.308907      -280.5196
   6   2.0000     -10.305974      -280.4398
   7   2.0000     -10.302977      -280.3583
   8   2.0000     -10.296521      -280.1826
   9   2.0000     -10.296375      -280.1786
  10   2.0000     -10.295582      -280.1570
  11   2.0000     -10.295331      -280.1502
  12   2.0000     -10.287987      -279.9504
  13   2.0000     -10.280493      -279.7464
  14   2.0000     -10.279728      -279.7256
  15   2.0000     -10.271801      -279.5099
  16   2.0000      -8.083620      -219.9665
  17   2.0000      -8.077358      -219.7961
  18   2.0000      -6.042068      -164.4130
  19   2.0000      -6.038077      -164.3044
  20   2.0000      -6.035984      -164.2475
  21   2.0000      -6.034217      -164.1994
  22   2.0000      -6.031808      -164.1339
  23   2.0000      -6.027966      -164.0293
  24   2.0000      -1.014838       -27.6151
  25   2.0000      -0.993037       -27.0219
  26   2.0000      -0.915628       -24.9155
  27   2.0000      -0.899735       -24.4830
  28   2.0000      -0.873855       -23.7788
  29   2.0000      -0.851318       -23.1655
  30   2.0000      -0.843412       -22.9504
  31   2.0000      -0.824868       -22.4458
  32   2.0000      -0.782680       -21.2978
  33   2.0000      -0.770928       -20.9780
  34   2.0000      -0.706928       -19.2365
  35   2.0000      -0.702482       -19.1155
  36   2.0000      -0.688786       -18.7428
  37   2.0000      -0.668962       -18.2034
  38   2.0000      -0.641522       -17.4567
  39   2.0000      -0.622163       -16.9299
  40   2.0000      -0.593623       -16.1533
  41   2.0000      -0.572155       -15.5691
  42   2.0000      -0.562789       -15.3143
  43   2.0000      -0.544928       -14.8283
  44   2.0000      -0.542052       -14.7500
  45   2.0000      -0.526478       -14.3262
  46   2.0000      -0.521702       -14.1962
  47   2.0000      -0.504709       -13.7338
  48   2.0000      -0.504077       -13.7166
  49   2.0000      -0.501672       -13.6512
  50   2.0000      -0.497078       -13.5262
  51   2.0000      -0.480850       -13.0846
  52   2.0000      -0.473355       -12.8807
  53   2.0000      -0.466266       -12.6878
  54   2.0000      -0.463952       -12.6248
  55   2.0000      -0.449701       -12.2370
  56   2.0000      -0.446841       -12.1592
  57   2.0000      -0.439539       -11.9605
  58   2.0000      -0.429732       -11.6936
  59   2.0000      -0.428743       -11.6667
  60   2.0000      -0.413364       -11.2482
  61   2.0000      -0.411160       -11.1882
  62   2.0000      -0.410884       -11.1807
  63   2.0000      -0.362115        -9.8536
  64   2.0000      -0.336663        -9.1611
  65   2.0000      -0.327059        -8.8997
  66   2.0000      -0.288088        -7.8393
  67   0.0000       0.022373         0.6088
  68   0.0000       0.081534         2.2187
  69   0.0000       0.095253         2.5920
  70   0.0000       0.122755         3.3403
  71   0.0000       0.133043         3.6203

MULLIKEN ATOMIC CHARGES
-----------------------
   0 S :    0.073754
   1 C :   -0.118646
   2 C :   -0.101554
   3 C :   -0.028789
   4 C :   -0.082197
   5 H :    0.024045
   6 C :    0.062507
   7 H :    0.026906
   8 H :    0.025708
   9 C :   -0.074467
  10 H :    0.012879
  11 H :    0.018431
  12 C :   -0.036050
  13 H :    0.026668
  14 H :    0.021091
  15 H :    0.055261
  16 S :    0.115288
  17 C :   -0.070105
  18 C :   -0.003563
  19 C :   -0.077585
  20 C :   -0.114168
  21 H :    0.001390
  22 C :    0.015442
  23 H :    0.025027
  24 H :    0.014604
  25 C :   -0.041786
  26 H :    0.055728
  27 H :    0.030385
  28 C :   -0.055019
  29 H :    0.027259
  30 H :    0.028558
  31 H :    0.027933
  32 H :    0.072308
  33 H :    0.042756
Sum of atomic charges:    0.0000000

LOEWDIN ATOMIC CHARGES
----------------------
   0 S :    0.389077
   1 C :   -0.205568
   2 C :   -0.063371
   3 C :   -0.080370
   4 C :   -0.173642
   5 H :    0.039256
   6 C :   -0.025639
   7 H :    0.027829
   8 H :    0.032230
   9 C :   -0.048465
  10 H :    0.016723
  11 H :    0.023614
  12 C :   -0.066906
  13 H :    0.027642
  14 H :    0.017380
  15 H :    0.037137
  16 S :    0.430696
  17 C :   -0.184094
  18 C :   -0.064884
  19 C :   -0.057461
  20 C :   -0.208231
  21 H :    0.025745
  22 C :   -0.034963
  23 H :    0.025270
  24 H :    0.026513
  25 C :   -0.030574
  26 H :    0.035383
  27 H :    0.022564
  28 C :   -0.076013
  29 H :    0.026243
  30 H :    0.025095
  31 H :    0.025411
  32 H :    0.040509
  33 H :    0.025865

  Mayer bond orders larger than 0.100000
B(  0-S ,  1-C ) :   1.1431 B(  0-S ,  4-C ) :   1.1306 B(  1-C ,  2-C ) :   1.6234
B(  1-C , 32-H ) :   0.9562 B(  2-C ,  3-C ) :   1.2501 B(  2-C ,  6-C ) :   1.0118
B(  3-C ,  4-C ) :   1.6171 B(  3-C ,  5-H ) :   0.9751 B(  4-C , 20-C ) :   1.0338
B(  6-C ,  7-H ) :   0.9392 B(  6-C ,  8-H ) :   0.9468 B(  6-C ,  9-C ) :   1.0600
B(  9-C , 10-H ) :   0.9544 B(  9-C , 11-H ) :   0.9556 B(  9-C , 12-C ) :   1.0685
B( 12-C , 13-H ) :   0.9758 B( 12-C , 14-H ) :   0.9750 B( 12-C , 15-H ) :   0.9742
B( 16-S , 17-C ) :   1.1557 B( 16-S , 20-C ) :   1.1439 B( 17-C , 18-C ) :   1.6300
B( 17-C , 33-H ) :   0.9639 B( 18-C , 19-C ) :   1.2299 B( 18-C , 21-H ) :   1.0013
B( 19-C , 20-C ) :   1.6027 B( 19-C , 22-C ) :   1.0245 B( 22-C , 23-H ) :   0.9442
B( 22-C , 24-H ) :   0.9405 B( 22-C , 25-C ) :   1.0558 B( 25-C , 26-H ) :   0.9575
B( 25-C , 27-H ) :   0.9582 B( 25-C , 28-C ) :   1.0680 B( 28-C , 29-H ) :   0.9759
B( 28-C , 30-H ) :   0.9738 B( 28-C , 31-H ) :   0.9767

Dispersion correction           -0.013959212
FINAL SINGLE POINT ENERGY     -1339.865508204934

DIPOLE MOMENT
-------------
                                X             Y             Z
Electronic contribution:     -3.06980      20.22098      19.62952
Nuclear contribution   :      3.36187     -20.80867     -19.65592
                        -----------------------------------------
Total Dipole Moment    :      0.29207      -0.58769      -0.02640
                        -----------------------------------------
Magnitude (a.u.)       :      0.65680
Magnitude (Debye)      :      1.66944

Rotational constants in cm-1:     0.020827     0.007914     0.006083
Rotational constants in MHz :   624.380715   237.242430   182.354673

                             ****ORCA TERMINATED NORMALLY****
TOTAL RUN TIME: 0 days 0 hours 0 minutes 22 seconds 494 msec
