                         Program Version 4.2.1 -  RELEASE  -
|  1> ! wB97X-D3 SP def2-SVP
|  2> %pal
|  3> nprocs 24
|  4> end
|  5>
|  6> * xyz 0 1
|  7> S 	 -0.646707 	 -17.5249 	 -104.767
|  8> C 	 0.586009 	 -17.5675 	 -103.618
|  9> C 	 1.10215 	 -16.3323 	 -103.273
| 10> C 	 0.331415 	 -15.3206 	 -103.866
| 11> C 	 -0.677681 	 -15.7555 	 -104.704
| 12> H 	 0.499252 	 -14.334 	 -103.674
| 13> C 	 2.41372 	 -16.2358 	 -102.446
| 14> H 	 3.29302 	 -16.2815 	 -103.056
| 15> H 	 2.39431 	 -17.0275 	 -101.71
| 16> C 	 2.65041 	 -14.8999 	 -101.793
| 17> H 	 2.23669 	 -14.1664 	 -102.48
| 18> H 	 2.00086 	 -14.7604 	 -100.909
| 19> C 	 4.09628 	 -14.4407 	 -101.545
| 20> H 	 4.69947 	 -15.1503 	 -100.922
| 21> H 	 4.59662 	 -14.3811 	 -102.52
| 22> H 	 4.15915 	 -13.621 	 -100.909
| 23> S 	 -2.55067 	 -15.3835 	 -106.784
| 24> C 	 -3.6375 	 -14.0656 	 -106.813
| 25> C 	 -3.35721 	 -13.2714 	 -105.709
| 26> C 	 -2.31544 	 -13.6772 	 -104.905
| 27> C 	 -1.77338 	 -14.9215 	 -105.244
| 28> H 	 -4.01836 	 -12.3808 	 -105.609
| 29> C 	 -1.84695 	 -12.7495 	 -103.733
| 30> H 	 -1.3786 	 -13.3081 	 -102.939
| 31> H 	 -2.75074 	 -12.2495 	 -103.287
| 32> C 	 -0.876914 	 -11.6514 	 -104.157
| 33> H 	 -1.35834 	 -10.9707 	 -104.876
| 34> H 	 -0.0750717 	 -12.106 	 -104.719
| 35> C 	 -0.0601806 	 -10.905 	 -103.078
| 36> H 	 0.558584 	 -11.5789 	 -102.435
| 37> H 	 -0.683431 	 -10.2003 	 -102.448
| 38> H 	 0.614939 	 -10.3982 	 -103.654
| 39> H 	 0.840689 	 -18.5105 	 -103.179
| 40> H 	 -4.37321 	 -14.0284 	 -107.539
| 41> *
| 42>
| 43>                          ****END OF INPUT****

CARTESIAN COORDINATES (ANGSTROEM)
---------------------------------
  S     -0.646707  -17.524900  -104.767000
  C      0.586009  -17.567500  -103.618000
  C      1.102150  -16.332300  -103.273000
  C      0.331415  -15.320600  -103.866000
  C     -0.677681  -15.755500  -104.704000
  H      0.499252  -14.334000  -103.674000
  C      2.413720  -16.235800  -102.446000
  H      3.293020  -16.281500  -103.056000
  H      2.394310  -17.027500  -101.710000
  C      2.650410  -14.899900  -101.793000
  H      2.236690  -14.166400  -102.480000
  H      2.000860  -14.760400  -100.909000
  C      4.096280  -14.440700  -101.545000
  H      4.699470  -15.150300  -100.922000
  H      4.596620  -14.381100  -102.520000
  H      4.159150  -13.621000  -100.909000
  S     -2.550670  -15.383500  -106.784000
  C     -3.637500  -14.065600  -106.813000
  C     -3.357210  -13.271400  -105.709000
  C     -2.315440  -13.677200  -104.905000
  C     -1.773380  -14.921500  -105.244000
  H     -4.018360  -12.380800  -105.609000
  C     -1.846950  -12.749500  -103.733000
  H     -1.378600  -13.308100  -102.939000
  H     -2.750740  -12.249500  -103.287000
  C     -0.876914  -11.651400  -104.157000
  H     -1.358340  -10.970700  -104.876000
  H     -0.075072  -12.106000  -104.719000
  C     -0.060181  -10.905000  -103.078000
  H      0.558584  -11.578900  -102.435000
  H     -0.683431  -10.200300  -102.448000
  H      0.614939  -10.398200  -103.654000
  H      0.840689  -18.510500  -103.179000
  H     -4.373210  -14.028400  -107.539000

 Total Charge           Charge          ....    0
 Multiplicity           Mult            ....    1
 Number of Electrons    NEL             ....  134
 Basis Dimension        Dim             ....  322

ORBITAL ENERGIES
----------------

  NO   OCC          E(Eh)            E(eV)
   0   2.0000     -88.969609     -2420.9862
   1   2.0000     -88.960644     -2420.7422
   2   2.0000     -10.334601      -281.2188
   3   2.0000     -10.334329      -281.2114
   4   2.0000     -10.311799      -280.5983
   5   2.0000     -10.310283      -280.5571
   6   2.0000     -10.304513      -280.4001
   7   2.0000     -10.301775      -280.3255
   8   2.0000     -10.294566      -280.1294
   9   2.0000     -10.294209      -280.1197
  10   2.0000     -10.292703      -280.0787
  11   2.0000     -10.289728      -279.9977
  12   2.0000     -10.286138      -279.9001
  13   2.0000     -10.285337      -279.8782
  14   2.0000     -10.282055      -279.7889
  15   2.0000     -10.281890      -279.7845
  16   2.0000      -8.085245      -220.0107
  17   2.0000      -8.075917      -219.7569
  18   2.0000      -6.043573      -164.4540
  19   2.0000      -6.039559      -164.3447
  20   2.0000      -6.036225      -164.2540
  21   2.0000      -6.034268      -164.2008
  22   2.0000      -6.030123      -164.0880
  23   2.0000      -6.027058      -164.0046
  24   2.0000      -1.011087       -27.5131
  25   2.0000      -0.992785       -27.0151
  26   2.0000      -0.916421       -24.9371
  27   2.0000      -0.906833       -24.6762
  28   2.0000      -0.871365       -23.7110
  29   2.0000      -0.857172       -23.3248
  30   2.0000      -0.850272       -23.1371
  31   2.0000      -0.816952       -22.2304
  32   2.0000      -0.787393       -21.4260
  33   2.0000      -0.778948       -21.1962
  34   2.0000      -0.712989       -19.4014
  35   2.0000      -0.692390       -18.8409
  36   2.0000      -0.691089       -18.8055
  37   2.0000      -0.663328       -18.0501
  38   2.0000      -0.646607       -17.5951
  39   2.0000      -0.632886       -17.2217
  40   2.0000      -0.602864       -16.4048
  41   2.0000      -0.584484       -15.9046
  42   2.0000      -0.564527       -15.3616
  43   2.0000      -0.562595       -15.3090
  44   2.0000      -0.527913       -14.3652
  45   2.0000      -0.524104       -14.2616
  46   2.0000      -0.515460       -14.0264
  47   2.0000      -0.514412       -13.9979
  48   2.0000      -0.510812       -13.8999
  49   2.0000      -0.502033       -13.6610
  50   2.0000      -0.496588       -13.5128
  51   2.0000      -0.489893       -13.3307
  52   2.0000      -0.475905       -12.9500
  53   2.0000      -0.472862       -12.8672
  54   2.0000      -0.466652       -12.6982
  55   2.0000      -0.450049       -12.2464
  56   2.0000      -0.437953       -11.9173
  57   2.0000      -0.434028       -11.8105
  58   2.0000      -0.431395       -11.7389
  59   2.0000      -0.430234       -11.7073
  60   2.0000      -0.422318       -11.4919
  61   2.0000      -0.413115       -11.2414
  62   2.0000      -0.404758       -11.0140
  63   2.0000      -0.359854        -9.7921
  64   2.0000      -0.337932        -9.1956
  65   2.0000      -0.332478        -9.0472
  66   2.0000      -0.281367        -7.6564
  67   0.0000       0.021403         0.5824
  68   0.0000       0.074961         2.0398
  69   0.0000       0.113188         3.0800
  70   0.0000       0.122651         3.3375
  71   0.0000       0.129932         3.5356

MULLIKEN ATOMIC CHARGES
-----------------------
   0 S :    0.129985
   1 C :   -0.134505
   2 C :   -0.072826
   3 C :    0.019629
   4 C :   -0.087163
   5 H :   -0.059032
   6 C :    0.142543
   7 H :    0.027193
   8 H :    0.027278
   9 C :   -0.141251
  10 H :    0.026514
  11 H :    0.027237
  12 C :   -0.028592
  13 H :    0.022871
  14 H :    0.043781
  15 H :    0.022963
  16 S :    0.077933
  17 C :   -0.073126
  18 C :   -0.053266
  19 C :   -0.032626
  20 C :   -0.132955
  21 H :    0.031176
  22 C :    0.072809
  23 H :    0.013096
  24 H :    0.029500
  25 C :   -0.098988
  26 H :    0.028206
  27 H :    0.020361
  28 C :   -0.024713
  29 H :    0.033532
  30 H :    0.043607
  31 H :    0.017445
  32 H :    0.044492
  33 H :    0.036890
Sum of atomic charges:    0.0000000

LOEWDIN ATOMIC CHARGES
----------------------
   0 S :    0.433721
   1 C :   -0.200953
   2 C :   -0.064525
   3 C :   -0.053054
   4 C :   -0.186756
   5 H :    0.009657
   6 C :   -0.020583
   7 H :    0.031842
   8 H :    0.030445
   9 C :   -0.051662
  10 H :    0.021224
  11 H :    0.022876
  12 C :   -0.064092
  13 H :    0.027711
  14 H :    0.029786
  15 H :    0.021216
  16 S :    0.406065
  17 C :   -0.184107
  18 C :   -0.081548
  19 C :   -0.062846
  20 C :   -0.181796
  21 H :    0.038722
  22 C :   -0.029642
  23 H :    0.022035
  24 H :    0.033648
  25 C :   -0.046933
  26 H :    0.025698
  27 H :    0.021374
  28 C :   -0.059345
  29 H :    0.028089
  30 H :    0.029082
  31 H :    0.016544
  32 H :    0.022734
  33 H :    0.015375

  Mayer bond orders larger than 0.100000
B(  0-S ,  1-C ) :   1.1861 B(  0-S ,  4-C ) :   1.1493 B(  1-C ,  2-C ) :   1.5692
B(  1-C , 32-H ) :   0.9703 B(  2-C ,  3-C ) :   1.2849 B(  2-C ,  6-C ) :   1.0055
B(  3-C ,  4-C ) :   1.5377 B(  3-C ,  5-H ) :   1.0098 B(  4-C , 20-C ) :   1.0516
B(  6-C ,  7-H ) :   0.9410 B(  6-C ,  8-H ) :   0.9380 B(  6-C ,  9-C ) :   1.0581
B(  9-C , 10-H ) :   0.9511 B(  9-C , 11-H ) :   0.9546 B(  9-C , 12-C ) :   1.0905
B( 12-C , 13-H ) :   0.9733 B( 12-C , 14-H ) :   0.9716 B( 12-C , 15-H ) :   0.9701
B( 16-S , 17-C ) :   1.1853 B( 16-S , 20-C ) :   1.1495 B( 17-C , 18-C ) :   1.5355
B( 17-C , 20-C ) :   0.1176 B( 17-C , 33-H ) :   0.9840 B( 18-C , 19-C ) :   1.2961
B( 18-C , 21-H ) :   0.9903 B( 19-C , 20-C ) :   1.5513 B( 19-C , 22-C ) :   1.0312
B( 22-C , 23-H ) :   0.9367 B( 22-C , 24-H ) :   0.9359 B( 22-C , 25-C ) :   1.0649
B( 25-C , 26-H ) :   0.9515 B( 25-C , 27-H ) :   0.9537 B( 25-C , 28-C ) :   1.0805
B( 28-C , 29-H ) :   0.9708 B( 28-C , 30-H ) :   0.9747 B( 28-C , 31-H ) :   0.9742

Dispersion correction           -0.014169960
FINAL SINGLE POINT ENERGY     -1339.862632891702

DIPOLE MOMENT
-------------
                                X             Y             Z
Electronic contribution:    -19.17231     -20.68189     -19.60436
Nuclear contribution   :     19.49547      21.09268      20.02691
                        -----------------------------------------
Total Dipole Moment    :      0.32316       0.41079       0.42255
                        -----------------------------------------
Magnitude (a.u.)       :      0.67211
Magnitude (Debye)      :      1.70836

Rotational constants in cm-1:     0.017215     0.009604     0.006397
Rotational constants in MHz :   516.079305   287.932622   191.779720

                             ****ORCA TERMINATED NORMALLY****
TOTAL RUN TIME: 0 days 0 hours 0 minutes 21 seconds 761 msec
