                         Program Version 4.2.1 -  RELEASE  -
|  1> ! wB97X-D3 SP def2-SVP
|  2> %pal
|  3> nprocs 24
|  4> end
|  5>
|  6> * xyz 0 1
|  7> S 	 -83.4255 	 -43.5653 	 -86.7014
|  8> C 	 -82.9231 	 -42.0497 	 -86.0425
|  9> C 	 -82.429 	 -41.2012 	 -87.0764
| 10> C 	 -82.4977 	 -41.8148 	 -88.3658
| 11> C 	 -83.0742 	 -43.0347 	 -88.3199
| 12> H 	 -82.1902 	 -41.3116 	 -89.2232
| 13> C 	 -81.9507 	 -39.7901 	 -86.8072
| 14> H 	 -80.917 	 -39.6376 	 -87.1758
| 15> H 	 -81.9087 	 -39.6701 	 -85.7339
| 16> C 	 -82.8507 	 -38.7174 	 -87.3198
| 17> H 	 -83.299 	 -38.9842 	 -88.2621
| 18> H 	 -83.7732 	 -38.7795 	 -86.7533
| 19> C 	 -82.2519 	 -37.3455 	 -87.3725
| 20> H 	 -82.9379 	 -36.6277 	 -87.8424
| 21> H 	 -82.1504 	 -37.0211 	 -86.3587
| 22> H 	 -81.2618 	 -37.3403 	 -87.8605
| 23> S 	 -81.928 	 -44.3523 	 -90.4604
| 24> C 	 -82.8909 	 -45.4982 	 -91.3251
| 25> C 	 -84.1943 	 -45.5558 	 -90.9019
| 26> C 	 -84.4711 	 -44.6685 	 -89.8516
| 27> C 	 -83.3341 	 -43.9347 	 -89.4492
| 28> H 	 -84.8252 	 -46.2192 	 -91.431
| 29> C 	 -85.7591 	 -44.7284 	 -89.0202
| 30> H 	 -86.5082 	 -44.7903 	 -89.8341
| 31> H 	 -86.0295 	 -43.816 	 -88.4207
| 32> C 	 -85.9175 	 -45.8295 	 -87.9802
| 33> H 	 -86.5878 	 -45.5393 	 -87.1779
| 34> H 	 -84.9019 	 -45.9818 	 -87.498
| 35> C 	 -86.5041 	 -47.1401 	 -88.6055
| 36> H 	 -87.5126 	 -47.1169 	 -88.9532
| 37> H 	 -86.5261 	 -47.8444 	 -87.6722
| 38> H 	 -85.8541 	 -47.6071 	 -89.3268
| 39> H 	 -82.9843 	 -41.6812 	 -85.047
| 40> H 	 -82.5665 	 -46.0922 	 -92.169
| 41> *
| 42>
| 43>                          ****END OF INPUT****

CARTESIAN COORDINATES (ANGSTROEM)
---------------------------------
  S    -83.425500  -43.565300  -86.701400
  C    -82.923100  -42.049700  -86.042500
  C    -82.429000  -41.201200  -87.076400
  C    -82.497700  -41.814800  -88.365800
  C    -83.074200  -43.034700  -88.319900
  H    -82.190200  -41.311600  -89.223200
  C    -81.950700  -39.790100  -86.807200
  H    -80.917000  -39.637600  -87.175800
  H    -81.908700  -39.670100  -85.733900
  C    -82.850700  -38.717400  -87.319800
  H    -83.299000  -38.984200  -88.262100
  H    -83.773200  -38.779500  -86.753300
  C    -82.251900  -37.345500  -87.372500
  H    -82.937900  -36.627700  -87.842400
  H    -82.150400  -37.021100  -86.358700
  H    -81.261800  -37.340300  -87.860500
  S    -81.928000  -44.352300  -90.460400
  C    -82.890900  -45.498200  -91.325100
  C    -84.194300  -45.555800  -90.901900
  C    -84.471100  -44.668500  -89.851600
  C    -83.334100  -43.934700  -89.449200
  H    -84.825200  -46.219200  -91.431000
  C    -85.759100  -44.728400  -89.020200
  H    -86.508200  -44.790300  -89.834100
  H    -86.029500  -43.816000  -88.420700
  C    -85.917500  -45.829500  -87.980200
  H    -86.587800  -45.539300  -87.177900
  H    -84.901900  -45.981800  -87.498000
  C    -86.504100  -47.140100  -88.605500
  H    -87.512600  -47.116900  -88.953200
  H    -86.526100  -47.844400  -87.672200
  H    -85.854100  -47.607100  -89.326800
  H    -82.984300  -41.681200  -85.047000
  H    -82.566500  -46.092200  -92.169000

 Total Charge           Charge          ....    0
 Multiplicity           Mult            ....    1
 Number of Electrons    NEL             ....  134
 Basis Dimension        Dim             ....  322

ORBITAL ENERGIES
----------------

  NO   OCC          E(Eh)            E(eV)
   0   2.0000     -88.969608     -2420.9861
   1   2.0000     -88.967495     -2420.9286
   2   2.0000     -10.328150      -281.0433
   3   2.0000     -10.326937      -281.0102
   4   2.0000     -10.313942      -280.6566
   5   2.0000     -10.312664      -280.6218
   6   2.0000     -10.306375      -280.4507
   7   2.0000     -10.301842      -280.3274
   8   2.0000     -10.291099      -280.0350
   9   2.0000     -10.289834      -280.0006
  10   2.0000     -10.288967      -279.9770
  11   2.0000     -10.288424      -279.9623
  12   2.0000     -10.287495      -279.9370
  13   2.0000     -10.280268      -279.7403
  14   2.0000     -10.276692      -279.6430
  15   2.0000     -10.275231      -279.6033
  16   2.0000      -8.084123      -219.9802
  17   2.0000      -8.081929      -219.9205
  18   2.0000      -6.042652      -164.4289
  19   2.0000      -6.040262      -164.3639
  20   2.0000      -6.038569      -164.3178
  21   2.0000      -6.036454      -164.2603
  22   2.0000      -6.034994      -164.2205
  23   2.0000      -6.032931      -164.1644
  24   2.0000      -1.007866       -27.4254
  25   2.0000      -0.985667       -26.8214
  26   2.0000      -0.919329       -25.0162
  27   2.0000      -0.903291       -24.5798
  28   2.0000      -0.869617       -23.6635
  29   2.0000      -0.854115       -23.2417
  30   2.0000      -0.845464       -23.0062
  31   2.0000      -0.817590       -22.2477
  32   2.0000      -0.782019       -21.2798
  33   2.0000      -0.768578       -20.9141
  34   2.0000      -0.709647       -19.3105
  35   2.0000      -0.697451       -18.9786
  36   2.0000      -0.688892       -18.7457
  37   2.0000      -0.664213       -18.0742
  38   2.0000      -0.641757       -17.4631
  39   2.0000      -0.625996       -17.0342
  40   2.0000      -0.594193       -16.1688
  41   2.0000      -0.573505       -15.6059
  42   2.0000      -0.561892       -15.2899
  43   2.0000      -0.548010       -14.9121
  44   2.0000      -0.536890       -14.6095
  45   2.0000      -0.527649       -14.3581
  46   2.0000      -0.517530       -14.0827
  47   2.0000      -0.509429       -13.8623
  48   2.0000      -0.502041       -13.6612
  49   2.0000      -0.497150       -13.5281
  50   2.0000      -0.492526       -13.4023
  51   2.0000      -0.485858       -13.2209
  52   2.0000      -0.472973       -12.8703
  53   2.0000      -0.466493       -12.6939
  54   2.0000      -0.460892       -12.5415
  55   2.0000      -0.455536       -12.3958
  56   2.0000      -0.445109       -12.1120
  57   2.0000      -0.442344       -12.0368
  58   2.0000      -0.438108       -11.9215
  59   2.0000      -0.422857       -11.5065
  60   2.0000      -0.412695       -11.2300
  61   2.0000      -0.405553       -11.0356
  62   2.0000      -0.398244       -10.8368
  63   2.0000      -0.345790        -9.4094
  64   2.0000      -0.336776        -9.1641
  65   2.0000      -0.326973        -8.8974
  66   2.0000      -0.292978        -7.9723
  67   0.0000       0.031409         0.8547
  68   0.0000       0.070416         1.9161
  69   0.0000       0.108679         2.9573
  70   0.0000       0.116819         3.1788
  71   0.0000       0.128906         3.5077

MULLIKEN ATOMIC CHARGES
-----------------------
   0 S :    0.119178
   1 C :   -0.093618
   2 C :   -0.134829
   3 C :    0.054540
   4 C :   -0.120924
   5 H :   -0.011795
   6 C :    0.082114
   7 H :    0.029500
   8 H :    0.006204
   9 C :   -0.070609
  10 H :    0.009819
  11 H :    0.009388
  12 C :   -0.017608
  13 H :    0.037534
  14 H :    0.020829
  15 H :    0.037370
  16 S :    0.117119
  17 C :   -0.089596
  18 C :   -0.037513
  19 C :    0.004693
  20 C :   -0.168716
  21 H :    0.006114
  22 C :    0.019906
  23 H :    0.024940
  24 H :    0.038363
  25 C :   -0.065401
  26 H :    0.032845
  27 H :    0.044989
  28 C :   -0.078729
  29 H :    0.036208
  30 H :    0.034923
  31 H :    0.036925
  32 H :    0.033843
  33 H :    0.051995
Sum of atomic charges:    0.0000000

LOEWDIN ATOMIC CHARGES
----------------------
   0 S :    0.434507
   1 C :   -0.210088
   2 C :   -0.052079
   3 C :   -0.056521
   4 C :   -0.193209
   5 H :    0.023851
   6 C :   -0.032701
   7 H :    0.031647
   8 H :    0.026635
   9 C :   -0.052537
  10 H :    0.017864
  11 H :    0.025247
  12 C :   -0.060742
  13 H :    0.031314
  14 H :    0.022080
  15 H :    0.028793
  16 S :    0.409131
  17 C :   -0.187227
  18 C :   -0.072185
  19 C :   -0.053746
  20 C :   -0.190867
  21 H :    0.027673
  22 C :   -0.048499
  23 H :    0.030393
  24 H :    0.035843
  25 C :   -0.044384
  26 H :    0.025590
  27 H :    0.027499
  28 C :   -0.071255
  29 H :    0.019857
  30 H :    0.036183
  31 H :    0.019653
  32 H :    0.022992
  33 H :    0.029291

  Mayer bond orders larger than 0.100000
B(  0-S ,  1-C ) :   1.1407 B(  0-S ,  4-C ) :   1.1562 B(  1-C ,  2-C ) :   1.5976
B(  1-C , 32-H ) :   0.9683 B(  2-C ,  3-C ) :   1.2489 B(  2-C ,  6-C ) :   1.0403
B(  3-C ,  4-C ) :   1.5606 B(  3-C ,  5-H ) :   1.0111 B(  4-C , 20-C ) :   1.0205
B(  6-C ,  7-H ) :   0.9379 B(  6-C ,  8-H ) :   0.9341 B(  6-C ,  9-C ) :   1.0584
B(  9-C , 10-H ) :   0.9584 B(  9-C , 11-H ) :   0.9404 B(  9-C , 12-C ) :   1.0830
B( 12-C , 13-H ) :   0.9705 B( 12-C , 14-H ) :   0.9729 B( 12-C , 15-H ) :   0.9738
B( 16-S , 17-C ) :   1.1642 B( 16-S , 20-C ) :   1.1473 B( 17-C , 18-C ) :   1.6129
B( 17-C , 20-C ) :   0.1012 B( 17-C , 33-H ) :   0.9628 B( 18-C , 19-C ) :   1.2391
B( 18-C , 21-H ) :   0.9958 B( 19-C , 20-C ) :   1.5661 B( 19-C , 22-C ) :   1.0516
B( 22-C , 23-H ) :   0.9354 B( 22-C , 24-H ) :   0.9393 B( 22-C , 25-C ) :   1.0516
B( 25-C , 26-H ) :   0.9588 B( 25-C , 27-H ) :   0.9506 B( 25-C , 28-C ) :   1.0770
B( 28-C , 29-H ) :   0.9766 B( 28-C , 30-H ) :   0.9744 B( 28-C , 31-H ) :   0.9764

Dispersion correction           -0.014418008
FINAL SINGLE POINT ENERGY     -1339.879077363389

DIPOLE MOMENT
-------------
                                X             Y             Z
Electronic contribution:     10.17369     -10.33108      -5.34259
Nuclear contribution   :    -10.41488      10.53986       5.34858
                        -----------------------------------------
Total Dipole Moment    :     -0.24119       0.20877       0.00599
                        -----------------------------------------
Magnitude (a.u.)       :      0.31905
Magnitude (Debye)      :      0.81096

Rotational constants in cm-1:     0.023309     0.007448     0.006349
Rotational constants in MHz :   698.774236   223.284791   190.325510

                             ****ORCA TERMINATED NORMALLY****
TOTAL RUN TIME: 0 days 0 hours 0 minutes 20 seconds 197 msec
