                         Program Version 4.2.1 -  RELEASE  -
|  1> ! wB97X-D3 SP def2-SVP
|  2> %pal
|  3> nprocs 24
|  4> end
|  5>
|  6> * xyz 0 1
|  7> S 	 -58.8009 	 -2.9499 	 -23.0135
|  8> C 	 -58.5222 	 -3.51309 	 -24.6387
|  9> C 	 -58.958 	 -2.65569 	 -25.5978
| 10> C 	 -59.5957 	 -1.48883 	 -25.0444
| 11> C 	 -59.575 	 -1.48735 	 -23.6712
| 12> H 	 -60.1226 	 -0.661677 	 -25.6286
| 13> C 	 -58.8368 	 -2.84829 	 -27.0933
| 14> H 	 -57.7744 	 -3.01148 	 -27.3535
| 15> H 	 -59.0705 	 -1.9715 	 -27.6234
| 16> C 	 -59.7107 	 -3.9471 	 -27.703
| 17> H 	 -59.858 	 -4.70757 	 -26.9387
| 18> H 	 -60.7404 	 -3.5696 	 -27.9905
| 19> C 	 -59.171 	 -4.48778 	 -29.0597
| 20> H 	 -58.2136 	 -4.97628 	 -28.9627
| 21> H 	 -59.9 	 -5.20138 	 -29.3686
| 22> H 	 -59.0619 	 -3.75746 	 -29.9095
| 23> S 	 -60.6567 	 -1.12951 	 -21.2364
| 24> C 	 -61.4716 	 0.28388 	 -20.8015
| 25> C 	 -61.255 	 1.20963 	 -21.7803
| 26> C 	 -60.7059 	 0.736531 	 -23.0282
| 27> C 	 -60.1871 	 -0.546273 	 -22.7928
| 28> H 	 -61.7061 	 2.14079 	 -21.547
| 29> C 	 -60.469 	 1.58487 	 -24.197
| 30> H 	 -61.0742 	 2.47319 	 -24.056
| 31> H 	 -60.9437 	 1.22141 	 -25.1037
| 32> C 	 -58.9525 	 1.87124 	 -24.5083
| 33> H 	 -58.8271 	 2.45917 	 -25.4503
| 34> H 	 -58.5299 	 0.88772 	 -24.5836
| 35> C 	 -58.2611 	 2.68089 	 -23.4531
| 36> H 	 -58.8524 	 3.54108 	 -23.0369
| 37> H 	 -57.2973 	 3.04538 	 -23.717
| 38> H 	 -58.0262 	 2.10577 	 -22.583
| 39> H 	 -57.9908 	 -4.40449 	 -24.883
| 40> H 	 -61.9223 	 0.511383 	 -19.801
| 41> *
| 42>
| 43>                          ****END OF INPUT****

CARTESIAN COORDINATES (ANGSTROEM)
---------------------------------
  S    -58.800900   -2.949900  -23.013500
  C    -58.522200   -3.513090  -24.638700
  C    -58.958000   -2.655690  -25.597800
  C    -59.595700   -1.488830  -25.044400
  C    -59.575000   -1.487350  -23.671200
  H    -60.122600   -0.661677  -25.628600
  C    -58.836800   -2.848290  -27.093300
  H    -57.774400   -3.011480  -27.353500
  H    -59.070500   -1.971500  -27.623400
  C    -59.710700   -3.947100  -27.703000
  H    -59.858000   -4.707570  -26.938700
  H    -60.740400   -3.569600  -27.990500
  C    -59.171000   -4.487780  -29.059700
  H    -58.213600   -4.976280  -28.962700
  H    -59.900000   -5.201380  -29.368600
  H    -59.061900   -3.757460  -29.909500
  S    -60.656700   -1.129510  -21.236400
  C    -61.471600    0.283880  -20.801500
  C    -61.255000    1.209630  -21.780300
  C    -60.705900    0.736531  -23.028200
  C    -60.187100   -0.546273  -22.792800
  H    -61.706100    2.140790  -21.547000
  C    -60.469000    1.584870  -24.197000
  H    -61.074200    2.473190  -24.056000
  H    -60.943700    1.221410  -25.103700
  C    -58.952500    1.871240  -24.508300
  H    -58.827100    2.459170  -25.450300
  H    -58.529900    0.887720  -24.583600
  C    -58.261100    2.680890  -23.453100
  H    -58.852400    3.541080  -23.036900
  H    -57.297300    3.045380  -23.717000
  H    -58.026200    2.105770  -22.583000
  H    -57.990800   -4.404490  -24.883000
  H    -61.922300    0.511383  -19.801000

 Total Charge           Charge          ....    0
 Multiplicity           Mult            ....    1
 Number of Electrons    NEL             ....  134
 Basis Dimension        Dim             ....  322

ORBITAL ENERGIES
----------------

  NO   OCC          E(Eh)            E(eV)
   0   2.0000     -88.967577     -2420.9308
   1   2.0000     -88.962573     -2420.7947
   2   2.0000     -10.329506      -281.0801
   3   2.0000     -10.323958      -280.9292
   4   2.0000     -10.312890      -280.6280
   5   2.0000     -10.309210      -280.5279
   6   2.0000     -10.304049      -280.3874
   7   2.0000     -10.299131      -280.2536
   8   2.0000     -10.298536      -280.2374
   9   2.0000     -10.291406      -280.0434
  10   2.0000     -10.291030      -280.0332
  11   2.0000     -10.288593      -279.9668
  12   2.0000     -10.286813      -279.9184
  13   2.0000     -10.286436      -279.9081
  14   2.0000     -10.280222      -279.7391
  15   2.0000     -10.266865      -279.3756
  16   2.0000      -8.082006      -219.9226
  17   2.0000      -8.079016      -219.8412
  18   2.0000      -6.040652      -164.3745
  19   2.0000      -6.037394      -164.2858
  20   2.0000      -6.036720      -164.2675
  21   2.0000      -6.033152      -164.1704
  22   2.0000      -6.032486      -164.1523
  23   2.0000      -6.029945      -164.0831
  24   2.0000      -1.015977       -27.6461
  25   2.0000      -0.988526       -26.8992
  26   2.0000      -0.914539       -24.8859
  27   2.0000      -0.910844       -24.7853
  28   2.0000      -0.874311       -23.7912
  29   2.0000      -0.854150       -23.2426
  30   2.0000      -0.845327       -23.0025
  31   2.0000      -0.816272       -22.2119
  32   2.0000      -0.786654       -21.4059
  33   2.0000      -0.775657       -21.1067
  34   2.0000      -0.712701       -19.3936
  35   2.0000      -0.700201       -19.0534
  36   2.0000      -0.692894       -18.8546
  37   2.0000      -0.667156       -18.1542
  38   2.0000      -0.633426       -17.2364
  39   2.0000      -0.618350       -16.8262
  40   2.0000      -0.597004       -16.2453
  41   2.0000      -0.573619       -15.6090
  42   2.0000      -0.559019       -15.2117
  43   2.0000      -0.551252       -15.0003
  44   2.0000      -0.544435       -14.8148
  45   2.0000      -0.523080       -14.2337
  46   2.0000      -0.515570       -14.0294
  47   2.0000      -0.508892       -13.8477
  48   2.0000      -0.505210       -13.7475
  49   2.0000      -0.502284       -13.6678
  50   2.0000      -0.491389       -13.3714
  51   2.0000      -0.486062       -13.2264
  52   2.0000      -0.478744       -13.0273
  53   2.0000      -0.464284       -12.6338
  54   2.0000      -0.463067       -12.6007
  55   2.0000      -0.448707       -12.2099
  56   2.0000      -0.440459       -11.9855
  57   2.0000      -0.437760       -11.9121
  58   2.0000      -0.432321       -11.7641
  59   2.0000      -0.425188       -11.5700
  60   2.0000      -0.420410       -11.4399
  61   2.0000      -0.412947       -11.2369
  62   2.0000      -0.406623       -11.0648
  63   2.0000      -0.366039        -9.9604
  64   2.0000      -0.335579        -9.1316
  65   2.0000      -0.325882        -8.8677
  66   2.0000      -0.281070        -7.6483
  67   0.0000       0.019575         0.5327
  68   0.0000       0.083924         2.2837
  69   0.0000       0.102418         2.7869
  70   0.0000       0.120090         3.2678
  71   0.0000       0.140904         3.8342

MULLIKEN ATOMIC CHARGES
-----------------------
   0 S :    0.103599
   1 C :   -0.106482
   2 C :   -0.076951
   3 C :   -0.035260
   4 C :   -0.113333
   5 H :    0.039323
   6 C :    0.095875
   7 H :    0.031882
   8 H :    0.000742
   9 C :   -0.098338
  10 H :    0.033520
  11 H :    0.036619
  12 C :   -0.058239
  13 H :    0.030541
  14 H :    0.030478
  15 H :    0.039507
  16 S :    0.098851
  17 C :   -0.110201
  18 C :   -0.024028
  19 C :   -0.053663
  20 C :   -0.118934
  21 H :    0.001037
  22 C :    0.049569
  23 H :    0.007905
  24 H :    0.026912
  25 C :   -0.054196
  26 H :    0.035787
  27 H :    0.042073
  28 C :   -0.035971
  29 H :    0.026578
  30 H :    0.020230
  31 H :    0.023025
  32 H :    0.033319
  33 H :    0.078224
Sum of atomic charges:   -0.0000000

LOEWDIN ATOMIC CHARGES
----------------------
   0 S :    0.388083
   1 C :   -0.192058
   2 C :   -0.061832
   3 C :   -0.071810
   4 C :   -0.178547
   5 H :    0.045623
   6 C :   -0.034826
   7 H :    0.034932
   8 H :    0.022670
   9 C :   -0.039531
  10 H :    0.022184
  11 H :    0.030992
  12 C :   -0.068028
  13 H :    0.019629
  14 H :    0.024123
  15 H :    0.030931
  16 S :    0.435663
  17 C :   -0.216881
  18 C :   -0.071389
  19 C :   -0.057304
  20 C :   -0.199991
  21 H :    0.023059
  22 C :   -0.038809
  23 H :    0.030337
  24 H :    0.029629
  25 C :   -0.034001
  26 H :    0.029525
  27 H :    0.025157
  28 C :   -0.070159
  29 H :    0.028579
  30 H :    0.021584
  31 H :    0.023504
  32 H :    0.023513
  33 H :    0.045447

  Mayer bond orders larger than 0.100000
B(  0-S ,  1-C ) :   1.1168 B(  0-S ,  4-C ) :   1.1279 B(  1-C ,  2-C ) :   1.6469
B(  1-C , 32-H ) :   0.9678 B(  2-C ,  3-C ) :   1.2277 B(  2-C ,  6-C ) :   1.0245
B(  3-C ,  4-C ) :   1.5872 B(  3-C ,  5-H ) :   0.9708 B(  4-C , 20-C ) :   1.1064
B(  6-C ,  7-H ) :   0.9450 B(  6-C ,  8-H ) :   0.9335 B(  6-C ,  9-C ) :   1.0506
B(  9-C , 10-H ) :   0.9646 B(  9-C , 11-H ) :   0.9571 B(  9-C , 12-C ) :   1.0722
B( 12-C , 13-H ) :   0.9769 B( 12-C , 14-H ) :   0.9752 B( 12-C , 15-H ) :   0.9758
B( 16-S , 17-C ) :   1.1650 B( 16-S , 20-C ) :   1.1604 B( 17-C , 18-C ) :   1.6087
B( 17-C , 33-H ) :   0.9597 B( 18-C , 19-C ) :   1.2452 B( 18-C , 21-H ) :   0.9883
B( 19-C , 20-C ) :   1.5232 B( 19-C , 22-C ) :   1.0728 B( 22-C , 23-H ) :   0.9217
B( 22-C , 24-H ) :   0.9224 B( 22-C , 25-C ) :   1.0595 B( 25-C , 26-H ) :   0.9570
B( 25-C , 27-H ) :   0.9502 B( 25-C , 28-C ) :   1.0822 B( 28-C , 29-H ) :   0.9748
B( 28-C , 30-H ) :   0.9720 B( 28-C , 31-H ) :   0.9701

Dispersion correction           -0.014518142
FINAL SINGLE POINT ENERGY     -1339.877762290062

DIPOLE MOMENT
-------------
                                X             Y             Z
Electronic contribution:     -4.18113      -6.70733      24.83219
Nuclear contribution   :      4.10324       7.00640     -25.33871
                        -----------------------------------------
Total Dipole Moment    :     -0.07788       0.29907      -0.50651
                        -----------------------------------------
Magnitude (a.u.)       :      0.59335
Magnitude (Debye)      :      1.50817

Rotational constants in cm-1:     0.022101     0.007996     0.006666
Rotational constants in MHz :   662.567768   239.706112   199.830395

                             ****ORCA TERMINATED NORMALLY****
TOTAL RUN TIME: 0 days 0 hours 0 minutes 20 seconds 808 msec
