                         Program Version 4.2.1 -  RELEASE  -
|  1> ! wB97X-D3 SP def2-SVP
|  2> %pal
|  3> nprocs 24
|  4> end
|  5>
|  6> * xyz 0 1
|  7> S 	 -86.6095 	 -29.8464 	 -59.7162
|  8> C 	 -86.8181 	 -28.1463 	 -60.2368
|  9> C 	 -87.8462 	 -27.5189 	 -59.5943
| 10> C 	 -88.5021 	 -28.4012 	 -58.7358
| 11> C 	 -87.9907 	 -29.6647 	 -58.6396
| 12> H 	 -89.3002 	 -28.0383 	 -58.1195
| 13> C 	 -88.4238 	 -26.1899 	 -60.0699
| 14> H 	 -87.5914 	 -25.5127 	 -60.1183
| 15> H 	 -89.2396 	 -25.9349 	 -59.3663
| 16> C 	 -89.0344 	 -26.3271 	 -61.466
| 17> H 	 -89.3839 	 -25.33 	 -61.8265
| 18> H 	 -88.2788 	 -26.6506 	 -62.272
| 19> C 	 -90.3168 	 -27.0983 	 -61.3995
| 20> H 	 -90.1317 	 -28.0885 	 -61.058
| 21> H 	 -90.8808 	 -26.5225 	 -60.6368
| 22> H 	 -90.8316 	 -27.1769 	 -62.3879
| 23> S 	 -89.3559 	 -32.1534 	 -58.3663
| 24> C 	 -88.9059 	 -33.113 	 -56.9676
| 25> C 	 -88.0621 	 -32.3965 	 -56.0778
| 26> C 	 -87.7663 	 -31.0741 	 -56.5537
| 27> C 	 -88.3568 	 -30.8027 	 -57.7666
| 28> H 	 -87.7441 	 -32.8669 	 -55.1539
| 29> C 	 -86.808 	 -30.201 	 -55.7184
| 30> H 	 -86.3982 	 -29.3982 	 -56.3638
| 31> H 	 -85.984 	 -30.8069 	 -55.5272
| 32> C 	 -87.2413 	 -29.5982 	 -54.429
| 33> H 	 -87.401 	 -30.3573 	 -53.6705
| 34> H 	 -88.2521 	 -29.3273 	 -54.6127
| 35> C 	 -86.3012 	 -28.5475 	 -53.8289
| 36> H 	 -85.9952 	 -27.707 	 -54.504
| 37> H 	 -85.3328 	 -28.9901 	 -53.493
| 38> H 	 -86.791 	 -28.0729 	 -52.982
| 39> H 	 -86.4475 	 -27.7939 	 -61.102
| 40> H 	 -89.1357 	 -34.1366 	 -56.7893
| 41> *
| 42>
| 43>                          ****END OF INPUT****

CARTESIAN COORDINATES (ANGSTROEM)
---------------------------------
  S    -86.609500  -29.846400  -59.716200
  C    -86.818100  -28.146300  -60.236800
  C    -87.846200  -27.518900  -59.594300
  C    -88.502100  -28.401200  -58.735800
  C    -87.990700  -29.664700  -58.639600
  H    -89.300200  -28.038300  -58.119500
  C    -88.423800  -26.189900  -60.069900
  H    -87.591400  -25.512700  -60.118300
  H    -89.239600  -25.934900  -59.366300
  C    -89.034400  -26.327100  -61.466000
  H    -89.383900  -25.330000  -61.826500
  H    -88.278800  -26.650600  -62.272000
  C    -90.316800  -27.098300  -61.399500
  H    -90.131700  -28.088500  -61.058000
  H    -90.880800  -26.522500  -60.636800
  H    -90.831600  -27.176900  -62.387900
  S    -89.355900  -32.153400  -58.366300
  C    -88.905900  -33.113000  -56.967600
  C    -88.062100  -32.396500  -56.077800
  C    -87.766300  -31.074100  -56.553700
  C    -88.356800  -30.802700  -57.766600
  H    -87.744100  -32.866900  -55.153900
  C    -86.808000  -30.201000  -55.718400
  H    -86.398200  -29.398200  -56.363800
  H    -85.984000  -30.806900  -55.527200
  C    -87.241300  -29.598200  -54.429000
  H    -87.401000  -30.357300  -53.670500
  H    -88.252100  -29.327300  -54.612700
  C    -86.301200  -28.547500  -53.828900
  H    -85.995200  -27.707000  -54.504000
  H    -85.332800  -28.990100  -53.493000
  H    -86.791000  -28.072900  -52.982000
  H    -86.447500  -27.793900  -61.102000
  H    -89.135700  -34.136600  -56.789300

 Total Charge           Charge          ....    0
 Multiplicity           Mult            ....    1
 Number of Electrons    NEL             ....  134
 Basis Dimension        Dim             ....  322

ORBITAL ENERGIES
----------------

  NO   OCC          E(Eh)            E(eV)
   0   2.0000     -88.970682     -2421.0153
   1   2.0000     -88.964543     -2420.8483
   2   2.0000     -10.328716      -281.0586
   3   2.0000     -10.327502      -281.0256
   4   2.0000     -10.321307      -280.8570
   5   2.0000     -10.305762      -280.4340
   6   2.0000     -10.303780      -280.3801
   7   2.0000     -10.297319      -280.2043
   8   2.0000     -10.295649      -280.1588
   9   2.0000     -10.292838      -280.0824
  10   2.0000     -10.291922      -280.0574
  11   2.0000     -10.288377      -279.9610
  12   2.0000     -10.284949      -279.8677
  13   2.0000     -10.282131      -279.7910
  14   2.0000     -10.279157      -279.7101
  15   2.0000     -10.275456      -279.6094
  16   2.0000      -8.084452      -219.9891
  17   2.0000      -8.078525      -219.8278
  18   2.0000      -6.043016      -164.4388
  19   2.0000      -6.039120      -164.3328
  20   2.0000      -6.036999      -164.2751
  21   2.0000      -6.035196      -164.2260
  22   2.0000      -6.033151      -164.1704
  23   2.0000      -6.029348      -164.0669
  24   2.0000      -1.002804       -27.2877
  25   2.0000      -0.981170       -26.6990
  26   2.0000      -0.918721       -24.9997
  27   2.0000      -0.911661       -24.8076
  28   2.0000      -0.865664       -23.5559
  29   2.0000      -0.849439       -23.1144
  30   2.0000      -0.844361       -22.9762
  31   2.0000      -0.813960       -22.1490
  32   2.0000      -0.785207       -21.3666
  33   2.0000      -0.772877       -21.0311
  34   2.0000      -0.707787       -19.2599
  35   2.0000      -0.699877       -19.0446
  36   2.0000      -0.691940       -18.8286
  37   2.0000      -0.660372       -17.9696
  38   2.0000      -0.641722       -17.4622
  39   2.0000      -0.617610       -16.8060
  40   2.0000      -0.595036       -16.1918
  41   2.0000      -0.578702       -15.7473
  42   2.0000      -0.565498       -15.3880
  43   2.0000      -0.559564       -15.2265
  44   2.0000      -0.544236       -14.8094
  45   2.0000      -0.520713       -14.1693
  46   2.0000      -0.518379       -14.1058
  47   2.0000      -0.511202       -13.9105
  48   2.0000      -0.503854       -13.7106
  49   2.0000      -0.491238       -13.3673
  50   2.0000      -0.490556       -13.3487
  51   2.0000      -0.473385       -12.8815
  52   2.0000      -0.469161       -12.7665
  53   2.0000      -0.462772       -12.5927
  54   2.0000      -0.458790       -12.4843
  55   2.0000      -0.444885       -12.1059
  56   2.0000      -0.439599       -11.9621
  57   2.0000      -0.436681       -11.8827
  58   2.0000      -0.435373       -11.8471
  59   2.0000      -0.434140       -11.8136
  60   2.0000      -0.424226       -11.5438
  61   2.0000      -0.409756       -11.1500
  62   2.0000      -0.407917       -11.1000
  63   2.0000      -0.338314        -9.2060
  64   2.0000      -0.330757        -9.0004
  65   2.0000      -0.316460        -8.6113
  66   2.0000      -0.314408        -8.5555
  67   0.0000       0.039885         1.0853
  68   0.0000       0.049839         1.3562
  69   0.0000       0.113867         3.0985
  70   0.0000       0.115566         3.1447
  71   0.0000       0.124014         3.3746

MULLIKEN ATOMIC CHARGES
-----------------------
   0 S :    0.109360
   1 C :   -0.077616
   2 C :   -0.101232
   3 C :    0.044521
   4 C :   -0.176012
   5 H :   -0.001318
   6 C :    0.086003
   7 H :    0.032517
   8 H :    0.026337
   9 C :   -0.105811
  10 H :    0.027405
  11 H :    0.039811
  12 C :   -0.047813
  13 H :    0.039284
  14 H :    0.025248
  15 H :    0.045692
  16 S :    0.120637
  17 C :   -0.091769
  18 C :   -0.039728
  19 C :   -0.021606
  20 C :   -0.181555
  21 H :    0.023602
  22 C :    0.100676
  23 H :    0.025416
  24 H :    0.004024
  25 C :   -0.035673
  26 H :    0.013458
  27 H :    0.014099
  28 C :   -0.064268
  29 H :    0.039449
  30 H :    0.037109
  31 H :    0.037900
  32 H :    0.000586
  33 H :    0.051267
Sum of atomic charges:    0.0000000

LOEWDIN ATOMIC CHARGES
----------------------
   0 S :    0.390177
   1 C :   -0.161443
   2 C :   -0.066568
   3 C :   -0.063564
   4 C :   -0.186214
   5 H :    0.027955
   6 C :   -0.023209
   7 H :    0.031784
   8 H :    0.032097
   9 C :   -0.048947
  10 H :    0.024152
  11 H :    0.026889
  12 C :   -0.064512
  13 H :    0.019419
  14 H :    0.028775
  15 H :    0.032213
  16 S :    0.397442
  17 C :   -0.178607
  18 C :   -0.068939
  19 C :   -0.044908
  20 C :   -0.206082
  21 H :    0.031284
  22 C :   -0.029117
  23 H :    0.033589
  24 H :    0.021254
  25 C :   -0.044611
  26 H :    0.022825
  27 H :    0.021028
  28 C :   -0.066301
  29 H :    0.029535
  30 H :    0.030124
  31 H :    0.028975
  32 H :   -0.001060
  33 H :    0.024566

  Mayer bond orders larger than 0.100000
B(  0-S ,  1-C ) :   1.1407 B(  0-S ,  4-C ) :   1.1473 B(  1-C ,  2-C ) :   1.6101
B(  1-C ,  4-C ) :   0.1009 B(  1-C , 32-H ) :   0.9762 B(  2-C ,  3-C ) :   1.2587
B(  2-C ,  6-C ) :   1.0168 B(  3-C ,  4-C ) :   1.5939 B(  3-C ,  5-H ) :   0.9974
B(  4-C , 20-C ) :   1.0012 B(  6-C ,  7-H ) :   0.9303 B(  6-C ,  8-H ) :   0.9438
B(  6-C ,  9-C ) :   1.0813 B(  9-C , 10-H ) :   0.9550 B(  9-C , 11-H ) :   0.9515
B(  9-C , 12-C ) :   1.0627 B( 12-C , 13-H ) :   0.9771 B( 12-C , 14-H ) :   0.9723
B( 12-C , 15-H ) :   0.9712 B( 16-S , 17-C ) :   1.1588 B( 16-S , 20-C ) :   1.1302
B( 17-C , 18-C ) :   1.6125 B( 17-C , 33-H ) :   0.9692 B( 18-C , 19-C ) :   1.2316
B( 18-C , 21-H ) :   0.9897 B( 19-C , 20-C ) :   1.6198 B( 19-C , 22-C ) :   1.0376
B( 22-C , 23-H ) :   0.9285 B( 22-C , 24-H ) :   0.9262 B( 22-C , 25-C ) :   1.0690
B( 25-C , 26-H ) :   0.9444 B( 25-C , 27-H ) :   0.9526 B( 25-C , 28-C ) :   1.0805
B( 28-C , 29-H ) :   0.9761 B( 28-C , 30-H ) :   0.9738 B( 28-C , 31-H ) :   0.9739

Dispersion correction           -0.014592589
FINAL SINGLE POINT ENERGY     -1339.866824629725

DIPOLE MOMENT
-------------
                                X             Y             Z
Electronic contribution:      0.73596     -19.00695      -7.38519
Nuclear contribution   :     -0.74844      19.30440       7.62654
                        -----------------------------------------
Total Dipole Moment    :     -0.01247       0.29745       0.24135
                        -----------------------------------------
Magnitude (a.u.)       :      0.38325
Magnitude (Debye)      :      0.97415

Rotational constants in cm-1:     0.018439     0.008664     0.006983
Rotational constants in MHz :   552.775992   259.747538   209.338745

                             ****ORCA TERMINATED NORMALLY****
TOTAL RUN TIME: 0 days 0 hours 0 minutes 22 seconds 714 msec
