                         Program Version 4.2.1 -  RELEASE  -
|  1> ! wB97X-D3 SP def2-SVP
|  2> %pal
|  3> nprocs 24
|  4> end
|  5>
|  6> * xyz 0 1
|  7> S 	 -36.4751 	 2.43651 	 13.188
|  8> C 	 -35.3507 	 3.38395 	 14.1092
|  9> C 	 -35.5464 	 3.19489 	 15.4912
| 10> C 	 -36.7499 	 2.55113 	 15.787
| 11> C 	 -37.3207 	 1.99991 	 14.6722
| 12> H 	 -37.102 	 2.473 	 16.7634
| 13> C 	 -34.6296 	 3.81666 	 16.5515
| 14> H 	 -33.5701 	 3.53601 	 16.3319
| 15> H 	 -34.8027 	 3.27503 	 17.4556
| 16> C 	 -34.7082 	 5.32676 	 16.7318
| 17> H 	 -33.8422 	 5.74731 	 17.2489
| 18> H 	 -34.601 	 5.72476 	 15.7122
| 19> C 	 -35.9709 	 5.7241 	 17.5841
| 20> H 	 -35.9649 	 5.22742 	 18.5284
| 21> H 	 -36.0763 	 6.77709 	 17.791
| 22> H 	 -36.8541 	 5.62627 	 16.9323
| 23> S 	 -38.6696 	 -0.0661723 	 15.7593
| 24> C 	 -40.3419 	 -0.396012 	 15.2561
| 25> C 	 -40.7823 	 0.591089 	 14.4312
| 26> C 	 -39.7426 	 1.4346 	 13.913
| 27> C 	 -38.5698 	 1.32561 	 14.7138
| 28> H 	 -41.8154 	 0.72252 	 14.167
| 29> C 	 -39.8699 	 2.45515 	 12.7867
| 30> H 	 -40.6933 	 2.14626 	 12.0308
| 31> H 	 -38.9541 	 2.29781 	 12.1294
| 32> C 	 -40.1041 	 3.90859 	 13.323
| 33> H 	 -39.449 	 4.1451 	 14.2226
| 34> H 	 -41.1159 	 3.9618 	 13.6647
| 35> C 	 -39.9932 	 5.02684 	 12.2431
| 36> H 	 -39.591 	 5.83715 	 12.8929
| 37> H 	 -40.8514 	 5.32124 	 11.6417
| 38> H 	 -39.3103 	 4.68561 	 11.441
| 39> H 	 -34.6049 	 4.08158 	 13.6888
| 40> H 	 -40.8856 	 -1.2472 	 15.6477
| 41> *
| 42>
| 43>                          ****END OF INPUT****

CARTESIAN COORDINATES (ANGSTROEM)
---------------------------------
  S    -36.475100    2.436510   13.188000
  C    -35.350700    3.383950   14.109200
  C    -35.546400    3.194890   15.491200
  C    -36.749900    2.551130   15.787000
  C    -37.320700    1.999910   14.672200
  H    -37.102000    2.473000   16.763400
  C    -34.629600    3.816660   16.551500
  H    -33.570100    3.536010   16.331900
  H    -34.802700    3.275030   17.455600
  C    -34.708200    5.326760   16.731800
  H    -33.842200    5.747310   17.248900
  H    -34.601000    5.724760   15.712200
  C    -35.970900    5.724100   17.584100
  H    -35.964900    5.227420   18.528400
  H    -36.076300    6.777090   17.791000
  H    -36.854100    5.626270   16.932300
  S    -38.669600   -0.066172   15.759300
  C    -40.341900   -0.396012   15.256100
  C    -40.782300    0.591089   14.431200
  C    -39.742600    1.434600   13.913000
  C    -38.569800    1.325610   14.713800
  H    -41.815400    0.722520   14.167000
  C    -39.869900    2.455150   12.786700
  H    -40.693300    2.146260   12.030800
  H    -38.954100    2.297810   12.129400
  C    -40.104100    3.908590   13.323000
  H    -39.449000    4.145100   14.222600
  H    -41.115900    3.961800   13.664700
  C    -39.993200    5.026840   12.243100
  H    -39.591000    5.837150   12.892900
  H    -40.851400    5.321240   11.641700
  H    -39.310300    4.685610   11.441000
  H    -34.604900    4.081580   13.688800
  H    -40.885600   -1.247200   15.647700

 Total Charge           Charge          ....    0
 Multiplicity           Mult            ....    1
 Number of Electrons    NEL             ....  134
 Basis Dimension        Dim             ....  322

ORBITAL ENERGIES
----------------

  NO   OCC          E(Eh)            E(eV)
   0   2.0000     -88.970952     -2421.0227
   1   2.0000     -88.961918     -2420.7769
   2   2.0000     -10.324008      -280.9305
   3   2.0000     -10.322278      -280.8835
   4   2.0000     -10.316164      -280.7171
   5   2.0000     -10.315443      -280.6975
   6   2.0000     -10.304987      -280.4130
   7   2.0000     -10.303577      -280.3746
   8   2.0000     -10.298111      -280.2258
   9   2.0000     -10.293444      -280.0988
  10   2.0000     -10.290569      -280.0206
  11   2.0000     -10.290301      -280.0133
  12   2.0000     -10.289655      -279.9957
  13   2.0000     -10.285755      -279.8896
  14   2.0000     -10.278765      -279.6994
  15   2.0000     -10.277836      -279.6741
  16   2.0000      -8.085033      -220.0049
  17   2.0000      -8.076436      -219.7710
  18   2.0000      -6.043515      -164.4524
  19   2.0000      -6.039587      -164.3455
  20   2.0000      -6.035930      -164.2460
  21   2.0000      -6.034940      -164.2191
  22   2.0000      -6.030945      -164.1104
  23   2.0000      -6.027246      -164.0097
  24   2.0000      -1.008045       -27.4303
  25   2.0000      -0.981643       -26.7119
  26   2.0000      -0.908330       -24.7169
  27   2.0000      -0.896624       -24.3984
  28   2.0000      -0.872392       -23.7390
  29   2.0000      -0.851383       -23.1673
  30   2.0000      -0.841881       -22.9088
  31   2.0000      -0.811688       -22.0871
  32   2.0000      -0.780514       -21.2389
  33   2.0000      -0.762690       -20.7538
  34   2.0000      -0.707623       -19.2554
  35   2.0000      -0.702625       -19.1194
  36   2.0000      -0.689622       -18.7656
  37   2.0000      -0.662523       -18.0282
  38   2.0000      -0.641359       -17.4523
  39   2.0000      -0.614059       -16.7094
  40   2.0000      -0.592794       -16.1307
  41   2.0000      -0.571267       -15.5450
  42   2.0000      -0.554116       -15.0783
  43   2.0000      -0.545666       -14.8483
  44   2.0000      -0.541506       -14.7351
  45   2.0000      -0.529944       -14.4205
  46   2.0000      -0.513372       -13.9696
  47   2.0000      -0.509914       -13.8755
  48   2.0000      -0.505243       -13.7484
  49   2.0000      -0.495835       -13.4924
  50   2.0000      -0.489557       -13.3215
  51   2.0000      -0.480093       -13.0640
  52   2.0000      -0.468962       -12.7611
  53   2.0000      -0.465430       -12.6650
  54   2.0000      -0.453792       -12.3483
  55   2.0000      -0.446392       -12.1470
  56   2.0000      -0.441210       -12.0059
  57   2.0000      -0.435440       -11.8489
  58   2.0000      -0.431604       -11.7445
  59   2.0000      -0.425037       -11.5658
  60   2.0000      -0.418029       -11.3752
  61   2.0000      -0.411323       -11.1927
  62   2.0000      -0.401017       -10.9122
  63   2.0000      -0.347836        -9.4651
  64   2.0000      -0.334407        -9.0997
  65   2.0000      -0.322229        -8.7683
  66   2.0000      -0.282849        -7.6967
  67   0.0000       0.023964         0.6521
  68   0.0000       0.073986         2.0133
  69   0.0000       0.110050         2.9946
  70   0.0000       0.115004         3.1294
  71   0.0000       0.123604         3.3634

MULLIKEN ATOMIC CHARGES
-----------------------
   0 S :    0.123927
   1 C :   -0.150127
   2 C :   -0.079343
   3 C :    0.024512
   4 C :   -0.114787
   5 H :   -0.005886
   6 C :    0.059517
   7 H :    0.033149
   8 H :    0.005504
   9 C :   -0.054860
  10 H :    0.027772
  11 H :    0.022347
  12 C :   -0.049205
  13 H :    0.036871
  14 H :    0.022882
  15 H :    0.038848
  16 S :    0.097783
  17 C :   -0.098656
  18 C :   -0.007161
  19 C :   -0.057550
  20 C :   -0.162034
  21 H :    0.016689
  22 C :   -0.000408
  23 H :    0.035360
  24 H :    0.044753
  25 C :   -0.075594
  26 H :    0.057675
  27 H :    0.024798
  28 C :   -0.056406
  29 H :    0.047398
  30 H :    0.037949
  31 H :    0.028521
  32 H :    0.063097
  33 H :    0.062664
Sum of atomic charges:    0.0000000

LOEWDIN ATOMIC CHARGES
----------------------
   0 S :    0.423649
   1 C :   -0.209637
   2 C :   -0.060198
   3 C :   -0.054914
   4 C :   -0.193409
   5 H :    0.024094
   6 C :   -0.035511
   7 H :    0.037062
   8 H :    0.021317
   9 C :   -0.039847
  10 H :    0.022758
  11 H :    0.024219
  12 C :   -0.068387
  13 H :    0.024152
  14 H :    0.023886
  15 H :    0.031915
  16 S :    0.400029
  17 C :   -0.179013
  18 C :   -0.066697
  19 C :   -0.057206
  20 C :   -0.199552
  21 H :    0.030515
  22 C :   -0.052468
  23 H :    0.037681
  24 H :    0.025643
  25 C :   -0.041630
  26 H :    0.035561
  27 H :    0.022786
  28 C :   -0.076805
  29 H :    0.037818
  30 H :    0.023739
  31 H :    0.026085
  32 H :    0.032886
  33 H :    0.029480

  Mayer bond orders larger than 0.100000
B(  0-S ,  1-C ) :   1.1524 B(  0-S ,  4-C ) :   1.1413 B(  1-C ,  2-C ) :   1.5696
B(  1-C , 32-H ) :   0.9655 B(  2-C ,  3-C ) :   1.2767 B(  2-C ,  6-C ) :   1.0222
B(  3-C ,  4-C ) :   1.5226 B(  3-C ,  5-H ) :   1.0055 B(  4-C , 20-C ) :   1.0755
B(  6-C ,  7-H ) :   0.9378 B(  6-C ,  8-H ) :   0.9420 B(  6-C ,  9-C ) :   1.0693
B(  9-C , 10-H ) :   0.9562 B(  9-C , 11-H ) :   0.9568 B(  9-C , 12-C ) :   1.0677
B( 12-C , 13-H ) :   0.9759 B( 12-C , 14-H ) :   0.9740 B( 12-C , 15-H ) :   0.9763
B( 16-S , 17-C ) :   1.1419 B( 16-S , 20-C ) :   1.1524 B( 17-C , 18-C ) :   1.6017
B( 17-C , 20-C ) :   0.1035 B( 17-C , 33-H ) :   0.9713 B( 18-C , 19-C ) :   1.2479
B( 18-C , 21-H ) :   0.9887 B( 19-C , 20-C ) :   1.5458 B( 19-C , 22-C ) :   1.0491
B( 22-C , 23-H ) :   0.9358 B( 22-C , 24-H ) :   0.9354 B( 22-C , 25-C ) :   1.0429
B( 25-C , 26-H ) :   0.9703 B( 25-C , 27-H ) :   0.9519 B( 25-C , 28-C ) :   1.0518
B( 28-C , 29-H ) :   0.9785 B( 28-C , 30-H ) :   0.9780 B( 28-C , 31-H ) :   0.9791

Dispersion correction           -0.015099923
FINAL SINGLE POINT ENERGY     -1339.860301783806

DIPOLE MOMENT
-------------
                                X             Y             Z
Electronic contribution:      0.19185     -23.02921      -2.64660
Nuclear contribution   :     -0.33166      23.48461       2.75262
                        -----------------------------------------
Total Dipole Moment    :     -0.13981       0.45540       0.10602
                        -----------------------------------------
Magnitude (a.u.)       :      0.48803
Magnitude (Debye)      :      1.24048

Rotational constants in cm-1:     0.018030     0.009263     0.007691
Rotational constants in MHz :   540.517748   277.710378   230.556191

                             ****ORCA TERMINATED NORMALLY****
TOTAL RUN TIME: 0 days 0 hours 0 minutes 21 seconds 989 msec
