                         Program Version 4.2.1 -  RELEASE  -
|  1> ! wB97X-D3 SP def2-SVP
|  2> %pal
|  3> nprocs 24
|  4> end
|  5>
|  6> * xyz 0 1
|  7> S 	 -40.681 	 -48.8145 	 -71.7006
|  8> C 	 -41.1283 	 -47.194 	 -72.3259
|  9> C 	 -40.3662 	 -46.7895 	 -73.4002
| 10> C 	 -39.3404 	 -47.7247 	 -73.6652
| 11> C 	 -39.3703 	 -48.841 	 -72.8037
| 12> H 	 -38.5537 	 -47.4848 	 -74.3828
| 13> C 	 -40.4413 	 -45.4351 	 -74.0856
| 14> H 	 -39.7133 	 -45.5334 	 -74.8968
| 15> H 	 -39.9143 	 -44.8372 	 -73.3972
| 16> C 	 -41.6285 	 -44.6927 	 -74.3451
| 17> H 	 -42.132 	 -44.4393 	 -73.4033
| 18> H 	 -41.3673 	 -43.7466 	 -74.7387
| 19> C 	 -42.5297 	 -45.5031 	 -75.3766
| 20> H 	 -42.0716 	 -45.5718 	 -76.3216
| 21> H 	 -42.8741 	 -46.4753 	 -75.0488
| 22> H 	 -43.5154 	 -45.0263 	 -75.5454
| 23> S 	 -39.0751 	 -51.5216 	 -72.4217
| 24> C 	 -37.5821 	 -52.3715 	 -72.7968
| 25> C 	 -36.5878 	 -51.4561 	 -73.1731
| 26> C 	 -37.0542 	 -50.0867 	 -73.1391
| 27> C 	 -38.3822 	 -49.9418 	 -72.8214
| 28> H 	 -35.6532 	 -51.8234 	 -73.5615
| 29> C 	 -36.1971 	 -48.9206 	 -73.6206
| 30> H 	 -36.661 	 -48.5593 	 -74.4929
| 31> H 	 -35.231 	 -49.3898 	 -73.9055
| 32> C 	 -35.9018 	 -47.7366 	 -72.6687
| 33> H 	 -35.3896 	 -48.0737 	 -71.6896
| 34> H 	 -36.8203 	 -47.2396 	 -72.469
| 35> C 	 -34.9442 	 -46.7422 	 -73.3409
| 36> H 	 -34.3868 	 -46.2351 	 -72.5525
| 37> H 	 -35.5503 	 -46.0226 	 -73.9481
| 38> H 	 -34.3098 	 -47.2514 	 -74.0833
| 39> H 	 -41.8028 	 -46.547 	 -71.875
| 40> H 	 -37.4384 	 -53.395 	 -72.8904
| 41> *
| 42>
| 43>                          ****END OF INPUT****

CARTESIAN COORDINATES (ANGSTROEM)
---------------------------------
  S    -40.681000  -48.814500  -71.700600
  C    -41.128300  -47.194000  -72.325900
  C    -40.366200  -46.789500  -73.400200
  C    -39.340400  -47.724700  -73.665200
  C    -39.370300  -48.841000  -72.803700
  H    -38.553700  -47.484800  -74.382800
  C    -40.441300  -45.435100  -74.085600
  H    -39.713300  -45.533400  -74.896800
  H    -39.914300  -44.837200  -73.397200
  C    -41.628500  -44.692700  -74.345100
  H    -42.132000  -44.439300  -73.403300
  H    -41.367300  -43.746600  -74.738700
  C    -42.529700  -45.503100  -75.376600
  H    -42.071600  -45.571800  -76.321600
  H    -42.874100  -46.475300  -75.048800
  H    -43.515400  -45.026300  -75.545400
  S    -39.075100  -51.521600  -72.421700
  C    -37.582100  -52.371500  -72.796800
  C    -36.587800  -51.456100  -73.173100
  C    -37.054200  -50.086700  -73.139100
  C    -38.382200  -49.941800  -72.821400
  H    -35.653200  -51.823400  -73.561500
  C    -36.197100  -48.920600  -73.620600
  H    -36.661000  -48.559300  -74.492900
  H    -35.231000  -49.389800  -73.905500
  C    -35.901800  -47.736600  -72.668700
  H    -35.389600  -48.073700  -71.689600
  H    -36.820300  -47.239600  -72.469000
  C    -34.944200  -46.742200  -73.340900
  H    -34.386800  -46.235100  -72.552500
  H    -35.550300  -46.022600  -73.948100
  H    -34.309800  -47.251400  -74.083300
  H    -41.802800  -46.547000  -71.875000
  H    -37.438400  -53.395000  -72.890400

 Total Charge           Charge          ....    0
 Multiplicity           Mult            ....    1
 Number of Electrons    NEL             ....  134
 Basis Dimension        Dim             ....  322

ORBITAL ENERGIES
----------------

  NO   OCC          E(Eh)            E(eV)
   0   2.0000     -88.973223     -2421.0845
   1   2.0000     -88.962693     -2420.7979
   2   2.0000     -10.335832      -281.2523
   3   2.0000     -10.327981      -281.0387
   4   2.0000     -10.315886      -280.7095
   5   2.0000     -10.308131      -280.4985
   6   2.0000     -10.303304      -280.3671
   7   2.0000     -10.300863      -280.3007
   8   2.0000     -10.297778      -280.2168
   9   2.0000     -10.296130      -280.1719
  10   2.0000     -10.289822      -280.0003
  11   2.0000     -10.288795      -279.9723
  12   2.0000     -10.286714      -279.9157
  13   2.0000     -10.285400      -279.8800
  14   2.0000     -10.280907      -279.7577
  15   2.0000     -10.275318      -279.6056
  16   2.0000      -8.087492      -220.0719
  17   2.0000      -8.077155      -219.7906
  18   2.0000      -6.045978      -164.5194
  19   2.0000      -6.042147      -164.4152
  20   2.0000      -6.038238      -164.3088
  21   2.0000      -6.035786      -164.2421
  22   2.0000      -6.031624      -164.1288
  23   2.0000      -6.027899      -164.0275
  24   2.0000      -1.006086       -27.3770
  25   2.0000      -0.981327       -26.7033
  26   2.0000      -0.928470       -25.2650
  27   2.0000      -0.906184       -24.6585
  28   2.0000      -0.868099       -23.6222
  29   2.0000      -0.852685       -23.2027
  30   2.0000      -0.844788       -22.9879
  31   2.0000      -0.810102       -22.0440
  32   2.0000      -0.789842       -21.4927
  33   2.0000      -0.771574       -20.9956
  34   2.0000      -0.719701       -19.5841
  35   2.0000      -0.704947       -19.1826
  36   2.0000      -0.688637       -18.7388
  37   2.0000      -0.668414       -18.1885
  38   2.0000      -0.636525       -17.3207
  39   2.0000      -0.616042       -16.7634
  40   2.0000      -0.590019       -16.0552
  41   2.0000      -0.579147       -15.7594
  42   2.0000      -0.568052       -15.4575
  43   2.0000      -0.563251       -15.3268
  44   2.0000      -0.547402       -14.8956
  45   2.0000      -0.527356       -14.3501
  46   2.0000      -0.515017       -14.0143
  47   2.0000      -0.512708       -13.9515
  48   2.0000      -0.503717       -13.7068
  49   2.0000      -0.499899       -13.6029
  50   2.0000      -0.488561       -13.2944
  51   2.0000      -0.482850       -13.1390
  52   2.0000      -0.471555       -12.8317
  53   2.0000      -0.465617       -12.6701
  54   2.0000      -0.458161       -12.4672
  55   2.0000      -0.454841       -12.3768
  56   2.0000      -0.443053       -12.0561
  57   2.0000      -0.440499       -11.9866
  58   2.0000      -0.434120       -11.8130
  59   2.0000      -0.423189       -11.5156
  60   2.0000      -0.420147       -11.4328
  61   2.0000      -0.417917       -11.3721
  62   2.0000      -0.408770       -11.1232
  63   2.0000      -0.351229        -9.5574
  64   2.0000      -0.335644        -9.1333
  65   2.0000      -0.328301        -8.9335
  66   2.0000      -0.282892        -7.6979
  67   0.0000       0.023089         0.6283
  68   0.0000       0.072806         1.9812
  69   0.0000       0.093663         2.5487
  70   0.0000       0.115881         3.1533
  71   0.0000       0.138733         3.7751

MULLIKEN ATOMIC CHARGES
-----------------------
   0 S :    0.124976
   1 C :   -0.113933
   2 C :   -0.078516
   3 C :   -0.020559
   4 C :   -0.101466
   5 H :    0.009491
   6 C :    0.078701
   7 H :    0.008008
   8 H :    0.023686
   9 C :   -0.004004
  10 H :    0.023538
  11 H :    0.018375
  12 C :   -0.053773
  13 H :    0.025189
  14 H :    0.037332
  15 H :    0.023832
  16 S :    0.077418
  17 C :   -0.058582
  18 C :   -0.042989
  19 C :   -0.046637
  20 C :   -0.120138
  21 H :    0.018621
  22 C :    0.031957
  23 H :    0.025966
  24 H :    0.013114
  25 C :   -0.077935
  26 H :    0.044121
  27 H :    0.034446
  28 C :   -0.049308
  29 H :    0.044916
  30 H :    0.026593
  31 H :    0.029226
  32 H :    0.013183
  33 H :    0.035150
Sum of atomic charges:   -0.0000000

LOEWDIN ATOMIC CHARGES
----------------------
   0 S :    0.412853
   1 C :   -0.185844
   2 C :   -0.049216
   3 C :   -0.072328
   4 C :   -0.196726
   5 H :    0.029347
   6 C :   -0.038818
   7 H :    0.029742
   8 H :    0.036612
   9 C :   -0.033283
  10 H :    0.027957
  11 H :    0.027536
  12 C :   -0.064017
  13 H :    0.019364
  14 H :    0.026875
  15 H :    0.026319
  16 S :    0.385963
  17 C :   -0.172088
  18 C :   -0.066729
  19 C :   -0.062239
  20 C :   -0.181867
  21 H :    0.030126
  22 C :   -0.031113
  23 H :    0.021224
  24 H :    0.029833
  25 C :   -0.040533
  26 H :    0.033903
  27 H :    0.017929
  28 C :   -0.067279
  29 H :    0.028872
  30 H :    0.026017
  31 H :    0.023480
  32 H :    0.010274
  33 H :    0.017853

  Mayer bond orders larger than 0.100000
B(  0-S ,  1-C ) :   1.1172 B(  0-S ,  4-C ) :   1.1752 B(  1-C ,  2-C ) :   1.6105
B(  1-C , 32-H ) :   0.9766 B(  2-C ,  3-C ) :   1.2737 B(  2-C ,  6-C ) :   0.9998
B(  3-C ,  4-C ) :   1.5242 B(  3-C ,  5-H ) :   0.9880 B(  4-C , 20-C ) :   1.0406
B(  6-C ,  7-H ) :   0.9327 B(  6-C ,  8-H ) :   0.9154 B(  6-C ,  9-C ) :   1.1105
B(  9-C , 10-H ) :   0.9419 B(  9-C , 11-H ) :   0.9383 B(  9-C , 12-C ) :   1.0702
B( 12-C , 13-H ) :   0.9771 B( 12-C , 14-H ) :   0.9784 B( 12-C , 15-H ) :   0.9766
B( 16-S , 17-C ) :   1.1542 B( 16-S , 20-C ) :   1.1206 B( 17-C , 18-C ) :   1.6136
B( 17-C , 33-H ) :   0.9739 B( 18-C , 19-C ) :   1.2353 B( 18-C , 21-H ) :   0.9899
B( 19-C , 20-C ) :   1.6169 B( 19-C , 22-C ) :   1.0321 B( 22-C , 23-H ) :   0.9374
B( 22-C , 24-H ) :   0.9298 B( 22-C , 25-C ) :   1.0699 B( 25-C , 26-H ) :   0.9596
B( 25-C , 27-H ) :   0.9540 B( 25-C , 28-C ) :   1.0715 B( 28-C , 29-H ) :   0.9774
B( 28-C , 30-H ) :   0.9752 B( 28-C , 31-H ) :   0.9757

Dispersion correction           -0.014350990
FINAL SINGLE POINT ENERGY     -1339.859022476683

DIPOLE MOMENT
-------------
                                X             Y             Z
Electronic contribution:     -7.33958     -24.22572      12.46549
Nuclear contribution   :      7.66395      24.85703     -12.84236
                        -----------------------------------------
Total Dipole Moment    :      0.32437       0.63132      -0.37686
                        -----------------------------------------
Magnitude (a.u.)       :      0.80362
Magnitude (Debye)      :      2.04263

Rotational constants in cm-1:     0.018860     0.008794     0.006676
Rotational constants in MHz :   565.402950   263.634441   200.130364

                             ****ORCA TERMINATED NORMALLY****
TOTAL RUN TIME: 0 days 0 hours 0 minutes 22 seconds 49 msec
