                         Program Version 4.2.1 -  RELEASE  -
|  1> ! wB97X-D3 SP def2-SVP
|  2> %pal
|  3> nprocs 24
|  4> end
|  5>
|  6> * xyz 0 1
|  7> S 	 -78.4218 	 -18.0021 	 -53.5328
|  8> C 	 -80.0891 	 -18.0968 	 -52.9841
|  9> C 	 -80.9199 	 -18.3774 	 -54.0302
| 10> C 	 -80.2584 	 -18.4474 	 -55.2831
| 11> C 	 -78.8724 	 -18.2336 	 -55.2183
| 12> H 	 -80.8318 	 -18.647 	 -56.1795
| 13> C 	 -82.4203 	 -18.2931 	 -53.8919
| 14> H 	 -82.6245 	 -18.5534 	 -52.8334
| 15> H 	 -82.9125 	 -19.0809 	 -54.5134
| 16> C 	 -83.032 	 -16.8969 	 -54.2525
| 17> H 	 -82.4883 	 -16.2814 	 -53.6714
| 18> H 	 -82.8202 	 -16.5269 	 -55.2763
| 19> C 	 -84.5157 	 -16.8106 	 -53.8523
| 20> H 	 -84.7692 	 -15.8327 	 -53.5513
| 21> H 	 -85.27 	 -17.0665 	 -54.5233
| 22> H 	 -84.7095 	 -17.4797 	 -52.9485
| 23> S 	 -76.2806 	 -18.9646 	 -55.7961
| 24> C 	 -75.7554 	 -18.9891 	 -57.4097
| 25> C 	 -76.7581 	 -18.8314 	 -58.3295
| 26> C 	 -78.0264 	 -18.5036 	 -57.6816
| 27> C 	 -77.9164 	 -18.5279 	 -56.2696
| 28> H 	 -76.5404 	 -18.7748 	 -59.3892
| 29> C 	 -79.2812 	 -18.1008 	 -58.5243
| 30> H 	 -78.9237 	 -17.3099 	 -59.2822
| 31> H 	 -79.9221 	 -17.5714 	 -57.8409
| 32> C 	 -79.8701 	 -19.3072 	 -59.3213
| 33> H 	 -79.181 	 -19.5677 	 -60.1804
| 34> H 	 -80.7655 	 -18.9072 	 -59.7561
| 35> C 	 -80.1992 	 -20.5795 	 -58.5195
| 36> H 	 -79.3062 	 -20.9455 	 -58.0437
| 37> H 	 -80.6435 	 -21.4213 	 -59.1265
| 38> H 	 -80.9441 	 -20.316 	 -57.8404
| 39> H 	 -80.361 	 -17.9935 	 -51.9304
| 40> H 	 -74.7491 	 -19.0292 	 -57.7177
| 41> *
| 42>
| 43>                          ****END OF INPUT****

CARTESIAN COORDINATES (ANGSTROEM)
---------------------------------
  S    -78.421800  -18.002100  -53.532800
  C    -80.089100  -18.096800  -52.984100
  C    -80.919900  -18.377400  -54.030200
  C    -80.258400  -18.447400  -55.283100
  C    -78.872400  -18.233600  -55.218300
  H    -80.831800  -18.647000  -56.179500
  C    -82.420300  -18.293100  -53.891900
  H    -82.624500  -18.553400  -52.833400
  H    -82.912500  -19.080900  -54.513400
  C    -83.032000  -16.896900  -54.252500
  H    -82.488300  -16.281400  -53.671400
  H    -82.820200  -16.526900  -55.276300
  C    -84.515700  -16.810600  -53.852300
  H    -84.769200  -15.832700  -53.551300
  H    -85.270000  -17.066500  -54.523300
  H    -84.709500  -17.479700  -52.948500
  S    -76.280600  -18.964600  -55.796100
  C    -75.755400  -18.989100  -57.409700
  C    -76.758100  -18.831400  -58.329500
  C    -78.026400  -18.503600  -57.681600
  C    -77.916400  -18.527900  -56.269600
  H    -76.540400  -18.774800  -59.389200
  C    -79.281200  -18.100800  -58.524300
  H    -78.923700  -17.309900  -59.282200
  H    -79.922100  -17.571400  -57.840900
  C    -79.870100  -19.307200  -59.321300
  H    -79.181000  -19.567700  -60.180400
  H    -80.765500  -18.907200  -59.756100
  C    -80.199200  -20.579500  -58.519500
  H    -79.306200  -20.945500  -58.043700
  H    -80.643500  -21.421300  -59.126500
  H    -80.944100  -20.316000  -57.840400
  H    -80.361000  -17.993500  -51.930400
  H    -74.749100  -19.029200  -57.717700

 Total Charge           Charge          ....    0
 Multiplicity           Mult            ....    1
 Number of Electrons    NEL             ....  134
 Basis Dimension        Dim             ....  322

ORBITAL ENERGIES
----------------

  NO   OCC          E(Eh)            E(eV)
   0   2.0000     -88.967349     -2420.9246
   1   2.0000     -88.965413     -2420.8720
   2   2.0000     -10.335124      -281.2330
   3   2.0000     -10.330406      -281.1046
   4   2.0000     -10.315545      -280.7003
   5   2.0000     -10.310088      -280.5518
   6   2.0000     -10.309448      -280.5343
   7   2.0000     -10.303371      -280.3690
   8   2.0000     -10.296899      -280.1929
   9   2.0000     -10.296573      -280.1840
  10   2.0000     -10.293995      -280.1138
  11   2.0000     -10.293929      -280.1121
  12   2.0000     -10.292762      -280.0803
  13   2.0000     -10.284101      -279.8446
  14   2.0000     -10.275523      -279.6112
  15   2.0000     -10.273727      -279.5623
  16   2.0000      -8.081791      -219.9167
  17   2.0000      -8.081084      -219.8975
  18   2.0000      -6.040429      -164.3684
  19   2.0000      -6.039584      -164.3454
  20   2.0000      -6.036297      -164.2560
  21   2.0000      -6.035491      -164.2341
  22   2.0000      -6.032481      -164.1522
  23   2.0000      -6.031780      -164.1331
  24   2.0000      -1.006933       -27.4000
  25   2.0000      -0.985316       -26.8118
  26   2.0000      -0.910533       -24.7769
  27   2.0000      -0.903443       -24.5839
  28   2.0000      -0.871327       -23.7100
  29   2.0000      -0.850244       -23.1363
  30   2.0000      -0.842695       -22.9309
  31   2.0000      -0.814337       -22.1592
  32   2.0000      -0.783500       -21.3201
  33   2.0000      -0.772255       -21.0141
  34   2.0000      -0.714450       -19.4412
  35   2.0000      -0.705033       -19.1849
  36   2.0000      -0.694381       -18.8951
  37   2.0000      -0.657970       -17.9043
  38   2.0000      -0.635672       -17.2975
  39   2.0000      -0.625147       -17.0111
  40   2.0000      -0.592604       -16.1256
  41   2.0000      -0.568991       -15.4830
  42   2.0000      -0.557587       -15.1727
  43   2.0000      -0.548402       -14.9228
  44   2.0000      -0.540972       -14.7206
  45   2.0000      -0.524029       -14.2596
  46   2.0000      -0.518732       -14.1154
  47   2.0000      -0.509218       -13.8565
  48   2.0000      -0.505488       -13.7550
  49   2.0000      -0.502456       -13.6725
  50   2.0000      -0.491963       -13.3870
  51   2.0000      -0.479989       -13.0612
  52   2.0000      -0.468389       -12.7455
  53   2.0000      -0.467044       -12.7089
  54   2.0000      -0.456688       -12.4271
  55   2.0000      -0.454622       -12.3709
  56   2.0000      -0.446127       -12.1397
  57   2.0000      -0.439559       -11.9610
  58   2.0000      -0.438094       -11.9211
  59   2.0000      -0.422670       -11.5014
  60   2.0000      -0.420524       -11.4430
  61   2.0000      -0.417488       -11.3604
  62   2.0000      -0.409830       -11.1520
  63   2.0000      -0.361906        -9.8480
  64   2.0000      -0.333073        -9.0634
  65   2.0000      -0.328222        -8.9314
  66   2.0000      -0.281308        -7.6548
  67   0.0000       0.018845         0.5128
  68   0.0000       0.087137         2.3711
  69   0.0000       0.102280         2.7832
  70   0.0000       0.116929         3.1818
  71   0.0000       0.133840         3.6420

MULLIKEN ATOMIC CHARGES
-----------------------
   0 S :    0.092915
   1 C :   -0.137104
   2 C :   -0.071085
   3 C :    0.005332
   4 C :   -0.100890
   5 H :   -0.000483
   6 C :    0.014159
   7 H :    0.023290
   8 H :    0.032299
   9 C :   -0.000178
  10 H :   -0.006747
  11 H :    0.032727
  12 C :   -0.031268
  13 H :    0.018693
  14 H :    0.024551
  15 H :    0.025801
  16 S :    0.108544
  17 C :   -0.069459
  18 C :   -0.027585
  19 C :   -0.092024
  20 C :   -0.130476
  21 H :    0.020841
  22 C :    0.032592
  23 H :    0.047784
  24 H :    0.027100
  25 C :   -0.076148
  26 H :    0.039063
  27 H :    0.025883
  28 C :   -0.036724
  29 H :    0.052490
  30 H :    0.039819
  31 H :    0.017511
  32 H :    0.057429
  33 H :    0.041346
Sum of atomic charges:   -0.0000000

LOEWDIN ATOMIC CHARGES
----------------------
   0 S :    0.395891
   1 C :   -0.193273
   2 C :   -0.071581
   3 C :   -0.064135
   4 C :   -0.185297
   5 H :    0.025817
   6 C :   -0.030730
   7 H :    0.030369
   8 H :    0.029039
   9 C :   -0.029533
  10 H :    0.009461
  11 H :    0.029996
  12 C :   -0.062148
  13 H :    0.021499
  14 H :    0.016843
  15 H :    0.033754
  16 S :    0.418114
  17 C :   -0.192007
  18 C :   -0.073540
  19 C :   -0.053212
  20 C :   -0.199136
  21 H :    0.032065
  22 C :   -0.033472
  23 H :    0.044157
  24 H :    0.022847
  25 C :   -0.040682
  26 H :    0.028650
  27 H :    0.020502
  28 C :   -0.062530
  29 H :    0.028273
  30 H :    0.035346
  31 H :    0.013620
  32 H :    0.032660
  33 H :    0.022369

  Mayer bond orders larger than 0.100000
B(  0-S ,  1-C ) :   1.1322 B(  0-S ,  4-C ) :   1.1492 B(  1-C ,  2-C ) :   1.5879
B(  1-C , 32-H ) :   0.9688 B(  2-C ,  3-C ) :   1.2810 B(  2-C ,  6-C ) :   1.0428
B(  3-C ,  4-C ) :   1.5132 B(  3-C ,  5-H ) :   0.9870 B(  4-C , 20-C ) :   1.0980
B(  6-C ,  7-H ) :   0.9398 B(  6-C ,  8-H ) :   0.9390 B(  6-C ,  9-C ) :   1.0562
B(  9-C , 10-H ) :   0.9495 B(  9-C , 11-H ) :   0.9548 B(  9-C , 12-C ) :   1.0745
B( 12-C , 13-H ) :   0.9744 B( 12-C , 14-H ) :   0.9782 B( 12-C , 15-H ) :   0.9740
B( 16-S , 17-C ) :   1.1647 B( 16-S , 20-C ) :   1.1300 B( 17-C , 18-C ) :   1.6172
B( 17-C , 33-H ) :   0.9699 B( 18-C , 19-C ) :   1.2357 B( 18-C , 21-H ) :   0.9898
B( 19-C , 20-C ) :   1.5795 B( 19-C , 22-C ) :   1.0284 B( 22-C , 23-H ) :   0.9405
B( 22-C , 24-H ) :   0.9386 B( 22-C , 25-C ) :   1.0588 B( 25-C , 26-H ) :   0.9562
B( 25-C , 27-H ) :   0.9574 B( 25-C , 28-C ) :   1.0770 B( 28-C , 29-H ) :   0.9722
B( 28-C , 30-H ) :   0.9707 B( 28-C , 31-H ) :   0.9735

Dispersion correction           -0.014663634
FINAL SINGLE POINT ENERGY     -1339.875698063945

DIPOLE MOMENT
-------------
                                X             Y             Z
Electronic contribution:     28.17666      -0.47026       9.94191
Nuclear contribution   :    -28.71198       0.59168     -10.31570
                        -----------------------------------------
Total Dipole Moment    :     -0.53532       0.12142      -0.37379
                        -----------------------------------------
Magnitude (a.u.)       :      0.66410
Magnitude (Debye)      :      1.68801

Rotational constants in cm-1:     0.019970     0.008758     0.006537
Rotational constants in MHz :   598.698964   262.564372   195.976564

                             ****ORCA TERMINATED NORMALLY****
TOTAL RUN TIME: 0 days 0 hours 0 minutes 22 seconds 273 msec
