                         Program Version 4.2.1 -  RELEASE  -
|  1> ! wB97X-D3 SP def2-SVP
|  2> %pal
|  3> nprocs 24
|  4> end
|  5>
|  6> * xyz 0 1
|  7> S 	 -115.407 	 57.8756 	 -36.6861
|  8> C 	 -115.317 	 56.4931 	 -37.7301
|  9> C 	 -115.606 	 56.8424 	 -39.0635
| 10> C 	 -115.802 	 58.2026 	 -39.2727
| 11> C 	 -115.882 	 58.923 	 -38.1084
| 12> H 	 -116.046 	 58.6532 	 -40.247
| 13> C 	 -115.628 	 55.8727 	 -40.2591
| 14> H 	 -116.476 	 56.1163 	 -40.8114
| 15> H 	 -115.841 	 54.9377 	 -39.7585
| 16> C 	 -114.417 	 55.7212 	 -41.2384
| 17> H 	 -114.595 	 54.8362 	 -41.8436
| 18> H 	 -114.356 	 56.6097 	 -41.9143
| 19> C 	 -113.017 	 55.5339 	 -40.6084
| 20> H 	 -112.201 	 55.3321 	 -41.2302
| 21> H 	 -112.712 	 56.3973 	 -40.0239
| 22> H 	 -112.985 	 54.7002 	 -39.8645
| 23> S 	 -117.67 	 60.2809 	 -36.54
| 24> C 	 -118.313 	 61.7744 	 -37.1016
| 25> C 	 -117.491 	 62.2867 	 -38.0875
| 26> C 	 -116.458 	 61.4924 	 -38.5438
| 27> C 	 -116.451 	 60.2599 	 -37.8406
| 28> H 	 -117.878 	 63.2797 	 -38.4889
| 29> C 	 -115.755 	 61.8134 	 -39.848
| 30> H 	 -115.071 	 60.9451 	 -40.0161
| 31> H 	 -115.142 	 62.6827 	 -39.741
| 32> C 	 -116.721 	 61.7875 	 -41.1368
| 33> H 	 -117.454 	 62.5881 	 -40.9248
| 34> H 	 -117.227 	 60.7606 	 -41.2142
| 35> C 	 -115.903 	 61.9789 	 -42.4563
| 36> H 	 -115.372 	 62.902 	 -42.5927
| 37> H 	 -116.634 	 61.9199 	 -43.2628
| 38> H 	 -115.133 	 61.2112 	 -42.6061
| 39> H 	 -115.05 	 55.5777 	 -37.2587
| 40> H 	 -119.153 	 62.2629 	 -36.6631
| 41> *
| 42>
| 43>                          ****END OF INPUT****

CARTESIAN COORDINATES (ANGSTROEM)
---------------------------------
  S    -115.407000   57.875600  -36.686100
  C    -115.317000   56.493100  -37.730100
  C    -115.606000   56.842400  -39.063500
  C    -115.802000   58.202600  -39.272700
  C    -115.882000   58.923000  -38.108400
  H    -116.046000   58.653200  -40.247000
  C    -115.628000   55.872700  -40.259100
  H    -116.476000   56.116300  -40.811400
  H    -115.841000   54.937700  -39.758500
  C    -114.417000   55.721200  -41.238400
  H    -114.595000   54.836200  -41.843600
  H    -114.356000   56.609700  -41.914300
  C    -113.017000   55.533900  -40.608400
  H    -112.201000   55.332100  -41.230200
  H    -112.712000   56.397300  -40.023900
  H    -112.985000   54.700200  -39.864500
  S    -117.670000   60.280900  -36.540000
  C    -118.313000   61.774400  -37.101600
  C    -117.491000   62.286700  -38.087500
  C    -116.458000   61.492400  -38.543800
  C    -116.451000   60.259900  -37.840600
  H    -117.878000   63.279700  -38.488900
  C    -115.755000   61.813400  -39.848000
  H    -115.071000   60.945100  -40.016100
  H    -115.142000   62.682700  -39.741000
  C    -116.721000   61.787500  -41.136800
  H    -117.454000   62.588100  -40.924800
  H    -117.227000   60.760600  -41.214200
  C    -115.903000   61.978900  -42.456300
  H    -115.372000   62.902000  -42.592700
  H    -116.634000   61.919900  -43.262800
  H    -115.133000   61.211200  -42.606100
  H    -115.050000   55.577700  -37.258700
  H    -119.153000   62.262900  -36.663100

 Total Charge           Charge          ....    0
 Multiplicity           Mult            ....    1
 Number of Electrons    NEL             ....  134
 Basis Dimension        Dim             ....  322

ORBITAL ENERGIES
----------------

  NO   OCC          E(Eh)            E(eV)
   0   2.0000     -88.964453     -2420.8458
   1   2.0000     -88.964391     -2420.8441
   2   2.0000     -10.336560      -281.2721
   3   2.0000     -10.333262      -281.1824
   4   2.0000     -10.315824      -280.7078
   5   2.0000     -10.312675      -280.6222
   6   2.0000     -10.306602      -280.4569
   7   2.0000     -10.304536      -280.4007
   8   2.0000     -10.302329      -280.3406
   9   2.0000     -10.296704      -280.1875
  10   2.0000     -10.295309      -280.1496
  11   2.0000     -10.294232      -280.1203
  12   2.0000     -10.293116      -280.0899
  13   2.0000     -10.288806      -279.9726
  14   2.0000     -10.283559      -279.8299
  15   2.0000     -10.272698      -279.5343
  16   2.0000      -8.079266      -219.8480
  17   2.0000      -8.078565      -219.8289
  18   2.0000      -6.037623      -164.2921
  19   2.0000      -6.037026      -164.2758
  20   2.0000      -6.033623      -164.1832
  21   2.0000      -6.033200      -164.1717
  22   2.0000      -6.030295      -164.0927
  23   2.0000      -6.029382      -164.0678
  24   2.0000      -1.004219       -27.3262
  25   2.0000      -0.983658       -26.7667
  26   2.0000      -0.902623       -24.5616
  27   2.0000      -0.900808       -24.5122
  28   2.0000      -0.864065       -23.5124
  29   2.0000      -0.853496       -23.2248
  30   2.0000      -0.848577       -23.0910
  31   2.0000      -0.812563       -22.1110
  32   2.0000      -0.783188       -21.3116
  33   2.0000      -0.770663       -20.9708
  34   2.0000      -0.707359       -19.2482
  35   2.0000      -0.700170       -19.0526
  36   2.0000      -0.697038       -18.9674
  37   2.0000      -0.656593       -17.8668
  38   2.0000      -0.642266       -17.4769
  39   2.0000      -0.622604       -16.9419
  40   2.0000      -0.594984       -16.1904
  41   2.0000      -0.561772       -15.2866
  42   2.0000      -0.557070       -15.1587
  43   2.0000      -0.550543       -14.9810
  44   2.0000      -0.537196       -14.6178
  45   2.0000      -0.526248       -14.3199
  46   2.0000      -0.520912       -14.1747
  47   2.0000      -0.512032       -13.9331
  48   2.0000      -0.506711       -13.7883
  49   2.0000      -0.498374       -13.5614
  50   2.0000      -0.485691       -13.2163
  51   2.0000      -0.476005       -12.9528
  52   2.0000      -0.471980       -12.8432
  53   2.0000      -0.461923       -12.5696
  54   2.0000      -0.454864       -12.3775
  55   2.0000      -0.448650       -12.2084
  56   2.0000      -0.439979       -11.9724
  57   2.0000      -0.438776       -11.9397
  58   2.0000      -0.435975       -11.8635
  59   2.0000      -0.426363       -11.6019
  60   2.0000      -0.419839       -11.4244
  61   2.0000      -0.415396       -11.3035
  62   2.0000      -0.413282       -11.2460
  63   2.0000      -0.353377        -9.6159
  64   2.0000      -0.334602        -9.1050
  65   2.0000      -0.329935        -8.9780
  66   2.0000      -0.281004        -7.6465
  67   0.0000       0.022631         0.6158
  68   0.0000       0.063955         1.7403
  69   0.0000       0.107778         2.9328
  70   0.0000       0.121560         3.3078
  71   0.0000       0.127417         3.4672

MULLIKEN ATOMIC CHARGES
-----------------------
   0 S :    0.084906
   1 C :   -0.122377
   2 C :   -0.106783
   3 C :    0.030672
   4 C :   -0.135075
   5 H :    0.014357
   6 C :    0.106145
   7 H :    0.012872
   8 H :    0.014318
   9 C :   -0.059798
  10 H :    0.036600
  11 H :    0.033081
  12 C :   -0.055685
  13 H :    0.023242
  14 H :    0.034661
  15 H :    0.019489
  16 S :    0.103802
  17 C :   -0.095701
  18 C :   -0.079492
  19 C :    0.007341
  20 C :   -0.150172
  21 H :    0.038932
  22 C :    0.045566
  23 H :    0.022320
  24 H :    0.035871
  25 C :   -0.112926
  26 H :    0.042865
  27 H :    0.053659
  28 C :   -0.039009
  29 H :    0.030260
  30 H :    0.035993
  31 H :    0.032862
  32 H :    0.046551
  33 H :    0.050652
Sum of atomic charges:   -0.0000000

LOEWDIN ATOMIC CHARGES
----------------------
   0 S :    0.376755
   1 C :   -0.193035
   2 C :   -0.065221
   3 C :   -0.067937
   4 C :   -0.161384
   5 H :    0.036550
   6 C :   -0.025057
   7 H :    0.023587
   8 H :    0.029779
   9 C :   -0.036398
  10 H :    0.027648
  11 H :    0.026162
  12 C :   -0.071735
  13 H :    0.018313
  14 H :    0.026615
  15 H :    0.025793
  16 S :    0.411519
  17 C :   -0.192480
  18 C :   -0.083824
  19 C :   -0.064126
  20 C :   -0.186736
  21 H :    0.040111
  22 C :   -0.033120
  23 H :    0.030565
  24 H :    0.029000
  25 C :   -0.035271
  26 H :    0.024183
  27 H :    0.034972
  28 C :   -0.068998
  29 H :    0.022525
  30 H :    0.028310
  31 H :    0.026973
  32 H :    0.020560
  33 H :    0.025403

  Mayer bond orders larger than 0.100000
B(  0-S ,  1-C ) :   1.1465 B(  0-S ,  4-C ) :   1.1426 B(  1-C ,  2-C ) :   1.5705
B(  1-C ,  4-C ) :   0.1061 B(  1-C , 32-H ) :   0.9792 B(  2-C ,  3-C ) :   1.2665
B(  2-C ,  6-C ) :   1.0162 B(  3-C ,  4-C ) :   1.5639 B(  3-C ,  5-H ) :   0.9855
B(  4-C , 20-C ) :   1.0322 B(  6-C ,  7-H ) :   0.9367 B(  6-C ,  8-H ) :   0.9392
B(  6-C ,  9-C ) :   1.0680 B(  9-C , 10-H ) :   0.9559 B(  9-C , 11-H ) :   0.9567
B(  9-C , 12-C ) :   1.0742 B( 12-C , 13-H ) :   0.9761 B( 12-C , 14-H ) :   0.9732
B( 12-C , 15-H ) :   0.9753 B( 16-S , 17-C ) :   1.1677 B( 16-S , 20-C ) :   1.1600
B( 17-C , 18-C ) :   1.5890 B( 17-C , 20-C ) :   0.1102 B( 17-C , 33-H ) :   0.9730
B( 18-C , 19-C ) :   1.2561 B( 18-C , 21-H ) :   0.9794 B( 19-C , 20-C ) :   1.5411
B( 19-C , 22-C ) :   1.0543 B( 22-C , 23-H ) :   0.9386 B( 22-C , 24-H ) :   0.9355
B( 22-C , 25-C ) :   1.0431 B( 25-C , 26-H ) :   0.9574 B( 25-C , 27-H ) :   0.9555
B( 25-C , 28-C ) :   1.0711 B( 28-C , 29-H ) :   0.9767 B( 28-C , 30-H ) :   0.9753
B( 28-C , 31-H ) :   0.9752

Dispersion correction           -0.014309942
FINAL SINGLE POINT ENERGY     -1339.865784780792

DIPOLE MOMENT
-------------
                                X             Y             Z
Electronic contribution:     -9.01686       3.06251      28.46229
Nuclear contribution   :      8.90169      -2.99903     -29.18296
                        -----------------------------------------
Total Dipole Moment    :     -0.11516       0.06349      -0.72067
                        -----------------------------------------
Magnitude (a.u.)       :      0.73257
Magnitude (Debye)      :      1.86204

Rotational constants in cm-1:     0.017124     0.009338     0.006505
Rotational constants in MHz :   513.374757   279.955418   195.007007

                             ****ORCA TERMINATED NORMALLY****
TOTAL RUN TIME: 0 days 0 hours 0 minutes 21 seconds 545 msec
