                         Program Version 4.2.1 -  RELEASE  -
|  1> ! wB97X-D3 SP def2-SVP
|  2> %pal
|  3> nprocs 24
|  4> end
|  5>
|  6> * xyz 0 1
|  7> S 	 -145.62 	 3.47129 	 14.7012
|  8> C 	 -144.416 	 2.23675 	 14.6005
|  9> C 	 -143.19 	 2.70796 	 14.0994
| 10> C 	 -143.225 	 4.15126 	 13.9578
| 11> C 	 -144.439 	 4.7289 	 14.2175
| 12> H 	 -142.473 	 4.77436 	 13.5175
| 13> C 	 -141.97 	 1.82578 	 13.9441
| 14> H 	 -142.256 	 1.0338 	 13.3151
| 15> H 	 -141.688 	 1.32477 	 14.9125
| 16> C 	 -140.748 	 2.50482 	 13.3297
| 17> H 	 -140.033 	 1.77449 	 12.9704
| 18> H 	 -141.076 	 3.08329 	 12.4521
| 19> C 	 -139.814 	 3.29743 	 14.2323
| 20> H 	 -138.976 	 3.71279 	 13.7286
| 21> H 	 -140.151 	 4.08524 	 14.7843
| 22> H 	 -139.412 	 2.68315 	 14.9694
| 23> S 	 -145.947 	 6.82833 	 15.2547
| 24> C 	 -145.493 	 8.42391 	 14.5134
| 25> C 	 -144.78 	 8.31451 	 13.3546
| 26> C 	 -144.527 	 6.91958 	 13.0256
| 27> C 	 -144.909 	 6.06474 	 14.0236
| 28> H 	 -144.467 	 9.16563 	 12.7917
| 29> C 	 -143.721 	 6.57407 	 11.8474
| 30> H 	 -143.56 	 5.47085 	 11.8068
| 31> H 	 -142.733 	 7.00929 	 11.9321
| 32> C 	 -144.257 	 7.06339 	 10.5269
| 33> H 	 -144.565 	 8.09349 	 10.5507
| 34> H 	 -145.17 	 6.49217 	 10.4443
| 35> C 	 -143.381 	 6.6873 	 9.28896
| 36> H 	 -143.272 	 5.58967 	 9.21489
| 37> H 	 -142.436 	 7.19869 	 9.46042
| 38> H 	 -143.953 	 7.0191 	 8.37223
| 39> H 	 -144.505 	 1.16555 	 14.9209
| 40> H 	 -145.797 	 9.27697 	 15.0618
| 41> *
| 42>
| 43>                          ****END OF INPUT****

CARTESIAN COORDINATES (ANGSTROEM)
---------------------------------
  S    -145.620000    3.471290   14.701200
  C    -144.416000    2.236750   14.600500
  C    -143.190000    2.707960   14.099400
  C    -143.225000    4.151260   13.957800
  C    -144.439000    4.728900   14.217500
  H    -142.473000    4.774360   13.517500
  C    -141.970000    1.825780   13.944100
  H    -142.256000    1.033800   13.315100
  H    -141.688000    1.324770   14.912500
  C    -140.748000    2.504820   13.329700
  H    -140.033000    1.774490   12.970400
  H    -141.076000    3.083290   12.452100
  C    -139.814000    3.297430   14.232300
  H    -138.976000    3.712790   13.728600
  H    -140.151000    4.085240   14.784300
  H    -139.412000    2.683150   14.969400
  S    -145.947000    6.828330   15.254700
  C    -145.493000    8.423910   14.513400
  C    -144.780000    8.314510   13.354600
  C    -144.527000    6.919580   13.025600
  C    -144.909000    6.064740   14.023600
  H    -144.467000    9.165630   12.791700
  C    -143.721000    6.574070   11.847400
  H    -143.560000    5.470850   11.806800
  H    -142.733000    7.009290   11.932100
  C    -144.257000    7.063390   10.526900
  H    -144.565000    8.093490   10.550700
  H    -145.170000    6.492170   10.444300
  C    -143.381000    6.687300    9.288960
  H    -143.272000    5.589670    9.214890
  H    -142.436000    7.198690    9.460420
  H    -143.953000    7.019100    8.372230
  H    -144.505000    1.165550   14.920900
  H    -145.797000    9.276970   15.061800

 Total Charge           Charge          ....    0
 Multiplicity           Mult            ....    1
 Number of Electrons    NEL             ....  134
 Basis Dimension        Dim             ....  322

ORBITAL ENERGIES
----------------

  NO   OCC          E(Eh)            E(eV)
   0   2.0000     -88.963171     -2420.8110
   1   2.0000     -88.962921     -2420.8042
   2   2.0000     -10.326223      -280.9908
   3   2.0000     -10.324261      -280.9374
   4   2.0000     -10.322473      -280.8888
   5   2.0000     -10.315378      -280.6957
   6   2.0000     -10.303715      -280.3783
   7   2.0000     -10.302090      -280.3341
   8   2.0000     -10.299128      -280.2535
   9   2.0000     -10.294080      -280.1162
  10   2.0000     -10.293002      -280.0868
  11   2.0000     -10.287900      -279.9480
  12   2.0000     -10.287846      -279.9465
  13   2.0000     -10.286439      -279.9082
  14   2.0000     -10.280922      -279.7581
  15   2.0000     -10.260431      -279.2005
  16   2.0000      -8.077705      -219.8055
  17   2.0000      -8.076878      -219.7830
  18   2.0000      -6.036289      -164.2558
  19   2.0000      -6.035496      -164.2342
  20   2.0000      -6.032212      -164.1448
  21   2.0000      -6.031868      -164.1355
  22   2.0000      -6.028453      -164.0425
  23   2.0000      -6.027197      -164.0084
  24   2.0000      -1.003520       -27.3072
  25   2.0000      -0.977921       -26.6106
  26   2.0000      -0.914965       -24.8975
  27   2.0000      -0.912469       -24.8295
  28   2.0000      -0.873381       -23.7659
  29   2.0000      -0.851978       -23.1835
  30   2.0000      -0.843763       -22.9600
  31   2.0000      -0.820252       -22.3202
  32   2.0000      -0.787475       -21.4283
  33   2.0000      -0.771911       -21.0048
  34   2.0000      -0.713753       -19.4222
  35   2.0000      -0.699513       -19.0347
  36   2.0000      -0.691154       -18.8073
  37   2.0000      -0.663074       -18.0432
  38   2.0000      -0.640180       -17.4202
  39   2.0000      -0.623514       -16.9667
  40   2.0000      -0.604364       -16.4456
  41   2.0000      -0.574806       -15.6413
  42   2.0000      -0.565733       -15.3944
  43   2.0000      -0.552659       -15.0386
  44   2.0000      -0.541026       -14.7221
  45   2.0000      -0.523523       -14.2458
  46   2.0000      -0.519945       -14.1484
  47   2.0000      -0.516431       -14.0528
  48   2.0000      -0.504227       -13.7207
  49   2.0000      -0.496598       -13.5131
  50   2.0000      -0.492082       -13.3902
  51   2.0000      -0.480331       -13.0705
  52   2.0000      -0.474016       -12.8986
  53   2.0000      -0.463880       -12.6228
  54   2.0000      -0.457432       -12.4474
  55   2.0000      -0.451357       -12.2821
  56   2.0000      -0.445029       -12.1098
  57   2.0000      -0.437591       -11.9075
  58   2.0000      -0.429827       -11.6962
  59   2.0000      -0.427261       -11.6264
  60   2.0000      -0.423559       -11.5256
  61   2.0000      -0.415324       -11.3015
  62   2.0000      -0.414786       -11.2869
  63   2.0000      -0.351655        -9.5690
  64   2.0000      -0.331636        -9.0243
  65   2.0000      -0.325988        -8.8706
  66   2.0000      -0.284916        -7.7530
  67   0.0000       0.023518         0.6400
  68   0.0000       0.069675         1.8960
  69   0.0000       0.096231         2.6186
  70   0.0000       0.117031         3.1846
  71   0.0000       0.132933         3.6173

MULLIKEN ATOMIC CHARGES
-----------------------
   0 S :    0.100351
   1 C :   -0.121958
   2 C :   -0.124085
   3 C :    0.023595
   4 C :   -0.145134
   5 H :    0.011137
   6 C :    0.094208
   7 H :    0.022206
   8 H :    0.041669
   9 C :   -0.092279
  10 H :    0.025598
  11 H :    0.028113
  12 C :    0.014026
  13 H :    0.017960
  14 H :    0.002098
  15 H :    0.003056
  16 S :    0.080258
  17 C :   -0.080798
  18 C :   -0.001170
  19 C :   -0.033390
  20 C :   -0.121520
  21 H :    0.020553
  22 C :    0.034908
  23 H :    0.035932
  24 H :    0.022292
  25 C :   -0.098541
  26 H :    0.025910
  27 H :    0.022258
  28 C :   -0.046341
  29 H :    0.040415
  30 H :    0.036634
  31 H :    0.050656
  32 H :    0.061470
  33 H :    0.049912
Sum of atomic charges:    0.0000000

LOEWDIN ATOMIC CHARGES
----------------------
   0 S :    0.392020
   1 C :   -0.211221
   2 C :   -0.064600
   3 C :   -0.063746
   4 C :   -0.174372
   5 H :    0.028894
   6 C :   -0.033098
   7 H :    0.029337
   8 H :    0.039382
   9 C :   -0.041591
  10 H :    0.030461
  11 H :    0.024260
  12 C :   -0.059123
  13 H :    0.026822
  14 H :    0.010257
  15 H :    0.019912
  16 S :    0.348099
  17 C :   -0.138328
  18 C :   -0.057729
  19 C :   -0.048279
  20 C :   -0.189341
  21 H :    0.031570
  22 C :   -0.043329
  23 H :    0.035922
  24 H :    0.025718
  25 C :   -0.043178
  26 H :    0.017983
  27 H :    0.024218
  28 C :   -0.063108
  29 H :    0.028733
  30 H :    0.023349
  31 H :    0.036605
  32 H :    0.039294
  33 H :    0.018208

  Mayer bond orders larger than 0.100000
B(  0-S ,  1-C ) :   1.1470 B(  0-S ,  4-C ) :   1.1280 B(  1-C ,  2-C ) :   1.6170
B(  1-C , 32-H ) :   0.9629 B(  2-C ,  3-C ) :   1.2347 B(  2-C ,  6-C ) :   1.0103
B(  3-C ,  4-C ) :   1.5907 B(  3-C ,  5-H ) :   0.9884 B(  4-C , 20-C ) :   1.0615
B(  6-C ,  7-H ) :   0.9279 B(  6-C ,  8-H ) :   0.9392 B(  6-C ,  9-C ) :   1.0929
B(  9-C , 10-H ) :   0.9520 B(  9-C , 11-H ) :   0.9542 B(  9-C , 12-C ) :   1.0734
B( 12-C , 13-H ) :   0.9705 B( 12-C , 14-H ) :   0.9741 B( 12-C , 15-H ) :   0.9663
B( 16-S , 17-C ) :   1.1215 B( 16-S , 20-C ) :   1.0956 B( 17-C , 18-C ) :   1.6532
B( 17-C , 33-H ) :   0.9762 B( 18-C , 19-C ) :   1.1588 B( 18-C , 21-H ) :   0.9968
B( 19-C , 20-C ) :   1.6357 B( 19-C , 22-C ) :   1.0725 B( 22-C , 23-H ) :   0.9288
B( 22-C , 24-H ) :   0.9220 B( 22-C , 25-C ) :   1.0504 B( 25-C , 26-H ) :   0.9589
B( 25-C , 27-H ) :   0.9509 B( 25-C , 28-C ) :   1.0803 B( 28-C , 29-H ) :   0.9741
B( 28-C , 30-H ) :   0.9761 B( 28-C , 31-H ) :   0.9742

Dispersion correction           -0.014069747
FINAL SINGLE POINT ENERGY     -1339.866847213817

DIPOLE MOMENT
-------------
                                X             Y             Z
Electronic contribution:    -23.53590       2.84522      18.24919
Nuclear contribution   :     24.20940      -2.77643     -18.68338
                        -----------------------------------------
Total Dipole Moment    :      0.67351       0.06879      -0.43419
                        -----------------------------------------
Magnitude (a.u.)       :      0.80428
Magnitude (Debye)      :      2.04432

Rotational constants in cm-1:     0.015592     0.009760     0.007248
Rotational constants in MHz :   467.436412   292.596588   217.284875

                             ****ORCA TERMINATED NORMALLY****
TOTAL RUN TIME: 0 days 0 hours 0 minutes 20 seconds 977 msec
