                         Program Version 4.2.1 -  RELEASE  -
|  1> ! wB97X-D3 SP def2-SVP
|  2> %pal
|  3> nprocs 24
|  4> end
|  5>
|  6> * xyz 0 1
|  7> S 	 -122.184 	 34.6776 	 -122.607
|  8> C 	 -120.444 	 34.9207 	 -122.583
|  9> C 	 -119.916 	 34.6632 	 -121.324
| 10> C 	 -120.927 	 34.251 	 -120.335
| 11> C 	 -122.244 	 34.1807 	 -120.919
| 12> H 	 -120.706 	 33.8974 	 -119.366
| 13> C 	 -118.494 	 34.751 	 -120.841
| 14> H 	 -117.98 	 34.7167 	 -121.82
| 15> H 	 -118.154 	 33.7854 	 -120.519
| 16> C 	 -118.169 	 36.0202 	 -120.084
| 17> H 	 -117.086 	 36.1886 	 -120.102
| 18> H 	 -118.68 	 36.893 	 -120.639
| 19> C 	 -118.628 	 36.0323 	 -118.621
| 20> H 	 -118.255 	 35.1085 	 -118.093
| 21> H 	 -118.247 	 36.9038 	 -118.074
| 22> H 	 -119.741 	 36.096 	 -118.454
| 23> S 	 -123.933 	 32.164 	 -120.402
| 24> C 	 -125.289 	 32.2202 	 -119.403
| 25> C 	 -125.318 	 33.4172 	 -118.731
| 26> C 	 -124.231 	 34.3369 	 -119.153
| 27> C 	 -123.438 	 33.7568 	 -120.155
| 28> H 	 -125.97 	 33.6585 	 -117.852
| 29> C 	 -123.989 	 35.6812 	 -118.456
| 30> H 	 -122.907 	 35.8965 	 -118.606
| 31> H 	 -124.078 	 35.4433 	 -117.412
| 32> C 	 -124.918 	 36.833 	 -118.806
| 33> H 	 -125.732 	 36.6476 	 -118.128
| 34> H 	 -125.223 	 36.7146 	 -119.877
| 35> C 	 -124.359 	 38.1948 	 -118.208
| 36> H 	 -123.436 	 38.5044 	 -118.636
| 37> H 	 -124.296 	 38.036 	 -117.121
| 38> H 	 -125.005 	 38.9766 	 -118.387
| 39> H 	 -119.816 	 35.3616 	 -123.388
| 40> H 	 -125.931 	 31.4067 	 -119.054
| 41> *
| 42>
| 43>                          ****END OF INPUT****

CARTESIAN COORDINATES (ANGSTROEM)
---------------------------------
  S    -122.184000   34.677600  -122.607000
  C    -120.444000   34.920700  -122.583000
  C    -119.916000   34.663200  -121.324000
  C    -120.927000   34.251000  -120.335000
  C    -122.244000   34.180700  -120.919000
  H    -120.706000   33.897400  -119.366000
  C    -118.494000   34.751000  -120.841000
  H    -117.980000   34.716700  -121.820000
  H    -118.154000   33.785400  -120.519000
  C    -118.169000   36.020200  -120.084000
  H    -117.086000   36.188600  -120.102000
  H    -118.680000   36.893000  -120.639000
  C    -118.628000   36.032300  -118.621000
  H    -118.255000   35.108500  -118.093000
  H    -118.247000   36.903800  -118.074000
  H    -119.741000   36.096000  -118.454000
  S    -123.933000   32.164000  -120.402000
  C    -125.289000   32.220200  -119.403000
  C    -125.318000   33.417200  -118.731000
  C    -124.231000   34.336900  -119.153000
  C    -123.438000   33.756800  -120.155000
  H    -125.970000   33.658500  -117.852000
  C    -123.989000   35.681200  -118.456000
  H    -122.907000   35.896500  -118.606000
  H    -124.078000   35.443300  -117.412000
  C    -124.918000   36.833000  -118.806000
  H    -125.732000   36.647600  -118.128000
  H    -125.223000   36.714600  -119.877000
  C    -124.359000   38.194800  -118.208000
  H    -123.436000   38.504400  -118.636000
  H    -124.296000   38.036000  -117.121000
  H    -125.005000   38.976600  -118.387000
  H    -119.816000   35.361600  -123.388000
  H    -125.931000   31.406700  -119.054000

 Total Charge           Charge          ....    0
 Multiplicity           Mult            ....    1
 Number of Electrons    NEL             ....  134
 Basis Dimension        Dim             ....  322

ORBITAL ENERGIES
----------------

  NO   OCC          E(Eh)            E(eV)
   0   2.0000     -88.971845     -2421.0470
   1   2.0000     -88.960245     -2420.7313
   2   2.0000     -10.338258      -281.3183
   3   2.0000     -10.323919      -280.9281
   4   2.0000     -10.321015      -280.8491
   5   2.0000     -10.311968      -280.6029
   6   2.0000     -10.306189      -280.4457
   7   2.0000     -10.303431      -280.3706
   8   2.0000     -10.298639      -280.2402
   9   2.0000     -10.297684      -280.2142
  10   2.0000     -10.297106      -280.1985
  11   2.0000     -10.290030      -280.0059
  12   2.0000     -10.287011      -279.9238
  13   2.0000     -10.286395      -279.9070
  14   2.0000     -10.286306      -279.9046
  15   2.0000     -10.274210      -279.5755
  16   2.0000      -8.085600      -220.0204
  17   2.0000      -8.077390      -219.7970
  18   2.0000      -6.044254      -164.4725
  19   2.0000      -6.040119      -164.3600
  20   2.0000      -6.036385      -164.2584
  21   2.0000      -6.035837      -164.2435
  22   2.0000      -6.031272      -164.1193
  23   2.0000      -6.028333      -164.0393
  24   2.0000      -1.008592       -27.4452
  25   2.0000      -0.980589       -26.6832
  26   2.0000      -0.913240       -24.8505
  27   2.0000      -0.905788       -24.6478
  28   2.0000      -0.867658       -23.6102
  29   2.0000      -0.843903       -22.9638
  30   2.0000      -0.842170       -22.9166
  31   2.0000      -0.811667       -22.0866
  32   2.0000      -0.782031       -21.2801
  33   2.0000      -0.772473       -21.0201
  34   2.0000      -0.703951       -19.1555
  35   2.0000      -0.698893       -19.0178
  36   2.0000      -0.691266       -18.8103
  37   2.0000      -0.654549       -17.8112
  38   2.0000      -0.639066       -17.3899
  39   2.0000      -0.613477       -16.6935
  40   2.0000      -0.589879       -16.0514
  41   2.0000      -0.574557       -15.6345
  42   2.0000      -0.565812       -15.3965
  43   2.0000      -0.546026       -14.8581
  44   2.0000      -0.540943       -14.7198
  45   2.0000      -0.520685       -14.1685
  46   2.0000      -0.512662       -13.9502
  47   2.0000      -0.510593       -13.8939
  48   2.0000      -0.502303       -13.6684
  49   2.0000      -0.498686       -13.5699
  50   2.0000      -0.490411       -13.3448
  51   2.0000      -0.484379       -13.1806
  52   2.0000      -0.468598       -12.7512
  53   2.0000      -0.465468       -12.6660
  54   2.0000      -0.456556       -12.4235
  55   2.0000      -0.444362       -12.0917
  56   2.0000      -0.442445       -12.0395
  57   2.0000      -0.438899       -11.9430
  58   2.0000      -0.434894       -11.8341
  59   2.0000      -0.418184       -11.3794
  60   2.0000      -0.415596       -11.3089
  61   2.0000      -0.411717       -11.2034
  62   2.0000      -0.406644       -11.0653
  63   2.0000      -0.333567        -9.0768
  64   2.0000      -0.328653        -8.9431
  65   2.0000      -0.320596        -8.7239
  66   2.0000      -0.308621        -8.3980
  67   0.0000       0.042102         1.1456
  68   0.0000       0.061104         1.6627
  69   0.0000       0.113490         3.0882
  70   0.0000       0.119270         3.2455
  71   0.0000       0.125365         3.4114

MULLIKEN ATOMIC CHARGES
-----------------------
   0 S :    0.130489
   1 C :   -0.129180
   2 C :   -0.139895
   3 C :    0.066707
   4 C :   -0.161816
   5 H :    0.006768
   6 C :    0.076073
   7 H :    0.003139
   8 H :    0.028274
   9 C :   -0.047431
  10 H :    0.039269
  11 H :    0.043941
  12 C :   -0.091028
  13 H :    0.035758
  14 H :    0.037650
  15 H :    0.048395
  16 S :    0.123320
  17 C :   -0.080247
  18 C :   -0.064509
  19 C :   -0.071461
  20 C :   -0.181854
  21 H :    0.036047
  22 C :    0.052424
  23 H :    0.025465
  24 H :    0.015323
  25 C :   -0.073301
  26 H :    0.020333
  27 H :    0.055707
  28 C :   -0.014360
  29 H :    0.029859
  30 H :    0.030922
  31 H :    0.018210
  32 H :    0.064562
  33 H :    0.066447
Sum of atomic charges:   -0.0000000

LOEWDIN ATOMIC CHARGES
----------------------
   0 S :    0.411959
   1 C :   -0.211512
   2 C :   -0.062023
   3 C :   -0.047847
   4 C :   -0.203509
   5 H :    0.023022
   6 C :   -0.045270
   7 H :    0.034144
   8 H :    0.030891
   9 C :   -0.041678
  10 H :    0.027833
  11 H :    0.038856
  12 C :   -0.079652
  13 H :    0.028037
  14 H :    0.027296
  15 H :    0.029658
  16 S :    0.464192
  17 C :   -0.218417
  18 C :   -0.083139
  19 C :   -0.054954
  20 C :   -0.231654
  21 H :    0.036302
  22 C :   -0.039160
  23 H :    0.028638
  24 H :    0.026113
  25 C :   -0.039405
  26 H :    0.023307
  27 H :    0.032656
  28 C :   -0.051335
  29 H :    0.019998
  30 H :    0.031122
  31 H :    0.015123
  32 H :    0.040892
  33 H :    0.039516

  Mayer bond orders larger than 0.100000
B(  0-S ,  1-C ) :   1.1328 B(  0-S ,  4-C ) :   1.1616 B(  1-C ,  2-C ) :   1.6252
B(  1-C , 32-H ) :   0.9571 B(  2-C ,  3-C ) :   1.2422 B(  2-C ,  6-C ) :   1.0228
B(  3-C ,  4-C ) :   1.5529 B(  3-C ,  5-H ) :   0.9893 B(  4-C , 20-C ) :   1.0059
B(  6-C ,  7-H ) :   0.9263 B(  6-C ,  8-H ) :   0.9406 B(  6-C ,  9-C ) :   1.0572
B(  9-C , 10-H ) :   0.9552 B(  9-C , 11-H ) :   0.9488 B(  9-C , 12-C ) :   1.0829
B( 12-C , 13-H ) :   0.9734 B( 12-C , 14-H ) :   0.9720 B( 12-C , 15-H ) :   0.9694
B( 16-S , 17-C ) :   1.1762 B( 16-S , 20-C ) :   1.1808 B( 17-C , 18-C ) :   1.5858
B( 17-C , 33-H ) :   0.9644 B( 18-C , 19-C ) :   1.2662 B( 18-C , 21-H ) :   0.9779
B( 19-C , 20-C ) :   1.5761 B( 19-C , 22-C ) :   1.0392 B( 22-C , 23-H ) :   0.9417
B( 22-C , 24-H ) :   0.9326 B( 22-C , 25-C ) :   1.0477 B( 25-C , 26-H ) :   0.9546
B( 25-C , 27-H ) :   0.9649 B( 25-C , 28-C ) :   1.0688 B( 28-C , 29-H ) :   0.9802
B( 28-C , 30-H ) :   0.9740 B( 28-C , 31-H ) :   0.9764

Dispersion correction           -0.014385517
FINAL SINGLE POINT ENERGY     -1339.860521701193

DIPOLE MOMENT
-------------
                                X             Y             Z
Electronic contribution:    -10.29351     -19.59482     -16.69099
Nuclear contribution   :     10.67141      19.88525      17.24524
                        -----------------------------------------
Total Dipole Moment    :      0.37790       0.29042       0.55425
                        -----------------------------------------
Magnitude (a.u.)       :      0.73099
Magnitude (Debye)      :      1.85803

Rotational constants in cm-1:     0.016148     0.009322     0.007339
Rotational constants in MHz :   484.099547   279.471883   220.010823

                             ****ORCA TERMINATED NORMALLY****
TOTAL RUN TIME: 0 days 0 hours 0 minutes 21 seconds 594 msec
