                         Program Version 4.2.1 -  RELEASE  -
|  1> ! wB97X-D3 SP def2-SVP
|  2> %pal
|  3> nprocs 24
|  4> end
|  5>
|  6> * xyz 0 1
|  7> S 	 -96.7139 	 -25.6308 	 -67.482
|  8> C 	 -97.4139 	 -24.2762 	 -66.6648
|  9> C 	 -98.0998 	 -24.7698 	 -65.6014
| 10> C 	 -97.8782 	 -26.1509 	 -65.3103
| 11> C 	 -97.1646 	 -26.8018 	 -66.2491
| 12> H 	 -98.198 	 -26.6178 	 -64.4609
| 13> C 	 -98.8698 	 -23.8198 	 -64.695
| 14> H 	 -99.726 	 -24.3792 	 -64.2092
| 15> H 	 -99.275 	 -23.0213 	 -65.3362
| 16> C 	 -97.9984 	 -23.0127 	 -63.6983
| 17> H 	 -97.2101 	 -22.3779 	 -64.2186
| 18> H 	 -98.6329 	 -22.2074 	 -63.2547
| 19> C 	 -97.4613 	 -23.9703 	 -62.6081
| 20> H 	 -96.785 	 -23.4708 	 -61.8524
| 21> H 	 -98.2604 	 -24.4427 	 -62.1084
| 22> H 	 -96.9069 	 -24.6717 	 -63.1408
| 23> S 	 -96.9141 	 -28.8877 	 -67.9801
| 24> C 	 -96.3298 	 -30.4811 	 -67.4346
| 25> C 	 -96.2252 	 -30.4238 	 -66.0792
| 26> C 	 -96.4208 	 -29.1617 	 -65.4154
| 27> C 	 -96.8974 	 -28.1943 	 -66.3407
| 28> H 	 -95.8423 	 -31.4059 	 -65.6918
| 29> C 	 -96.0418 	 -29.0095 	 -63.9581
| 30> H 	 -96.1643 	 -27.9316 	 -63.763
| 31> H 	 -95.0398 	 -29.2835 	 -63.7463
| 32> C 	 -97.0507 	 -29.7137 	 -63.0342
| 33> H 	 -97.2212 	 -30.7632 	 -63.2941
| 34> H 	 -98.034 	 -29.2839 	 -63.0557
| 35> C 	 -96.7086 	 -29.6863 	 -61.5557
| 36> H 	 -97.437 	 -30.2805 	 -61.0258
| 37> H 	 -96.6928 	 -28.6882 	 -61.1724
| 38> H 	 -95.754 	 -30.1715 	 -61.2862
| 39> H 	 -97.3531 	 -23.2034 	 -66.9189
| 40> H 	 -96.2907 	 -31.3843 	 -67.9909
| 41> *
| 42>
| 43>                          ****END OF INPUT****

CARTESIAN COORDINATES (ANGSTROEM)
---------------------------------
  S    -96.713900  -25.630800  -67.482000
  C    -97.413900  -24.276200  -66.664800
  C    -98.099800  -24.769800  -65.601400
  C    -97.878200  -26.150900  -65.310300
  C    -97.164600  -26.801800  -66.249100
  H    -98.198000  -26.617800  -64.460900
  C    -98.869800  -23.819800  -64.695000
  H    -99.726000  -24.379200  -64.209200
  H    -99.275000  -23.021300  -65.336200
  C    -97.998400  -23.012700  -63.698300
  H    -97.210100  -22.377900  -64.218600
  H    -98.632900  -22.207400  -63.254700
  C    -97.461300  -23.970300  -62.608100
  H    -96.785000  -23.470800  -61.852400
  H    -98.260400  -24.442700  -62.108400
  H    -96.906900  -24.671700  -63.140800
  S    -96.914100  -28.887700  -67.980100
  C    -96.329800  -30.481100  -67.434600
  C    -96.225200  -30.423800  -66.079200
  C    -96.420800  -29.161700  -65.415400
  C    -96.897400  -28.194300  -66.340700
  H    -95.842300  -31.405900  -65.691800
  C    -96.041800  -29.009500  -63.958100
  H    -96.164300  -27.931600  -63.763000
  H    -95.039800  -29.283500  -63.746300
  C    -97.050700  -29.713700  -63.034200
  H    -97.221200  -30.763200  -63.294100
  H    -98.034000  -29.283900  -63.055700
  C    -96.708600  -29.686300  -61.555700
  H    -97.437000  -30.280500  -61.025800
  H    -96.692800  -28.688200  -61.172400
  H    -95.754000  -30.171500  -61.286200
  H    -97.353100  -23.203400  -66.918900
  H    -96.290700  -31.384300  -67.990900

 Total Charge           Charge          ....    0
 Multiplicity           Mult            ....    1
 Number of Electrons    NEL             ....  134
 Basis Dimension        Dim             ....  322

ORBITAL ENERGIES
----------------

  NO   OCC          E(Eh)            E(eV)
   0   2.0000     -88.963715     -2420.8258
   1   2.0000     -88.963459     -2420.8188
   2   2.0000     -10.336223      -281.2629
   3   2.0000     -10.328246      -281.0459
   4   2.0000     -10.315941      -280.7110
   5   2.0000     -10.314278      -280.6658
   6   2.0000     -10.312685      -280.6224
   7   2.0000     -10.297168      -280.2002
   8   2.0000     -10.296528      -280.1828
   9   2.0000     -10.296013      -280.1687
  10   2.0000     -10.295539      -280.1559
  11   2.0000     -10.294643      -280.1315
  12   2.0000     -10.286805      -279.9182
  13   2.0000     -10.284718      -279.8614
  14   2.0000     -10.274500      -279.5834
  15   2.0000     -10.272987      -279.5422
  16   2.0000      -8.078771      -219.8345
  17   2.0000      -8.077365      -219.7963
  18   2.0000      -6.037429      -164.2868
  19   2.0000      -6.036088      -164.2503
  20   2.0000      -6.033161      -164.1707
  21   2.0000      -6.031927      -164.1371
  22   2.0000      -6.029357      -164.0671
  23   2.0000      -6.027979      -164.0297
  24   2.0000      -1.013022       -27.5657
  25   2.0000      -0.984262       -26.7831
  26   2.0000      -0.912740       -24.8369
  27   2.0000      -0.910322       -24.7711
  28   2.0000      -0.878202       -23.8971
  29   2.0000      -0.852012       -23.1844
  30   2.0000      -0.843067       -22.9410
  31   2.0000      -0.823333       -22.4040
  32   2.0000      -0.782636       -21.2966
  33   2.0000      -0.771770       -21.0009
  34   2.0000      -0.713427       -19.4133
  35   2.0000      -0.700582       -19.0638
  36   2.0000      -0.698488       -19.0068
  37   2.0000      -0.660087       -17.9619
  38   2.0000      -0.641937       -17.4680
  39   2.0000      -0.622517       -16.9396
  40   2.0000      -0.596325       -16.2268
  41   2.0000      -0.572733       -15.5849
  42   2.0000      -0.568855       -15.4793
  43   2.0000      -0.546540       -14.8721
  44   2.0000      -0.539909       -14.6917
  45   2.0000      -0.534285       -14.5386
  46   2.0000      -0.522506       -14.2181
  47   2.0000      -0.518099       -14.0982
  48   2.0000      -0.514752       -14.0071
  49   2.0000      -0.505819       -13.7640
  50   2.0000      -0.495823       -13.4920
  51   2.0000      -0.481383       -13.0991
  52   2.0000      -0.472832       -12.8664
  53   2.0000      -0.469368       -12.7722
  54   2.0000      -0.456740       -12.4285
  55   2.0000      -0.444185       -12.0869
  56   2.0000      -0.439514       -11.9598
  57   2.0000      -0.436722       -11.8838
  58   2.0000      -0.432488       -11.7686
  59   2.0000      -0.423332       -11.5195
  60   2.0000      -0.420189       -11.4339
  61   2.0000      -0.414851       -11.2887
  62   2.0000      -0.405395       -11.0314
  63   2.0000      -0.362129        -9.8540
  64   2.0000      -0.330432        -8.9915
  65   2.0000      -0.327639        -8.9155
  66   2.0000      -0.289629        -7.8812
  67   0.0000       0.022642         0.6161
  68   0.0000       0.073080         1.9886
  69   0.0000       0.112733         3.0676
  70   0.0000       0.122400         3.3307
  71   0.0000       0.124931         3.3996

MULLIKEN ATOMIC CHARGES
-----------------------
   0 S :    0.106936
   1 C :   -0.122237
   2 C :   -0.091008
   3 C :    0.055617
   4 C :   -0.111217
   5 H :   -0.038179
   6 C :    0.021541
   7 H :    0.042536
   8 H :    0.025340
   9 C :   -0.094886
  10 H :    0.034313
  11 H :    0.030891
  12 C :   -0.021026
  13 H :    0.042269
  14 H :    0.020145
  15 H :    0.024647
  16 S :    0.079458
  17 C :   -0.086200
  18 C :   -0.056498
  19 C :   -0.038498
  20 C :   -0.140747
  21 H :    0.034556
  22 C :    0.119752
  23 H :    0.016682
  24 H :    0.029900
  25 C :   -0.095649
  26 H :    0.026491
  27 H :    0.022098
  28 C :   -0.033346
  29 H :    0.027654
  30 H :    0.026214
  31 H :    0.025044
  32 H :    0.064058
  33 H :    0.053347
Sum of atomic charges:   -0.0000000

LOEWDIN ATOMIC CHARGES
----------------------
   0 S :    0.407868
   1 C :   -0.199603
   2 C :   -0.071459
   3 C :   -0.057163
   4 C :   -0.187664
   5 H :    0.013776
   6 C :   -0.038594
   7 H :    0.035651
   8 H :    0.032304
   9 C :   -0.043795
  10 H :    0.027934
  11 H :    0.022258
  12 C :   -0.061421
  13 H :    0.032462
  14 H :    0.018502
  15 H :    0.016287
  16 S :    0.376341
  17 C :   -0.175248
  18 C :   -0.077751
  19 C :   -0.053599
  20 C :   -0.177716
  21 H :    0.039176
  22 C :   -0.023575
  23 H :    0.033217
  24 H :    0.029097
  25 C :   -0.040766
  26 H :    0.022838
  27 H :    0.023701
  28 C :   -0.064011
  29 H :    0.026627
  30 H :    0.019611
  31 H :    0.023462
  32 H :    0.042146
  33 H :    0.029106

  Mayer bond orders larger than 0.100000
B(  0-S ,  1-C ) :   1.1312 B(  0-S ,  4-C ) :   1.1362 B(  1-C ,  2-C ) :   1.6045
B(  1-C , 32-H ) :   0.9694 B(  2-C ,  3-C ) :   1.2336 B(  2-C ,  6-C ) :   1.0300
B(  3-C ,  4-C ) :   1.5538 B(  3-C ,  5-H ) :   1.0187 B(  4-C , 20-C ) :   1.0874
B(  6-C ,  7-H ) :   0.9469 B(  6-C ,  8-H ) :   0.9367 B(  6-C ,  9-C ) :   1.0700
B(  9-C , 10-H ) :   0.9560 B(  9-C , 11-H ) :   0.9571 B(  9-C , 12-C ) :   1.0611
B( 12-C , 13-H ) :   0.9730 B( 12-C , 14-H ) :   0.9742 B( 12-C , 15-H ) :   0.9786
B( 16-S , 17-C ) :   1.1215 B( 16-S , 20-C ) :   1.1355 B( 17-C , 18-C ) :   1.6627
B( 17-C , 20-C ) :   0.1005 B( 17-C , 33-H ) :   0.9680 B( 18-C , 19-C ) :   1.2085
B( 18-C , 21-H ) :   0.9752 B( 19-C , 20-C ) :   1.5728 B( 19-C , 22-C ) :   1.0503
B( 22-C , 23-H ) :   0.9240 B( 22-C , 24-H ) :   0.9397 B( 22-C , 25-C ) :   1.0595
B( 25-C , 26-H ) :   0.9595 B( 25-C , 27-H ) :   0.9508 B( 25-C , 28-C ) :   1.0938
B( 28-C , 29-H ) :   0.9719 B( 28-C , 30-H ) :   0.9742 B( 28-C , 31-H ) :   0.9731

Dispersion correction           -0.014284029
FINAL SINGLE POINT ENERGY     -1339.870326466470

DIPOLE MOMENT
-------------
                                X             Y             Z
Electronic contribution:      2.87810      -4.44602     -30.56678
Nuclear contribution   :     -2.94415       4.42255      31.26515
                        -----------------------------------------
Total Dipole Moment    :     -0.06605      -0.02348       0.69837
                        -----------------------------------------
Magnitude (a.u.)       :      0.70188
Magnitude (Debye)      :      1.78405

Rotational constants in cm-1:     0.016821     0.009967     0.006559
Rotational constants in MHz :   504.275978   298.817816   196.634020

                             ****ORCA TERMINATED NORMALLY****
TOTAL RUN TIME: 0 days 0 hours 0 minutes 20 seconds 885 msec
