                         Program Version 4.2.1 -  RELEASE  -
|  1> ! wB97X-D3 SP def2-SVP
|  2> %pal
|  3> nprocs 24
|  4> end
|  5>
|  6> * xyz 0 1
|  7> S 	 -76.3419 	 -3.93454 	 10.5339
|  8> C 	 -77.7002 	 -4.12982 	 9.44052
|  9> C 	 -78.6584 	 -3.12071 	 9.65942
| 10> C 	 -78.3572 	 -2.30098 	 10.7763
| 11> C 	 -77.0308 	 -2.53231 	 11.2879
| 12> H 	 -78.9653 	 -1.56313 	 11.2479
| 13> C 	 -79.8828 	 -2.94 	 8.82164
| 14> H 	 -79.7097 	 -3.42533 	 7.82328
| 15> H 	 -80.0928 	 -1.84199 	 8.62587
| 16> C 	 -81.1239 	 -3.64325 	 9.26429
| 17> H 	 -81.6777 	 -3.86679 	 8.33694
| 18> H 	 -80.7379 	 -4.55265 	 9.78668
| 19> C 	 -81.9762 	 -2.79127 	 10.2536
| 20> H 	 -81.6027 	 -1.76446 	 10.3189
| 21> H 	 -83.0089 	 -2.72432 	 9.88589
| 22> H 	 -81.9444 	 -3.22213 	 11.2607
| 23> S 	 -74.958 	 -2.66284 	 13.1043
| 24> C 	 -74.5373 	 -1.26391 	 14.0712
| 25> C 	 -75.3064 	 -0.197463 	 13.7649
| 26> C 	 -76.3268 	 -0.46226 	 12.7547
| 27> C 	 -76.2597 	 -1.77408 	 12.2853
| 28> H 	 -75.0898 	 0.682004 	 14.3234
| 29> C 	 -77.3714 	 0.640847 	 12.4419
| 30> H 	 -78.158 	 0.661448 	 13.1968
| 31> H 	 -77.9065 	 0.493143 	 11.505
| 32> C 	 -76.8517 	 2.01501 	 12.3576
| 33> H 	 -76.6536 	 2.32585 	 13.404
| 34> H 	 -77.6332 	 2.74097 	 12.137
| 35> C 	 -75.536 	 2.16717 	 11.4438
| 36> H 	 -75.485 	 3.21756 	 11.0951
| 37> H 	 -75.4353 	 1.31563 	 10.7235
| 38> H 	 -74.7452 	 2.05237 	 12.1545
| 39> H 	 -77.6673 	 -4.89211 	 8.66136
| 40> H 	 -73.7887 	 -1.38501 	 14.8321
| 41> *
| 42>
| 43>                          ****END OF INPUT****

CARTESIAN COORDINATES (ANGSTROEM)
---------------------------------
  S    -76.341900   -3.934540   10.533900
  C    -77.700200   -4.129820    9.440520
  C    -78.658400   -3.120710    9.659420
  C    -78.357200   -2.300980   10.776300
  C    -77.030800   -2.532310   11.287900
  H    -78.965300   -1.563130   11.247900
  C    -79.882800   -2.940000    8.821640
  H    -79.709700   -3.425330    7.823280
  H    -80.092800   -1.841990    8.625870
  C    -81.123900   -3.643250    9.264290
  H    -81.677700   -3.866790    8.336940
  H    -80.737900   -4.552650    9.786680
  C    -81.976200   -2.791270   10.253600
  H    -81.602700   -1.764460   10.318900
  H    -83.008900   -2.724320    9.885890
  H    -81.944400   -3.222130   11.260700
  S    -74.958000   -2.662840   13.104300
  C    -74.537300   -1.263910   14.071200
  C    -75.306400   -0.197463   13.764900
  C    -76.326800   -0.462260   12.754700
  C    -76.259700   -1.774080   12.285300
  H    -75.089800    0.682004   14.323400
  C    -77.371400    0.640847   12.441900
  H    -78.158000    0.661448   13.196800
  H    -77.906500    0.493143   11.505000
  C    -76.851700    2.015010   12.357600
  H    -76.653600    2.325850   13.404000
  H    -77.633200    2.740970   12.137000
  C    -75.536000    2.167170   11.443800
  H    -75.485000    3.217560   11.095100
  H    -75.435300    1.315630   10.723500
  H    -74.745200    2.052370   12.154500
  H    -77.667300   -4.892110    8.661360
  H    -73.788700   -1.385010   14.832100

 Total Charge           Charge          ....    0
 Multiplicity           Mult            ....    1
 Number of Electrons    NEL             ....  134
 Basis Dimension        Dim             ....  322

ORBITAL ENERGIES
----------------

  NO   OCC          E(Eh)            E(eV)
   0   2.0000     -88.968332     -2420.9514
   1   2.0000     -88.962225     -2420.7852
   2   2.0000     -10.336875      -281.2807
   3   2.0000     -10.336034      -281.2578
   4   2.0000     -10.318451      -280.7793
   5   2.0000     -10.317078      -280.7420
   6   2.0000     -10.314778      -280.6794
   7   2.0000     -10.304590      -280.4021
   8   2.0000     -10.297703      -280.2147
   9   2.0000     -10.295442      -280.1532
  10   2.0000     -10.292651      -280.0773
  11   2.0000     -10.291703      -280.0515
  12   2.0000     -10.286303      -279.9045
  13   2.0000     -10.286095      -279.8989
  14   2.0000     -10.281762      -279.7810
  15   2.0000     -10.278389      -279.6892
  16   2.0000      -8.083087      -219.9520
  17   2.0000      -8.077187      -219.7914
  18   2.0000      -6.041500      -164.3976
  19   2.0000      -6.037435      -164.2870
  20   2.0000      -6.035789      -164.2422
  21   2.0000      -6.034113      -164.1966
  22   2.0000      -6.031719      -164.1314
  23   2.0000      -6.027788      -164.0244
  24   2.0000      -1.004129       -27.3237
  25   2.0000      -0.982245       -26.7282
  26   2.0000      -0.916738       -24.9457
  27   2.0000      -0.911930       -24.8149
  28   2.0000      -0.868765       -23.6403
  29   2.0000      -0.847268       -23.0553
  30   2.0000      -0.835280       -22.7291
  31   2.0000      -0.812732       -22.1156
  32   2.0000      -0.786514       -21.4021
  33   2.0000      -0.775282       -21.0965
  34   2.0000      -0.706198       -19.2166
  35   2.0000      -0.696071       -18.9410
  36   2.0000      -0.689842       -18.7716
  37   2.0000      -0.659156       -17.9366
  38   2.0000      -0.640381       -17.4257
  39   2.0000      -0.619167       -16.8484
  40   2.0000      -0.602073       -16.3832
  41   2.0000      -0.575908       -15.6712
  42   2.0000      -0.558097       -15.1866
  43   2.0000      -0.547280       -14.8922
  44   2.0000      -0.544438       -14.8149
  45   2.0000      -0.529456       -14.4072
  46   2.0000      -0.516394       -14.0518
  47   2.0000      -0.509268       -13.8579
  48   2.0000      -0.499869       -13.6021
  49   2.0000      -0.494252       -13.4493
  50   2.0000      -0.493843       -13.4382
  51   2.0000      -0.485335       -13.2066
  52   2.0000      -0.474635       -12.9155
  53   2.0000      -0.465558       -12.6685
  54   2.0000      -0.464066       -12.6279
  55   2.0000      -0.448783       -12.2120
  56   2.0000      -0.447441       -12.1755
  57   2.0000      -0.432486       -11.7685
  58   2.0000      -0.426905       -11.6167
  59   2.0000      -0.420096       -11.4314
  60   2.0000      -0.416201       -11.3254
  61   2.0000      -0.409089       -11.1319
  62   2.0000      -0.402861       -10.9624
  63   2.0000      -0.359733        -9.7888
  64   2.0000      -0.334158        -9.0929
  65   2.0000      -0.328513        -8.9393
  66   2.0000      -0.282505        -7.6873
  67   0.0000       0.017695         0.4815
  68   0.0000       0.081756         2.2247
  69   0.0000       0.096751         2.6327
  70   0.0000       0.111422         3.0319
  71   0.0000       0.141618         3.8536

MULLIKEN ATOMIC CHARGES
-----------------------
   0 S :    0.104763
   1 C :   -0.124091
   2 C :   -0.065966
   3 C :    0.024131
   4 C :   -0.137734
   5 H :    0.008102
   6 C :    0.003720
   7 H :    0.022092
   8 H :    0.042102
   9 C :   -0.071393
  10 H :    0.038386
  11 H :    0.040346
  12 C :   -0.061129
  13 H :    0.024301
  14 H :    0.039432
  15 H :    0.045550
  16 S :    0.071976
  17 C :   -0.084210
  18 C :   -0.024866
  19 C :   -0.048497
  20 C :   -0.126031
  21 H :    0.016751
  22 C :    0.076756
  23 H :    0.038263
  24 H :    0.025088
  25 C :   -0.123614
  26 H :    0.015112
  27 H :    0.025244
  28 C :   -0.037058
  29 H :    0.045523
  30 H :    0.061773
  31 H :    0.020340
  32 H :    0.057455
  33 H :    0.057381
Sum of atomic charges:   -0.0000000

LOEWDIN ATOMIC CHARGES
----------------------
   0 S :    0.417014
   1 C :   -0.201720
   2 C :   -0.062351
   3 C :   -0.064974
   4 C :   -0.191063
   5 H :    0.025489
   6 C :   -0.044563
   7 H :    0.035918
   8 H :    0.033620
   9 C :   -0.045745
  10 H :    0.027034
  11 H :    0.033000
  12 C :   -0.072549
  13 H :    0.020299
  14 H :    0.029675
  15 H :    0.030350
  16 S :    0.376792
  17 C :   -0.168885
  18 C :   -0.069728
  19 C :   -0.051872
  20 C :   -0.183733
  21 H :    0.030476
  22 C :   -0.037529
  23 H :    0.035681
  24 H :    0.027726
  25 C :   -0.050414
  26 H :    0.018140
  27 H :    0.023538
  28 C :   -0.067107
  29 H :    0.031980
  30 H :    0.037635
  31 H :    0.021564
  32 H :    0.029178
  33 H :    0.027122

  Mayer bond orders larger than 0.100000
B(  0-S ,  1-C ) :   1.1473 B(  0-S ,  4-C ) :   1.1833 B(  1-C ,  2-C ) :   1.5545
B(  1-C ,  4-C ) :   0.1097 B(  1-C , 32-H ) :   0.9715 B(  2-C ,  3-C ) :   1.2722
B(  2-C ,  6-C ) :   1.0453 B(  3-C ,  4-C ) :   1.5092 B(  3-C ,  5-H ) :   0.9959
B(  4-C , 20-C ) :   1.0759 B(  6-C ,  7-H ) :   0.9380 B(  6-C ,  8-H ) :   0.9431
B(  6-C ,  9-C ) :   1.0672 B(  9-C , 10-H ) :   0.9651 B(  9-C , 11-H ) :   0.9549
B(  9-C , 12-C ) :   1.0602 B( 12-C , 13-H ) :   0.9799 B( 12-C , 14-H ) :   0.9773
B( 12-C , 15-H ) :   0.9784 B( 16-S , 17-C ) :   1.1376 B( 16-S , 20-C ) :   1.1291
B( 17-C , 18-C ) :   1.6440 B( 17-C , 33-H ) :   0.9704 B( 18-C , 19-C ) :   1.1865
B( 18-C , 21-H ) :   0.9956 B( 19-C , 20-C ) :   1.6234 B( 19-C , 22-C ) :   1.0259
B( 22-C , 23-H ) :   0.9347 B( 22-C , 24-H ) :   0.9333 B( 22-C , 25-C ) :   1.0894
B( 25-C , 26-H ) :   0.9501 B( 25-C , 27-H ) :   0.9562 B( 25-C , 28-C ) :   1.0493
B( 28-C , 29-H ) :   0.9762 B( 28-C , 30-H ) :   0.9773 B( 28-C , 31-H ) :   0.9718

Dispersion correction           -0.014230439
FINAL SINGLE POINT ENERGY     -1339.870228147974

DIPOLE MOMENT
-------------
                                X             Y             Z
Electronic contribution:     19.44191     -16.63275       6.19165
Nuclear contribution   :    -19.84983      17.10992      -6.16076
                        -----------------------------------------
Total Dipole Moment    :     -0.40792       0.47717       0.03090
                        -----------------------------------------
Magnitude (a.u.)       :      0.62853
Magnitude (Debye)      :      1.59759

Rotational constants in cm-1:     0.019430     0.008426     0.006616
Rotational constants in MHz :   582.486278   252.596777   198.340418

                             ****ORCA TERMINATED NORMALLY****
TOTAL RUN TIME: 0 days 0 hours 0 minutes 21 seconds 477 msec
