                         Program Version 4.2.1 -  RELEASE  -
|  1> ! wB97X-D3 SP def2-SVP
|  2> %pal
|  3> nprocs 24
|  4> end
|  5>
|  6> * xyz 0 1
|  7> S 	 -50.6983 	 -49.1945 	 -76.0495
|  8> C 	 -51.3711 	 -47.64 	 -76.4379
|  9> C 	 -50.5279 	 -46.7982 	 -77.1193
| 10> C 	 -49.288 	 -47.4379 	 -77.3861
| 11> C 	 -49.2026 	 -48.7331 	 -76.8915
| 12> H 	 -48.5885 	 -47.0219 	 -78.0633
| 13> C 	 -50.8359 	 -45.3495 	 -77.5564
| 14> H 	 -49.9865 	 -44.6403 	 -77.6157
| 15> H 	 -51.5296 	 -44.8325 	 -76.9128
| 16> C 	 -51.2603 	 -45.3037 	 -78.9882
| 17> H 	 -51.3161 	 -44.224 	 -79.2231
| 18> H 	 -50.4833 	 -45.7971 	 -79.6155
| 19> C 	 -52.5513 	 -45.99 	 -79.4306
| 20> H 	 -52.625 	 -47.0187 	 -79.0203
| 21> H 	 -53.3723 	 -45.4994 	 -79.0241
| 22> H 	 -52.5624 	 -46.1807 	 -80.5325
| 23> S 	 -46.7779 	 -49.7056 	 -76.1437
| 24> C 	 -46.0653 	 -51.0191 	 -77.026
| 25> C 	 -46.7208 	 -51.2322 	 -78.203
| 26> C 	 -47.9497 	 -50.5253 	 -78.3319
| 27> C 	 -48.153 	 -49.7022 	 -77.2117
| 28> H 	 -46.4604 	 -52.1286 	 -78.7736
| 29> C 	 -48.9396 	 -50.777 	 -79.513
| 30> H 	 -48.3097 	 -50.7722 	 -80.3866
| 31> H 	 -49.4489 	 -49.7899 	 -79.4537
| 32> C 	 -49.8131 	 -52.0637 	 -79.5534
| 33> H 	 -50.2887 	 -52.1248 	 -78.5518
| 34> H 	 -49.0724 	 -52.8751 	 -79.4697
| 35> C 	 -50.7217 	 -52.1336 	 -80.7595
| 36> H 	 -50.1999 	 -52.4246 	 -81.6943
| 37> H 	 -51.2306 	 -51.1968 	 -81.0912
| 38> H 	 -51.4989 	 -52.92 	 -80.6558
| 39> H 	 -52.2863 	 -47.3282 	 -76.0937
| 40> H 	 -45.1215 	 -51.4894 	 -76.9326
| 41> *
| 42>
| 43>                          ****END OF INPUT****

CARTESIAN COORDINATES (ANGSTROEM)
---------------------------------
  S    -50.698300  -49.194500  -76.049500
  C    -51.371100  -47.640000  -76.437900
  C    -50.527900  -46.798200  -77.119300
  C    -49.288000  -47.437900  -77.386100
  C    -49.202600  -48.733100  -76.891500
  H    -48.588500  -47.021900  -78.063300
  C    -50.835900  -45.349500  -77.556400
  H    -49.986500  -44.640300  -77.615700
  H    -51.529600  -44.832500  -76.912800
  C    -51.260300  -45.303700  -78.988200
  H    -51.316100  -44.224000  -79.223100
  H    -50.483300  -45.797100  -79.615500
  C    -52.551300  -45.990000  -79.430600
  H    -52.625000  -47.018700  -79.020300
  H    -53.372300  -45.499400  -79.024100
  H    -52.562400  -46.180700  -80.532500
  S    -46.777900  -49.705600  -76.143700
  C    -46.065300  -51.019100  -77.026000
  C    -46.720800  -51.232200  -78.203000
  C    -47.949700  -50.525300  -78.331900
  C    -48.153000  -49.702200  -77.211700
  H    -46.460400  -52.128600  -78.773600
  C    -48.939600  -50.777000  -79.513000
  H    -48.309700  -50.772200  -80.386600
  H    -49.448900  -49.789900  -79.453700
  C    -49.813100  -52.063700  -79.553400
  H    -50.288700  -52.124800  -78.551800
  H    -49.072400  -52.875100  -79.469700
  C    -50.721700  -52.133600  -80.759500
  H    -50.199900  -52.424600  -81.694300
  H    -51.230600  -51.196800  -81.091200
  H    -51.498900  -52.920000  -80.655800
  H    -52.286300  -47.328200  -76.093700
  H    -45.121500  -51.489400  -76.932600

 Total Charge           Charge          ....    0
 Multiplicity           Mult            ....    1
 Number of Electrons    NEL             ....  134
 Basis Dimension        Dim             ....  322

ORBITAL ENERGIES
----------------

  NO   OCC          E(Eh)            E(eV)
   0   2.0000     -88.969365     -2420.9795
   1   2.0000     -88.965200     -2420.8662
   2   2.0000     -10.330254      -281.1005
   3   2.0000     -10.324610      -280.9469
   4   2.0000     -10.308809      -280.5170
   5   2.0000     -10.308690      -280.5137
   6   2.0000     -10.304390      -280.3967
   7   2.0000     -10.301271      -280.3118
   8   2.0000     -10.295289      -280.1491
   9   2.0000     -10.293880      -280.1107
  10   2.0000     -10.293145      -280.0907
  11   2.0000     -10.292332      -280.0686
  12   2.0000     -10.286630      -279.9134
  13   2.0000     -10.286373      -279.9064
  14   2.0000     -10.286304      -279.9046
  15   2.0000     -10.271884      -279.5122
  16   2.0000      -8.083720      -219.9692
  17   2.0000      -8.080226      -219.8741
  18   2.0000      -6.042189      -164.4163
  19   2.0000      -6.038654      -164.3201
  20   2.0000      -6.038293      -164.3103
  21   2.0000      -6.034635      -164.2108
  22   2.0000      -6.034546      -164.2084
  23   2.0000      -6.031108      -164.1148
  24   2.0000      -1.005765       -27.3683
  25   2.0000      -0.985621       -26.8201
  26   2.0000      -0.916040       -24.9267
  27   2.0000      -0.901912       -24.5423
  28   2.0000      -0.869184       -23.6517
  29   2.0000      -0.848545       -23.0901
  30   2.0000      -0.848416       -23.0866
  31   2.0000      -0.813506       -22.1366
  32   2.0000      -0.789829       -21.4923
  33   2.0000      -0.772772       -21.0282
  34   2.0000      -0.709618       -19.3097
  35   2.0000      -0.698008       -18.9938
  36   2.0000      -0.687065       -18.6960
  37   2.0000      -0.656217       -17.8566
  38   2.0000      -0.646467       -17.5913
  39   2.0000      -0.625919       -17.0321
  40   2.0000      -0.587231       -15.9794
  41   2.0000      -0.573812       -15.6142
  42   2.0000      -0.554733       -15.0950
  43   2.0000      -0.549416       -14.9504
  44   2.0000      -0.538726       -14.6595
  45   2.0000      -0.524005       -14.2589
  46   2.0000      -0.519016       -14.1231
  47   2.0000      -0.510415       -13.8891
  48   2.0000      -0.509810       -13.8726
  49   2.0000      -0.499972       -13.6049
  50   2.0000      -0.489745       -13.3266
  51   2.0000      -0.479455       -13.0466
  52   2.0000      -0.470656       -12.8072
  53   2.0000      -0.465494       -12.6667
  54   2.0000      -0.457451       -12.4479
  55   2.0000      -0.450055       -12.2466
  56   2.0000      -0.439569       -11.9613
  57   2.0000      -0.437961       -11.9175
  58   2.0000      -0.433421       -11.7940
  59   2.0000      -0.419909       -11.4263
  60   2.0000      -0.415477       -11.3057
  61   2.0000      -0.413623       -11.2552
  62   2.0000      -0.409222       -11.1355
  63   2.0000      -0.338509        -9.2113
  64   2.0000      -0.331978        -9.0336
  65   2.0000      -0.316782        -8.6201
  66   2.0000      -0.313831        -8.5398
  67   0.0000       0.046803         1.2736
  68   0.0000       0.050040         1.3617
  69   0.0000       0.112651         3.0654
  70   0.0000       0.115736         3.1493
  71   0.0000       0.127441         3.4678

MULLIKEN ATOMIC CHARGES
-----------------------
   0 S :    0.123293
   1 C :   -0.083040
   2 C :   -0.083994
   3 C :    0.070798
   4 C :   -0.185158
   5 H :    0.005303
   6 C :    0.090097
   7 H :    0.031101
   8 H :    0.019539
   9 C :   -0.116129
  10 H :    0.033620
  11 H :    0.027957
  12 C :   -0.035714
  13 H :    0.027407
  14 H :    0.014524
  15 H :    0.042933
  16 S :    0.119937
  17 C :   -0.063168
  18 C :   -0.063570
  19 C :   -0.038983
  20 C :   -0.202134
  21 H :    0.029187
  22 C :    0.055505
  23 H :    0.017387
  24 H :    0.034257
  25 C :   -0.031031
  26 H :    0.033393
  27 H :    0.022106
  28 C :   -0.056689
  29 H :    0.029462
  30 H :    0.041629
  31 H :    0.041641
  32 H :    0.007281
  33 H :    0.041252
Sum of atomic charges:    0.0000000

LOEWDIN ATOMIC CHARGES
----------------------
   0 S :    0.405938
   1 C :   -0.180760
   2 C :   -0.060031
   3 C :   -0.045664
   4 C :   -0.198628
   5 H :    0.027372
   6 C :   -0.031403
   7 H :    0.040215
   8 H :    0.025959
   9 C :   -0.047572
  10 H :    0.025517
  11 H :    0.025979
  12 C :   -0.071148
  13 H :    0.028051
  14 H :    0.011959
  15 H :    0.034314
  16 S :    0.422830
  17 C :   -0.188751
  18 C :   -0.082017
  19 C :   -0.053266
  20 C :   -0.212266
  21 H :    0.032957
  22 C :   -0.033058
  23 H :    0.025397
  24 H :    0.033791
  25 C :   -0.044111
  26 H :    0.029205
  27 H :    0.027064
  28 C :   -0.076122
  29 H :    0.029585
  30 H :    0.032891
  31 H :    0.032422
  32 H :    0.007482
  33 H :    0.025873

  Mayer bond orders larger than 0.100000
B(  0-S ,  1-C ) :   1.1499 B(  0-S ,  4-C ) :   1.1416 B(  1-C ,  2-C ) :   1.6194
B(  1-C , 32-H ) :   0.9715 B(  2-C ,  3-C ) :   1.2488 B(  2-C ,  6-C ) :   1.0157
B(  3-C ,  4-C ) :   1.5891 B(  3-C ,  5-H ) :   0.9955 B(  4-C , 20-C ) :   1.0027
B(  6-C ,  7-H ) :   0.9444 B(  6-C ,  8-H ) :   0.9438 B(  6-C ,  9-C ) :   1.0666
B(  9-C , 10-H ) :   0.9566 B(  9-C , 11-H ) :   0.9576 B(  9-C , 12-C ) :   1.0814
B( 12-C , 13-H ) :   0.9689 B( 12-C , 14-H ) :   0.9739 B( 12-C , 15-H ) :   0.9742
B( 16-S , 17-C ) :   1.1521 B( 16-S , 20-C ) :   1.1625 B( 17-C , 18-C ) :   1.6409
B( 17-C , 33-H ) :   0.9627 B( 18-C , 19-C ) :   1.2524 B( 18-C , 21-H ) :   0.9747
B( 19-C , 20-C ) :   1.5971 B( 19-C , 22-C ) :   1.0223 B( 22-C , 23-H ) :   0.9364
B( 22-C , 24-H ) :   0.9328 B( 22-C , 25-C ) :   1.0532 B( 25-C , 26-H ) :   0.9554
B( 25-C , 27-H ) :   0.9523 B( 25-C , 28-C ) :   1.0705 B( 28-C , 29-H ) :   0.9715
B( 28-C , 30-H ) :   0.9767 B( 28-C , 31-H ) :   0.9741

Dispersion correction           -0.014683053
FINAL SINGLE POINT ENERGY     -1339.867917083131

DIPOLE MOMENT
-------------
                                X             Y             Z
Electronic contribution:     14.49576      -4.04675      22.46085
Nuclear contribution   :    -14.65143       4.17225     -23.00240
                        -----------------------------------------
Total Dipole Moment    :     -0.15567       0.12550      -0.54155
                        -----------------------------------------
Magnitude (a.u.)       :      0.57729
Magnitude (Debye)      :      1.46735

Rotational constants in cm-1:     0.017142     0.009114     0.007177
Rotational constants in MHz :   513.904068   273.243829   215.161458

                             ****ORCA TERMINATED NORMALLY****
TOTAL RUN TIME: 0 days 0 hours 0 minutes 21 seconds 532 msec
