                         Program Version 4.2.1 -  RELEASE  -
|  1> ! wB97X-D3 SP def2-SVP
|  2> %pal
|  3> nprocs 24
|  4> end
|  5>
|  6> * xyz 0 1
|  7> S 	 -88.9692 	 -7.6165 	 -119.535
|  8> C 	 -88.0337 	 -9.08269 	 -119.834
|  9> C 	 -88.7968 	 -10.2224 	 -119.92
| 10> C 	 -90.1741 	 -9.91793 	 -119.75
| 11> C 	 -90.4691 	 -8.58617 	 -119.387
| 12> H 	 -91.0522 	 -10.508 	 -120.012
| 13> C 	 -88.3963 	 -11.7107 	 -120.183
| 14> H 	 -87.8435 	 -11.6512 	 -121.09
| 15> H 	 -89.3469 	 -12.3287 	 -120.418
| 16> C 	 -87.5512 	 -12.3655 	 -119.081
| 17> H 	 -86.6502 	 -11.7006 	 -118.952
| 18> H 	 -88.1006 	 -12.4848 	 -118.108
| 19> C 	 -87.0924 	 -13.7921 	 -119.371
| 20> H 	 -86.5413 	 -13.771 	 -120.353
| 21> H 	 -86.4989 	 -14.1287 	 -118.49
| 22> H 	 -87.9184 	 -14.49 	 -119.4
| 23> S 	 -92.123 	 -6.37454 	 -119.734
| 24> C 	 -93.6953 	 -6.34373 	 -119.041
| 25> C 	 -93.9639 	 -7.55213 	 -118.479
| 26> C 	 -92.9227 	 -8.51553 	 -118.442
| 27> C 	 -91.7703 	 -7.955 	 -119.01
| 28> H 	 -94.9623 	 -7.58748 	 -118.06
| 29> C 	 -93.1175 	 -9.92664 	 -117.929
| 30> H 	 -93.5403 	 -9.8248 	 -116.927
| 31> H 	 -92.1327 	 -10.3448 	 -117.67
| 32> C 	 -93.783 	 -10.9033 	 -118.826
| 33> H 	 -93.3095 	 -10.8536 	 -119.804
| 34> H 	 -94.8022 	 -10.64 	 -118.995
| 35> C 	 -93.8403 	 -12.4233 	 -118.381
| 36> H 	 -92.8954 	 -12.9588 	 -118.223
| 37> H 	 -94.305 	 -13.0448 	 -119.187
| 38> H 	 -94.4312 	 -12.5013 	 -117.412
| 39> H 	 -86.9921 	 -9.27281 	 -120.045
| 40> H 	 -94.4323 	 -5.53325 	 -119.145
| 41> *
| 42>
| 43>                          ****END OF INPUT****

CARTESIAN COORDINATES (ANGSTROEM)
---------------------------------
  S    -88.969200   -7.616500  -119.535000
  C    -88.033700   -9.082690  -119.834000
  C    -88.796800  -10.222400  -119.920000
  C    -90.174100   -9.917930  -119.750000
  C    -90.469100   -8.586170  -119.387000
  H    -91.052200  -10.508000  -120.012000
  C    -88.396300  -11.710700  -120.183000
  H    -87.843500  -11.651200  -121.090000
  H    -89.346900  -12.328700  -120.418000
  C    -87.551200  -12.365500  -119.081000
  H    -86.650200  -11.700600  -118.952000
  H    -88.100600  -12.484800  -118.108000
  C    -87.092400  -13.792100  -119.371000
  H    -86.541300  -13.771000  -120.353000
  H    -86.498900  -14.128700  -118.490000
  H    -87.918400  -14.490000  -119.400000
  S    -92.123000   -6.374540  -119.734000
  C    -93.695300   -6.343730  -119.041000
  C    -93.963900   -7.552130  -118.479000
  C    -92.922700   -8.515530  -118.442000
  C    -91.770300   -7.955000  -119.010000
  H    -94.962300   -7.587480  -118.060000
  C    -93.117500   -9.926640  -117.929000
  H    -93.540300   -9.824800  -116.927000
  H    -92.132700  -10.344800  -117.670000
  C    -93.783000  -10.903300  -118.826000
  H    -93.309500  -10.853600  -119.804000
  H    -94.802200  -10.640000  -118.995000
  C    -93.840300  -12.423300  -118.381000
  H    -92.895400  -12.958800  -118.223000
  H    -94.305000  -13.044800  -119.187000
  H    -94.431200  -12.501300  -117.412000
  H    -86.992100   -9.272810  -120.045000
  H    -94.432300   -5.533250  -119.145000

 Total Charge           Charge          ....    0
 Multiplicity           Mult            ....    1
 Number of Electrons    NEL             ....  134
 Basis Dimension        Dim             ....  322

ORBITAL ENERGIES
----------------

  NO   OCC          E(Eh)            E(eV)
   0   2.0000     -88.970599     -2421.0131
   1   2.0000     -88.965032     -2420.8616
   2   2.0000     -10.336617      -281.2737
   3   2.0000     -10.335173      -281.2343
   4   2.0000     -10.315363      -280.6953
   5   2.0000     -10.314549      -280.6731
   6   2.0000     -10.308878      -280.5188
   7   2.0000     -10.303024      -280.3595
   8   2.0000     -10.302048      -280.3330
   9   2.0000     -10.295462      -280.1538
  10   2.0000     -10.295048      -280.1425
  11   2.0000     -10.292794      -280.0812
  12   2.0000     -10.292001      -280.0596
  13   2.0000     -10.290072      -280.0071
  14   2.0000     -10.289247      -279.9847
  15   2.0000     -10.285306      -279.8774
  16   2.0000      -8.083875      -219.9734
  17   2.0000      -8.080170      -219.8726
  18   2.0000      -6.042624      -164.4282
  19   2.0000      -6.038658      -164.3202
  20   2.0000      -6.038636      -164.3196
  21   2.0000      -6.034676      -164.2119
  22   2.0000      -6.034394      -164.2042
  23   2.0000      -6.030882      -164.1086
  24   2.0000      -1.004556       -27.3354
  25   2.0000      -0.982269       -26.7289
  26   2.0000      -0.913495       -24.8575
  27   2.0000      -0.907791       -24.7022
  28   2.0000      -0.867245       -23.5989
  29   2.0000      -0.851308       -23.1653
  30   2.0000      -0.843948       -22.9650
  31   2.0000      -0.812425       -22.1072
  32   2.0000      -0.784612       -21.3504
  33   2.0000      -0.775537       -21.1034
  34   2.0000      -0.708968       -19.2920
  35   2.0000      -0.699520       -19.0349
  36   2.0000      -0.690308       -18.7842
  37   2.0000      -0.657568       -17.8933
  38   2.0000      -0.634111       -17.2550
  39   2.0000      -0.615815       -16.7572
  40   2.0000      -0.597845       -16.2682
  41   2.0000      -0.568571       -15.4716
  42   2.0000      -0.566506       -15.4154
  43   2.0000      -0.561312       -15.2741
  44   2.0000      -0.527556       -14.3555
  45   2.0000      -0.524579       -14.2745
  46   2.0000      -0.517286       -14.0761
  47   2.0000      -0.512713       -13.9516
  48   2.0000      -0.504287       -13.7223
  49   2.0000      -0.495172       -13.4743
  50   2.0000      -0.491887       -13.3849
  51   2.0000      -0.481926       -13.1139
  52   2.0000      -0.468501       -12.7486
  53   2.0000      -0.463636       -12.6162
  54   2.0000      -0.459903       -12.5146
  55   2.0000      -0.449659       -12.2358
  56   2.0000      -0.443301       -12.0628
  57   2.0000      -0.437572       -11.9069
  58   2.0000      -0.431608       -11.7446
  59   2.0000      -0.425040       -11.5659
  60   2.0000      -0.421277       -11.4635
  61   2.0000      -0.414579       -11.2813
  62   2.0000      -0.412026       -11.2118
  63   2.0000      -0.352620        -9.5953
  64   2.0000      -0.333177        -9.0662
  65   2.0000      -0.331549        -9.0219
  66   2.0000      -0.287427        -7.8213
  67   0.0000       0.020643         0.5617
  68   0.0000       0.076785         2.0894
  69   0.0000       0.101404         2.7593
  70   0.0000       0.122983         3.3465
  71   0.0000       0.128514         3.4971

MULLIKEN ATOMIC CHARGES
-----------------------
   0 S :    0.112605
   1 C :   -0.093909
   2 C :   -0.091904
   3 C :    0.004254
   4 C :   -0.158729
   5 H :    0.012250
   6 C :    0.059714
   7 H :    0.024272
   8 H :    0.039210
   9 C :   -0.105702
  10 H :    0.036663
  11 H :    0.041387
  12 C :   -0.055197
  13 H :    0.040209
  14 H :    0.045548
  15 H :    0.028944
  16 S :    0.095301
  17 C :   -0.096933
  18 C :   -0.050418
  19 C :   -0.039512
  20 C :   -0.125265
  21 H :    0.014095
  22 C :    0.085771
  23 H :    0.023575
  24 H :    0.016823
  25 C :   -0.042297
  26 H :    0.027359
  27 H :    0.020740
  28 C :   -0.092116
  29 H :    0.033894
  30 H :    0.044411
  31 H :    0.045754
  32 H :    0.032523
  33 H :    0.066679
Sum of atomic charges:    0.0000000

LOEWDIN ATOMIC CHARGES
----------------------
   0 S :    0.387726
   1 C :   -0.198770
   2 C :   -0.064282
   3 C :   -0.068865
   4 C :   -0.180116
   5 H :    0.030747
   6 C :   -0.032023
   7 H :    0.025238
   8 H :    0.038857
   9 C :   -0.049638
  10 H :    0.028023
  11 H :    0.031091
  12 C :   -0.070690
  13 H :    0.029021
  14 H :    0.034198
  15 H :    0.020889
  16 S :    0.404866
  17 C :   -0.196926
  18 C :   -0.077606
  19 C :   -0.053295
  20 C :   -0.186098
  21 H :    0.031400
  22 C :   -0.038633
  23 H :    0.033180
  24 H :    0.033414
  25 C :   -0.038900
  26 H :    0.023531
  27 H :    0.021987
  28 C :   -0.074481
  29 H :    0.022071
  30 H :    0.033084
  31 H :    0.032236
  32 H :    0.030391
  33 H :    0.038372

  Mayer bond orders larger than 0.100000
B(  0-S ,  1-C ) :   1.1270 B(  0-S ,  4-C ) :   1.1366 B(  1-C ,  2-C ) :   1.6461
B(  1-C , 32-H ) :   0.9574 B(  2-C ,  3-C ) :   1.2485 B(  2-C ,  6-C ) :   0.9954
B(  3-C ,  4-C ) :   1.5806 B(  3-C ,  5-H ) :   0.9823 B(  4-C , 20-C ) :   1.0368
B(  6-C ,  7-H ) :   0.9340 B(  6-C ,  8-H ) :   0.9481 B(  6-C ,  9-C ) :   1.0670
B(  9-C , 10-H ) :   0.9541 B(  9-C , 11-H ) :   0.9562 B(  9-C , 12-C ) :   1.0836
B( 12-C , 13-H ) :   0.9739 B( 12-C , 14-H ) :   0.9733 B( 12-C , 15-H ) :   0.9742
B( 16-S , 17-C ) :   1.1482 B( 16-S , 20-C ) :   1.1530 B( 17-C , 18-C ) :   1.6224
B( 17-C , 33-H ) :   0.9645 B( 18-C , 19-C ) :   1.2289 B( 18-C , 21-H ) :   0.9922
B( 19-C , 20-C ) :   1.5789 B( 19-C , 22-C ) :   1.0509 B( 22-C , 23-H ) :   0.9242
B( 22-C , 24-H ) :   0.9241 B( 22-C , 25-C ) :   1.0678 B( 25-C , 26-H ) :   0.9476
B( 25-C , 27-H ) :   0.9494 B( 25-C , 28-C ) :   1.0760 B( 28-C , 29-H ) :   0.9767
B( 28-C , 30-H ) :   0.9751 B( 28-C , 31-H ) :   0.9757

Dispersion correction           -0.013801374
FINAL SINGLE POINT ENERGY     -1339.869918280659

DIPOLE MOMENT
-------------
                                X             Y             Z
Electronic contribution:      0.02717      33.52489      -3.85524
Nuclear contribution   :     -0.34564     -34.25182       3.83657
                        -----------------------------------------
Total Dipole Moment    :     -0.31847      -0.72693      -0.01867
                        -----------------------------------------
Magnitude (a.u.)       :      0.79385
Magnitude (Debye)      :      2.01780

Rotational constants in cm-1:     0.017853     0.008702     0.006057
Rotational constants in MHz :   535.212097   260.874675   181.598411

                             ****ORCA TERMINATED NORMALLY****
TOTAL RUN TIME: 0 days 0 hours 0 minutes 21 seconds 263 msec
