                         Program Version 4.2.1 -  RELEASE  -
|  1> ! wB97X-D3 SP def2-SVP
|  2> %pal
|  3> nprocs 24
|  4> end
|  5>
|  6> * xyz 0 1
|  7> S 	 -56.6851 	 13.7254 	 -92.4074
|  8> C 	 -55.1665 	 12.9673 	 -92.6834
|  9> C 	 -54.1146 	 13.8869 	 -92.6112
| 10> C 	 -54.5318 	 15.222 	 -92.4696
| 11> C 	 -55.8938 	 15.3012 	 -92.4296
| 12> H 	 -53.8579 	 16.0409 	 -92.2973
| 13> C 	 -52.6461 	 13.5003 	 -92.6172
| 14> H 	 -52.2353 	 13.4727 	 -93.6943
| 15> H 	 -52.6107 	 12.452 	 -92.2791
| 16> C 	 -51.7119 	 14.4288 	 -91.8991
| 17> H 	 -51.657 	 15.4408 	 -92.3666
| 18> H 	 -51.9425 	 14.5323 	 -90.8651
| 19> C 	 -50.2873 	 13.8565 	 -91.9037
| 20> H 	 -49.8085 	 13.9766 	 -92.856
| 21> H 	 -49.5991 	 14.3266 	 -91.1897
| 22> H 	 -50.25 	 12.7743 	 -91.7471
| 23> S 	 -57.6 	 16.5508 	 -90.7228
| 24> C 	 -57.6523 	 18.2404 	 -90.752
| 25> C 	 -57.0248 	 18.7765 	 -91.8239
| 26> C 	 -56.379 	 17.8234 	 -92.6709
| 27> C 	 -56.5794 	 16.5391 	 -92.1211
| 28> H 	 -57.1041 	 19.8139 	 -91.9436
| 29> C 	 -55.6331 	 18.3257 	 -93.8032
| 30> H 	 -56.3439 	 19.1303 	 -94.1412
| 31> H 	 -55.5767 	 17.6538 	 -94.6674
| 32> C 	 -54.2035 	 18.867 	 -93.5947
| 33> H 	 -53.6172 	 17.9742 	 -93.6587
| 34> H 	 -54.0752 	 19.4184 	 -92.605
| 35> C 	 -53.7453 	 19.6416 	 -94.8319
| 36> H 	 -52.7727 	 20.1761 	 -94.6641
| 37> H 	 -54.4871 	 20.4894 	 -94.8581
| 38> H 	 -53.6352 	 19.089 	 -95.7827
| 39> H 	 -55.0239 	 11.8618 	 -92.5889
| 40> H 	 -58.18 	 18.8887 	 -90.0094
| 41> *
| 42>
| 43>                          ****END OF INPUT****

CARTESIAN COORDINATES (ANGSTROEM)
---------------------------------
  S    -56.685100   13.725400  -92.407400
  C    -55.166500   12.967300  -92.683400
  C    -54.114600   13.886900  -92.611200
  C    -54.531800   15.222000  -92.469600
  C    -55.893800   15.301200  -92.429600
  H    -53.857900   16.040900  -92.297300
  C    -52.646100   13.500300  -92.617200
  H    -52.235300   13.472700  -93.694300
  H    -52.610700   12.452000  -92.279100
  C    -51.711900   14.428800  -91.899100
  H    -51.657000   15.440800  -92.366600
  H    -51.942500   14.532300  -90.865100
  C    -50.287300   13.856500  -91.903700
  H    -49.808500   13.976600  -92.856000
  H    -49.599100   14.326600  -91.189700
  H    -50.250000   12.774300  -91.747100
  S    -57.600000   16.550800  -90.722800
  C    -57.652300   18.240400  -90.752000
  C    -57.024800   18.776500  -91.823900
  C    -56.379000   17.823400  -92.670900
  C    -56.579400   16.539100  -92.121100
  H    -57.104100   19.813900  -91.943600
  C    -55.633100   18.325700  -93.803200
  H    -56.343900   19.130300  -94.141200
  H    -55.576700   17.653800  -94.667400
  C    -54.203500   18.867000  -93.594700
  H    -53.617200   17.974200  -93.658700
  H    -54.075200   19.418400  -92.605000
  C    -53.745300   19.641600  -94.831900
  H    -52.772700   20.176100  -94.664100
  H    -54.487100   20.489400  -94.858100
  H    -53.635200   19.089000  -95.782700
  H    -55.023900   11.861800  -92.588900
  H    -58.180000   18.888700  -90.009400

 Total Charge           Charge          ....    0
 Multiplicity           Mult            ....    1
 Number of Electrons    NEL             ....  134
 Basis Dimension        Dim             ....  322

ORBITAL ENERGIES
----------------

  NO   OCC          E(Eh)            E(eV)
   0   2.0000     -88.967541     -2420.9299
   1   2.0000     -88.963689     -2420.8251
   2   2.0000     -10.324501      -280.9440
   3   2.0000     -10.321702      -280.8678
   4   2.0000     -10.312218      -280.6097
   5   2.0000     -10.308884      -280.5190
   6   2.0000     -10.299419      -280.2614
   7   2.0000     -10.296841      -280.1913
   8   2.0000     -10.296108      -280.1713
   9   2.0000     -10.293074      -280.0888
  10   2.0000     -10.290481      -280.0182
  11   2.0000     -10.288324      -279.9595
  12   2.0000     -10.287264      -279.9307
  13   2.0000     -10.286911      -279.9211
  14   2.0000     -10.281079      -279.7624
  15   2.0000     -10.276331      -279.6332
  16   2.0000      -8.082501      -219.9360
  17   2.0000      -8.080040      -219.8691
  18   2.0000      -6.040972      -164.3832
  19   2.0000      -6.038364      -164.3122
  20   2.0000      -6.037082      -164.2774
  21   2.0000      -6.034357      -164.2032
  22   2.0000      -6.033213      -164.1721
  23   2.0000      -6.030879      -164.1085
  24   2.0000      -1.012913       -27.5628
  25   2.0000      -0.989814       -26.9342
  26   2.0000      -0.917814       -24.9750
  27   2.0000      -0.914858       -24.8945
  28   2.0000      -0.871027       -23.7018
  29   2.0000      -0.859136       -23.3783
  30   2.0000      -0.851661       -23.1749
  31   2.0000      -0.813969       -22.1492
  32   2.0000      -0.780285       -21.2326
  33   2.0000      -0.765356       -20.8264
  34   2.0000      -0.711554       -19.3624
  35   2.0000      -0.698955       -19.0195
  36   2.0000      -0.684517       -18.6267
  37   2.0000      -0.661189       -17.9919
  38   2.0000      -0.635744       -17.2995
  39   2.0000      -0.627192       -17.0668
  40   2.0000      -0.601416       -16.3654
  41   2.0000      -0.574251       -15.6262
  42   2.0000      -0.568408       -15.4672
  43   2.0000      -0.559247       -15.2179
  44   2.0000      -0.525072       -14.2879
  45   2.0000      -0.520853       -14.1731
  46   2.0000      -0.516996       -14.0682
  47   2.0000      -0.507516       -13.8102
  48   2.0000      -0.503171       -13.6920
  49   2.0000      -0.498044       -13.5525
  50   2.0000      -0.492732       -13.4079
  51   2.0000      -0.476954       -12.9786
  52   2.0000      -0.470941       -12.8150
  53   2.0000      -0.465399       -12.6641
  54   2.0000      -0.457608       -12.4522
  55   2.0000      -0.457113       -12.4387
  56   2.0000      -0.446189       -12.1414
  57   2.0000      -0.440231       -11.9793
  58   2.0000      -0.434735       -11.8297
  59   2.0000      -0.427344       -11.6286
  60   2.0000      -0.422918       -11.5082
  61   2.0000      -0.420130       -11.4323
  62   2.0000      -0.408975       -11.1288
  63   2.0000      -0.350641        -9.5414
  64   2.0000      -0.331222        -9.0130
  65   2.0000      -0.325530        -8.8581
  66   2.0000      -0.285125        -7.7586
  67   0.0000       0.031621         0.8605
  68   0.0000       0.074314         2.0222
  69   0.0000       0.111720         3.0401
  70   0.0000       0.122960         3.3459
  71   0.0000       0.126740         3.4488

MULLIKEN ATOMIC CHARGES
-----------------------
   0 S :    0.112276
   1 C :   -0.135733
   2 C :   -0.080107
   3 C :    0.011218
   4 C :   -0.125455
   5 H :    0.016630
   6 C :    0.036289
   7 H :    0.047086
   8 H :    0.020610
   9 C :   -0.088891
  10 H :    0.045893
  11 H :    0.032372
  12 C :   -0.043876
  13 H :    0.017530
  14 H :    0.034288
  15 H :    0.024349
  16 S :    0.122726
  17 C :   -0.101918
  18 C :   -0.037412
  19 C :    0.017316
  20 C :   -0.163340
  21 H :   -0.007737
  22 C :    0.001894
  23 H :    0.030040
  24 H :    0.025870
  25 C :   -0.059599
  26 H :    0.025542
  27 H :    0.051801
  28 C :   -0.079816
  29 H :    0.039616
  30 H :    0.030152
  31 H :    0.052141
  32 H :    0.064016
  33 H :    0.064229
Sum of atomic charges:    0.0000000

LOEWDIN ATOMIC CHARGES
----------------------
   0 S :    0.411439
   1 C :   -0.223126
   2 C :   -0.063605
   3 C :   -0.060049
   4 C :   -0.186271
   5 H :    0.031517
   6 C :   -0.039102
   7 H :    0.042208
   8 H :    0.030128
   9 C :   -0.045496
  10 H :    0.031028
  11 H :    0.021666
  12 C :   -0.065105
  13 H :    0.019390
  14 H :    0.027447
  15 H :    0.024652
  16 S :    0.433989
  17 C :   -0.210069
  18 C :   -0.071310
  19 C :   -0.057071
  20 C :   -0.203488
  21 H :    0.021979
  22 C :   -0.044359
  23 H :    0.038652
  24 H :    0.033079
  25 C :   -0.042658
  26 H :    0.019994
  27 H :    0.035032
  28 C :   -0.074252
  29 H :    0.030683
  30 H :    0.027561
  31 H :    0.031110
  32 H :    0.035769
  33 H :    0.038636

  Mayer bond orders larger than 0.100000
B(  0-S ,  1-C ) :   1.1393 B(  0-S ,  4-C ) :   1.1591 B(  1-C ,  2-C ) :   1.5994
B(  1-C , 32-H ) :   0.9600 B(  2-C ,  3-C ) :   1.2754 B(  2-C ,  6-C ) :   1.0175
B(  3-C ,  4-C ) :   1.5451 B(  3-C ,  5-H ) :   0.9895 B(  4-C , 20-C ) :   1.0437
B(  6-C ,  7-H ) :   0.9323 B(  6-C ,  8-H ) :   0.9414 B(  6-C ,  9-C ) :   1.0823
B(  9-C , 10-H ) :   0.9400 B(  9-C , 11-H ) :   0.9589 B(  9-C , 12-C ) :   1.0847
B( 12-C , 13-H ) :   0.9730 B( 12-C , 14-H ) :   0.9746 B( 12-C , 15-H ) :   0.9735
B( 16-S , 17-C ) :   1.1597 B( 16-S , 20-C ) :   1.1561 B( 17-C , 18-C ) :   1.6264
B( 17-C , 33-H ) :   0.9580 B( 18-C , 19-C ) :   1.2261 B( 18-C , 21-H ) :   0.9992
B( 19-C , 20-C ) :   1.5603 B( 19-C , 22-C ) :   1.0598 B( 22-C , 23-H ) :   0.9354
B( 22-C , 24-H ) :   0.9296 B( 22-C , 25-C ) :   1.0508 B( 25-C , 26-H ) :   0.9458
B( 25-C , 27-H ) :   0.9577 B( 25-C , 28-C ) :   1.0738 B( 28-C , 29-H ) :   0.9723
B( 28-C , 30-H ) :   0.9769 B( 28-C , 31-H ) :   0.9733

Dispersion correction           -0.013939404
FINAL SINGLE POINT ENERGY     -1339.872987995385

DIPOLE MOMENT
-------------
                                X             Y             Z
Electronic contribution:    -28.82942      -8.98895       9.39067
Nuclear contribution   :     29.47612       9.31771      -9.38442
                        -----------------------------------------
Total Dipole Moment    :      0.64670       0.32876       0.00624
                        -----------------------------------------
Magnitude (a.u.)       :      0.72549
Magnitude (Debye)      :      1.84406

Rotational constants in cm-1:     0.015473     0.009786     0.006947
Rotational constants in MHz :   463.867824   293.383144   208.266243

                             ****ORCA TERMINATED NORMALLY****
TOTAL RUN TIME: 0 days 0 hours 0 minutes 20 seconds 670 msec
