                         Program Version 4.2.1 -  RELEASE  -
|  1> ! wB97X-D3 SP def2-SVP
|  2> %pal
|  3> nprocs 24
|  4> end
|  5>
|  6> * xyz 0 1
|  7> S 	 -124.209 	 58.6168 	 -32.816
|  8> C 	 -122.675 	 58.1479 	 -32.1381
|  9> C 	 -121.624 	 58.0999 	 -33.0913
| 10> C 	 -122.159 	 58.4609 	 -34.3795
| 11> C 	 -123.507 	 58.8429 	 -34.4213
| 12> H 	 -121.597 	 58.3782 	 -35.2415
| 13> C 	 -120.187 	 58.0058 	 -32.6522
| 14> H 	 -120.001 	 58.6675 	 -31.8505
| 15> H 	 -119.464 	 58.4501 	 -33.3842
| 16> C 	 -119.573 	 56.5982 	 -32.582
| 17> H 	 -119.543 	 56.1457 	 -33.5176
| 18> H 	 -118.547 	 56.6423 	 -32.2509
| 19> C 	 -120.353 	 55.6452 	 -31.7066
| 20> H 	 -120.539 	 55.968 	 -30.7096
| 21> H 	 -121.336 	 55.3834 	 -31.9816
| 22> H 	 -119.683 	 54.7845 	 -31.6774
| 23> S 	 -124.984 	 60.7948 	 -35.5333
| 24> C 	 -125.501 	 60.6052 	 -37.174
| 25> C 	 -125.013 	 59.4922 	 -37.8166
| 26> C 	 -124.343 	 58.601 	 -36.882
| 27> C 	 -124.271 	 59.2233 	 -35.6526
| 28> H 	 -125.256 	 59.2776 	 -38.815
| 29> C 	 -123.551 	 57.3812 	 -37.3461
| 30> H 	 -122.455 	 57.6232 	 -37.0462
| 31> H 	 -123.525 	 57.2446 	 -38.3817
| 32> C 	 -124.047 	 56.0768 	 -36.7139
| 33> H 	 -124.917 	 55.7446 	 -37.267
| 34> H 	 -124.365 	 56.2561 	 -35.6987
| 35> C 	 -123.045 	 54.9212 	 -36.7349
| 36> H 	 -123.396 	 54.0793 	 -36.2342
| 37> H 	 -122.191 	 55.2646 	 -36.2055
| 38> H 	 -122.613 	 54.6308 	 -37.617
| 39> H 	 -122.356 	 57.9222 	 -31.1573
| 40> H 	 -126.06 	 61.3962 	 -37.7145
| 41> *
| 42>
| 43>                          ****END OF INPUT****

CARTESIAN COORDINATES (ANGSTROEM)
---------------------------------
  S    -124.209000   58.616800  -32.816000
  C    -122.675000   58.147900  -32.138100
  C    -121.624000   58.099900  -33.091300
  C    -122.159000   58.460900  -34.379500
  C    -123.507000   58.842900  -34.421300
  H    -121.597000   58.378200  -35.241500
  C    -120.187000   58.005800  -32.652200
  H    -120.001000   58.667500  -31.850500
  H    -119.464000   58.450100  -33.384200
  C    -119.573000   56.598200  -32.582000
  H    -119.543000   56.145700  -33.517600
  H    -118.547000   56.642300  -32.250900
  C    -120.353000   55.645200  -31.706600
  H    -120.539000   55.968000  -30.709600
  H    -121.336000   55.383400  -31.981600
  H    -119.683000   54.784500  -31.677400
  S    -124.984000   60.794800  -35.533300
  C    -125.501000   60.605200  -37.174000
  C    -125.013000   59.492200  -37.816600
  C    -124.343000   58.601000  -36.882000
  C    -124.271000   59.223300  -35.652600
  H    -125.256000   59.277600  -38.815000
  C    -123.551000   57.381200  -37.346100
  H    -122.455000   57.623200  -37.046200
  H    -123.525000   57.244600  -38.381700
  C    -124.047000   56.076800  -36.713900
  H    -124.917000   55.744600  -37.267000
  H    -124.365000   56.256100  -35.698700
  C    -123.045000   54.921200  -36.734900
  H    -123.396000   54.079300  -36.234200
  H    -122.191000   55.264600  -36.205500
  H    -122.613000   54.630800  -37.617000
  H    -122.356000   57.922200  -31.157300
  H    -126.060000   61.396200  -37.714500

 Total Charge           Charge          ....    0
 Multiplicity           Mult            ....    1
 Number of Electrons    NEL             ....  134
 Basis Dimension        Dim             ....  322

ORBITAL ENERGIES
----------------

  NO   OCC          E(Eh)            E(eV)
   0   2.0000     -88.972265     -2421.0584
   1   2.0000     -88.968458     -2420.9548
   2   2.0000     -10.331836      -281.1436
   3   2.0000     -10.326311      -280.9932
   4   2.0000     -10.315862      -280.7089
   5   2.0000     -10.312811      -280.6259
   6   2.0000     -10.306392      -280.4512
   7   2.0000     -10.302830      -280.3542
   8   2.0000     -10.296201      -280.1739
   9   2.0000     -10.292051      -280.0610
  10   2.0000     -10.291465      -280.0450
  11   2.0000     -10.291136      -280.0361
  12   2.0000     -10.280836      -279.7558
  13   2.0000     -10.279660      -279.7238
  14   2.0000     -10.264317      -279.3063
  15   2.0000     -10.258672      -279.1527
  16   2.0000      -8.085998      -220.0312
  17   2.0000      -8.084036      -219.9778
  18   2.0000      -6.044581      -164.4814
  19   2.0000      -6.042352      -164.4208
  20   2.0000      -6.040511      -164.3707
  21   2.0000      -6.038645      -164.3199
  22   2.0000      -6.036885      -164.2720
  23   2.0000      -6.034731      -164.2134
  24   2.0000      -1.005696       -27.3664
  25   2.0000      -0.981552       -26.7094
  26   2.0000      -0.914663       -24.8892
  27   2.0000      -0.909794       -24.7568
  28   2.0000      -0.864680       -23.5291
  29   2.0000      -0.855318       -23.2744
  30   2.0000      -0.848184       -23.0803
  31   2.0000      -0.813974       -22.1494
  32   2.0000      -0.789150       -21.4739
  33   2.0000      -0.777567       -21.1587
  34   2.0000      -0.711242       -19.3539
  35   2.0000      -0.702580       -19.1182
  36   2.0000      -0.688485       -18.7346
  37   2.0000      -0.666114       -18.1259
  38   2.0000      -0.638414       -17.3721
  39   2.0000      -0.620802       -16.8929
  40   2.0000      -0.598825       -16.2949
  41   2.0000      -0.574326       -15.6282
  42   2.0000      -0.562356       -15.3025
  43   2.0000      -0.552928       -15.0459
  44   2.0000      -0.540181       -14.6991
  45   2.0000      -0.529812       -14.4169
  46   2.0000      -0.524804       -14.2807
  47   2.0000      -0.508819       -13.8457
  48   2.0000      -0.500330       -13.6147
  49   2.0000      -0.497202       -13.5296
  50   2.0000      -0.491264       -13.3680
  51   2.0000      -0.486797       -13.2464
  52   2.0000      -0.468862       -12.7584
  53   2.0000      -0.463805       -12.6208
  54   2.0000      -0.461168       -12.5490
  55   2.0000      -0.455046       -12.3824
  56   2.0000      -0.445840       -12.1319
  57   2.0000      -0.438407       -11.9296
  58   2.0000      -0.432886       -11.7794
  59   2.0000      -0.430498       -11.7145
  60   2.0000      -0.425791       -11.5864
  61   2.0000      -0.411115       -11.1870
  62   2.0000      -0.401847       -10.9348
  63   2.0000      -0.341803        -9.3009
  64   2.0000      -0.331294        -9.0150
  65   2.0000      -0.329658        -8.9704
  66   2.0000      -0.294518        -8.0143
  67   0.0000       0.033654         0.9158
  68   0.0000       0.066290         1.8038
  69   0.0000       0.105154         2.8614
  70   0.0000       0.117896         3.2081
  71   0.0000       0.123343         3.3563

MULLIKEN ATOMIC CHARGES
-----------------------
   0 S :    0.132855
   1 C :   -0.084827
   2 C :   -0.101589
   3 C :    0.070587
   4 C :   -0.147066
   5 H :   -0.028821
   6 C :    0.026021
   7 H :    0.031373
   8 H :    0.022818
   9 C :   -0.027829
  10 H :    0.014445
  11 H :    0.025473
  12 C :   -0.037606
  13 H :    0.007395
  14 H :    0.028502
  15 H :    0.026986
  16 S :    0.127542
  17 C :   -0.098475
  18 C :   -0.019324
  19 C :   -0.023177
  20 C :   -0.176756
  21 H :    0.004009
  22 C :    0.054500
  23 H :    0.039362
  24 H :    0.006237
  25 C :   -0.072248
  26 H :    0.023440
  27 H :    0.038996
  28 C :    0.029652
  29 H :    0.019312
  30 H :    0.000746
  31 H :    0.000709
  32 H :    0.023728
  33 H :    0.063032
Sum of atomic charges:    0.0000000

LOEWDIN ATOMIC CHARGES
----------------------
   0 S :    0.412245
   1 C :   -0.196179
   2 C :   -0.059541
   3 C :   -0.051116
   4 C :   -0.204032
   5 H :    0.012369
   6 C :   -0.039936
   7 H :    0.028516
   8 H :    0.039736
   9 C :   -0.030222
  10 H :    0.018425
  11 H :    0.025907
  12 C :   -0.065836
  13 H :    0.015542
  14 H :    0.019130
  15 H :    0.029380
  16 S :    0.427523
  17 C :   -0.193339
  18 C :   -0.062360
  19 C :   -0.049805
  20 C :   -0.203504
  21 H :    0.023818
  22 C :   -0.026212
  23 H :    0.038799
  24 H :    0.020362
  25 C :   -0.032066
  26 H :    0.022818
  27 H :    0.025820
  28 C :   -0.053604
  29 H :    0.021420
  30 H :    0.021702
  31 H :    0.012242
  32 H :    0.019934
  33 H :    0.032062

  Mayer bond orders larger than 0.100000
B(  0-S ,  1-C ) :   1.1554 B(  0-S ,  4-C ) :   1.1401 B(  1-C ,  2-C ) :   1.5796
B(  1-C ,  4-C ) :   0.1003 B(  1-C , 32-H ) :   0.9656 B(  2-C ,  3-C ) :   1.2757
B(  2-C ,  6-C ) :   1.0177 B(  3-C ,  4-C ) :   1.5593 B(  3-C ,  5-H ) :   1.0029
B(  4-C , 20-C ) :   0.9969 B(  6-C ,  7-H ) :   0.9531 B(  6-C ,  8-H ) :   0.9428
B(  6-C ,  9-C ) :   1.0681 B(  9-C , 10-H ) :   0.9525 B(  9-C , 11-H ) :   0.9544
B(  9-C , 12-C ) :   1.0870 B( 12-C , 13-H ) :   0.9736 B( 12-C , 14-H ) :   0.9702
B( 12-C , 15-H ) :   0.9738 B( 16-S , 17-C ) :   1.1513 B( 16-S , 20-C ) :   1.1606
B( 17-C , 18-C ) :   1.6348 B( 17-C , 33-H ) :   0.9617 B( 18-C , 19-C ) :   1.2173
B( 18-C , 21-H ) :   0.9938 B( 19-C , 20-C ) :   1.6221 B( 19-C , 22-C ) :   1.0361
B( 22-C , 23-H ) :   0.9473 B( 22-C , 24-H ) :   0.9344 B( 22-C , 25-C ) :   1.0480
B( 25-C , 26-H ) :   0.9514 B( 25-C , 27-H ) :   0.9641 B( 25-C , 28-C ) :   1.0857
B( 28-C , 29-H ) :   0.9710 B( 28-C , 30-H ) :   0.9696 B( 28-C , 31-H ) :   0.9704

Dispersion correction           -0.015063995
FINAL SINGLE POINT ENERGY     -1339.850048250635

DIPOLE MOMENT
-------------
                                X             Y             Z
Electronic contribution:    -18.75912      23.18521       1.01321
Nuclear contribution   :     19.29848     -23.44854      -1.34802
                        -----------------------------------------
Total Dipole Moment    :      0.53935      -0.26333      -0.33480
                        -----------------------------------------
Magnitude (a.u.)       :      0.68727
Magnitude (Debye)      :      1.74689

Rotational constants in cm-1:     0.020149     0.008982     0.007074
Rotational constants in MHz :   604.058514   269.281853   212.087954

                             ****ORCA TERMINATED NORMALLY****
TOTAL RUN TIME: 0 days 0 hours 0 minutes 22 seconds 299 msec
