                         Program Version 4.2.1 -  RELEASE  -
|  1> ! wB97X-D3 SP def2-SVP
|  2> %pal
|  3> nprocs 24
|  4> end
|  5>
|  6> * xyz 0 1
|  7> S 	 -113.862 	 23.02 	 -113.077
|  8> C 	 -115.448 	 22.8187 	 -113.778
|  9> C 	 -116.421 	 22.4032 	 -112.837
| 10> C 	 -115.818 	 22.3804 	 -111.529
| 11> C 	 -114.473 	 22.7154 	 -111.519
| 12> H 	 -116.237 	 22.1192 	 -110.586
| 13> C 	 -117.894 	 22.3207 	 -113.098
| 14> H 	 -118.145 	 23.3771 	 -113.257
| 15> H 	 -118.37 	 21.9399 	 -112.2
| 16> C 	 -118.248 	 21.4241 	 -114.243
| 17> H 	 -117.676 	 21.7175 	 -115.155
| 18> H 	 -117.846 	 20.4121 	 -113.964
| 19> C 	 -119.783 	 21.3828 	 -114.511
| 20> H 	 -120.037 	 22.2154 	 -115.133
| 21> H 	 -120.111 	 20.5482 	 -115.066
| 22> H 	 -120.427 	 21.3367 	 -113.615
| 23> S 	 -113.584 	 24.9184 	 -110.075
| 24> C 	 -112.969 	 24.6044 	 -108.457
| 25> C 	 -112.92 	 23.2128 	 -108.173
| 26> C 	 -113.455 	 22.4146 	 -109.208
| 27> C 	 -113.819 	 23.1707 	 -110.318
| 28> H 	 -112.56 	 22.929 	 -107.206
| 29> C 	 -113.594 	 20.866 	 -108.992
| 30> H 	 -114.341 	 20.538 	 -109.795
| 31> H 	 -114.292 	 20.8263 	 -108.147
| 32> C 	 -112.391 	 19.9542 	 -108.745
| 33> H 	 -112.667 	 18.9352 	 -108.428
| 34> H 	 -111.837 	 20.4493 	 -107.887
| 35> C 	 -111.498 	 19.9568 	 -110
| 36> H 	 -111.99 	 19.4707 	 -110.89
| 37> H 	 -110.571 	 19.348 	 -109.789
| 38> H 	 -111.164 	 20.9055 	 -110.362
| 39> H 	 -115.745 	 23.0343 	 -114.752
| 40> H 	 -112.714 	 25.448 	 -107.741
| 41> *
| 42>
| 43>                          ****END OF INPUT****

CARTESIAN COORDINATES (ANGSTROEM)
---------------------------------
  S    -113.862000   23.020000  -113.077000
  C    -115.448000   22.818700  -113.778000
  C    -116.421000   22.403200  -112.837000
  C    -115.818000   22.380400  -111.529000
  C    -114.473000   22.715400  -111.519000
  H    -116.237000   22.119200  -110.586000
  C    -117.894000   22.320700  -113.098000
  H    -118.145000   23.377100  -113.257000
  H    -118.370000   21.939900  -112.200000
  C    -118.248000   21.424100  -114.243000
  H    -117.676000   21.717500  -115.155000
  H    -117.846000   20.412100  -113.964000
  C    -119.783000   21.382800  -114.511000
  H    -120.037000   22.215400  -115.133000
  H    -120.111000   20.548200  -115.066000
  H    -120.427000   21.336700  -113.615000
  S    -113.584000   24.918400  -110.075000
  C    -112.969000   24.604400  -108.457000
  C    -112.920000   23.212800  -108.173000
  C    -113.455000   22.414600  -109.208000
  C    -113.819000   23.170700  -110.318000
  H    -112.560000   22.929000  -107.206000
  C    -113.594000   20.866000  -108.992000
  H    -114.341000   20.538000  -109.795000
  H    -114.292000   20.826300  -108.147000
  C    -112.391000   19.954200  -108.745000
  H    -112.667000   18.935200  -108.428000
  H    -111.837000   20.449300  -107.887000
  C    -111.498000   19.956800  -110.000000
  H    -111.990000   19.470700  -110.890000
  H    -110.571000   19.348000  -109.789000
  H    -111.164000   20.905500  -110.362000
  H    -115.745000   23.034300  -114.752000
  H    -112.714000   25.448000  -107.741000

 Total Charge           Charge          ....    0
 Multiplicity           Mult            ....    1
 Number of Electrons    NEL             ....  134
 Basis Dimension        Dim             ....  322

ORBITAL ENERGIES
----------------

  NO   OCC          E(Eh)            E(eV)
   0   2.0000     -88.968582     -2420.9582
   1   2.0000     -88.967243     -2420.9217
   2   2.0000     -10.325271      -280.9649
   3   2.0000     -10.325118      -280.9608
   4   2.0000     -10.317695      -280.7588
   5   2.0000     -10.308963      -280.5211
   6   2.0000     -10.305881      -280.4373
   7   2.0000     -10.302229      -280.3379
   8   2.0000     -10.297994      -280.2227
   9   2.0000     -10.297831      -280.2182
  10   2.0000     -10.294262      -280.1211
  11   2.0000     -10.293735      -280.1068
  12   2.0000     -10.290334      -280.0142
  13   2.0000     -10.290024      -280.0058
  14   2.0000     -10.277661      -279.6694
  15   2.0000     -10.276561      -279.6394
  16   2.0000      -8.083840      -219.9725
  17   2.0000      -8.081278      -219.9028
  18   2.0000      -6.042196      -164.4165
  19   2.0000      -6.039711      -164.3489
  20   2.0000      -6.038202      -164.3078
  21   2.0000      -6.035937      -164.2462
  22   2.0000      -6.034827      -164.2160
  23   2.0000      -6.032109      -164.1420
  24   2.0000      -1.006287       -27.3825
  25   2.0000      -0.978452       -26.6250
  26   2.0000      -0.918053       -24.9815
  27   2.0000      -0.901143       -24.5214
  28   2.0000      -0.864262       -23.5178
  29   2.0000      -0.850997       -23.1568
  30   2.0000      -0.844941       -22.9920
  31   2.0000      -0.806679       -21.9509
  32   2.0000      -0.783057       -21.3081
  33   2.0000      -0.770214       -20.9586
  34   2.0000      -0.708312       -19.2741
  35   2.0000      -0.701109       -19.0781
  36   2.0000      -0.688001       -18.7215
  37   2.0000      -0.656392       -17.8613
  38   2.0000      -0.643786       -17.5183
  39   2.0000      -0.608189       -16.5497
  40   2.0000      -0.587490       -15.9864
  41   2.0000      -0.576808       -15.6957
  42   2.0000      -0.560910       -15.2631
  43   2.0000      -0.548463       -14.9244
  44   2.0000      -0.537899       -14.6370
  45   2.0000      -0.521492       -14.1905
  46   2.0000      -0.519238       -14.1292
  47   2.0000      -0.509515       -13.8646
  48   2.0000      -0.502588       -13.6761
  49   2.0000      -0.495040       -13.4707
  50   2.0000      -0.489776       -13.3275
  51   2.0000      -0.473731       -12.8909
  52   2.0000      -0.469794       -12.7837
  53   2.0000      -0.458845       -12.4858
  54   2.0000      -0.451129       -12.2758
  55   2.0000      -0.448089       -12.1931
  56   2.0000      -0.447681       -12.1820
  57   2.0000      -0.436567       -11.8796
  58   2.0000      -0.429929       -11.6990
  59   2.0000      -0.427712       -11.6386
  60   2.0000      -0.420663       -11.4468
  61   2.0000      -0.419039       -11.4026
  62   2.0000      -0.410965       -11.1829
  63   2.0000      -0.339474        -9.2376
  64   2.0000      -0.330930        -9.0051
  65   2.0000      -0.323201        -8.7948
  66   2.0000      -0.292681        -7.9643
  67   0.0000       0.034681         0.9437
  68   0.0000       0.058782         1.5995
  69   0.0000       0.116127         3.1600
  70   0.0000       0.123807         3.3690
  71   0.0000       0.125553         3.4165

MULLIKEN ATOMIC CHARGES
-----------------------
   0 S :    0.133789
   1 C :   -0.108508
   2 C :   -0.100090
   3 C :    0.051110
   4 C :   -0.192198
   5 H :    0.001954
   6 C :    0.089920
   7 H :    0.049453
   8 H :    0.018946
   9 C :   -0.122657
  10 H :    0.034265
  11 H :    0.036603
  12 C :   -0.011483
  13 H :    0.027608
  14 H :    0.019968
  15 H :    0.031381
  16 S :    0.121117
  17 C :   -0.140823
  18 C :   -0.029202
  19 C :   -0.030227
  20 C :   -0.166531
  21 H :    0.012608
  22 C :    0.034840
  23 H :    0.025819
  24 H :    0.026825
  25 C :   -0.034153
  26 H :    0.042537
  27 H :    0.036248
  28 C :   -0.074833
  29 H :    0.037871
  30 H :    0.035435
  31 H :    0.037884
  32 H :    0.020132
  33 H :    0.084389
Sum of atomic charges:    0.0000000

LOEWDIN ATOMIC CHARGES
----------------------
   0 S :    0.437155
   1 C :   -0.198667
   2 C :   -0.054604
   3 C :   -0.053172
   4 C :   -0.223214
   5 H :    0.025076
   6 C :   -0.034430
   7 H :    0.039526
   8 H :    0.030164
   9 C :   -0.042962
  10 H :    0.025505
  11 H :    0.029871
  12 C :   -0.065601
  13 H :    0.024926
  14 H :    0.021091
  15 H :    0.029239
  16 S :    0.396188
  17 C :   -0.194764
  18 C :   -0.071604
  19 C :   -0.055968
  20 C :   -0.196433
  21 H :    0.026919
  22 C :   -0.042773
  23 H :    0.033511
  24 H :    0.030569
  25 C :   -0.041294
  26 H :    0.031924
  27 H :    0.031327
  28 C :   -0.072165
  29 H :    0.031303
  30 H :    0.028630
  31 H :    0.022331
  32 H :    0.010680
  33 H :    0.041717

  Mayer bond orders larger than 0.100000
B(  0-S ,  1-C ) :   1.1528 B(  0-S ,  4-C ) :   1.1680 B(  1-C ,  2-C ) :   1.5759
B(  1-C , 32-H ) :   0.9749 B(  2-C ,  3-C ) :   1.2561 B(  2-C ,  6-C ) :   1.0178
B(  3-C ,  4-C ) :   1.5560 B(  3-C ,  5-H ) :   0.9937 B(  4-C , 20-C ) :   1.0279
B(  6-C ,  7-H ) :   0.9375 B(  6-C ,  8-H ) :   0.9382 B(  6-C ,  9-C ) :   1.0602
B(  9-C , 10-H ) :   0.9588 B(  9-C , 11-H ) :   0.9586 B(  9-C , 12-C ) :   1.0727
B( 12-C , 13-H ) :   0.9745 B( 12-C , 14-H ) :   0.9747 B( 12-C , 15-H ) :   0.9741
B( 16-S , 17-C ) :   1.1622 B( 16-S , 20-C ) :   1.1398 B( 17-C , 18-C ) :   1.5933
B( 17-C , 20-C ) :   0.1045 B( 17-C , 33-H ) :   0.9591 B( 18-C , 19-C ) :   1.2424
B( 18-C , 21-H ) :   0.9952 B( 19-C , 20-C ) :   1.5981 B( 19-C , 22-C ) :   1.0186
B( 22-C , 23-H ) :   0.9309 B( 22-C , 24-H ) :   0.9363 B( 22-C , 25-C ) :   1.0656
B( 25-C , 26-H ) :   0.9519 B( 25-C , 27-H ) :   0.9517 B( 25-C , 28-C ) :   1.0711
B( 28-C , 29-H ) :   0.9748 B( 28-C , 30-H ) :   0.9751 B( 28-C , 31-H ) :   0.9774

Dispersion correction           -0.014198931
FINAL SINGLE POINT ENERGY     -1339.870380981218

DIPOLE MOMENT
-------------
                                X             Y             Z
Electronic contribution:     11.98381      18.76373       1.77229
Nuclear contribution   :    -12.45910     -19.00685      -1.54714
                        -----------------------------------------
Total Dipole Moment    :     -0.47529      -0.24311       0.22515
                        -----------------------------------------
Magnitude (a.u.)       :      0.57939
Magnitude (Debye)      :      1.47270

Rotational constants in cm-1:     0.021224     0.007287     0.006503
Rotational constants in MHz :   636.277607   218.457881   194.956856

                             ****ORCA TERMINATED NORMALLY****
TOTAL RUN TIME: 0 days 0 hours 0 minutes 21 seconds 93 msec
