                         Program Version 4.2.1 -  RELEASE  -
|  1> ! wB97X-D3 SP def2-SVP
|  2> %pal
|  3> nprocs 24
|  4> end
|  5>
|  6> * xyz 0 1
|  7> S 	 -96.6633 	 10.1742 	 1.68717
|  8> C 	 -97.7096 	 10.1989 	 0.230223
|  9> C 	 -97.2693 	 9.17163 	 -0.61165
| 10> C 	 -96.0683 	 8.57001 	 -0.234406
| 11> C 	 -95.5729 	 9.10971 	 0.898289
| 12> H 	 -95.5013 	 7.75199 	 -0.711552
| 13> C 	 -97.9581 	 8.87757 	 -1.93881
| 14> H 	 -99.0725 	 9.20652 	 -1.91869
| 15> H 	 -97.9911 	 7.74012 	 -2.14603
| 16> C 	 -97.2332 	 9.53517 	 -3.12735
| 17> H 	 -97.2487 	 10.5576 	 -2.88937
| 18> H 	 -96.2376 	 9.13808 	 -3.00848
| 19> C 	 -97.8255 	 9.3734 	 -4.53618
| 20> H 	 -97.4639 	 10.2084 	 -5.16595
| 21> H 	 -97.5439 	 8.43509 	 -5.05206
| 22> H 	 -98.9101 	 9.38901 	 -4.46982
| 23> S 	 -94.0792 	 7.56956 	 2.66804
| 24> C 	 -92.3468 	 7.88258 	 2.84876
| 25> C 	 -91.9124 	 8.7935 	 1.9171
| 26> C 	 -92.9751 	 9.2844 	 1.06812
| 27> C 	 -94.2453 	 8.84527 	 1.45388
| 28> H 	 -90.8787 	 8.76834 	 1.76504
| 29> C 	 -92.6524 	 10.3015 	 -0.0349358
| 30> H 	 -93.3571 	 10.2457 	 -0.773328
| 31> H 	 -91.6986 	 10.0036 	 -0.443115
| 32> C 	 -92.6694 	 11.7215 	 0.580385
| 33> H 	 -91.7457 	 11.8431 	 1.15261
| 34> H 	 -93.577 	 11.9228 	 1.29404
| 35> C 	 -92.6742 	 12.918 	 -0.430899
| 36> H 	 -92.5139 	 13.8509 	 0.0377858
| 37> H 	 -93.5686 	 12.8988 	 -1.06198
| 38> H 	 -91.9424 	 12.7198 	 -1.20849
| 39> H 	 -98.6281 	 10.6858 	 0.0485799
| 40> H 	 -91.5648 	 7.22825 	 3.26213
| 41> *
| 42>
| 43>                          ****END OF INPUT****

CARTESIAN COORDINATES (ANGSTROEM)
---------------------------------
  S    -96.663300   10.174200    1.687170
  C    -97.709600   10.198900    0.230223
  C    -97.269300    9.171630   -0.611650
  C    -96.068300    8.570010   -0.234406
  C    -95.572900    9.109710    0.898289
  H    -95.501300    7.751990   -0.711552
  C    -97.958100    8.877570   -1.938810
  H    -99.072500    9.206520   -1.918690
  H    -97.991100    7.740120   -2.146030
  C    -97.233200    9.535170   -3.127350
  H    -97.248700   10.557600   -2.889370
  H    -96.237600    9.138080   -3.008480
  C    -97.825500    9.373400   -4.536180
  H    -97.463900   10.208400   -5.165950
  H    -97.543900    8.435090   -5.052060
  H    -98.910100    9.389010   -4.469820
  S    -94.079200    7.569560    2.668040
  C    -92.346800    7.882580    2.848760
  C    -91.912400    8.793500    1.917100
  C    -92.975100    9.284400    1.068120
  C    -94.245300    8.845270    1.453880
  H    -90.878700    8.768340    1.765040
  C    -92.652400   10.301500   -0.034936
  H    -93.357100   10.245700   -0.773328
  H    -91.698600   10.003600   -0.443115
  C    -92.669400   11.721500    0.580385
  H    -91.745700   11.843100    1.152610
  H    -93.577000   11.922800    1.294040
  C    -92.674200   12.918000   -0.430899
  H    -92.513900   13.850900    0.037786
  H    -93.568600   12.898800   -1.061980
  H    -91.942400   12.719800   -1.208490
  H    -98.628100   10.685800    0.048580
  H    -91.564800    7.228250    3.262130

 Total Charge           Charge          ....    0
 Multiplicity           Mult            ....    1
 Number of Electrons    NEL             ....  134
 Basis Dimension        Dim             ....  322

ORBITAL ENERGIES
----------------

  NO   OCC          E(Eh)            E(eV)
   0   2.0000     -88.969865     -2420.9931
   1   2.0000     -88.964672     -2420.8518
   2   2.0000     -10.328451      -281.0514
   3   2.0000     -10.326234      -280.9911
   4   2.0000     -10.317832      -280.7625
   5   2.0000     -10.317488      -280.7531
   6   2.0000     -10.308839      -280.5178
   7   2.0000     -10.303994      -280.3859
   8   2.0000     -10.303491      -280.3722
   9   2.0000     -10.293474      -280.0997
  10   2.0000     -10.291970      -280.0588
  11   2.0000     -10.289629      -279.9951
  12   2.0000     -10.286303      -279.9045
  13   2.0000     -10.283892      -279.8389
  14   2.0000     -10.281040      -279.7613
  15   2.0000     -10.271516      -279.5022
  16   2.0000      -8.084303      -219.9851
  17   2.0000      -8.078730      -219.8334
  18   2.0000      -6.042838      -164.4340
  19   2.0000      -6.038837      -164.3251
  20   2.0000      -6.037336      -164.2843
  21   2.0000      -6.035039      -164.2218
  22   2.0000      -6.033345      -164.1757
  23   2.0000      -6.029405      -164.0684
  24   2.0000      -1.010662       -27.5015
  25   2.0000      -0.983412       -26.7600
  26   2.0000      -0.911325       -24.7984
  27   2.0000      -0.902022       -24.5453
  28   2.0000      -0.870399       -23.6848
  29   2.0000      -0.851052       -23.1583
  30   2.0000      -0.841810       -22.9068
  31   2.0000      -0.820073       -22.3153
  32   2.0000      -0.782593       -21.2954
  33   2.0000      -0.770362       -20.9626
  34   2.0000      -0.707934       -19.2639
  35   2.0000      -0.695203       -18.9174
  36   2.0000      -0.691276       -18.8106
  37   2.0000      -0.657497       -17.8914
  38   2.0000      -0.643987       -17.5238
  39   2.0000      -0.621353       -16.9079
  40   2.0000      -0.589575       -16.0432
  41   2.0000      -0.573370       -15.6022
  42   2.0000      -0.565111       -15.3774
  43   2.0000      -0.556763       -15.1503
  44   2.0000      -0.529760       -14.4155
  45   2.0000      -0.523477       -14.2445
  46   2.0000      -0.520581       -14.1657
  47   2.0000      -0.512376       -13.9424
  48   2.0000      -0.504249       -13.7213
  49   2.0000      -0.498212       -13.5570
  50   2.0000      -0.494621       -13.4593
  51   2.0000      -0.478956       -13.0331
  52   2.0000      -0.467872       -12.7314
  53   2.0000      -0.463741       -12.6190
  54   2.0000      -0.458171       -12.4675
  55   2.0000      -0.450738       -12.2652
  56   2.0000      -0.444906       -12.1065
  57   2.0000      -0.431917       -11.7531
  58   2.0000      -0.428837       -11.6693
  59   2.0000      -0.425342       -11.5742
  60   2.0000      -0.419472       -11.4144
  61   2.0000      -0.415529       -11.3071
  62   2.0000      -0.409603       -11.1459
  63   2.0000      -0.338524        -9.2117
  64   2.0000      -0.331381        -9.0173
  65   2.0000      -0.322360        -8.7719
  66   2.0000      -0.310326        -8.4444
  67   0.0000       0.041955         1.1417
  68   0.0000       0.046126         1.2552
  69   0.0000       0.105811         2.8793
  70   0.0000       0.111682         3.0390
  71   0.0000       0.134048         3.6476

MULLIKEN ATOMIC CHARGES
-----------------------
   0 S :    0.127130
   1 C :   -0.093573
   2 C :   -0.075260
   3 C :    0.048040
   4 C :   -0.178395
   5 H :    0.029916
   6 C :   -0.026707
   7 H :    0.030444
   8 H :    0.040588
   9 C :   -0.044591
  10 H :    0.014540
  11 H :    0.021758
  12 C :   -0.038994
  13 H :    0.044392
  14 H :    0.037466
  15 H :    0.028894
  16 S :    0.100028
  17 C :   -0.094565
  18 C :   -0.030085
  19 C :   -0.058402
  20 C :   -0.174882
  21 H :    0.008322
  22 C :    0.167350
  23 H :   -0.008697
  24 H :    0.018277
  25 C :   -0.131800
  26 H :    0.029432
  27 H :    0.054070
  28 C :   -0.019215
  29 H :    0.038157
  30 H :    0.025305
  31 H :    0.011126
  32 H :    0.031936
  33 H :    0.067997
Sum of atomic charges:   -0.0000000

LOEWDIN ATOMIC CHARGES
----------------------
   0 S :    0.414147
   1 C :   -0.182023
   2 C :   -0.061297
   3 C :   -0.064754
   4 C :   -0.203821
   5 H :    0.043489
   6 C :   -0.042773
   7 H :    0.029482
   8 H :    0.033848
   9 C :   -0.041700
  10 H :    0.017864
  11 H :    0.022082
  12 C :   -0.067249
  13 H :    0.033556
  14 H :    0.027768
  15 H :    0.024659
  16 S :    0.389202
  17 C :   -0.185335
  18 C :   -0.072750
  19 C :   -0.040307
  20 C :   -0.202112
  21 H :    0.024471
  22 C :   -0.018372
  23 H :    0.013348
  24 H :    0.030514
  25 C :   -0.041410
  26 H :    0.021855
  27 H :    0.036304
  28 C :   -0.067531
  29 H :    0.021731
  30 H :    0.024512
  31 H :    0.020971
  32 H :    0.022437
  33 H :    0.039194

  Mayer bond orders larger than 0.100000
B(  0-S ,  1-C ) :   1.1253 B(  0-S ,  4-C ) :   1.1677 B(  1-C ,  2-C ) :   1.6070
B(  1-C ,  4-C ) :   0.1059 B(  1-C , 32-H ) :   0.9744 B(  2-C ,  3-C ) :   1.2204
B(  2-C ,  6-C ) :   1.0357 B(  3-C ,  4-C ) :   1.5943 B(  3-C ,  5-H ) :   0.9957
B(  4-C , 20-C ) :   0.9957 B(  6-C ,  7-H ) :   0.9395 B(  6-C ,  8-H ) :   0.9447
B(  6-C ,  9-C ) :   1.0541 B(  9-C , 10-H ) :   0.9551 B(  9-C , 11-H ) :   0.9569
B(  9-C , 12-C ) :   1.0763 B( 12-C , 13-H ) :   0.9759 B( 12-C , 14-H ) :   0.9755
B( 12-C , 15-H ) :   0.9738 B( 16-S , 17-C ) :   1.1470 B( 16-S , 20-C ) :   1.1372
B( 17-C , 18-C ) :   1.6485 B( 17-C , 33-H ) :   0.9556 B( 18-C , 19-C ) :   1.2291
B( 18-C , 21-H ) :   0.9855 B( 19-C , 20-C ) :   1.6108 B( 19-C , 22-C ) :   1.0526
B( 22-C , 23-H ) :   0.9273 B( 22-C , 24-H ) :   0.9268 B( 22-C , 25-C ) :   1.0540
B( 25-C , 26-H ) :   0.9571 B( 25-C , 27-H ) :   0.9598 B( 25-C , 28-C ) :   1.0789
B( 28-C , 29-H ) :   0.9768 B( 28-C , 30-H ) :   0.9754 B( 28-C , 31-H ) :   0.9705

Dispersion correction           -0.014396245
FINAL SINGLE POINT ENERGY     -1339.858512851223

DIPOLE MOMENT
-------------
                                X             Y             Z
Electronic contribution:     -1.15176     -11.57770      25.75065
Nuclear contribution   :      1.38885      11.55686     -26.49236
                        -----------------------------------------
Total Dipole Moment    :      0.23709      -0.02084      -0.74171
                        -----------------------------------------
Magnitude (a.u.)       :      0.77896
Magnitude (Debye)      :      1.97995

Rotational constants in cm-1:     0.017715     0.008524     0.007197
Rotational constants in MHz :   531.073273   255.548537   215.772081

                             ****ORCA TERMINATED NORMALLY****
TOTAL RUN TIME: 0 days 0 hours 0 minutes 21 seconds 649 msec
