                         Program Version 4.2.1 -  RELEASE  -
|  1> ! wB97X-D3 SP def2-SVP
|  2> %pal
|  3> nprocs 24
|  4> end
|  5>
|  6> * xyz 0 1
|  7> S 	 -96.5899 	 -0.810548 	 -117.643
|  8> C 	 -95.2203 	 -1.8455 	 -117.857
|  9> C 	 -95.5986 	 -3.05074 	 -118.386
| 10> C 	 -96.989 	 -3.09646 	 -118.675
| 11> C 	 -97.6816 	 -1.94254 	 -118.418
| 12> H 	 -97.4494 	 -3.92039 	 -119.222
| 13> C 	 -94.6043 	 -4.02061 	 -118.961
| 14> H 	 -93.6196 	 -3.79534 	 -118.652
| 15> H 	 -94.6734 	 -3.84903 	 -120.086
| 16> C 	 -94.75 	 -5.53396 	 -118.545
| 17> H 	 -95.7614 	 -5.80014 	 -118.65
| 18> H 	 -94.1294 	 -6.04874 	 -119.268
| 19> C 	 -94.2196 	 -5.95654 	 -117.105
| 20> H 	 -93.156 	 -5.78854 	 -116.941
| 21> H 	 -94.8701 	 -5.52897 	 -116.3
| 22> H 	 -94.4498 	 -7.02491 	 -116.971
| 23> S 	 -100.062 	 -1.95851 	 -117.106
| 24> C 	 -101.509 	 -1.68007 	 -117.894
| 25> C 	 -101.36 	 -1.76789 	 -119.235
| 26> C 	 -99.9829 	 -2.0466 	 -119.578
| 27> C 	 -99.1005 	 -1.8503 	 -118.549
| 28> H 	 -102.237 	 -1.85889 	 -119.932
| 29> C 	 -99.5075 	 -2.36408 	 -120.997
| 30> H 	 -98.4265 	 -2.0962 	 -121.002
| 31> H 	 -99.9246 	 -1.69099 	 -121.791
| 32> C 	 -99.7435 	 -3.78611 	 -121.437
| 33> H 	 -100.789 	 -4.01691 	 -121.143
| 34> H 	 -99.1452 	 -4.51397 	 -120.809
| 35> C 	 -99.5697 	 -4.12703 	 -122.941
| 36> H 	 -99.4631 	 -5.23852 	 -123.105
| 37> H 	 -98.6131 	 -3.63886 	 -123.159
| 38> H 	 -100.381 	 -3.71399 	 -123.636
| 39> H 	 -94.2041 	 -1.63188 	 -117.588
| 40> H 	 -102.475 	 -1.65727 	 -117.403
| 41> *
| 42>
| 43>                          ****END OF INPUT****

CARTESIAN COORDINATES (ANGSTROEM)
---------------------------------
  S    -96.589900   -0.810548  -117.643000
  C    -95.220300   -1.845500  -117.857000
  C    -95.598600   -3.050740  -118.386000
  C    -96.989000   -3.096460  -118.675000
  C    -97.681600   -1.942540  -118.418000
  H    -97.449400   -3.920390  -119.222000
  C    -94.604300   -4.020610  -118.961000
  H    -93.619600   -3.795340  -118.652000
  H    -94.673400   -3.849030  -120.086000
  C    -94.750000   -5.533960  -118.545000
  H    -95.761400   -5.800140  -118.650000
  H    -94.129400   -6.048740  -119.268000
  C    -94.219600   -5.956540  -117.105000
  H    -93.156000   -5.788540  -116.941000
  H    -94.870100   -5.528970  -116.300000
  H    -94.449800   -7.024910  -116.971000
  S    -100.062000   -1.958510  -117.106000
  C    -101.509000   -1.680070  -117.894000
  C    -101.360000   -1.767890  -119.235000
  C    -99.982900   -2.046600  -119.578000
  C    -99.100500   -1.850300  -118.549000
  H    -102.237000   -1.858890  -119.932000
  C    -99.507500   -2.364080  -120.997000
  H    -98.426500   -2.096200  -121.002000
  H    -99.924600   -1.690990  -121.791000
  C    -99.743500   -3.786110  -121.437000
  H    -100.789000   -4.016910  -121.143000
  H    -99.145200   -4.513970  -120.809000
  C    -99.569700   -4.127030  -122.941000
  H    -99.463100   -5.238520  -123.105000
  H    -98.613100   -3.638860  -123.159000
  H    -100.381000   -3.713990  -123.636000
  H    -94.204100   -1.631880  -117.588000
  H    -102.475000   -1.657270  -117.403000

 Total Charge           Charge          ....    0
 Multiplicity           Mult            ....    1
 Number of Electrons    NEL             ....  134
 Basis Dimension        Dim             ....  322

ORBITAL ENERGIES
----------------

  NO   OCC          E(Eh)            E(eV)
   0   2.0000     -88.967968     -2420.9415
   1   2.0000     -88.957027     -2420.6438
   2   2.0000     -10.327397      -281.0228
   3   2.0000     -10.320594      -280.8376
   4   2.0000     -10.312512      -280.6177
   5   2.0000     -10.308970      -280.5213
   6   2.0000     -10.303523      -280.3731
   7   2.0000     -10.295521      -280.1554
   8   2.0000     -10.295216      -280.1471
   9   2.0000     -10.293334      -280.0959
  10   2.0000     -10.292949      -280.0854
  11   2.0000     -10.292229      -280.0658
  12   2.0000     -10.291804      -280.0542
  13   2.0000     -10.291265      -280.0396
  14   2.0000     -10.289795      -279.9996
  15   2.0000     -10.286849      -279.9194
  16   2.0000      -8.082801      -219.9442
  17   2.0000      -8.074206      -219.7103
  18   2.0000      -6.041378      -164.3943
  19   2.0000      -6.037149      -164.2792
  20   2.0000      -6.033611      -164.1829
  21   2.0000      -6.032593      -164.1552
  22   2.0000      -6.028501      -164.0439
  23   2.0000      -6.024767      -163.9422
  24   2.0000      -1.018807       -27.7231
  25   2.0000      -0.995540       -27.0900
  26   2.0000      -0.909100       -24.7379
  27   2.0000      -0.906283       -24.6612
  28   2.0000      -0.877236       -23.8708
  29   2.0000      -0.847449       -23.0603
  30   2.0000      -0.843580       -22.9550
  31   2.0000      -0.817993       -22.2587
  32   2.0000      -0.781192       -21.2573
  33   2.0000      -0.772424       -21.0187
  34   2.0000      -0.713061       -19.4034
  35   2.0000      -0.696071       -18.9411
  36   2.0000      -0.690433       -18.7876
  37   2.0000      -0.656681       -17.8692
  38   2.0000      -0.640948       -17.4411
  39   2.0000      -0.625460       -17.0196
  40   2.0000      -0.598774       -16.2935
  41   2.0000      -0.574125       -15.6227
  42   2.0000      -0.555640       -15.1197
  43   2.0000      -0.545534       -14.8447
  44   2.0000      -0.543355       -14.7854
  45   2.0000      -0.522302       -14.2126
  46   2.0000      -0.518080       -14.0977
  47   2.0000      -0.511802       -13.9268
  48   2.0000      -0.510976       -13.9044
  49   2.0000      -0.504919       -13.7395
  50   2.0000      -0.489348       -13.3158
  51   2.0000      -0.478244       -13.0137
  52   2.0000      -0.474659       -12.9161
  53   2.0000      -0.467958       -12.7338
  54   2.0000      -0.456516       -12.4224
  55   2.0000      -0.454019       -12.3545
  56   2.0000      -0.446036       -12.1373
  57   2.0000      -0.437683       -11.9100
  58   2.0000      -0.431424       -11.7396
  59   2.0000      -0.428692       -11.6653
  60   2.0000      -0.417189       -11.3523
  61   2.0000      -0.406525       -11.0621
  62   2.0000      -0.405318       -11.0293
  63   2.0000      -0.344250        -9.3675
  64   2.0000      -0.327918        -8.9231
  65   2.0000      -0.322296        -8.7701
  66   2.0000      -0.305587        -8.3154
  67   0.0000       0.035813         0.9745
  68   0.0000       0.065618         1.7856
  69   0.0000       0.112283         3.0554
  70   0.0000       0.117038         3.1848
  71   0.0000       0.135442         3.6856

MULLIKEN ATOMIC CHARGES
-----------------------
   0 S :    0.125757
   1 C :   -0.111367
   2 C :   -0.063768
   3 C :    0.029507
   4 C :   -0.168496
   5 H :    0.009498
   6 C :    0.038149
   7 H :   -0.001388
   8 H :    0.059024
   9 C :   -0.060128
  10 H :    0.019282
  11 H :    0.029607
  12 C :   -0.078761
  13 H :    0.044733
  14 H :    0.044073
  15 H :    0.036339
  16 S :    0.106546
  17 C :   -0.072868
  18 C :   -0.038386
  19 C :   -0.057612
  20 C :   -0.143301
  21 H :    0.037885
  22 C :    0.030185
  23 H :    0.031517
  24 H :    0.030407
  25 C :   -0.095441
  26 H :    0.022352
  27 H :    0.030893
  28 C :   -0.070793
  29 H :    0.049875
  30 H :    0.032218
  31 H :    0.053419
  32 H :    0.042037
  33 H :    0.059009
Sum of atomic charges:    0.0000000

LOEWDIN ATOMIC CHARGES
----------------------
   0 S :    0.418605
   1 C :   -0.192182
   2 C :   -0.075522
   3 C :   -0.053700
   4 C :   -0.206859
   5 H :    0.029672
   6 C :   -0.030750
   7 H :    0.018994
   8 H :    0.044955
   9 C :   -0.032541
  10 H :    0.013575
  11 H :    0.024491
  12 C :   -0.071949
  13 H :    0.024597
  14 H :    0.032362
  15 H :    0.030663
  16 S :    0.437529
  17 C :   -0.202897
  18 C :   -0.086400
  19 C :   -0.052138
  20 C :   -0.202850
  21 H :    0.040756
  22 C :   -0.044388
  23 H :    0.030375
  24 H :    0.033087
  25 C :   -0.053214
  26 H :    0.021721
  27 H :    0.024551
  28 C :   -0.075782
  29 H :    0.034764
  30 H :    0.025142
  31 H :    0.034151
  32 H :    0.028298
  33 H :    0.032883

  Mayer bond orders larger than 0.100000
B(  0-S ,  1-C ) :   1.1476 B(  0-S ,  4-C ) :   1.1427 B(  1-C ,  2-C ) :   1.5987
B(  1-C , 32-H ) :   0.9691 B(  2-C ,  3-C ) :   1.2509 B(  2-C ,  6-C ) :   1.0314
B(  3-C ,  4-C ) :   1.5643 B(  3-C ,  5-H ) :   0.9899 B(  4-C , 20-C ) :   1.0474
B(  6-C ,  7-H ) :   0.9395 B(  6-C ,  8-H ) :   0.9456 B(  6-C ,  9-C ) :   1.0535
B(  9-C , 10-H ) :   0.9635 B(  9-C , 11-H ) :   0.9565 B(  9-C , 12-C ) :   1.0770
B( 12-C , 13-H ) :   0.9762 B( 12-C , 14-H ) :   0.9761 B( 12-C , 15-H ) :   0.9739
B( 16-S , 17-C ) :   1.1831 B( 16-S , 20-C ) :   1.1422 B( 17-C , 18-C ) :   1.5921
B( 17-C , 33-H ) :   0.9663 B( 18-C , 19-C ) :   1.2401 B( 18-C , 21-H ) :   0.9843
B( 19-C , 20-C ) :   1.5996 B( 19-C , 22-C ) :   1.0524 B( 22-C , 23-H ) :   0.9288
B( 22-C , 24-H ) :   0.9441 B( 22-C , 25-C ) :   1.0552 B( 25-C , 26-H ) :   0.9562
B( 25-C , 27-H ) :   0.9461 B( 25-C , 28-C ) :   1.0709 B( 28-C , 29-H ) :   0.9747
B( 28-C , 30-H ) :   0.9750 B( 28-C , 31-H ) :   0.9737

Dispersion correction           -0.014206700
FINAL SINGLE POINT ENERGY     -1339.867956147179

DIPOLE MOMENT
-------------
                                X             Y             Z
Electronic contribution:     -8.44023      21.11495      16.47457
Nuclear contribution   :      8.58362     -21.69795     -16.90610
                        -----------------------------------------
Total Dipole Moment    :      0.14339      -0.58300      -0.43153
                        -----------------------------------------
Magnitude (a.u.)       :      0.73937
Magnitude (Debye)      :      1.87933

Rotational constants in cm-1:     0.016678     0.009047     0.007059
Rotational constants in MHz :   499.999290   271.220444   211.631336

                             ****ORCA TERMINATED NORMALLY****
TOTAL RUN TIME: 0 days 0 hours 0 minutes 21 seconds 920 msec
