                         Program Version 4.2.1 -  RELEASE  -
|  1> ! wB97X-D3 SP def2-SVP
|  2> %pal
|  3> nprocs 24
|  4> end
|  5>
|  6> * xyz 0 1
|  7> S 	 -121.883 	 60.3583 	 -32.0297
|  8> C 	 -120.865 	 59.0154 	 -32.2903
|  9> C 	 -121.42 	 58.0085 	 -33.1043
| 10> C 	 -122.784 	 58.4054 	 -33.4966
| 11> C 	 -123.1 	 59.68 	 -33.099
| 12> H 	 -123.524 	 57.9353 	 -34.072
| 13> C 	 -120.669 	 56.8842 	 -33.6287
| 14> H 	 -119.585 	 57.108 	 -33.4726
| 15> H 	 -120.871 	 56.8461 	 -34.7263
| 16> C 	 -121.055 	 55.4839 	 -32.9749
| 17> H 	 -122.144 	 55.3649 	 -32.9977
| 18> H 	 -120.624 	 54.6402 	 -33.5249
| 19> C 	 -120.655 	 55.3322 	 -31.4312
| 20> H 	 -120.946 	 54.3273 	 -31.1397
| 21> H 	 -119.583 	 55.3818 	 -31.2578
| 22> H 	 -121.232 	 55.9654 	 -30.6537
| 23> S 	 -125.165 	 60.8859 	 -31.9206
| 24> C 	 -126.601 	 61.4152 	 -32.8147
| 25> C 	 -126.415 	 61.3481 	 -34.1613
| 26> C 	 -125.127 	 60.808 	 -34.4871
| 27> C 	 -124.411 	 60.341 	 -33.3377
| 28> H 	 -127.183 	 61.6661 	 -34.8673
| 29> C 	 -124.482 	 60.6792 	 -35.8733
| 30> H 	 -124.588 	 59.6478 	 -36.0858
| 31> H 	 -123.455 	 60.7632 	 -35.8848
| 32> C 	 -125.218 	 61.3352 	 -37.1493
| 33> H 	 -124.963 	 62.4108 	 -37.1345
| 34> H 	 -126.316 	 61.2148 	 -37.0205
| 35> C 	 -124.82 	 60.6568 	 -38.4822
| 36> H 	 -125.345 	 60.9986 	 -39.3914
| 37> H 	 -124.964 	 59.552 	 -38.3646
| 38> H 	 -123.776 	 61.0084 	 -38.7741
| 39> H 	 -119.845 	 58.9576 	 -31.9499
| 40> H 	 -127.459 	 61.9001 	 -32.3877
| 41> *
| 42>
| 43>                          ****END OF INPUT****

CARTESIAN COORDINATES (ANGSTROEM)
---------------------------------
  S    -121.883000   60.358300  -32.029700
  C    -120.865000   59.015400  -32.290300
  C    -121.420000   58.008500  -33.104300
  C    -122.784000   58.405400  -33.496600
  C    -123.100000   59.680000  -33.099000
  H    -123.524000   57.935300  -34.072000
  C    -120.669000   56.884200  -33.628700
  H    -119.585000   57.108000  -33.472600
  H    -120.871000   56.846100  -34.726300
  C    -121.055000   55.483900  -32.974900
  H    -122.144000   55.364900  -32.997700
  H    -120.624000   54.640200  -33.524900
  C    -120.655000   55.332200  -31.431200
  H    -120.946000   54.327300  -31.139700
  H    -119.583000   55.381800  -31.257800
  H    -121.232000   55.965400  -30.653700
  S    -125.165000   60.885900  -31.920600
  C    -126.601000   61.415200  -32.814700
  C    -126.415000   61.348100  -34.161300
  C    -125.127000   60.808000  -34.487100
  C    -124.411000   60.341000  -33.337700
  H    -127.183000   61.666100  -34.867300
  C    -124.482000   60.679200  -35.873300
  H    -124.588000   59.647800  -36.085800
  H    -123.455000   60.763200  -35.884800
  C    -125.218000   61.335200  -37.149300
  H    -124.963000   62.410800  -37.134500
  H    -126.316000   61.214800  -37.020500
  C    -124.820000   60.656800  -38.482200
  H    -125.345000   60.998600  -39.391400
  H    -124.964000   59.552000  -38.364600
  H    -123.776000   61.008400  -38.774100
  H    -119.845000   58.957600  -31.949900
  H    -127.459000   61.900100  -32.387700

 Total Charge           Charge          ....    0
 Multiplicity           Mult            ....    1
 Number of Electrons    NEL             ....  134
 Basis Dimension        Dim             ....  322

ORBITAL ENERGIES
----------------

  NO   OCC          E(Eh)            E(eV)
   0   2.0000     -88.967003     -2420.9152
   1   2.0000     -88.962697     -2420.7981
   2   2.0000     -10.328953      -281.0651
   3   2.0000     -10.324118      -280.9335
   4   2.0000     -10.313208      -280.6367
   5   2.0000     -10.311741      -280.5967
   6   2.0000     -10.310592      -280.5655
   7   2.0000     -10.304291      -280.3940
   8   2.0000     -10.298349      -280.2323
   9   2.0000     -10.298318      -280.2315
  10   2.0000     -10.298188      -280.2279
  11   2.0000     -10.295836      -280.1640
  12   2.0000     -10.293525      -280.1010
  13   2.0000     -10.291420      -280.0438
  14   2.0000     -10.285314      -279.8776
  15   2.0000     -10.285261      -279.8762
  16   2.0000      -8.082364      -219.9323
  17   2.0000      -8.078129      -219.8171
  18   2.0000      -6.040791      -164.3783
  19   2.0000      -6.036840      -164.2708
  20   2.0000      -6.036569      -164.2634
  21   2.0000      -6.033123      -164.1696
  22   2.0000      -6.032482      -164.1522
  23   2.0000      -6.028972      -164.0567
  24   2.0000      -1.007177       -27.4067
  25   2.0000      -0.984224       -26.7821
  26   2.0000      -0.906275       -24.6610
  27   2.0000      -0.898378       -24.4461
  28   2.0000      -0.869105       -23.6496
  29   2.0000      -0.847929       -23.0733
  30   2.0000      -0.840816       -22.8798
  31   2.0000      -0.820388       -22.3239
  32   2.0000      -0.776561       -21.1313
  33   2.0000      -0.764713       -20.8089
  34   2.0000      -0.706342       -19.2206
  35   2.0000      -0.700444       -19.0601
  36   2.0000      -0.691331       -18.8121
  37   2.0000      -0.653203       -17.7746
  38   2.0000      -0.644284       -17.5319
  39   2.0000      -0.616690       -16.7810
  40   2.0000      -0.595900       -16.2153
  41   2.0000      -0.566502       -15.4153
  42   2.0000      -0.566034       -15.4026
  43   2.0000      -0.542611       -14.7652
  44   2.0000      -0.536050       -14.5867
  45   2.0000      -0.518551       -14.1105
  46   2.0000      -0.512906       -13.9569
  47   2.0000      -0.510483       -13.8909
  48   2.0000      -0.501922       -13.6580
  49   2.0000      -0.494814       -13.4646
  50   2.0000      -0.483473       -13.1560
  51   2.0000      -0.478404       -13.0180
  52   2.0000      -0.469238       -12.7686
  53   2.0000      -0.464124       -12.6295
  54   2.0000      -0.460558       -12.5324
  55   2.0000      -0.453941       -12.3524
  56   2.0000      -0.446166       -12.1408
  57   2.0000      -0.434098       -11.8124
  58   2.0000      -0.431562       -11.7434
  59   2.0000      -0.426328       -11.6010
  60   2.0000      -0.424484       -11.5508
  61   2.0000      -0.419159       -11.4059
  62   2.0000      -0.411496       -11.1974
  63   2.0000      -0.350046        -9.5252
  64   2.0000      -0.329671        -8.9708
  65   2.0000      -0.318570        -8.6687
  66   2.0000      -0.289301        -7.8723
  67   0.0000       0.036753         1.0001
  68   0.0000       0.065952         1.7946
  69   0.0000       0.111899         3.0449
  70   0.0000       0.113431         3.0866
  71   0.0000       0.135365         3.6835

MULLIKEN ATOMIC CHARGES
-----------------------
   0 S :    0.125521
   1 C :   -0.114175
   2 C :   -0.071866
   3 C :    0.053335
   4 C :   -0.162481
   5 H :   -0.004640
   6 C :    0.037878
   7 H :    0.031762
   8 H :    0.044817
   9 C :   -0.076255
  10 H :    0.034834
  11 H :    0.038748
  12 C :   -0.091240
  13 H :    0.025637
  14 H :    0.034184
  15 H :    0.056941
  16 S :    0.104178
  17 C :   -0.080864
  18 C :   -0.045339
  19 C :   -0.031028
  20 C :   -0.174678
  21 H :    0.027262
  22 C :    0.091379
  23 H :    0.007032
  24 H :    0.016717
  25 C :   -0.094537
  26 H :    0.045874
  27 H :    0.037796
  28 C :   -0.089930
  29 H :    0.039229
  30 H :    0.049770
  31 H :    0.041045
  32 H :    0.045078
  33 H :    0.048017
Sum of atomic charges:    0.0000000

LOEWDIN ATOMIC CHARGES
----------------------
   0 S :    0.415205
   1 C :   -0.208881
   2 C :   -0.060992
   3 C :   -0.051610
   4 C :   -0.197489
   5 H :    0.024336
   6 C :   -0.041886
   7 H :    0.035296
   8 H :    0.039581
   9 C :   -0.035371
  10 H :    0.025345
  11 H :    0.025180
  12 C :   -0.078963
  13 H :    0.023978
  14 H :    0.020385
  15 H :    0.038269
  16 S :    0.423265
  17 C :   -0.180401
  18 C :   -0.075288
  19 C :   -0.049574
  20 C :   -0.220832
  21 H :    0.036593
  22 C :   -0.030601
  23 H :    0.028422
  24 H :    0.021453
  25 C :   -0.041096
  26 H :    0.025753
  27 H :    0.024196
  28 C :   -0.079385
  29 H :    0.028672
  30 H :    0.030812
  31 H :    0.033466
  32 H :    0.025427
  33 H :    0.026739

  Mayer bond orders larger than 0.100000
B(  0-S ,  1-C ) :   1.1469 B(  0-S ,  4-C ) :   1.1393 B(  1-C ,  2-C ) :   1.6095
B(  1-C , 32-H ) :   0.9643 B(  2-C ,  3-C ) :   1.1904 B(  2-C ,  6-C ) :   1.0422
B(  3-C ,  4-C ) :   1.6191 B(  3-C ,  5-H ) :   0.9979 B(  4-C , 20-C ) :   1.0207
B(  6-C ,  7-H ) :   0.9459 B(  6-C ,  8-H ) :   0.9386 B(  6-C ,  9-C ) :   1.0499
B(  9-C , 10-H ) :   0.9619 B(  9-C , 11-H ) :   0.9602 B(  9-C , 12-C ) :   1.0634
B( 12-C , 13-H ) :   0.9744 B( 12-C , 14-H ) :   0.9791 B( 12-C , 15-H ) :   0.9756
B( 16-S , 17-C ) :   1.1577 B( 16-S , 20-C ) :   1.1663 B( 17-C , 18-C ) :   1.6019
B( 17-C , 20-C ) :   0.1022 B( 17-C , 33-H ) :   0.9662 B( 18-C , 19-C ) :   1.2624
B( 18-C , 21-H ) :   0.9871 B( 19-C , 20-C ) :   1.5576 B( 19-C , 22-C ) :   1.0212
B( 22-C , 23-H ) :   0.9302 B( 22-C , 24-H ) :   0.9383 B( 22-C , 25-C ) :   1.0488
B( 25-C , 26-H ) :   0.9601 B( 25-C , 27-H ) :   0.9544 B( 25-C , 28-C ) :   1.0803
B( 28-C , 29-H ) :   0.9741 B( 28-C , 30-H ) :   0.9735 B( 28-C , 31-H ) :   0.9749

Dispersion correction           -0.013635202
FINAL SINGLE POINT ENERGY     -1339.860966388206

DIPOLE MOMENT
-------------
                                X             Y             Z
Electronic contribution:     -4.69820      15.00601      18.18589
Nuclear contribution   :      4.73475     -15.31655     -18.76449
                        -----------------------------------------
Total Dipole Moment    :      0.03654      -0.31054      -0.57860
                        -----------------------------------------
Magnitude (a.u.)       :      0.65768
Magnitude (Debye)      :      1.67170

Rotational constants in cm-1:     0.018643     0.007731     0.006235
Rotational constants in MHz :   558.908328   231.768375   186.908780

                             ****ORCA TERMINATED NORMALLY****
TOTAL RUN TIME: 0 days 0 hours 0 minutes 20 seconds 734 msec
