                         Program Version 4.2.1 -  RELEASE  -
|  1> ! wB97X-D3 SP def2-SVP
|  2> %pal
|  3> nprocs 24
|  4> end
|  5>
|  6> * xyz 0 1
|  7> S 	 -55.4824 	 13.4954 	 -91.6777
|  8> C 	 -54.2758 	 12.2157 	 -91.7757
|  9> C 	 -53.3608 	 12.5166 	 -92.7478
| 10> C 	 -53.5631 	 13.8629 	 -93.2299
| 11> C 	 -54.6793 	 14.4696 	 -92.7502
| 12> H 	 -52.9889 	 14.332 	 -94.0561
| 13> C 	 -52.0266 	 11.7522 	 -93.0329
| 14> H 	 -51.86 	 11.6091 	 -94.1407
| 15> H 	 -52.076 	 10.706 	 -92.7216
| 16> C 	 -50.7704 	 12.403 	 -92.5527
| 17> H 	 -50.6396 	 13.3163 	 -93.1056
| 18> H 	 -50.7736 	 12.653 	 -91.4648
| 19> C 	 -49.6439 	 11.4065 	 -92.7877
| 20> H 	 -49.2177 	 11.3275 	 -93.7472
| 21> H 	 -48.913 	 11.5878 	 -91.9892
| 22> H 	 -49.9676 	 10.3644 	 -92.4338
| 23> S 	 -56.5037 	 16.08 	 -93.978
| 24> C 	 -56.3055 	 17.806 	 -93.7264
| 25> C 	 -55.2905 	 18.1058 	 -92.8271
| 26> C 	 -54.6018 	 16.9295 	 -92.4151
| 27> C 	 -55.1437 	 15.8368 	 -92.9513
| 28> H 	 -54.9237 	 19.1409 	 -92.6991
| 29> C 	 -53.4787 	 17.0291 	 -91.4204
| 30> H 	 -53.3509 	 16.1628 	 -90.7615
| 31> H 	 -53.8666 	 17.8216 	 -90.7418
| 32> C 	 -52.1276 	 17.3351 	 -92.0849
| 33> H 	 -52.1496 	 18.3272 	 -92.6339
| 34> H 	 -52.0367 	 16.5309 	 -92.832
| 35> C 	 -50.923 	 17.2197 	 -91.2205
| 36> H 	 -50.8513 	 16.1522 	 -90.8715
| 37> H 	 -51.122 	 17.5138 	 -90.237
| 38> H 	 -50.0247 	 17.6362 	 -91.6763
| 39> H 	 -54.2532 	 11.2577 	 -91.2377
| 40> H 	 -56.9891 	 18.5505 	 -94.1237
| 41> *
| 42>
| 43>                          ****END OF INPUT****

CARTESIAN COORDINATES (ANGSTROEM)
---------------------------------
  S    -55.482400   13.495400  -91.677700
  C    -54.275800   12.215700  -91.775700
  C    -53.360800   12.516600  -92.747800
  C    -53.563100   13.862900  -93.229900
  C    -54.679300   14.469600  -92.750200
  H    -52.988900   14.332000  -94.056100
  C    -52.026600   11.752200  -93.032900
  H    -51.860000   11.609100  -94.140700
  H    -52.076000   10.706000  -92.721600
  C    -50.770400   12.403000  -92.552700
  H    -50.639600   13.316300  -93.105600
  H    -50.773600   12.653000  -91.464800
  C    -49.643900   11.406500  -92.787700
  H    -49.217700   11.327500  -93.747200
  H    -48.913000   11.587800  -91.989200
  H    -49.967600   10.364400  -92.433800
  S    -56.503700   16.080000  -93.978000
  C    -56.305500   17.806000  -93.726400
  C    -55.290500   18.105800  -92.827100
  C    -54.601800   16.929500  -92.415100
  C    -55.143700   15.836800  -92.951300
  H    -54.923700   19.140900  -92.699100
  C    -53.478700   17.029100  -91.420400
  H    -53.350900   16.162800  -90.761500
  H    -53.866600   17.821600  -90.741800
  C    -52.127600   17.335100  -92.084900
  H    -52.149600   18.327200  -92.633900
  H    -52.036700   16.530900  -92.832000
  C    -50.923000   17.219700  -91.220500
  H    -50.851300   16.152200  -90.871500
  H    -51.122000   17.513800  -90.237000
  H    -50.024700   17.636200  -91.676300
  H    -54.253200   11.257700  -91.237700
  H    -56.989100   18.550500  -94.123700

 Total Charge           Charge          ....    0
 Multiplicity           Mult            ....    1
 Number of Electrons    NEL             ....  134
 Basis Dimension        Dim             ....  322

ORBITAL ENERGIES
----------------

  NO   OCC          E(Eh)            E(eV)
   0   2.0000     -88.967078     -2420.9173
   1   2.0000     -88.961873     -2420.7756
   2   2.0000     -10.318286      -280.7748
   3   2.0000     -10.316130      -280.7162
   4   2.0000     -10.315206      -280.6910
   5   2.0000     -10.312892      -280.6281
   6   2.0000     -10.301017      -280.3049
   7   2.0000     -10.295199      -280.1466
   8   2.0000     -10.294952      -280.1399
   9   2.0000     -10.294442      -280.1260
  10   2.0000     -10.292408      -280.0707
  11   2.0000     -10.290080      -280.0073
  12   2.0000     -10.286918      -279.9213
  13   2.0000     -10.285716      -279.8886
  14   2.0000     -10.280575      -279.7487
  15   2.0000     -10.272928      -279.5406
  16   2.0000      -8.082462      -219.9350
  17   2.0000      -8.078422      -219.8250
  18   2.0000      -6.040855      -164.3800
  19   2.0000      -6.037033      -164.2760
  20   2.0000      -6.036878      -164.2718
  21   2.0000      -6.033153      -164.1704
  22   2.0000      -6.032456      -164.1515
  23   2.0000      -6.029331      -164.0664
  24   2.0000      -1.019088       -27.7308
  25   2.0000      -0.992134       -26.9973
  26   2.0000      -0.917989       -24.9798
  27   2.0000      -0.913457       -24.8564
  28   2.0000      -0.872323       -23.7371
  29   2.0000      -0.859240       -23.3811
  30   2.0000      -0.843143       -22.9431
  31   2.0000      -0.812255       -22.1026
  32   2.0000      -0.783516       -21.3206
  33   2.0000      -0.774008       -21.0618
  34   2.0000      -0.703843       -19.1525
  35   2.0000      -0.697040       -18.9674
  36   2.0000      -0.689296       -18.7567
  37   2.0000      -0.665431       -18.1073
  38   2.0000      -0.644131       -17.5277
  39   2.0000      -0.616947       -16.7880
  40   2.0000      -0.600626       -16.3439
  41   2.0000      -0.575447       -15.6587
  42   2.0000      -0.564434       -15.3590
  43   2.0000      -0.558743       -15.2042
  44   2.0000      -0.539385       -14.6774
  45   2.0000      -0.521918       -14.2021
  46   2.0000      -0.518168       -14.1001
  47   2.0000      -0.512484       -13.9454
  48   2.0000      -0.500905       -13.6303
  49   2.0000      -0.499290       -13.5864
  50   2.0000      -0.490976       -13.3601
  51   2.0000      -0.480703       -13.0806
  52   2.0000      -0.468173       -12.7396
  53   2.0000      -0.463250       -12.6057
  54   2.0000      -0.457406       -12.4467
  55   2.0000      -0.450055       -12.2466
  56   2.0000      -0.445922       -12.1341
  57   2.0000      -0.435048       -11.8383
  58   2.0000      -0.433694       -11.8014
  59   2.0000      -0.431026       -11.7288
  60   2.0000      -0.417850       -11.3703
  61   2.0000      -0.413233       -11.2446
  62   2.0000      -0.400900       -10.9090
  63   2.0000      -0.337309        -9.1787
  64   2.0000      -0.332432        -9.0459
  65   2.0000      -0.324696        -8.8354
  66   2.0000      -0.312444        -8.5020
  67   0.0000       0.053506         1.4560
  68   0.0000       0.063360         1.7241
  69   0.0000       0.112544         3.0625
  70   0.0000       0.123261         3.3541
  71   0.0000       0.126625         3.4456

MULLIKEN ATOMIC CHARGES
-----------------------
   0 S :    0.121166
   1 C :   -0.137805
   2 C :   -0.041655
   3 C :    0.001699
   4 C :   -0.160858
   5 H :    0.028060
   6 C :    0.006916
   7 H :    0.031448
   8 H :    0.012633
   9 C :   -0.051440
  10 H :    0.030496
  11 H :    0.036825
  12 C :   -0.053873
  13 H :    0.042440
  14 H :    0.027638
  15 H :    0.022452
  16 S :    0.127491
  17 C :   -0.099156
  18 C :   -0.042718
  19 C :   -0.010045
  20 C :   -0.202503
  21 H :    0.036748
  22 C :    0.072755
  23 H :    0.022965
  24 H :    0.029909
  25 C :   -0.099014
  26 H :    0.033927
  27 H :    0.024745
  28 C :    0.015290
  29 H :    0.013558
  30 H :   -0.002587
  31 H :    0.052501
  32 H :    0.052457
  33 H :    0.057536
Sum of atomic charges:    0.0000000

LOEWDIN ATOMIC CHARGES
----------------------
   0 S :    0.440687
   1 C :   -0.201644
   2 C :   -0.064143
   3 C :   -0.077099
   4 C :   -0.224645
   5 H :    0.034714
   6 C :   -0.038827
   7 H :    0.036821
   8 H :    0.022878
   9 C :   -0.041736
  10 H :    0.023299
  11 H :    0.029080
  12 C :   -0.065854
  13 H :    0.019016
  14 H :    0.029926
  15 H :    0.031762
  16 S :    0.415387
  17 C :   -0.179985
  18 C :   -0.070879
  19 C :   -0.056604
  20 C :   -0.214171
  21 H :    0.038612
  22 C :   -0.030533
  23 H :    0.030113
  24 H :    0.034769
  25 C :   -0.046506
  26 H :    0.027039
  27 H :    0.025124
  28 C :   -0.072988
  29 H :    0.034726
  30 H :    0.016945
  31 H :    0.032547
  32 H :    0.034418
  33 H :    0.027751

  Mayer bond orders larger than 0.100000
B(  0-S ,  1-C ) :   1.1355 B(  0-S ,  4-C ) :   1.1843 B(  1-C ,  2-C ) :   1.6279
B(  1-C , 32-H ) :   0.9656 B(  2-C ,  3-C ) :   1.2173 B(  2-C ,  6-C ) :   1.0206
B(  3-C ,  4-C ) :   1.6114 B(  3-C ,  5-H ) :   0.9885 B(  4-C , 20-C ) :   0.9627
B(  6-C ,  7-H ) :   0.9386 B(  6-C ,  8-H ) :   0.9508 B(  6-C ,  9-C ) :   1.0648
B(  9-C , 10-H ) :   0.9476 B(  9-C , 11-H ) :   0.9579 B(  9-C , 12-C ) :   1.0778
B( 12-C , 13-H ) :   0.9778 B( 12-C , 14-H ) :   0.9739 B( 12-C , 15-H ) :   0.9708
B( 16-S , 17-C ) :   1.1491 B( 16-S , 20-C ) :   1.1455 B( 17-C , 18-C ) :   1.6367
B( 17-C , 33-H ) :   0.9654 B( 18-C , 19-C ) :   1.2259 B( 18-C , 21-H ) :   0.9771
B( 19-C , 20-C ) :   1.6635 B( 19-C , 22-C ) :   1.0355 B( 22-C , 23-H ) :   0.9310
B( 22-C , 24-H ) :   0.9285 B( 22-C , 25-C ) :   1.0575 B( 25-C , 26-H ) :   0.9539
B( 25-C , 27-H ) :   0.9537 B( 25-C , 28-C ) :   1.0971 B( 28-C , 29-H ) :   0.9579
B( 28-C , 30-H ) :   0.9601 B( 28-C , 31-H ) :   0.9718

Dispersion correction           -0.014840401
FINAL SINGLE POINT ENERGY     -1339.866994379727

DIPOLE MOMENT
-------------
                                X             Y             Z
Electronic contribution:    -31.48601       2.63638      -4.83929
Nuclear contribution   :     32.11772      -2.53663       4.92317
                        -----------------------------------------
Total Dipole Moment    :      0.63171       0.09975       0.08388
                        -----------------------------------------
Magnitude (a.u.)       :      0.64501
Magnitude (Debye)      :      1.63949

Rotational constants in cm-1:     0.018897     0.009281     0.007063
Rotational constants in MHz :   566.504630   278.243581   211.746340

                             ****ORCA TERMINATED NORMALLY****
TOTAL RUN TIME: 0 days 0 hours 0 minutes 22 seconds 332 msec
