                         Program Version 4.2.1 -  RELEASE  -
|  1> ! wB97X-D3 SP def2-SVP
|  2> %pal
|  3> nprocs 24
|  4> end
|  5>
|  6> * xyz 0 1
|  7> S 	 -101.055 	 40.4945 	 -87.5015
|  8> C 	 -102.301 	 39.371 	 -87.0187
|  9> C 	 -103.17 	 39.8993 	 -86.1089
| 10> C 	 -102.787 	 41.272 	 -85.7912
| 11> C 	 -101.732 	 41.7553 	 -86.5041
| 12> H 	 -103.253 	 41.925 	 -85.1136
| 13> C 	 -104.256 	 39.1844 	 -85.3231
| 14> H 	 -104.291 	 39.6447 	 -84.3225
| 15> H 	 -103.909 	 38.1579 	 -85.1474
| 16> C 	 -105.567 	 39.0366 	 -86.1482
| 17> H 	 -105.962 	 40.0162 	 -86.3162
| 18> H 	 -105.373 	 38.6006 	 -87.1093
| 19> C 	 -106.597 	 38.2843 	 -85.3635
| 20> H 	 -106.766 	 38.6827 	 -84.3679
| 21> H 	 -107.57 	 38.3039 	 -85.8047
| 22> H 	 -106.403 	 37.2189 	 -85.2738
| 23> S 	 -99.3287 	 42.8382 	 -85.8927
| 24> C 	 -99.2749 	 44.5514 	 -85.4859
| 25> C 	 -100.469 	 45.1862 	 -85.5612
| 26> C 	 -101.525 	 44.278 	 -85.9192
| 27> C 	 -101.019 	 42.9807 	 -86.0753
| 28> H 	 -100.48 	 46.2109 	 -85.3821
| 29> C 	 -102.96 	 44.713 	 -86.0791
| 30> H 	 -103.449 	 43.9986 	 -86.7791
| 31> H 	 -102.933 	 45.6875 	 -86.6151
| 32> C 	 -103.783 	 44.7526 	 -84.8318
| 33> H 	 -103.476 	 45.5533 	 -84.1849
| 34> H 	 -103.624 	 43.8669 	 -84.2249
| 35> C 	 -105.314 	 45.0295 	 -85.2313
| 36> H 	 -105.389 	 45.748 	 -86.0806
| 37> H 	 -105.84 	 45.3216 	 -84.3284
| 38> H 	 -105.735 	 44.0908 	 -85.638
| 39> H 	 -102.342 	 38.3403 	 -87.3055
| 40> H 	 -98.2924 	 45.0019 	 -85.2867
| 41> *
| 42>
| 43>                          ****END OF INPUT****

CARTESIAN COORDINATES (ANGSTROEM)
---------------------------------
  S    -101.055000   40.494500  -87.501500
  C    -102.301000   39.371000  -87.018700
  C    -103.170000   39.899300  -86.108900
  C    -102.787000   41.272000  -85.791200
  C    -101.732000   41.755300  -86.504100
  H    -103.253000   41.925000  -85.113600
  C    -104.256000   39.184400  -85.323100
  H    -104.291000   39.644700  -84.322500
  H    -103.909000   38.157900  -85.147400
  C    -105.567000   39.036600  -86.148200
  H    -105.962000   40.016200  -86.316200
  H    -105.373000   38.600600  -87.109300
  C    -106.597000   38.284300  -85.363500
  H    -106.766000   38.682700  -84.367900
  H    -107.570000   38.303900  -85.804700
  H    -106.403000   37.218900  -85.273800
  S    -99.328700   42.838200  -85.892700
  C    -99.274900   44.551400  -85.485900
  C    -100.469000   45.186200  -85.561200
  C    -101.525000   44.278000  -85.919200
  C    -101.019000   42.980700  -86.075300
  H    -100.480000   46.210900  -85.382100
  C    -102.960000   44.713000  -86.079100
  H    -103.449000   43.998600  -86.779100
  H    -102.933000   45.687500  -86.615100
  C    -103.783000   44.752600  -84.831800
  H    -103.476000   45.553300  -84.184900
  H    -103.624000   43.866900  -84.224900
  C    -105.314000   45.029500  -85.231300
  H    -105.389000   45.748000  -86.080600
  H    -105.840000   45.321600  -84.328400
  H    -105.735000   44.090800  -85.638000
  H    -102.342000   38.340300  -87.305500
  H    -98.292400   45.001900  -85.286700

 Total Charge           Charge          ....    0
 Multiplicity           Mult            ....    1
 Number of Electrons    NEL             ....  134
 Basis Dimension        Dim             ....  322

ORBITAL ENERGIES
----------------

  NO   OCC          E(Eh)            E(eV)
   0   2.0000     -88.965753     -2420.8812
   1   2.0000     -88.963766     -2420.8271
   2   2.0000     -10.323822      -280.9255
   3   2.0000     -10.323268      -280.9104
   4   2.0000     -10.312639      -280.6212
   5   2.0000     -10.310863      -280.5729
   6   2.0000     -10.301226      -280.3106
   7   2.0000     -10.299935      -280.2755
   8   2.0000     -10.295607      -280.1577
   9   2.0000     -10.291284      -280.0401
  10   2.0000     -10.288452      -279.9630
  11   2.0000     -10.287335      -279.9326
  12   2.0000     -10.287112      -279.9266
  13   2.0000     -10.286985      -279.9231
  14   2.0000     -10.284376      -279.8521
  15   2.0000     -10.272086      -279.5177
  16   2.0000      -8.080614      -219.8847
  17   2.0000      -8.079459      -219.8533
  18   2.0000      -6.039265      -164.3368
  19   2.0000      -6.037771      -164.2961
  20   2.0000      -6.035152      -164.2248
  21   2.0000      -6.034014      -164.1939
  22   2.0000      -6.031177      -164.1167
  23   2.0000      -6.030195      -164.0899
  24   2.0000      -1.009143       -27.4602
  25   2.0000      -0.985371       -26.8133
  26   2.0000      -0.913655       -24.8618
  27   2.0000      -0.910303       -24.7706
  28   2.0000      -0.872356       -23.7380
  29   2.0000      -0.850659       -23.1476
  30   2.0000      -0.846894       -23.0452
  31   2.0000      -0.816058       -22.2061
  32   2.0000      -0.779679       -21.2161
  33   2.0000      -0.768549       -20.9133
  34   2.0000      -0.707363       -19.2483
  35   2.0000      -0.705974       -19.2105
  36   2.0000      -0.691620       -18.8199
  37   2.0000      -0.666616       -18.1395
  38   2.0000      -0.642567       -17.4851
  39   2.0000      -0.618089       -16.8191
  40   2.0000      -0.597309       -16.2536
  41   2.0000      -0.572535       -15.5795
  42   2.0000      -0.567591       -15.4449
  43   2.0000      -0.556657       -15.1474
  44   2.0000      -0.528192       -14.3728
  45   2.0000      -0.523741       -14.2517
  46   2.0000      -0.521246       -14.1838
  47   2.0000      -0.510359       -13.8876
  48   2.0000      -0.503900       -13.7118
  49   2.0000      -0.494641       -13.4599
  50   2.0000      -0.489746       -13.3267
  51   2.0000      -0.479450       -13.0465
  52   2.0000      -0.470806       -12.8113
  53   2.0000      -0.464351       -12.6356
  54   2.0000      -0.459051       -12.4914
  55   2.0000      -0.451981       -12.2990
  56   2.0000      -0.450308       -12.2535
  57   2.0000      -0.447559       -12.1787
  58   2.0000      -0.434630       -11.8269
  59   2.0000      -0.423699       -11.5294
  60   2.0000      -0.421436       -11.4679
  61   2.0000      -0.418845       -11.3973
  62   2.0000      -0.414332       -11.2746
  63   2.0000      -0.352867        -9.6020
  64   2.0000      -0.331919        -9.0320
  65   2.0000      -0.326794        -8.8925
  66   2.0000      -0.290375        -7.9015
  67   0.0000       0.034730         0.9450
  68   0.0000       0.077502         2.1089
  69   0.0000       0.111147         3.0245
  70   0.0000       0.126248         3.4354
  71   0.0000       0.132397         3.6027

MULLIKEN ATOMIC CHARGES
-----------------------
   0 S :    0.100169
   1 C :   -0.117500
   2 C :   -0.064616
   3 C :    0.026675
   4 C :   -0.108806
   5 H :   -0.034890
   6 C :    0.043590
   7 H :    0.034807
   8 H :    0.020045
   9 C :   -0.036214
  10 H :    0.020200
  11 H :    0.028101
  12 C :   -0.025588
  13 H :    0.023085
  14 H :    0.021029
  15 H :    0.024121
  16 S :    0.106540
  17 C :   -0.113765
  18 C :    0.011501
  19 C :   -0.051495
  20 C :   -0.150992
  21 H :   -0.005285
  22 C :    0.035064
  23 H :    0.030728
  24 H :    0.032244
  25 C :   -0.058015
  26 H :    0.018122
  27 H :    0.033662
  28 C :   -0.059425
  29 H :    0.041062
  30 H :    0.044273
  31 H :    0.034766
  32 H :    0.038318
  33 H :    0.058491
Sum of atomic charges:    0.0000000

LOEWDIN ATOMIC CHARGES
----------------------
   0 S :    0.399502
   1 C :   -0.193441
   2 C :   -0.060845
   3 C :   -0.055623
   4 C :   -0.198074
   5 H :    0.017475
   6 C :   -0.030167
   7 H :    0.034691
   8 H :    0.029973
   9 C :   -0.031185
  10 H :    0.021979
  11 H :    0.024964
  12 C :   -0.067343
  13 H :    0.025556
  14 H :    0.023215
  15 H :    0.023289
  16 S :    0.412649
  17 C :   -0.180066
  18 C :   -0.061080
  19 C :   -0.059554
  20 C :   -0.202020
  21 H :    0.025157
  22 C :   -0.041418
  23 H :    0.033070
  24 H :    0.035634
  25 C :   -0.037439
  26 H :    0.019501
  27 H :    0.020731
  28 C :   -0.063515
  29 H :    0.030226
  30 H :    0.025283
  31 H :    0.025920
  32 H :    0.025415
  33 H :    0.027541

  Mayer bond orders larger than 0.100000
B(  0-S ,  1-C ) :   1.1295 B(  0-S ,  4-C ) :   1.1368 B(  1-C ,  2-C ) :   1.6355
B(  1-C , 32-H ) :   0.9656 B(  2-C ,  3-C ) :   1.2251 B(  2-C ,  6-C ) :   1.0173
B(  3-C ,  4-C ) :   1.5868 B(  3-C ,  5-H ) :   1.0007 B(  4-C , 20-C ) :   1.0226
B(  6-C ,  7-H ) :   0.9471 B(  6-C ,  8-H ) :   0.9434 B(  6-C ,  9-C ) :   1.0524
B(  9-C , 10-H ) :   0.9542 B(  9-C , 11-H ) :   0.9562 B(  9-C , 12-C ) :   1.0951
B( 12-C , 13-H ) :   0.9700 B( 12-C , 14-H ) :   0.9708 B( 12-C , 15-H ) :   0.9725
B( 16-S , 17-C ) :   1.1436 B( 16-S , 20-C ) :   1.1551 B( 17-C , 18-C ) :   1.6289
B( 17-C , 33-H ) :   0.9650 B( 18-C , 19-C ) :   1.2156 B( 18-C , 21-H ) :   1.0071
B( 19-C , 20-C ) :   1.6002 B( 19-C , 22-C ) :   1.0496 B( 22-C , 23-H ) :   0.9321
B( 22-C , 24-H ) :   0.9278 B( 22-C , 25-C ) :   1.0672 B( 25-C , 26-H ) :   0.9503
B( 25-C , 27-H ) :   0.9520 B( 25-C , 28-C ) :   1.0628 B( 28-C , 29-H ) :   0.9748
B( 28-C , 30-H ) :   0.9769 B( 28-C , 31-H ) :   0.9776

Dispersion correction           -0.014058786
FINAL SINGLE POINT ENERGY     -1339.887493453336

DIPOLE MOMENT
-------------
                                X             Y             Z
Electronic contribution:     31.07783       0.16547      -8.24006
Nuclear contribution   :    -31.62361      -0.07308       8.56865
                        -----------------------------------------
Total Dipole Moment    :     -0.54577       0.09239       0.32859
                        -----------------------------------------
Magnitude (a.u.)       :      0.64372
Magnitude (Debye)      :      1.63621

Rotational constants in cm-1:     0.018076     0.008990     0.006387
Rotational constants in MHz :   541.904244   269.526173   191.477863

                             ****ORCA TERMINATED NORMALLY****
TOTAL RUN TIME: 0 days 0 hours 0 minutes 21 seconds 861 msec
