                         Program Version 4.2.1 -  RELEASE  -
|  1> ! wB97X-D3 SP def2-SVP
|  2> %pal
|  3> nprocs 24
|  4> end
|  5>
|  6> * xyz 0 1
|  7> S 	 -129.072 	 73.2916 	 -42.4241
|  8> C 	 -130.306 	 74.3841 	 -43.0209
|  9> C 	 -129.972 	 74.8558 	 -44.2322
| 10> C 	 -128.717 	 74.3659 	 -44.7206
| 11> C 	 -128.187 	 73.3745 	 -43.901
| 12> H 	 -128.243 	 74.6942 	 -45.5889
| 13> C 	 -130.785 	 75.8638 	 -45.0133
| 14> H 	 -130.058 	 76.5083 	 -45.4477
| 15> H 	 -131.28 	 76.5615 	 -44.2193
| 16> C 	 -131.692 	 75.2369 	 -46.0822
| 17> H 	 -132.622 	 75.0107 	 -45.7342
| 18> H 	 -131.888 	 76.06 	 -46.7277
| 19> C 	 -131.196 	 74.1076 	 -47.0414
| 20> H 	 -130.169 	 74.236 	 -47.3518
| 21> H 	 -131.128 	 73.1616 	 -46.5905
| 22> H 	 -131.81 	 74.1145 	 -47.8947
| 23> S 	 -125.775 	 72.7185 	 -42.6945
| 24> C 	 -124.701 	 71.6768 	 -43.4145
| 25> C 	 -125.061 	 71.4131 	 -44.7494
| 26> C 	 -126.354 	 71.9566 	 -45.0259
| 27> C 	 -126.937 	 72.6399 	 -43.9796
| 28> H 	 -124.504 	 70.8386 	 -45.4622
| 29> C 	 -127.048 	 71.5475 	 -46.3161
| 30> H 	 -128.069 	 71.4256 	 -46.0876
| 31> H 	 -126.804 	 70.566 	 -46.7233
| 32> C 	 -126.96 	 72.513 	 -47.5111
| 33> H 	 -125.891 	 72.7181 	 -47.473
| 34> H 	 -127.387 	 73.47 	 -47.2601
| 35> C 	 -127.385 	 71.875 	 -48.8802
| 36> H 	 -128.448 	 71.6793 	 -49.1136
| 37> H 	 -126.92 	 70.8746 	 -49.031
| 38> H 	 -127.083 	 72.5305 	 -49.6789
| 39> H 	 -131.16 	 74.7317 	 -42.4882
| 40> H 	 -123.88 	 71.3469 	 -42.9258
| 41> *
| 42>
| 43>                          ****END OF INPUT****

CARTESIAN COORDINATES (ANGSTROEM)
---------------------------------
  S    -129.072000   73.291600  -42.424100
  C    -130.306000   74.384100  -43.020900
  C    -129.972000   74.855800  -44.232200
  C    -128.717000   74.365900  -44.720600
  C    -128.187000   73.374500  -43.901000
  H    -128.243000   74.694200  -45.588900
  C    -130.785000   75.863800  -45.013300
  H    -130.058000   76.508300  -45.447700
  H    -131.280000   76.561500  -44.219300
  C    -131.692000   75.236900  -46.082200
  H    -132.622000   75.010700  -45.734200
  H    -131.888000   76.060000  -46.727700
  C    -131.196000   74.107600  -47.041400
  H    -130.169000   74.236000  -47.351800
  H    -131.128000   73.161600  -46.590500
  H    -131.810000   74.114500  -47.894700
  S    -125.775000   72.718500  -42.694500
  C    -124.701000   71.676800  -43.414500
  C    -125.061000   71.413100  -44.749400
  C    -126.354000   71.956600  -45.025900
  C    -126.937000   72.639900  -43.979600
  H    -124.504000   70.838600  -45.462200
  C    -127.048000   71.547500  -46.316100
  H    -128.069000   71.425600  -46.087600
  H    -126.804000   70.566000  -46.723300
  C    -126.960000   72.513000  -47.511100
  H    -125.891000   72.718100  -47.473000
  H    -127.387000   73.470000  -47.260100
  C    -127.385000   71.875000  -48.880200
  H    -128.448000   71.679300  -49.113600
  H    -126.920000   70.874600  -49.031000
  H    -127.083000   72.530500  -49.678900
  H    -131.160000   74.731700  -42.488200
  H    -123.880000   71.346900  -42.925800

 Total Charge           Charge          ....    0
 Multiplicity           Mult            ....    1
 Number of Electrons    NEL             ....  134
 Basis Dimension        Dim             ....  322

ORBITAL ENERGIES
----------------

  NO   OCC          E(Eh)            E(eV)
   0   2.0000     -88.964805     -2420.8554
   1   2.0000     -88.962471     -2420.7919
   2   2.0000     -10.329248      -281.0731
   3   2.0000     -10.322776      -280.8970
   4   2.0000     -10.308822      -280.5173
   5   2.0000     -10.305858      -280.4367
   6   2.0000     -10.300354      -280.2869
   7   2.0000     -10.296718      -280.1879
   8   2.0000     -10.293794      -280.1084
   9   2.0000     -10.292767      -280.0804
  10   2.0000     -10.291670      -280.0506
  11   2.0000     -10.286875      -279.9201
  12   2.0000     -10.285519      -279.8832
  13   2.0000     -10.281076      -279.7623
  14   2.0000     -10.278980      -279.7053
  15   2.0000     -10.271469      -279.5009
  16   2.0000      -8.081606      -219.9117
  17   2.0000      -8.077907      -219.8110
  18   2.0000      -6.039879      -164.3535
  19   2.0000      -6.036374      -164.2581
  20   2.0000      -6.035573      -164.2363
  21   2.0000      -6.032739      -164.1592
  22   2.0000      -6.032337      -164.1482
  23   2.0000      -6.028634      -164.0475
  24   2.0000      -1.016009       -27.6470
  25   2.0000      -0.993174       -27.0256
  26   2.0000      -0.912221       -24.8228
  27   2.0000      -0.908250       -24.7147
  28   2.0000      -0.872218       -23.7343
  29   2.0000      -0.851535       -23.1715
  30   2.0000      -0.843583       -22.9551
  31   2.0000      -0.817307       -22.2401
  32   2.0000      -0.787604       -21.4318
  33   2.0000      -0.779194       -21.2030
  34   2.0000      -0.713591       -19.4178
  35   2.0000      -0.707593       -19.2546
  36   2.0000      -0.701625       -19.0922
  37   2.0000      -0.670291       -18.2395
  38   2.0000      -0.643549       -17.5118
  39   2.0000      -0.616887       -16.7864
  40   2.0000      -0.604261       -16.4428
  41   2.0000      -0.574111       -15.6223
  42   2.0000      -0.560787       -15.2598
  43   2.0000      -0.551185       -14.9985
  44   2.0000      -0.547823       -14.9070
  45   2.0000      -0.519515       -14.1367
  46   2.0000      -0.515807       -14.0358
  47   2.0000      -0.512153       -13.9364
  48   2.0000      -0.511486       -13.9183
  49   2.0000      -0.500092       -13.6082
  50   2.0000      -0.496915       -13.5217
  51   2.0000      -0.482646       -13.1335
  52   2.0000      -0.476245       -12.9593
  53   2.0000      -0.466180       -12.6854
  54   2.0000      -0.464916       -12.6510
  55   2.0000      -0.450758       -12.2658
  56   2.0000      -0.448015       -12.1911
  57   2.0000      -0.441046       -12.0015
  58   2.0000      -0.436489       -11.8775
  59   2.0000      -0.425711       -11.5842
  60   2.0000      -0.420505       -11.4425
  61   2.0000      -0.408886       -11.1264
  62   2.0000      -0.406905       -11.0725
  63   2.0000      -0.347728        -9.4622
  64   2.0000      -0.332069        -9.0361
  65   2.0000      -0.327943        -8.9238
  66   2.0000      -0.295064        -8.0291
  67   0.0000       0.029009         0.7894
  68   0.0000       0.077679         2.1138
  69   0.0000       0.116237         3.1630
  70   0.0000       0.123593         3.3631
  71   0.0000       0.129960         3.5364

MULLIKEN ATOMIC CHARGES
-----------------------
   0 S :    0.100459
   1 C :   -0.102746
   2 C :   -0.113962
   3 C :    0.059672
   4 C :   -0.153883
   5 H :   -0.014780
   6 C :    0.060763
   7 H :    0.013270
   8 H :    0.039180
   9 C :   -0.019451
  10 H :    0.005747
  11 H :    0.013285
  12 C :   -0.009445
  13 H :    0.008715
  14 H :    0.031972
  15 H :    0.029863
  16 S :    0.128328
  17 C :   -0.049923
  18 C :   -0.020141
  19 C :   -0.042708
  20 C :   -0.138249
  21 H :    0.012593
  22 C :    0.064174
  23 H :    0.011660
  24 H :    0.008865
  25 C :   -0.052958
  26 H :    0.017066
  27 H :    0.012202
  28 C :   -0.056443
  29 H :    0.037658
  30 H :    0.033084
  31 H :    0.034176
  32 H :    0.030904
  33 H :    0.021053
Sum of atomic charges:   -0.0000000

LOEWDIN ATOMIC CHARGES
----------------------
   0 S :    0.412952
   1 C :   -0.192220
   2 C :   -0.068802
   3 C :   -0.052345
   4 C :   -0.193331
   5 H :    0.016813
   6 C :   -0.032503
   7 H :    0.024651
   8 H :    0.043613
   9 C :   -0.029764
  10 H :    0.011848
  11 H :    0.024478
  12 C :   -0.052153
  13 H :    0.022799
  14 H :    0.021681
  15 H :    0.024580
  16 S :    0.457952
  17 C :   -0.191467
  18 C :   -0.066497
  19 C :   -0.056198
  20 C :   -0.216703
  21 H :    0.027937
  22 C :   -0.032239
  23 H :    0.021978
  24 H :    0.027143
  25 C :   -0.038244
  26 H :    0.024508
  27 H :    0.014802
  28 C :   -0.071554
  29 H :    0.028495
  30 H :    0.029729
  31 H :    0.026250
  32 H :    0.024972
  33 H :    0.006840

  Mayer bond orders larger than 0.100000
B(  0-S ,  1-C ) :   1.1233 B(  0-S ,  4-C ) :   1.1670 B(  1-C ,  2-C ) :   1.6390
B(  1-C , 32-H ) :   0.9720 B(  2-C ,  3-C ) :   1.2329 B(  2-C ,  6-C ) :   1.0173
B(  3-C ,  4-C ) :   1.5516 B(  3-C ,  5-H ) :   1.0041 B(  4-C , 20-C ) :   1.0303
B(  6-C ,  7-H ) :   0.9343 B(  6-C ,  8-H ) :   0.9462 B(  6-C ,  9-C ) :   1.0569
B(  9-C , 10-H ) :   0.9560 B(  9-C , 11-H ) :   0.9529 B(  9-C , 12-C ) :   1.0835
B( 12-C , 13-H ) :   0.9708 B( 12-C , 14-H ) :   0.9717 B( 12-C , 15-H ) :   0.9726
B( 16-S , 17-C ) :   1.2099 B( 16-S , 20-C ) :   1.1542 B( 17-C , 18-C ) :   1.5163
B( 17-C , 20-C ) :   0.1024 B( 17-C , 33-H ) :   0.9870 B( 18-C , 19-C ) :   1.2877
B( 18-C , 21-H ) :   1.0001 B( 19-C , 20-C ) :   1.5727 B( 19-C , 22-C ) :   1.0437
B( 22-C , 23-H ) :   0.9315 B( 22-C , 24-H ) :   0.9462 B( 22-C , 25-C ) :   1.0516
B( 25-C , 26-H ) :   0.9551 B( 25-C , 27-H ) :   0.9521 B( 25-C , 28-C ) :   1.0691
B( 28-C , 29-H ) :   0.9777 B( 28-C , 30-H ) :   0.9725 B( 28-C , 31-H ) :   0.9755

Dispersion correction           -0.015313406
FINAL SINGLE POINT ENERGY     -1339.860934899868

DIPOLE MOMENT
-------------
                                X             Y             Z
Electronic contribution:     11.34388      -2.42618      29.37349
Nuclear contribution   :    -11.46813       2.58441     -29.97589
                        -----------------------------------------
Total Dipole Moment    :     -0.12426       0.15823      -0.60240
                        -----------------------------------------
Magnitude (a.u.)       :      0.63510
Magnitude (Debye)      :      1.61430

Rotational constants in cm-1:     0.017112     0.010766     0.007010
Rotational constants in MHz :   512.991514   322.768713   210.162181

                             ****ORCA TERMINATED NORMALLY****
TOTAL RUN TIME: 0 days 0 hours 0 minutes 22 seconds 501 msec
