                         Program Version 4.2.1 -  RELEASE  -
|  1> ! wB97X-D3 SP def2-SVP
|  2> %pal
|  3> nprocs 24
|  4> end
|  5>
|  6> * xyz 0 1
|  7> S 	 -38.4295 	 -47.2907 	 -80.7852
|  8> C 	 -38.04 	 -48.2342 	 -82.2271
|  9> C 	 -38.8865 	 -49.262 	 -82.3703
| 10> C 	 -39.9072 	 -49.3424 	 -81.2617
| 11> C 	 -39.7391 	 -48.3326 	 -80.3713
| 12> H 	 -40.74 	 -49.9887 	 -81.0138
| 13> C 	 -38.8101 	 -50.2804 	 -83.4914
| 14> H 	 -39.0589 	 -51.2083 	 -83.0682
| 15> H 	 -37.8115 	 -50.4145 	 -83.8144
| 16> C 	 -39.5751 	 -49.9675 	 -84.7727
| 17> H 	 -40.6048 	 -49.9896 	 -84.6593
| 18> H 	 -39.2754 	 -48.9315 	 -85.0313
| 19> C 	 -39.2262 	 -50.9551 	 -85.873
| 20> H 	 -39.8961 	 -51.0094 	 -86.7208
| 21> H 	 -38.2231 	 -50.7725 	 -86.239
| 22> H 	 -39.1395 	 -51.9586 	 -85.5936
| 23> S 	 -39.8984 	 -48.1581 	 -77.5732
| 24> C 	 -41.278 	 -47.3084 	 -76.9736
| 25> C 	 -42.3342 	 -47.3969 	 -77.8434
| 26> C 	 -41.9645 	 -47.854 	 -79.1251
| 27> C 	 -40.6107 	 -48.0292 	 -79.2297
| 28> H 	 -43.3285 	 -47.068 	 -77.4488
| 29> C 	 -42.996 	 -48.0395 	 -80.2113
| 30> H 	 -43.1103 	 -49.0644 	 -80.5341
| 31> H 	 -42.5737 	 -47.5519 	 -81.0589
| 32> C 	 -44.3434 	 -47.3574 	 -80.0693
| 33> H 	 -44.6988 	 -47.0272 	 -81.043
| 34> H 	 -44.3725 	 -46.358 	 -79.5904
| 35> C 	 -45.2556 	 -48.3756 	 -79.2891
| 36> H 	 -46.262 	 -48.0267 	 -79.096
| 37> H 	 -44.9178 	 -48.545 	 -78.2714
| 38> H 	 -45.3669 	 -49.3928 	 -79.7688
| 39> H 	 -37.2881 	 -47.9723 	 -82.9015
| 40> H 	 -41.4741 	 -47.0596 	 -75.9613
| 41> *
| 42>
| 43>                          ****END OF INPUT****

CARTESIAN COORDINATES (ANGSTROEM)
---------------------------------
  S    -38.429500  -47.290700  -80.785200
  C    -38.040000  -48.234200  -82.227100
  C    -38.886500  -49.262000  -82.370300
  C    -39.907200  -49.342400  -81.261700
  C    -39.739100  -48.332600  -80.371300
  H    -40.740000  -49.988700  -81.013800
  C    -38.810100  -50.280400  -83.491400
  H    -39.058900  -51.208300  -83.068200
  H    -37.811500  -50.414500  -83.814400
  C    -39.575100  -49.967500  -84.772700
  H    -40.604800  -49.989600  -84.659300
  H    -39.275400  -48.931500  -85.031300
  C    -39.226200  -50.955100  -85.873000
  H    -39.896100  -51.009400  -86.720800
  H    -38.223100  -50.772500  -86.239000
  H    -39.139500  -51.958600  -85.593600
  S    -39.898400  -48.158100  -77.573200
  C    -41.278000  -47.308400  -76.973600
  C    -42.334200  -47.396900  -77.843400
  C    -41.964500  -47.854000  -79.125100
  C    -40.610700  -48.029200  -79.229700
  H    -43.328500  -47.068000  -77.448800
  C    -42.996000  -48.039500  -80.211300
  H    -43.110300  -49.064400  -80.534100
  H    -42.573700  -47.551900  -81.058900
  C    -44.343400  -47.357400  -80.069300
  H    -44.698800  -47.027200  -81.043000
  H    -44.372500  -46.358000  -79.590400
  C    -45.255600  -48.375600  -79.289100
  H    -46.262000  -48.026700  -79.096000
  H    -44.917800  -48.545000  -78.271400
  H    -45.366900  -49.392800  -79.768800
  H    -37.288100  -47.972300  -82.901500
  H    -41.474100  -47.059600  -75.961300

 Total Charge           Charge          ....    0
 Multiplicity           Mult            ....    1
 Number of Electrons    NEL             ....  134
 Basis Dimension        Dim             ....  322

ORBITAL ENERGIES
----------------

  NO   OCC          E(Eh)            E(eV)
   0   2.0000     -88.961303     -2420.7601
   1   2.0000     -88.959127     -2420.7009
   2   2.0000     -10.324817      -280.9526
   3   2.0000     -10.323321      -280.9118
   4   2.0000     -10.308836      -280.5177
   5   2.0000     -10.308614      -280.5117
   6   2.0000     -10.305497      -280.4268
   7   2.0000     -10.303297      -280.3670
   8   2.0000     -10.296806      -280.1903
   9   2.0000     -10.293513      -280.1007
  10   2.0000     -10.290631      -280.0223
  11   2.0000     -10.287082      -279.9257
  12   2.0000     -10.282838      -279.8102
  13   2.0000     -10.282631      -279.8046
  14   2.0000     -10.282421      -279.7989
  15   2.0000     -10.271065      -279.4899
  16   2.0000      -8.075927      -219.7571
  17   2.0000      -8.074601      -219.7211
  18   2.0000      -6.034422      -164.2050
  19   2.0000      -6.033244      -164.1729
  20   2.0000      -6.030908      -164.1093
  21   2.0000      -6.029018      -164.0579
  22   2.0000      -6.026247      -163.9825
  23   2.0000      -6.025139      -163.9524
  24   2.0000      -1.007088       -27.4042
  25   2.0000      -0.985944       -26.8289
  26   2.0000      -0.917247       -24.9596
  27   2.0000      -0.912405       -24.8278
  28   2.0000      -0.873621       -23.7724
  29   2.0000      -0.847621       -23.0649
  30   2.0000      -0.840452       -22.8699
  31   2.0000      -0.816789       -22.2260
  32   2.0000      -0.786407       -21.3992
  33   2.0000      -0.777720       -21.1628
  34   2.0000      -0.713725       -19.4214
  35   2.0000      -0.709791       -19.3144
  36   2.0000      -0.699650       -19.0384
  37   2.0000      -0.655190       -17.8286
  38   2.0000      -0.650831       -17.7100
  39   2.0000      -0.612647       -16.6710
  40   2.0000      -0.601768       -16.3749
  41   2.0000      -0.572713       -15.5843
  42   2.0000      -0.567444       -15.4409
  43   2.0000      -0.556677       -15.1480
  44   2.0000      -0.527095       -14.3430
  45   2.0000      -0.521047       -14.1784
  46   2.0000      -0.518063       -14.0972
  47   2.0000      -0.517181       -14.0732
  48   2.0000      -0.506459       -13.7814
  49   2.0000      -0.499702       -13.5976
  50   2.0000      -0.495511       -13.4836
  51   2.0000      -0.476671       -12.9709
  52   2.0000      -0.472907       -12.8684
  53   2.0000      -0.466124       -12.6839
  54   2.0000      -0.459840       -12.5129
  55   2.0000      -0.456274       -12.4158
  56   2.0000      -0.445844       -12.1320
  57   2.0000      -0.438554       -11.9337
  58   2.0000      -0.436269       -11.8715
  59   2.0000      -0.421817       -11.4782
  60   2.0000      -0.418732       -11.3943
  61   2.0000      -0.415970       -11.3191
  62   2.0000      -0.413721       -11.2579
  63   2.0000      -0.340081        -9.2541
  64   2.0000      -0.330291        -8.9877
  65   2.0000      -0.321862        -8.7583
  66   2.0000      -0.302005        -8.2180
  67   0.0000       0.031334         0.8526
  68   0.0000       0.070735         1.9248
  69   0.0000       0.102882         2.7996
  70   0.0000       0.125100         3.4042
  71   0.0000       0.129660         3.5282

MULLIKEN ATOMIC CHARGES
-----------------------
   0 S :    0.104137
   1 C :   -0.093375
   2 C :   -0.083817
   3 C :    0.038740
   4 C :   -0.163664
   5 H :    0.009924
   6 C :    0.092739
   7 H :    0.006556
   8 H :    0.001174
   9 C :   -0.022688
  10 H :    0.012594
  11 H :    0.026568
  12 C :   -0.028397
  13 H :    0.030584
  14 H :    0.017944
  15 H :    0.007927
  16 S :    0.100834
  17 C :   -0.051008
  18 C :   -0.092348
  19 C :    0.026907
  20 C :   -0.200102
  21 H :    0.036865
  22 C :    0.087365
  23 H :    0.035174
  24 H :    0.023053
  25 C :   -0.065996
  26 H :    0.025980
  27 H :    0.031247
  28 C :   -0.069217
  29 H :    0.022469
  30 H :    0.026401
  31 H :    0.040973
  32 H :    0.026448
  33 H :    0.038009
Sum of atomic charges:   -0.0000000

LOEWDIN ATOMIC CHARGES
----------------------
   0 S :    0.398939
   1 C :   -0.176292
   2 C :   -0.053377
   3 C :   -0.064330
   4 C :   -0.203214
   5 H :    0.034022
   6 C :   -0.026348
   7 H :    0.022896
   8 H :    0.025046
   9 C :   -0.028069
  10 H :    0.013097
  11 H :    0.028434
  12 C :   -0.065098
  13 H :    0.026831
  14 H :    0.024694
  15 H :    0.018138
  16 S :    0.384354
  17 C :   -0.181244
  18 C :   -0.081145
  19 C :   -0.046415
  20 C :   -0.183485
  21 H :    0.039319
  22 C :   -0.032401
  23 H :    0.032867
  24 H :    0.035647
  25 C :   -0.041677
  26 H :    0.026391
  27 H :    0.030809
  28 C :   -0.073727
  29 H :    0.019744
  30 H :    0.022925
  31 H :    0.031155
  32 H :    0.019733
  33 H :    0.021784

  Mayer bond orders larger than 0.100000
B(  0-S ,  1-C ) :   1.1056 B(  0-S ,  4-C ) :   1.1446 B(  1-C ,  2-C ) :   1.6787
B(  1-C , 32-H ) :   0.9798 B(  2-C ,  3-C ) :   1.1432 B(  2-C ,  6-C ) :   1.0264
B(  3-C ,  4-C ) :   1.6416 B(  3-C ,  5-H ) :   0.9970 B(  4-C , 20-C ) :   1.0226
B(  6-C ,  7-H ) :   0.9317 B(  6-C ,  8-H ) :   0.9437 B(  6-C ,  9-C ) :   1.0605
B(  9-C , 10-H ) :   0.9568 B(  9-C , 11-H ) :   0.9570 B(  9-C , 12-C ) :   1.0797
B( 12-C , 13-H ) :   0.9749 B( 12-C , 14-H ) :   0.9715 B( 12-C , 15-H ) :   0.9710
B( 16-S , 17-C ) :   1.1474 B( 16-S , 20-C ) :   1.1319 B( 17-C , 18-C ) :   1.6330
B( 17-C , 20-C ) :   0.1015 B( 17-C , 33-H ) :   0.9630 B( 18-C , 19-C ) :   1.2244
B( 18-C , 21-H ) :   0.9767 B( 19-C , 20-C ) :   1.6138 B( 19-C , 22-C ) :   1.0322
B( 22-C , 23-H ) :   0.9288 B( 22-C , 24-H ) :   0.9186 B( 22-C , 25-C ) :   1.0785
B( 25-C , 26-H ) :   0.9585 B( 25-C , 27-H ) :   0.9527 B( 25-C , 28-C ) :   1.0567
B( 28-C , 29-H ) :   0.9740 B( 28-C , 30-H ) :   0.9761 B( 28-C , 31-H ) :   0.9769

Dispersion correction           -0.013813634
FINAL SINGLE POINT ENERGY     -1339.850548733919

DIPOLE MOMENT
-------------
                                X             Y             Z
Electronic contribution:     17.12120       9.82850      20.24229
Nuclear contribution   :    -17.68025     -10.11543     -20.69546
                        -----------------------------------------
Total Dipole Moment    :     -0.55905      -0.28693      -0.45317
                        -----------------------------------------
Magnitude (a.u.)       :      0.77474
Magnitude (Debye)      :      1.96924

Rotational constants in cm-1:     0.019467     0.007749     0.005985
Rotational constants in MHz :   583.608154   232.295191   179.439477

                             ****ORCA TERMINATED NORMALLY****
TOTAL RUN TIME: 0 days 0 hours 0 minutes 21 seconds 244 msec
