                         Program Version 4.2.1 -  RELEASE  -
|  1> ! wB97X-D3 SP def2-SVP
|  2> %pal
|  3> nprocs 24
|  4> end
|  5>
|  6> * xyz 0 1
|  7> S 	 -86.6681 	 2.16188 	 -111.746
|  8> C 	 -87.1693 	 3.40384 	 -110.627
|  9> C 	 -87.4229 	 4.61763 	 -111.211
| 10> C 	 -87.2881 	 4.55369 	 -112.618
| 11> C 	 -86.8524 	 3.31075 	 -113.093
| 12> H 	 -87.3936 	 5.28073 	 -113.38
| 13> C 	 -87.8227 	 5.88721 	 -110.489
| 14> H 	 -87.7345 	 6.70708 	 -111.238
| 15> H 	 -87.0407 	 6.27268 	 -109.858
| 16> C 	 -89.0082 	 5.8781 	 -109.549
| 17> H 	 -89.3366 	 6.94178 	 -109.481
| 18> H 	 -89.8834 	 5.38079 	 -109.954
| 19> C 	 -88.8613 	 5.27155 	 -108.117
| 20> H 	 -87.9879 	 5.55931 	 -107.592
| 21> H 	 -89.7088 	 5.50092 	 -107.467
| 22> H 	 -88.739 	 4.21005 	 -108.187
| 23> S 	 -88.1193 	 2.66491 	 -115.496
| 24> C 	 -87.242 	 2.49081 	 -116.961
| 25> C 	 -85.9602 	 2.86033 	 -116.778
| 26> C 	 -85.6003 	 3.09935 	 -115.391
| 27> C 	 -86.6794 	 2.99611 	 -114.541
| 28> H 	 -85.3109 	 2.84728 	 -117.658
| 29> C 	 -84.1724 	 3.49687 	 -114.992
| 30> H 	 -83.432 	 2.8825 	 -115.564
| 31> H 	 -83.9461 	 3.18403 	 -113.946
| 32> C 	 -83.8693 	 5.06778 	 -115.144
| 33> H 	 -83.1875 	 5.33102 	 -114.396
| 34> H 	 -84.7765 	 5.56181 	 -114.829
| 35> C 	 -83.5647 	 5.69667 	 -116.517
| 36> H 	 -82.5831 	 5.35811 	 -116.894
| 37> H 	 -83.4935 	 6.82363 	 -116.445
| 38> H 	 -84.2358 	 5.54237 	 -117.347
| 39> H 	 -87.1936 	 3.33136 	 -109.583
| 40> H 	 -87.6846 	 2.219 	 -117.909
| 41> *
| 42>
| 43>                          ****END OF INPUT****

CARTESIAN COORDINATES (ANGSTROEM)
---------------------------------
  S    -86.668100    2.161880  -111.746000
  C    -87.169300    3.403840  -110.627000
  C    -87.422900    4.617630  -111.211000
  C    -87.288100    4.553690  -112.618000
  C    -86.852400    3.310750  -113.093000
  H    -87.393600    5.280730  -113.380000
  C    -87.822700    5.887210  -110.489000
  H    -87.734500    6.707080  -111.238000
  H    -87.040700    6.272680  -109.858000
  C    -89.008200    5.878100  -109.549000
  H    -89.336600    6.941780  -109.481000
  H    -89.883400    5.380790  -109.954000
  C    -88.861300    5.271550  -108.117000
  H    -87.987900    5.559310  -107.592000
  H    -89.708800    5.500920  -107.467000
  H    -88.739000    4.210050  -108.187000
  S    -88.119300    2.664910  -115.496000
  C    -87.242000    2.490810  -116.961000
  C    -85.960200    2.860330  -116.778000
  C    -85.600300    3.099350  -115.391000
  C    -86.679400    2.996110  -114.541000
  H    -85.310900    2.847280  -117.658000
  C    -84.172400    3.496870  -114.992000
  H    -83.432000    2.882500  -115.564000
  H    -83.946100    3.184030  -113.946000
  C    -83.869300    5.067780  -115.144000
  H    -83.187500    5.331020  -114.396000
  H    -84.776500    5.561810  -114.829000
  C    -83.564700    5.696670  -116.517000
  H    -82.583100    5.358110  -116.894000
  H    -83.493500    6.823630  -116.445000
  H    -84.235800    5.542370  -117.347000
  H    -87.193600    3.331360  -109.583000
  H    -87.684600    2.219000  -117.909000

 Total Charge           Charge          ....    0
 Multiplicity           Mult            ....    1
 Number of Electrons    NEL             ....  134
 Basis Dimension        Dim             ....  322

ORBITAL ENERGIES
----------------

  NO   OCC          E(Eh)            E(eV)
   0   2.0000     -88.970528     -2421.0111
   1   2.0000     -88.958778     -2420.6914
   2   2.0000     -10.332571      -281.1635
   3   2.0000     -10.326882      -281.0088
   4   2.0000     -10.311852      -280.5998
   5   2.0000     -10.309265      -280.5294
   6   2.0000     -10.306636      -280.4578
   7   2.0000     -10.300594      -280.2934
   8   2.0000     -10.299218      -280.2560
   9   2.0000     -10.293772      -280.1078
  10   2.0000     -10.292766      -280.0804
  11   2.0000     -10.291344      -280.0417
  12   2.0000     -10.290997      -280.0323
  13   2.0000     -10.285637      -279.8864
  14   2.0000     -10.282800      -279.8092
  15   2.0000     -10.278610      -279.6952
  16   2.0000      -8.084406      -219.9879
  17   2.0000      -8.074418      -219.7161
  18   2.0000      -6.042925      -164.4364
  19   2.0000      -6.039006      -164.3297
  20   2.0000      -6.035236      -164.2271
  21   2.0000      -6.032942      -164.1647
  22   2.0000      -6.028763      -164.0510
  23   2.0000      -6.025122      -163.9519
  24   2.0000      -1.004581       -27.3360
  25   2.0000      -0.986254       -26.8373
  26   2.0000      -0.910583       -24.7782
  27   2.0000      -0.895382       -24.3646
  28   2.0000      -0.867548       -23.6072
  29   2.0000      -0.851443       -23.1689
  30   2.0000      -0.843113       -22.9423
  31   2.0000      -0.815040       -22.1784
  32   2.0000      -0.789687       -21.4885
  33   2.0000      -0.774843       -21.0845
  34   2.0000      -0.708083       -19.2679
  35   2.0000      -0.706143       -19.2151
  36   2.0000      -0.694123       -18.8881
  37   2.0000      -0.656496       -17.8642
  38   2.0000      -0.647686       -17.6244
  39   2.0000      -0.615363       -16.7449
  40   2.0000      -0.594102       -16.1663
  41   2.0000      -0.578537       -15.7428
  42   2.0000      -0.545877       -14.8541
  43   2.0000      -0.541095       -14.7239
  44   2.0000      -0.533383       -14.5141
  45   2.0000      -0.531165       -14.4537
  46   2.0000      -0.516187       -14.0462
  47   2.0000      -0.507780       -13.8174
  48   2.0000      -0.505642       -13.7592
  49   2.0000      -0.496127       -13.5003
  50   2.0000      -0.487283       -13.2596
  51   2.0000      -0.483075       -13.1451
  52   2.0000      -0.478389       -13.0176
  53   2.0000      -0.473274       -12.8784
  54   2.0000      -0.462245       -12.5783
  55   2.0000      -0.449729       -12.2378
  56   2.0000      -0.441762       -12.0209
  57   2.0000      -0.435266       -11.8442
  58   2.0000      -0.432309       -11.7637
  59   2.0000      -0.420831       -11.4514
  60   2.0000      -0.419201       -11.4071
  61   2.0000      -0.413721       -11.2579
  62   2.0000      -0.410089       -11.1591
  63   2.0000      -0.337129        -9.1738
  64   2.0000      -0.328197        -8.9307
  65   2.0000      -0.323274        -8.7967
  66   2.0000      -0.311648        -8.4804
  67   0.0000       0.045334         1.2336
  68   0.0000       0.054792         1.4910
  69   0.0000       0.115279         3.1369
  70   0.0000       0.125197         3.4068
  71   0.0000       0.130117         3.5407

MULLIKEN ATOMIC CHARGES
-----------------------
   0 S :    0.126843
   1 C :   -0.099768
   2 C :   -0.054372
   3 C :    0.042998
   4 C :   -0.182240
   5 H :    0.001536
   6 C :    0.082371
   7 H :    0.019298
   8 H :    0.020360
   9 C :   -0.073030
  10 H :    0.032445
  11 H :    0.031161
  12 C :   -0.045417
  13 H :    0.014706
  14 H :    0.043867
  15 H :    0.026347
  16 S :    0.102007
  17 C :   -0.087308
  18 C :   -0.037652
  19 C :   -0.024518
  20 C :   -0.184831
  21 H :    0.023261
  22 C :    0.044815
  23 H :    0.030745
  24 H :    0.029926
  25 C :   -0.024837
  26 H :    0.020118
  27 H :    0.016754
  28 C :   -0.067550
  29 H :    0.025120
  30 H :    0.038897
  31 H :    0.032557
  32 H :    0.018369
  33 H :    0.057022
Sum of atomic charges:    0.0000000

LOEWDIN ATOMIC CHARGES
----------------------
   0 S :    0.404574
   1 C :   -0.187238
   2 C :   -0.064607
   3 C :   -0.049845
   4 C :   -0.192564
   5 H :    0.026624
   6 C :   -0.042934
   7 H :    0.038262
   8 H :    0.034293
   9 C :   -0.041086
  10 H :    0.031903
  11 H :    0.024156
  12 C :   -0.064183
  13 H :    0.016678
  14 H :    0.033637
  15 H :    0.020188
  16 S :    0.408897
  17 C :   -0.188342
  18 C :   -0.080692
  19 C :   -0.054427
  20 C :   -0.203305
  21 H :    0.033351
  22 C :   -0.033157
  23 H :    0.031141
  24 H :    0.035134
  25 C :   -0.034519
  26 H :    0.019957
  27 H :    0.024497
  28 C :   -0.073165
  29 H :    0.022024
  30 H :    0.035303
  31 H :    0.022273
  32 H :    0.015047
  33 H :    0.032122

  Mayer bond orders larger than 0.100000
B(  0-S ,  1-C ) :   1.1469 B(  0-S ,  4-C ) :   1.1432 B(  1-C ,  2-C ) :   1.6159
B(  1-C , 32-H ) :   0.9672 B(  2-C ,  3-C ) :   1.2340 B(  2-C ,  6-C ) :   1.0195
B(  3-C ,  4-C ) :   1.5938 B(  3-C ,  5-H ) :   0.9969 B(  4-C , 20-C ) :   1.0075
B(  6-C ,  7-H ) :   0.9380 B(  6-C ,  8-H ) :   0.9264 B(  6-C ,  9-C ) :   1.0594
B(  9-C , 10-H ) :   0.9534 B(  9-C , 11-H ) :   0.9611 B(  9-C , 12-C ) :   1.0719
B( 12-C , 13-H ) :   0.9761 B( 12-C , 14-H ) :   0.9721 B( 12-C , 15-H ) :   0.9727
B( 16-S , 17-C ) :   1.1587 B( 16-S , 20-C ) :   1.1405 B( 17-C , 18-C ) :   1.6260
B( 17-C , 33-H ) :   0.9674 B( 18-C , 19-C ) :   1.2203 B( 18-C , 21-H ) :   0.9894
B( 19-C , 20-C ) :   1.6248 B( 19-C , 22-C ) :   1.0497 B( 22-C , 23-H ) :   0.9446
B( 22-C , 24-H ) :   0.9357 B( 22-C , 25-C ) :   1.0486 B( 25-C , 26-H ) :   0.9585
B( 25-C , 27-H ) :   0.9559 B( 25-C , 28-C ) :   1.0727 B( 28-C , 29-H ) :   0.9765
B( 28-C , 30-H ) :   0.9724 B( 28-C , 31-H ) :   0.9755

Dispersion correction           -0.014510719
FINAL SINGLE POINT ENERGY     -1339.874208050807

DIPOLE MOMENT
-------------
                                X             Y             Z
Electronic contribution:     -6.98550     -18.97838      -7.88911
Nuclear contribution   :      7.21730      19.54565       7.94096
                        -----------------------------------------
Total Dipole Moment    :      0.23180       0.56726       0.05185
                        -----------------------------------------
Magnitude (a.u.)       :      0.61499
Magnitude (Debye)      :      1.56317

Rotational constants in cm-1:     0.021981     0.007223     0.006446
Rotational constants in MHz :   658.984455   216.527514   193.246399

                             ****ORCA TERMINATED NORMALLY****
TOTAL RUN TIME: 0 days 0 hours 0 minutes 21 seconds 187 msec
