                         Program Version 4.2.1 -  RELEASE  -
|  1> ! wB97X-D3 SP def2-SVP
|  2> %pal
|  3> nprocs 24
|  4> end
|  5>
|  6> * xyz 0 1
|  7> S 	 -42.9356 	 -52.1571 	 -71.7731
|  8> C 	 -41.377 	 -51.8852 	 -71.0309
|  9> C 	 -40.545 	 -52.9795 	 -71.2836
| 10> C 	 -41.2379 	 -54.0682 	 -71.8898
| 11> C 	 -42.6028 	 -53.8806 	 -72.012
| 12> H 	 -40.8495 	 -54.9896 	 -72.2591
| 13> C 	 -39.013 	 -53.0274 	 -71.2975
| 14> H 	 -38.5891 	 -52.229 	 -70.6604
| 15> H 	 -38.5645 	 -52.9096 	 -72.282
| 16> C 	 -38.4078 	 -54.3465 	 -70.802
| 17> H 	 -38.6249 	 -55.2304 	 -71.5126
| 18> H 	 -37.3837 	 -54.003 	 -70.9276
| 19> C 	 -38.7734 	 -54.738 	 -69.3084
| 20> H 	 -39.8183 	 -54.9267 	 -69.0999
| 21> H 	 -38.2557 	 -55.6245 	 -69.0884
| 22> H 	 -38.4572 	 -53.9011 	 -68.6471
| 23> S 	 -44.3915 	 -54.0983 	 -74.0645
| 24> C 	 -45.1051 	 -55.56 	 -74.4234
| 25> C 	 -44.6485 	 -56.5453 	 -73.6171
| 26> C 	 -43.7058 	 -56.1286 	 -72.5947
| 27> C 	 -43.5733 	 -54.7609 	 -72.6279
| 28> H 	 -44.8812 	 -57.5639 	 -73.8126
| 29> C 	 -42.9789 	 -57.0677 	 -71.6259
| 30> H 	 -43.6976 	 -57.6561 	 -71.1057
| 31> H 	 -42.3625 	 -56.5067 	 -70.934
| 32> C 	 -42.1352 	 -57.9941 	 -72.4333
| 33> H 	 -41.4883 	 -57.5151 	 -73.2204
| 34> H 	 -42.7098 	 -58.7376 	 -72.9558
| 35> C 	 -41.1333 	 -58.7782 	 -71.502
| 36> H 	 -40.9963 	 -59.8112 	 -71.8195
| 37> H 	 -41.6483 	 -58.7802 	 -70.5466
| 38> H 	 -40.167 	 -58.2414 	 -71.405
| 39> H 	 -40.9918 	 -50.9514 	 -70.6537
| 40> H 	 -45.7018 	 -55.7727 	 -75.2372
| 41> *
| 42>
| 43>                          ****END OF INPUT****

CARTESIAN COORDINATES (ANGSTROEM)
---------------------------------
  S    -42.935600  -52.157100  -71.773100
  C    -41.377000  -51.885200  -71.030900
  C    -40.545000  -52.979500  -71.283600
  C    -41.237900  -54.068200  -71.889800
  C    -42.602800  -53.880600  -72.012000
  H    -40.849500  -54.989600  -72.259100
  C    -39.013000  -53.027400  -71.297500
  H    -38.589100  -52.229000  -70.660400
  H    -38.564500  -52.909600  -72.282000
  C    -38.407800  -54.346500  -70.802000
  H    -38.624900  -55.230400  -71.512600
  H    -37.383700  -54.003000  -70.927600
  C    -38.773400  -54.738000  -69.308400
  H    -39.818300  -54.926700  -69.099900
  H    -38.255700  -55.624500  -69.088400
  H    -38.457200  -53.901100  -68.647100
  S    -44.391500  -54.098300  -74.064500
  C    -45.105100  -55.560000  -74.423400
  C    -44.648500  -56.545300  -73.617100
  C    -43.705800  -56.128600  -72.594700
  C    -43.573300  -54.760900  -72.627900
  H    -44.881200  -57.563900  -73.812600
  C    -42.978900  -57.067700  -71.625900
  H    -43.697600  -57.656100  -71.105700
  H    -42.362500  -56.506700  -70.934000
  C    -42.135200  -57.994100  -72.433300
  H    -41.488300  -57.515100  -73.220400
  H    -42.709800  -58.737600  -72.955800
  C    -41.133300  -58.778200  -71.502000
  H    -40.996300  -59.811200  -71.819500
  H    -41.648300  -58.780200  -70.546600
  H    -40.167000  -58.241400  -71.405000
  H    -40.991800  -50.951400  -70.653700
  H    -45.701800  -55.772700  -75.237200

 Total Charge           Charge          ....    0
 Multiplicity           Mult            ....    1
 Number of Electrons    NEL             ....  134
 Basis Dimension        Dim             ....  322

ORBITAL ENERGIES
----------------

  NO   OCC          E(Eh)            E(eV)
   0   2.0000     -88.964320     -2420.8422
   1   2.0000     -88.960848     -2420.7478
   2   2.0000     -10.328677      -281.0576
   3   2.0000     -10.324099      -280.9330
   4   2.0000     -10.315958      -280.7115
   5   2.0000     -10.305543      -280.4281
   6   2.0000     -10.305283      -280.4210
   7   2.0000     -10.301392      -280.3151
   8   2.0000     -10.295529      -280.1556
   9   2.0000     -10.295085      -280.1435
  10   2.0000     -10.292653      -280.0773
  11   2.0000     -10.290452      -280.0174
  12   2.0000     -10.288422      -279.9622
  13   2.0000     -10.287922      -279.9486
  14   2.0000     -10.281267      -279.7675
  15   2.0000     -10.277769      -279.6723
  16   2.0000      -8.078719      -219.8331
  17   2.0000      -8.077221      -219.7924
  18   2.0000      -6.037289      -164.2830
  19   2.0000      -6.035671      -164.2389
  20   2.0000      -6.033458      -164.1787
  21   2.0000      -6.031545      -164.1267
  22   2.0000      -6.029240      -164.0640
  23   2.0000      -6.027870      -164.0267
  24   2.0000      -1.011481       -27.5238
  25   2.0000      -0.986658       -26.8483
  26   2.0000      -0.920227       -25.0407
  27   2.0000      -0.908563       -24.7232
  28   2.0000      -0.872890       -23.7525
  29   2.0000      -0.849420       -23.1139
  30   2.0000      -0.838207       -22.8088
  31   2.0000      -0.813402       -22.1338
  32   2.0000      -0.786577       -21.4038
  33   2.0000      -0.778517       -21.1845
  34   2.0000      -0.706804       -19.2331
  35   2.0000      -0.700924       -19.0731
  36   2.0000      -0.690519       -18.7900
  37   2.0000      -0.659394       -17.9430
  38   2.0000      -0.639249       -17.3948
  39   2.0000      -0.624471       -16.9927
  40   2.0000      -0.605695       -16.4818
  41   2.0000      -0.575293       -15.6545
  42   2.0000      -0.565003       -15.3745
  43   2.0000      -0.552599       -15.0370
  44   2.0000      -0.529786       -14.4162
  45   2.0000      -0.528281       -14.3752
  46   2.0000      -0.518944       -14.1212
  47   2.0000      -0.514478       -13.9997
  48   2.0000      -0.510493       -13.8912
  49   2.0000      -0.502543       -13.6749
  50   2.0000      -0.492906       -13.4127
  51   2.0000      -0.487570       -13.2675
  52   2.0000      -0.471956       -12.8426
  53   2.0000      -0.468616       -12.7517
  54   2.0000      -0.457863       -12.4591
  55   2.0000      -0.449729       -12.2377
  56   2.0000      -0.445487       -12.1223
  57   2.0000      -0.436112       -11.8672
  58   2.0000      -0.431968       -11.7544
  59   2.0000      -0.427118       -11.6225
  60   2.0000      -0.421930       -11.4813
  61   2.0000      -0.411590       -11.1999
  62   2.0000      -0.409941       -11.1550
  63   2.0000      -0.354378        -9.6431
  64   2.0000      -0.328782        -8.9466
  65   2.0000      -0.324709        -8.8358
  66   2.0000      -0.289035        -7.8650
  67   0.0000       0.026972         0.7339
  68   0.0000       0.069975         1.9041
  69   0.0000       0.105954         2.8831
  70   0.0000       0.116130         3.1600
  71   0.0000       0.124153         3.3784

MULLIKEN ATOMIC CHARGES
-----------------------
   0 S :    0.095605
   1 C :   -0.098028
   2 C :   -0.064339
   3 C :    0.029178
   4 C :   -0.158145
   5 H :   -0.005673
   6 C :    0.046726
   7 H :    0.017796
   8 H :    0.046128
   9 C :   -0.140189
  10 H :    0.047088
  11 H :    0.032993
  12 C :   -0.031146
  13 H :    0.042788
  14 H :    0.027594
  15 H :    0.033472
  16 S :    0.096355
  17 C :   -0.030057
  18 C :   -0.035906
  19 C :   -0.073031
  20 C :   -0.128953
  21 H :   -0.001355
  22 C :    0.143311
  23 H :    0.026079
  24 H :    0.027644
  25 C :   -0.145144
  26 H :    0.042560
  27 H :    0.026499
  28 C :   -0.048948
  29 H :    0.036949
  30 H :    0.024185
  31 H :    0.046584
  32 H :    0.043957
  33 H :    0.027421
Sum of atomic charges:    0.0000000

LOEWDIN ATOMIC CHARGES
----------------------
   0 S :    0.396106
   1 C :   -0.195279
   2 C :   -0.068264
   3 C :   -0.058437
   4 C :   -0.184512
   5 H :    0.024175
   6 C :   -0.034085
   7 H :    0.028103
   8 H :    0.036276
   9 C :   -0.048854
  10 H :    0.026426
  11 H :    0.027208
  12 C :   -0.063671
  13 H :    0.026301
  14 H :    0.019187
  15 H :    0.030389
  16 S :    0.420043
  17 C :   -0.192453
  18 C :   -0.072034
  19 C :   -0.044243
  20 C :   -0.192993
  21 H :    0.021920
  22 C :   -0.023382
  23 H :    0.031945
  24 H :    0.029911
  25 C :   -0.044261
  26 H :    0.026760
  27 H :    0.019364
  28 C :   -0.065514
  29 H :    0.025476
  30 H :    0.022522
  31 H :    0.028450
  32 H :    0.027999
  33 H :    0.019423

  Mayer bond orders larger than 0.100000
B(  0-S ,  1-C ) :   1.1391 B(  0-S ,  4-C ) :   1.1455 B(  1-C ,  2-C ) :   1.5998
B(  1-C ,  4-C ) :   0.1011 B(  1-C , 32-H ) :   0.9709 B(  2-C ,  3-C ) :   1.2349
B(  2-C ,  6-C ) :   1.0239 B(  3-C ,  4-C ) :   1.5604 B(  3-C ,  5-H ) :   0.9966
B(  4-C , 20-C ) :   1.0472 B(  6-C ,  7-H ) :   0.9427 B(  6-C ,  8-H ) :   0.9461
B(  6-C ,  9-C ) :   1.0623 B(  9-C , 10-H ) :   0.9516 B(  9-C , 11-H ) :   0.9613
B(  9-C , 12-C ) :   1.0667 B( 12-C , 13-H ) :   0.9751 B( 12-C , 14-H ) :   0.9767
B( 12-C , 15-H ) :   0.9749 B( 16-S , 17-C ) :   1.1637 B( 16-S , 20-C ) :   1.1310
B( 17-C , 18-C ) :   1.6163 B( 17-C , 33-H ) :   0.9745 B( 18-C , 19-C ) :   1.2195
B( 18-C , 21-H ) :   0.9960 B( 19-C , 20-C ) :   1.6276 B( 19-C , 22-C ) :   1.0426
B( 22-C , 23-H ) :   0.9155 B( 22-C , 24-H ) :   0.9404 B( 22-C , 25-C ) :   1.0614
B( 25-C , 26-H ) :   0.9630 B( 25-C , 27-H ) :   0.9554 B( 25-C , 28-C ) :   1.0698
B( 28-C , 29-H ) :   0.9766 B( 28-C , 30-H ) :   0.9738 B( 28-C , 31-H ) :   0.9786

Dispersion correction           -0.014908398
FINAL SINGLE POINT ENERGY     -1339.863638468577

DIPOLE MOMENT
-------------
                                X             Y             Z
Electronic contribution:    -22.58384      19.53895     -11.43801
Nuclear contribution   :     23.15046     -20.11697      11.31855
                        -----------------------------------------
Total Dipole Moment    :      0.56662      -0.57802      -0.11945
                        -----------------------------------------
Magnitude (a.u.)       :      0.81819
Magnitude (Debye)      :      2.07967

Rotational constants in cm-1:     0.016593     0.010954     0.007086
Rotational constants in MHz :   497.445003   328.402210   212.439532

                             ****ORCA TERMINATED NORMALLY****
TOTAL RUN TIME: 0 days 0 hours 0 minutes 22 seconds 695 msec
