                         Program Version 4.2.1 -  RELEASE  -
|  1> ! wB97X-D3 SP def2-SVP
|  2> %pal
|  3> nprocs 24
|  4> end
|  5>
|  6> * xyz 0 1
|  7> S 	 -127.592 	 25.6194 	 -24.0537
|  8> C 	 -129.001 	 24.6182 	 -23.7233
|  9> C 	 -130.142 	 25.3472 	 -23.7656
| 10> C 	 -129.812 	 26.7148 	 -24.1196
| 11> C 	 -128.517 	 27.078 	 -24.3499
| 12> H 	 -130.573 	 27.5272 	 -24.1669
| 13> C 	 -131.537 	 24.7761 	 -23.5086
| 14> H 	 -131.574 	 24.4194 	 -22.4722
| 15> H 	 -131.575 	 23.8626 	 -24.161
| 16> C 	 -132.716 	 25.749 	 -23.7971
| 17> H 	 -132.55 	 26.6934 	 -23.2753
| 18> H 	 -132.716 	 26.1262 	 -24.846
| 19> C 	 -134.119 	 25.1707 	 -23.4306
| 20> H 	 -134.46 	 24.5192 	 -24.2291
| 21> H 	 -134.174 	 24.537 	 -22.5311
| 22> H 	 -134.897 	 25.9041 	 -23.2712
| 23> S 	 -126.241 	 28.4436 	 -24.8087
| 24> C 	 -126.201 	 30.1349 	 -25.2942
| 25> C 	 -127.489 	 30.6163 	 -25.4145
| 26> C 	 -128.489 	 29.6918 	 -24.9608
| 27> C 	 -127.985 	 28.4295 	 -24.6223
| 28> H 	 -127.796 	 31.5916 	 -25.8826
| 29> C 	 -129.951 	 29.9297 	 -25.1387
| 30> H 	 -130.457 	 29.1056 	 -25.5899
| 31> H 	 -129.96 	 30.5844 	 -25.9704
| 32> C 	 -130.644 	 30.4758 	 -24.01
| 33> H 	 -130.059 	 31.3314 	 -23.7295
| 34> H 	 -130.658 	 29.8666 	 -23.1472
| 35> C 	 -131.964 	 31.1183 	 -24.3442
| 36> H 	 -131.853 	 31.883 	 -25.1056
| 37> H 	 -132.455 	 31.6246 	 -23.5366
| 38> H 	 -132.677 	 30.4036 	 -24.7554
| 39> H 	 -128.92 	 23.5875 	 -23.4191
| 40> H 	 -125.345 	 30.6462 	 -25.6999
| 41> *
| 42>
| 43>                          ****END OF INPUT****

CARTESIAN COORDINATES (ANGSTROEM)
---------------------------------
  S    -127.592000   25.619400  -24.053700
  C    -129.001000   24.618200  -23.723300
  C    -130.142000   25.347200  -23.765600
  C    -129.812000   26.714800  -24.119600
  C    -128.517000   27.078000  -24.349900
  H    -130.573000   27.527200  -24.166900
  C    -131.537000   24.776100  -23.508600
  H    -131.574000   24.419400  -22.472200
  H    -131.575000   23.862600  -24.161000
  C    -132.716000   25.749000  -23.797100
  H    -132.550000   26.693400  -23.275300
  H    -132.716000   26.126200  -24.846000
  C    -134.119000   25.170700  -23.430600
  H    -134.460000   24.519200  -24.229100
  H    -134.174000   24.537000  -22.531100
  H    -134.897000   25.904100  -23.271200
  S    -126.241000   28.443600  -24.808700
  C    -126.201000   30.134900  -25.294200
  C    -127.489000   30.616300  -25.414500
  C    -128.489000   29.691800  -24.960800
  C    -127.985000   28.429500  -24.622300
  H    -127.796000   31.591600  -25.882600
  C    -129.951000   29.929700  -25.138700
  H    -130.457000   29.105600  -25.589900
  H    -129.960000   30.584400  -25.970400
  C    -130.644000   30.475800  -24.010000
  H    -130.059000   31.331400  -23.729500
  H    -130.658000   29.866600  -23.147200
  C    -131.964000   31.118300  -24.344200
  H    -131.853000   31.883000  -25.105600
  H    -132.455000   31.624600  -23.536600
  H    -132.677000   30.403600  -24.755400
  H    -128.920000   23.587500  -23.419100
  H    -125.345000   30.646200  -25.699900

 Total Charge           Charge          ....    0
 Multiplicity           Mult            ....    1
 Number of Electrons    NEL             ....  134
 Basis Dimension        Dim             ....  322

ORBITAL ENERGIES
----------------

  NO   OCC          E(Eh)            E(eV)
   0   2.0000     -88.965136     -2420.8644
   1   2.0000     -88.963540     -2420.8210
   2   2.0000     -10.335600      -281.2460
   3   2.0000     -10.333911      -281.2000
   4   2.0000     -10.320980      -280.8481
   5   2.0000     -10.313277      -280.6385
   6   2.0000     -10.304599      -280.4024
   7   2.0000     -10.304330      -280.3951
   8   2.0000     -10.303643      -280.3764
   9   2.0000     -10.303244      -280.3655
  10   2.0000     -10.297922      -280.2207
  11   2.0000     -10.294805      -280.1359
  12   2.0000     -10.282885      -279.8115
  13   2.0000     -10.277747      -279.6717
  14   2.0000     -10.274185      -279.5748
  15   2.0000     -10.272944      -279.5410
  16   2.0000      -8.079856      -219.8641
  17   2.0000      -8.078115      -219.8167
  18   2.0000      -6.038471      -164.3152
  19   2.0000      -6.036920      -164.2730
  20   2.0000      -6.034323      -164.2023
  21   2.0000      -6.032629      -164.1562
  22   2.0000      -6.030556      -164.0998
  23   2.0000      -6.028560      -164.0455
  24   2.0000      -1.008709       -27.4484
  25   2.0000      -0.987008       -26.8578
  26   2.0000      -0.931188       -25.3389
  27   2.0000      -0.907549       -24.6957
  28   2.0000      -0.872884       -23.7524
  29   2.0000      -0.855750       -23.2861
  30   2.0000      -0.839628       -22.8474
  31   2.0000      -0.819836       -22.3089
  32   2.0000      -0.784105       -21.3366
  33   2.0000      -0.777118       -21.1465
  34   2.0000      -0.717193       -19.5158
  35   2.0000      -0.707997       -19.2656
  36   2.0000      -0.694278       -18.8923
  37   2.0000      -0.667467       -18.1627
  38   2.0000      -0.641238       -17.4490
  39   2.0000      -0.620035       -16.8720
  40   2.0000      -0.603274       -16.4159
  41   2.0000      -0.573930       -15.6174
  42   2.0000      -0.566152       -15.4058
  43   2.0000      -0.561571       -15.2811
  44   2.0000      -0.535289       -14.5660
  45   2.0000      -0.527013       -14.3408
  46   2.0000      -0.521283       -14.1848
  47   2.0000      -0.508774       -13.8445
  48   2.0000      -0.508658       -13.8413
  49   2.0000      -0.498939       -13.5768
  50   2.0000      -0.497430       -13.5358
  51   2.0000      -0.488108       -13.2821
  52   2.0000      -0.471684       -12.8352
  53   2.0000      -0.465961       -12.6795
  54   2.0000      -0.462434       -12.5835
  55   2.0000      -0.454441       -12.3660
  56   2.0000      -0.448028       -12.1915
  57   2.0000      -0.446614       -12.1530
  58   2.0000      -0.434552       -11.8248
  59   2.0000      -0.424797       -11.5593
  60   2.0000      -0.419150       -11.4057
  61   2.0000      -0.411215       -11.1897
  62   2.0000      -0.401546       -10.9266
  63   2.0000      -0.365996        -9.9593
  64   2.0000      -0.335195        -9.1211
  65   2.0000      -0.325117        -8.8469
  66   2.0000      -0.287024        -7.8103
  67   0.0000       0.018678         0.5083
  68   0.0000       0.086317         2.3488
  69   0.0000       0.098323         2.6755
  70   0.0000       0.119410         3.2493
  71   0.0000       0.129731         3.5302

MULLIKEN ATOMIC CHARGES
-----------------------
   0 S :    0.090116
   1 C :   -0.130849
   2 C :   -0.062227
   3 C :   -0.065592
   4 C :   -0.051663
   5 H :    0.004174
   6 C :    0.061341
   7 H :    0.044924
   8 H :    0.047421
   9 C :   -0.107691
  10 H :    0.036775
  11 H :    0.038710
  12 C :   -0.036562
  13 H :    0.031947
  14 H :    0.029325
  15 H :    0.031998
  16 S :    0.077628
  17 C :   -0.072054
  18 C :   -0.039699
  19 C :   -0.087543
  20 C :   -0.112313
  21 H :    0.040289
  22 C :    0.057886
  23 H :    0.013993
  24 H :   -0.013740
  25 C :    0.000637
  26 H :    0.008298
  27 H :    0.021054
  28 C :   -0.030135
  29 H :    0.018318
  30 H :    0.029501
  31 H :    0.017984
  32 H :    0.046356
  33 H :    0.061393
Sum of atomic charges:   -0.0000000

LOEWDIN ATOMIC CHARGES
----------------------
   0 S :    0.389687
   1 C :   -0.184114
   2 C :   -0.067359
   3 C :   -0.078808
   4 C :   -0.194709
   5 H :    0.028340
   6 C :   -0.031480
   7 H :    0.036388
   8 H :    0.040760
   9 C :   -0.047580
  10 H :    0.022671
  11 H :    0.030486
  12 C :   -0.069217
  13 H :    0.026210
  14 H :    0.027184
  15 H :    0.026302
  16 S :    0.401069
  17 C :   -0.182770
  18 C :   -0.073434
  19 C :   -0.057152
  20 C :   -0.176609
  21 H :    0.041695
  22 C :   -0.036414
  23 H :    0.023844
  24 H :    0.027516
  25 C :   -0.041754
  26 H :    0.028826
  27 H :    0.019974
  28 C :   -0.058725
  29 H :    0.023822
  30 H :    0.024592
  31 H :    0.020160
  32 H :    0.029162
  33 H :    0.031436

  Mayer bond orders larger than 0.100000
B(  0-S ,  1-C ) :   1.1338 B(  0-S ,  4-C ) :   1.1216 B(  1-C ,  2-C ) :   1.6266
B(  1-C , 32-H ) :   0.9725 B(  2-C ,  3-C ) :   1.2449 B(  2-C ,  6-C ) :   0.9961
B(  3-C ,  4-C ) :   1.5916 B(  3-C ,  5-H ) :   0.9823 B(  4-C , 20-C ) :   1.0692
B(  6-C ,  7-H ) :   0.9363 B(  6-C ,  8-H ) :   0.9451 B(  6-C ,  9-C ) :   1.0784
B(  9-C , 10-H ) :   0.9511 B(  9-C , 11-H ) :   0.9555 B(  9-C , 12-C ) :   1.0704
B( 12-C , 13-H ) :   0.9763 B( 12-C , 14-H ) :   0.9769 B( 12-C , 15-H ) :   0.9762
B( 16-S , 17-C ) :   1.1568 B( 16-S , 20-C ) :   1.1366 B( 17-C , 18-C ) :   1.5918
B( 17-C , 33-H ) :   0.9682 B( 18-C , 19-C ) :   1.2798 B( 18-C , 21-H ) :   0.9733
B( 19-C , 20-C ) :   1.5691 B( 19-C , 22-C ) :   1.0364 B( 22-C , 23-H ) :   0.9291
B( 22-C , 24-H ) :   0.9196 B( 22-C , 25-C ) :   1.0708 B( 25-C , 26-H ) :   0.9392
B( 25-C , 27-H ) :   0.9492 B( 25-C , 28-C ) :   1.0869 B( 28-C , 29-H ) :   0.9727
B( 28-C , 30-H ) :   0.9731 B( 28-C , 31-H ) :   0.9717

Dispersion correction           -0.013798334
FINAL SINGLE POINT ENERGY     -1339.872294607569

DIPOLE MOMENT
-------------
                                X             Y             Z
Electronic contribution:     33.59879      -5.94406      -2.30641
Nuclear contribution   :    -34.38054       6.15066       2.20076
                        -----------------------------------------
Total Dipole Moment    :     -0.78175       0.20660      -0.10565
                        -----------------------------------------
Magnitude (a.u.)       :      0.81547
Magnitude (Debye)      :      2.07275

Rotational constants in cm-1:     0.016887     0.009670     0.006260
Rotational constants in MHz :   506.245523   289.890882   187.677030

                             ****ORCA TERMINATED NORMALLY****
TOTAL RUN TIME: 0 days 0 hours 0 minutes 21 seconds 886 msec
