                         Program Version 4.2.1 -  RELEASE  -
|  1> ! wB97X-D3 SP def2-SVP
|  2> %pal
|  3> nprocs 24
|  4> end
|  5>
|  6> * xyz 0 1
|  7> S 	 -56.238 	 12.8005 	 -93.7
|  8> C 	 -55.1259 	 11.581 	 -93.1221
|  9> C 	 -54.192 	 12.1964 	 -92.3046
| 10> C 	 -54.3359 	 13.579 	 -92.2224
| 11> C 	 -55.3362 	 14.0835 	 -93.0575
| 12> H 	 -53.78 	 14.2186 	 -91.612
| 13> C 	 -53.1976 	 11.4386 	 -91.4102
| 14> H 	 -53.6936 	 10.7449 	 -90.7357
| 15> H 	 -52.8053 	 12.2211 	 -90.7368
| 16> C 	 -52.0901 	 10.7434 	 -92.1307
| 17> H 	 -52.3893 	 9.80315 	 -92.5771
| 18> H 	 -51.7414 	 11.3097 	 -93.008
| 19> C 	 -50.8985 	 10.3744 	 -91.2985
| 20> H 	 -50.9723 	 9.60491 	 -90.5681
| 21> H 	 -50.0734 	 10.2189 	 -92.06
| 22> H 	 -50.5041 	 11.2392 	 -90.752
| 23> S 	 -57.5041 	 15.8412 	 -92.8085
| 24> C 	 -57.3022 	 17.5265 	 -92.7053
| 25> C 	 -56.0068 	 17.8817 	 -93.0018
| 26> C 	 -55.1692 	 16.7309 	 -93.1892
| 27> C 	 -55.8072 	 15.505 	 -93.049
| 28> H 	 -55.641 	 18.8876 	 -92.8978
| 29> C 	 -53.6843 	 16.7658 	 -93.4239
| 30> H 	 -53.3969 	 15.7783 	 -93.8405
| 31> H 	 -53.1148 	 16.953 	 -92.4914
| 32> C 	 -53.1348 	 17.7265 	 -94.5479
| 33> H 	 -53.1212 	 18.775 	 -94.1758
| 34> H 	 -53.7553 	 17.8303 	 -95.4279
| 35> C 	 -51.699 	 17.4808 	 -95.0502
| 36> H 	 -51.7708 	 16.8641 	 -95.9927
| 37> H 	 -51.1437 	 16.8247 	 -94.3842
| 38> H 	 -51.2039 	 18.351 	 -95.3113
| 39> H 	 -55.2361 	 10.527 	 -93.4363
| 40> H 	 -57.9661 	 18.2448 	 -92.3158
| 41> *
| 42>
| 43>                          ****END OF INPUT****

CARTESIAN COORDINATES (ANGSTROEM)
---------------------------------
  S    -56.238000   12.800500  -93.700000
  C    -55.125900   11.581000  -93.122100
  C    -54.192000   12.196400  -92.304600
  C    -54.335900   13.579000  -92.222400
  C    -55.336200   14.083500  -93.057500
  H    -53.780000   14.218600  -91.612000
  C    -53.197600   11.438600  -91.410200
  H    -53.693600   10.744900  -90.735700
  H    -52.805300   12.221100  -90.736800
  C    -52.090100   10.743400  -92.130700
  H    -52.389300    9.803150  -92.577100
  H    -51.741400   11.309700  -93.008000
  C    -50.898500   10.374400  -91.298500
  H    -50.972300    9.604910  -90.568100
  H    -50.073400   10.218900  -92.060000
  H    -50.504100   11.239200  -90.752000
  S    -57.504100   15.841200  -92.808500
  C    -57.302200   17.526500  -92.705300
  C    -56.006800   17.881700  -93.001800
  C    -55.169200   16.730900  -93.189200
  C    -55.807200   15.505000  -93.049000
  H    -55.641000   18.887600  -92.897800
  C    -53.684300   16.765800  -93.423900
  H    -53.396900   15.778300  -93.840500
  H    -53.114800   16.953000  -92.491400
  C    -53.134800   17.726500  -94.547900
  H    -53.121200   18.775000  -94.175800
  H    -53.755300   17.830300  -95.427900
  C    -51.699000   17.480800  -95.050200
  H    -51.770800   16.864100  -95.992700
  H    -51.143700   16.824700  -94.384200
  H    -51.203900   18.351000  -95.311300
  H    -55.236100   10.527000  -93.436300
  H    -57.966100   18.244800  -92.315800

 Total Charge           Charge          ....    0
 Multiplicity           Mult            ....    1
 Number of Electrons    NEL             ....  134
 Basis Dimension        Dim             ....  322

ORBITAL ENERGIES
----------------

  NO   OCC          E(Eh)            E(eV)
   0   2.0000     -88.968828     -2420.9649
   1   2.0000     -88.963137     -2420.8100
   2   2.0000     -10.331953      -281.1467
   3   2.0000     -10.329330      -281.0754
   4   2.0000     -10.317419      -280.7513
   5   2.0000     -10.311813      -280.5987
   6   2.0000     -10.302352      -280.3413
   7   2.0000     -10.300556      -280.2924
   8   2.0000     -10.294544      -280.1288
   9   2.0000     -10.292269      -280.0669
  10   2.0000     -10.290838      -280.0279
  11   2.0000     -10.289304      -279.9862
  12   2.0000     -10.285082      -279.8713
  13   2.0000     -10.281829      -279.7828
  14   2.0000     -10.277395      -279.6621
  15   2.0000     -10.273945      -279.5683
  16   2.0000      -8.084440      -219.9888
  17   2.0000      -8.078917      -219.8385
  18   2.0000      -6.042802      -164.4330
  19   2.0000      -6.038662      -164.3203
  20   2.0000      -6.037380      -164.2855
  21   2.0000      -6.035468      -164.2334
  22   2.0000      -6.033148      -164.1703
  23   2.0000      -6.029775      -164.0785
  24   2.0000      -1.014032       -27.5932
  25   2.0000      -0.993527       -27.0352
  26   2.0000      -0.917476       -24.9658
  27   2.0000      -0.901368       -24.5275
  28   2.0000      -0.871093       -23.7037
  29   2.0000      -0.856767       -23.3138
  30   2.0000      -0.847537       -23.0626
  31   2.0000      -0.817801       -22.2535
  32   2.0000      -0.783261       -21.3136
  33   2.0000      -0.771104       -20.9828
  34   2.0000      -0.703981       -19.1563
  35   2.0000      -0.698800       -19.0153
  36   2.0000      -0.696093       -18.9417
  37   2.0000      -0.658295       -17.9131
  38   2.0000      -0.646487       -17.5918
  39   2.0000      -0.624139       -16.9837
  40   2.0000      -0.597599       -16.2615
  41   2.0000      -0.573251       -15.5989
  42   2.0000      -0.565264       -15.3816
  43   2.0000      -0.559221       -15.2172
  44   2.0000      -0.531820       -14.4715
  45   2.0000      -0.526874       -14.3370
  46   2.0000      -0.522029       -14.2051
  47   2.0000      -0.516114       -14.0442
  48   2.0000      -0.509404       -13.8616
  49   2.0000      -0.502231       -13.6664
  50   2.0000      -0.492396       -13.3988
  51   2.0000      -0.480790       -13.0830
  52   2.0000      -0.472325       -12.8526
  53   2.0000      -0.467265       -12.7149
  54   2.0000      -0.464055       -12.6276
  55   2.0000      -0.454669       -12.3722
  56   2.0000      -0.450050       -12.2465
  57   2.0000      -0.434162       -11.8141
  58   2.0000      -0.424441       -11.5496
  59   2.0000      -0.419823       -11.4240
  60   2.0000      -0.415797       -11.3144
  61   2.0000      -0.410633       -11.1739
  62   2.0000      -0.401682       -10.9303
  63   2.0000      -0.351740        -9.5713
  64   2.0000      -0.335710        -9.1351
  65   2.0000      -0.328796        -8.9470
  66   2.0000      -0.291656        -7.9364
  67   0.0000       0.030090         0.8188
  68   0.0000       0.069022         1.8782
  69   0.0000       0.113455         3.0873
  70   0.0000       0.126679         3.4471
  71   0.0000       0.138778         3.7763

MULLIKEN ATOMIC CHARGES
-----------------------
   0 S :    0.113610
   1 C :   -0.151143
   2 C :   -0.061613
   3 C :    0.030199
   4 C :   -0.135099
   5 H :   -0.007060
   6 C :    0.089395
   7 H :    0.034229
   8 H :    0.010381
   9 C :   -0.069236
  10 H :    0.020614
  11 H :    0.030015
  12 C :   -0.053280
  13 H :    0.034285
  14 H :    0.035338
  15 H :    0.015743
  16 S :    0.105395
  17 C :   -0.070344
  18 C :   -0.021689
  19 C :   -0.053725
  20 C :   -0.140106
  21 H :    0.017408
  22 C :    0.032054
  23 H :    0.039225
  24 H :    0.049823
  25 C :   -0.103983
  26 H :    0.018942
  27 H :    0.029739
  28 C :   -0.037565
  29 H :    0.031551
  30 H :    0.026803
  31 H :    0.025611
  32 H :    0.068605
  33 H :    0.045876
Sum of atomic charges:   -0.0000000

LOEWDIN ATOMIC CHARGES
----------------------
   0 S :    0.440834
   1 C :   -0.203120
   2 C :   -0.063501
   3 C :   -0.058622
   4 C :   -0.210243
   5 H :    0.022229
   6 C :   -0.029587
   7 H :    0.032092
   8 H :    0.029220
   9 C :   -0.050226
  10 H :    0.023449
  11 H :    0.029218
  12 C :   -0.067449
  13 H :    0.018718
  14 H :    0.037928
  15 H :    0.021136
  16 S :    0.423353
  17 C :   -0.192199
  18 C :   -0.070657
  19 C :   -0.063932
  20 C :   -0.197387
  21 H :    0.030711
  22 C :   -0.037292
  23 H :    0.034232
  24 H :    0.034735
  25 C :   -0.048231
  26 H :    0.018905
  27 H :    0.022996
  28 C :   -0.063232
  29 H :    0.032226
  30 H :    0.023680
  31 H :    0.016889
  32 H :    0.036441
  33 H :    0.026686

  Mayer bond orders larger than 0.100000
B(  0-S ,  1-C ) :   1.1594 B(  0-S ,  4-C ) :   1.1993 B(  1-C ,  2-C ) :   1.5348
B(  1-C ,  4-C ) :   0.1071 B(  1-C , 32-H ) :   0.9759 B(  2-C ,  3-C ) :   1.3147
B(  2-C ,  6-C ) :   1.0107 B(  3-C ,  4-C ) :   1.4896 B(  3-C ,  5-H ) :   1.0048
B(  4-C , 20-C ) :   1.0186 B(  6-C ,  7-H ) :   0.9376 B(  6-C ,  8-H ) :   0.9453
B(  6-C ,  9-C ) :   1.0664 B(  9-C , 10-H ) :   0.9456 B(  9-C , 11-H ) :   0.9580
B(  9-C , 12-C ) :   1.0924 B( 12-C , 13-H ) :   0.9762 B( 12-C , 14-H ) :   0.9732
B( 12-C , 15-H ) :   0.9722 B( 16-S , 17-C ) :   1.1794 B( 16-S , 20-C ) :   1.1372
B( 17-C , 18-C ) :   1.5847 B( 17-C , 33-H ) :   0.9700 B( 18-C , 19-C ) :   1.2536
B( 18-C , 21-H ) :   0.9951 B( 19-C , 20-C ) :   1.5999 B( 19-C , 22-C ) :   1.0517
B( 22-C , 23-H ) :   0.9415 B( 22-C , 24-H ) :   0.9316 B( 22-C , 25-C ) :   1.0501
B( 25-C , 26-H ) :   0.9575 B( 25-C , 27-H ) :   0.9652 B( 25-C , 28-C ) :   1.0789
B( 28-C , 29-H ) :   0.9773 B( 28-C , 30-H ) :   0.9774 B( 28-C , 31-H ) :   0.9767

Dispersion correction           -0.013246616
FINAL SINGLE POINT ENERGY     -1339.871596695151

DIPOLE MOMENT
-------------
                                X             Y             Z
Electronic contribution:    -30.71584       2.01626      -1.08544
Nuclear contribution   :     31.27562      -1.97924       1.36964
                        -----------------------------------------
Total Dipole Moment    :      0.55978       0.03702       0.28420
                        -----------------------------------------
Magnitude (a.u.)       :      0.62888
Magnitude (Debye)      :      1.59849

Rotational constants in cm-1:     0.017450     0.008115     0.006116
Rotational constants in MHz :   523.149722   243.274301   183.357392

                             ****ORCA TERMINATED NORMALLY****
TOTAL RUN TIME: 0 days 0 hours 0 minutes 20 seconds 833 msec
