                         Program Version 4.2.1 -  RELEASE  -
|  1> ! wB97X-D3 SP def2-SVP
|  2> %pal
|  3> nprocs 24
|  4> end
|  5>
|  6> * xyz 0 1
|  7> S 	 -33.086 	 -37.0142 	 -91.0357
|  8> C 	 -31.7251 	 -36.4662 	 -90.031
|  9> C 	 -32.1171 	 -35.4918 	 -89.161
| 10> C 	 -33.4406 	 -35.0265 	 -89.4352
| 11> C 	 -34.1788 	 -35.9087 	 -90.2746
| 12> H 	 -34.0884 	 -34.26 	 -88.919
| 13> C 	 -31.2494 	 -34.8429 	 -88.124
| 14> H 	 -31.93 	 -34.0262 	 -87.6804
| 15> H 	 -30.3578 	 -34.2976 	 -88.4883
| 16> C 	 -30.9119 	 -35.658 	 -86.8623
| 17> H 	 -30.0701 	 -36.2093 	 -87.1078
| 18> H 	 -30.6401 	 -35.0967 	 -86.0319
| 19> C 	 -32.0903 	 -36.5145 	 -86.3677
| 20> H 	 -32.6905 	 -37.0444 	 -87.1178
| 21> H 	 -31.7775 	 -37.2746 	 -85.6594
| 22> H 	 -32.8196 	 -35.9891 	 -85.7776
| 23> S 	 -36.6205 	 -35.3057 	 -89.1199
| 24> C 	 -38.0967 	 -35.3327 	 -90.0785
| 25> C 	 -37.727 	 -35.4531 	 -91.4461
| 26> C 	 -36.4242 	 -35.9486 	 -91.6273
| 27> C 	 -35.631 	 -35.8029 	 -90.4954
| 28> H 	 -38.5109 	 -35.3958 	 -92.2115
| 29> C 	 -35.9185 	 -36.2061 	 -93.0244
| 30> H 	 -34.9913 	 -35.6838 	 -93.2152
| 31> H 	 -36.553 	 -35.6201 	 -93.8091
| 32> C 	 -35.6399 	 -37.6381 	 -93.4341
| 33> H 	 -36.3495 	 -38.4332 	 -93.0163
| 34> H 	 -34.6946 	 -37.888 	 -93.0601
| 35> C 	 -35.708 	 -38.0777 	 -94.9296
| 36> H 	 -35.3117 	 -39.1137 	 -95.036
| 37> H 	 -34.9813 	 -37.4894 	 -95.4994
| 38> H 	 -36.7351 	 -38.0158 	 -95.3359
| 39> H 	 -30.6991 	 -36.8843 	 -90.02
| 40> H 	 -39.0834 	 -35.1203 	 -89.8544
| 41> *
| 42>
| 43>                          ****END OF INPUT****

CARTESIAN COORDINATES (ANGSTROEM)
---------------------------------
  S    -33.086000  -37.014200  -91.035700
  C    -31.725100  -36.466200  -90.031000
  C    -32.117100  -35.491800  -89.161000
  C    -33.440600  -35.026500  -89.435200
  C    -34.178800  -35.908700  -90.274600
  H    -34.088400  -34.260000  -88.919000
  C    -31.249400  -34.842900  -88.124000
  H    -31.930000  -34.026200  -87.680400
  H    -30.357800  -34.297600  -88.488300
  C    -30.911900  -35.658000  -86.862300
  H    -30.070100  -36.209300  -87.107800
  H    -30.640100  -35.096700  -86.031900
  C    -32.090300  -36.514500  -86.367700
  H    -32.690500  -37.044400  -87.117800
  H    -31.777500  -37.274600  -85.659400
  H    -32.819600  -35.989100  -85.777600
  S    -36.620500  -35.305700  -89.119900
  C    -38.096700  -35.332700  -90.078500
  C    -37.727000  -35.453100  -91.446100
  C    -36.424200  -35.948600  -91.627300
  C    -35.631000  -35.802900  -90.495400
  H    -38.510900  -35.395800  -92.211500
  C    -35.918500  -36.206100  -93.024400
  H    -34.991300  -35.683800  -93.215200
  H    -36.553000  -35.620100  -93.809100
  C    -35.639900  -37.638100  -93.434100
  H    -36.349500  -38.433200  -93.016300
  H    -34.694600  -37.888000  -93.060100
  C    -35.708000  -38.077700  -94.929600
  H    -35.311700  -39.113700  -95.036000
  H    -34.981300  -37.489400  -95.499400
  H    -36.735100  -38.015800  -95.335900
  H    -30.699100  -36.884300  -90.020000
  H    -39.083400  -35.120300  -89.854400

 Total Charge           Charge          ....    0
 Multiplicity           Mult            ....    1
 Number of Electrons    NEL             ....  134
 Basis Dimension        Dim             ....  322

ORBITAL ENERGIES
----------------

  NO   OCC          E(Eh)            E(eV)
   0   2.0000     -88.973625     -2421.0954
   1   2.0000     -88.973050     -2421.0798
   2   2.0000     -10.336518      -281.2710
   3   2.0000     -10.334462      -281.2150
   4   2.0000     -10.319618      -280.8111
   5   2.0000     -10.316827      -280.7351
   6   2.0000     -10.304917      -280.4110
   7   2.0000     -10.303052      -280.3603
   8   2.0000     -10.300165      -280.2818
   9   2.0000     -10.298642      -280.2403
  10   2.0000     -10.296384      -280.1788
  11   2.0000     -10.295819      -280.1635
  12   2.0000     -10.282996      -279.8145
  13   2.0000     -10.282460      -279.8000
  14   2.0000     -10.277140      -279.6552
  15   2.0000     -10.269439      -279.4457
  16   2.0000      -8.087210      -220.0642
  17   2.0000      -8.086647      -220.0489
  18   2.0000      -6.045843      -164.5158
  19   2.0000      -6.045310      -164.5013
  20   2.0000      -6.041820      -164.4063
  21   2.0000      -6.041202      -164.3895
  22   2.0000      -6.037953      -164.3011
  23   2.0000      -6.037440      -164.2871
  24   2.0000      -1.007078       -27.4040
  25   2.0000      -0.985487       -26.8165
  26   2.0000      -0.912443       -24.8288
  27   2.0000      -0.905599       -24.6426
  28   2.0000      -0.867982       -23.6190
  29   2.0000      -0.852703       -23.2032
  30   2.0000      -0.845044       -22.9948
  31   2.0000      -0.808174       -21.9915
  32   2.0000      -0.783371       -21.3166
  33   2.0000      -0.775841       -21.1117
  34   2.0000      -0.710799       -19.3418
  35   2.0000      -0.706980       -19.2379
  36   2.0000      -0.688258       -18.7285
  37   2.0000      -0.667697       -18.1690
  38   2.0000      -0.632313       -17.2061
  39   2.0000      -0.606779       -16.5113
  40   2.0000      -0.595818       -16.2130
  41   2.0000      -0.573586       -15.6081
  42   2.0000      -0.559080       -15.2133
  43   2.0000      -0.554457       -15.0875
  44   2.0000      -0.548378       -14.9221
  45   2.0000      -0.521160       -14.1815
  46   2.0000      -0.518340       -14.1048
  47   2.0000      -0.508192       -13.8286
  48   2.0000      -0.504795       -13.7362
  49   2.0000      -0.498036       -13.5523
  50   2.0000      -0.491014       -13.3612
  51   2.0000      -0.472508       -12.8576
  52   2.0000      -0.470526       -12.8037
  53   2.0000      -0.466120       -12.6838
  54   2.0000      -0.462500       -12.5853
  55   2.0000      -0.446492       -12.1497
  56   2.0000      -0.443198       -12.0600
  57   2.0000      -0.437440       -11.9033
  58   2.0000      -0.436299       -11.8723
  59   2.0000      -0.424617       -11.5544
  60   2.0000      -0.410955       -11.1826
  61   2.0000      -0.403054       -10.9677
  62   2.0000      -0.399758       -10.8780
  63   2.0000      -0.352315        -9.5870
  64   2.0000      -0.336250        -9.1498
  65   2.0000      -0.334094        -9.0912
  66   2.0000      -0.285174        -7.7600
  67   0.0000       0.017814         0.4848
  68   0.0000       0.067723         1.8428
  69   0.0000       0.101048         2.7496
  70   0.0000       0.116298         3.1646
  71   0.0000       0.127426         3.4674

MULLIKEN ATOMIC CHARGES
-----------------------
   0 S :    0.103721
   1 C :   -0.114088
   2 C :   -0.086060
   3 C :   -0.015576
   4 C :   -0.130556
   5 H :    0.039539
   6 C :    0.019362
   7 H :    0.025876
   8 H :    0.049926
   9 C :    0.004185
  10 H :    0.008540
  11 H :    0.017738
  12 C :   -0.076341
  13 H :    0.048599
  14 H :    0.023109
  15 H :    0.019877
  16 S :    0.112189
  17 C :   -0.060609
  18 C :   -0.065727
  19 C :    0.001629
  20 C :   -0.134141
  21 H :    0.032075
  22 C :    0.008490
  23 H :    0.028285
  24 H :    0.034121
  25 C :   -0.080593
  26 H :    0.037777
  27 H :    0.017157
  28 C :   -0.072382
  29 H :    0.038907
  30 H :    0.024681
  31 H :    0.047366
  32 H :    0.060899
  33 H :    0.032025
Sum of atomic charges:   -0.0000000

LOEWDIN ATOMIC CHARGES
----------------------
   0 S :    0.420489
   1 C :   -0.196545
   2 C :   -0.068490
   3 C :   -0.079059
   4 C :   -0.195466
   5 H :    0.033146
   6 C :   -0.037443
   7 H :    0.038124
   8 H :    0.034879
   9 C :   -0.029210
  10 H :    0.011710
  11 H :    0.021572
  12 C :   -0.069500
  13 H :    0.029339
  14 H :    0.026391
  15 H :    0.022097
  16 S :    0.415886
  17 C :   -0.178581
  18 C :   -0.061118
  19 C :   -0.060350
  20 C :   -0.185950
  21 H :    0.033130
  22 C :   -0.045909
  23 H :    0.029726
  24 H :    0.040186
  25 C :   -0.051028
  26 H :    0.032013
  27 H :    0.002236
  28 C :   -0.067218
  29 H :    0.032677
  30 H :    0.019053
  31 H :    0.027050
  32 H :    0.038599
  33 H :    0.017565

  Mayer bond orders larger than 0.100000
B(  0-S ,  1-C ) :   1.1193 B(  0-S ,  4-C ) :   1.1593 B(  1-C ,  2-C ) :   1.6109
B(  1-C , 32-H ) :   0.9662 B(  2-C ,  3-C ) :   1.2524 B(  2-C ,  6-C ) :   1.0172
B(  3-C ,  4-C ) :   1.5470 B(  3-C ,  5-H ) :   0.9693 B(  4-C , 20-C ) :   1.0599
B(  6-C ,  7-H ) :   0.9435 B(  6-C ,  8-H ) :   0.9484 B(  6-C ,  9-C ) :   1.0664
B(  9-C , 10-H ) :   0.9564 B(  9-C , 11-H ) :   0.9558 B(  9-C , 12-C ) :   1.0754
B( 12-C , 13-H ) :   0.9718 B( 12-C , 14-H ) :   0.9727 B( 12-C , 15-H ) :   0.9769
B( 16-S , 17-C ) :   1.1557 B( 16-S , 20-C ) :   1.1428 B( 17-C , 18-C ) :   1.5844
B( 17-C , 20-C ) :   0.1099 B( 17-C , 33-H ) :   0.9767 B( 18-C , 19-C ) :   1.2845
B( 18-C , 21-H ) :   0.9774 B( 19-C , 20-C ) :   1.5418 B( 19-C , 22-C ) :   1.0419
B( 22-C , 23-H ) :   0.9323 B( 22-C , 24-H ) :   0.9507 B( 22-C , 25-C ) :   1.0325
B( 25-C , 26-H ) :   0.9647 B( 25-C , 27-H ) :   0.9495 B( 25-C , 28-C ) :   1.0896
B( 28-C , 29-H ) :   0.9733 B( 28-C , 30-H ) :   0.9744 B( 28-C , 31-H ) :   0.9780

Dispersion correction           -0.014505260
FINAL SINGLE POINT ENERGY     -1339.847622829400

DIPOLE MOMENT
-------------
                                X             Y             Z
Electronic contribution:     -7.31624       4.21644       2.21058
Nuclear contribution   :      7.40085      -4.08994      -2.21350
                        -----------------------------------------
Total Dipole Moment    :      0.08460       0.12650      -0.00292
                        -----------------------------------------
Magnitude (a.u.)       :      0.15222
Magnitude (Debye)      :      0.38690

Rotational constants in cm-1:     0.021069     0.008600     0.006516
Rotational constants in MHz :   631.639108   257.812645   195.351704

                             ****ORCA TERMINATED NORMALLY****
TOTAL RUN TIME: 0 days 0 hours 0 minutes 21 seconds 434 msec
