                         Program Version 4.2.1 -  RELEASE  -
|  1> ! wB97X-D3 SP def2-SVP
|  2> %pal
|  3> nprocs 24
|  4> end
|  5>
|  6> * xyz 0 1
|  7> S 	 -61.3556 	 14.8095 	 -73.3403
|  8> C 	 -62.7834 	 14.4052 	 -72.3656
|  9> C 	 -63.3039 	 13.1285 	 -72.6444
| 10> C 	 -62.3865 	 12.5189 	 -73.4937
| 11> C 	 -61.3894 	 13.2328 	 -74.0602
| 12> H 	 -62.4282 	 11.523 	 -73.8285
| 13> C 	 -64.599 	 12.5023 	 -72.1496
| 14> H 	 -64.8328 	 12.838 	 -71.1577
| 15> H 	 -64.4691 	 11.4211 	 -72.277
| 16> C 	 -65.8443 	 12.9491 	 -72.983
| 17> H 	 -66.709 	 12.5557 	 -72.4548
| 18> H 	 -66.0786 	 13.9974 	 -72.9399
| 19> C 	 -65.8376 	 12.5223 	 -74.4124
| 20> H 	 -65.5361 	 13.3907 	 -75.0232
| 21> H 	 -65.1403 	 11.6871 	 -74.5671
| 22> H 	 -66.7236 	 12.1876 	 -74.8847
| 23> S 	 -59.8365 	 11.1885 	 -75.219
| 24> C 	 -59.0716 	 11.483 	 -76.8253
| 25> C 	 -59.6391 	 12.6063 	 -77.3578
| 26> C 	 -60.3054 	 13.4558 	 -76.3909
| 27> C 	 -60.6114 	 12.8021 	 -75.2384
| 28> H 	 -59.3268 	 12.8949 	 -78.3202
| 29> C 	 -60.828 	 14.8371 	 -76.6938
| 30> H 	 -60.029 	 15.315 	 -77.1889
| 31> H 	 -60.8902 	 15.3493 	 -75.7207
| 32> C 	 -62.0344 	 14.9293 	 -77.6348
| 33> H 	 -62.7352 	 14.2185 	 -77.3664
| 34> H 	 -61.7384 	 14.7516 	 -78.6823
| 35> C 	 -62.8126 	 16.2932 	 -77.5924
| 36> H 	 -63.6562 	 16.2733 	 -78.2707
| 37> H 	 -62.222 	 17.1825 	 -77.7508
| 38> H 	 -63.3007 	 16.3473 	 -76.6266
| 39> H 	 -63.272 	 15.1099 	 -71.7738
| 40> H 	 -58.5219 	 10.8128 	 -77.384
| 41> *
| 42>
| 43>                          ****END OF INPUT****

CARTESIAN COORDINATES (ANGSTROEM)
---------------------------------
  S    -61.355600   14.809500  -73.340300
  C    -62.783400   14.405200  -72.365600
  C    -63.303900   13.128500  -72.644400
  C    -62.386500   12.518900  -73.493700
  C    -61.389400   13.232800  -74.060200
  H    -62.428200   11.523000  -73.828500
  C    -64.599000   12.502300  -72.149600
  H    -64.832800   12.838000  -71.157700
  H    -64.469100   11.421100  -72.277000
  C    -65.844300   12.949100  -72.983000
  H    -66.709000   12.555700  -72.454800
  H    -66.078600   13.997400  -72.939900
  C    -65.837600   12.522300  -74.412400
  H    -65.536100   13.390700  -75.023200
  H    -65.140300   11.687100  -74.567100
  H    -66.723600   12.187600  -74.884700
  S    -59.836500   11.188500  -75.219000
  C    -59.071600   11.483000  -76.825300
  C    -59.639100   12.606300  -77.357800
  C    -60.305400   13.455800  -76.390900
  C    -60.611400   12.802100  -75.238400
  H    -59.326800   12.894900  -78.320200
  C    -60.828000   14.837100  -76.693800
  H    -60.029000   15.315000  -77.188900
  H    -60.890200   15.349300  -75.720700
  C    -62.034400   14.929300  -77.634800
  H    -62.735200   14.218500  -77.366400
  H    -61.738400   14.751600  -78.682300
  C    -62.812600   16.293200  -77.592400
  H    -63.656200   16.273300  -78.270700
  H    -62.222000   17.182500  -77.750800
  H    -63.300700   16.347300  -76.626600
  H    -63.272000   15.109900  -71.773800
  H    -58.521900   10.812800  -77.384000

 Total Charge           Charge          ....    0
 Multiplicity           Mult            ....    1
 Number of Electrons    NEL             ....  134
 Basis Dimension        Dim             ....  322

ORBITAL ENERGIES
----------------

  NO   OCC          E(Eh)            E(eV)
   0   2.0000     -88.970486     -2421.0100
   1   2.0000     -88.960969     -2420.7510
   2   2.0000     -10.328974      -281.0657
   3   2.0000     -10.325225      -280.9637
   4   2.0000     -10.316225      -280.7188
   5   2.0000     -10.314404      -280.6692
   6   2.0000     -10.303492      -280.3723
   7   2.0000     -10.301323      -280.3132
   8   2.0000     -10.299639      -280.2674
   9   2.0000     -10.292325      -280.0684
  10   2.0000     -10.284928      -279.8671
  11   2.0000     -10.283362      -279.8245
  12   2.0000     -10.282678      -279.8059
  13   2.0000     -10.282384      -279.7979
  14   2.0000     -10.274508      -279.5836
  15   2.0000     -10.271769      -279.5090
  16   2.0000      -8.084512      -219.9908
  17   2.0000      -8.074487      -219.7180
  18   2.0000      -6.042959      -164.4373
  19   2.0000      -6.039151      -164.3336
  20   2.0000      -6.035340      -164.2300
  21   2.0000      -6.033291      -164.1742
  22   2.0000      -6.029313      -164.0660
  23   2.0000      -6.024855      -163.9447
  24   2.0000      -1.008144       -27.4330
  25   2.0000      -0.982763       -26.7423
  26   2.0000      -0.915918       -24.9234
  27   2.0000      -0.904406       -24.6101
  28   2.0000      -0.870843       -23.6969
  29   2.0000      -0.853617       -23.2281
  30   2.0000      -0.843733       -22.9591
  31   2.0000      -0.818156       -22.2631
  32   2.0000      -0.787840       -21.4382
  33   2.0000      -0.774593       -21.0777
  34   2.0000      -0.710371       -19.3302
  35   2.0000      -0.705046       -19.1853
  36   2.0000      -0.699596       -19.0370
  37   2.0000      -0.670633       -18.2489
  38   2.0000      -0.642039       -17.4708
  39   2.0000      -0.618203       -16.8222
  40   2.0000      -0.590852       -16.0779
  41   2.0000      -0.575593       -15.6627
  42   2.0000      -0.566697       -15.4206
  43   2.0000      -0.560853       -15.2616
  44   2.0000      -0.543816       -14.7980
  45   2.0000      -0.523471       -14.2444
  46   2.0000      -0.521236       -14.1836
  47   2.0000      -0.515858       -14.0372
  48   2.0000      -0.509667       -13.8687
  49   2.0000      -0.492621       -13.4049
  50   2.0000      -0.490667       -13.3517
  51   2.0000      -0.482247       -13.1226
  52   2.0000      -0.471115       -12.8197
  53   2.0000      -0.466409       -12.6916
  54   2.0000      -0.456409       -12.4195
  55   2.0000      -0.449610       -12.2345
  56   2.0000      -0.442310       -12.0359
  57   2.0000      -0.438091       -11.9211
  58   2.0000      -0.436719       -11.8837
  59   2.0000      -0.431479       -11.7411
  60   2.0000      -0.418934       -11.3998
  61   2.0000      -0.411189       -11.1890
  62   2.0000      -0.409829       -11.1520
  63   2.0000      -0.351102        -9.5540
  64   2.0000      -0.334126        -9.0920
  65   2.0000      -0.326226        -8.8771
  66   2.0000      -0.289939        -7.8896
  67   0.0000       0.028268         0.7692
  68   0.0000       0.069559         1.8928
  69   0.0000       0.109953         2.9920
  70   0.0000       0.111131         3.0240
  71   0.0000       0.128188         3.4882

MULLIKEN ATOMIC CHARGES
-----------------------
   0 S :    0.106287
   1 C :   -0.110815
   2 C :   -0.064685
   3 C :    0.010092
   4 C :   -0.117856
   5 H :   -0.017217
   6 C :    0.098541
   7 H :    0.025320
   8 H :    0.039188
   9 C :   -0.067478
  10 H :    0.021648
  11 H :    0.020079
  12 C :   -0.044015
  13 H :    0.038665
  14 H :    0.023516
  15 H :    0.023666
  16 S :    0.071871
  17 C :   -0.056829
  18 C :   -0.004691
  19 C :   -0.115115
  20 C :   -0.113693
  21 H :    0.004095
  22 C :    0.108300
  23 H :    0.005280
  24 H :    0.015669
  25 C :   -0.042243
  26 H :    0.017735
  27 H :    0.030388
  28 C :   -0.050087
  29 H :    0.026800
  30 H :    0.034788
  31 H :    0.026856
  32 H :    0.021676
  33 H :    0.034264
Sum of atomic charges:   -0.0000000

LOEWDIN ATOMIC CHARGES
----------------------
   0 S :    0.420446
   1 C :   -0.177140
   2 C :   -0.057368
   3 C :   -0.064579
   4 C :   -0.197158
   5 H :    0.016447
   6 C :   -0.015778
   7 H :    0.032782
   8 H :    0.036460
   9 C :   -0.042245
  10 H :    0.023045
  11 H :    0.022263
  12 C :   -0.070394
  13 H :    0.033244
  14 H :    0.025792
  15 H :    0.021622
  16 S :    0.354596
  17 C :   -0.149447
  18 C :   -0.057251
  19 C :   -0.061843
  20 C :   -0.171139
  21 H :    0.022367
  22 C :   -0.036122
  23 H :    0.025429
  24 H :    0.016683
  25 C :   -0.028179
  26 H :    0.015782
  27 H :    0.025622
  28 C :   -0.061571
  29 H :    0.024762
  30 H :    0.021489
  31 H :    0.025040
  32 H :    0.010269
  33 H :    0.016074

  Mayer bond orders larger than 0.100000
B(  0-S ,  1-C ) :   1.1561 B(  0-S ,  4-C ) :   1.1364 B(  1-C ,  2-C ) :   1.5769
B(  1-C , 32-H ) :   0.9731 B(  2-C ,  3-C ) :   1.2652 B(  2-C ,  6-C ) :   1.0243
B(  3-C ,  4-C ) :   1.5857 B(  3-C ,  5-H ) :   0.9919 B(  4-C , 20-C ) :   1.0238
B(  6-C ,  7-H ) :   0.9321 B(  6-C ,  8-H ) :   0.9426 B(  6-C ,  9-C ) :   1.0829
B(  9-C , 10-H ) :   0.9570 B(  9-C , 11-H ) :   0.9588 B(  9-C , 12-C ) :   1.0626
B( 12-C , 13-H ) :   0.9749 B( 12-C , 14-H ) :   0.9783 B( 12-C , 15-H ) :   0.9739
B( 16-S , 17-C ) :   1.1182 B( 16-S , 20-C ) :   1.1063 B( 17-C , 18-C ) :   1.6728
B( 17-C , 33-H ) :   0.9734 B( 18-C , 19-C ) :   1.1921 B( 18-C , 21-H ) :   0.9850
B( 19-C , 20-C ) :   1.6470 B( 19-C , 22-C ) :   1.0608 B( 22-C , 23-H ) :   0.9084
B( 22-C , 24-H ) :   0.9302 B( 22-C , 25-C ) :   1.0549 B( 25-C , 26-H ) :   0.9607
B( 25-C , 27-H ) :   0.9538 B( 25-C , 28-C ) :   1.0854 B( 28-C , 29-H ) :   0.9747
B( 28-C , 30-H ) :   0.9784 B( 28-C , 31-H ) :   0.9766

Dispersion correction           -0.014882312
FINAL SINGLE POINT ENERGY     -1339.858028762217

DIPOLE MOMENT
-------------
                                X             Y             Z
Electronic contribution:     21.54235      -7.34810       8.37362
Nuclear contribution   :    -22.15923       7.49135      -8.68486
                        -----------------------------------------
Total Dipole Moment    :     -0.61688       0.14325      -0.31124
                        -----------------------------------------
Magnitude (a.u.)       :      0.70564
Magnitude (Debye)      :      1.79359

Rotational constants in cm-1:     0.017058     0.009615     0.008126
Rotational constants in MHz :   511.389224   288.247528   243.624183

                             ****ORCA TERMINATED NORMALLY****
TOTAL RUN TIME: 0 days 0 hours 0 minutes 22 seconds 278 msec
