                         Program Version 4.2.1 -  RELEASE  -
|  1> ! wB97X-D3 SP def2-SVP
|  2> %pal
|  3> nprocs 24
|  4> end
|  5>
|  6> * xyz 0 1
|  7> S 	 -61.948 	 7.74616 	 -75.7214
|  8> C 	 -62.2645 	 9.26983 	 -75.0632
|  9> C 	 -62.9358 	 10.0982 	 -75.9661
| 10> C 	 -63.1963 	 9.40344 	 -77.1935
| 11> C 	 -62.9093 	 8.09241 	 -77.204
| 12> H 	 -63.6738 	 9.73401 	 -78.0547
| 13> C 	 -63.0989 	 11.5796 	 -75.7225
| 14> H 	 -63.0088 	 11.7376 	 -74.6511
| 15> H 	 -64.1429 	 11.8462 	 -76.0212
| 16> C 	 -62.1082 	 12.5205 	 -76.5085
| 17> H 	 -62.387 	 13.5412 	 -76.3291
| 18> H 	 -61.113 	 12.4373 	 -76.1152
| 19> C 	 -62.0452 	 12.4346 	 -78.0513
| 20> H 	 -61.2818 	 13.1305 	 -78.4125
| 21> H 	 -61.6329 	 11.5175 	 -78.3411
| 22> H 	 -63.0321 	 12.5267 	 -78.5711
| 23> S 	 -61.9988 	 5.96771 	 -78.7053
| 24> C 	 -63.1171 	 5.15991 	 -79.8155
| 25> C 	 -64.351 	 5.81335 	 -79.861
| 26> C 	 -64.4561 	 6.81404 	 -78.906
| 27> C 	 -63.2653 	 7.12787 	 -78.2684
| 28> H 	 -65.0793 	 5.50795 	 -80.5909
| 29> C 	 -65.8395 	 7.34826 	 -78.4061
| 30> H 	 -66.5848 	 7.16236 	 -79.1637
| 31> H 	 -65.6062 	 8.42266 	 -78.4132
| 32> C 	 -66.3007 	 7.07074 	 -76.988
| 33> H 	 -67.2919 	 7.5762 	 -76.8589
| 34> H 	 -65.5636 	 7.40521 	 -76.2803
| 35> C 	 -66.5265 	 5.53696 	 -76.799
| 36> H 	 -65.6067 	 5.01373 	 -77.1635
| 37> H 	 -67.5485 	 5.21771 	 -77.0041
| 38> H 	 -66.5294 	 5.35149 	 -75.6955
| 39> H 	 -61.8677 	 9.62872 	 -74.1627
| 40> H 	 -62.8531 	 4.21268 	 -80.2768
| 41> *
| 42>
| 43>                          ****END OF INPUT****

CARTESIAN COORDINATES (ANGSTROEM)
---------------------------------
  S    -61.948000    7.746160  -75.721400
  C    -62.264500    9.269830  -75.063200
  C    -62.935800   10.098200  -75.966100
  C    -63.196300    9.403440  -77.193500
  C    -62.909300    8.092410  -77.204000
  H    -63.673800    9.734010  -78.054700
  C    -63.098900   11.579600  -75.722500
  H    -63.008800   11.737600  -74.651100
  H    -64.142900   11.846200  -76.021200
  C    -62.108200   12.520500  -76.508500
  H    -62.387000   13.541200  -76.329100
  H    -61.113000   12.437300  -76.115200
  C    -62.045200   12.434600  -78.051300
  H    -61.281800   13.130500  -78.412500
  H    -61.632900   11.517500  -78.341100
  H    -63.032100   12.526700  -78.571100
  S    -61.998800    5.967710  -78.705300
  C    -63.117100    5.159910  -79.815500
  C    -64.351000    5.813350  -79.861000
  C    -64.456100    6.814040  -78.906000
  C    -63.265300    7.127870  -78.268400
  H    -65.079300    5.507950  -80.590900
  C    -65.839500    7.348260  -78.406100
  H    -66.584800    7.162360  -79.163700
  H    -65.606200    8.422660  -78.413200
  C    -66.300700    7.070740  -76.988000
  H    -67.291900    7.576200  -76.858900
  H    -65.563600    7.405210  -76.280300
  C    -66.526500    5.536960  -76.799000
  H    -65.606700    5.013730  -77.163500
  H    -67.548500    5.217710  -77.004100
  H    -66.529400    5.351490  -75.695500
  H    -61.867700    9.628720  -74.162700
  H    -62.853100    4.212680  -80.276800

 Total Charge           Charge          ....    0
 Multiplicity           Mult            ....    1
 Number of Electrons    NEL             ....  134
 Basis Dimension        Dim             ....  322

ORBITAL ENERGIES
----------------

  NO   OCC          E(Eh)            E(eV)
   0   2.0000     -88.966185     -2420.8930
   1   2.0000     -88.964273     -2420.8409
   2   2.0000     -10.329877      -281.0903
   3   2.0000     -10.329528      -281.0807
   4   2.0000     -10.323459      -280.9156
   5   2.0000     -10.310192      -280.5546
   6   2.0000     -10.305252      -280.4202
   7   2.0000     -10.301270      -280.3118
   8   2.0000     -10.297948      -280.2214
   9   2.0000     -10.295633      -280.1584
  10   2.0000     -10.289690      -279.9967
  11   2.0000     -10.286567      -279.9117
  12   2.0000     -10.286483      -279.9094
  13   2.0000     -10.285356      -279.8788
  14   2.0000     -10.276066      -279.6260
  15   2.0000     -10.275728      -279.6168
  16   2.0000      -8.080467      -219.8807
  17   2.0000      -8.079409      -219.8519
  18   2.0000      -6.038807      -164.3243
  19   2.0000      -6.037937      -164.3006
  20   2.0000      -6.035070      -164.2226
  21   2.0000      -6.033818      -164.1885
  22   2.0000      -6.031404      -164.1228
  23   2.0000      -6.030162      -164.0891
  24   2.0000      -1.007460       -27.4144
  25   2.0000      -0.986979       -26.8571
  26   2.0000      -0.904029       -24.5999
  27   2.0000      -0.903596       -24.5881
  28   2.0000      -0.873210       -23.7612
  29   2.0000      -0.850469       -23.1424
  30   2.0000      -0.843426       -22.9508
  31   2.0000      -0.819258       -22.2932
  32   2.0000      -0.780580       -21.2407
  33   2.0000      -0.769911       -20.9503
  34   2.0000      -0.705506       -19.1978
  35   2.0000      -0.701367       -19.0852
  36   2.0000      -0.684156       -18.6168
  37   2.0000      -0.666955       -18.1488
  38   2.0000      -0.651376       -17.7248
  39   2.0000      -0.615884       -16.7591
  40   2.0000      -0.588477       -16.0133
  41   2.0000      -0.571225       -15.5438
  42   2.0000      -0.556554       -15.1446
  43   2.0000      -0.553922       -15.0730
  44   2.0000      -0.540842       -14.7171
  45   2.0000      -0.537708       -14.6318
  46   2.0000      -0.515376       -14.0241
  47   2.0000      -0.510083       -13.8801
  48   2.0000      -0.506442       -13.7810
  49   2.0000      -0.498734       -13.5713
  50   2.0000      -0.484080       -13.1725
  51   2.0000      -0.478543       -13.0218
  52   2.0000      -0.471633       -12.8338
  53   2.0000      -0.467865       -12.7312
  54   2.0000      -0.459549       -12.5050
  55   2.0000      -0.446880       -12.1602
  56   2.0000      -0.438311       -11.9270
  57   2.0000      -0.435720       -11.8566
  58   2.0000      -0.432871       -11.7790
  59   2.0000      -0.422676       -11.5016
  60   2.0000      -0.417501       -11.3608
  61   2.0000      -0.413908       -11.2630
  62   2.0000      -0.406611       -11.0644
  63   2.0000      -0.352471        -9.5912
  64   2.0000      -0.334125        -9.0920
  65   2.0000      -0.324369        -8.8265
  66   2.0000      -0.288905        -7.8615
  67   0.0000       0.023760         0.6465
  68   0.0000       0.069084         1.8799
  69   0.0000       0.105554         2.8723
  70   0.0000       0.119979         3.2648
  71   0.0000       0.134293         3.6543

MULLIKEN ATOMIC CHARGES
-----------------------
   0 S :    0.108686
   1 C :   -0.084229
   2 C :   -0.099366
   3 C :    0.044226
   4 C :   -0.143371
   5 H :   -0.009989
   6 C :    0.073283
   7 H :    0.021431
   8 H :    0.029162
   9 C :   -0.054885
  10 H :    0.023423
  11 H :    0.020418
  12 C :   -0.054437
  13 H :    0.034230
  14 H :    0.023741
  15 H :    0.040300
  16 S :    0.092545
  17 C :   -0.105666
  18 C :   -0.029246
  19 C :   -0.058725
  20 C :   -0.173548
  21 H :    0.022677
  22 C :    0.084569
  23 H :    0.014806
  24 H :    0.016566
  25 C :   -0.053639
  26 H :    0.038152
  27 H :    0.045021
  28 C :   -0.077563
  29 H :    0.060290
  30 H :    0.034232
  31 H :    0.021865
  32 H :    0.028949
  33 H :    0.066092
Sum of atomic charges:    0.0000000

LOEWDIN ATOMIC CHARGES
----------------------
   0 S :    0.400603
   1 C :   -0.199515
   2 C :   -0.068198
   3 C :   -0.056778
   4 C :   -0.182772
   5 H :    0.021638
   6 C :   -0.031238
   7 H :    0.030666
   8 H :    0.032379
   9 C :   -0.034576
  10 H :    0.021563
  11 H :    0.021523
  12 C :   -0.067062
  13 H :    0.032394
  14 H :    0.015808
  15 H :    0.029086
  16 S :    0.389028
  17 C :   -0.170436
  18 C :   -0.070807
  19 C :   -0.060339
  20 C :   -0.192554
  21 H :    0.034401
  22 C :   -0.031354
  23 H :    0.024709
  24 H :    0.031681
  25 C :   -0.036271
  26 H :    0.033333
  27 H :    0.026397
  28 C :   -0.080899
  29 H :    0.036646
  30 H :    0.025299
  31 H :    0.027643
  32 H :    0.019061
  33 H :    0.028938

  Mayer bond orders larger than 0.100000
B(  0-S ,  1-C ) :   1.1591 B(  0-S ,  4-C ) :   1.1165 B(  1-C ,  2-C ) :   1.5941
B(  1-C , 32-H ) :   0.9722 B(  2-C ,  3-C ) :   1.2168 B(  2-C ,  6-C ) :   1.0361
B(  3-C ,  4-C ) :   1.6073 B(  3-C ,  5-H ) :   1.0023 B(  4-C , 20-C ) :   1.0455
B(  6-C ,  7-H ) :   0.9405 B(  6-C ,  8-H ) :   0.9375 B(  6-C ,  9-C ) :   1.0627
B(  9-C , 10-H ) :   0.9574 B(  9-C , 11-H ) :   0.9551 B(  9-C , 12-C ) :   1.0871
B( 12-C , 13-H ) :   0.9687 B( 12-C , 14-H ) :   0.9698 B( 12-C , 15-H ) :   0.9748
B( 16-S , 17-C ) :   1.1678 B( 16-S , 20-C ) :   1.1345 B( 17-C , 18-C ) :   1.5798
B( 17-C , 20-C ) :   0.1087 B( 17-C , 33-H ) :   0.9685 B( 18-C , 19-C ) :   1.2621
B( 18-C , 21-H ) :   0.9946 B( 19-C , 20-C ) :   1.5837 B( 19-C , 22-C ) :   1.0185
B( 22-C , 23-H ) :   0.9387 B( 22-C , 24-H ) :   0.9254 B( 22-C , 25-C ) :   1.0824
B( 25-C , 26-H ) :   0.9508 B( 25-C , 27-H ) :   0.9530 B( 25-C , 28-C ) :   1.0786
B( 28-C , 29-H ) :   0.9735 B( 28-C , 30-H ) :   0.9755 B( 28-C , 31-H ) :   0.9744

Dispersion correction           -0.015494740
FINAL SINGLE POINT ENERGY     -1339.864109278423

DIPOLE MOMENT
-------------
                                X             Y             Z
Electronic contribution:     13.81601     -15.21790      -1.12061
Nuclear contribution   :    -14.18484      15.57241       1.06827
                        -----------------------------------------
Total Dipole Moment    :     -0.36883       0.35451      -0.05234
                        -----------------------------------------
Magnitude (a.u.)       :      0.51425
Magnitude (Debye)      :      1.30713

Rotational constants in cm-1:     0.020219     0.008574     0.007971
Rotational constants in MHz :   606.152057   257.054480   238.961595

                             ****ORCA TERMINATED NORMALLY****
TOTAL RUN TIME: 0 days 0 hours 0 minutes 22 seconds 395 msec
