                         Program Version 4.2.1 -  RELEASE  -
|  1> ! wB97X-D3 SP def2-SVP
|  2> %pal
|  3> nprocs 24
|  4> end
|  5>
|  6> * xyz 0 1
|  7> S 	 -60.404 	 18.6974 	 18.7528
|  8> C 	 -60.7217 	 17.4134 	 19.8399
|  9> C 	 -60.6959 	 17.7415 	 21.155
| 10> C 	 -60.2746 	 19.0703 	 21.3281
| 11> C 	 -60.145 	 19.7918 	 20.1045
| 12> H 	 -60.0512 	 19.5799 	 22.2219
| 13> C 	 -60.8366 	 16.7348 	 22.2543
| 14> H 	 -59.9655 	 16.0594 	 22.1519
| 15> H 	 -61.6239 	 16.0953 	 21.8825
| 16> C 	 -61.0892 	 17.3063 	 23.72
| 17> H 	 -60.2796 	 18.0351 	 23.9759
| 18> H 	 -61.9628 	 17.887 	 23.6268
| 19> C 	 -61.4237 	 16.176 	 24.6602
| 20> H 	 -61.7818 	 16.5573 	 25.5534
| 21> H 	 -62.2115 	 15.6377 	 24.2364
| 22> H 	 -60.6861 	 15.4839 	 24.9394
| 23> S 	 -60.6557 	 21.873 	 18.4375
| 24> C 	 -60.1842 	 23.5076 	 18.8866
| 25> C 	 -59.669 	 23.4897 	 20.1813
| 26> C 	 -59.4327 	 22.2069 	 20.6989
| 27> C 	 -60.0069 	 21.2124 	 19.9297
| 28> H 	 -59.0903 	 24.3443 	 20.5295
| 29> C 	 -58.6497 	 22.0419 	 22.0465
| 30> H 	 -57.875 	 22.7726 	 21.9601
| 31> H 	 -58.242 	 21.0961 	 21.8876
| 32> C 	 -59.4159 	 22.1892 	 23.3511
| 33> H 	 -60.348 	 21.7094 	 23.2535
| 34> H 	 -59.6616 	 23.2369 	 23.4785
| 35> C 	 -58.5459 	 21.613 	 24.5028
| 36> H 	 -58.5859 	 20.5195 	 24.4243
| 37> H 	 -59.0619 	 21.702 	 25.4657
| 38> H 	 -57.4896 	 21.849 	 24.4994
| 39> H 	 -60.9642 	 16.4446 	 19.4059
| 40> H 	 -60.1827 	 24.4044 	 18.2709
| 41> *
| 42>
| 43>                          ****END OF INPUT****

CARTESIAN COORDINATES (ANGSTROEM)
---------------------------------
  S    -60.404000   18.697400   18.752800
  C    -60.721700   17.413400   19.839900
  C    -60.695900   17.741500   21.155000
  C    -60.274600   19.070300   21.328100
  C    -60.145000   19.791800   20.104500
  H    -60.051200   19.579900   22.221900
  C    -60.836600   16.734800   22.254300
  H    -59.965500   16.059400   22.151900
  H    -61.623900   16.095300   21.882500
  C    -61.089200   17.306300   23.720000
  H    -60.279600   18.035100   23.975900
  H    -61.962800   17.887000   23.626800
  C    -61.423700   16.176000   24.660200
  H    -61.781800   16.557300   25.553400
  H    -62.211500   15.637700   24.236400
  H    -60.686100   15.483900   24.939400
  S    -60.655700   21.873000   18.437500
  C    -60.184200   23.507600   18.886600
  C    -59.669000   23.489700   20.181300
  C    -59.432700   22.206900   20.698900
  C    -60.006900   21.212400   19.929700
  H    -59.090300   24.344300   20.529500
  C    -58.649700   22.041900   22.046500
  H    -57.875000   22.772600   21.960100
  H    -58.242000   21.096100   21.887600
  C    -59.415900   22.189200   23.351100
  H    -60.348000   21.709400   23.253500
  H    -59.661600   23.236900   23.478500
  C    -58.545900   21.613000   24.502800
  H    -58.585900   20.519500   24.424300
  H    -59.061900   21.702000   25.465700
  H    -57.489600   21.849000   24.499400
  H    -60.964200   16.444600   19.405900
  H    -60.182700   24.404400   18.270900

 Total Charge           Charge          ....    0
 Multiplicity           Mult            ....    1
 Number of Electrons    NEL             ....  134
 Basis Dimension        Dim             ....  322

ORBITAL ENERGIES
----------------

  NO   OCC          E(Eh)            E(eV)
   0   2.0000     -88.967252     -2420.9220
   1   2.0000     -88.964965     -2420.8598
   2   2.0000     -10.329952      -281.0923
   3   2.0000     -10.324988      -280.9572
   4   2.0000     -10.317831      -280.7625
   5   2.0000     -10.306376      -280.4508
   6   2.0000     -10.297337      -280.2048
   7   2.0000     -10.295345      -280.1506
   8   2.0000     -10.293847      -280.1098
   9   2.0000     -10.293245      -280.0934
  10   2.0000     -10.292118      -280.0628
  11   2.0000     -10.288164      -279.9552
  12   2.0000     -10.286128      -279.8998
  13   2.0000     -10.285569      -279.8846
  14   2.0000     -10.283391      -279.8253
  15   2.0000     -10.265895      -279.3492
  16   2.0000      -8.082490      -219.9357
  17   2.0000      -8.079434      -219.8526
  18   2.0000      -6.040869      -164.3804
  19   2.0000      -6.038039      -164.3034
  20   2.0000      -6.036907      -164.2726
  21   2.0000      -6.033923      -164.1914
  22   2.0000      -6.033401      -164.1772
  23   2.0000      -6.030166      -164.0892
  24   2.0000      -1.009134       -27.4599
  25   2.0000      -0.986051       -26.8318
  26   2.0000      -0.913840       -24.8669
  27   2.0000      -0.910032       -24.7632
  28   2.0000      -0.874644       -23.8003
  29   2.0000      -0.856311       -23.3014
  30   2.0000      -0.848448       -23.0874
  31   2.0000      -0.814701       -22.1691
  32   2.0000      -0.783701       -21.3256
  33   2.0000      -0.773263       -21.0416
  34   2.0000      -0.722033       -19.6475
  35   2.0000      -0.710347       -19.3295
  36   2.0000      -0.693473       -18.8704
  37   2.0000      -0.666335       -18.1319
  38   2.0000      -0.641157       -17.4468
  39   2.0000      -0.620834       -16.8938
  40   2.0000      -0.589694       -16.0464
  41   2.0000      -0.569716       -15.5028
  42   2.0000      -0.568203       -15.4616
  43   2.0000      -0.561023       -15.2662
  44   2.0000      -0.529691       -14.4136
  45   2.0000      -0.527333       -14.3494
  46   2.0000      -0.515575       -14.0295
  47   2.0000      -0.511118       -13.9082
  48   2.0000      -0.507473       -13.8090
  49   2.0000      -0.505249       -13.7485
  50   2.0000      -0.492349       -13.3975
  51   2.0000      -0.484260       -13.1774
  52   2.0000      -0.480777       -13.0826
  53   2.0000      -0.472537       -12.8584
  54   2.0000      -0.460233       -12.5236
  55   2.0000      -0.449306       -12.2262
  56   2.0000      -0.443697       -12.0736
  57   2.0000      -0.442431       -12.0392
  58   2.0000      -0.434528       -11.8241
  59   2.0000      -0.431459       -11.7406
  60   2.0000      -0.424453       -11.5499
  61   2.0000      -0.421570       -11.4715
  62   2.0000      -0.410856       -11.1800
  63   2.0000      -0.356491        -9.7006
  64   2.0000      -0.335760        -9.1365
  65   2.0000      -0.330224        -8.9858
  66   2.0000      -0.275876        -7.5070
  67   0.0000       0.018095         0.4924
  68   0.0000       0.080352         2.1865
  69   0.0000       0.105203         2.8627
  70   0.0000       0.121250         3.2994
  71   0.0000       0.126768         3.4495

MULLIKEN ATOMIC CHARGES
-----------------------
   0 S :    0.116727
   1 C :   -0.145934
   2 C :   -0.033457
   3 C :    0.023122
   4 C :   -0.149575
   5 H :   -0.039655
   6 C :    0.030292
   7 H :    0.044971
   8 H :    0.016533
   9 C :   -0.083138
  10 H :    0.048754
  11 H :    0.023586
  12 C :    0.047232
  13 H :    0.007998
  14 H :    0.008878
  15 H :    0.022097
  16 S :    0.094716
  17 C :   -0.103929
  18 C :   -0.016639
  19 C :   -0.119223
  20 C :   -0.110145
  21 H :    0.022473
  22 C :    0.078518
  23 H :    0.015609
  24 H :    0.008760
  25 C :   -0.016451
  26 H :    0.022653
  27 H :    0.024018
  28 C :   -0.041540
  29 H :    0.015173
  30 H :    0.034387
  31 H :    0.043548
  32 H :    0.045605
  33 H :    0.064034
Sum of atomic charges:   -0.0000000

LOEWDIN ATOMIC CHARGES
----------------------
   0 S :    0.420239
   1 C :   -0.206782
   2 C :   -0.069193
   3 C :   -0.057860
   4 C :   -0.189846
   5 H :    0.017786
   6 C :   -0.034824
   7 H :    0.037763
   8 H :    0.029636
   9 C :   -0.031664
  10 H :    0.027925
  11 H :    0.023412
  12 C :   -0.050118
  13 H :    0.019883
  14 H :    0.023494
  15 H :    0.021173
  16 S :    0.397767
  17 C :   -0.185426
  18 C :   -0.079688
  19 C :   -0.062600
  20 C :   -0.193617
  21 H :    0.031308
  22 C :   -0.019731
  23 H :    0.027070
  24 H :    0.018928
  25 C :   -0.032714
  26 H :    0.018899
  27 H :    0.024781
  28 C :   -0.067079
  29 H :    0.024913
  30 H :    0.029429
  31 H :    0.028008
  32 H :    0.025065
  33 H :    0.033663

  Mayer bond orders larger than 0.100000
B(  0-S ,  1-C ) :   1.1542 B(  0-S ,  4-C ) :   1.1591 B(  1-C ,  2-C ) :   1.5808
B(  1-C ,  4-C ) :   0.1005 B(  1-C , 32-H ) :   0.9703 B(  2-C ,  3-C ) :   1.2768
B(  2-C ,  6-C ) :   1.0074 B(  3-C ,  4-C ) :   1.5117 B(  3-C ,  5-H ) :   0.9972
B(  4-C , 20-C ) :   1.1000 B(  6-C ,  7-H ) :   0.9411 B(  6-C ,  8-H ) :   0.9349
B(  6-C ,  9-C ) :   1.0603 B(  9-C , 10-H ) :   0.9505 B(  9-C , 11-H ) :   0.9557
B(  9-C , 12-C ) :   1.0874 B( 12-C , 13-H ) :   0.9671 B( 12-C , 14-H ) :   0.9671
B( 12-C , 15-H ) :   0.9744 B( 16-S , 17-C ) :   1.1521 B( 16-S , 20-C ) :   1.1290
B( 17-C , 18-C ) :   1.5969 B( 17-C , 20-C ) :   0.1032 B( 17-C , 33-H ) :   0.9670
B( 18-C , 19-C ) :   1.2871 B( 18-C , 21-H ) :   0.9699 B( 19-C , 20-C ) :   1.5758
B( 19-C , 22-C ) :   1.0247 B( 22-C , 23-H ) :   0.9274 B( 22-C , 24-H ) :   0.9371
B( 22-C , 25-C ) :   1.0641 B( 25-C , 26-H ) :   0.9534 B( 25-C , 27-H ) :   0.9494
B( 25-C , 28-C ) :   1.0757 B( 28-C , 29-H ) :   0.9728 B( 28-C , 30-H ) :   0.9707
B( 28-C , 31-H ) :   0.9746

Dispersion correction           -0.014254412
FINAL SINGLE POINT ENERGY     -1339.864300684361

DIPOLE MOMENT
-------------
                                X             Y             Z
Electronic contribution:     -3.00499       7.19268     -32.22705
Nuclear contribution   :      3.13918      -7.37722      32.90170
                        -----------------------------------------
Total Dipole Moment    :      0.13419      -0.18454       0.67465
                        -----------------------------------------
Magnitude (a.u.)       :      0.71219
Magnitude (Debye)      :      1.81023

Rotational constants in cm-1:     0.017193     0.009691     0.006502
Rotational constants in MHz :   515.434120   290.521626   194.914629

                             ****ORCA TERMINATED NORMALLY****
TOTAL RUN TIME: 0 days 0 hours 0 minutes 20 seconds 978 msec
