                         Program Version 4.2.1 -  RELEASE  -
|  1> ! wB97X-D3 SP def2-SVP
|  2> %pal
|  3> nprocs 24
|  4> end
|  5>
|  6> * xyz 0 1
|  7> S 	 -87.602 	 -6.6778 	 -61.7018
|  8> C 	 -88.5662 	 -5.26296 	 -62.1092
|  9> C 	 -88.0141 	 -4.1424 	 -61.5339
| 10> C 	 -87.0154 	 -4.50245 	 -60.5316
| 11> C 	 -86.7479 	 -5.81738 	 -60.4028
| 12> H 	 -86.4735 	 -3.83944 	 -59.8373
| 13> C 	 -88.5151 	 -2.7545 	 -61.7512
| 14> H 	 -88.7414 	 -2.34726 	 -60.8309
| 15> H 	 -89.3869 	 -2.51651 	 -62.3223
| 16> C 	 -87.4004 	 -1.84072 	 -62.3352
| 17> H 	 -87.7885 	 -0.883525 	 -62.621
| 18> H 	 -86.7217 	 -1.6204 	 -61.5558
| 19> C 	 -86.744 	 -2.35082 	 -63.6007
| 20> H 	 -85.9008 	 -1.66977 	 -63.995
| 21> H 	 -86.3002 	 -3.28896 	 -63.4672
| 22> H 	 -87.5595 	 -2.43379 	 -64.3914
| 23> S 	 -85.0984 	 -7.92085 	 -60.0966
| 24> C 	 -84.1299 	 -8.04273 	 -58.6345
| 25> C 	 -84.3217 	 -6.95037 	 -57.7891
| 26> C 	 -85.4951 	 -6.17216 	 -58.1489
| 27> C 	 -85.8519 	 -6.4876 	 -59.4515
| 28> H 	 -83.7822 	 -6.80196 	 -56.8295
| 29> C 	 -85.9209 	 -4.90257 	 -57.4429
| 30> H 	 -86.8591 	 -4.5123 	 -57.9033
| 31> H 	 -85.2564 	 -4.05021 	 -57.5654
| 32> C 	 -86.148 	 -4.94476 	 -55.8865
| 33> H 	 -86.6815 	 -4.0761 	 -55.611
| 34> H 	 -85.1697 	 -4.94267 	 -55.4372
| 35> C 	 -86.9587 	 -6.06367 	 -55.2969
| 36> H 	 -86.3749 	 -7.00725 	 -55.3828
| 37> H 	 -87.9587 	 -6.30693 	 -55.73
| 38> H 	 -87.1505 	 -5.81822 	 -54.239
| 39> H 	 -89.3705 	 -5.35499 	 -62.8818
| 40> H 	 -83.4012 	 -8.76285 	 -58.3771
| 41> *
| 42>
| 43>                          ****END OF INPUT****

CARTESIAN COORDINATES (ANGSTROEM)
---------------------------------
  S    -87.602000   -6.677800  -61.701800
  C    -88.566200   -5.262960  -62.109200
  C    -88.014100   -4.142400  -61.533900
  C    -87.015400   -4.502450  -60.531600
  C    -86.747900   -5.817380  -60.402800
  H    -86.473500   -3.839440  -59.837300
  C    -88.515100   -2.754500  -61.751200
  H    -88.741400   -2.347260  -60.830900
  H    -89.386900   -2.516510  -62.322300
  C    -87.400400   -1.840720  -62.335200
  H    -87.788500   -0.883525  -62.621000
  H    -86.721700   -1.620400  -61.555800
  C    -86.744000   -2.350820  -63.600700
  H    -85.900800   -1.669770  -63.995000
  H    -86.300200   -3.288960  -63.467200
  H    -87.559500   -2.433790  -64.391400
  S    -85.098400   -7.920850  -60.096600
  C    -84.129900   -8.042730  -58.634500
  C    -84.321700   -6.950370  -57.789100
  C    -85.495100   -6.172160  -58.148900
  C    -85.851900   -6.487600  -59.451500
  H    -83.782200   -6.801960  -56.829500
  C    -85.920900   -4.902570  -57.442900
  H    -86.859100   -4.512300  -57.903300
  H    -85.256400   -4.050210  -57.565400
  C    -86.148000   -4.944760  -55.886500
  H    -86.681500   -4.076100  -55.611000
  H    -85.169700   -4.942670  -55.437200
  C    -86.958700   -6.063670  -55.296900
  H    -86.374900   -7.007250  -55.382800
  H    -87.958700   -6.306930  -55.730000
  H    -87.150500   -5.818220  -54.239000
  H    -89.370500   -5.354990  -62.881800
  H    -83.401200   -8.762850  -58.377100

 Total Charge           Charge          ....    0
 Multiplicity           Mult            ....    1
 Number of Electrons    NEL             ....  134
 Basis Dimension        Dim             ....  322

ORBITAL ENERGIES
----------------

  NO   OCC          E(Eh)            E(eV)
   0   2.0000     -88.970597     -2421.0130
   1   2.0000     -88.959065     -2420.6992
   2   2.0000     -10.331488      -281.1341
   3   2.0000     -10.330000      -281.0936
   4   2.0000     -10.320295      -280.8295
   5   2.0000     -10.318725      -280.7868
   6   2.0000     -10.308394      -280.5057
   7   2.0000     -10.308075      -280.4970
   8   2.0000     -10.302568      -280.3471
   9   2.0000     -10.297264      -280.2028
  10   2.0000     -10.297231      -280.2019
  11   2.0000     -10.284463      -279.8545
  12   2.0000     -10.282962      -279.8136
  13   2.0000     -10.277934      -279.6768
  14   2.0000     -10.277804      -279.6733
  15   2.0000     -10.277689      -279.6701
  16   2.0000      -8.085356      -220.0137
  17   2.0000      -8.073922      -219.7026
  18   2.0000      -6.043924      -164.4635
  19   2.0000      -6.039965      -164.3558
  20   2.0000      -6.035929      -164.2460
  21   2.0000      -6.032626      -164.1561
  22   2.0000      -6.028554      -164.0453
  23   2.0000      -6.024326      -163.9302
  24   2.0000      -1.008663       -27.4471
  25   2.0000      -0.984207       -26.7816
  26   2.0000      -0.915379       -24.9087
  27   2.0000      -0.908098       -24.7106
  28   2.0000      -0.870264       -23.6811
  29   2.0000      -0.855211       -23.2715
  30   2.0000      -0.839293       -22.8383
  31   2.0000      -0.817981       -22.2584
  32   2.0000      -0.785896       -21.3853
  33   2.0000      -0.776357       -21.1258
  34   2.0000      -0.706359       -19.2210
  35   2.0000      -0.693730       -18.8773
  36   2.0000      -0.693124       -18.8609
  37   2.0000      -0.659163       -17.9367
  38   2.0000      -0.644799       -17.5459
  39   2.0000      -0.623159       -16.9570
  40   2.0000      -0.598672       -16.2907
  41   2.0000      -0.566070       -15.4036
  42   2.0000      -0.557512       -15.1707
  43   2.0000      -0.555651       -15.1200
  44   2.0000      -0.544454       -14.8154
  45   2.0000      -0.539196       -14.6723
  46   2.0000      -0.518348       -14.1050
  47   2.0000      -0.509341       -13.8599
  48   2.0000      -0.503107       -13.6902
  49   2.0000      -0.499946       -13.6042
  50   2.0000      -0.494362       -13.4523
  51   2.0000      -0.473861       -12.8944
  52   2.0000      -0.467566       -12.7231
  53   2.0000      -0.465959       -12.6794
  54   2.0000      -0.462788       -12.5931
  55   2.0000      -0.448395       -12.2014
  56   2.0000      -0.440615       -11.9897
  57   2.0000      -0.436244       -11.8708
  58   2.0000      -0.435946       -11.8627
  59   2.0000      -0.421996       -11.4831
  60   2.0000      -0.420348       -11.4382
  61   2.0000      -0.410898       -11.1811
  62   2.0000      -0.408171       -11.1069
  63   2.0000      -0.357942        -9.7401
  64   2.0000      -0.335257        -9.1228
  65   2.0000      -0.324185        -8.8215
  66   2.0000      -0.288836        -7.8596
  67   0.0000       0.023491         0.6392
  68   0.0000       0.075794         2.0625
  69   0.0000       0.090961         2.4752
  70   0.0000       0.112669         3.0659
  71   0.0000       0.137894         3.7523

MULLIKEN ATOMIC CHARGES
-----------------------
   0 S :    0.072245
   1 C :   -0.142573
   2 C :   -0.058543
   3 C :   -0.019594
   4 C :   -0.103339
   5 H :    0.020697
   6 C :    0.126020
   7 H :    0.005390
   8 H :    0.015263
   9 C :   -0.085003
  10 H :    0.016747
  11 H :    0.016477
  12 C :   -0.069779
  13 H :    0.045142
  14 H :    0.036286
  15 H :    0.031324
  16 S :    0.112680
  17 C :   -0.065067
  18 C :   -0.051372
  19 C :   -0.028118
  20 C :   -0.129428
  21 H :    0.038962
  22 C :   -0.007211
  23 H :    0.032527
  24 H :    0.045251
  25 C :   -0.050248
  26 H :    0.018118
  27 H :    0.025947
  28 C :   -0.077186
  29 H :    0.035735
  30 H :    0.040223
  31 H :    0.036506
  32 H :    0.073088
  33 H :    0.042831
Sum of atomic charges:    0.0000000

LOEWDIN ATOMIC CHARGES
----------------------
   0 S :    0.362579
   1 C :   -0.185981
   2 C :   -0.059344
   3 C :   -0.069437
   4 C :   -0.178842
   5 H :    0.034927
   6 C :   -0.024579
   7 H :    0.023855
   8 H :    0.029734
   9 C :   -0.039000
  10 H :    0.020896
  11 H :    0.013227
  12 C :   -0.067691
  13 H :    0.035976
  14 H :    0.014558
  15 H :    0.030009
  16 S :    0.408538
  17 C :   -0.180364
  18 C :   -0.065141
  19 C :   -0.062348
  20 C :   -0.181493
  21 H :    0.036390
  22 C :   -0.040923
  23 H :    0.033254
  24 H :    0.033424
  25 C :   -0.039743
  26 H :    0.021709
  27 H :    0.021305
  28 C :   -0.074008
  29 H :    0.026735
  30 H :    0.029673
  31 H :    0.029390
  32 H :    0.039545
  33 H :    0.023170

  Mayer bond orders larger than 0.100000
B(  0-S ,  1-C ) :   1.1236 B(  0-S ,  4-C ) :   1.1140 B(  1-C ,  2-C ) :   1.6247
B(  1-C , 32-H ) :   0.9689 B(  2-C ,  3-C ) :   1.1704 B(  2-C ,  6-C ) :   1.0341
B(  3-C ,  4-C ) :   1.6329 B(  3-C ,  5-H ) :   0.9878 B(  4-C , 20-C ) :   1.0550
B(  6-C ,  7-H ) :   0.9329 B(  6-C ,  8-H ) :   0.9501 B(  6-C ,  9-C ) :   1.0670
B(  9-C , 10-H ) :   0.9572 B(  9-C , 11-H ) :   0.9575 B(  9-C , 12-C ) :   1.0760
B( 12-C , 13-H ) :   0.9730 B( 12-C , 14-H ) :   0.9734 B( 12-C , 15-H ) :   0.9743
B( 16-S , 17-C ) :   1.1338 B( 16-S , 20-C ) :   1.1389 B( 17-C , 18-C ) :   1.6436
B( 17-C , 33-H ) :   0.9727 B( 18-C , 19-C ) :   1.2062 B( 18-C , 21-H ) :   0.9732
B( 19-C , 20-C ) :   1.6014 B( 19-C , 22-C ) :   1.0533 B( 22-C , 23-H ) :   0.9299
B( 22-C , 24-H ) :   0.9387 B( 22-C , 25-C ) :   1.0680 B( 25-C , 26-H ) :   0.9562
B( 25-C , 27-H ) :   0.9528 B( 25-C , 28-C ) :   1.0900 B( 28-C , 29-H ) :   0.9700
B( 28-C , 30-H ) :   0.9749 B( 28-C , 31-H ) :   0.9731

Dispersion correction           -0.014335129
FINAL SINGLE POINT ENERGY     -1339.863382623395

DIPOLE MOMENT
-------------
                                X             Y             Z
Electronic contribution:      3.37461     -21.52610      -9.04033
Nuclear contribution   :     -3.35963      22.21422       9.41612
                        -----------------------------------------
Total Dipole Moment    :      0.01498       0.68811       0.37579
                        -----------------------------------------
Magnitude (a.u.)       :      0.78418
Magnitude (Debye)      :      1.99324

Rotational constants in cm-1:     0.019565     0.008480     0.006938
Rotational constants in MHz :   586.539572   254.210431   207.999125

                             ****ORCA TERMINATED NORMALLY****
TOTAL RUN TIME: 0 days 0 hours 0 minutes 21 seconds 563 msec
