                         Program Version 4.2.1 -  RELEASE  -
|  1> ! wB97X-D3 SP def2-SVP
|  2> %pal
|  3> nprocs 24
|  4> end
|  5>
|  6> * xyz 0 1
|  7> S 	 -89.5704 	 -32.4102 	 -73.4111
|  8> C 	 -89.0534 	 -33.7737 	 -74.3629
|  9> C 	 -89.7568 	 -33.8237 	 -75.512
| 10> C 	 -90.6954 	 -32.7716 	 -75.6568
| 11> C 	 -90.6534 	 -31.8142 	 -74.6703
| 12> H 	 -91.3808 	 -32.6229 	 -76.4664
| 13> C 	 -89.6687 	 -34.9295 	 -76.5882
| 14> H 	 -88.8496 	 -35.6097 	 -76.377
| 15> H 	 -89.3045 	 -34.4295 	 -77.4793
| 16> C 	 -90.9041 	 -35.7315 	 -77.0295
| 17> H 	 -90.441 	 -36.5157 	 -77.5959
| 18> H 	 -91.4307 	 -36.1699 	 -76.1619
| 19> C 	 -91.8292 	 -34.9247 	 -77.9158
| 20> H 	 -91.2538 	 -34.2195 	 -78.5202
| 21> H 	 -92.4288 	 -35.5049 	 -78.6031
| 22> H 	 -92.5503 	 -34.3113 	 -77.3311
| 23> S 	 -91.7 	 -30.151 	 -72.7901
| 24> C 	 -92.9898 	 -29.1036 	 -73.2098
| 25> C 	 -93.1694 	 -29.0265 	 -74.5775
| 26> C 	 -92.2646 	 -29.8587 	 -75.264
| 27> C 	 -91.4924 	 -30.673 	 -74.4513
| 28> H 	 -93.8065 	 -28.2593 	 -75.0297
| 29> C 	 -92.4594 	 -29.8776 	 -76.7595
| 30> H 	 -93.507 	 -30.1906 	 -76.9238
| 31> H 	 -91.8658 	 -30.6079 	 -77.2359
| 32> C 	 -92.1428 	 -28.5286 	 -77.488
| 33> H 	 -91.0416 	 -28.5444 	 -77.6942
| 34> H 	 -92.4157 	 -27.7387 	 -76.8334
| 35> C 	 -93.0706 	 -28.1978 	 -78.7896
| 36> H 	 -94.0895 	 -28.0296 	 -78.3923
| 37> H 	 -93.0388 	 -28.9363 	 -79.6092
| 38> H 	 -92.7948 	 -27.2789 	 -79.2944
| 39> H 	 -88.3494 	 -34.5381 	 -74.1033
| 40> H 	 -93.4673 	 -28.3686 	 -72.5725
| 41> *
| 42>
| 43>                          ****END OF INPUT****

CARTESIAN COORDINATES (ANGSTROEM)
---------------------------------
  S    -89.570400  -32.410200  -73.411100
  C    -89.053400  -33.773700  -74.362900
  C    -89.756800  -33.823700  -75.512000
  C    -90.695400  -32.771600  -75.656800
  C    -90.653400  -31.814200  -74.670300
  H    -91.380800  -32.622900  -76.466400
  C    -89.668700  -34.929500  -76.588200
  H    -88.849600  -35.609700  -76.377000
  H    -89.304500  -34.429500  -77.479300
  C    -90.904100  -35.731500  -77.029500
  H    -90.441000  -36.515700  -77.595900
  H    -91.430700  -36.169900  -76.161900
  C    -91.829200  -34.924700  -77.915800
  H    -91.253800  -34.219500  -78.520200
  H    -92.428800  -35.504900  -78.603100
  H    -92.550300  -34.311300  -77.331100
  S    -91.700000  -30.151000  -72.790100
  C    -92.989800  -29.103600  -73.209800
  C    -93.169400  -29.026500  -74.577500
  C    -92.264600  -29.858700  -75.264000
  C    -91.492400  -30.673000  -74.451300
  H    -93.806500  -28.259300  -75.029700
  C    -92.459400  -29.877600  -76.759500
  H    -93.507000  -30.190600  -76.923800
  H    -91.865800  -30.607900  -77.235900
  C    -92.142800  -28.528600  -77.488000
  H    -91.041600  -28.544400  -77.694200
  H    -92.415700  -27.738700  -76.833400
  C    -93.070600  -28.197800  -78.789600
  H    -94.089500  -28.029600  -78.392300
  H    -93.038800  -28.936300  -79.609200
  H    -92.794800  -27.278900  -79.294400
  H    -88.349400  -34.538100  -74.103300
  H    -93.467300  -28.368600  -72.572500

 Total Charge           Charge          ....    0
 Multiplicity           Mult            ....    1
 Number of Electrons    NEL             ....  134
 Basis Dimension        Dim             ....  322

ORBITAL ENERGIES
----------------

  NO   OCC          E(Eh)            E(eV)
   0   2.0000     -88.966482     -2420.9010
   1   2.0000     -88.962187     -2420.7842
   2   2.0000     -10.329984      -281.0931
   3   2.0000     -10.328940      -281.0647
   4   2.0000     -10.316091      -280.7151
   5   2.0000     -10.309015      -280.5225
   6   2.0000     -10.302159      -280.3360
   7   2.0000     -10.296656      -280.1862
   8   2.0000     -10.296124      -280.1718
   9   2.0000     -10.291910      -280.0571
  10   2.0000     -10.290883      -280.0292
  11   2.0000     -10.290349      -280.0146
  12   2.0000     -10.289650      -279.9956
  13   2.0000     -10.288135      -279.9544
  14   2.0000     -10.287896      -279.9479
  15   2.0000     -10.279639      -279.7232
  16   2.0000      -8.081951      -219.9211
  17   2.0000      -8.077124      -219.7897
  18   2.0000      -6.040426      -164.3683
  19   2.0000      -6.036424      -164.2595
  20   2.0000      -6.035793      -164.2423
  21   2.0000      -6.032622      -164.1560
  22   2.0000      -6.031678      -164.1303
  23   2.0000      -6.027616      -164.0198
  24   2.0000      -1.014187       -27.5974
  25   2.0000      -0.990766       -26.9601
  26   2.0000      -0.913360       -24.8538
  27   2.0000      -0.904787       -24.6205
  28   2.0000      -0.877761       -23.8851
  29   2.0000      -0.848697       -23.0942
  30   2.0000      -0.840290       -22.8655
  31   2.0000      -0.818247       -22.2656
  32   2.0000      -0.785110       -21.3639
  33   2.0000      -0.776323       -21.1248
  34   2.0000      -0.712177       -19.3793
  35   2.0000      -0.701645       -19.0927
  36   2.0000      -0.698682       -19.0121
  37   2.0000      -0.666141       -18.1266
  38   2.0000      -0.641513       -17.4565
  39   2.0000      -0.623094       -16.9553
  40   2.0000      -0.600454       -16.3392
  41   2.0000      -0.574615       -15.6361
  42   2.0000      -0.560092       -15.2409
  43   2.0000      -0.548135       -14.9155
  44   2.0000      -0.538012       -14.6400
  45   2.0000      -0.522204       -14.2099
  46   2.0000      -0.515222       -14.0199
  47   2.0000      -0.512129       -13.9357
  48   2.0000      -0.508441       -13.8354
  49   2.0000      -0.501082       -13.6351
  50   2.0000      -0.496247       -13.5036
  51   2.0000      -0.486297       -13.2328
  52   2.0000      -0.472944       -12.8695
  53   2.0000      -0.467570       -12.7232
  54   2.0000      -0.459978       -12.5166
  55   2.0000      -0.454362       -12.3638
  56   2.0000      -0.438811       -11.9407
  57   2.0000      -0.436940       -11.8897
  58   2.0000      -0.432858       -11.7787
  59   2.0000      -0.429960       -11.6998
  60   2.0000      -0.422507       -11.4970
  61   2.0000      -0.416045       -11.3212
  62   2.0000      -0.408719       -11.1218
  63   2.0000      -0.365585        -9.9481
  64   2.0000      -0.335533        -9.1303
  65   2.0000      -0.325134        -8.8474
  66   2.0000      -0.283181        -7.7058
  67   0.0000       0.020028         0.5450
  68   0.0000       0.084548         2.3007
  69   0.0000       0.102201         2.7810
  70   0.0000       0.117508         3.1975
  71   0.0000       0.139435         3.7942

MULLIKEN ATOMIC CHARGES
-----------------------
   0 S :    0.083477
   1 C :   -0.106934
   2 C :   -0.052171
   3 C :   -0.008653
   4 C :   -0.102394
   5 H :   -0.010803
   6 C :    0.040198
   7 H :    0.006526
   8 H :    0.023940
   9 C :   -0.041015
  10 H :    0.026986
  11 H :    0.042905
  12 C :   -0.053566
  13 H :    0.019759
  14 H :    0.030023
  15 H :    0.045796
  16 S :    0.104147
  17 C :   -0.070474
  18 C :   -0.060675
  19 C :   -0.051244
  20 C :   -0.126227
  21 H :    0.031015
  22 C :    0.061793
  23 H :    0.038441
  24 H :    0.009840
  25 C :   -0.083685
  26 H :    0.050893
  27 H :    0.025827
  28 C :   -0.080260
  29 H :    0.037170
  30 H :    0.040468
  31 H :    0.034651
  32 H :    0.036483
  33 H :    0.057763
Sum of atomic charges:    0.0000000

LOEWDIN ATOMIC CHARGES
----------------------
   0 S :    0.389571
   1 C :   -0.193518
   2 C :   -0.066674
   3 C :   -0.067697
   4 C :   -0.177290
   5 H :    0.023761
   6 C :   -0.031164
   7 H :    0.025320
   8 H :    0.029699
   9 C :   -0.037183
  10 H :    0.026737
  11 H :    0.030445
  12 C :   -0.068819
  13 H :    0.021654
  14 H :    0.024470
  15 H :    0.028974
  16 S :    0.419238
  17 C :   -0.190991
  18 C :   -0.075046
  19 C :   -0.058651
  20 C :   -0.194302
  21 H :    0.035325
  22 C :   -0.032670
  23 H :    0.035911
  24 H :    0.017419
  25 C :   -0.030873
  26 H :    0.032483
  27 H :    0.015415
  28 C :   -0.070429
  29 H :    0.027468
  30 H :    0.024216
  31 H :    0.025196
  32 H :    0.030139
  33 H :    0.031868

  Mayer bond orders larger than 0.100000
B(  0-S ,  1-C ) :   1.1196 B(  0-S ,  4-C ) :   1.1328 B(  1-C ,  2-C ) :   1.6384
B(  1-C , 32-H ) :   0.9687 B(  2-C ,  3-C ) :   1.2337 B(  2-C ,  6-C ) :   1.0133
B(  3-C ,  4-C ) :   1.5802 B(  3-C ,  5-H ) :   0.9907 B(  4-C , 20-C ) :   1.1003
B(  6-C ,  7-H ) :   0.9421 B(  6-C ,  8-H ) :   0.9367 B(  6-C ,  9-C ) :   1.0745
B(  9-C , 10-H ) :   0.9514 B(  9-C , 11-H ) :   0.9557 B(  9-C , 12-C ) :   1.0792
B( 12-C , 13-H ) :   0.9734 B( 12-C , 14-H ) :   0.9691 B( 12-C , 15-H ) :   0.9687
B( 16-S , 17-C ) :   1.1716 B( 16-S , 20-C ) :   1.1265 B( 17-C , 18-C ) :   1.5974
B( 17-C , 33-H ) :   0.9634 B( 18-C , 19-C ) :   1.2584 B( 18-C , 21-H ) :   0.9840
B( 19-C , 20-C ) :   1.5721 B( 19-C , 22-C ) :   1.0442 B( 22-C , 23-H ) :   0.9465
B( 22-C , 24-H ) :   0.9325 B( 22-C , 25-C ) :   1.0407 B( 25-C , 26-H ) :   0.9599
B( 25-C , 27-H ) :   0.9691 B( 25-C , 28-C ) :   1.0575 B( 28-C , 29-H ) :   0.9781
B( 28-C , 30-H ) :   0.9808 B( 28-C , 31-H ) :   0.9778

Dispersion correction           -0.013779776
FINAL SINGLE POINT ENERGY     -1339.874555085630

DIPOLE MOMENT
-------------
                                X             Y             Z
Electronic contribution:      8.54082       3.50299      29.20731
Nuclear contribution   :     -8.82877      -3.55979     -29.91657
                        -----------------------------------------
Total Dipole Moment    :     -0.28794      -0.05681      -0.70925
                        -----------------------------------------
Magnitude (a.u.)       :      0.76758
Magnitude (Debye)      :      1.95103

Rotational constants in cm-1:     0.016074     0.009528     0.006564
Rotational constants in MHz :   481.875071   285.656805   196.769070

                             ****ORCA TERMINATED NORMALLY****
TOTAL RUN TIME: 0 days 0 hours 0 minutes 21 seconds 472 msec
