                         Program Version 4.2.1 -  RELEASE  -
|  1> ! wB97X-D3 SP def2-SVP
|  2> %pal
|  3> nprocs 24
|  4> end
|  5>
|  6> * xyz 0 1
|  7> S 	 -133.574 	 56.8602 	 -59.3187
|  8> C 	 -132.421 	 58.1092 	 -59.8611
|  9> C 	 -131.314 	 57.5476 	 -60.441
| 10> C 	 -131.299 	 56.1201 	 -60.3749
| 11> C 	 -132.47 	 55.6455 	 -59.8377
| 12> H 	 -130.552 	 55.3756 	 -60.7279
| 13> C 	 -130.135 	 58.3884 	 -60.9554
| 14> H 	 -129.276 	 57.7982 	 -61.1473
| 15> H 	 -129.867 	 59.0959 	 -60.1566
| 16> C 	 -130.378 	 59.1995 	 -62.2205
| 17> H 	 -130.637 	 58.5642 	 -63.0909
| 18> H 	 -131.293 	 59.834 	 -62.0125
| 19> C 	 -129.135 	 60.1176 	 -62.4218
| 20> H 	 -128.195 	 59.5528 	 -62.3839
| 21> H 	 -129.191 	 60.6112 	 -63.3643
| 22> H 	 -128.921 	 60.8442 	 -61.6219
| 23> S 	 -133.108 	 53.4886 	 -58.1933
| 24> C 	 -133.294 	 51.9289 	 -58.9806
| 25> C 	 -133.009 	 51.946 	 -60.3345
| 26> C 	 -132.889 	 53.2671 	 -60.8217
| 27> C 	 -132.797 	 54.2247 	 -59.7873
| 28> H 	 -133.045 	 50.9545 	 -60.9473
| 29> C 	 -132.588 	 53.5178 	 -62.3011
| 30> H 	 -132.07 	 52.6754 	 -62.7595
| 31> H 	 -131.806 	 54.3348 	 -62.4004
| 32> C 	 -133.8 	 53.9509 	 -63.1771
| 33> H 	 -134.045 	 54.9507 	 -62.948
| 34> H 	 -134.601 	 53.2579 	 -62.9845
| 35> C 	 -133.534 	 54.0482 	 -64.653
| 36> H 	 -133.41 	 53.0214 	 -65.0179
| 37> H 	 -132.689 	 54.6317 	 -65.0413
| 38> H 	 -134.393 	 54.3801 	 -65.2329
| 39> H 	 -132.552 	 59.1537 	 -59.7222
| 40> H 	 -133.464 	 50.9492 	 -58.4997
| 41> *
| 42>
| 43>                          ****END OF INPUT****

CARTESIAN COORDINATES (ANGSTROEM)
---------------------------------
  S    -133.574000   56.860200  -59.318700
  C    -132.421000   58.109200  -59.861100
  C    -131.314000   57.547600  -60.441000
  C    -131.299000   56.120100  -60.374900
  C    -132.470000   55.645500  -59.837700
  H    -130.552000   55.375600  -60.727900
  C    -130.135000   58.388400  -60.955400
  H    -129.276000   57.798200  -61.147300
  H    -129.867000   59.095900  -60.156600
  C    -130.378000   59.199500  -62.220500
  H    -130.637000   58.564200  -63.090900
  H    -131.293000   59.834000  -62.012500
  C    -129.135000   60.117600  -62.421800
  H    -128.195000   59.552800  -62.383900
  H    -129.191000   60.611200  -63.364300
  H    -128.921000   60.844200  -61.621900
  S    -133.108000   53.488600  -58.193300
  C    -133.294000   51.928900  -58.980600
  C    -133.009000   51.946000  -60.334500
  C    -132.889000   53.267100  -60.821700
  C    -132.797000   54.224700  -59.787300
  H    -133.045000   50.954500  -60.947300
  C    -132.588000   53.517800  -62.301100
  H    -132.070000   52.675400  -62.759500
  H    -131.806000   54.334800  -62.400400
  C    -133.800000   53.950900  -63.177100
  H    -134.045000   54.950700  -62.948000
  H    -134.601000   53.257900  -62.984500
  C    -133.534000   54.048200  -64.653000
  H    -133.410000   53.021400  -65.017900
  H    -132.689000   54.631700  -65.041300
  H    -134.393000   54.380100  -65.232900
  H    -132.552000   59.153700  -59.722200
  H    -133.464000   50.949200  -58.499700

 Total Charge           Charge          ....    0
 Multiplicity           Mult            ....    1
 Number of Electrons    NEL             ....  134
 Basis Dimension        Dim             ....  322

ORBITAL ENERGIES
----------------

  NO   OCC          E(Eh)            E(eV)
   0   2.0000     -88.969753     -2420.9901
   1   2.0000     -88.968024     -2420.9430
   2   2.0000     -10.328842      -281.0621
   3   2.0000     -10.324221      -280.9363
   4   2.0000     -10.318786      -280.7884
   5   2.0000     -10.312069      -280.6057
   6   2.0000     -10.306816      -280.4627
   7   2.0000     -10.301859      -280.3278
   8   2.0000     -10.300007      -280.2774
   9   2.0000     -10.295366      -280.1512
  10   2.0000     -10.294759      -280.1346
  11   2.0000     -10.294317      -280.1226
  12   2.0000     -10.288748      -279.9711
  13   2.0000     -10.280773      -279.7541
  14   2.0000     -10.277796      -279.6730
  15   2.0000     -10.273894      -279.5669
  16   2.0000      -8.083618      -219.9664
  17   2.0000      -8.082714      -219.9418
  18   2.0000      -6.042104      -164.4140
  19   2.0000      -6.041223      -164.3900
  20   2.0000      -6.038300      -164.3105
  21   2.0000      -6.037279      -164.2827
  22   2.0000      -6.034414      -164.2047
  23   2.0000      -6.033418      -164.1777
  24   2.0000      -1.005434       -27.3593
  25   2.0000      -0.981256       -26.7013
  26   2.0000      -0.912148       -24.8208
  27   2.0000      -0.904724       -24.6188
  28   2.0000      -0.866529       -23.5795
  29   2.0000      -0.853596       -23.2275
  30   2.0000      -0.846458       -23.0333
  31   2.0000      -0.810589       -22.0573
  32   2.0000      -0.781484       -21.2653
  33   2.0000      -0.768491       -20.9117
  34   2.0000      -0.704978       -19.1834
  35   2.0000      -0.702126       -19.1058
  36   2.0000      -0.689142       -18.7525
  37   2.0000      -0.653524       -17.7833
  38   2.0000      -0.643021       -17.4975
  39   2.0000      -0.613602       -16.6970
  40   2.0000      -0.591332       -16.0910
  41   2.0000      -0.571072       -15.5396
  42   2.0000      -0.566813       -15.4238
  43   2.0000      -0.555380       -15.1126
  44   2.0000      -0.523303       -14.2398
  45   2.0000      -0.519690       -14.1415
  46   2.0000      -0.513604       -13.9759
  47   2.0000      -0.508602       -13.8398
  48   2.0000      -0.504490       -13.7279
  49   2.0000      -0.497026       -13.5248
  50   2.0000      -0.491823       -13.3832
  51   2.0000      -0.478624       -13.0240
  52   2.0000      -0.469988       -12.7890
  53   2.0000      -0.464859       -12.6495
  54   2.0000      -0.460357       -12.5269
  55   2.0000      -0.448011       -12.1910
  56   2.0000      -0.445522       -12.1233
  57   2.0000      -0.439990       -11.9727
  58   2.0000      -0.430201       -11.7064
  59   2.0000      -0.423381       -11.5208
  60   2.0000      -0.420257       -11.4358
  61   2.0000      -0.417874       -11.3709
  62   2.0000      -0.410628       -11.1738
  63   2.0000      -0.338756        -9.2180
  64   2.0000      -0.333851        -9.0846
  65   2.0000      -0.331845        -9.0300
  66   2.0000      -0.295744        -8.0476
  67   0.0000       0.031121         0.8468
  68   0.0000       0.065237         1.7752
  69   0.0000       0.107655         2.9294
  70   0.0000       0.117643         3.2012
  71   0.0000       0.128661         3.5010

MULLIKEN ATOMIC CHARGES
-----------------------
   0 S :    0.121767
   1 C :   -0.117805
   2 C :   -0.053827
   3 C :    0.021124
   4 C :   -0.152169
   5 H :    0.038004
   6 C :    0.052990
   7 H :    0.007034
   8 H :    0.033634
   9 C :   -0.091874
  10 H :    0.041780
  11 H :    0.033134
  12 C :   -0.039252
  13 H :    0.020805
  14 H :    0.034407
  15 H :    0.031296
  16 S :    0.117057
  17 C :   -0.097551
  18 C :   -0.080811
  19 C :    0.009697
  20 C :   -0.189578
  21 H :    0.059481
  22 C :    0.018180
  23 H :    0.018285
  24 H :    0.019446
  25 C :   -0.022784
  26 H :    0.025702
  27 H :    0.027957
  28 C :   -0.062647
  29 H :    0.014205
  30 H :    0.034538
  31 H :    0.030725
  32 H :    0.034724
  33 H :    0.062325
Sum of atomic charges:    0.0000000

LOEWDIN ATOMIC CHARGES
----------------------
   0 S :    0.407007
   1 C :   -0.183452
   2 C :   -0.059065
   3 C :   -0.065144
   4 C :   -0.206006
   5 H :    0.042842
   6 C :   -0.031868
   7 H :    0.020727
   8 H :    0.034622
   9 C :   -0.040438
  10 H :    0.028046
  11 H :    0.026609
  12 C :   -0.068911
  13 H :    0.025062
  14 H :    0.022258
  15 H :    0.029010
  16 S :    0.396289
  17 C :   -0.191242
  18 C :   -0.084946
  19 C :   -0.054275
  20 C :   -0.192958
  21 H :    0.051585
  22 C :   -0.035504
  23 H :    0.025693
  24 H :    0.031962
  25 C :   -0.033285
  26 H :    0.021841
  27 H :    0.024519
  28 C :   -0.071939
  29 H :    0.021183
  30 H :    0.026076
  31 H :    0.027967
  32 H :    0.020841
  33 H :    0.034893

  Mayer bond orders larger than 0.100000
B(  0-S ,  1-C ) :   1.1181 B(  0-S ,  4-C ) :   1.1624 B(  1-C ,  2-C ) :   1.6273
B(  1-C , 32-H ) :   0.9751 B(  2-C ,  3-C ) :   1.2215 B(  2-C ,  6-C ) :   1.0059
B(  3-C ,  4-C ) :   1.5871 B(  3-C ,  5-H ) :   0.9863 B(  4-C , 20-C ) :   1.0243
B(  6-C ,  7-H ) :   0.9457 B(  6-C ,  8-H ) :   0.9476 B(  6-C ,  9-C ) :   1.0590
B(  9-C , 10-H ) :   0.9566 B(  9-C , 11-H ) :   0.9572 B(  9-C , 12-C ) :   1.0697
B( 12-C , 13-H ) :   0.9725 B( 12-C , 14-H ) :   0.9750 B( 12-C , 15-H ) :   0.9740
B( 16-S , 17-C ) :   1.1536 B( 16-S , 20-C ) :   1.1404 B( 17-C , 18-C ) :   1.6285
B( 17-C , 20-C ) :   0.1057 B( 17-C , 33-H ) :   0.9595 B( 18-C , 19-C ) :   1.2478
B( 18-C , 21-H ) :   0.9686 B( 19-C , 20-C ) :   1.5860 B( 19-C , 22-C ) :   1.0366
B( 22-C , 23-H ) :   0.9470 B( 22-C , 24-H ) :   0.9348 B( 22-C , 25-C ) :   1.0556
B( 25-C , 26-H ) :   0.9553 B( 25-C , 27-H ) :   0.9564 B( 25-C , 28-C ) :   1.0897
B( 28-C , 29-H ) :   0.9719 B( 28-C , 30-H ) :   0.9741 B( 28-C , 31-H ) :   0.9720

Dispersion correction           -0.013818043
FINAL SINGLE POINT ENERGY     -1339.878177452260

DIPOLE MOMENT
-------------
                                X             Y             Z
Electronic contribution:    -11.53887     -10.14372      26.72322
Nuclear contribution   :     11.93080      10.16759     -27.25084
                        -----------------------------------------
Total Dipole Moment    :      0.39193       0.02387      -0.52763
                        -----------------------------------------
Magnitude (a.u.)       :      0.65770
Magnitude (Debye)      :      1.67174

Rotational constants in cm-1:     0.018271     0.008259     0.006499
Rotational constants in MHz :   547.761228   247.598626   194.820793

                             ****ORCA TERMINATED NORMALLY****
TOTAL RUN TIME: 0 days 0 hours 0 minutes 21 seconds 228 msec
