                         Program Version 4.2.1 -  RELEASE  -
|  1> ! wB97X-D3 SP def2-SVP
|  2> %pal
|  3> nprocs 24
|  4> end
|  5>
|  6> * xyz 0 1
|  7> S 	 18.6717 	 -7.97585 	 -113.75
|  8> C 	 19.6005 	 -8.32748 	 -112.348
|  9> C 	 19.0832 	 -9.31516 	 -111.542
| 10> C 	 17.832 	 -9.77336 	 -112.007
| 11> C 	 17.475 	 -9.15146 	 -113.17
| 12> H 	 17.2003 	 -10.5165 	 -111.546
| 13> C 	 19.8216 	 -9.96327 	 -110.385
| 14> H 	 19.5863 	 -11.0396 	 -110.294
| 15> H 	 19.4373 	 -9.49973 	 -109.466
| 16> C 	 21.3115 	 -9.79131 	 -110.201
| 17> H 	 21.5361 	 -8.75385 	 -110.063
| 18> H 	 21.6593 	 -10.3998 	 -109.338
| 19> C 	 22.0163 	 -10.1124 	 -111.512
| 20> H 	 23.0674 	 -10.1782 	 -111.325
| 21> H 	 21.652 	 -11.0792 	 -111.918
| 22> H 	 21.8675 	 -9.36804 	 -112.283
| 23> S 	 15.7436 	 -11.131 	 -114.215
| 24> C 	 14.3359 	 -10.5821 	 -115
| 25> C 	 14.417 	 -9.26577 	 -115.416
| 26> C 	 15.5182 	 -8.61053 	 -114.822
| 27> C 	 16.2392 	 -9.36585 	 -113.915
| 28> H 	 13.6707 	 -8.85591 	 -116.023
| 29> C 	 15.7768 	 -7.12791 	 -115.078
| 30> H 	 15.3343 	 -6.77533 	 -116.054
| 31> H 	 16.828 	 -6.90185 	 -115.189
| 32> C 	 15.139 	 -6.18578 	 -113.989
| 33> H 	 15.6558 	 -6.31585 	 -113.013
| 34> H 	 14.1477 	 -6.39224 	 -113.798
| 35> C 	 15.3196 	 -4.62505 	 -114.168
| 36> H 	 15.2571 	 -4.14812 	 -113.178
| 37> H 	 14.5326 	 -4.21883 	 -114.733
| 38> H 	 16.2251 	 -4.52506 	 -114.694
| 39> H 	 20.483 	 -7.79337 	 -111.934
| 40> H 	 13.6172 	 -11.2446 	 -115.459
| 41> *
| 42>
| 43>                          ****END OF INPUT****

CARTESIAN COORDINATES (ANGSTROEM)
---------------------------------
  S     18.671700   -7.975850  -113.750000
  C     19.600500   -8.327480  -112.348000
  C     19.083200   -9.315160  -111.542000
  C     17.832000   -9.773360  -112.007000
  C     17.475000   -9.151460  -113.170000
  H     17.200300  -10.516500  -111.546000
  C     19.821600   -9.963270  -110.385000
  H     19.586300  -11.039600  -110.294000
  H     19.437300   -9.499730  -109.466000
  C     21.311500   -9.791310  -110.201000
  H     21.536100   -8.753850  -110.063000
  H     21.659300  -10.399800  -109.338000
  C     22.016300  -10.112400  -111.512000
  H     23.067400  -10.178200  -111.325000
  H     21.652000  -11.079200  -111.918000
  H     21.867500   -9.368040  -112.283000
  S     15.743600  -11.131000  -114.215000
  C     14.335900  -10.582100  -115.000000
  C     14.417000   -9.265770  -115.416000
  C     15.518200   -8.610530  -114.822000
  C     16.239200   -9.365850  -113.915000
  H     13.670700   -8.855910  -116.023000
  C     15.776800   -7.127910  -115.078000
  H     15.334300   -6.775330  -116.054000
  H     16.828000   -6.901850  -115.189000
  C     15.139000   -6.185780  -113.989000
  H     15.655800   -6.315850  -113.013000
  H     14.147700   -6.392240  -113.798000
  C     15.319600   -4.625050  -114.168000
  H     15.257100   -4.148120  -113.178000
  H     14.532600   -4.218830  -114.733000
  H     16.225100   -4.525060  -114.694000
  H     20.483000   -7.793370  -111.934000
  H     13.617200  -11.244600  -115.459000

 Total Charge           Charge          ....    0
 Multiplicity           Mult            ....    1
 Number of Electrons    NEL             ....  134
 Basis Dimension        Dim             ....  322

ORBITAL ENERGIES
----------------

  NO   OCC          E(Eh)            E(eV)
   0   2.0000     -88.972228     -2421.0574
   1   2.0000     -88.962842     -2420.8020
   2   2.0000     -10.330217      -281.0995
   3   2.0000     -10.329873      -281.0901
   4   2.0000     -10.313594      -280.6472
   5   2.0000     -10.311066      -280.5784
   6   2.0000     -10.305309      -280.4217
   7   2.0000     -10.298133      -280.2264
   8   2.0000     -10.297054      -280.1971
   9   2.0000     -10.292383      -280.0700
  10   2.0000     -10.290824      -280.0276
  11   2.0000     -10.288536      -279.9653
  12   2.0000     -10.285461      -279.8816
  13   2.0000     -10.279463      -279.7184
  14   2.0000     -10.269863      -279.4572
  15   2.0000     -10.268370      -279.4166
  16   2.0000      -8.086429      -220.0429
  17   2.0000      -8.077191      -219.7915
  18   2.0000      -6.044931      -164.4909
  19   2.0000      -6.041217      -164.3899
  20   2.0000      -6.037039      -164.2762
  21   2.0000      -6.035609      -164.2373
  22   2.0000      -6.032069      -164.1409
  23   2.0000      -6.027745      -164.0233
  24   2.0000      -1.007730       -27.4217
  25   2.0000      -0.986255       -26.8374
  26   2.0000      -0.917846       -24.9759
  27   2.0000      -0.899408       -24.4741
  28   2.0000      -0.866623       -23.5820
  29   2.0000      -0.857302       -23.3284
  30   2.0000      -0.847824       -23.0705
  31   2.0000      -0.808751       -22.0072
  32   2.0000      -0.784801       -21.3555
  33   2.0000      -0.774379       -21.0719
  34   2.0000      -0.705891       -19.2083
  35   2.0000      -0.699533       -19.0353
  36   2.0000      -0.692513       -18.8442
  37   2.0000      -0.663584       -18.0570
  38   2.0000      -0.636415       -17.3177
  39   2.0000      -0.610792       -16.6205
  40   2.0000      -0.598026       -16.2731
  41   2.0000      -0.583046       -15.8655
  42   2.0000      -0.556459       -15.1420
  43   2.0000      -0.554161       -15.0795
  44   2.0000      -0.540630       -14.7113
  45   2.0000      -0.527943       -14.3661
  46   2.0000      -0.515551       -14.0289
  47   2.0000      -0.509391       -13.8612
  48   2.0000      -0.505203       -13.7473
  49   2.0000      -0.492369       -13.3981
  50   2.0000      -0.490971       -13.3600
  51   2.0000      -0.478027       -13.0078
  52   2.0000      -0.475899       -12.9499
  53   2.0000      -0.468713       -12.7543
  54   2.0000      -0.465142       -12.6572
  55   2.0000      -0.450878       -12.2690
  56   2.0000      -0.441081       -12.0024
  57   2.0000      -0.437125       -11.8948
  58   2.0000      -0.429799       -11.6954
  59   2.0000      -0.422218       -11.4891
  60   2.0000      -0.419810       -11.4236
  61   2.0000      -0.416112       -11.3230
  62   2.0000      -0.403783       -10.9875
  63   2.0000      -0.351106        -9.5541
  64   2.0000      -0.332196        -9.0395
  65   2.0000      -0.329227        -8.9587
  66   2.0000      -0.284482        -7.7412
  67   0.0000       0.019438         0.5289
  68   0.0000       0.076118         2.0713
  69   0.0000       0.089185         2.4268
  70   0.0000       0.112142         3.0515
  71   0.0000       0.129312         3.5188

MULLIKEN ATOMIC CHARGES
-----------------------
   0 S :    0.113837
   1 C :   -0.117346
   2 C :   -0.082369
   3 C :   -0.004449
   4 C :   -0.124207
   5 H :    0.016032
   6 C :    0.050972
   7 H :    0.036848
   8 H :    0.033642
   9 C :   -0.072729
  10 H :    0.016052
  11 H :    0.042933
  12 C :   -0.046700
  13 H :    0.023741
  14 H :    0.028491
  15 H :    0.029321
  16 S :    0.080105
  17 C :   -0.067423
  18 C :   -0.025834
  19 C :   -0.031565
  20 C :   -0.123402
  21 H :   -0.000715
  22 C :    0.033605
  23 H :    0.025975
  24 H :    0.029778
  25 C :   -0.077560
  26 H :    0.030758
  27 H :    0.010018
  28 C :   -0.021960
  29 H :    0.040917
  30 H :    0.019339
  31 H :    0.023187
  32 H :    0.055240
  33 H :    0.055468
Sum of atomic charges:    0.0000000

LOEWDIN ATOMIC CHARGES
----------------------
   0 S :    0.422149
   1 C :   -0.216370
   2 C :   -0.063896
   3 C :   -0.054561
   4 C :   -0.180465
   5 H :    0.034211
   6 C :   -0.039291
   7 H :    0.034080
   8 H :    0.036762
   9 C :   -0.042630
  10 H :    0.017747
  11 H :    0.034794
  12 C :   -0.065496
  13 H :    0.019056
  14 H :    0.026014
  15 H :    0.021873
  16 S :    0.379859
  17 C :   -0.187717
  18 C :   -0.066786
  19 C :   -0.053836
  20 C :   -0.162888
  21 H :    0.024332
  22 C :   -0.038529
  23 H :    0.033900
  24 H :    0.011743
  25 C :   -0.033896
  26 H :    0.027166
  27 H :    0.008954
  28 C :   -0.055805
  29 H :    0.032754
  30 H :    0.014413
  31 H :    0.019104
  32 H :    0.035483
  33 H :    0.027771

  Mayer bond orders larger than 0.100000
B(  0-S ,  1-C ) :   1.1311 B(  0-S ,  4-C ) :   1.1246 B(  1-C ,  2-C ) :   1.6497
B(  1-C , 32-H ) :   0.9405 B(  2-C ,  3-C ) :   1.2359 B(  2-C ,  6-C ) :   1.0037
B(  3-C ,  4-C ) :   1.5631 B(  3-C ,  5-H ) :   1.0032 B(  4-C , 20-C ) :   1.0954
B(  6-C ,  7-H ) :   0.9501 B(  6-C ,  8-H ) :   0.9245 B(  6-C ,  9-C ) :   1.0968
B(  9-C , 10-H ) :   0.9453 B(  9-C , 11-H ) :   0.9508 B(  9-C , 12-C ) :   1.0862
B( 12-C , 13-H ) :   0.9723 B( 12-C , 14-H ) :   0.9762 B( 12-C , 15-H ) :   0.9686
B( 16-S , 17-C ) :   1.1718 B( 16-S , 20-C ) :   1.1040 B( 17-C , 18-C ) :   1.5978
B( 17-C , 33-H ) :   0.9617 B( 18-C , 19-C ) :   1.2403 B( 18-C , 21-H ) :   1.0048
B( 19-C , 20-C ) :   1.5761 B( 19-C , 22-C ) :   1.0482 B( 22-C , 23-H ) :   0.9388
B( 22-C , 24-H ) :   0.9304 B( 22-C , 25-C ) :   1.0568 B( 25-C , 26-H ) :   0.9622
B( 25-C , 27-H ) :   0.9612 B( 25-C , 28-C ) :   1.0700 B( 28-C , 29-H ) :   0.9785
B( 28-C , 30-H ) :   0.9787 B( 28-C , 31-H ) :   0.9774

Dispersion correction           -0.014368953
FINAL SINGLE POINT ENERGY     -1339.859201178786

DIPOLE MOMENT
-------------
                                X             Y             Z
Electronic contribution:     -8.05727     -11.36093      -8.58953
Nuclear contribution   :      8.05822      11.52821       8.75786
                        -----------------------------------------
Total Dipole Moment    :      0.00096       0.16727       0.16833
                        -----------------------------------------
Magnitude (a.u.)       :      0.23731
Magnitude (Debye)      :      0.60320

Rotational constants in cm-1:     0.020916     0.008328     0.006496
Rotational constants in MHz :   627.042881   249.681067   194.757408

                             ****ORCA TERMINATED NORMALLY****
TOTAL RUN TIME: 0 days 0 hours 0 minutes 22 seconds 712 msec
