                         Program Version 4.2.1 -  RELEASE  -
|  1> ! wB97X-D3 SP def2-SVP
|  2> %pal
|  3> nprocs 24
|  4> end
|  5>
|  6> * xyz 0 1
|  7> S 	 -103.202 	 5.75545 	 -3.83976
|  8> C 	 -101.609 	 6.45119 	 -4.23522
|  9> C 	 -101.829 	 7.57599 	 -5.06127
| 10> C 	 -103.148 	 7.66468 	 -5.53432
| 11> C 	 -104.012 	 6.75869 	 -5.06161
| 12> H 	 -103.524 	 8.27396 	 -6.29462
| 13> C 	 -100.817 	 8.50854 	 -5.65716
| 14> H 	 -101.307 	 9.17984 	 -6.3241
| 15> H 	 -100.177 	 7.90447 	 -6.21538
| 16> C 	 -99.9978 	 9.41607 	 -4.63509
| 17> H 	 -99.0427 	 9.09342 	 -4.33942
| 18> H 	 -99.8043 	 10.399 	 -5.07154
| 19> C 	 -100.816 	 9.78752 	 -3.39055
| 20> H 	 -100.546 	 9.18443 	 -2.59978
| 21> H 	 -100.591 	 10.8536 	 -3.0958
| 22> H 	 -101.906 	 9.8191 	 -3.41814
| 23> S 	 -105.882 	 6.83234 	 -7.09535
| 24> C 	 -107.537 	 7.10101 	 -6.76892
| 25> C 	 -107.802 	 7.02435 	 -5.41875
| 26> C 	 -106.635 	 6.84994 	 -4.59639
| 27> C 	 -105.455 	 6.75771 	 -5.39781
| 28> H 	 -108.838 	 7.13254 	 -5.05829
| 29> C 	 -106.588 	 6.77791 	 -3.10413
| 30> H 	 -105.738 	 6.15021 	 -2.98203
| 31> H 	 -107.454 	 6.27024 	 -2.69242
| 32> C 	 -106.299 	 8.11125 	 -2.36414
| 33> H 	 -107.081 	 8.82456 	 -2.685
| 34> H 	 -105.371 	 8.45893 	 -2.673
| 35> C 	 -106.244 	 7.95634 	 -0.796149
| 36> H 	 -107.116 	 7.43382 	 -0.477962
| 37> H 	 -106.287 	 8.90846 	 -0.315895
| 38> H 	 -105.429 	 7.40184 	 -0.320245
| 39> H 	 -100.608 	 6.16022 	 -3.81017
| 40> H 	 -108.302 	 7.05397 	 -7.56835
| 41> *
| 42>
| 43>                          ****END OF INPUT****

CARTESIAN COORDINATES (ANGSTROEM)
---------------------------------
  S    -103.202000    5.755450   -3.839760
  C    -101.609000    6.451190   -4.235220
  C    -101.829000    7.575990   -5.061270
  C    -103.148000    7.664680   -5.534320
  C    -104.012000    6.758690   -5.061610
  H    -103.524000    8.273960   -6.294620
  C    -100.817000    8.508540   -5.657160
  H    -101.307000    9.179840   -6.324100
  H    -100.177000    7.904470   -6.215380
  C    -99.997800    9.416070   -4.635090
  H    -99.042700    9.093420   -4.339420
  H    -99.804300   10.399000   -5.071540
  C    -100.816000    9.787520   -3.390550
  H    -100.546000    9.184430   -2.599780
  H    -100.591000   10.853600   -3.095800
  H    -101.906000    9.819100   -3.418140
  S    -105.882000    6.832340   -7.095350
  C    -107.537000    7.101010   -6.768920
  C    -107.802000    7.024350   -5.418750
  C    -106.635000    6.849940   -4.596390
  C    -105.455000    6.757710   -5.397810
  H    -108.838000    7.132540   -5.058290
  C    -106.588000    6.777910   -3.104130
  H    -105.738000    6.150210   -2.982030
  H    -107.454000    6.270240   -2.692420
  C    -106.299000    8.111250   -2.364140
  H    -107.081000    8.824560   -2.685000
  H    -105.371000    8.458930   -2.673000
  C    -106.244000    7.956340   -0.796149
  H    -107.116000    7.433820   -0.477962
  H    -106.287000    8.908460   -0.315895
  H    -105.429000    7.401840   -0.320245
  H    -100.608000    6.160220   -3.810170
  H    -108.302000    7.053970   -7.568350

 Total Charge           Charge          ....    0
 Multiplicity           Mult            ....    1
 Number of Electrons    NEL             ....  134
 Basis Dimension        Dim             ....  322

ORBITAL ENERGIES
----------------

  NO   OCC          E(Eh)            E(eV)
   0   2.0000     -88.969453     -2420.9819
   1   2.0000     -88.967754     -2420.9357
   2   2.0000     -10.331796      -281.1425
   3   2.0000     -10.329630      -281.0835
   4   2.0000     -10.325537      -280.9722
   5   2.0000     -10.316465      -280.7253
   6   2.0000     -10.307035      -280.4687
   7   2.0000     -10.302222      -280.3377
   8   2.0000     -10.296892      -280.1927
   9   2.0000     -10.286928      -279.9215
  10   2.0000     -10.285098      -279.8717
  11   2.0000     -10.284273      -279.8493
  12   2.0000     -10.284020      -279.8424
  13   2.0000     -10.282113      -279.7905
  14   2.0000     -10.272253      -279.5222
  15   2.0000     -10.268830      -279.4291
  16   2.0000      -8.082888      -219.9466
  17   2.0000      -8.082532      -219.9369
  18   2.0000      -6.041286      -164.3917
  19   2.0000      -6.041273      -164.3914
  20   2.0000      -6.037234      -164.2815
  21   2.0000      -6.037191      -164.2803
  22   2.0000      -6.033908      -164.1910
  23   2.0000      -6.033185      -164.1713
  24   2.0000      -1.007053       -27.4033
  25   2.0000      -0.985483       -26.8164
  26   2.0000      -0.908824       -24.7303
  27   2.0000      -0.905330       -24.6353
  28   2.0000      -0.867563       -23.6076
  29   2.0000      -0.851396       -23.1677
  30   2.0000      -0.846035       -23.0218
  31   2.0000      -0.814326       -22.1589
  32   2.0000      -0.783365       -21.3164
  33   2.0000      -0.771516       -20.9940
  34   2.0000      -0.709592       -19.3090
  35   2.0000      -0.706585       -19.2272
  36   2.0000      -0.692425       -18.8418
  37   2.0000      -0.662021       -18.0145
  38   2.0000      -0.637801       -17.3555
  39   2.0000      -0.615343       -16.7443
  40   2.0000      -0.591332       -16.0910
  41   2.0000      -0.571649       -15.5554
  42   2.0000      -0.565258       -15.3814
  43   2.0000      -0.557125       -15.1601
  44   2.0000      -0.538937       -14.6652
  45   2.0000      -0.519240       -14.1292
  46   2.0000      -0.517109       -14.0712
  47   2.0000      -0.513629       -13.9766
  48   2.0000      -0.507504       -13.8099
  49   2.0000      -0.496593       -13.5130
  50   2.0000      -0.486842       -13.2476
  51   2.0000      -0.481373       -13.0988
  52   2.0000      -0.471134       -12.8202
  53   2.0000      -0.464984       -12.6529
  54   2.0000      -0.463060       -12.6005
  55   2.0000      -0.443762       -12.0754
  56   2.0000      -0.438369       -11.9286
  57   2.0000      -0.437486       -11.9046
  58   2.0000      -0.432513       -11.7693
  59   2.0000      -0.424965       -11.5639
  60   2.0000      -0.421031       -11.4568
  61   2.0000      -0.419791       -11.4231
  62   2.0000      -0.410019       -11.1572
  63   2.0000      -0.349804        -9.5186
  64   2.0000      -0.332604        -9.0506
  65   2.0000      -0.329509        -8.9664
  66   2.0000      -0.289757        -7.8847
  67   0.0000       0.027095         0.7373
  68   0.0000       0.065953         1.7947
  69   0.0000       0.107921         2.9367
  70   0.0000       0.115830         3.1519
  71   0.0000       0.125629         3.4185

MULLIKEN ATOMIC CHARGES
-----------------------
   0 S :    0.092006
   1 C :   -0.130121
   2 C :   -0.097556
   3 C :    0.015630
   4 C :   -0.109159
   5 H :   -0.006904
   6 C :    0.135193
   7 H :    0.014222
   8 H :    0.025822
   9 C :   -0.070602
  10 H :    0.016121
  11 H :    0.026931
  12 C :   -0.052586
  13 H :    0.014259
  14 H :    0.023857
  15 H :    0.038416
  16 S :    0.111996
  17 C :   -0.107263
  18 C :   -0.047994
  19 C :   -0.046039
  20 C :   -0.184582
  21 H :    0.026654
  22 C :    0.092396
  23 H :    0.000112
  24 H :    0.021171
  25 C :   -0.038786
  26 H :    0.032337
  27 H :    0.017319
  28 C :   -0.033471
  29 H :    0.010897
  30 H :    0.027529
  31 H :    0.036994
  32 H :    0.072171
  33 H :    0.073027
Sum of atomic charges:    0.0000000

LOEWDIN ATOMIC CHARGES
----------------------
   0 S :    0.386135
   1 C :   -0.197361
   2 C :   -0.058258
   3 C :   -0.065902
   4 C :   -0.181968
   5 H :    0.020428
   6 C :   -0.019154
   7 H :    0.029131
   8 H :    0.027648
   9 C :   -0.036315
  10 H :    0.015802
  11 H :    0.027565
  12 C :   -0.068068
  13 H :    0.012368
  14 H :    0.029631
  15 H :    0.027960
  16 S :    0.432484
  17 C :   -0.210100
  18 C :   -0.077135
  19 C :   -0.052916
  20 C :   -0.195637
  21 H :    0.035802
  22 C :   -0.034313
  23 H :    0.017349
  24 H :    0.028794
  25 C :   -0.022866
  26 H :    0.027732
  27 H :    0.014735
  28 C :   -0.065587
  29 H :    0.018286
  30 H :    0.024093
  31 H :    0.029124
  32 H :    0.043240
  33 H :    0.037274

  Mayer bond orders larger than 0.100000
B(  0-S ,  1-C ) :   1.1299 B(  0-S ,  4-C ) :   1.1269 B(  1-C ,  2-C ) :   1.5834
B(  1-C , 32-H ) :   0.9663 B(  2-C ,  3-C ) :   1.2395 B(  2-C ,  6-C ) :   1.0336
B(  3-C ,  4-C ) :   1.6005 B(  3-C ,  5-H ) :   0.9993 B(  4-C , 20-C ) :   1.0188
B(  6-C ,  7-H ) :   0.9398 B(  6-C ,  8-H ) :   0.9398 B(  6-C ,  9-C ) :   1.0516
B(  9-C , 10-H ) :   0.9597 B(  9-C , 11-H ) :   0.9718 B(  9-C , 12-C ) :   1.0776
B( 12-C , 13-H ) :   0.9750 B( 12-C , 14-H ) :   0.9791 B( 12-C , 15-H ) :   0.9735
B( 16-S , 17-C ) :   1.1714 B( 16-S , 20-C ) :   1.1684 B( 17-C , 18-C ) :   1.5786
B( 17-C , 20-C ) :   0.1003 B( 17-C , 33-H ) :   0.9613 B( 18-C , 19-C ) :   1.2686
B( 18-C , 21-H ) :   0.9897 B( 19-C , 20-C ) :   1.5403 B( 19-C , 22-C ) :   1.0457
B( 22-C , 23-H ) :   0.9236 B( 22-C , 24-H ) :   0.9337 B( 22-C , 25-C ) :   1.0610
B( 25-C , 26-H ) :   0.9589 B( 25-C , 27-H ) :   0.9557 B( 25-C , 28-C ) :   1.0743
B( 28-C , 29-H ) :   0.9745 B( 28-C , 30-H ) :   0.9753 B( 28-C , 31-H ) :   0.9775

Dispersion correction           -0.014843094
FINAL SINGLE POINT ENERGY     -1339.859646677534

DIPOLE MOMENT
-------------
                                X             Y             Z
Electronic contribution:     -7.04077     -15.23692     -16.44596
Nuclear contribution   :      7.12317      15.61479      16.54242
                        -----------------------------------------
Total Dipole Moment    :      0.08240       0.37787       0.09645
                        -----------------------------------------
Magnitude (a.u.)       :      0.39860
Magnitude (Debye)      :      1.01315

Rotational constants in cm-1:     0.017983     0.009212     0.007384
Rotational constants in MHz :   539.130330   276.161443   221.357387

                             ****ORCA TERMINATED NORMALLY****
TOTAL RUN TIME: 0 days 0 hours 0 minutes 20 seconds 905 msec
