                         Program Version 4.2.1 -  RELEASE  -
|  1> ! wB97X-D3 SP def2-SVP
|  2> %pal
|  3> nprocs 24
|  4> end
|  5>
|  6> * xyz 0 1
|  7> S 	 -86.8551 	 -45.2457 	 -83.6775
|  8> C 	 -88.1574 	 -44.0479 	 -83.7928
|  9> C 	 -88.8475 	 -43.9747 	 -82.5672
| 10> C 	 -88.2043 	 -44.8454 	 -81.5335
| 11> C 	 -87.1141 	 -45.6041 	 -81.9636
| 12> H 	 -88.6217 	 -44.7965 	 -80.5397
| 13> C 	 -90.0136 	 -43.0878 	 -82.2907
| 14> H 	 -90.5301 	 -42.9479 	 -83.2076
| 15> H 	 -89.6323 	 -42.1284 	 -81.9659
| 16> C 	 -91.0625 	 -43.6494 	 -81.3644
| 17> H 	 -91.3061 	 -44.6087 	 -81.6391
| 18> H 	 -90.5682 	 -43.6782 	 -80.3673
| 19> C 	 -92.3585 	 -42.7558 	 -81.1742
| 20> H 	 -92.9575 	 -42.6616 	 -82.1367
| 21> H 	 -93.0746 	 -43.266 	 -80.6514
| 22> H 	 -92.1316 	 -41.749 	 -80.7973
| 23> S 	 -85.5535 	 -47.8715 	 -82.0379
| 24> C 	 -84.5965 	 -48.2683 	 -80.6055
| 25> C 	 -84.6397 	 -47.3011 	 -79.6585
| 26> C 	 -85.5946 	 -46.2539 	 -79.9596
| 27> C 	 -86.1167 	 -46.4388 	 -81.227
| 28> H 	 -84.0406 	 -47.265 	 -78.7999
| 29> C 	 -85.8057 	 -45.0199 	 -79.003
| 30> H 	 -86.8339 	 -44.9963 	 -78.6845
| 31> H 	 -85.7322 	 -44.1838 	 -79.6367
| 32> C 	 -84.804 	 -44.8012 	 -77.747
| 33> H 	 -84.8529 	 -45.7465 	 -77.2253
| 34> H 	 -85.3116 	 -44.035 	 -77.1002
| 35> C 	 -83.3964 	 -44.5314 	 -78.1389
| 36> H 	 -83.0693 	 -45.0582 	 -79.0325
| 37> H 	 -82.6263 	 -44.8817 	 -77.3884
| 38> H 	 -83.315 	 -43.4573 	 -78.2838
| 39> H 	 -88.3718 	 -43.5583 	 -84.7515
| 40> H 	 -84.044 	 -49.1216 	 -80.5563
| 41> *
| 42>
| 43>                          ****END OF INPUT****

CARTESIAN COORDINATES (ANGSTROEM)
---------------------------------
  S    -86.855100  -45.245700  -83.677500
  C    -88.157400  -44.047900  -83.792800
  C    -88.847500  -43.974700  -82.567200
  C    -88.204300  -44.845400  -81.533500
  C    -87.114100  -45.604100  -81.963600
  H    -88.621700  -44.796500  -80.539700
  C    -90.013600  -43.087800  -82.290700
  H    -90.530100  -42.947900  -83.207600
  H    -89.632300  -42.128400  -81.965900
  C    -91.062500  -43.649400  -81.364400
  H    -91.306100  -44.608700  -81.639100
  H    -90.568200  -43.678200  -80.367300
  C    -92.358500  -42.755800  -81.174200
  H    -92.957500  -42.661600  -82.136700
  H    -93.074600  -43.266000  -80.651400
  H    -92.131600  -41.749000  -80.797300
  S    -85.553500  -47.871500  -82.037900
  C    -84.596500  -48.268300  -80.605500
  C    -84.639700  -47.301100  -79.658500
  C    -85.594600  -46.253900  -79.959600
  C    -86.116700  -46.438800  -81.227000
  H    -84.040600  -47.265000  -78.799900
  C    -85.805700  -45.019900  -79.003000
  H    -86.833900  -44.996300  -78.684500
  H    -85.732200  -44.183800  -79.636700
  C    -84.804000  -44.801200  -77.747000
  H    -84.852900  -45.746500  -77.225300
  H    -85.311600  -44.035000  -77.100200
  C    -83.396400  -44.531400  -78.138900
  H    -83.069300  -45.058200  -79.032500
  H    -82.626300  -44.881700  -77.388400
  H    -83.315000  -43.457300  -78.283800
  H    -88.371800  -43.558300  -84.751500
  H    -84.044000  -49.121600  -80.556300

 Total Charge           Charge          ....    0
 Multiplicity           Mult            ....    1
 Number of Electrons    NEL             ....  134
 Basis Dimension        Dim             ....  322

ORBITAL ENERGIES
----------------

  NO   OCC          E(Eh)            E(eV)
   0   2.0000     -88.966872     -2420.9117
   1   2.0000     -88.960094     -2420.7272
   2   2.0000     -10.336901      -281.2814
   3   2.0000     -10.329991      -281.0934
   4   2.0000     -10.319922      -280.8194
   5   2.0000     -10.311632      -280.5938
   6   2.0000     -10.308550      -280.5099
   7   2.0000     -10.307975      -280.4943
   8   2.0000     -10.300083      -280.2795
   9   2.0000     -10.296493      -280.1818
  10   2.0000     -10.295436      -280.1530
  11   2.0000     -10.291705      -280.0515
  12   2.0000     -10.286412      -279.9075
  13   2.0000     -10.285398      -279.8799
  14   2.0000     -10.282861      -279.8109
  15   2.0000     -10.280928      -279.7583
  16   2.0000      -8.081748      -219.9155
  17   2.0000      -8.074396      -219.7155
  18   2.0000      -6.040232      -164.3631
  19   2.0000      -6.036426      -164.2595
  20   2.0000      -6.033109      -164.1692
  21   2.0000      -6.032335      -164.1482
  22   2.0000      -6.028812      -164.0523
  23   2.0000      -6.025126      -163.9520
  24   2.0000      -1.001392       -27.2493
  25   2.0000      -0.975235       -26.5375
  26   2.0000      -0.914795       -24.8928
  27   2.0000      -0.903592       -24.5880
  28   2.0000      -0.866537       -23.5797
  29   2.0000      -0.851066       -23.1587
  30   2.0000      -0.837528       -22.7903
  31   2.0000      -0.816081       -22.2067
  32   2.0000      -0.785212       -21.3667
  33   2.0000      -0.774483       -21.0748
  34   2.0000      -0.713436       -19.4136
  35   2.0000      -0.700949       -19.0738
  36   2.0000      -0.691108       -18.8060
  37   2.0000      -0.662148       -18.0180
  38   2.0000      -0.638366       -17.3708
  39   2.0000      -0.621689       -16.9170
  40   2.0000      -0.604057       -16.4372
  41   2.0000      -0.579157       -15.7597
  42   2.0000      -0.559068       -15.2130
  43   2.0000      -0.552592       -15.0368
  44   2.0000      -0.541183       -14.7263
  45   2.0000      -0.528097       -14.3703
  46   2.0000      -0.515302       -14.0221
  47   2.0000      -0.509491       -13.8640
  48   2.0000      -0.502609       -13.6767
  49   2.0000      -0.499529       -13.5929
  50   2.0000      -0.494981       -13.4691
  51   2.0000      -0.475404       -12.9364
  52   2.0000      -0.470553       -12.8044
  53   2.0000      -0.464130       -12.6296
  54   2.0000      -0.460487       -12.5305
  55   2.0000      -0.458820       -12.4851
  56   2.0000      -0.448773       -12.2117
  57   2.0000      -0.443313       -12.0632
  58   2.0000      -0.440236       -11.9794
  59   2.0000      -0.422189       -11.4883
  60   2.0000      -0.413306       -11.2466
  61   2.0000      -0.411357       -11.1936
  62   2.0000      -0.407239       -11.0815
  63   2.0000      -0.352549        -9.5934
  64   2.0000      -0.332314        -9.0427
  65   2.0000      -0.322622        -8.7790
  66   2.0000      -0.290346        -7.9007
  67   0.0000       0.029429         0.8008
  68   0.0000       0.072823         1.9816
  69   0.0000       0.105079         2.8593
  70   0.0000       0.120902         3.2899
  71   0.0000       0.136572         3.7163

MULLIKEN ATOMIC CHARGES
-----------------------
   0 S :    0.074695
   1 C :   -0.135746
   2 C :   -0.118863
   3 C :    0.004999
   4 C :   -0.098438
   5 H :    0.005026
   6 C :    0.106962
   7 H :    0.007677
   8 H :    0.038616
   9 C :   -0.100901
  10 H :    0.019072
  11 H :    0.034669
  12 C :   -0.026566
  13 H :    0.024582
  14 H :    0.015177
  15 H :    0.043241
  16 S :    0.106899
  17 C :   -0.040622
  18 C :   -0.007425
  19 C :   -0.063772
  20 C :   -0.148511
  21 H :   -0.002445
  22 C :    0.067182
  23 H :    0.032551
  24 H :    0.024196
  25 C :   -0.080295
  26 H :    0.028967
  27 H :    0.047097
  28 C :   -0.062362
  29 H :    0.042994
  30 H :    0.040855
  31 H :    0.039086
  32 H :    0.063916
  33 H :    0.017487
Sum of atomic charges:    0.0000000

LOEWDIN ATOMIC CHARGES
----------------------
   0 S :    0.377987
   1 C :   -0.194900
   2 C :   -0.057279
   3 C :   -0.071804
   4 C :   -0.182225
   5 H :    0.024160
   6 C :   -0.034444
   7 H :    0.026594
   8 H :    0.034266
   9 C :   -0.030398
  10 H :    0.014660
  11 H :    0.024916
  12 C :   -0.061707
  13 H :    0.031304
  14 H :    0.014473
  15 H :    0.028751
  16 S :    0.401322
  17 C :   -0.156737
  18 C :   -0.061214
  19 C :   -0.048625
  20 C :   -0.201446
  21 H :    0.022673
  22 C :   -0.024274
  23 H :    0.028443
  24 H :    0.025042
  25 C :   -0.042556
  26 H :    0.019111
  27 H :    0.035452
  28 C :   -0.075834
  29 H :    0.028871
  30 H :    0.034740
  31 H :    0.029436
  32 H :    0.033101
  33 H :    0.008139

  Mayer bond orders larger than 0.100000
B(  0-S ,  1-C ) :   1.1315 B(  0-S ,  4-C ) :   1.1460 B(  1-C ,  2-C ) :   1.6067
B(  1-C , 32-H ) :   0.9708 B(  2-C ,  3-C ) :   1.2282 B(  2-C ,  6-C ) :   1.0335
B(  3-C ,  4-C ) :   1.5756 B(  3-C ,  5-H ) :   0.9962 B(  4-C , 20-C ) :   1.0139
B(  6-C ,  7-H ) :   0.9379 B(  6-C ,  8-H ) :   0.9294 B(  6-C ,  9-C ) :   1.0703
B(  9-C , 10-H ) :   0.9623 B(  9-C , 11-H ) :   0.9474 B(  9-C , 12-C ) :   1.0885
B( 12-C , 13-H ) :   0.9712 B( 12-C , 14-H ) :   0.9727 B( 12-C , 15-H ) :   0.9757
B( 16-S , 17-C ) :   1.1380 B( 16-S , 20-C ) :   1.1416 B( 17-C , 18-C ) :   1.6207
B( 17-C , 33-H ) :   0.9799 B( 18-C , 19-C ) :   1.2325 B( 18-C , 21-H ) :   0.9909
B( 19-C , 20-C ) :   1.6363 B( 19-C , 22-C ) :   1.0044 B( 22-C , 23-H ) :   0.9342
B( 22-C , 24-H ) :   0.9380 B( 22-C , 25-C ) :   1.0684 B( 25-C , 26-H ) :   0.9562
B( 25-C , 27-H ) :   0.9579 B( 25-C , 28-C ) :   1.0666 B( 28-C , 29-H ) :   0.9745
B( 28-C , 30-H ) :   0.9731 B( 28-C , 31-H ) :   0.9740

Dispersion correction           -0.013640420
FINAL SINGLE POINT ENERGY     -1339.861584945504

DIPOLE MOMENT
-------------
                                X             Y             Z
Electronic contribution:     10.66887     -17.17457     -18.39410
Nuclear contribution   :    -10.87808      17.59779      18.97386
                        -----------------------------------------
Total Dipole Moment    :     -0.20921       0.42322       0.57977
                        -----------------------------------------
Magnitude (a.u.)       :      0.74767
Magnitude (Debye)      :      1.90043

Rotational constants in cm-1:     0.018519     0.007696     0.006169
Rotational constants in MHz :   555.179892   230.712998   184.952467

                             ****ORCA TERMINATED NORMALLY****
TOTAL RUN TIME: 0 days 0 hours 0 minutes 20 seconds 889 msec
