                         Program Version 4.2.1 -  RELEASE  -
|  1> ! wB97X-D3 SP def2-SVP
|  2> %pal
|  3> nprocs 24
|  4> end
|  5>
|  6> * xyz 0 1
|  7> S 	 -109.477 	 62.1473 	 -5.91948
|  8> C 	 -108.426 	 63.4175 	 -6.42805
|  9> C 	 -109.083 	 64.6514 	 -6.42351
| 10> C 	 -110.479 	 64.488 	 -6.06111
| 11> C 	 -110.851 	 63.1584 	 -5.8282
| 12> H 	 -111.165 	 65.3566 	 -6.10844
| 13> C 	 -108.601 	 65.9526 	 -7.00936
| 14> H 	 -109.396 	 66.6814 	 -7.07748
| 15> H 	 -108.245 	 65.8175 	 -8.01175
| 16> C 	 -107.566 	 66.6397 	 -6.09403
| 17> H 	 -107.951 	 66.6597 	 -5.07311
| 18> H 	 -106.725 	 65.9405 	 -6.15615
| 19> C 	 -107.164 	 68.0107 	 -6.6928
| 20> H 	 -106.873 	 67.937 	 -7.7915
| 21> H 	 -107.913 	 68.7821 	 -6.49536
| 22> H 	 -106.245 	 68.2763 	 -6.11457
| 23> S 	 -112.721 	 61.5381 	 -6.88902
| 24> C 	 -114.287 	 61.3077 	 -6.13496
| 25> C 	 -114.457 	 62.2889 	 -5.17871
| 26> C 	 -113.317 	 63.092 	 -4.96539
| 27> C 	 -112.241 	 62.6116 	 -5.67892
| 28> H 	 -115.438 	 62.3262 	 -4.69108
| 29> C 	 -113.287 	 64.2311 	 -3.95895
| 30> H 	 -114.234 	 64.7468 	 -4.05772
| 31> H 	 -112.461 	 64.9483 	 -4.12744
| 32> C 	 -113.175 	 63.7462 	 -2.51784
| 33> H 	 -114.083 	 63.1509 	 -2.32226
| 34> H 	 -113.197 	 64.6345 	 -1.88318
| 35> C 	 -111.877 	 62.8043 	 -2.30437
| 36> H 	 -110.962 	 63.3814 	 -2.37704
| 37> H 	 -111.807 	 62.1003 	 -3.11667
| 38> H 	 -111.807 	 62.3684 	 -1.27882
| 39> H 	 -107.428 	 63.1965 	 -6.64202
| 40> H 	 -114.984 	 60.548 	 -6.27882
| 41> *
| 42>
| 43>                          ****END OF INPUT****

CARTESIAN COORDINATES (ANGSTROEM)
---------------------------------
  S    -109.477000   62.147300   -5.919480
  C    -108.426000   63.417500   -6.428050
  C    -109.083000   64.651400   -6.423510
  C    -110.479000   64.488000   -6.061110
  C    -110.851000   63.158400   -5.828200
  H    -111.165000   65.356600   -6.108440
  C    -108.601000   65.952600   -7.009360
  H    -109.396000   66.681400   -7.077480
  H    -108.245000   65.817500   -8.011750
  C    -107.566000   66.639700   -6.094030
  H    -107.951000   66.659700   -5.073110
  H    -106.725000   65.940500   -6.156150
  C    -107.164000   68.010700   -6.692800
  H    -106.873000   67.937000   -7.791500
  H    -107.913000   68.782100   -6.495360
  H    -106.245000   68.276300   -6.114570
  S    -112.721000   61.538100   -6.889020
  C    -114.287000   61.307700   -6.134960
  C    -114.457000   62.288900   -5.178710
  C    -113.317000   63.092000   -4.965390
  C    -112.241000   62.611600   -5.678920
  H    -115.438000   62.326200   -4.691080
  C    -113.287000   64.231100   -3.958950
  H    -114.234000   64.746800   -4.057720
  H    -112.461000   64.948300   -4.127440
  C    -113.175000   63.746200   -2.517840
  H    -114.083000   63.150900   -2.322260
  H    -113.197000   64.634500   -1.883180
  C    -111.877000   62.804300   -2.304370
  H    -110.962000   63.381400   -2.377040
  H    -111.807000   62.100300   -3.116670
  H    -111.807000   62.368400   -1.278820
  H    -107.428000   63.196500   -6.642020
  H    -114.984000   60.548000   -6.278820

 Total Charge           Charge          ....    0
 Multiplicity           Mult            ....    1
 Number of Electrons    NEL             ....  134
 Basis Dimension        Dim             ....  322

ORBITAL ENERGIES
----------------

  NO   OCC          E(Eh)            E(eV)
   0   2.0000     -88.967801     -2420.9369
   1   2.0000     -88.963546     -2420.8211
   2   2.0000     -10.330963      -281.1198
   3   2.0000     -10.323015      -280.9035
   4   2.0000     -10.312073      -280.6058
   5   2.0000     -10.309811      -280.5442
   6   2.0000     -10.303627      -280.3759
   7   2.0000     -10.299034      -280.2510
   8   2.0000     -10.298861      -280.2463
   9   2.0000     -10.292556      -280.0747
  10   2.0000     -10.289416      -279.9892
  11   2.0000     -10.288928      -279.9760
  12   2.0000     -10.288311      -279.9592
  13   2.0000     -10.287736      -279.9435
  14   2.0000     -10.286449      -279.9085
  15   2.0000     -10.273902      -279.5671
  16   2.0000      -8.083499      -219.9632
  17   2.0000      -8.079415      -219.8521
  18   2.0000      -6.041875      -164.4078
  19   2.0000      -6.037867      -164.2987
  20   2.0000      -6.037640      -164.2925
  21   2.0000      -6.034585      -164.2094
  22   2.0000      -6.033787      -164.1877
  23   2.0000      -6.030119      -164.0879
  24   2.0000      -1.014155       -27.5966
  25   2.0000      -0.991061       -26.9681
  26   2.0000      -0.913865       -24.8675
  27   2.0000      -0.905141       -24.6301
  28   2.0000      -0.867781       -23.6135
  29   2.0000      -0.847716       -23.0675
  30   2.0000      -0.836817       -22.7709
  31   2.0000      -0.811831       -22.0910
  32   2.0000      -0.779490       -21.2110
  33   2.0000      -0.773298       -21.0425
  34   2.0000      -0.701318       -19.0838
  35   2.0000      -0.697431       -18.9781
  36   2.0000      -0.691452       -18.8154
  37   2.0000      -0.661014       -17.9871
  38   2.0000      -0.646511       -17.5925
  39   2.0000      -0.621219       -16.9042
  40   2.0000      -0.596345       -16.2274
  41   2.0000      -0.572704       -15.5841
  42   2.0000      -0.566994       -15.4287
  43   2.0000      -0.547752       -14.9051
  44   2.0000      -0.538904       -14.6643
  45   2.0000      -0.520095       -14.1525
  46   2.0000      -0.516764       -14.0619
  47   2.0000      -0.505004       -13.7419
  48   2.0000      -0.502787       -13.6815
  49   2.0000      -0.496907       -13.5215
  50   2.0000      -0.492791       -13.4095
  51   2.0000      -0.475574       -12.9410
  52   2.0000      -0.471360       -12.8264
  53   2.0000      -0.466378       -12.6908
  54   2.0000      -0.458082       -12.4650
  55   2.0000      -0.450415       -12.2564
  56   2.0000      -0.442696       -12.0464
  57   2.0000      -0.441105       -12.0031
  58   2.0000      -0.434613       -11.8264
  59   2.0000      -0.421978       -11.4826
  60   2.0000      -0.418582       -11.3902
  61   2.0000      -0.413903       -11.2629
  62   2.0000      -0.408674       -11.1206
  63   2.0000      -0.345555        -9.4030
  64   2.0000      -0.328602        -8.9417
  65   2.0000      -0.326852        -8.8941
  66   2.0000      -0.295546        -8.0422
  67   0.0000       0.029550         0.8041
  68   0.0000       0.073516         2.0005
  69   0.0000       0.111156         3.0247
  70   0.0000       0.124657         3.3921
  71   0.0000       0.125306         3.4097

MULLIKEN ATOMIC CHARGES
-----------------------
   0 S :    0.125001
   1 C :   -0.115013
   2 C :   -0.079976
   3 C :    0.024466
   4 C :   -0.167979
   5 H :    0.029619
   6 C :    0.064925
   7 H :    0.006056
   8 H :    0.032541
   9 C :   -0.106467
  10 H :    0.039918
  11 H :    0.025880
  12 C :   -0.059574
  13 H :    0.046674
  14 H :    0.043880
  15 H :    0.040310
  16 S :    0.120749
  17 C :   -0.069895
  18 C :   -0.059310
  19 C :   -0.041440
  20 C :   -0.150920
  21 H :    0.024478
  22 C :    0.077603
  23 H :    0.023514
  24 H :    0.024628
  25 C :   -0.074097
  26 H :    0.027705
  27 H :    0.034390
  28 C :   -0.062808
  29 H :    0.024173
  30 H :    0.045475
  31 H :    0.042736
  32 H :    0.031961
  33 H :    0.030796
Sum of atomic charges:   -0.0000000

LOEWDIN ATOMIC CHARGES
----------------------
   0 S :    0.442974
   1 C :   -0.197490
   2 C :   -0.059802
   3 C :   -0.065471
   4 C :   -0.217125
   5 H :    0.034024
   6 C :   -0.031773
   7 H :    0.023015
   8 H :    0.028589
   9 C :   -0.039413
  10 H :    0.027105
  11 H :    0.020806
  12 C :   -0.073519
  13 H :    0.034916
  14 H :    0.025287
  15 H :    0.032003
  16 S :    0.435712
  17 C :   -0.181308
  18 C :   -0.068350
  19 C :   -0.063857
  20 C :   -0.218760
  21 H :    0.034818
  22 C :   -0.032208
  23 H :    0.031447
  24 H :    0.029341
  25 C :   -0.034283
  26 H :    0.020987
  27 H :    0.022635
  28 C :   -0.070071
  29 H :    0.023160
  30 H :    0.023693
  31 H :    0.030397
  32 H :    0.014129
  33 H :    0.018392

  Mayer bond orders larger than 0.100000
B(  0-S ,  1-C ) :   1.1613 B(  0-S ,  4-C ) :   1.1862 B(  1-C ,  2-C ) :   1.5550
B(  1-C , 32-H ) :   0.9835 B(  2-C ,  3-C ) :   1.2882 B(  2-C ,  6-C ) :   1.0229
B(  3-C ,  4-C ) :   1.5335 B(  3-C ,  5-H ) :   0.9827 B(  4-C , 20-C ) :   0.9904
B(  6-C ,  7-H ) :   0.9462 B(  6-C ,  8-H ) :   0.9454 B(  6-C ,  9-C ) :   1.0471
B(  9-C , 10-H ) :   0.9582 B(  9-C , 11-H ) :   0.9630 B(  9-C , 12-C ) :   1.0762
B( 12-C , 13-H ) :   0.9711 B( 12-C , 14-H ) :   0.9749 B( 12-C , 15-H ) :   0.9748
B( 16-S , 17-C ) :   1.1490 B( 16-S , 20-C ) :   1.1838 B( 17-C , 18-C ) :   1.6066
B( 17-C , 20-C ) :   0.1050 B( 17-C , 33-H ) :   0.9776 B( 18-C , 19-C ) :   1.2391
B( 18-C , 21-H ) :   0.9891 B( 19-C , 20-C ) :   1.5721 B( 19-C , 22-C ) :   1.0489
B( 22-C , 23-H ) :   0.9276 B( 22-C , 24-H ) :   0.9362 B( 22-C , 25-C ) :   1.0781
B( 25-C , 26-H ) :   0.9583 B( 25-C , 27-H ) :   0.9589 B( 25-C , 28-C ) :   1.0574
B( 28-C , 29-H ) :   0.9755 B( 28-C , 30-H ) :   0.9749 B( 28-C , 31-H ) :   0.9769

Dispersion correction           -0.014823263
FINAL SINGLE POINT ENERGY     -1339.878043599037

DIPOLE MOMENT
-------------
                                X             Y             Z
Electronic contribution:     -7.27475     -21.47843     -10.68261
Nuclear contribution   :      7.25487      22.02615      10.73659
                        -----------------------------------------
Total Dipole Moment    :     -0.01988       0.54772       0.05397
                        -----------------------------------------
Magnitude (a.u.)       :      0.55073
Magnitude (Debye)      :      1.39984

Rotational constants in cm-1:     0.022102     0.007795     0.006862
Rotational constants in MHz :   662.587805   233.680775   205.729053

                             ****ORCA TERMINATED NORMALLY****
TOTAL RUN TIME: 0 days 0 hours 0 minutes 21 seconds 925 msec
