                         Program Version 4.2.1 -  RELEASE  -
|  1> ! wB97X-D3 SP def2-SVP
|  2> %pal
|  3> nprocs 24
|  4> end
|  5>
|  6> * xyz 0 1
|  7> S 	 -87.6378 	 -7.73374 	 -112.726
|  8> C 	 -89.0217 	 -8.84488 	 -113.139
|  9> C 	 -90.025 	 -8.14058 	 -113.822
| 10> C 	 -89.711 	 -6.74815 	 -113.917
| 11> C 	 -88.5845 	 -6.38108 	 -113.254
| 12> H 	 -90.3076 	 -6.11246 	 -114.441
| 13> C 	 -91.1012 	 -8.73187 	 -114.682
| 14> H 	 -90.8538 	 -9.79272 	 -114.743
| 15> H 	 -90.9661 	 -8.5318 	 -115.723
| 16> C 	 -92.5486 	 -8.5169 	 -114.199
| 17> H 	 -92.656 	 -7.42074 	 -114.064
| 18> H 	 -93.3505 	 -8.72368 	 -114.934
| 19> C 	 -92.9778 	 -9.16301 	 -112.904
| 20> H 	 -94.0611 	 -9.03394 	 -112.752
| 21> H 	 -92.7847 	 -10.2273 	 -112.794
| 22> H 	 -92.4987 	 -8.4715 	 -112.156
| 23> S 	 -86.5536 	 -4.55504 	 -113.827
| 24> C 	 -86.6749 	 -2.93309 	 -113.25
| 25> C 	 -87.9084 	 -2.73971 	 -112.65
| 26> C 	 -88.7478 	 -3.88337 	 -112.636
| 27> C 	 -88.0754 	 -5.03013 	 -113.134
| 28> H 	 -88.2252 	 -1.72114 	 -112.372
| 29> C 	 -90.1002 	 -3.80723 	 -112.003
| 30> H 	 -90.7397 	 -3.99246 	 -112.857
| 31> H 	 -90.2692 	 -2.71985 	 -111.629
| 32> C 	 -90.4077 	 -4.7256 	 -110.788
| 33> H 	 -90.1028 	 -5.7102 	 -110.996
| 34> H 	 -91.4858 	 -4.89392 	 -110.721
| 35> C 	 -89.825 	 -4.26921 	 -109.407
| 36> H 	 -88.7354 	 -4.40543 	 -109.316
| 37> H 	 -90.0932 	 -4.82597 	 -108.504
| 38> H 	 -90.0806 	 -3.16269 	 -109.295
| 39> H 	 -89.0518 	 -9.88142 	 -113.071
| 40> H 	 -85.9747 	 -2.15051 	 -113.359
| 41> *
| 42>
| 43>                          ****END OF INPUT****

CARTESIAN COORDINATES (ANGSTROEM)
---------------------------------
  S    -87.637800   -7.733740  -112.726000
  C    -89.021700   -8.844880  -113.139000
  C    -90.025000   -8.140580  -113.822000
  C    -89.711000   -6.748150  -113.917000
  C    -88.584500   -6.381080  -113.254000
  H    -90.307600   -6.112460  -114.441000
  C    -91.101200   -8.731870  -114.682000
  H    -90.853800   -9.792720  -114.743000
  H    -90.966100   -8.531800  -115.723000
  C    -92.548600   -8.516900  -114.199000
  H    -92.656000   -7.420740  -114.064000
  H    -93.350500   -8.723680  -114.934000
  C    -92.977800   -9.163010  -112.904000
  H    -94.061100   -9.033940  -112.752000
  H    -92.784700  -10.227300  -112.794000
  H    -92.498700   -8.471500  -112.156000
  S    -86.553600   -4.555040  -113.827000
  C    -86.674900   -2.933090  -113.250000
  C    -87.908400   -2.739710  -112.650000
  C    -88.747800   -3.883370  -112.636000
  C    -88.075400   -5.030130  -113.134000
  H    -88.225200   -1.721140  -112.372000
  C    -90.100200   -3.807230  -112.003000
  H    -90.739700   -3.992460  -112.857000
  H    -90.269200   -2.719850  -111.629000
  C    -90.407700   -4.725600  -110.788000
  H    -90.102800   -5.710200  -110.996000
  H    -91.485800   -4.893920  -110.721000
  C    -89.825000   -4.269210  -109.407000
  H    -88.735400   -4.405430  -109.316000
  H    -90.093200   -4.825970  -108.504000
  H    -90.080600   -3.162690  -109.295000
  H    -89.051800   -9.881420  -113.071000
  H    -85.974700   -2.150510  -113.359000

 Total Charge           Charge          ....    0
 Multiplicity           Mult            ....    1
 Number of Electrons    NEL             ....  134
 Basis Dimension        Dim             ....  322

ORBITAL ENERGIES
----------------

  NO   OCC          E(Eh)            E(eV)
   0   2.0000     -88.970550     -2421.0118
   1   2.0000     -88.968229     -2420.9486
   2   2.0000     -10.327834      -281.0347
   3   2.0000     -10.325360      -280.9673
   4   2.0000     -10.318660      -280.7850
   5   2.0000     -10.312542      -280.6185
   6   2.0000     -10.303349      -280.3684
   7   2.0000     -10.302217      -280.3376
   8   2.0000     -10.298007      -280.2230
   9   2.0000     -10.292728      -280.0794
  10   2.0000     -10.291709      -280.0516
  11   2.0000     -10.290097      -280.0078
  12   2.0000     -10.284903      -279.8664
  13   2.0000     -10.283466      -279.8273
  14   2.0000     -10.282581      -279.8033
  15   2.0000     -10.279827      -279.7283
  16   2.0000      -8.084321      -219.9856
  17   2.0000      -8.083135      -219.9533
  18   2.0000      -6.042974      -164.4377
  19   2.0000      -6.041553      -164.3990
  20   2.0000      -6.039133      -164.3332
  21   2.0000      -6.037474      -164.2880
  22   2.0000      -6.034808      -164.2155
  23   2.0000      -6.034144      -164.1974
  24   2.0000      -1.008104       -27.4319
  25   2.0000      -0.983711       -26.7681
  26   2.0000      -0.914652       -24.8889
  27   2.0000      -0.903333       -24.5810
  28   2.0000      -0.869087       -23.6491
  29   2.0000      -0.849843       -23.1254
  30   2.0000      -0.844910       -22.9912
  31   2.0000      -0.816033       -22.2054
  32   2.0000      -0.785818       -21.3832
  33   2.0000      -0.771948       -21.0058
  34   2.0000      -0.715619       -19.4730
  35   2.0000      -0.696940       -18.9647
  36   2.0000      -0.693248       -18.8642
  37   2.0000      -0.658335       -17.9142
  38   2.0000      -0.644504       -17.5379
  39   2.0000      -0.629917       -17.1409
  40   2.0000      -0.588125       -16.0037
  41   2.0000      -0.572505       -15.5787
  42   2.0000      -0.559520       -15.2253
  43   2.0000      -0.549574       -14.9547
  44   2.0000      -0.542384       -14.7590
  45   2.0000      -0.535346       -14.5675
  46   2.0000      -0.519786       -14.1441
  47   2.0000      -0.512711       -13.9516
  48   2.0000      -0.499995       -13.6056
  49   2.0000      -0.497558       -13.5393
  50   2.0000      -0.483315       -13.1517
  51   2.0000      -0.476987       -12.9795
  52   2.0000      -0.471037       -12.8176
  53   2.0000      -0.468109       -12.7379
  54   2.0000      -0.460038       -12.5183
  55   2.0000      -0.447737       -12.1836
  56   2.0000      -0.444879       -12.1058
  57   2.0000      -0.437767       -11.9123
  58   2.0000      -0.433213       -11.7883
  59   2.0000      -0.418463       -11.3870
  60   2.0000      -0.416464       -11.3326
  61   2.0000      -0.410203       -11.1622
  62   2.0000      -0.409338       -11.1387
  63   2.0000      -0.341566        -9.2945
  64   2.0000      -0.334356        -9.0983
  65   2.0000      -0.329675        -8.9709
  66   2.0000      -0.293493        -7.9864
  67   0.0000       0.026748         0.7278
  68   0.0000       0.064776         1.7626
  69   0.0000       0.100716         2.7406
  70   0.0000       0.119824         3.2606
  71   0.0000       0.129334         3.5193

MULLIKEN ATOMIC CHARGES
-----------------------
   0 S :    0.109926
   1 C :   -0.085842
   2 C :   -0.097570
   3 C :    0.068761
   4 C :   -0.155880
   5 H :   -0.027982
   6 C :    0.081210
   7 H :    0.003090
   8 H :    0.033343
   9 C :   -0.092190
  10 H :    0.020488
  11 H :    0.028768
  12 C :   -0.058624
  13 H :    0.032565
  14 H :    0.040250
  15 H :    0.044157
  16 S :    0.123293
  17 C :   -0.078675
  18 C :   -0.051172
  19 C :   -0.031837
  20 C :   -0.151646
  21 H :    0.024218
  22 C :    0.041004
  23 H :    0.033835
  24 H :    0.031033
  25 C :   -0.024736
  26 H :    0.022412
  27 H :    0.021587
  28 C :   -0.079066
  29 H :    0.039244
  30 H :    0.036365
  31 H :    0.035948
  32 H :    0.021553
  33 H :    0.042173
Sum of atomic charges:    0.0000000

LOEWDIN ATOMIC CHARGES
----------------------
   0 S :    0.390825
   1 C :   -0.166127
   2 C :   -0.054854
   3 C :   -0.049376
   4 C :   -0.193923
   5 H :    0.013703
   6 C :   -0.036003
   7 H :    0.029201
   8 H :    0.036348
   9 C :   -0.051653
  10 H :    0.024396
  11 H :    0.023677
  12 C :   -0.070752
  13 H :    0.029276
  14 H :    0.023634
  15 H :    0.035298
  16 S :    0.429130
  17 C :   -0.192468
  18 C :   -0.075801
  19 C :   -0.055980
  20 C :   -0.215046
  21 H :    0.033574
  22 C :   -0.034482
  23 H :    0.034067
  24 H :    0.038136
  25 C :   -0.039196
  26 H :    0.018888
  27 H :    0.026770
  28 C :   -0.076350
  29 H :    0.029348
  30 H :    0.028847
  31 H :    0.029207
  32 H :    0.013517
  33 H :    0.024168

  Mayer bond orders larger than 0.100000
B(  0-S ,  1-C ) :   1.1187 B(  0-S ,  4-C ) :   1.1397 B(  1-C ,  2-C ) :   1.6235
B(  1-C , 32-H ) :   0.9720 B(  2-C ,  3-C ) :   1.2235 B(  2-C ,  6-C ) :   1.0232
B(  3-C ,  4-C ) :   1.5780 B(  3-C ,  5-H ) :   1.0137 B(  4-C , 20-C ) :   1.0375
B(  6-C ,  7-H ) :   0.9384 B(  6-C ,  8-H ) :   0.9445 B(  6-C ,  9-C ) :   1.0485
B(  9-C , 10-H ) :   0.9607 B(  9-C , 11-H ) :   0.9580 B(  9-C , 12-C ) :   1.0783
B( 12-C , 13-H ) :   0.9723 B( 12-C , 14-H ) :   0.9768 B( 12-C , 15-H ) :   0.9766
B( 16-S , 17-C ) :   1.1714 B( 16-S , 20-C ) :   1.1621 B( 17-C , 18-C ) :   1.5739
B( 17-C , 20-C ) :   0.1067 B( 17-C , 33-H ) :   0.9728 B( 18-C , 19-C ) :   1.2947
B( 18-C , 21-H ) :   0.9822 B( 19-C , 20-C ) :   1.5320 B( 19-C , 22-C ) :   1.0339
B( 22-C , 23-H ) :   0.9199 B( 22-C , 24-H ) :   0.9439 B( 22-C , 25-C ) :   1.0724
B( 25-C , 26-H ) :   0.9545 B( 25-C , 27-H ) :   0.9523 B( 25-C , 28-C ) :   1.0606
B( 28-C , 29-H ) :   0.9769 B( 28-C , 30-H ) :   0.9753 B( 28-C , 31-H ) :   0.9763

Dispersion correction           -0.015176882
FINAL SINGLE POINT ENERGY     -1339.861826796101

DIPOLE MOMENT
-------------
                                X             Y             Z
Electronic contribution:     26.21269       2.78521      -8.54867
Nuclear contribution   :    -26.79820      -2.72647       8.36152
                        -----------------------------------------
Total Dipole Moment    :     -0.58551       0.05874      -0.18715
                        -----------------------------------------
Magnitude (a.u.)       :      0.61750
Magnitude (Debye)      :      1.56955

Rotational constants in cm-1:     0.019627     0.009056     0.007462
Rotational constants in MHz :   588.414428   271.479801   223.712245

                             ****ORCA TERMINATED NORMALLY****
TOTAL RUN TIME: 0 days 0 hours 0 minutes 21 seconds 185 msec
