                         Program Version 4.2.1 -  RELEASE  -
|  1> ! wB97X-D3 SP def2-SVP
|  2> %pal
|  3> nprocs 24
|  4> end
|  5>
|  6> * xyz 0 1
|  7> S 	 -37.1532 	 10.4506 	 -2.40784
|  8> C 	 -37.6297 	 8.84305 	 -2.98948
|  9> C 	 -36.6136 	 8.11871 	 -3.57931
| 10> C 	 -35.4647 	 8.94694 	 -3.82446
| 11> C 	 -35.6556 	 10.2162 	 -3.35123
| 12> H 	 -34.5611 	 8.74059 	 -4.38761
| 13> C 	 -36.5431 	 6.6251 	 -3.85549
| 14> H 	 -35.5651 	 6.20154 	 -4.04084
| 15> H 	 -36.969 	 6.37274 	 -4.85046
| 16> C 	 -37.1827 	 5.74886 	 -2.72291
| 17> H 	 -36.442 	 5.70598 	 -1.84255
| 18> H 	 -38.1692 	 6.13197 	 -2.43638
| 19> C 	 -37.4193 	 4.28679 	 -3.18151
| 20> H 	 -36.5036 	 3.78681 	 -3.4214
| 21> H 	 -37.9254 	 3.85215 	 -2.28252
| 22> H 	 -38.1646 	 4.31705 	 -3.93463
| 23> S 	 -34.5103 	 12.4205 	 -2.17641
| 24> C 	 -33.1279 	 13.2921 	 -2.97462
| 25> C 	 -32.8341 	 12.6226 	 -4.17241
| 26> C 	 -33.7076 	 11.534 	 -4.49299
| 27> C 	 -34.6844 	 11.2804 	 -3.5396
| 28> H 	 -32.0489 	 13.054 	 -4.79208
| 29> C 	 -33.5605 	 10.9131 	 -5.92943
| 30> H 	 -33.4684 	 9.78428 	 -5.74644
| 31> H 	 -32.7738 	 11.4426 	 -6.345
| 32> C 	 -34.7709 	 11.2396 	 -6.90602
| 33> H 	 -35.2656 	 12.1104 	 -6.55926
| 34> H 	 -35.4558 	 10.3878 	 -6.84628
| 35> C 	 -34.2019 	 11.4951 	 -8.30553
| 36> H 	 -33.6435 	 10.6116 	 -8.58526
| 37> H 	 -33.5831 	 12.3669 	 -8.48425
| 38> H 	 -34.9904 	 11.5653 	 -8.99259
| 39> H 	 -38.5508 	 8.3995 	 -2.81119
| 40> H 	 -32.4372 	 14.0142 	 -2.64769
| 41> *
| 42>
| 43>                          ****END OF INPUT****

CARTESIAN COORDINATES (ANGSTROEM)
---------------------------------
  S    -37.153200   10.450600   -2.407840
  C    -37.629700    8.843050   -2.989480
  C    -36.613600    8.118710   -3.579310
  C    -35.464700    8.946940   -3.824460
  C    -35.655600   10.216200   -3.351230
  H    -34.561100    8.740590   -4.387610
  C    -36.543100    6.625100   -3.855490
  H    -35.565100    6.201540   -4.040840
  H    -36.969000    6.372740   -4.850460
  C    -37.182700    5.748860   -2.722910
  H    -36.442000    5.705980   -1.842550
  H    -38.169200    6.131970   -2.436380
  C    -37.419300    4.286790   -3.181510
  H    -36.503600    3.786810   -3.421400
  H    -37.925400    3.852150   -2.282520
  H    -38.164600    4.317050   -3.934630
  S    -34.510300   12.420500   -2.176410
  C    -33.127900   13.292100   -2.974620
  C    -32.834100   12.622600   -4.172410
  C    -33.707600   11.534000   -4.492990
  C    -34.684400   11.280400   -3.539600
  H    -32.048900   13.054000   -4.792080
  C    -33.560500   10.913100   -5.929430
  H    -33.468400    9.784280   -5.746440
  H    -32.773800   11.442600   -6.345000
  C    -34.770900   11.239600   -6.906020
  H    -35.265600   12.110400   -6.559260
  H    -35.455800   10.387800   -6.846280
  C    -34.201900   11.495100   -8.305530
  H    -33.643500   10.611600   -8.585260
  H    -33.583100   12.366900   -8.484250
  H    -34.990400   11.565300   -8.992590
  H    -38.550800    8.399500   -2.811190
  H    -32.437200   14.014200   -2.647690

 Total Charge           Charge          ....    0
 Multiplicity           Mult            ....    1
 Number of Electrons    NEL             ....  134
 Basis Dimension        Dim             ....  322

ORBITAL ENERGIES
----------------

  NO   OCC          E(Eh)            E(eV)
   0   2.0000     -88.972656     -2421.0690
   1   2.0000     -88.965257     -2420.8677
   2   2.0000     -10.331421      -281.1323
   3   2.0000     -10.330172      -281.0983
   4   2.0000     -10.319322      -280.8030
   5   2.0000     -10.312250      -280.6106
   6   2.0000     -10.306100      -280.4432
   7   2.0000     -10.304161      -280.3905
   8   2.0000     -10.297206      -280.2012
   9   2.0000     -10.296706      -280.1876
  10   2.0000     -10.296450      -280.1807
  11   2.0000     -10.295946      -280.1669
  12   2.0000     -10.294207      -280.1196
  13   2.0000     -10.283990      -279.8416
  14   2.0000     -10.278630      -279.6958
  15   2.0000     -10.271815      -279.5103
  16   2.0000      -8.086256      -220.0382
  17   2.0000      -8.078234      -219.8199
  18   2.0000      -6.044879      -164.4895
  19   2.0000      -6.041341      -164.3933
  20   2.0000      -6.037036      -164.2761
  21   2.0000      -6.036549      -164.2629
  22   2.0000      -6.032932      -164.1644
  23   2.0000      -6.028847      -164.0533
  24   2.0000      -1.001405       -27.2496
  25   2.0000      -0.973882       -26.5007
  26   2.0000      -0.907487       -24.6940
  27   2.0000      -0.901299       -24.5256
  28   2.0000      -0.868266       -23.6267
  29   2.0000      -0.855098       -23.2684
  30   2.0000      -0.842306       -22.9203
  31   2.0000      -0.813567       -22.1383
  32   2.0000      -0.779808       -21.2196
  33   2.0000      -0.770273       -20.9602
  34   2.0000      -0.713394       -19.4124
  35   2.0000      -0.698816       -19.0158
  36   2.0000      -0.688292       -18.7294
  37   2.0000      -0.666143       -18.1267
  38   2.0000      -0.642449       -17.4819
  39   2.0000      -0.616186       -16.7673
  40   2.0000      -0.582858       -15.8604
  41   2.0000      -0.576000       -15.6738
  42   2.0000      -0.567830       -15.4514
  43   2.0000      -0.557896       -15.1811
  44   2.0000      -0.529296       -14.4029
  45   2.0000      -0.524316       -14.2674
  46   2.0000      -0.516868       -14.0647
  47   2.0000      -0.513809       -13.9814
  48   2.0000      -0.503578       -13.7031
  49   2.0000      -0.499300       -13.5867
  50   2.0000      -0.492397       -13.3988
  51   2.0000      -0.479249       -13.0410
  52   2.0000      -0.474681       -12.9167
  53   2.0000      -0.467411       -12.7189
  54   2.0000      -0.455902       -12.4057
  55   2.0000      -0.449933       -12.2433
  56   2.0000      -0.445407       -12.1201
  57   2.0000      -0.437288       -11.8992
  58   2.0000      -0.428442       -11.6585
  59   2.0000      -0.427248       -11.6260
  60   2.0000      -0.419416       -11.4129
  61   2.0000      -0.412443       -11.2231
  62   2.0000      -0.404259       -11.0004
  63   2.0000      -0.356298        -9.6953
  64   2.0000      -0.335920        -9.1408
  65   2.0000      -0.326562        -8.8862
  66   2.0000      -0.280795        -7.6408
  67   0.0000       0.018186         0.4949
  68   0.0000       0.067010         1.8234
  69   0.0000       0.089369         2.4319
  70   0.0000       0.122201         3.3253
  71   0.0000       0.131004         3.5648

MULLIKEN ATOMIC CHARGES
-----------------------
   0 S :    0.115578
   1 C :   -0.094357
   2 C :   -0.027360
   3 C :   -0.013971
   4 C :   -0.104020
   5 H :    0.002570
   6 C :    0.061340
   7 H :    0.014293
   8 H :    0.029029
   9 C :   -0.138804
  10 H :    0.053382
  11 H :    0.032601
  12 C :   -0.034420
  13 H :    0.039434
  14 H :    0.038394
  15 H :    0.024719
  16 S :    0.070766
  17 C :   -0.064376
  18 C :   -0.067700
  19 C :   -0.088648
  20 C :   -0.111754
  21 H :    0.028461
  22 C :    0.069477
  23 H :    0.050696
  24 H :   -0.002469
  25 C :   -0.042982
  26 H :    0.032719
  27 H :    0.037892
  28 C :   -0.048618
  29 H :    0.025872
  30 H :    0.038631
  31 H :    0.018018
  32 H :    0.013316
  33 H :    0.042293
Sum of atomic charges:   -0.0000000

LOEWDIN ATOMIC CHARGES
----------------------
   0 S :    0.378843
   1 C :   -0.175620
   2 C :   -0.052248
   3 C :   -0.057623
   4 C :   -0.173534
   5 H :    0.032588
   6 C :   -0.042364
   7 H :    0.029055
   8 H :    0.033646
   9 C :   -0.039623
  10 H :    0.034352
  11 H :    0.019694
  12 C :   -0.061208
  13 H :    0.021063
  14 H :    0.034927
  15 H :    0.017999
  16 S :    0.360383
  17 C :   -0.168867
  18 C :   -0.071226
  19 C :   -0.067910
  20 C :   -0.178773
  21 H :    0.032724
  22 C :   -0.021123
  23 H :    0.036177
  24 H :    0.016214
  25 C :   -0.028579
  26 H :    0.020850
  27 H :    0.027792
  28 C :   -0.064473
  29 H :    0.025131
  30 H :    0.026393
  31 H :    0.019553
  32 H :    0.010268
  33 H :    0.025521

  Mayer bond orders larger than 0.100000
B(  0-S ,  1-C ) :   1.1121 B(  0-S ,  4-C ) :   1.1170 B(  1-C ,  2-C ) :   1.6584
B(  1-C , 32-H ) :   0.9713 B(  2-C ,  3-C ) :   1.1925 B(  2-C ,  6-C ) :   1.0100
B(  3-C ,  4-C ) :   1.6170 B(  3-C ,  5-H ) :   0.9933 B(  4-C , 20-C ) :   1.0652
B(  6-C ,  7-H ) :   0.9478 B(  6-C ,  8-H ) :   0.9339 B(  6-C ,  9-C ) :   1.0529
B(  9-C , 10-H ) :   0.9600 B(  9-C , 11-H ) :   0.9607 B(  9-C , 12-C ) :   1.0776
B( 12-C , 13-H ) :   0.9770 B( 12-C , 14-H ) :   0.9748 B( 12-C , 15-H ) :   0.9770
B( 16-S , 17-C ) :   1.1282 B( 16-S , 20-C ) :   1.1129 B( 17-C , 18-C ) :   1.6386
B( 17-C , 20-C ) :   0.1040 B( 17-C , 33-H ) :   0.9680 B( 18-C , 19-C ) :   1.2477
B( 18-C , 21-H ) :   0.9783 B( 19-C , 20-C ) :   1.6023 B( 19-C , 22-C ) :   1.0324
B( 22-C , 23-H ) :   0.9321 B( 22-C , 24-H ) :   0.9386 B( 22-C , 25-C ) :   1.0523
B( 25-C , 26-H ) :   0.9614 B( 25-C , 27-H ) :   0.9543 B( 25-C , 28-C ) :   1.0896
B( 28-C , 29-H ) :   0.9747 B( 28-C , 30-H ) :   0.9739 B( 28-C , 31-H ) :   0.9717

Dispersion correction           -0.013660753
FINAL SINGLE POINT ENERGY     -1339.844996088880

DIPOLE MOMENT
-------------
                                X             Y             Z
Electronic contribution:     -0.49979      20.28164      18.60302
Nuclear contribution   :      0.70049     -20.77805     -19.17386
                        -----------------------------------------
Total Dipole Moment    :      0.20071      -0.49641      -0.57084
                        -----------------------------------------
Magnitude (a.u.)       :      0.78267
Magnitude (Debye)      :      1.98938

Rotational constants in cm-1:     0.019203     0.007760     0.006185
Rotational constants in MHz :   575.702802   232.638617   185.414516

                             ****ORCA TERMINATED NORMALLY****
TOTAL RUN TIME: 0 days 0 hours 0 minutes 20 seconds 72 msec
