                         Program Version 4.2.1 -  RELEASE  -
|  1> ! wB97X-D3 SP def2-SVP
|  2> %pal
|  3> nprocs 24
|  4> end
|  5>
|  6> * xyz 0 1
|  7> S 	 -128.288 	 61.3137 	 -56.9049
|  8> C 	 -128.311 	 59.6487 	 -57.3952
|  9> C 	 -129.329 	 58.916 	 -56.7508
| 10> C 	 -129.994 	 59.7221 	 -55.8153
| 11> C 	 -129.583 	 61.041 	 -55.708
| 12> H 	 -130.865 	 59.4165 	 -55.3088
| 13> C 	 -129.624 	 57.5079 	 -57.0361
| 14> H 	 -130.696 	 57.2333 	 -56.8278
| 15> H 	 -129.111 	 56.737 	 -56.4049
| 16> C 	 -129.506 	 56.9544 	 -58.4552
| 17> H 	 -130.044 	 57.6262 	 -59.1083
| 18> H 	 -128.53 	 56.9017 	 -58.8613
| 19> C 	 -130.068 	 55.4464 	 -58.7273
| 20> H 	 -131.005 	 55.2566 	 -58.2523
| 21> H 	 -130.145 	 55.2937 	 -59.8046
| 22> H 	 -129.497 	 54.6389 	 -58.2161
| 23> S 	 -130.547 	 63.6162 	 -55.8347
| 24> C 	 -130.782 	 64.5333 	 -54.3297
| 25> C 	 -130.674 	 63.6512 	 -53.2603
| 26> C 	 -130.235 	 62.3314 	 -53.624
| 27> C 	 -130.153 	 62.1621 	 -54.9926
| 28> H 	 -130.753 	 63.9914 	 -52.1887
| 29> C 	 -129.938 	 61.2385 	 -52.6595
| 30> H 	 -129.148 	 60.6714 	 -53.124
| 31> H 	 -130.798 	 60.5992 	 -52.606
| 32> C 	 -129.439 	 61.5584 	 -51.278
| 33> H 	 -130.165 	 62.0744 	 -50.6194
| 34> H 	 -128.52 	 62.1717 	 -51.3666
| 35> C 	 -129.029 	 60.352 	 -50.4684
| 36> H 	 -129.895 	 59.5594 	 -50.4641
| 37> H 	 -128.819 	 60.589 	 -49.3983
| 38> H 	 -128.256 	 59.968 	 -51.1486
| 39> H 	 -127.553 	 59.1905 	 -58.0545
| 40> H 	 -131.152 	 65.5706 	 -54.291
| 41> *
| 42>
| 43>                          ****END OF INPUT****

CARTESIAN COORDINATES (ANGSTROEM)
---------------------------------
  S    -128.288000   61.313700  -56.904900
  C    -128.311000   59.648700  -57.395200
  C    -129.329000   58.916000  -56.750800
  C    -129.994000   59.722100  -55.815300
  C    -129.583000   61.041000  -55.708000
  H    -130.865000   59.416500  -55.308800
  C    -129.624000   57.507900  -57.036100
  H    -130.696000   57.233300  -56.827800
  H    -129.111000   56.737000  -56.404900
  C    -129.506000   56.954400  -58.455200
  H    -130.044000   57.626200  -59.108300
  H    -128.530000   56.901700  -58.861300
  C    -130.068000   55.446400  -58.727300
  H    -131.005000   55.256600  -58.252300
  H    -130.145000   55.293700  -59.804600
  H    -129.497000   54.638900  -58.216100
  S    -130.547000   63.616200  -55.834700
  C    -130.782000   64.533300  -54.329700
  C    -130.674000   63.651200  -53.260300
  C    -130.235000   62.331400  -53.624000
  C    -130.153000   62.162100  -54.992600
  H    -130.753000   63.991400  -52.188700
  C    -129.938000   61.238500  -52.659500
  H    -129.148000   60.671400  -53.124000
  H    -130.798000   60.599200  -52.606000
  C    -129.439000   61.558400  -51.278000
  H    -130.165000   62.074400  -50.619400
  H    -128.520000   62.171700  -51.366600
  C    -129.029000   60.352000  -50.468400
  H    -129.895000   59.559400  -50.464100
  H    -128.819000   60.589000  -49.398300
  H    -128.256000   59.968000  -51.148600
  H    -127.553000   59.190500  -58.054500
  H    -131.152000   65.570600  -54.291000

 Total Charge           Charge          ....    0
 Multiplicity           Mult            ....    1
 Number of Electrons    NEL             ....  134
 Basis Dimension        Dim             ....  322

ORBITAL ENERGIES
----------------

  NO   OCC          E(Eh)            E(eV)
   0   2.0000     -88.968644     -2420.9599
   1   2.0000     -88.965592     -2420.8768
   2   2.0000     -10.332090      -281.1505
   3   2.0000     -10.323804      -280.9250
   4   2.0000     -10.322704      -280.8951
   5   2.0000     -10.319829      -280.8168
   6   2.0000     -10.303216      -280.3648
   7   2.0000     -10.300882      -280.3013
   8   2.0000     -10.300527      -280.2916
   9   2.0000     -10.297382      -280.2060
  10   2.0000     -10.293282      -280.0944
  11   2.0000     -10.289139      -279.9817
  12   2.0000     -10.288221      -279.9567
  13   2.0000     -10.286340      -279.9055
  14   2.0000     -10.285090      -279.8715
  15   2.0000     -10.284802      -279.8637
  16   2.0000      -8.082913      -219.9473
  17   2.0000      -8.080265      -219.8752
  18   2.0000      -6.041315      -164.3925
  19   2.0000      -6.038847      -164.3254
  20   2.0000      -6.037366      -164.2851
  21   2.0000      -6.034699      -164.2125
  22   2.0000      -6.033912      -164.1911
  23   2.0000      -6.031020      -164.1124
  24   2.0000      -1.008383       -27.4395
  25   2.0000      -0.984695       -26.7949
  26   2.0000      -0.918397       -24.9909
  27   2.0000      -0.909771       -24.7561
  28   2.0000      -0.868140       -23.6233
  29   2.0000      -0.855045       -23.2669
  30   2.0000      -0.848164       -23.0797
  31   2.0000      -0.815167       -22.1818
  32   2.0000      -0.781705       -21.2713
  33   2.0000      -0.768399       -20.9092
  34   2.0000      -0.711296       -19.3553
  35   2.0000      -0.699230       -19.0270
  36   2.0000      -0.693768       -18.8784
  37   2.0000      -0.652430       -17.7535
  38   2.0000      -0.642777       -17.4909
  39   2.0000      -0.621101       -16.9010
  40   2.0000      -0.601306       -16.3624
  41   2.0000      -0.581947       -15.8356
  42   2.0000      -0.571399       -15.5486
  43   2.0000      -0.560811       -15.2604
  44   2.0000      -0.533547       -14.5185
  45   2.0000      -0.524858       -14.2821
  46   2.0000      -0.522625       -14.2213
  47   2.0000      -0.511280       -13.9126
  48   2.0000      -0.502090       -13.6626
  49   2.0000      -0.499885       -13.6026
  50   2.0000      -0.490598       -13.3499
  51   2.0000      -0.479075       -13.0363
  52   2.0000      -0.467122       -12.7110
  53   2.0000      -0.462312       -12.5802
  54   2.0000      -0.456309       -12.4168
  55   2.0000      -0.448903       -12.2153
  56   2.0000      -0.443491       -12.0680
  57   2.0000      -0.440442       -11.9850
  58   2.0000      -0.427606       -11.6358
  59   2.0000      -0.424567       -11.5531
  60   2.0000      -0.419086       -11.4039
  61   2.0000      -0.414390       -11.2761
  62   2.0000      -0.410157       -11.1609
  63   2.0000      -0.349204        -9.5023
  64   2.0000      -0.331952        -9.0329
  65   2.0000      -0.329734        -8.9725
  66   2.0000      -0.291492        -7.9319
  67   0.0000       0.027299         0.7428
  68   0.0000       0.062721         1.7067
  69   0.0000       0.114363         3.1120
  70   0.0000       0.123718         3.3665
  71   0.0000       0.132639         3.6093

MULLIKEN ATOMIC CHARGES
-----------------------
   0 S :    0.120919
   1 C :   -0.133665
   2 C :   -0.045578
   3 C :    0.055621
   4 C :   -0.177635
   5 H :   -0.006127
   6 C :    0.036718
   7 H :    0.023941
   8 H :    0.042390
   9 C :   -0.092063
  10 H :    0.029000
  11 H :    0.024339
  12 C :   -0.072283
  13 H :    0.017254
  14 H :    0.049104
  15 H :    0.033773
  16 S :    0.104692
  17 C :   -0.119413
  18 C :   -0.028257
  19 C :   -0.050994
  20 C :   -0.147234
  21 H :    0.042861
  22 C :    0.083959
  23 H :    0.025348
  24 H :    0.032840
  25 C :   -0.101073
  26 H :    0.027050
  27 H :    0.037530
  28 C :   -0.075298
  29 H :    0.032532
  30 H :    0.056157
  31 H :    0.032873
  32 H :    0.064806
  33 H :    0.075915
Sum of atomic charges:   -0.0000000

LOEWDIN ATOMIC CHARGES
----------------------
   0 S :    0.408701
   1 C :   -0.197917
   2 C :   -0.071342
   3 C :   -0.050226
   4 C :   -0.184782
   5 H :    0.025415
   6 C :   -0.047683
   7 H :    0.037812
   8 H :    0.037819
   9 C :   -0.036172
  10 H :    0.022100
  11 H :    0.013519
  12 C :   -0.067968
  13 H :    0.016999
  14 H :    0.031237
  15 H :    0.028615
  16 S :    0.406078
  17 C :   -0.185419
  18 C :   -0.074722
  19 C :   -0.055062
  20 C :   -0.215733
  21 H :    0.040832
  22 C :   -0.035655
  23 H :    0.034359
  24 H :    0.032158
  25 C :   -0.051783
  26 H :    0.018995
  27 H :    0.028814
  28 C :   -0.071952
  29 H :    0.029021
  30 H :    0.033826
  31 H :    0.027255
  32 H :    0.034804
  33 H :    0.038057

  Mayer bond orders larger than 0.100000
B(  0-S ,  1-C ) :   1.1672 B(  0-S ,  4-C ) :   1.1442 B(  1-C ,  2-C ) :   1.5565
B(  1-C ,  4-C ) :   0.1050 B(  1-C , 32-H ) :   0.9643 B(  2-C ,  3-C ) :   1.2852
B(  2-C ,  6-C ) :   1.0349 B(  3-C ,  4-C ) :   1.5432 B(  3-C ,  5-H ) :   0.9998
B(  4-C , 20-C ) :   1.0542 B(  6-C ,  7-H ) :   0.9446 B(  6-C ,  8-H ) :   0.9275
B(  6-C ,  9-C ) :   1.0601 B(  9-C , 10-H ) :   0.9614 B(  9-C , 11-H ) :   0.9528
B(  9-C , 12-C ) :   1.0722 B( 12-C , 13-H ) :   0.9766 B( 12-C , 14-H ) :   0.9777
B( 12-C , 15-H ) :   0.9758 B( 16-S , 17-C ) :   1.1499 B( 16-S , 20-C ) :   1.1447
B( 17-C , 18-C ) :   1.5891 B( 17-C , 33-H ) :   0.9650 B( 18-C , 19-C ) :   1.2646
B( 18-C , 21-H ) :   0.9757 B( 19-C , 20-C ) :   1.5787 B( 19-C , 22-C ) :   1.0449
B( 22-C , 23-H ) :   0.9182 B( 22-C , 24-H ) :   0.9218 B( 22-C , 25-C ) :   1.0828
B( 25-C , 26-H ) :   0.9433 B( 25-C , 27-H ) :   0.9570 B( 25-C , 28-C ) :   1.0758
B( 28-C , 29-H ) :   0.9720 B( 28-C , 30-H ) :   0.9709 B( 28-C , 31-H ) :   0.9764

Dispersion correction           -0.013320891
FINAL SINGLE POINT ENERGY     -1339.869408404578

DIPOLE MOMENT
-------------
                                X             Y             Z
Electronic contribution:      0.71290      25.28925      -9.50258
Nuclear contribution   :     -0.84186     -25.74132       9.82823
                        -----------------------------------------
Total Dipole Moment    :     -0.12896      -0.45207       0.32566
                        -----------------------------------------
Magnitude (a.u.)       :      0.57188
Magnitude (Debye)      :      1.45361

Rotational constants in cm-1:     0.019621     0.007274     0.005866
Rotational constants in MHz :   588.232385   218.082783   175.855939

                             ****ORCA TERMINATED NORMALLY****
TOTAL RUN TIME: 0 days 0 hours 0 minutes 20 seconds 804 msec
