                         Program Version 4.2.1 -  RELEASE  -
|  1> ! wB97X-D3 SP def2-SVP
|  2> %pal
|  3> nprocs 24
|  4> end
|  5>
|  6> * xyz 0 1
|  7> S 	 -103.184 	 13.4809 	 -8.51491
|  8> C 	 -102.108 	 13.5711 	 -7.16011
|  9> C 	 -102.831 	 13.2335 	 -6.01943
| 10> C 	 -104.157 	 12.777 	 -6.28423
| 11> C 	 -104.471 	 12.8719 	 -7.62678
| 12> H 	 -104.914 	 12.5435 	 -5.51184
| 13> C 	 -102.195 	 13.3328 	 -4.62819
| 14> H 	 -102.974 	 13.763 	 -3.88328
| 15> H 	 -101.432 	 14.1268 	 -4.575
| 16> C 	 -101.716 	 12.0347 	 -3.93159
| 17> H 	 -100.926 	 11.542 	 -4.56371
| 18> H 	 -101.186 	 12.3081 	 -3.06457
| 19> C 	 -102.793 	 10.9545 	 -3.71548
| 20> H 	 -103.731 	 11.2809 	 -3.23584
| 21> H 	 -103.09 	 10.6482 	 -4.71739
| 22> H 	 -102.392 	 10.1428 	 -3.09445
| 23> S 	 -105.542 	 10.8084 	 -9.27271
| 24> C 	 -107.278 	 10.7462 	 -9.30904
| 25> C 	 -107.83 	 11.8597 	 -8.7027
| 26> C 	 -106.914 	 12.7634 	 -8.10202
| 27> C 	 -105.671 	 12.2777 	 -8.18141
| 28> H 	 -108.913 	 11.9608 	 -8.73522
| 29> C 	 -107.506 	 13.8601 	 -7.2458
| 30> H 	 -108.162 	 14.3233 	 -7.95933
| 31> H 	 -106.729 	 14.5614 	 -6.99258
| 32> C 	 -108.344 	 13.4703 	 -6.05372
| 33> H 	 -107.827 	 12.6733 	 -5.51632
| 34> H 	 -109.294 	 12.9942 	 -6.33385
| 35> C 	 -108.592 	 14.5543 	 -5.01305
| 36> H 	 -109.184 	 15.3709 	 -5.56509
| 37> H 	 -107.761 	 14.9607 	 -4.46624
| 38> H 	 -109.368 	 14.0904 	 -4.41214
| 39> H 	 -101.151 	 13.9713 	 -7.00562
| 40> H 	 -107.905 	 10.0818 	 -9.92661
| 41> *
| 42>
| 43>                          ****END OF INPUT****

CARTESIAN COORDINATES (ANGSTROEM)
---------------------------------
  S    -103.184000   13.480900   -8.514910
  C    -102.108000   13.571100   -7.160110
  C    -102.831000   13.233500   -6.019430
  C    -104.157000   12.777000   -6.284230
  C    -104.471000   12.871900   -7.626780
  H    -104.914000   12.543500   -5.511840
  C    -102.195000   13.332800   -4.628190
  H    -102.974000   13.763000   -3.883280
  H    -101.432000   14.126800   -4.575000
  C    -101.716000   12.034700   -3.931590
  H    -100.926000   11.542000   -4.563710
  H    -101.186000   12.308100   -3.064570
  C    -102.793000   10.954500   -3.715480
  H    -103.731000   11.280900   -3.235840
  H    -103.090000   10.648200   -4.717390
  H    -102.392000   10.142800   -3.094450
  S    -105.542000   10.808400   -9.272710
  C    -107.278000   10.746200   -9.309040
  C    -107.830000   11.859700   -8.702700
  C    -106.914000   12.763400   -8.102020
  C    -105.671000   12.277700   -8.181410
  H    -108.913000   11.960800   -8.735220
  C    -107.506000   13.860100   -7.245800
  H    -108.162000   14.323300   -7.959330
  H    -106.729000   14.561400   -6.992580
  C    -108.344000   13.470300   -6.053720
  H    -107.827000   12.673300   -5.516320
  H    -109.294000   12.994200   -6.333850
  C    -108.592000   14.554300   -5.013050
  H    -109.184000   15.370900   -5.565090
  H    -107.761000   14.960700   -4.466240
  H    -109.368000   14.090400   -4.412140
  H    -101.151000   13.971300   -7.005620
  H    -107.905000   10.081800   -9.926610

 Total Charge           Charge          ....    0
 Multiplicity           Mult            ....    1
 Number of Electrons    NEL             ....  134
 Basis Dimension        Dim             ....  322

ORBITAL ENERGIES
----------------

  NO   OCC          E(Eh)            E(eV)
   0   2.0000     -88.969355     -2420.9792
   1   2.0000     -88.964802     -2420.8553
   2   2.0000     -10.325601      -280.9739
   3   2.0000     -10.321296      -280.8567
   4   2.0000     -10.317684      -280.7585
   5   2.0000     -10.309361      -280.5320
   6   2.0000     -10.300816      -280.2994
   7   2.0000     -10.300486      -280.2905
   8   2.0000     -10.296814      -280.1906
   9   2.0000     -10.294236      -280.1204
  10   2.0000     -10.288981      -279.9774
  11   2.0000     -10.287958      -279.9496
  12   2.0000     -10.287799      -279.9452
  13   2.0000     -10.286205      -279.9019
  14   2.0000     -10.284658      -279.8598
  15   2.0000     -10.277941      -279.6770
  16   2.0000      -8.085156      -220.0083
  17   2.0000      -8.078701      -219.8326
  18   2.0000      -6.043570      -164.4539
  19   2.0000      -6.039286      -164.3373
  20   2.0000      -6.037317      -164.2838
  21   2.0000      -6.036156      -164.2522
  22   2.0000      -6.033550      -164.1812
  23   2.0000      -6.029166      -164.0620
  24   2.0000      -1.013770       -27.5861
  25   2.0000      -0.987560       -26.8729
  26   2.0000      -0.915192       -24.9036
  27   2.0000      -0.906246       -24.6602
  28   2.0000      -0.871492       -23.7145
  29   2.0000      -0.855528       -23.2801
  30   2.0000      -0.844688       -22.9851
  31   2.0000      -0.811495       -22.0819
  32   2.0000      -0.788189       -21.4477
  33   2.0000      -0.775316       -21.0974
  34   2.0000      -0.706378       -19.2215
  35   2.0000      -0.697797       -18.9880
  36   2.0000      -0.696667       -18.9573
  37   2.0000      -0.659016       -17.9327
  38   2.0000      -0.639075       -17.3901
  39   2.0000      -0.613037       -16.6816
  40   2.0000      -0.596211       -16.2237
  41   2.0000      -0.571569       -15.5532
  42   2.0000      -0.570888       -15.5346
  43   2.0000      -0.550125       -14.9697
  44   2.0000      -0.535766       -14.5789
  45   2.0000      -0.532651       -14.4942
  46   2.0000      -0.520745       -14.1702
  47   2.0000      -0.511084       -13.9073
  48   2.0000      -0.502328       -13.6690
  49   2.0000      -0.497822       -13.5464
  50   2.0000      -0.490261       -13.3407
  51   2.0000      -0.480281       -13.0691
  52   2.0000      -0.477029       -12.9806
  53   2.0000      -0.464456       -12.6385
  54   2.0000      -0.458111       -12.4658
  55   2.0000      -0.446705       -12.1555
  56   2.0000      -0.441612       -12.0169
  57   2.0000      -0.438384       -11.9290
  58   2.0000      -0.430233       -11.7072
  59   2.0000      -0.429034       -11.6746
  60   2.0000      -0.423673       -11.5287
  61   2.0000      -0.407965       -11.1013
  62   2.0000      -0.405997       -11.0477
  63   2.0000      -0.338630        -9.2146
  64   2.0000      -0.334808        -9.1106
  65   2.0000      -0.326042        -8.8721
  66   2.0000      -0.303757        -8.2657
  67   0.0000       0.039032         1.0621
  68   0.0000       0.060473         1.6455
  69   0.0000       0.110559         3.0085
  70   0.0000       0.116400         3.1674
  71   0.0000       0.132184         3.5969

MULLIKEN ATOMIC CHARGES
-----------------------
   0 S :    0.138054
   1 C :   -0.081950
   2 C :   -0.099048
   3 C :    0.017304
   4 C :   -0.175529
   5 H :    0.027908
   6 C :    0.003852
   7 H :    0.031902
   8 H :    0.024371
   9 C :   -0.046376
  10 H :    0.027154
  11 H :    0.017604
  12 C :   -0.063246
  13 H :    0.024043
  14 H :    0.045186
  15 H :    0.043621
  16 S :    0.106594
  17 C :   -0.089396
  18 C :   -0.062822
  19 C :    0.002622
  20 C :   -0.181237
  21 H :    0.014301
  22 C :    0.119401
  23 H :    0.018707
  24 H :    0.020961
  25 C :   -0.089575
  26 H :    0.024185
  27 H :    0.025255
  28 C :   -0.045826
  29 H :    0.029676
  30 H :    0.051171
  31 H :    0.032689
  32 H :    0.024586
  33 H :    0.063856
Sum of atomic charges:   -0.0000000

LOEWDIN ATOMIC CHARGES
----------------------
   0 S :    0.455645
   1 C :   -0.204649
   2 C :   -0.064790
   3 C :   -0.067135
   4 C :   -0.224217
   5 H :    0.037381
   6 C :   -0.042362
   7 H :    0.036409
   8 H :    0.028681
   9 C :   -0.040861
  10 H :    0.028095
  11 H :    0.014808
  12 C :   -0.068486
  13 H :    0.020668
  14 H :    0.028874
  15 H :    0.030798
  16 S :    0.369349
  17 C :   -0.188871
  18 C :   -0.074002
  19 C :   -0.054102
  20 C :   -0.169645
  21 H :    0.027860
  22 C :   -0.027923
  23 H :    0.033235
  24 H :    0.028555
  25 C :   -0.044443
  26 H :    0.021794
  27 H :    0.025852
  28 C :   -0.063775
  29 H :    0.031555
  30 H :    0.024623
  31 H :    0.030802
  32 H :    0.023769
  33 H :    0.036504

  Mayer bond orders larger than 0.100000
B(  0-S ,  1-C ) :   1.1422 B(  0-S ,  4-C ) :   1.1920 B(  1-C ,  2-C ) :   1.5881
B(  1-C , 32-H ) :   0.9719 B(  2-C ,  3-C ) :   1.2725 B(  2-C ,  6-C ) :   1.0225
B(  3-C ,  4-C ) :   1.5325 B(  3-C ,  5-H ) :   0.9895 B(  4-C , 20-C ) :   1.0204
B(  6-C ,  7-H ) :   0.9435 B(  6-C ,  8-H ) :   0.9452 B(  6-C ,  9-C ) :   1.0699
B(  9-C , 10-H ) :   0.9527 B(  9-C , 11-H ) :   0.9562 B(  9-C , 12-C ) :   1.0741
B( 12-C , 13-H ) :   0.9765 B( 12-C , 14-H ) :   0.9713 B( 12-C , 15-H ) :   0.9726
B( 16-S , 17-C ) :   1.1360 B( 16-S , 20-C ) :   1.1030 B( 17-C , 18-C ) :   1.6597
B( 17-C , 33-H ) :   0.9595 B( 18-C , 19-C ) :   1.1872 B( 18-C , 21-H ) :   0.9877
B( 19-C , 20-C ) :   1.6660 B( 19-C , 22-C ) :   1.0513 B( 22-C , 23-H ) :   0.9151
B( 22-C , 24-H ) :   0.9306 B( 22-C , 25-C ) :   1.0663 B( 25-C , 26-H ) :   0.9548
B( 25-C , 27-H ) :   0.9459 B( 25-C , 28-C ) :   1.0914 B( 28-C , 29-H ) :   0.9729
B( 28-C , 30-H ) :   0.9758 B( 28-C , 31-H ) :   0.9714

Dispersion correction           -0.014547792
FINAL SINGLE POINT ENERGY     -1339.869042202743

DIPOLE MOMENT
-------------
                                X             Y             Z
Electronic contribution:      6.53747      -4.19354     -25.87276
Nuclear contribution   :     -6.87965       4.40379      26.42094
                        -----------------------------------------
Total Dipole Moment    :     -0.34218       0.21025       0.54819
                        -----------------------------------------
Magnitude (a.u.)       :      0.67956
Magnitude (Debye)      :      1.72730

Rotational constants in cm-1:     0.016332     0.009288     0.007506
Rotational constants in MHz :   489.633959   278.448578   225.037312

                             ****ORCA TERMINATED NORMALLY****
TOTAL RUN TIME: 0 days 0 hours 0 minutes 21 seconds 639 msec
