                         Program Version 4.2.1 -  RELEASE  -
|  1> ! wB97X-D3 SP def2-SVP
|  2> %pal
|  3> nprocs 24
|  4> end
|  5>
|  6> * xyz 0 1
|  7> S 	 -1.28574 	 -27.3747 	 -115.443
|  8> C 	 -0.890354 	 -25.6228 	 -115.62
|  9> C 	 -1.03771 	 -24.8827 	 -114.479
| 10> C 	 -1.51385 	 -25.7337 	 -113.451
| 11> C 	 -1.55554 	 -27.0884 	 -113.726
| 12> H 	 -1.85799 	 -25.376 	 -112.48
| 13> C 	 -0.945966 	 -23.3874 	 -114.381
| 14> H 	 -0.449471 	 -23.0149 	 -115.316
| 15> H 	 -0.305639 	 -23.0473 	 -113.632
| 16> C 	 -2.40586 	 -22.6414 	 -114.23
| 17> H 	 -2.92079 	 -23.0316 	 -113.347
| 18> H 	 -2.20555 	 -21.6217 	 -114.061
| 19> C 	 -3.25411 	 -22.8059 	 -115.496
| 20> H 	 -4.31845 	 -22.5766 	 -115.394
| 21> H 	 -2.81104 	 -22.272 	 -116.33
| 22> H 	 -3.27913 	 -23.9065 	 -115.76
| 23> S 	 -0.589612 	 -29.0996 	 -111.978
| 24> C 	 -1.79278 	 -30.1229 	 -111.211
| 25> C 	 -3.02813 	 -29.8445 	 -111.637
| 26> C 	 -3.1678 	 -28.767 	 -112.579
| 27> C 	 -1.93023 	 -28.1663 	 -112.86
| 28> H 	 -3.84991 	 -30.4307 	 -111.297
| 29> C 	 -4.45872 	 -28.4439 	 -113.32
| 30> H 	 -4.71257 	 -27.3568 	 -113.15
| 31> H 	 -5.24578 	 -28.9606 	 -112.813
| 32> C 	 -4.61229 	 -28.8042 	 -114.828
| 33> H 	 -4.1537 	 -29.7697 	 -115.05
| 34> H 	 -4.0039 	 -28.0714 	 -115.381
| 35> C 	 -6.07412 	 -28.7549 	 -115.234
| 36> H 	 -6.36886 	 -27.7222 	 -115.164
| 37> H 	 -6.59986 	 -29.431 	 -114.521
| 38> H 	 -6.37276 	 -29.2086 	 -116.201
| 39> H 	 -0.60256 	 -25.177 	 -116.548
| 40> H 	 -1.50314 	 -30.9201 	 -110.479
| 41> *
| 42>
| 43>                          ****END OF INPUT****

CARTESIAN COORDINATES (ANGSTROEM)
---------------------------------
  S     -1.285740  -27.374700  -115.443000
  C     -0.890354  -25.622800  -115.620000
  C     -1.037710  -24.882700  -114.479000
  C     -1.513850  -25.733700  -113.451000
  C     -1.555540  -27.088400  -113.726000
  H     -1.857990  -25.376000  -112.480000
  C     -0.945966  -23.387400  -114.381000
  H     -0.449471  -23.014900  -115.316000
  H     -0.305639  -23.047300  -113.632000
  C     -2.405860  -22.641400  -114.230000
  H     -2.920790  -23.031600  -113.347000
  H     -2.205550  -21.621700  -114.061000
  C     -3.254110  -22.805900  -115.496000
  H     -4.318450  -22.576600  -115.394000
  H     -2.811040  -22.272000  -116.330000
  H     -3.279130  -23.906500  -115.760000
  S     -0.589612  -29.099600  -111.978000
  C     -1.792780  -30.122900  -111.211000
  C     -3.028130  -29.844500  -111.637000
  C     -3.167800  -28.767000  -112.579000
  C     -1.930230  -28.166300  -112.860000
  H     -3.849910  -30.430700  -111.297000
  C     -4.458720  -28.443900  -113.320000
  H     -4.712570  -27.356800  -113.150000
  H     -5.245780  -28.960600  -112.813000
  C     -4.612290  -28.804200  -114.828000
  H     -4.153700  -29.769700  -115.050000
  H     -4.003900  -28.071400  -115.381000
  C     -6.074120  -28.754900  -115.234000
  H     -6.368860  -27.722200  -115.164000
  H     -6.599860  -29.431000  -114.521000
  H     -6.372760  -29.208600  -116.201000
  H     -0.602560  -25.177000  -116.548000
  H     -1.503140  -30.920100  -110.479000

 Total Charge           Charge          ....    0
 Multiplicity           Mult            ....    1
 Number of Electrons    NEL             ....  134
 Basis Dimension        Dim             ....  322

ORBITAL ENERGIES
----------------

  NO   OCC          E(Eh)            E(eV)
   0   2.0000     -88.968198     -2420.9478
   1   2.0000     -88.959384     -2420.7079
   2   2.0000     -10.330117      -281.0968
   3   2.0000     -10.327203      -281.0175
   4   2.0000     -10.318660      -280.7850
   5   2.0000     -10.316873      -280.7364
   6   2.0000     -10.309126      -280.5256
   7   2.0000     -10.300744      -280.2975
   8   2.0000     -10.300168      -280.2818
   9   2.0000     -10.295443      -280.1533
  10   2.0000     -10.294309      -280.1224
  11   2.0000     -10.294023      -280.1146
  12   2.0000     -10.287801      -279.9453
  13   2.0000     -10.284081      -279.8441
  14   2.0000     -10.280467      -279.7457
  15   2.0000     -10.279928      -279.7311
  16   2.0000      -8.081572      -219.9108
  17   2.0000      -8.073057      -219.6790
  18   2.0000      -6.040095      -164.3594
  19   2.0000      -6.036445      -164.2600
  20   2.0000      -6.032182      -164.1440
  21   2.0000      -6.031617      -164.1286
  22   2.0000      -6.027835      -164.0257
  23   2.0000      -6.023696      -163.9131
  24   2.0000      -0.999733       -27.2041
  25   2.0000      -0.977446       -26.5977
  26   2.0000      -0.907318       -24.6894
  27   2.0000      -0.904098       -24.6018
  28   2.0000      -0.867804       -23.6141
  29   2.0000      -0.847282       -23.0557
  30   2.0000      -0.843666       -22.9573
  31   2.0000      -0.811668       -22.0866
  32   2.0000      -0.783843       -21.3295
  33   2.0000      -0.768784       -20.9197
  34   2.0000      -0.712675       -19.3929
  35   2.0000      -0.699587       -19.0367
  36   2.0000      -0.692231       -18.8366
  37   2.0000      -0.655384       -17.8339
  38   2.0000      -0.640813       -17.4374
  39   2.0000      -0.618640       -16.8341
  40   2.0000      -0.595965       -16.2170
  41   2.0000      -0.568925       -15.4812
  42   2.0000      -0.566004       -15.4018
  43   2.0000      -0.548999       -14.9390
  44   2.0000      -0.539161       -14.6713
  45   2.0000      -0.528042       -14.3687
  46   2.0000      -0.513048       -13.9607
  47   2.0000      -0.510080       -13.8800
  48   2.0000      -0.498744       -13.5715
  49   2.0000      -0.494141       -13.4463
  50   2.0000      -0.483166       -13.1476
  51   2.0000      -0.471174       -12.8213
  52   2.0000      -0.468765       -12.7558
  53   2.0000      -0.461459       -12.5570
  54   2.0000      -0.457927       -12.4608
  55   2.0000      -0.452042       -12.3007
  56   2.0000      -0.444759       -12.1025
  57   2.0000      -0.440165       -11.9775
  58   2.0000      -0.432820       -11.7776
  59   2.0000      -0.427786       -11.6406
  60   2.0000      -0.419555       -11.4167
  61   2.0000      -0.417842       -11.3701
  62   2.0000      -0.411807       -11.2058
  63   2.0000      -0.334883        -9.1126
  64   2.0000      -0.326874        -8.8947
  65   2.0000      -0.316545        -8.6136
  66   2.0000      -0.314689        -8.5631
  67   0.0000       0.041051         1.1170
  68   0.0000       0.045017         1.2250
  69   0.0000       0.106433         2.8962
  70   0.0000       0.111378         3.0307
  71   0.0000       0.129334         3.5194

MULLIKEN ATOMIC CHARGES
-----------------------
   0 S :    0.110562
   1 C :   -0.114791
   2 C :   -0.059446
   3 C :    0.042680
   4 C :   -0.178833
   5 H :    0.011862
   6 C :    0.061384
   7 H :    0.020562
   8 H :    0.024462
   9 C :   -0.059854
  10 H :    0.035543
  11 H :    0.027035
  12 C :   -0.071806
  13 H :    0.039476
  14 H :    0.032356
  15 H :    0.041613
  16 S :    0.081367
  17 C :   -0.097830
  18 C :   -0.015951
  19 C :   -0.007769
  20 C :   -0.186494
  21 H :    0.005063
  22 C :    0.062570
  23 H :    0.037243
  24 H :   -0.005304
  25 C :   -0.059273
  26 H :    0.028956
  27 H :    0.035309
  28 C :   -0.054983
  29 H :    0.036326
  30 H :    0.027093
  31 H :    0.041459
  32 H :    0.032498
  33 H :    0.076917
Sum of atomic charges:   -0.0000000

LOEWDIN ATOMIC CHARGES
----------------------
   0 S :    0.393150
   1 C :   -0.165785
   2 C :   -0.069632
   3 C :   -0.047137
   4 C :   -0.199541
   5 H :    0.031321
   6 C :   -0.022733
   7 H :    0.033934
   8 H :    0.022554
   9 C :   -0.026890
  10 H :    0.023820
  11 H :    0.016979
  12 C :   -0.074131
  13 H :    0.027220
  14 H :    0.023530
  15 H :    0.033167
  16 S :    0.352429
  17 C :   -0.177979
  18 C :   -0.079420
  19 C :   -0.044639
  20 C :   -0.174926
  21 H :    0.027474
  22 C :   -0.033968
  23 H :    0.039896
  24 H :    0.019976
  25 C :   -0.043668
  26 H :    0.022819
  27 H :    0.013990
  28 C :   -0.066897
  29 H :    0.025466
  30 H :    0.027136
  31 H :    0.030681
  32 H :    0.019155
  33 H :    0.042652

  Mayer bond orders larger than 0.100000
B(  0-S ,  1-C ) :   1.1330 B(  0-S ,  4-C ) :   1.1266 B(  1-C ,  2-C ) :   1.6274
B(  1-C , 32-H ) :   0.9633 B(  2-C ,  3-C ) :   1.2155 B(  2-C ,  6-C ) :   1.0378
B(  3-C ,  4-C ) :   1.6178 B(  3-C ,  5-H ) :   0.9908 B(  4-C , 20-C ) :   1.0535
B(  6-C ,  7-H ) :   0.9428 B(  6-C ,  8-H ) :   0.9377 B(  6-C ,  9-C ) :   1.0498
B(  9-C , 10-H ) :   0.9614 B(  9-C , 11-H ) :   0.9603 B(  9-C , 12-C ) :   1.0696
B( 12-C , 13-H ) :   0.9739 B( 12-C , 14-H ) :   0.9761 B( 12-C , 15-H ) :   0.9749
B( 16-S , 17-C ) :   1.1407 B( 16-S , 20-C ) :   1.1101 B( 17-C , 18-C ) :   1.6413
B( 17-C , 33-H ) :   0.9572 B( 18-C , 19-C ) :   1.2217 B( 18-C , 21-H ) :   0.9905
B( 19-C , 20-C ) :   1.6108 B( 19-C , 22-C ) :   1.0503 B( 22-C , 23-H ) :   0.9243
B( 22-C , 24-H ) :   0.9325 B( 22-C , 25-C ) :   1.0516 B( 25-C , 26-H ) :   0.9578
B( 25-C , 27-H ) :   0.9463 B( 25-C , 28-C ) :   1.0771 B( 28-C , 29-H ) :   0.9768
B( 28-C , 30-H ) :   0.9748 B( 28-C , 31-H ) :   0.9737

Dispersion correction           -0.015011459
FINAL SINGLE POINT ENERGY     -1339.879562880941

DIPOLE MOMENT
-------------
                                X             Y             Z
Electronic contribution:     19.38830     -14.94506       7.93028
Nuclear contribution   :    -19.89215      15.31214      -7.92990
                        -----------------------------------------
Total Dipole Moment    :     -0.50386       0.36707       0.00038
                        -----------------------------------------
Magnitude (a.u.)       :      0.62339
Magnitude (Debye)      :      1.58453

Rotational constants in cm-1:     0.018196     0.009026     0.007297
Rotational constants in MHz :   545.488968   270.592378   218.755430

                             ****ORCA TERMINATED NORMALLY****
TOTAL RUN TIME: 0 days 0 hours 0 minutes 21 seconds 934 msec
