                         Program Version 4.2.1 -  RELEASE  -
|  1> ! wB97X-D3 SP def2-SVP
|  2> %pal
|  3> nprocs 24
|  4> end
|  5>
|  6> * xyz 0 1
|  7> S 	 -61.7077 	 14.2654 	 -110.799
|  8> C 	 -61.5696 	 12.63 	 -110.146
|  9> C 	 -61.0301 	 12.6704 	 -108.858
| 10> C 	 -60.5457 	 13.9687 	 -108.472
| 11> C 	 -60.7173 	 14.8901 	 -109.49
| 12> H 	 -60.0919 	 14.2354 	 -107.564
| 13> C 	 -60.8285 	 11.5365 	 -107.981
| 14> H 	 -60.4342 	 11.8767 	 -107.015
| 15> H 	 -60.0568 	 10.8036 	 -108.474
| 16> C 	 -62.0209 	 10.6634 	 -107.75
| 17> H 	 -62.8886 	 11.2982 	 -107.557
| 18> H 	 -62.2564 	 10.0704 	 -108.629
| 19> C 	 -61.8787 	 9.67638 	 -106.599
| 20> H 	 -61.6943 	 10.1673 	 -105.593
| 21> H 	 -62.859 	 9.15124 	 -106.589
| 22> H 	 -61.0259 	 8.99268 	 -106.668
| 23> S 	 -61.3307 	 17.4053 	 -110.165
| 24> C 	 -60.1985 	 18.7175 	 -109.754
| 25> C 	 -59.305 	 18.2844 	 -108.8
| 26> C 	 -59.2415 	 16.8802 	 -108.667
| 27> C 	 -60.3071 	 16.2682 	 -109.38
| 28> H 	 -58.6744 	 19.0262 	 -108.318
| 29> C 	 -58.1643 	 16.1176 	 -107.88
| 30> H 	 -58.0064 	 15.1904 	 -108.452
| 31> H 	 -58.5686 	 15.7814 	 -106.899
| 32> C 	 -56.7399 	 16.7277 	 -107.819
| 33> H 	 -56.7701 	 17.6266 	 -107.195
| 34> H 	 -56.5528 	 17.1402 	 -108.851
| 35> C 	 -55.6637 	 15.7481 	 -107.381
| 36> H 	 -55.8767 	 14.8471 	 -107.936
| 37> H 	 -55.5633 	 15.6218 	 -106.31
| 38> H 	 -54.6564 	 16.019 	 -107.772
| 39> H 	 -61.9251 	 11.7576 	 -110.579
| 40> H 	 -60.2052 	 19.723 	 -110.16
| 41> *
| 42>
| 43>                          ****END OF INPUT****

CARTESIAN COORDINATES (ANGSTROEM)
---------------------------------
  S    -61.707700   14.265400  -110.799000
  C    -61.569600   12.630000  -110.146000
  C    -61.030100   12.670400  -108.858000
  C    -60.545700   13.968700  -108.472000
  C    -60.717300   14.890100  -109.490000
  H    -60.091900   14.235400  -107.564000
  C    -60.828500   11.536500  -107.981000
  H    -60.434200   11.876700  -107.015000
  H    -60.056800   10.803600  -108.474000
  C    -62.020900   10.663400  -107.750000
  H    -62.888600   11.298200  -107.557000
  H    -62.256400   10.070400  -108.629000
  C    -61.878700    9.676380  -106.599000
  H    -61.694300   10.167300  -105.593000
  H    -62.859000    9.151240  -106.589000
  H    -61.025900    8.992680  -106.668000
  S    -61.330700   17.405300  -110.165000
  C    -60.198500   18.717500  -109.754000
  C    -59.305000   18.284400  -108.800000
  C    -59.241500   16.880200  -108.667000
  C    -60.307100   16.268200  -109.380000
  H    -58.674400   19.026200  -108.318000
  C    -58.164300   16.117600  -107.880000
  H    -58.006400   15.190400  -108.452000
  H    -58.568600   15.781400  -106.899000
  C    -56.739900   16.727700  -107.819000
  H    -56.770100   17.626600  -107.195000
  H    -56.552800   17.140200  -108.851000
  C    -55.663700   15.748100  -107.381000
  H    -55.876700   14.847100  -107.936000
  H    -55.563300   15.621800  -106.310000
  H    -54.656400   16.019000  -107.772000
  H    -61.925100   11.757600  -110.579000
  H    -60.205200   19.723000  -110.160000

 Total Charge           Charge          ....    0
 Multiplicity           Mult            ....    1
 Number of Electrons    NEL             ....  134
 Basis Dimension        Dim             ....  322

ORBITAL ENERGIES
----------------

  NO   OCC          E(Eh)            E(eV)
   0   2.0000     -88.968803     -2420.9642
   1   2.0000     -88.965197     -2420.8661
   2   2.0000     -10.327776      -281.0331
   3   2.0000     -10.324968      -280.9567
   4   2.0000     -10.316083      -280.7149
   5   2.0000     -10.310774      -280.5704
   6   2.0000     -10.306580      -280.4563
   7   2.0000     -10.298432      -280.2346
   8   2.0000     -10.298242      -280.2294
   9   2.0000     -10.293632      -280.1040
  10   2.0000     -10.292056      -280.0611
  11   2.0000     -10.291322      -280.0411
  12   2.0000     -10.289906      -280.0026
  13   2.0000     -10.284837      -279.8646
  14   2.0000     -10.282521      -279.8016
  15   2.0000     -10.281529      -279.7746
  16   2.0000      -8.082887      -219.9465
  17   2.0000      -8.080126      -219.8714
  18   2.0000      -6.041563      -164.3993
  19   2.0000      -6.038637      -164.3197
  20   2.0000      -6.037584      -164.2910
  21   2.0000      -6.034673      -164.2118
  22   2.0000      -6.033421      -164.1777
  23   2.0000      -6.030818      -164.1069
  24   2.0000      -1.007889       -27.4261
  25   2.0000      -0.982379       -26.7319
  26   2.0000      -0.920775       -25.0556
  27   2.0000      -0.907247       -24.6874
  28   2.0000      -0.871251       -23.7079
  29   2.0000      -0.856634       -23.3102
  30   2.0000      -0.847573       -23.0636
  31   2.0000      -0.814700       -22.1691
  32   2.0000      -0.779443       -21.2097
  33   2.0000      -0.768302       -20.9066
  34   2.0000      -0.710156       -19.3243
  35   2.0000      -0.703582       -19.1455
  36   2.0000      -0.692481       -18.8434
  37   2.0000      -0.656075       -17.8527
  38   2.0000      -0.641266       -17.4497
  39   2.0000      -0.618334       -16.8257
  40   2.0000      -0.595453       -16.2031
  41   2.0000      -0.572645       -15.5825
  42   2.0000      -0.570633       -15.5277
  43   2.0000      -0.563847       -15.3431
  44   2.0000      -0.532412       -14.4877
  45   2.0000      -0.525383       -14.2964
  46   2.0000      -0.518030       -14.0963
  47   2.0000      -0.513170       -13.9641
  48   2.0000      -0.504539       -13.7292
  49   2.0000      -0.498920       -13.5763
  50   2.0000      -0.493782       -13.4365
  51   2.0000      -0.483677       -13.1615
  52   2.0000      -0.473374       -12.8812
  53   2.0000      -0.464897       -12.6505
  54   2.0000      -0.456773       -12.4294
  55   2.0000      -0.450694       -12.2640
  56   2.0000      -0.446475       -12.1492
  57   2.0000      -0.435987       -11.8638
  58   2.0000      -0.429568       -11.6891
  59   2.0000      -0.423433       -11.5222
  60   2.0000      -0.422884       -11.5073
  61   2.0000      -0.417300       -11.3553
  62   2.0000      -0.412894       -11.2354
  63   2.0000      -0.352996        -9.6055
  64   2.0000      -0.333517        -9.0755
  65   2.0000      -0.325206        -8.8493
  66   2.0000      -0.278192        -7.5700
  67   0.0000       0.016010         0.4357
  68   0.0000       0.077708         2.1146
  69   0.0000       0.092107         2.5064
  70   0.0000       0.122028         3.3205
  71   0.0000       0.141320         3.8455

MULLIKEN ATOMIC CHARGES
-----------------------
   0 S :    0.110933
   1 C :   -0.087326
   2 C :   -0.052841
   3 C :    0.008253
   4 C :   -0.110276
   5 H :   -0.013113
   6 C :    0.043818
   7 H :    0.015038
   8 H :    0.052543
   9 C :   -0.094871
  10 H :    0.031247
  11 H :    0.026520
  12 C :   -0.063896
  13 H :    0.033497
  14 H :    0.045557
  15 H :    0.029907
  16 S :    0.097516
  17 C :   -0.107075
  18 C :   -0.036234
  19 C :   -0.046077
  20 C :   -0.137531
  21 H :    0.023408
  22 C :    0.017762
  23 H :    0.034627
  24 H :    0.051987
  25 C :   -0.094370
  26 H :    0.028442
  27 H :    0.039410
  28 C :   -0.023577
  29 H :    0.022875
  30 H :    0.043845
  31 H :    0.033585
  32 H :    0.017638
  33 H :    0.058780
Sum of atomic charges:   -0.0000000

LOEWDIN ATOMIC CHARGES
----------------------
   0 S :    0.395177
   1 C :   -0.184493
   2 C :   -0.057222
   3 C :   -0.053343
   4 C :   -0.186701
   5 H :    0.022725
   6 C :   -0.046251
   7 H :    0.028298
   8 H :    0.048792
   9 C :   -0.047856
  10 H :    0.025223
  11 H :    0.021991
  12 C :   -0.070274
  13 H :    0.027711
  14 H :    0.033968
  15 H :    0.022489
  16 S :    0.402763
  17 C :   -0.181195
  18 C :   -0.068128
  19 C :   -0.061913
  20 C :   -0.198185
  21 H :    0.033794
  22 C :   -0.040425
  23 H :    0.034226
  24 H :    0.029993
  25 C :   -0.047642
  26 H :    0.018562
  27 H :    0.033007
  28 C :   -0.064795
  29 H :    0.025474
  30 H :    0.027153
  31 H :    0.033373
  32 H :    0.013592
  33 H :    0.030114

  Mayer bond orders larger than 0.100000
B(  0-S ,  1-C ) :   1.1163 B(  0-S ,  4-C ) :   1.1444 B(  1-C ,  2-C ) :   1.5885
B(  1-C , 32-H ) :   0.9818 B(  2-C ,  3-C ) :   1.2258 B(  2-C ,  6-C ) :   1.0538
B(  3-C ,  4-C ) :   1.5347 B(  3-C ,  5-H ) :   1.0049 B(  4-C , 20-C ) :   1.0964
B(  6-C ,  7-H ) :   0.9431 B(  6-C ,  8-H ) :   0.9209 B(  6-C ,  9-C ) :   1.0663
B(  9-C , 10-H ) :   0.9584 B(  9-C , 11-H ) :   0.9462 B(  9-C , 12-C ) :   1.0906
B( 12-C , 13-H ) :   0.9736 B( 12-C , 14-H ) :   0.9743 B( 12-C , 15-H ) :   0.9725
B( 16-S , 17-C ) :   1.1386 B( 16-S , 20-C ) :   1.1540 B( 17-C , 18-C ) :   1.6014
B( 17-C , 20-C ) :   0.1048 B( 17-C , 33-H ) :   0.9702 B( 18-C , 19-C ) :   1.2595
B( 18-C , 21-H ) :   0.9858 B( 19-C , 20-C ) :   1.5532 B( 19-C , 22-C ) :   1.0365
B( 22-C , 23-H ) :   0.9347 B( 22-C , 24-H ) :   0.9260 B( 22-C , 25-C ) :   1.0591
B( 25-C , 26-H ) :   0.9489 B( 25-C , 27-H ) :   0.9573 B( 25-C , 28-C ) :   1.0829
B( 28-C , 29-H ) :   0.9723 B( 28-C , 30-H ) :   0.9751 B( 28-C , 31-H ) :   0.9728

Dispersion correction           -0.013355263
FINAL SINGLE POINT ENERGY     -1339.872151762899

DIPOLE MOMENT
-------------
                                X             Y             Z
Electronic contribution:    -15.10827      17.17485     -18.98122
Nuclear contribution   :     15.54307     -17.42670      19.46429
                        -----------------------------------------
Total Dipole Moment    :      0.43480      -0.25185       0.48307
                        -----------------------------------------
Magnitude (a.u.)       :      0.69702
Magnitude (Debye)      :      1.77168

Rotational constants in cm-1:     0.017694     0.008173     0.006006
Rotational constants in MHz :   530.451488   245.020952   180.060797

                             ****ORCA TERMINATED NORMALLY****
TOTAL RUN TIME: 0 days 0 hours 0 minutes 21 seconds 244 msec
