                         Program Version 4.2.1 -  RELEASE  -
|  1> ! wB97X-D3 SP def2-SVP
|  2> %pal
|  3> nprocs 24
|  4> end
|  5>
|  6> * xyz 0 1
|  7> S 	 -63.4876 	 14.9152 	 -122.07
|  8> C 	 -62.1074 	 13.8912 	 -122.515
|  9> C 	 -62.5656 	 12.7094 	 -123.129
| 10> C 	 -63.9603 	 12.6359 	 -123.245
| 11> C 	 -64.6252 	 13.7632 	 -122.762
| 12> H 	 -64.4303 	 11.7544 	 -123.646
| 13> C 	 -61.7999 	 11.4997 	 -123.561
| 14> H 	 -62.4282 	 10.653 	 -123.435
| 15> H 	 -61.0418 	 11.3876 	 -122.71
| 16> C 	 -61.3472 	 11.3752 	 -125.044
| 17> H 	 -62.2951 	 11.3229 	 -125.651
| 18> H 	 -60.832 	 12.3321 	 -125.202
| 19> C 	 -60.4936 	 10.1442 	 -125.308
| 20> H 	 -59.6054 	 10.13 	 -124.731
| 21> H 	 -61.1575 	 9.28979 	 -125.094
| 22> H 	 -60.274 	 10.0386 	 -126.342
| 23> S 	 -66.9818 	 14.2417 	 -123.962
| 24> C 	 -68.5316 	 14.0179 	 -123.127
| 25> C 	 -68.2917 	 14.0111 	 -121.806
| 26> C 	 -66.8901 	 13.8542 	 -121.379
| 27> C 	 -66.0808 	 13.9179 	 -122.534
| 28> H 	 -69.1048 	 13.9922 	 -121.123
| 29> C 	 -66.3925 	 13.4478 	 -119.989
| 30> H 	 -65.5656 	 12.7136 	 -119.987
| 31> H 	 -67.2416 	 12.9859 	 -119.531
| 32> C 	 -66.0805 	 14.7026 	 -119.16
| 33> H 	 -66.7652 	 15.4443 	 -119.369
| 34> H 	 -65.1684 	 15.2528 	 -119.546
| 35> C 	 -65.8396 	 14.576 	 -117.666
| 36> H 	 -64.8444 	 14.1484 	 -117.46
| 37> H 	 -66.6152 	 13.9624 	 -117.246
| 38> H 	 -65.8074 	 15.5204 	 -117.227
| 39> H 	 -61.0635 	 14.1028 	 -122.36
| 40> H 	 -69.5685 	 14.0443 	 -123.579
| 41> *
| 42>
| 43>                          ****END OF INPUT****

CARTESIAN COORDINATES (ANGSTROEM)
---------------------------------
  S    -63.487600   14.915200  -122.070000
  C    -62.107400   13.891200  -122.515000
  C    -62.565600   12.709400  -123.129000
  C    -63.960300   12.635900  -123.245000
  C    -64.625200   13.763200  -122.762000
  H    -64.430300   11.754400  -123.646000
  C    -61.799900   11.499700  -123.561000
  H    -62.428200   10.653000  -123.435000
  H    -61.041800   11.387600  -122.710000
  C    -61.347200   11.375200  -125.044000
  H    -62.295100   11.322900  -125.651000
  H    -60.832000   12.332100  -125.202000
  C    -60.493600   10.144200  -125.308000
  H    -59.605400   10.130000  -124.731000
  H    -61.157500    9.289790  -125.094000
  H    -60.274000   10.038600  -126.342000
  S    -66.981800   14.241700  -123.962000
  C    -68.531600   14.017900  -123.127000
  C    -68.291700   14.011100  -121.806000
  C    -66.890100   13.854200  -121.379000
  C    -66.080800   13.917900  -122.534000
  H    -69.104800   13.992200  -121.123000
  C    -66.392500   13.447800  -119.989000
  H    -65.565600   12.713600  -119.987000
  H    -67.241600   12.985900  -119.531000
  C    -66.080500   14.702600  -119.160000
  H    -66.765200   15.444300  -119.369000
  H    -65.168400   15.252800  -119.546000
  C    -65.839600   14.576000  -117.666000
  H    -64.844400   14.148400  -117.460000
  H    -66.615200   13.962400  -117.246000
  H    -65.807400   15.520400  -117.227000
  H    -61.063500   14.102800  -122.360000
  H    -69.568500   14.044300  -123.579000

 Total Charge           Charge          ....    0
 Multiplicity           Mult            ....    1
 Number of Electrons    NEL             ....  134
 Basis Dimension        Dim             ....  322

ORBITAL ENERGIES
----------------

  NO   OCC          E(Eh)            E(eV)
   0   2.0000     -88.971406     -2421.0350
   1   2.0000     -88.960143     -2420.7286
   2   2.0000     -10.332010      -281.1483
   3   2.0000     -10.326015      -280.9852
   4   2.0000     -10.319283      -280.8020
   5   2.0000     -10.318256      -280.7740
   6   2.0000     -10.309256      -280.5291
   7   2.0000     -10.298119      -280.2261
   8   2.0000     -10.293873      -280.1105
   9   2.0000     -10.293201      -280.0922
  10   2.0000     -10.292779      -280.0808
  11   2.0000     -10.292150      -280.0636
  12   2.0000     -10.290750      -280.0255
  13   2.0000     -10.276256      -279.6312
  14   2.0000     -10.275021      -279.5975
  15   2.0000     -10.268333      -279.4156
  16   2.0000      -8.084757      -219.9974
  17   2.0000      -8.075246      -219.7386
  18   2.0000      -6.043348      -164.4479
  19   2.0000      -6.039280      -164.3372
  20   2.0000      -6.035685      -164.2393
  21   2.0000      -6.033893      -164.1906
  22   2.0000      -6.029672      -164.0757
  23   2.0000      -6.025852      -163.9718
  24   2.0000      -1.002586       -27.2818
  25   2.0000      -0.981263       -26.7015
  26   2.0000      -0.911744       -24.8098
  27   2.0000      -0.906446       -24.6657
  28   2.0000      -0.868434       -23.6313
  29   2.0000      -0.853711       -23.2307
  30   2.0000      -0.844949       -22.9922
  31   2.0000      -0.814444       -22.1621
  32   2.0000      -0.782817       -21.3015
  33   2.0000      -0.769792       -20.9471
  34   2.0000      -0.702559       -19.1176
  35   2.0000      -0.700160       -19.0523
  36   2.0000      -0.693087       -18.8599
  37   2.0000      -0.656931       -17.8760
  38   2.0000      -0.638824       -17.3833
  39   2.0000      -0.618185       -16.8217
  40   2.0000      -0.594276       -16.1711
  41   2.0000      -0.575521       -15.6607
  42   2.0000      -0.561346       -15.2750
  43   2.0000      -0.555879       -15.1262
  44   2.0000      -0.529911       -14.4196
  45   2.0000      -0.526433       -14.3250
  46   2.0000      -0.514328       -13.9956
  47   2.0000      -0.508258       -13.8304
  48   2.0000      -0.505776       -13.7629
  49   2.0000      -0.501965       -13.6591
  50   2.0000      -0.496541       -13.5116
  51   2.0000      -0.477987       -13.0067
  52   2.0000      -0.471316       -12.8252
  53   2.0000      -0.462861       -12.5951
  54   2.0000      -0.459918       -12.5150
  55   2.0000      -0.448316       -12.1993
  56   2.0000      -0.447743       -12.1837
  57   2.0000      -0.436892       -11.8884
  58   2.0000      -0.433344       -11.7919
  59   2.0000      -0.425684       -11.5835
  60   2.0000      -0.418204       -11.3799
  61   2.0000      -0.411496       -11.1974
  62   2.0000      -0.401995       -10.9388
  63   2.0000      -0.336853        -9.1662
  64   2.0000      -0.333723        -9.0811
  65   2.0000      -0.320222        -8.7137
  66   2.0000      -0.301932        -8.2160
  67   0.0000       0.034018         0.9257
  68   0.0000       0.064352         1.7511
  69   0.0000       0.107454         2.9240
  70   0.0000       0.121033         3.2935
  71   0.0000       0.131460         3.5772

MULLIKEN ATOMIC CHARGES
-----------------------
   0 S :    0.123456
   1 C :   -0.120211
   2 C :   -0.085362
   3 C :    0.048795
   4 C :   -0.142632
   5 H :    0.012162
   6 C :    0.017751
   7 H :    0.002076
   8 H :    0.034991
   9 C :   -0.079148
  10 H :    0.038228
  11 H :    0.032308
  12 C :    0.000930
  13 H :    0.032487
  14 H :    0.023747
  15 H :    0.030349
  16 S :    0.102272
  17 C :   -0.110562
  18 C :   -0.018745
  19 C :   -0.046174
  20 C :   -0.195210
  21 H :    0.004844
  22 C :    0.124779
  23 H :    0.045364
  24 H :    0.005351
  25 C :   -0.105424
  26 H :    0.003880
  27 H :    0.017696
  28 C :    0.009624
  29 H :    0.029201
  30 H :    0.021655
  31 H :    0.019663
  32 H :    0.042621
  33 H :    0.079238
Sum of atomic charges:    0.0000000

LOEWDIN ATOMIC CHARGES
----------------------
   0 S :    0.414909
   1 C :   -0.194378
   2 C :   -0.067043
   3 C :   -0.053207
   4 C :   -0.200194
   5 H :    0.032293
   6 C :   -0.043145
   7 H :    0.020022
   8 H :    0.037694
   9 C :   -0.038160
  10 H :    0.032217
  11 H :    0.021974
  12 C :   -0.057486
  13 H :    0.022368
  14 H :    0.029725
  15 H :    0.024489
  16 S :    0.405022
  17 C :   -0.192388
  18 C :   -0.068608
  19 C :   -0.052732
  20 C :   -0.208561
  21 H :    0.023042
  22 C :   -0.023555
  23 H :    0.037598
  24 H :    0.026114
  25 C :   -0.048583
  26 H :    0.011768
  27 H :    0.022742
  28 C :   -0.057098
  29 H :    0.028335
  30 H :    0.019340
  31 H :    0.021061
  32 H :    0.026812
  33 H :    0.047614

  Mayer bond orders larger than 0.100000
B(  0-S ,  1-C ) :   1.1444 B(  0-S ,  4-C ) :   1.1647 B(  1-C ,  2-C ) :   1.5744
B(  1-C ,  4-C ) :   0.1055 B(  1-C , 32-H ) :   0.9736 B(  2-C ,  3-C ) :   1.2854
B(  2-C ,  6-C ) :   1.0234 B(  3-C ,  4-C ) :   1.5452 B(  3-C ,  5-H ) :   0.9926
B(  4-C , 20-C ) :   0.9895 B(  6-C ,  7-H ) :   0.9386 B(  6-C ,  8-H ) :   0.9429
B(  6-C ,  9-C ) :   1.0447 B(  9-C , 10-H ) :   0.9518 B(  9-C , 11-H ) :   0.9596
B(  9-C , 12-C ) :   1.0847 B( 12-C , 13-H ) :   0.9759 B( 12-C , 14-H ) :   0.9704
B( 12-C , 15-H ) :   0.9724 B( 16-S , 17-C ) :   1.1199 B( 16-S , 20-C ) :   1.1699
B( 17-C , 18-C ) :   1.6569 B( 17-C , 33-H ) :   0.9610 B( 18-C , 19-C ) :   1.2134
B( 18-C , 21-H ) :   0.9845 B( 19-C , 20-C ) :   1.5995 B( 19-C , 22-C ) :   1.0414
B( 22-C , 23-H ) :   0.9421 B( 22-C , 24-H ) :   0.9247 B( 22-C , 25-C ) :   1.0554
B( 25-C , 26-H ) :   0.9553 B( 25-C , 27-H ) :   0.9437 B( 25-C , 28-C ) :   1.0913
B( 28-C , 29-H ) :   0.9730 B( 28-C , 30-H ) :   0.9747 B( 28-C , 31-H ) :   0.9694

Dispersion correction           -0.014044940
FINAL SINGLE POINT ENERGY     -1339.865730131126

DIPOLE MOMENT
-------------
                                X             Y             Z
Electronic contribution:    -11.00811      12.75665      -8.34945
Nuclear contribution   :     11.08710     -13.23502       8.57298
                        -----------------------------------------
Total Dipole Moment    :      0.07899      -0.47837       0.22353
                        -----------------------------------------
Magnitude (a.u.)       :      0.53389
Magnitude (Debye)      :      1.35705

Rotational constants in cm-1:     0.019675     0.007679     0.006280
Rotational constants in MHz :   589.848750   230.217512   188.261666

                             ****ORCA TERMINATED NORMALLY****
TOTAL RUN TIME: 0 days 0 hours 0 minutes 20 seconds 905 msec
