                         Program Version 4.2.1 -  RELEASE  -
|  1> ! wB97X-D3 SP def2-SVP
|  2> %pal
|  3> nprocs 24
|  4> end
|  5>
|  6> * xyz 0 1
|  7> S 	 -59.746 	 -2.03497 	 -28.1189
|  8> C 	 -60.9545 	 -2.25405 	 -29.403
|  9> C 	 -62.2464 	 -2.30665 	 -28.8464
| 10> C 	 -62.2257 	 -2.13755 	 -27.4369
| 11> C 	 -60.9594 	 -1.91486 	 -26.8711
| 12> H 	 -63.0438 	 -2.23945 	 -26.7886
| 13> C 	 -63.4503 	 -2.47413 	 -29.6886
| 14> H 	 -63.3228 	 -3.48597 	 -30.0725
| 15> H 	 -63.3603 	 -1.76759 	 -30.5594
| 16> C 	 -64.789 	 -2.37133 	 -28.973
| 17> H 	 -64.7639 	 -2.63929 	 -27.9598
| 18> H 	 -65.0384 	 -1.2863 	 -28.7968
| 19> C 	 -65.8448 	 -3.04351 	 -29.813
| 20> H 	 -65.6054 	 -4.04985 	 -29.9833
| 21> H 	 -66.8638 	 -2.97083 	 -29.3279
| 22> H 	 -65.8083 	 -2.68786 	 -30.8096
| 23> S 	 -59.2658 	 -2.52683 	 -24.8208
| 24> C 	 -59.6919 	 -1.95272 	 -23.1859
| 25> C 	 -60.8592 	 -1.26674 	 -23.1603
| 26> C 	 -61.3608 	 -1.01373 	 -24.4738
| 27> C 	 -60.68 	 -1.77351 	 -25.4444
| 28> H 	 -61.1827 	 -0.894581 	 -22.1967
| 29> C 	 -62.5195 	 -0.0748046 	 -24.687
| 30> H 	 -63.212 	 -0.0415848 	 -23.8523
| 31> H 	 -63.1239 	 -0.368155 	 -25.5464
| 32> C 	 -62.0057 	 1.36612 	 -25.014
| 33> H 	 -62.8281 	 1.93769 	 -25.4238
| 34> H 	 -61.2293 	 1.20103 	 -25.7193
| 35> C 	 -61.5135 	 2.24059 	 -23.8707
| 36> H 	 -62.346 	 2.16374 	 -23.1068
| 37> H 	 -61.5143 	 3.36917 	 -24.1442
| 38> H 	 -60.4873 	 2.00643 	 -23.3458
| 39> H 	 -60.6524 	 -2.43342 	 -30.3344
| 40> H 	 -59.1462 	 -2.20923 	 -22.2757
| 41> *
| 42>
| 43>                          ****END OF INPUT****

CARTESIAN COORDINATES (ANGSTROEM)
---------------------------------
  S    -59.746000   -2.034970  -28.118900
  C    -60.954500   -2.254050  -29.403000
  C    -62.246400   -2.306650  -28.846400
  C    -62.225700   -2.137550  -27.436900
  C    -60.959400   -1.914860  -26.871100
  H    -63.043800   -2.239450  -26.788600
  C    -63.450300   -2.474130  -29.688600
  H    -63.322800   -3.485970  -30.072500
  H    -63.360300   -1.767590  -30.559400
  C    -64.789000   -2.371330  -28.973000
  H    -64.763900   -2.639290  -27.959800
  H    -65.038400   -1.286300  -28.796800
  C    -65.844800   -3.043510  -29.813000
  H    -65.605400   -4.049850  -29.983300
  H    -66.863800   -2.970830  -29.327900
  H    -65.808300   -2.687860  -30.809600
  S    -59.265800   -2.526830  -24.820800
  C    -59.691900   -1.952720  -23.185900
  C    -60.859200   -1.266740  -23.160300
  C    -61.360800   -1.013730  -24.473800
  C    -60.680000   -1.773510  -25.444400
  H    -61.182700   -0.894581  -22.196700
  C    -62.519500   -0.074805  -24.687000
  H    -63.212000   -0.041585  -23.852300
  H    -63.123900   -0.368155  -25.546400
  C    -62.005700    1.366120  -25.014000
  H    -62.828100    1.937690  -25.423800
  H    -61.229300    1.201030  -25.719300
  C    -61.513500    2.240590  -23.870700
  H    -62.346000    2.163740  -23.106800
  H    -61.514300    3.369170  -24.144200
  H    -60.487300    2.006430  -23.345800
  H    -60.652400   -2.433420  -30.334400
  H    -59.146200   -2.209230  -22.275700

 Total Charge           Charge          ....    0
 Multiplicity           Mult            ....    1
 Number of Electrons    NEL             ....  134
 Basis Dimension        Dim             ....  322

ORBITAL ENERGIES
----------------

  NO   OCC          E(Eh)            E(eV)
   0   2.0000     -88.966786     -2420.9093
   1   2.0000     -88.965817     -2420.8830
   2   2.0000     -10.331060      -281.1224
   3   2.0000     -10.328392      -281.0498
   4   2.0000     -10.316372      -280.7228
   5   2.0000     -10.307311      -280.4762
   6   2.0000     -10.305508      -280.4271
   7   2.0000     -10.302848      -280.3547
   8   2.0000     -10.293481      -280.0999
   9   2.0000     -10.293103      -280.0896
  10   2.0000     -10.292661      -280.0775
  11   2.0000     -10.291110      -280.0353
  12   2.0000     -10.290069      -280.0070
  13   2.0000     -10.285091      -279.8715
  14   2.0000     -10.281339      -279.7694
  15   2.0000     -10.275321      -279.6057
  16   2.0000      -8.081665      -219.9133
  17   2.0000      -8.080029      -219.8688
  18   2.0000      -6.040160      -164.3611
  19   2.0000      -6.038530      -164.3167
  20   2.0000      -6.036249      -164.2547
  21   2.0000      -6.034424      -164.2050
  22   2.0000      -6.032334      -164.1482
  23   2.0000      -6.031055      -164.1134
  24   2.0000      -1.006318       -27.3833
  25   2.0000      -0.982529       -26.7360
  26   2.0000      -0.920754       -25.0550
  27   2.0000      -0.906729       -24.6734
  28   2.0000      -0.874179       -23.7876
  29   2.0000      -0.849644       -23.1200
  30   2.0000      -0.846161       -23.0252
  31   2.0000      -0.818203       -22.2644
  32   2.0000      -0.780331       -21.2339
  33   2.0000      -0.768722       -20.9180
  34   2.0000      -0.720932       -19.6176
  35   2.0000      -0.701600       -19.0915
  36   2.0000      -0.684296       -18.6206
  37   2.0000      -0.660694       -17.9784
  38   2.0000      -0.645751       -17.5718
  39   2.0000      -0.622879       -16.9494
  40   2.0000      -0.598978       -16.2990
  41   2.0000      -0.572520       -15.5791
  42   2.0000      -0.566010       -15.4019
  43   2.0000      -0.551477       -15.0064
  44   2.0000      -0.545347       -14.8397
  45   2.0000      -0.527808       -14.3624
  46   2.0000      -0.515837       -14.0366
  47   2.0000      -0.506815       -13.7911
  48   2.0000      -0.504681       -13.7331
  49   2.0000      -0.496769       -13.5178
  50   2.0000      -0.489510       -13.3202
  51   2.0000      -0.481615       -13.1054
  52   2.0000      -0.475992       -12.9524
  53   2.0000      -0.473713       -12.8904
  54   2.0000      -0.453749       -12.3471
  55   2.0000      -0.452369       -12.3096
  56   2.0000      -0.444822       -12.1042
  57   2.0000      -0.443586       -12.0706
  58   2.0000      -0.429280       -11.6813
  59   2.0000      -0.423756       -11.5310
  60   2.0000      -0.417892       -11.3714
  61   2.0000      -0.412232       -11.2174
  62   2.0000      -0.410737       -11.1767
  63   2.0000      -0.351727        -9.5710
  64   2.0000      -0.333473        -9.0743
  65   2.0000      -0.326744        -8.8912
  66   2.0000      -0.282737        -7.6937
  67   0.0000       0.021400         0.5823
  68   0.0000       0.076548         2.0830
  69   0.0000       0.102811         2.7976
  70   0.0000       0.121072         3.2945
  71   0.0000       0.139546         3.7973

MULLIKEN ATOMIC CHARGES
-----------------------
   0 S :    0.100236
   1 C :   -0.089753
   2 C :   -0.071155
   3 C :    0.011070
   4 C :   -0.127528
   5 H :   -0.003212
   6 C :    0.044149
   7 H :    0.036554
   8 H :    0.053261
   9 C :   -0.062479
  10 H :    0.014993
  11 H :    0.026587
  12 C :   -0.010444
  13 H :    0.012909
  14 H :    0.045765
  15 H :    0.017707
  16 S :    0.106515
  17 C :   -0.101709
  18 C :   -0.016289
  19 C :   -0.057668
  20 C :   -0.145316
  21 H :    0.020922
  22 C :    0.079921
  23 H :    0.017158
  24 H :    0.012705
  25 C :   -0.037710
  26 H :    0.028771
  27 H :    0.031452
  28 C :   -0.124808
  29 H :    0.022848
  30 H :    0.050750
  31 H :    0.061843
  32 H :   -0.005335
  33 H :    0.057289
Sum of atomic charges:   -0.0000000

LOEWDIN ATOMIC CHARGES
----------------------
   0 S :    0.400475
   1 C :   -0.173759
   2 C :   -0.052768
   3 C :   -0.067864
   4 C :   -0.193675
   5 H :    0.019032
   6 C :   -0.036743
   7 H :    0.036768
   8 H :    0.043669
   9 C :   -0.045215
  10 H :    0.014648
  11 H :    0.031096
  12 C :   -0.058428
  13 H :    0.017669
  14 H :    0.035317
  15 H :    0.023014
  16 S :    0.402229
  17 C :   -0.175151
  18 C :   -0.066189
  19 C :   -0.054970
  20 C :   -0.205759
  21 H :    0.035574
  22 C :   -0.030337
  23 H :    0.025066
  24 H :    0.029717
  25 C :   -0.035559
  26 H :    0.026798
  27 H :    0.021997
  28 C :   -0.090083
  29 H :    0.023595
  30 H :    0.036374
  31 H :    0.035587
  32 H :   -0.003256
  33 H :    0.031131

  Mayer bond orders larger than 0.100000
B(  0-S ,  1-C ) :   1.1427 B(  0-S ,  4-C ) :   1.1657 B(  1-C ,  2-C ) :   1.5533
B(  1-C ,  4-C ) :   0.1107 B(  1-C , 32-H ) :   0.9982 B(  2-C ,  3-C ) :   1.2841
B(  2-C ,  6-C ) :   1.0036 B(  3-C ,  4-C ) :   1.5254 B(  3-C ,  5-H ) :   0.9917
B(  4-C , 20-C ) :   1.0611 B(  6-C ,  7-H ) :   0.9378 B(  6-C ,  8-H ) :   0.9362
B(  6-C ,  9-C ) :   1.0775 B(  9-C , 10-H ) :   0.9522 B(  9-C , 11-H ) :   0.9447
B(  9-C , 12-C ) :   1.0833 B( 12-C , 13-H ) :   0.9755 B( 12-C , 14-H ) :   0.9708
B( 12-C , 15-H ) :   0.9682 B( 16-S , 17-C ) :   1.1351 B( 16-S , 20-C ) :   1.1446
B( 17-C , 18-C ) :   1.6447 B( 17-C , 33-H ) :   0.9631 B( 18-C , 19-C ) :   1.2236
B( 18-C , 21-H ) :   0.9881 B( 19-C , 20-C ) :   1.5760 B( 19-C , 22-C ) :   1.0554
B( 22-C , 23-H ) :   0.9381 B( 22-C , 24-H ) :   0.9257 B( 22-C , 25-C ) :   1.0691
B( 25-C , 26-H ) :   0.9537 B( 25-C , 27-H ) :   0.9553 B( 25-C , 28-C ) :   1.0733
B( 28-C , 29-H ) :   0.9715 B( 28-C , 30-H ) :   0.9736 B( 28-C , 31-H ) :   0.9704

Dispersion correction           -0.014151706
FINAL SINGLE POINT ENERGY     -1339.864660783017

DIPOLE MOMENT
-------------
                                X             Y             Z
Electronic contribution:     24.60763     -10.90417       3.07398
Nuclear contribution   :    -25.26117      11.00722      -3.06121
                        -----------------------------------------
Total Dipole Moment    :     -0.65354       0.10305       0.01276
                        -----------------------------------------
Magnitude (a.u.)       :      0.66174
Magnitude (Debye)      :      1.68201

Rotational constants in cm-1:     0.018774     0.008365     0.006852
Rotational constants in MHz :   562.825405   250.779994   205.417207

                             ****ORCA TERMINATED NORMALLY****
TOTAL RUN TIME: 0 days 0 hours 0 minutes 21 seconds 816 msec
