                         Program Version 4.2.1 -  RELEASE  -
|  1> ! wB97X-D3 SP def2-SVP
|  2> %pal
|  3> nprocs 24
|  4> end
|  5>
|  6> * xyz 0 1
|  7> S 	 -32.1785 	 19.8884 	 3.78544
|  8> C 	 -33.2345 	 18.4608 	 3.53448
|  9> C 	 -33.2624 	 17.6551 	 4.6927
| 10> C 	 -32.3607 	 18.0718 	 5.6543
| 11> C 	 -31.6233 	 19.1624 	 5.30708
| 12> H 	 -32.1133 	 17.7511 	 6.62631
| 13> C 	 -34.1903 	 16.4491 	 4.92618
| 14> H 	 -35.1159 	 16.7052 	 4.49353
| 15> H 	 -34.3058 	 16.2922 	 5.99967
| 16> C 	 -33.6361 	 15.1395 	 4.37617
| 17> H 	 -33.8047 	 15.1225 	 3.29374
| 18> H 	 -32.6114 	 14.9449 	 4.53447
| 19> C 	 -34.3103 	 13.9242 	 4.95081
| 20> H 	 -34.1799 	 13.8495 	 6.01984
| 21> H 	 -35.4096 	 13.9894 	 4.78877
| 22> H 	 -33.9223 	 12.976 	 4.47292
| 23> S 	 -30.6494 	 21.4379 	 6.41132
| 24> C 	 -29.2243 	 21.3353 	 7.46197
| 25> C 	 -28.8731 	 20.0121 	 7.63406
| 26> C 	 -29.5317 	 19.138 	 6.73701
| 27> C 	 -30.5518 	 19.7499 	 6.00948
| 28> H 	 -28.1512 	 19.8413 	 8.41192
| 29> C 	 -29.2075 	 17.6853 	 6.77558
| 30> H 	 -28.1413 	 17.6563 	 6.64172
| 31> H 	 -29.5848 	 17.2522 	 5.88278
| 32> C 	 -29.6551 	 16.7816 	 8.0043
| 33> H 	 -30.7492 	 16.6836 	 7.89231
| 34> H 	 -29.4679 	 17.3137 	 8.97157
| 35> C 	 -29.13 	 15.295 	 7.90763
| 36> H 	 -29.3553 	 14.8529 	 8.87374
| 37> H 	 -28.0397 	 15.2352 	 7.84456
| 38> H 	 -29.5133 	 14.651 	 7.17998
| 39> H 	 -33.9813 	 18.3667 	 2.74984
| 40> H 	 -28.85 	 22.1343 	 8.13479
| 41> *
| 42>
| 43>                          ****END OF INPUT****

CARTESIAN COORDINATES (ANGSTROEM)
---------------------------------
  S    -32.178500   19.888400    3.785440
  C    -33.234500   18.460800    3.534480
  C    -33.262400   17.655100    4.692700
  C    -32.360700   18.071800    5.654300
  C    -31.623300   19.162400    5.307080
  H    -32.113300   17.751100    6.626310
  C    -34.190300   16.449100    4.926180
  H    -35.115900   16.705200    4.493530
  H    -34.305800   16.292200    5.999670
  C    -33.636100   15.139500    4.376170
  H    -33.804700   15.122500    3.293740
  H    -32.611400   14.944900    4.534470
  C    -34.310300   13.924200    4.950810
  H    -34.179900   13.849500    6.019840
  H    -35.409600   13.989400    4.788770
  H    -33.922300   12.976000    4.472920
  S    -30.649400   21.437900    6.411320
  C    -29.224300   21.335300    7.461970
  C    -28.873100   20.012100    7.634060
  C    -29.531700   19.138000    6.737010
  C    -30.551800   19.749900    6.009480
  H    -28.151200   19.841300    8.411920
  C    -29.207500   17.685300    6.775580
  H    -28.141300   17.656300    6.641720
  H    -29.584800   17.252200    5.882780
  C    -29.655100   16.781600    8.004300
  H    -30.749200   16.683600    7.892310
  H    -29.467900   17.313700    8.971570
  C    -29.130000   15.295000    7.907630
  H    -29.355300   14.852900    8.873740
  H    -28.039700   15.235200    7.844560
  H    -29.513300   14.651000    7.179980
  H    -33.981300   18.366700    2.749840
  H    -28.850000   22.134300    8.134790

 Total Charge           Charge          ....    0
 Multiplicity           Mult            ....    1
 Number of Electrons    NEL             ....  134
 Basis Dimension        Dim             ....  322

ORBITAL ENERGIES
----------------

  NO   OCC          E(Eh)            E(eV)
   0   2.0000     -88.966295     -2420.8960
   1   2.0000     -88.964800     -2420.8553
   2   2.0000     -10.323533      -280.9176
   3   2.0000     -10.321851      -280.8719
   4   2.0000     -10.319902      -280.8188
   5   2.0000     -10.319263      -280.8014
   6   2.0000     -10.303773      -280.3799
   7   2.0000     -10.303453      -280.3712
   8   2.0000     -10.301219      -280.3104
   9   2.0000     -10.291792      -280.0539
  10   2.0000     -10.291643      -280.0499
  11   2.0000     -10.285909      -279.8938
  12   2.0000     -10.284510      -279.8557
  13   2.0000     -10.281198      -279.7656
  14   2.0000     -10.280955      -279.7590
  15   2.0000     -10.280246      -279.7397
  16   2.0000      -8.080026      -219.8687
  17   2.0000      -8.079486      -219.8540
  18   2.0000      -6.038462      -164.3149
  19   2.0000      -6.038011      -164.3026
  20   2.0000      -6.034828      -164.2160
  21   2.0000      -6.034026      -164.1942
  22   2.0000      -6.030760      -164.1053
  23   2.0000      -6.030188      -164.0898
  24   2.0000      -1.010095       -27.4861
  25   2.0000      -0.982229       -26.7278
  26   2.0000      -0.916563       -24.9410
  27   2.0000      -0.902238       -24.5511
  28   2.0000      -0.875200       -23.8154
  29   2.0000      -0.853948       -23.2371
  30   2.0000      -0.848141       -23.0791
  31   2.0000      -0.817747       -22.2520
  32   2.0000      -0.784083       -21.3360
  33   2.0000      -0.769524       -20.9398
  34   2.0000      -0.712102       -19.3773
  35   2.0000      -0.700319       -19.0566
  36   2.0000      -0.699349       -19.0302
  37   2.0000      -0.664353       -18.0780
  38   2.0000      -0.647758       -17.6264
  39   2.0000      -0.620201       -16.8765
  40   2.0000      -0.592227       -16.1153
  41   2.0000      -0.573204       -15.5977
  42   2.0000      -0.566206       -15.4073
  43   2.0000      -0.556855       -15.1528
  44   2.0000      -0.531261       -14.4563
  45   2.0000      -0.525990       -14.3129
  46   2.0000      -0.521115       -14.1803
  47   2.0000      -0.508975       -13.8499
  48   2.0000      -0.506350       -13.7785
  49   2.0000      -0.497208       -13.5297
  50   2.0000      -0.492213       -13.3938
  51   2.0000      -0.486921       -13.2498
  52   2.0000      -0.473962       -12.8972
  53   2.0000      -0.470233       -12.7957
  54   2.0000      -0.459284       -12.4977
  55   2.0000      -0.447566       -12.1789
  56   2.0000      -0.440943       -11.9987
  57   2.0000      -0.436660       -11.8821
  58   2.0000      -0.435260       -11.8440
  59   2.0000      -0.428925       -11.6717
  60   2.0000      -0.422919       -11.5082
  61   2.0000      -0.418691       -11.3932
  62   2.0000      -0.415718       -11.3123
  63   2.0000      -0.348060        -9.4712
  64   2.0000      -0.335948        -9.1416
  65   2.0000      -0.327502        -8.9118
  66   2.0000      -0.286924        -7.8076
  67   0.0000       0.021630         0.5886
  68   0.0000       0.066827         1.8185
  69   0.0000       0.098634         2.6840
  70   0.0000       0.123828         3.3695
  71   0.0000       0.128301         3.4912

MULLIKEN ATOMIC CHARGES
-----------------------
   0 S :    0.103070
   1 C :   -0.115215
   2 C :   -0.076614
   3 C :    0.053806
   4 C :   -0.176382
   5 H :   -0.027360
   6 C :    0.101641
   7 H :    0.016536
   8 H :    0.018052
   9 C :   -0.045498
  10 H :    0.026000
  11 H :    0.021885
  12 C :   -0.077301
  13 H :    0.027933
  14 H :    0.028206
  15 H :    0.043731
  16 S :    0.097367
  17 C :   -0.106690
  18 C :   -0.046662
  19 C :   -0.046414
  20 C :   -0.108268
  21 H :    0.019709
  22 C :    0.071307
  23 H :    0.019439
  24 H :    0.013032
  25 C :   -0.083282
  26 H :    0.032099
  27 H :    0.043331
  28 C :   -0.037694
  29 H :    0.029872
  30 H :    0.029759
  31 H :    0.031949
  32 H :    0.047443
  33 H :    0.071216
Sum of atomic charges:    0.0000000

LOEWDIN ATOMIC CHARGES
----------------------
   0 S :    0.379654
   1 C :   -0.188726
   2 C :   -0.054299
   3 C :   -0.058466
   4 C :   -0.178461
   5 H :    0.025967
   6 C :   -0.019027
   7 H :    0.025277
   8 H :    0.030421
   9 C :   -0.041178
  10 H :    0.025910
  11 H :    0.019995
  12 C :   -0.068911
  13 H :    0.018401
  14 H :    0.024373
  15 H :    0.033269
  16 S :    0.401321
  17 C :   -0.184782
  18 C :   -0.068557
  19 C :   -0.059277
  20 C :   -0.206585
  21 H :    0.032282
  22 C :   -0.038090
  23 H :    0.029152
  24 H :    0.025171
  25 C :   -0.033671
  26 H :    0.022753
  27 H :    0.029056
  28 C :   -0.062616
  29 H :    0.029962
  30 H :    0.025565
  31 H :    0.019442
  32 H :    0.026284
  33 H :    0.038391

  Mayer bond orders larger than 0.100000
B(  0-S ,  1-C ) :   1.1329 B(  0-S ,  4-C ) :   1.1344 B(  1-C ,  2-C ) :   1.5995
B(  1-C ,  4-C ) :   0.1146 B(  1-C , 32-H ) :   0.9674 B(  2-C ,  3-C ) :   1.2240
B(  2-C ,  6-C ) :   1.0205 B(  3-C ,  4-C ) :   1.5827 B(  3-C ,  5-H ) :   1.0052
B(  4-C , 20-C ) :   1.0586 B(  6-C ,  7-H ) :   0.9299 B(  6-C ,  8-H ) :   0.9487
B(  6-C ,  9-C ) :   1.0654 B(  9-C , 10-H ) :   0.9501 B(  9-C , 11-H ) :   0.9590
B(  9-C , 12-C ) :   1.0900 B( 12-C , 13-H ) :   0.9749 B( 12-C , 14-H ) :   0.9728
B( 12-C , 15-H ) :   0.9729 B( 16-S , 17-C ) :   1.1469 B( 16-S , 20-C ) :   1.1398
B( 17-C , 18-C ) :   1.6193 B( 17-C , 33-H ) :   0.9616 B( 18-C , 19-C ) :   1.2303
B( 18-C , 21-H ) :   0.9947 B( 19-C , 20-C ) :   1.5665 B( 19-C , 22-C ) :   1.0637
B( 22-C , 23-H ) :   0.9272 B( 22-C , 24-H ) :   0.9278 B( 22-C , 25-C ) :   1.0491
B( 25-C , 26-H ) :   0.9508 B( 25-C , 27-H ) :   0.9600 B( 25-C , 28-C ) :   1.0680
B( 28-C , 29-H ) :   0.9735 B( 28-C , 30-H ) :   0.9780 B( 28-C , 31-H ) :   0.9793

Dispersion correction           -0.014206574
FINAL SINGLE POINT ENERGY     -1339.866428412894

DIPOLE MOMENT
-------------
                                X             Y             Z
Electronic contribution:      2.38479      33.10152      -7.63300
Nuclear contribution   :     -2.41723     -33.80030       8.14917
                        -----------------------------------------
Total Dipole Moment    :     -0.03244      -0.69878       0.51617
                        -----------------------------------------
Magnitude (a.u.)       :      0.86935
Magnitude (Debye)      :      2.20972

Rotational constants in cm-1:     0.017121     0.009642     0.006524
Rotational constants in MHz :   513.272027   289.045972   195.590627

                             ****ORCA TERMINATED NORMALLY****
TOTAL RUN TIME: 0 days 0 hours 0 minutes 20 seconds 810 msec
