                         Program Version 4.2.1 -  RELEASE  -
|  1> ! wB97X-D3 SP def2-SVP
|  2> %pal
|  3> nprocs 24
|  4> end
|  5>
|  6> * xyz 0 1
|  7> S 	 -46.3297 	 15.1829 	 26.2767
|  8> C 	 -47.1318 	 15.5315 	 24.7398
|  9> C 	 -48.0717 	 16.5349 	 24.921
| 10> C 	 -48.0625 	 17.1337 	 26.2286
| 11> C 	 -47.0416 	 16.6033 	 27.0477
| 12> H 	 -48.7665 	 17.8405 	 26.5833
| 13> C 	 -48.9689 	 16.9064 	 23.7417
| 14> H 	 -48.8936 	 16.135 	 23.0442
| 15> H 	 -48.5388 	 17.7448 	 23.1308
| 16> C 	 -50.4057 	 17.2491 	 23.996
| 17> H 	 -50.439 	 18.2745 	 24.4874
| 18> H 	 -50.8958 	 17.4386 	 23.0357
| 19> C 	 -51.3408 	 16.213 	 24.5666
| 20> H 	 -51.1362 	 15.924 	 25.6194
| 21> H 	 -52.3151 	 16.6637 	 24.6761
| 22> H 	 -51.3989 	 15.2955 	 24.0739
| 23> S 	 -48.1593 	 17.337 	 29.3984
| 24> C 	 -47.0531 	 17.6182 	 30.7677
| 25> C 	 -45.7262 	 17.4168 	 30.4941
| 26> C 	 -45.4977 	 17.0364 	 29.1043
| 27> C 	 -46.7527 	 16.8759 	 28.4247
| 28> H 	 -44.9978 	 17.454 	 31.2734
| 29> C 	 -44.1198 	 17.075 	 28.3513
| 30> H 	 -44.2533 	 17.4923 	 27.3923
| 31> H 	 -43.8409 	 16.0546 	 27.9889
| 32> C 	 -42.9482 	 17.6549 	 29.0922
| 33> H 	 -43.2946 	 18.6715 	 29.3808
| 34> H 	 -42.1281 	 17.848 	 28.4274
| 35> C 	 -42.3906 	 16.976 	 30.3858
| 36> H 	 -41.4356 	 17.434 	 30.6411
| 37> H 	 -42.2442 	 15.9862 	 30.102
| 38> H 	 -42.9967 	 17.0317 	 31.2927
| 39> H 	 -46.9825 	 14.9787 	 23.8033
| 40> H 	 -47.3526 	 18.0086 	 31.8077
| 41> *
| 42>
| 43>                          ****END OF INPUT****

CARTESIAN COORDINATES (ANGSTROEM)
---------------------------------
  S    -46.329700   15.182900   26.276700
  C    -47.131800   15.531500   24.739800
  C    -48.071700   16.534900   24.921000
  C    -48.062500   17.133700   26.228600
  C    -47.041600   16.603300   27.047700
  H    -48.766500   17.840500   26.583300
  C    -48.968900   16.906400   23.741700
  H    -48.893600   16.135000   23.044200
  H    -48.538800   17.744800   23.130800
  C    -50.405700   17.249100   23.996000
  H    -50.439000   18.274500   24.487400
  H    -50.895800   17.438600   23.035700
  C    -51.340800   16.213000   24.566600
  H    -51.136200   15.924000   25.619400
  H    -52.315100   16.663700   24.676100
  H    -51.398900   15.295500   24.073900
  S    -48.159300   17.337000   29.398400
  C    -47.053100   17.618200   30.767700
  C    -45.726200   17.416800   30.494100
  C    -45.497700   17.036400   29.104300
  C    -46.752700   16.875900   28.424700
  H    -44.997800   17.454000   31.273400
  C    -44.119800   17.075000   28.351300
  H    -44.253300   17.492300   27.392300
  H    -43.840900   16.054600   27.988900
  C    -42.948200   17.654900   29.092200
  H    -43.294600   18.671500   29.380800
  H    -42.128100   17.848000   28.427400
  C    -42.390600   16.976000   30.385800
  H    -41.435600   17.434000   30.641100
  H    -42.244200   15.986200   30.102000
  H    -42.996700   17.031700   31.292700
  H    -46.982500   14.978700   23.803300
  H    -47.352600   18.008600   31.807700

 Total Charge           Charge          ....    0
 Multiplicity           Mult            ....    1
 Number of Electrons    NEL             ....  134
 Basis Dimension        Dim             ....  322

ORBITAL ENERGIES
----------------

  NO   OCC          E(Eh)            E(eV)
   0   2.0000     -88.970660     -2421.0147
   1   2.0000     -88.965070     -2420.8626
   2   2.0000     -10.332220      -281.1540
   3   2.0000     -10.329403      -281.0774
   4   2.0000     -10.325365      -280.9675
   5   2.0000     -10.317350      -280.7494
   6   2.0000     -10.314187      -280.6633
   7   2.0000     -10.302771      -280.3526
   8   2.0000     -10.297578      -280.2113
   9   2.0000     -10.296950      -280.1943
  10   2.0000     -10.293520      -280.1009
  11   2.0000     -10.288044      -279.9519
  12   2.0000     -10.287227      -279.9297
  13   2.0000     -10.287056      -279.9250
  14   2.0000     -10.276801      -279.6460
  15   2.0000     -10.269858      -279.4570
  16   2.0000      -8.084223      -219.9829
  17   2.0000      -8.078972      -219.8400
  18   2.0000      -6.042829      -164.4337
  19   2.0000      -6.039073      -164.3315
  20   2.0000      -6.037568      -164.2906
  21   2.0000      -6.034782      -164.2148
  22   2.0000      -6.033584      -164.1822
  23   2.0000      -6.029702      -164.0765
  24   2.0000      -0.999273       -27.1916
  25   2.0000      -0.974220       -26.5099
  26   2.0000      -0.912796       -24.8384
  27   2.0000      -0.906021       -24.6541
  28   2.0000      -0.870918       -23.6989
  29   2.0000      -0.848259       -23.0823
  30   2.0000      -0.838105       -22.8060
  31   2.0000      -0.816487       -22.2177
  32   2.0000      -0.793117       -21.5818
  33   2.0000      -0.773731       -21.0543
  34   2.0000      -0.712006       -19.3747
  35   2.0000      -0.696363       -18.9490
  36   2.0000      -0.683707       -18.6046
  37   2.0000      -0.659360       -17.9421
  38   2.0000      -0.633638       -17.2422
  39   2.0000      -0.619137       -16.8476
  40   2.0000      -0.595896       -16.2152
  41   2.0000      -0.562149       -15.2968
  42   2.0000      -0.552493       -15.0341
  43   2.0000      -0.549004       -14.9392
  44   2.0000      -0.543776       -14.7969
  45   2.0000      -0.538230       -14.6460
  46   2.0000      -0.518833       -14.1182
  47   2.0000      -0.509465       -13.8633
  48   2.0000      -0.503255       -13.6943
  49   2.0000      -0.493104       -13.4180
  50   2.0000      -0.491006       -13.3610
  51   2.0000      -0.482738       -13.1360
  52   2.0000      -0.478776       -13.0281
  53   2.0000      -0.460919       -12.5422
  54   2.0000      -0.458166       -12.4673
  55   2.0000      -0.448072       -12.1927
  56   2.0000      -0.443591       -12.0707
  57   2.0000      -0.438585       -11.9345
  58   2.0000      -0.435293       -11.8449
  59   2.0000      -0.424925       -11.5628
  60   2.0000      -0.421223       -11.4621
  61   2.0000      -0.408704       -11.1214
  62   2.0000      -0.403372       -10.9763
  63   2.0000      -0.347416        -9.4537
  64   2.0000      -0.331663        -9.0250
  65   2.0000      -0.327888        -8.9223
  66   2.0000      -0.282682        -7.6922
  67   0.0000       0.016459         0.4479
  68   0.0000       0.076411         2.0793
  69   0.0000       0.099465         2.7066
  70   0.0000       0.114681         3.1206
  71   0.0000       0.126600         3.4450

MULLIKEN ATOMIC CHARGES
-----------------------
   0 S :    0.104897
   1 C :   -0.142896
   2 C :   -0.079753
   3 C :    0.031467
   4 C :   -0.155832
   5 H :    0.007665
   6 C :    0.098283
   7 H :   -0.015144
   8 H :    0.041386
   9 C :   -0.104543
  10 H :    0.036828
  11 H :    0.024105
  12 C :   -0.020408
  13 H :    0.024238
  14 H :    0.026835
  15 H :    0.023457
  16 S :    0.106041
  17 C :   -0.108582
  18 C :   -0.027201
  19 C :   -0.030406
  20 C :   -0.144422
  21 H :    0.005393
  22 C :    0.090389
  23 H :    0.024279
  24 H :    0.024017
  25 C :   -0.092509
  26 H :    0.026322
  27 H :    0.028094
  28 C :   -0.029469
  29 H :    0.033579
  30 H :    0.021904
  31 H :    0.036147
  32 H :    0.058820
  33 H :    0.077019
Sum of atomic charges:    0.0000000

LOEWDIN ATOMIC CHARGES
----------------------
   0 S :    0.399561
   1 C :   -0.200876
   2 C :   -0.058062
   3 C :   -0.066700
   4 C :   -0.186009
   5 H :    0.022118
   6 C :   -0.035590
   7 H :    0.017487
   8 H :    0.041911
   9 C :   -0.052898
  10 H :    0.030939
  11 H :    0.030385
  12 C :   -0.065338
  13 H :    0.026291
  14 H :    0.029210
  15 H :    0.018824
  16 S :    0.392095
  17 C :   -0.186459
  18 C :   -0.070977
  19 C :   -0.039013
  20 C :   -0.199248
  21 H :    0.027588
  22 C :   -0.037564
  23 H :    0.031033
  24 H :    0.031242
  25 C :   -0.045245
  26 H :    0.024997
  27 H :    0.027843
  28 C :   -0.057001
  29 H :    0.030515
  30 H :    0.017115
  31 H :    0.022492
  32 H :    0.033400
  33 H :    0.045935

  Mayer bond orders larger than 0.100000
B(  0-S ,  1-C ) :   1.1282 B(  0-S ,  4-C ) :   1.1592 B(  1-C ,  2-C ) :   1.6005
B(  1-C , 32-H ) :   0.9676 B(  2-C ,  3-C ) :   1.2497 B(  2-C ,  6-C ) :   1.0197
B(  3-C ,  4-C ) :   1.5289 B(  3-C ,  5-H ) :   0.9962 B(  4-C , 20-C ) :   1.0876
B(  6-C ,  7-H ) :   0.9322 B(  6-C ,  8-H ) :   0.9312 B(  6-C ,  9-C ) :   1.0944
B(  9-C , 10-H ) :   0.9486 B(  9-C , 11-H ) :   0.9478 B(  9-C , 12-C ) :   1.0795
B( 12-C , 13-H ) :   0.9711 B( 12-C , 14-H ) :   0.9704 B( 12-C , 15-H ) :   0.9736
B( 16-S , 17-C ) :   1.1340 B( 16-S , 20-C ) :   1.1284 B( 17-C , 18-C ) :   1.6573
B( 17-C , 33-H ) :   0.9501 B( 18-C , 19-C ) :   1.2262 B( 18-C , 21-H ) :   0.9843
B( 19-C , 20-C ) :   1.5693 B( 19-C , 22-C ) :   1.0188 B( 22-C , 23-H ) :   0.9290
B( 22-C , 24-H ) :   0.9216 B( 22-C , 25-C ) :   1.0908 B( 25-C , 26-H ) :   0.9528
B( 25-C , 27-H ) :   0.9508 B( 25-C , 28-C ) :   1.0647 B( 28-C , 29-H ) :   0.9717
B( 28-C , 30-H ) :   0.9762 B( 28-C , 31-H ) :   0.9756

Dispersion correction           -0.014101402
FINAL SINGLE POINT ENERGY     -1339.860958462807

DIPOLE MOMENT
-------------
                                X             Y             Z
Electronic contribution:     -2.51584      -4.17898       5.92380
Nuclear contribution   :      2.61878       4.42064      -6.11275
                        -----------------------------------------
Total Dipole Moment    :      0.10294       0.24166      -0.18894
                        -----------------------------------------
Magnitude (a.u.)       :      0.32357
Magnitude (Debye)      :      0.82244

Rotational constants in cm-1:     0.025650     0.007324     0.006113
Rotational constants in MHz :   768.977095   219.575895   183.264917

                             ****ORCA TERMINATED NORMALLY****
TOTAL RUN TIME: 0 days 0 hours 0 minutes 20 seconds 127 msec
