                         Program Version 4.2.1 -  RELEASE  -
|  1> ! wB97X-D3 SP def2-SVP
|  2> %pal
|  3> nprocs 24
|  4> end
|  5>
|  6> * xyz 0 1
|  7> S 	 -58.2905 	 17.1913 	 -92.2912
|  8> C 	 -56.9188 	 17.7496 	 -93.1974
|  9> C 	 -56.799 	 17.0544 	 -94.3907
| 10> C 	 -57.6704 	 15.9671 	 -94.5278
| 11> C 	 -58.5521 	 15.8883 	 -93.4904
| 12> H 	 -57.6792 	 15.3098 	 -95.3192
| 13> C 	 -55.7226 	 17.2781 	 -95.3912
| 14> H 	 -55.5435 	 16.3025 	 -95.9025
| 15> H 	 -54.8549 	 17.5705 	 -94.8102
| 16> C 	 -55.9834 	 18.354 	 -96.5201
| 17> H 	 -56.0928 	 19.3013 	 -96.047
| 18> H 	 -55.0819 	 18.5022 	 -97.1088
| 19> C 	 -57.1901 	 17.978 	 -97.4119
| 20> H 	 -57.5866 	 18.7728 	 -97.9059
| 21> H 	 -57.0047 	 17.2149 	 -98.1307
| 22> H 	 -57.959 	 17.5927 	 -96.7635
| 23> S 	 -61.1319 	 15.4321 	 -92.693
| 24> C 	 -61.8936 	 13.9091 	 -93.0119
| 25> C 	 -61.0692 	 13.0776 	 -93.6806
| 26> C 	 -59.7576 	 13.5961 	 -93.9999
| 27> C 	 -59.631 	 14.8754 	 -93.3882
| 28> H 	 -61.382 	 12.062 	 -93.9429
| 29> C 	 -58.732 	 12.6882 	 -94.5641
| 30> H 	 -57.7085 	 12.963 	 -94.2025
| 31> H 	 -58.6558 	 12.7766 	 -95.6351
| 32> C 	 -58.8708 	 11.193 	 -94.2029
| 33> H 	 -59.7094 	 10.7739 	 -94.7264
| 34> H 	 -59.0498 	 11.1192 	 -93.1371
| 35> C 	 -57.6709 	 10.465 	 -94.7134
| 36> H 	 -57.73 	 10.3575 	 -95.8099
| 37> H 	 -57.5886 	 9.43317 	 -94.3482
| 38> H 	 -56.7065 	 10.935 	 -94.3332
| 39> H 	 -56.2382 	 18.4683 	 -92.8653
| 40> H 	 -62.7946 	 13.6656 	 -92.5849
| 41> *
| 42>
| 43>                          ****END OF INPUT****

CARTESIAN COORDINATES (ANGSTROEM)
---------------------------------
  S    -58.290500   17.191300  -92.291200
  C    -56.918800   17.749600  -93.197400
  C    -56.799000   17.054400  -94.390700
  C    -57.670400   15.967100  -94.527800
  C    -58.552100   15.888300  -93.490400
  H    -57.679200   15.309800  -95.319200
  C    -55.722600   17.278100  -95.391200
  H    -55.543500   16.302500  -95.902500
  H    -54.854900   17.570500  -94.810200
  C    -55.983400   18.354000  -96.520100
  H    -56.092800   19.301300  -96.047000
  H    -55.081900   18.502200  -97.108800
  C    -57.190100   17.978000  -97.411900
  H    -57.586600   18.772800  -97.905900
  H    -57.004700   17.214900  -98.130700
  H    -57.959000   17.592700  -96.763500
  S    -61.131900   15.432100  -92.693000
  C    -61.893600   13.909100  -93.011900
  C    -61.069200   13.077600  -93.680600
  C    -59.757600   13.596100  -93.999900
  C    -59.631000   14.875400  -93.388200
  H    -61.382000   12.062000  -93.942900
  C    -58.732000   12.688200  -94.564100
  H    -57.708500   12.963000  -94.202500
  H    -58.655800   12.776600  -95.635100
  C    -58.870800   11.193000  -94.202900
  H    -59.709400   10.773900  -94.726400
  H    -59.049800   11.119200  -93.137100
  C    -57.670900   10.465000  -94.713400
  H    -57.730000   10.357500  -95.809900
  H    -57.588600    9.433170  -94.348200
  H    -56.706500   10.935000  -94.333200
  H    -56.238200   18.468300  -92.865300
  H    -62.794600   13.665600  -92.584900

 Total Charge           Charge          ....    0
 Multiplicity           Mult            ....    1
 Number of Electrons    NEL             ....  134
 Basis Dimension        Dim             ....  322

ORBITAL ENERGIES
----------------

  NO   OCC          E(Eh)            E(eV)
   0   2.0000     -88.968704     -2420.9615
   1   2.0000     -88.962637     -2420.7964
   2   2.0000     -10.331813      -281.1429
   3   2.0000     -10.331111      -281.1238
   4   2.0000     -10.309227      -280.5283
   5   2.0000     -10.305422      -280.4248
   6   2.0000     -10.305292      -280.4212
   7   2.0000     -10.293760      -280.1074
   8   2.0000     -10.293359      -280.0965
   9   2.0000     -10.290898      -280.0296
  10   2.0000     -10.290297      -280.0132
  11   2.0000     -10.285055      -279.8706
  12   2.0000     -10.284840      -279.8647
  13   2.0000     -10.284715      -279.8613
  14   2.0000     -10.283839      -279.8375
  15   2.0000     -10.263433      -279.2822
  16   2.0000      -8.082857      -219.9457
  17   2.0000      -8.078123      -219.8169
  18   2.0000      -6.041402      -164.3949
  19   2.0000      -6.037515      -164.2891
  20   2.0000      -6.036639      -164.2653
  21   2.0000      -6.033560      -164.1815
  22   2.0000      -6.032516      -164.1531
  23   2.0000      -6.028872      -164.0539
  24   2.0000      -1.006768       -27.3956
  25   2.0000      -0.986659       -26.8484
  26   2.0000      -0.919559       -25.0225
  27   2.0000      -0.906362       -24.6634
  28   2.0000      -0.869287       -23.6545
  29   2.0000      -0.856607       -23.3095
  30   2.0000      -0.849046       -23.1037
  31   2.0000      -0.818543       -22.2737
  32   2.0000      -0.780807       -21.2468
  33   2.0000      -0.769554       -20.9406
  34   2.0000      -0.710464       -19.3327
  35   2.0000      -0.706747       -19.2316
  36   2.0000      -0.700389       -19.0586
  37   2.0000      -0.657864       -17.9014
  38   2.0000      -0.642764       -17.4905
  39   2.0000      -0.621961       -16.9244
  40   2.0000      -0.605947       -16.4886
  41   2.0000      -0.580847       -15.8057
  42   2.0000      -0.567192       -15.4341
  43   2.0000      -0.551400       -15.0044
  44   2.0000      -0.539553       -14.6820
  45   2.0000      -0.526740       -14.3333
  46   2.0000      -0.517545       -14.0831
  47   2.0000      -0.511142       -13.9089
  48   2.0000      -0.505066       -13.7435
  49   2.0000      -0.499241       -13.5850
  50   2.0000      -0.489083       -13.3086
  51   2.0000      -0.479321       -13.0430
  52   2.0000      -0.473334       -12.8801
  53   2.0000      -0.465328       -12.6622
  54   2.0000      -0.459768       -12.5109
  55   2.0000      -0.456482       -12.4215
  56   2.0000      -0.444662       -12.0999
  57   2.0000      -0.435999       -11.8641
  58   2.0000      -0.432109       -11.7583
  59   2.0000      -0.431446       -11.7402
  60   2.0000      -0.423459       -11.5229
  61   2.0000      -0.417933       -11.3725
  62   2.0000      -0.416588       -11.3359
  63   2.0000      -0.358160        -9.7460
  64   2.0000      -0.334195        -9.0939
  65   2.0000      -0.326964        -8.8971
  66   2.0000      -0.282274        -7.6811
  67   0.0000       0.023105         0.6287
  68   0.0000       0.080115         2.1800
  69   0.0000       0.105278         2.8647
  70   0.0000       0.121892         3.3169
  71   0.0000       0.139825         3.8048

MULLIKEN ATOMIC CHARGES
-----------------------
   0 S :    0.110825
   1 C :   -0.097602
   2 C :   -0.074037
   3 C :    0.025909
   4 C :   -0.100692
   5 H :   -0.025303
   6 C :    0.030807
   7 H :    0.026060
   8 H :    0.023456
   9 C :   -0.039035
  10 H :    0.013813
  11 H :    0.025621
  12 C :   -0.007616
  13 H :    0.012030
  14 H :    0.020637
  15 H :    0.027396
  16 S :    0.089118
  17 C :   -0.043909
  18 C :   -0.039366
  19 C :   -0.024908
  20 C :   -0.139058
  21 H :    0.017962
  22 C :    0.006994
  23 H :    0.030934
  24 H :    0.029603
  25 C :   -0.064336
  26 H :    0.028123
  27 H :    0.040539
  28 C :   -0.061144
  29 H :    0.038440
  30 H :    0.031329
  31 H :    0.038310
  32 H :    0.024464
  33 H :    0.024635
Sum of atomic charges:   -0.0000000

LOEWDIN ATOMIC CHARGES
----------------------
   0 S :    0.393631
   1 C :   -0.191137
   2 C :   -0.064683
   3 C :   -0.054938
   4 C :   -0.172969
   5 H :    0.019061
   6 C :   -0.031847
   7 H :    0.031043
   8 H :    0.029981
   9 C :   -0.029850
  10 H :    0.017490
  11 H :    0.022101
  12 C :   -0.056287
  13 H :    0.014266
  14 H :    0.022361
  15 H :    0.028229
  16 S :    0.407558
  17 C :   -0.179454
  18 C :   -0.066968
  19 C :   -0.062297
  20 C :   -0.187363
  21 H :    0.032103
  22 C :   -0.039084
  23 H :    0.035317
  24 H :    0.028522
  25 C :   -0.039997
  26 H :    0.021046
  27 H :    0.026314
  28 C :   -0.069518
  29 H :    0.029649
  30 H :    0.027274
  31 H :    0.030957
  32 H :    0.017258
  33 H :    0.012234

  Mayer bond orders larger than 0.100000
B(  0-S ,  1-C ) :   1.1315 B(  0-S ,  4-C ) :   1.1445 B(  1-C ,  2-C ) :   1.5978
B(  1-C , 32-H ) :   0.9765 B(  2-C ,  3-C ) :   1.2431 B(  2-C ,  6-C ) :   1.0220
B(  3-C ,  4-C ) :   1.5582 B(  3-C ,  5-H ) :   1.0104 B(  4-C , 20-C ) :   1.0464
B(  6-C ,  7-H ) :   0.9482 B(  6-C ,  8-H ) :   0.9397 B(  6-C ,  9-C ) :   1.0688
B(  9-C , 10-H ) :   0.9575 B(  9-C , 11-H ) :   0.9582 B(  9-C , 12-C ) :   1.0686
B( 12-C , 13-H ) :   0.9716 B( 12-C , 14-H ) :   0.9749 B( 12-C , 15-H ) :   0.9760
B( 16-S , 17-C ) :   1.1403 B( 16-S , 20-C ) :   1.1572 B( 17-C , 18-C ) :   1.6115
B( 17-C , 33-H ) :   0.9772 B( 18-C , 19-C ) :   1.2458 B( 18-C , 21-H ) :   0.9830
B( 19-C , 20-C ) :   1.5727 B( 19-C , 22-C ) :   1.0423 B( 22-C , 23-H ) :   0.9466
B( 22-C , 24-H ) :   0.9149 B( 22-C , 25-C ) :   1.0806 B( 25-C , 26-H ) :   0.9375
B( 25-C , 27-H ) :   0.9566 B( 25-C , 28-C ) :   1.0941 B( 28-C , 29-H ) :   0.9723
B( 28-C , 30-H ) :   0.9697 B( 28-C , 31-H ) :   0.9718

Dispersion correction           -0.013843044
FINAL SINGLE POINT ENERGY     -1339.878225239986

DIPOLE MOMENT
-------------
                                X             Y             Z
Electronic contribution:    -14.78252      11.33900      19.69612
Nuclear contribution   :     15.10782     -11.77567     -20.12413
                        -----------------------------------------
Total Dipole Moment    :      0.32530      -0.43667      -0.42801
                        -----------------------------------------
Magnitude (a.u.)       :      0.69260
Magnitude (Debye)      :      1.76045

Rotational constants in cm-1:     0.017133     0.008718     0.006793
Rotational constants in MHz :   513.628814   261.361170   203.647173

                             ****ORCA TERMINATED NORMALLY****
TOTAL RUN TIME: 0 days 0 hours 0 minutes 21 seconds 673 msec
