                         Program Version 4.2.1 -  RELEASE  -
|  1> ! wB97X-D3 SP def2-SVP
|  2> %pal
|  3> nprocs 24
|  4> end
|  5>
|  6> * xyz 0 1
|  7> S 	 -115.544 	 59.5547 	 -90.0853
|  8> C 	 -114.471 	 59.7692 	 -88.6972
|  9> C 	 -113.391 	 58.8714 	 -88.7063
| 10> C 	 -113.454 	 58.1258 	 -89.9145
| 11> C 	 -114.509 	 58.3693 	 -90.804
| 12> H 	 -112.706 	 57.4379 	 -90.2186
| 13> C 	 -112.202 	 58.8215 	 -87.7598
| 14> H 	 -111.941 	 57.7553 	 -87.6299
| 15> H 	 -112.536 	 59.1917 	 -86.751
| 16> C 	 -110.953 	 59.5287 	 -88.3643
| 17> H 	 -110.166 	 59.3825 	 -87.6756
| 18> H 	 -110.726 	 58.9885 	 -89.3219
| 19> C 	 -111.087 	 61.005 	 -88.6718
| 20> H 	 -111.952 	 61.1442 	 -89.3236
| 21> H 	 -111.489 	 61.6519 	 -87.8627
| 22> H 	 -110.245 	 61.4429 	 -89.2359
| 23> S 	 -115.141 	 59.0457 	 -93.3931
| 24> C 	 -115.006 	 57.8379 	 -94.696
| 25> C 	 -114.876 	 56.5685 	 -94.1661
| 26> C 	 -114.741 	 56.5943 	 -92.6976
| 27> C 	 -114.736 	 57.8834 	 -92.1991
| 28> H 	 -114.811 	 55.7583 	 -94.8561
| 29> C 	 -114.418 	 55.2944 	 -91.9244
| 30> H 	 -115.347 	 54.7044 	 -91.9335
| 31> H 	 -114.23 	 55.6147 	 -90.9087
| 32> C 	 -113.226 	 54.5509 	 -92.4353
| 33> H 	 -112.371 	 55.1564 	 -92.5059
| 34> H 	 -113.498 	 54.2483 	 -93.4355
| 35> C 	 -112.907 	 53.2862 	 -91.6459
| 36> H 	 -112.342 	 53.52 	 -90.7081
| 37> H 	 -112.192 	 52.6578 	 -92.0963
| 38> H 	 -113.794 	 52.7004 	 -91.4397
| 39> H 	 -114.562 	 60.563 	 -87.9348
| 40> H 	 -115.005 	 58.0068 	 -95.7969
| 41> *
| 42>
| 43>                          ****END OF INPUT****

CARTESIAN COORDINATES (ANGSTROEM)
---------------------------------
  S    -115.544000   59.554700  -90.085300
  C    -114.471000   59.769200  -88.697200
  C    -113.391000   58.871400  -88.706300
  C    -113.454000   58.125800  -89.914500
  C    -114.509000   58.369300  -90.804000
  H    -112.706000   57.437900  -90.218600
  C    -112.202000   58.821500  -87.759800
  H    -111.941000   57.755300  -87.629900
  H    -112.536000   59.191700  -86.751000
  C    -110.953000   59.528700  -88.364300
  H    -110.166000   59.382500  -87.675600
  H    -110.726000   58.988500  -89.321900
  C    -111.087000   61.005000  -88.671800
  H    -111.952000   61.144200  -89.323600
  H    -111.489000   61.651900  -87.862700
  H    -110.245000   61.442900  -89.235900
  S    -115.141000   59.045700  -93.393100
  C    -115.006000   57.837900  -94.696000
  C    -114.876000   56.568500  -94.166100
  C    -114.741000   56.594300  -92.697600
  C    -114.736000   57.883400  -92.199100
  H    -114.811000   55.758300  -94.856100
  C    -114.418000   55.294400  -91.924400
  H    -115.347000   54.704400  -91.933500
  H    -114.230000   55.614700  -90.908700
  C    -113.226000   54.550900  -92.435300
  H    -112.371000   55.156400  -92.505900
  H    -113.498000   54.248300  -93.435500
  C    -112.907000   53.286200  -91.645900
  H    -112.342000   53.520000  -90.708100
  H    -112.192000   52.657800  -92.096300
  H    -113.794000   52.700400  -91.439700
  H    -114.562000   60.563000  -87.934800
  H    -115.005000   58.006800  -95.796900

 Total Charge           Charge          ....    0
 Multiplicity           Mult            ....    1
 Number of Electrons    NEL             ....  134
 Basis Dimension        Dim             ....  322

ORBITAL ENERGIES
----------------

  NO   OCC          E(Eh)            E(eV)
   0   2.0000     -88.968280     -2420.9500
   1   2.0000     -88.965700     -2420.8798
   2   2.0000     -10.333429      -281.1869
   3   2.0000     -10.330123      -281.0969
   4   2.0000     -10.323468      -280.9159
   5   2.0000     -10.319356      -280.8040
   6   2.0000     -10.308135      -280.4986
   7   2.0000     -10.304365      -280.3960
   8   2.0000     -10.303878      -280.3828
   9   2.0000     -10.297826      -280.2181
  10   2.0000     -10.292244      -280.0662
  11   2.0000     -10.290684      -280.0238
  12   2.0000     -10.289131      -279.9815
  13   2.0000     -10.279545      -279.7207
  14   2.0000     -10.276385      -279.6347
  15   2.0000     -10.275894      -279.6213
  16   2.0000      -8.082784      -219.9437
  17   2.0000      -8.080670      -219.8862
  18   2.0000      -6.041267      -164.3912
  19   2.0000      -6.039393      -164.3402
  20   2.0000      -6.037202      -164.2806
  21   2.0000      -6.035152      -164.2248
  22   2.0000      -6.033709      -164.1856
  23   2.0000      -6.031158      -164.1162
  24   2.0000      -1.005447       -27.3596
  25   2.0000      -0.982528       -26.7359
  26   2.0000      -0.914762       -24.8919
  27   2.0000      -0.911575       -24.8052
  28   2.0000      -0.865815       -23.5600
  29   2.0000      -0.848917       -23.1002
  30   2.0000      -0.843302       -22.9474
  31   2.0000      -0.813928       -22.1481
  32   2.0000      -0.784816       -21.3559
  33   2.0000      -0.774521       -21.0758
  34   2.0000      -0.708035       -19.2666
  35   2.0000      -0.700302       -19.0562
  36   2.0000      -0.691427       -18.8147
  37   2.0000      -0.658743       -17.9253
  38   2.0000      -0.637512       -17.3476
  39   2.0000      -0.622194       -16.9308
  40   2.0000      -0.591109       -16.0849
  41   2.0000      -0.575592       -15.6627
  42   2.0000      -0.568415       -15.4674
  43   2.0000      -0.545733       -14.8501
  44   2.0000      -0.543621       -14.7927
  45   2.0000      -0.526312       -14.3217
  46   2.0000      -0.523645       -14.2491
  47   2.0000      -0.513339       -13.9687
  48   2.0000      -0.506146       -13.7729
  49   2.0000      -0.493491       -13.4286
  50   2.0000      -0.482031       -13.1167
  51   2.0000      -0.480188       -13.0666
  52   2.0000      -0.471739       -12.8367
  53   2.0000      -0.465258       -12.6603
  54   2.0000      -0.457250       -12.4424
  55   2.0000      -0.448441       -12.2027
  56   2.0000      -0.446272       -12.1437
  57   2.0000      -0.442109       -12.0304
  58   2.0000      -0.435509       -11.8508
  59   2.0000      -0.426803       -11.6139
  60   2.0000      -0.418187       -11.3794
  61   2.0000      -0.413812       -11.2604
  62   2.0000      -0.412270       -11.2184
  63   2.0000      -0.348080        -9.4717
  64   2.0000      -0.332219        -9.0401
  65   2.0000      -0.328209        -8.9310
  66   2.0000      -0.293279        -7.9805
  67   0.0000       0.031182         0.8485
  68   0.0000       0.069872         1.9013
  69   0.0000       0.108167         2.9434
  70   0.0000       0.119522         3.2524
  71   0.0000       0.129314         3.5188

MULLIKEN ATOMIC CHARGES
-----------------------
   0 S :    0.112860
   1 C :   -0.143803
   2 C :   -0.087848
   3 C :    0.024258
   4 C :   -0.153587
   5 H :   -0.007838
   6 C :    0.046657
   7 H :    0.036899
   8 H :    0.035626
   9 C :   -0.048021
  10 H :    0.028231
  11 H :    0.036882
  12 C :   -0.063904
  13 H :    0.026785
  14 H :    0.025582
  15 H :    0.048401
  16 S :    0.105020
  17 C :   -0.112249
  18 C :   -0.029757
  19 C :   -0.051438
  20 C :   -0.139467
  21 H :    0.017138
  22 C :    0.085408
  23 H :    0.037213
  24 H :    0.010840
  25 C :   -0.051285
  26 H :    0.021006
  27 H :    0.016444
  28 C :   -0.029923
  29 H :    0.027693
  30 H :    0.017743
  31 H :    0.031229
  32 H :    0.055596
  33 H :    0.071608
Sum of atomic charges:   -0.0000000

LOEWDIN ATOMIC CHARGES
----------------------
   0 S :    0.411018
   1 C :   -0.201542
   2 C :   -0.064868
   3 C :   -0.066824
   4 C :   -0.198050
   5 H :    0.019528
   6 C :   -0.030991
   7 H :    0.037170
   8 H :    0.034124
   9 C :   -0.035888
  10 H :    0.017719
  11 H :    0.032973
  12 C :   -0.081630
  13 H :    0.027719
  14 H :    0.028047
  15 H :    0.032991
  16 S :    0.401882
  17 C :   -0.181212
  18 C :   -0.067087
  19 C :   -0.050997
  20 C :   -0.211608
  21 H :    0.027364
  22 C :   -0.028303
  23 H :    0.035939
  24 H :    0.024333
  25 C :   -0.036444
  26 H :    0.020182
  27 H :    0.020239
  28 C :   -0.062841
  29 H :    0.029694
  30 H :    0.019672
  31 H :    0.025303
  32 H :    0.031370
  33 H :    0.041017

  Mayer bond orders larger than 0.100000
B(  0-S ,  1-C ) :   1.1530 B(  0-S ,  4-C ) :   1.1585 B(  1-C ,  2-C ) :   1.5795
B(  1-C ,  4-C ) :   0.1019 B(  1-C , 32-H ) :   0.9635 B(  2-C ,  3-C ) :   1.2629
B(  2-C ,  6-C ) :   1.0294 B(  3-C ,  4-C ) :   1.5670 B(  3-C ,  5-H ) :   0.9930
B(  4-C , 20-C ) :   1.0145 B(  6-C ,  7-H ) :   0.9373 B(  6-C ,  8-H ) :   0.9423
B(  6-C ,  9-C ) :   1.0670 B(  9-C , 10-H ) :   0.9577 B(  9-C , 11-H ) :   0.9519
B(  9-C , 12-C ) :   1.0766 B( 12-C , 13-H ) :   0.9668 B( 12-C , 14-H ) :   0.9712
B( 12-C , 15-H ) :   0.9724 B( 16-S , 17-C ) :   1.1348 B( 16-S , 20-C ) :   1.1350
B( 17-C , 18-C ) :   1.6551 B( 17-C , 33-H ) :   0.9625 B( 18-C , 19-C ) :   1.1869
B( 18-C , 21-H ) :   0.9916 B( 19-C , 20-C ) :   1.6255 B( 19-C , 22-C ) :   1.0402
B( 22-C , 23-H ) :   0.9267 B( 22-C , 24-H ) :   0.9339 B( 22-C , 25-C ) :   1.0733
B( 25-C , 26-H ) :   0.9560 B( 25-C , 27-H ) :   0.9470 B( 25-C , 28-C ) :   1.0936
B( 28-C , 29-H ) :   0.9722 B( 28-C , 30-H ) :   0.9720 B( 28-C , 31-H ) :   0.9731

Dispersion correction           -0.014323408
FINAL SINGLE POINT ENERGY     -1339.880893759718

DIPOLE MOMENT
-------------
                                X             Y             Z
Electronic contribution:    -19.66680      13.05712      -9.45577
Nuclear contribution   :     20.22632     -13.49509       9.44594
                        -----------------------------------------
Total Dipole Moment    :      0.55952      -0.43797      -0.00983
                        -----------------------------------------
Magnitude (a.u.)       :      0.71062
Magnitude (Debye)      :      1.80625

Rotational constants in cm-1:     0.017273     0.008915     0.006911
Rotational constants in MHz :   517.844949   267.278092   207.175622

                             ****ORCA TERMINATED NORMALLY****
TOTAL RUN TIME: 0 days 0 hours 0 minutes 21 seconds 556 msec
