                         Program Version 4.2.1 -  RELEASE  -
|  1> ! wB97X-D3 SP def2-SVP
|  2> %pal
|  3> nprocs 24
|  4> end
|  5>
|  6> * xyz 0 1
|  7> S 	 -101.381 	 -1.19514 	 -104.958
|  8> C 	 -102.014 	 -2.29837 	 -106.173
|  9> C 	 -101.643 	 -3.65019 	 -105.94
| 10> C 	 -100.929 	 -3.7588 	 -104.713
| 11> C 	 -100.79 	 -2.58225 	 -104.051
| 12> H 	 -100.581 	 -4.66692 	 -104.329
| 13> C 	 -101.981 	 -4.85737 	 -106.829
| 14> H 	 -102.754 	 -4.46974 	 -107.444
| 15> H 	 -102.472 	 -5.64983 	 -106.23
| 16> C 	 -100.819 	 -5.37228 	 -107.667
| 17> H 	 -100.498 	 -4.5593 	 -108.3
| 18> H 	 -100.054 	 -5.64233 	 -106.951
| 19> C 	 -101.188 	 -6.43906 	 -108.669
| 20> H 	 -101.418 	 -7.446 	 -108.303
| 21> H 	 -102 	 -6.10076 	 -109.345
| 22> H 	 -100.299 	 -6.70482 	 -109.299
| 23> S 	 -98.4856 	 -2.69379 	 -102.676
| 24> C 	 -98.4476 	 -1.97459 	 -101.049
| 25> C 	 -99.6823 	 -1.70503 	 -100.58
| 26> C 	 -100.703 	 -1.74128 	 -101.622
| 27> C 	 -100.204 	 -2.41263 	 -102.745
| 28> H 	 -99.7873 	 -1.28477 	 -99.6037
| 29> C 	 -102.119 	 -1.17127 	 -101.499
| 30> H 	 -102.468 	 -0.714474 	 -102.439
| 31> H 	 -102.087 	 -0.223076 	 -100.881
| 32> C 	 -103.22 	 -2.07478 	 -100.841
| 33> H 	 -104.058 	 -1.41397 	 -100.67
| 34> H 	 -102.791 	 -2.22477 	 -99.814
| 35> C 	 -103.382 	 -3.44661 	 -101.429
| 36> H 	 -102.388 	 -3.86118 	 -101.54
| 37> H 	 -103.683 	 -3.40153 	 -102.422
| 38> H 	 -104.154 	 -4.05229 	 -100.894
| 39> H 	 -102.444 	 -1.99422 	 -107.051
| 40> H 	 -97.5295 	 -1.8856 	 -100.475
| 41> *
| 42>
| 43>                          ****END OF INPUT****

CARTESIAN COORDINATES (ANGSTROEM)
---------------------------------
  S    -101.381000   -1.195140  -104.958000
  C    -102.014000   -2.298370  -106.173000
  C    -101.643000   -3.650190  -105.940000
  C    -100.929000   -3.758800  -104.713000
  C    -100.790000   -2.582250  -104.051000
  H    -100.581000   -4.666920  -104.329000
  C    -101.981000   -4.857370  -106.829000
  H    -102.754000   -4.469740  -107.444000
  H    -102.472000   -5.649830  -106.230000
  C    -100.819000   -5.372280  -107.667000
  H    -100.498000   -4.559300  -108.300000
  H    -100.054000   -5.642330  -106.951000
  C    -101.188000   -6.439060  -108.669000
  H    -101.418000   -7.446000  -108.303000
  H    -102.000000   -6.100760  -109.345000
  H    -100.299000   -6.704820  -109.299000
  S    -98.485600   -2.693790  -102.676000
  C    -98.447600   -1.974590  -101.049000
  C    -99.682300   -1.705030  -100.580000
  C    -100.703000   -1.741280  -101.622000
  C    -100.204000   -2.412630  -102.745000
  H    -99.787300   -1.284770  -99.603700
  C    -102.119000   -1.171270  -101.499000
  H    -102.468000   -0.714474  -102.439000
  H    -102.087000   -0.223076  -100.881000
  C    -103.220000   -2.074780  -100.841000
  H    -104.058000   -1.413970  -100.670000
  H    -102.791000   -2.224770  -99.814000
  C    -103.382000   -3.446610  -101.429000
  H    -102.388000   -3.861180  -101.540000
  H    -103.683000   -3.401530  -102.422000
  H    -104.154000   -4.052290  -100.894000
  H    -102.444000   -1.994220  -107.051000
  H    -97.529500   -1.885600  -100.475000

 Total Charge           Charge          ....    0
 Multiplicity           Mult            ....    1
 Number of Electrons    NEL             ....  134
 Basis Dimension        Dim             ....  322

ORBITAL ENERGIES
----------------

  NO   OCC          E(Eh)            E(eV)
   0   2.0000     -88.969217     -2420.9755
   1   2.0000     -88.963886     -2420.8304
   2   2.0000     -10.323453      -280.9154
   3   2.0000     -10.322769      -280.8968
   4   2.0000     -10.317281      -280.7475
   5   2.0000     -10.311219      -280.5825
   6   2.0000     -10.310023      -280.5500
   7   2.0000     -10.303711      -280.3782
   8   2.0000     -10.295841      -280.1641
   9   2.0000     -10.294555      -280.1291
  10   2.0000     -10.290483      -280.0183
  11   2.0000     -10.285762      -279.8898
  12   2.0000     -10.285013      -279.8694
  13   2.0000     -10.284724      -279.8616
  14   2.0000     -10.283216      -279.8205
  15   2.0000     -10.265613      -279.3415
  16   2.0000      -8.083175      -219.9544
  17   2.0000      -8.078637      -219.8309
  18   2.0000      -6.041650      -164.4017
  19   2.0000      -6.037889      -164.2993
  20   2.0000      -6.037183      -164.2801
  21   2.0000      -6.033922      -164.1914
  22   2.0000      -6.033283      -164.1740
  23   2.0000      -6.029198      -164.0628
  24   2.0000      -1.006202       -27.3801
  25   2.0000      -0.980116       -26.6703
  26   2.0000      -0.913611       -24.8606
  27   2.0000      -0.901769       -24.5384
  28   2.0000      -0.872187       -23.7334
  29   2.0000      -0.853005       -23.2114
  30   2.0000      -0.842668       -22.9302
  31   2.0000      -0.817224       -22.2378
  32   2.0000      -0.783712       -21.3259
  33   2.0000      -0.770513       -20.9667
  34   2.0000      -0.707376       -19.2487
  35   2.0000      -0.699314       -19.0293
  36   2.0000      -0.688576       -18.7371
  37   2.0000      -0.662189       -18.0191
  38   2.0000      -0.642875       -17.4935
  39   2.0000      -0.622456       -16.9379
  40   2.0000      -0.595531       -16.2052
  41   2.0000      -0.573884       -15.6162
  42   2.0000      -0.561401       -15.2765
  43   2.0000      -0.548428       -14.9235
  44   2.0000      -0.534464       -14.5435
  45   2.0000      -0.522463       -14.2170
  46   2.0000      -0.517626       -14.0853
  47   2.0000      -0.509349       -13.8601
  48   2.0000      -0.502152       -13.6642
  49   2.0000      -0.499723       -13.5981
  50   2.0000      -0.493122       -13.4185
  51   2.0000      -0.474411       -12.9094
  52   2.0000      -0.472075       -12.8458
  53   2.0000      -0.464613       -12.6427
  54   2.0000      -0.457347       -12.4450
  55   2.0000      -0.451404       -12.2833
  56   2.0000      -0.445445       -12.1212
  57   2.0000      -0.429629       -11.6908
  58   2.0000      -0.429097       -11.6763
  59   2.0000      -0.426407       -11.6031
  60   2.0000      -0.422172       -11.4879
  61   2.0000      -0.420506       -11.4425
  62   2.0000      -0.401384       -10.9222
  63   2.0000      -0.345522        -9.4021
  64   2.0000      -0.335497        -9.1293
  65   2.0000      -0.323294        -8.7973
  66   2.0000      -0.294378        -8.0104
  67   0.0000       0.035258         0.9594
  68   0.0000       0.063971         1.7408
  69   0.0000       0.107448         2.9238
  70   0.0000       0.111639         3.0379
  71   0.0000       0.125163         3.4059

MULLIKEN ATOMIC CHARGES
-----------------------
   0 S :    0.125110
   1 C :   -0.092381
   2 C :   -0.103367
   3 C :    0.040511
   4 C :   -0.134492
   5 H :   -0.013556
   6 C :    0.076445
   7 H :   -0.003220
   8 H :    0.036530
   9 C :   -0.041588
  10 H :    0.027605
  11 H :    0.029978
  12 C :   -0.062942
  13 H :    0.026927
  14 H :    0.038188
  15 H :    0.035459
  16 S :    0.104555
  17 C :   -0.100788
  18 C :    0.004028
  19 C :   -0.063683
  20 C :   -0.151494
  21 H :    0.015817
  22 C :    0.012805
  23 H :    0.027422
  24 H :    0.025926
  25 C :   -0.066259
  26 H :    0.027796
  27 H :    0.019404
  28 C :    0.000077
  29 H :    0.033299
  30 H :    0.011033
  31 H :    0.044572
  32 H :    0.010072
  33 H :    0.060211
Sum of atomic charges:   -0.0000000

LOEWDIN ATOMIC CHARGES
----------------------
   0 S :    0.412925
   1 C :   -0.186658
   2 C :   -0.050207
   3 C :   -0.058802
   4 C :   -0.189937
   5 H :    0.022002
   6 C :   -0.031345
   7 H :    0.021898
   8 H :    0.033698
   9 C :   -0.039547
  10 H :    0.029449
  11 H :    0.024650
  12 C :   -0.073635
  13 H :    0.021858
  14 H :    0.029591
  15 H :    0.032926
  16 S :    0.394624
  17 C :   -0.169867
  18 C :   -0.064843
  19 C :   -0.052542
  20 C :   -0.204918
  21 H :    0.030237
  22 C :   -0.044820
  23 H :    0.019190
  24 H :    0.037058
  25 C :   -0.040091
  26 H :    0.021568
  27 H :    0.025138
  28 C :   -0.066356
  29 H :    0.031210
  30 H :    0.016260
  31 H :    0.034478
  32 H :    0.005156
  33 H :    0.029648

  Mayer bond orders larger than 0.100000
B(  0-S ,  1-C ) :   1.1394 B(  0-S ,  4-C ) :   1.1403 B(  1-C ,  2-C ) :   1.6097
B(  1-C , 32-H ) :   0.9745 B(  2-C ,  3-C ) :   1.2330 B(  2-C ,  6-C ) :   1.0245
B(  3-C ,  4-C ) :   1.5799 B(  3-C ,  5-H ) :   1.0060 B(  4-C , 20-C ) :   1.0345
B(  6-C ,  7-H ) :   0.9300 B(  6-C ,  8-H ) :   0.9426 B(  6-C ,  9-C ) :   1.0651
B(  9-C , 10-H ) :   0.9503 B(  9-C , 11-H ) :   0.9572 B(  9-C , 12-C ) :   1.0883
B( 12-C , 13-H ) :   0.9738 B( 12-C , 14-H ) :   0.9720 B( 12-C , 15-H ) :   0.9726
B( 16-S , 17-C ) :   1.1330 B( 16-S , 20-C ) :   1.1406 B( 17-C , 18-C ) :   1.6627
B( 17-C , 33-H ) :   0.9650 B( 18-C , 19-C ) :   1.1965 B( 18-C , 21-H ) :   0.9858
B( 19-C , 20-C ) :   1.5981 B( 19-C , 22-C ) :   1.0481 B( 22-C , 23-H ) :   0.9326
B( 22-C , 24-H ) :   0.9343 B( 22-C , 25-C ) :   1.0680 B( 25-C , 26-H ) :   0.9557
B( 25-C , 27-H ) :   0.9545 B( 25-C , 28-C ) :   1.0757 B( 28-C , 29-H ) :   0.9627
B( 28-C , 30-H ) :   0.9714 B( 28-C , 31-H ) :   0.9715

Dispersion correction           -0.015050379
FINAL SINGLE POINT ENERGY     -1339.873777277792

DIPOLE MOMENT
-------------
                                X             Y             Z
Electronic contribution:     13.69566      13.99206       6.02250
Nuclear contribution   :    -13.85945     -14.11379      -6.04300
                        -----------------------------------------
Total Dipole Moment    :     -0.16379      -0.12173      -0.02050
                        -----------------------------------------
Magnitude (a.u.)       :      0.20510
Magnitude (Debye)      :      0.52133

Rotational constants in cm-1:     0.021502     0.007939     0.007035
Rotational constants in MHz :   644.617775   237.997225   210.892208

                             ****ORCA TERMINATED NORMALLY****
TOTAL RUN TIME: 0 days 0 hours 0 minutes 21 seconds 887 msec
