                         Program Version 4.2.1 -  RELEASE  -
|  1> ! wB97X-D3 SP def2-SVP
|  2> %pal
|  3> nprocs 24
|  4> end
|  5>
|  6> * xyz 0 1
|  7> S 	 -107.141 	 59.4292 	 -17.6312
|  8> C 	 -107.863 	 60.9536 	 -17.0054
|  9> C 	 -108.455 	 60.7143 	 -15.7659
| 10> C 	 -108.316 	 59.3443 	 -15.3417
| 11> C 	 -107.666 	 58.5389 	 -16.2018
| 12> H 	 -108.712 	 58.8985 	 -14.4794
| 13> C 	 -109.227 	 61.7257 	 -14.9447
| 14> H 	 -109.977 	 62.2269 	 -15.4967
| 15> H 	 -108.541 	 62.5153 	 -14.6591
| 16> C 	 -109.977 	 61.1041 	 -13.6791
| 17> H 	 -110.716 	 60.3228 	 -13.9646
| 18> H 	 -109.274 	 60.5644 	 -13.1487
| 19> C 	 -110.718 	 62.2435 	 -13.0267
| 20> H 	 -111.161 	 61.8068 	 -12.1479
| 21> H 	 -110.018 	 63.0745 	 -12.8084
| 22> H 	 -111.489 	 62.5796 	 -13.7947
| 23> S 	 -108.11 	 56.0886 	 -17.3699
| 24> C 	 -107.77 	 54.5675 	 -16.5133
| 25> C 	 -107.152 	 54.8226 	 -15.3273
| 26> C 	 -107.128 	 56.2341 	 -15.0591
| 27> C 	 -107.534 	 57.0362 	 -16.0848
| 28> H 	 -107.009 	 53.9686 	 -14.6357
| 29> C 	 -106.675 	 56.6643 	 -13.7353
| 30> H 	 -106.953 	 55.9477 	 -12.9974
| 31> H 	 -107.182 	 57.5427 	 -13.4113
| 32> C 	 -105.209 	 56.9092 	 -13.6743
| 33> H 	 -105.07 	 57.7741 	 -14.3325
| 34> H 	 -104.789 	 56.0156 	 -13.9211
| 35> C 	 -104.734 	 57.2842 	 -12.3109
| 36> H 	 -105.191 	 58.2496 	 -11.9495
| 37> H 	 -103.689 	 57.4373 	 -12.3745
| 38> H 	 -105.004 	 56.548 	 -11.5733
| 39> H 	 -107.897 	 61.9162 	 -17.5788
| 40> H 	 -107.967 	 53.5492 	 -16.9661
| 41> *
| 42>
| 43>                          ****END OF INPUT****

CARTESIAN COORDINATES (ANGSTROEM)
---------------------------------
  S    -107.141000   59.429200  -17.631200
  C    -107.863000   60.953600  -17.005400
  C    -108.455000   60.714300  -15.765900
  C    -108.316000   59.344300  -15.341700
  C    -107.666000   58.538900  -16.201800
  H    -108.712000   58.898500  -14.479400
  C    -109.227000   61.725700  -14.944700
  H    -109.977000   62.226900  -15.496700
  H    -108.541000   62.515300  -14.659100
  C    -109.977000   61.104100  -13.679100
  H    -110.716000   60.322800  -13.964600
  H    -109.274000   60.564400  -13.148700
  C    -110.718000   62.243500  -13.026700
  H    -111.161000   61.806800  -12.147900
  H    -110.018000   63.074500  -12.808400
  H    -111.489000   62.579600  -13.794700
  S    -108.110000   56.088600  -17.369900
  C    -107.770000   54.567500  -16.513300
  C    -107.152000   54.822600  -15.327300
  C    -107.128000   56.234100  -15.059100
  C    -107.534000   57.036200  -16.084800
  H    -107.009000   53.968600  -14.635700
  C    -106.675000   56.664300  -13.735300
  H    -106.953000   55.947700  -12.997400
  H    -107.182000   57.542700  -13.411300
  C    -105.209000   56.909200  -13.674300
  H    -105.070000   57.774100  -14.332500
  H    -104.789000   56.015600  -13.921100
  C    -104.734000   57.284200  -12.310900
  H    -105.191000   58.249600  -11.949500
  H    -103.689000   57.437300  -12.374500
  H    -105.004000   56.548000  -11.573300
  H    -107.897000   61.916200  -17.578800
  H    -107.967000   53.549200  -16.966100

 Total Charge           Charge          ....    0
 Multiplicity           Mult            ....    1
 Number of Electrons    NEL             ....  134
 Basis Dimension        Dim             ....  322

ORBITAL ENERGIES
----------------

  NO   OCC          E(Eh)            E(eV)
   0   2.0000     -88.965611     -2420.8774
   1   2.0000     -88.961722     -2420.7715
   2   2.0000     -10.332098      -281.1507
   3   2.0000     -10.324420      -280.9417
   4   2.0000     -10.322320      -280.8846
   5   2.0000     -10.322072      -280.8779
   6   2.0000     -10.305563      -280.4286
   7   2.0000     -10.295938      -280.1667
   8   2.0000     -10.295614      -280.1579
   9   2.0000     -10.290668      -280.0233
  10   2.0000     -10.287928      -279.9488
  11   2.0000     -10.285814      -279.8912
  12   2.0000     -10.285615      -279.8858
  13   2.0000     -10.271379      -279.4984
  14   2.0000     -10.270044      -279.4621
  15   2.0000     -10.267337      -279.3884
  16   2.0000      -8.079347      -219.8502
  17   2.0000      -8.077251      -219.7932
  18   2.0000      -6.038087      -164.3047
  19   2.0000      -6.035818      -164.2430
  20   2.0000      -6.033955      -164.1923
  21   2.0000      -6.031565      -164.1272
  22   2.0000      -6.029952      -164.0833
  23   2.0000      -6.027966      -164.0293
  24   2.0000      -1.009504       -27.4700
  25   2.0000      -0.983939       -26.7743
  26   2.0000      -0.924966       -25.1696
  27   2.0000      -0.912106       -24.8197
  28   2.0000      -0.870108       -23.6768
  29   2.0000      -0.853784       -23.2326
  30   2.0000      -0.845537       -23.0082
  31   2.0000      -0.822725       -22.3875
  32   2.0000      -0.777572       -21.1588
  33   2.0000      -0.768047       -20.8996
  34   2.0000      -0.712945       -19.4002
  35   2.0000      -0.697052       -18.9677
  36   2.0000      -0.685909       -18.6645
  37   2.0000      -0.663298       -18.0493
  38   2.0000      -0.643590       -17.5130
  39   2.0000      -0.622964       -16.9517
  40   2.0000      -0.601115       -16.3572
  41   2.0000      -0.580692       -15.8014
  42   2.0000      -0.572572       -15.5805
  43   2.0000      -0.566078       -15.4038
  44   2.0000      -0.533740       -14.5238
  45   2.0000      -0.529736       -14.4148
  46   2.0000      -0.512158       -13.9365
  47   2.0000      -0.508288       -13.8312
  48   2.0000      -0.505331       -13.7508
  49   2.0000      -0.502213       -13.6659
  50   2.0000      -0.493453       -13.4275
  51   2.0000      -0.481668       -13.1069
  52   2.0000      -0.475572       -12.9410
  53   2.0000      -0.463993       -12.6259
  54   2.0000      -0.458964       -12.4890
  55   2.0000      -0.452592       -12.3157
  56   2.0000      -0.443830       -12.0772
  57   2.0000      -0.434536       -11.8243
  58   2.0000      -0.430117       -11.7041
  59   2.0000      -0.426749       -11.6124
  60   2.0000      -0.422700       -11.5023
  61   2.0000      -0.416583       -11.3358
  62   2.0000      -0.405969       -11.0470
  63   2.0000      -0.351238        -9.5577
  64   2.0000      -0.330591        -8.9958
  65   2.0000      -0.326151        -8.8750
  66   2.0000      -0.297742        -8.1020
  67   0.0000       0.036235         0.9860
  68   0.0000       0.071313         1.9405
  69   0.0000       0.113857         3.0982
  70   0.0000       0.120331         3.2744
  71   0.0000       0.136813         3.7229

MULLIKEN ATOMIC CHARGES
-----------------------
   0 S :    0.096039
   1 C :   -0.154196
   2 C :   -0.057246
   3 C :    0.023092
   4 C :   -0.120848
   5 H :   -0.003402
   6 C :    0.051618
   7 H :    0.015856
   8 H :    0.035804
   9 C :   -0.115676
  10 H :    0.038779
  11 H :    0.022187
  12 C :   -0.015493
  13 H :    0.036122
  14 H :    0.037863
  15 H :    0.044935
  16 S :    0.095336
  17 C :   -0.124647
  18 C :   -0.028170
  19 C :   -0.074912
  20 C :   -0.123825
  21 H :    0.040419
  22 C :    0.090639
  23 H :   -0.004246
  24 H :   -0.018812
  25 C :   -0.029805
  26 H :    0.036728
  27 H :   -0.001734
  28 C :   -0.012785
  29 H :    0.022297
  30 H :    0.029861
  31 H :    0.019362
  32 H :    0.069293
  33 H :    0.079565
Sum of atomic charges:   -0.0000000

LOEWDIN ATOMIC CHARGES
----------------------
   0 S :    0.376177
   1 C :   -0.193223
   2 C :   -0.057956
   3 C :   -0.066134
   4 C :   -0.179352
   5 H :    0.022956
   6 C :   -0.028792
   7 H :    0.023959
   8 H :    0.033677
   9 C :   -0.039451
  10 H :    0.029697
  11 H :    0.007434
  12 C :   -0.061341
  13 H :    0.025325
  14 H :    0.027913
  15 H :    0.036637
  16 S :    0.412273
  17 C :   -0.180538
  18 C :   -0.077653
  19 C :   -0.060699
  20 C :   -0.212351
  21 H :    0.042293
  22 C :   -0.033000
  23 H :    0.021749
  24 H :    0.018554
  25 C :   -0.027612
  26 H :    0.033266
  27 H :    0.011492
  28 C :   -0.058686
  29 H :    0.027660
  30 H :    0.022534
  31 H :    0.019839
  32 H :    0.041022
  33 H :    0.042331

  Mayer bond orders larger than 0.100000
B(  0-S ,  1-C ) :   1.1181 B(  0-S ,  4-C ) :   1.1405 B(  1-C ,  2-C ) :   1.6305
B(  1-C , 32-H ) :   0.9693 B(  2-C ,  3-C ) :   1.2233 B(  2-C ,  6-C ) :   1.0008
B(  3-C ,  4-C ) :   1.6101 B(  3-C ,  5-H ) :   0.9936 B(  4-C , 20-C ) :   0.9818
B(  6-C ,  7-H ) :   0.9425 B(  6-C ,  8-H ) :   0.9351 B(  6-C ,  9-C ) :   1.0796
B(  9-C , 10-H ) :   0.9543 B(  9-C , 11-H ) :   0.9484 B(  9-C , 12-C ) :   1.0742
B( 12-C , 13-H ) :   0.9698 B( 12-C , 14-H ) :   0.9743 B( 12-C , 15-H ) :   0.9725
B( 16-S , 17-C ) :   1.1565 B( 16-S , 20-C ) :   1.1410 B( 17-C , 18-C ) :   1.6242
B( 17-C , 33-H ) :   0.9588 B( 18-C , 19-C ) :   1.2266 B( 18-C , 21-H ) :   0.9827
B( 19-C , 20-C ) :   1.6263 B( 19-C , 22-C ) :   1.0657 B( 22-C , 23-H ) :   0.9194
B( 22-C , 24-H ) :   0.9188 B( 22-C , 25-C ) :   1.0811 B( 25-C , 26-H ) :   0.9515
B( 25-C , 27-H ) :   0.9479 B( 25-C , 28-C ) :   1.1044 B( 28-C , 29-H ) :   0.9691
B( 28-C , 30-H ) :   0.9714 B( 28-C , 31-H ) :   0.9698

Dispersion correction           -0.013739324
FINAL SINGLE POINT ENERGY     -1339.863772734322

DIPOLE MOMENT
-------------
                                X             Y             Z
Electronic contribution:      1.35109     -10.75266     -26.37247
Nuclear contribution   :     -1.59647      10.83794      27.04678
                        -----------------------------------------
Total Dipole Moment    :     -0.24538       0.08527       0.67431
                        -----------------------------------------
Magnitude (a.u.)       :      0.72262
Magnitude (Debye)      :      1.83674

Rotational constants in cm-1:     0.016651     0.008768     0.007127
Rotational constants in MHz :   499.192665   262.846554   213.665778

                             ****ORCA TERMINATED NORMALLY****
TOTAL RUN TIME: 0 days 0 hours 0 minutes 21 seconds 676 msec
