                         Program Version 4.2.1 -  RELEASE  -
|  1> ! wB97X-D3 SP def2-SVP
|  2> %pal
|  3> nprocs 24
|  4> end
|  5>
|  6> * xyz 0 1
|  7> S 	 -84.433 	 -14.366 	 -54.5394
|  8> C 	 -86.1438 	 -14.2823 	 -54.604
|  9> C 	 -86.717 	 -15.4448 	 -54.1989
| 10> C 	 -85.7082 	 -16.4682 	 -53.7767
| 11> C 	 -84.4011 	 -15.9929 	 -54.02
| 12> H 	 -85.8618 	 -17.4587 	 -53.2865
| 13> C 	 -88.1918 	 -15.7006 	 -54.1332
| 14> H 	 -88.3776 	 -16.6994 	 -54.4643
| 15> H 	 -88.7093 	 -15.0465 	 -54.8803
| 16> C 	 -88.7187 	 -15.5649 	 -52.6767
| 17> H 	 -88.7285 	 -16.4251 	 -52.0761
| 18> H 	 -88.0175 	 -14.9383 	 -52.1492
| 19> C 	 -90.0175 	 -14.7386 	 -52.5266
| 20> H 	 -90.7351 	 -14.9762 	 -53.3337
| 21> H 	 -90.576 	 -14.8313 	 -51.5854
| 22> H 	 -89.6827 	 -13.7539 	 -52.6152
| 23> S 	 -82.519 	 -16.3693 	 -52.1778
| 24> C 	 -81.1755 	 -17.5636 	 -52.3214
| 25> C 	 -81.2262 	 -18.0597 	 -53.6371
| 26> C 	 -82.4346 	 -17.7008 	 -54.3729
| 27> C 	 -83.1772 	 -16.7208 	 -53.7455
| 28> H 	 -80.5127 	 -18.7565 	 -54.1018
| 29> C 	 -82.8157 	 -18.1741 	 -55.7882
| 30> H 	 -81.8716 	 -17.9101 	 -56.3135
| 31> H 	 -83.5337 	 -17.4986 	 -56.2929
| 32> C 	 -83.2729 	 -19.6484 	 -55.9465
| 33> H 	 -84.079 	 -19.8087 	 -55.2682
| 34> H 	 -82.4445 	 -20.2174 	 -55.5366
| 35> C 	 -83.5834 	 -19.9758 	 -57.4885
| 36> H 	 -83.9583 	 -21.0324 	 -57.5831
| 37> H 	 -82.7848 	 -19.7976 	 -58.1875
| 38> H 	 -84.4353 	 -19.4419 	 -57.7187
| 39> H 	 -86.6957 	 -13.3798 	 -54.7786
| 40> H 	 -80.3633 	 -17.63 	 -51.6164
| 41> *
| 42>
| 43>                          ****END OF INPUT****

CARTESIAN COORDINATES (ANGSTROEM)
---------------------------------
  S    -84.433000  -14.366000  -54.539400
  C    -86.143800  -14.282300  -54.604000
  C    -86.717000  -15.444800  -54.198900
  C    -85.708200  -16.468200  -53.776700
  C    -84.401100  -15.992900  -54.020000
  H    -85.861800  -17.458700  -53.286500
  C    -88.191800  -15.700600  -54.133200
  H    -88.377600  -16.699400  -54.464300
  H    -88.709300  -15.046500  -54.880300
  C    -88.718700  -15.564900  -52.676700
  H    -88.728500  -16.425100  -52.076100
  H    -88.017500  -14.938300  -52.149200
  C    -90.017500  -14.738600  -52.526600
  H    -90.735100  -14.976200  -53.333700
  H    -90.576000  -14.831300  -51.585400
  H    -89.682700  -13.753900  -52.615200
  S    -82.519000  -16.369300  -52.177800
  C    -81.175500  -17.563600  -52.321400
  C    -81.226200  -18.059700  -53.637100
  C    -82.434600  -17.700800  -54.372900
  C    -83.177200  -16.720800  -53.745500
  H    -80.512700  -18.756500  -54.101800
  C    -82.815700  -18.174100  -55.788200
  H    -81.871600  -17.910100  -56.313500
  H    -83.533700  -17.498600  -56.292900
  C    -83.272900  -19.648400  -55.946500
  H    -84.079000  -19.808700  -55.268200
  H    -82.444500  -20.217400  -55.536600
  C    -83.583400  -19.975800  -57.488500
  H    -83.958300  -21.032400  -57.583100
  H    -82.784800  -19.797600  -58.187500
  H    -84.435300  -19.441900  -57.718700
  H    -86.695700  -13.379800  -54.778600
  H    -80.363300  -17.630000  -51.616400

 Total Charge           Charge          ....    0
 Multiplicity           Mult            ....    1
 Number of Electrons    NEL             ....  134
 Basis Dimension        Dim             ....  322

ORBITAL ENERGIES
----------------

  NO   OCC          E(Eh)            E(eV)
   0   2.0000     -88.965002     -2420.8608
   1   2.0000     -88.959606     -2420.7139
   2   2.0000     -10.329133      -281.0700
   3   2.0000     -10.326846      -281.0078
   4   2.0000     -10.323478      -280.9161
   5   2.0000     -10.309030      -280.5230
   6   2.0000     -10.306382      -280.4509
   7   2.0000     -10.305728      -280.4331
   8   2.0000     -10.305188      -280.4184
   9   2.0000     -10.304134      -280.3897
  10   2.0000     -10.293884      -280.1108
  11   2.0000     -10.293247      -280.0935
  12   2.0000     -10.289666      -279.9961
  13   2.0000     -10.280518      -279.7471
  14   2.0000     -10.279709      -279.7251
  15   2.0000     -10.274940      -279.5953
  16   2.0000      -8.081099      -219.8979
  17   2.0000      -8.074121      -219.7080
  18   2.0000      -6.039575      -164.3452
  19   2.0000      -6.035313      -164.2292
  20   2.0000      -6.032799      -164.1608
  21   2.0000      -6.031912      -164.1367
  22   2.0000      -6.028420      -164.0417
  23   2.0000      -6.024930      -163.9467
  24   2.0000      -1.007982       -27.4286
  25   2.0000      -0.981049       -26.6957
  26   2.0000      -0.912169       -24.8214
  27   2.0000      -0.897636       -24.4259
  28   2.0000      -0.871317       -23.7097
  29   2.0000      -0.845966       -23.0199
  30   2.0000      -0.840458       -22.8700
  31   2.0000      -0.812234       -22.1020
  32   2.0000      -0.779760       -21.2183
  33   2.0000      -0.771061       -20.9816
  34   2.0000      -0.709350       -19.3024
  35   2.0000      -0.704496       -19.1703
  36   2.0000      -0.695619       -18.9288
  37   2.0000      -0.663347       -18.0506
  38   2.0000      -0.647134       -17.6094
  39   2.0000      -0.607689       -16.5360
  40   2.0000      -0.590868       -16.0783
  41   2.0000      -0.574302       -15.6276
  42   2.0000      -0.559068       -15.2130
  43   2.0000      -0.556305       -15.1378
  44   2.0000      -0.524365       -14.2687
  45   2.0000      -0.519108       -14.1256
  46   2.0000      -0.515808       -14.0358
  47   2.0000      -0.515115       -14.0170
  48   2.0000      -0.511776       -13.9261
  49   2.0000      -0.500234       -13.6120
  50   2.0000      -0.494629       -13.4595
  51   2.0000      -0.479126       -13.0377
  52   2.0000      -0.468566       -12.7503
  53   2.0000      -0.467270       -12.7151
  54   2.0000      -0.460133       -12.5208
  55   2.0000      -0.446475       -12.1492
  56   2.0000      -0.442323       -12.0362
  57   2.0000      -0.437006       -11.8915
  58   2.0000      -0.432773       -11.7763
  59   2.0000      -0.425955       -11.5908
  60   2.0000      -0.422290       -11.4911
  61   2.0000      -0.412105       -11.2139
  62   2.0000      -0.402894       -10.9633
  63   2.0000      -0.334248        -9.0953
  64   2.0000      -0.323148        -8.7933
  65   2.0000      -0.320128        -8.7111
  66   2.0000      -0.314824        -8.5668
  67   0.0000       0.044477         1.2103
  68   0.0000       0.057159         1.5554
  69   0.0000       0.114892         3.1264
  70   0.0000       0.122104         3.3226
  71   0.0000       0.130072         3.5394

MULLIKEN ATOMIC CHARGES
-----------------------
   0 S :    0.128157
   1 C :   -0.111022
   2 C :   -0.121736
   3 C :    0.040161
   4 C :   -0.178525
   5 H :    0.038291
   6 C :    0.085358
   7 H :    0.023179
   8 H :    0.031747
   9 C :   -0.048331
  10 H :    0.020499
  11 H :    0.025579
  12 C :   -0.069964
  13 H :    0.034081
  14 H :    0.038041
  15 H :    0.023737
  16 S :    0.088790
  17 C :   -0.092736
  18 C :   -0.026506
  19 C :   -0.038008
  20 C :   -0.173673
  21 H :    0.031626
  22 C :    0.007247
  23 H :    0.031776
  24 H :    0.032083
  25 C :   -0.050724
  26 H :    0.026944
  27 H :    0.021920
  28 C :   -0.028661
  29 H :    0.036559
  30 H :    0.042653
  31 H :    0.018620
  32 H :    0.044806
  33 H :    0.068030
Sum of atomic charges:    0.0000000

LOEWDIN ATOMIC CHARGES
----------------------
   0 S :    0.438400
   1 C :   -0.211371
   2 C :   -0.060540
   3 C :   -0.061243
   4 C :   -0.221500
   5 H :    0.040695
   6 C :   -0.029760
   7 H :    0.029822
   8 H :    0.035907
   9 C :   -0.037721
  10 H :    0.016121
  11 H :    0.024786
  12 C :   -0.063138
  13 H :    0.023756
  14 H :    0.028646
  15 H :    0.017287
  16 S :    0.392669
  17 C :   -0.172100
  18 C :   -0.069469
  19 C :   -0.060477
  20 C :   -0.206103
  21 H :    0.033368
  22 C :   -0.039459
  23 H :    0.034277
  24 H :    0.030347
  25 C :   -0.031730
  26 H :    0.021886
  27 H :    0.019865
  28 C :   -0.058223
  29 H :    0.033892
  30 H :    0.026436
  31 H :    0.015866
  32 H :    0.028880
  33 H :    0.029929

  Mayer bond orders larger than 0.100000
B(  0-S ,  1-C ) :   1.1332 B(  0-S ,  4-C ) :   1.1761 B(  1-C ,  2-C ) :   1.6331
B(  1-C , 32-H ) :   0.9693 B(  2-C ,  3-C ) :   1.2051 B(  2-C ,  6-C ) :   1.0458
B(  3-C ,  4-C ) :   1.5805 B(  3-C ,  5-H ) :   0.9870 B(  4-C , 20-C ) :   0.9943
B(  6-C ,  7-H ) :   0.9331 B(  6-C ,  8-H ) :   0.9516 B(  6-C ,  9-C ) :   1.0235
B(  9-C , 10-H ) :   0.9584 B(  9-C , 11-H ) :   0.9722 B(  9-C , 12-C ) :   1.0653
B( 12-C , 13-H ) :   0.9803 B( 12-C , 14-H ) :   0.9760 B( 12-C , 15-H ) :   0.9853
B( 16-S , 17-C ) :   1.1432 B( 16-S , 20-C ) :   1.1537 B( 17-C , 18-C ) :   1.5956
B( 17-C , 20-C ) :   0.1067 B( 17-C , 33-H ) :   0.9724 B( 18-C , 19-C ) :   1.2368
B( 18-C , 21-H ) :   0.9781 B( 19-C , 20-C ) :   1.6246 B( 19-C , 22-C ) :   1.0246
B( 22-C , 23-H ) :   0.9410 B( 22-C , 24-H ) :   0.9461 B( 22-C , 25-C ) :   1.0440
B( 25-C , 26-H ) :   0.9582 B( 25-C , 27-H ) :   0.9611 B( 25-C , 28-C ) :   1.0662
B( 28-C , 29-H ) :   0.9756 B( 28-C , 30-H ) :   0.9794 B( 28-C , 31-H ) :   0.9762

Dispersion correction           -0.013842632
FINAL SINGLE POINT ENERGY     -1339.861280318456

DIPOLE MOMENT
-------------
                                X             Y             Z
Electronic contribution:     18.19170      11.54442       8.53195
Nuclear contribution   :    -18.50049     -11.84997      -8.70860
                        -----------------------------------------
Total Dipole Moment    :     -0.30879      -0.30555      -0.17665
                        -----------------------------------------
Magnitude (a.u.)       :      0.46895
Magnitude (Debye)      :      1.19199

Rotational constants in cm-1:     0.018490     0.007702     0.006464
Rotational constants in MHz :   554.325366   230.895840   193.781958

                             ****ORCA TERMINATED NORMALLY****
TOTAL RUN TIME: 0 days 0 hours 0 minutes 20 seconds 851 msec
