                         Program Version 4.2.1 -  RELEASE  -
|  1> ! wB97X-D3 SP def2-SVP
|  2> %pal
|  3> nprocs 24
|  4> end
|  5>
|  6> * xyz 0 1
|  7> S 	 -66.5515 	 11.025 	 -74.3279
|  8> C 	 -67.5434 	 9.63484 	 -74.1692
|  9> C 	 -67.4272 	 8.75396 	 -75.2173
| 10> C 	 -66.4598 	 9.3397 	 -76.2046
| 11> C 	 -65.9046 	 10.553 	 -75.8282
| 12> H 	 -66.1962 	 8.89122 	 -77.1072
| 13> C 	 -68.2459 	 7.50084 	 -75.4585
| 14> H 	 -68.2744 	 7.04498 	 -74.4652
| 15> H 	 -67.5768 	 6.83615 	 -75.9169
| 16> C 	 -69.5452 	 7.48181 	 -76.1953
| 17> H 	 -69.8201 	 6.44541 	 -75.9883
| 18> H 	 -70.3718 	 8.03303 	 -75.7793
| 19> C 	 -69.4623 	 7.64563 	 -77.8011
| 20> H 	 -69.32 	 8.66501 	 -78.0469
| 21> H 	 -68.9406 	 6.98673 	 -78.4272
| 22> H 	 -70.5039 	 7.54118 	 -78.1508
| 23> S 	 -63.4657 	 11.7329 	 -75.3911
| 24> C 	 -62.4147 	 12.044 	 -76.7606
| 25> C 	 -62.8104 	 11.4457 	 -77.932
| 26> C 	 -64.0899 	 10.8469 	 -77.7577
| 27> C 	 -64.6686 	 10.9809 	 -76.4603
| 28> H 	 -62.3719 	 11.4851 	 -78.8648
| 29> C 	 -64.6651 	 10.0899 	 -78.9059
| 30> H 	 -64.7203 	 9.00216 	 -78.6998
| 31> H 	 -64.0137 	 10.2264 	 -79.7169
| 32> C 	 -65.9993 	 10.5382 	 -79.4783
| 33> H 	 -65.7451 	 11.5646 	 -79.8369
| 34> H 	 -66.7243 	 10.7296 	 -78.6928
| 35> C 	 -66.5168 	 9.75593 	 -80.6664
| 36> H 	 -67.5398 	 10.108 	 -81.0059
| 37> H 	 -66.759 	 8.74869 	 -80.4024
| 38> H 	 -65.8494 	 9.73276 	 -81.5782
| 39> H 	 -68.1911 	 9.43829 	 -73.3272
| 40> H 	 -61.4169 	 12.2823 	 -76.5059
| 41> *
| 42>
| 43>                          ****END OF INPUT****

CARTESIAN COORDINATES (ANGSTROEM)
---------------------------------
  S    -66.551500   11.025000  -74.327900
  C    -67.543400    9.634840  -74.169200
  C    -67.427200    8.753960  -75.217300
  C    -66.459800    9.339700  -76.204600
  C    -65.904600   10.553000  -75.828200
  H    -66.196200    8.891220  -77.107200
  C    -68.245900    7.500840  -75.458500
  H    -68.274400    7.044980  -74.465200
  H    -67.576800    6.836150  -75.916900
  C    -69.545200    7.481810  -76.195300
  H    -69.820100    6.445410  -75.988300
  H    -70.371800    8.033030  -75.779300
  C    -69.462300    7.645630  -77.801100
  H    -69.320000    8.665010  -78.046900
  H    -68.940600    6.986730  -78.427200
  H    -70.503900    7.541180  -78.150800
  S    -63.465700   11.732900  -75.391100
  C    -62.414700   12.044000  -76.760600
  C    -62.810400   11.445700  -77.932000
  C    -64.089900   10.846900  -77.757700
  C    -64.668600   10.980900  -76.460300
  H    -62.371900   11.485100  -78.864800
  C    -64.665100   10.089900  -78.905900
  H    -64.720300    9.002160  -78.699800
  H    -64.013700   10.226400  -79.716900
  C    -65.999300   10.538200  -79.478300
  H    -65.745100   11.564600  -79.836900
  H    -66.724300   10.729600  -78.692800
  C    -66.516800    9.755930  -80.666400
  H    -67.539800   10.108000  -81.005900
  H    -66.759000    8.748690  -80.402400
  H    -65.849400    9.732760  -81.578200
  H    -68.191100    9.438290  -73.327200
  H    -61.416900   12.282300  -76.505900

 Total Charge           Charge          ....    0
 Multiplicity           Mult            ....    1
 Number of Electrons    NEL             ....  134
 Basis Dimension        Dim             ....  322

ORBITAL ENERGIES
----------------

  NO   OCC          E(Eh)            E(eV)
   0   2.0000     -88.968214     -2420.9482
   1   2.0000     -88.963693     -2420.8251
   2   2.0000     -10.334207      -281.2081
   3   2.0000     -10.326715      -281.0042
   4   2.0000     -10.312752      -280.6242
   5   2.0000     -10.311951      -280.6025
   6   2.0000     -10.304040      -280.3872
   7   2.0000     -10.302149      -280.3357
   8   2.0000     -10.295980      -280.1679
   9   2.0000     -10.291799      -280.0541
  10   2.0000     -10.291030      -280.0332
  11   2.0000     -10.289640      -279.9953
  12   2.0000     -10.284499      -279.8554
  13   2.0000     -10.284430      -279.8536
  14   2.0000     -10.282633      -279.8047
  15   2.0000     -10.279734      -279.7258
  16   2.0000      -8.084183      -219.9818
  17   2.0000      -8.078278      -219.8211
  18   2.0000      -6.042810      -164.4332
  19   2.0000      -6.038352      -164.3119
  20   2.0000      -6.036699      -164.2669
  21   2.0000      -6.034911      -164.2183
  22   2.0000      -6.032833      -164.1617
  23   2.0000      -6.029124      -164.0608
  24   2.0000      -1.009746       -27.4766
  25   2.0000      -0.983881       -26.7728
  26   2.0000      -0.915487       -24.9117
  27   2.0000      -0.912433       -24.8286
  28   2.0000      -0.874152       -23.7869
  29   2.0000      -0.852520       -23.1982
  30   2.0000      -0.844508       -22.9802
  31   2.0000      -0.813961       -22.1490
  32   2.0000      -0.792047       -21.5527
  33   2.0000      -0.774661       -21.0796
  34   2.0000      -0.716811       -19.5054
  35   2.0000      -0.706511       -19.2251
  36   2.0000      -0.686791       -18.6885
  37   2.0000      -0.674955       -18.3665
  38   2.0000      -0.644272       -17.5315
  39   2.0000      -0.613918       -16.7055
  40   2.0000      -0.599069       -16.3015
  41   2.0000      -0.577465       -15.7136
  42   2.0000      -0.568655       -15.4739
  43   2.0000      -0.546355       -14.8671
  44   2.0000      -0.542339       -14.7578
  45   2.0000      -0.524346       -14.2682
  46   2.0000      -0.516443       -14.0531
  47   2.0000      -0.513589       -13.9755
  48   2.0000      -0.504989       -13.7415
  49   2.0000      -0.498528       -13.5656
  50   2.0000      -0.493633       -13.4324
  51   2.0000      -0.492174       -13.3927
  52   2.0000      -0.472251       -12.8506
  53   2.0000      -0.468182       -12.7399
  54   2.0000      -0.459063       -12.4917
  55   2.0000      -0.453260       -12.3338
  56   2.0000      -0.447855       -12.1867
  57   2.0000      -0.439875       -11.9696
  58   2.0000      -0.429087       -11.6761
  59   2.0000      -0.422957       -11.5092
  60   2.0000      -0.415375       -11.3029
  61   2.0000      -0.410369       -11.1667
  62   2.0000      -0.409927       -11.1547
  63   2.0000      -0.361648        -9.8409
  64   2.0000      -0.331580        -9.0227
  65   2.0000      -0.326861        -8.8943
  66   2.0000      -0.280763        -7.6400
  67   0.0000       0.022247         0.6054
  68   0.0000       0.079187         2.1548
  69   0.0000       0.104668         2.8482
  70   0.0000       0.117185         3.1888
  71   0.0000       0.125319         3.4101

MULLIKEN ATOMIC CHARGES
-----------------------
   0 S :    0.114728
   1 C :   -0.120251
   2 C :   -0.107673
   3 C :    0.013736
   4 C :   -0.084239
   5 H :   -0.029894
   6 C :    0.102436
   7 H :    0.017011
   8 H :    0.001696
   9 C :   -0.032736
  10 H :    0.025974
  11 H :    0.029693
  12 C :   -0.041298
  13 H :    0.032842
  14 H :    0.031327
  15 H :    0.019941
  16 S :    0.083727
  17 C :   -0.067745
  18 C :    0.016336
  19 C :   -0.069719
  20 C :   -0.132037
  21 H :   -0.004442
  22 C :    0.054683
  23 H :    0.040711
  24 H :   -0.011304
  25 C :   -0.088604
  26 H :    0.021975
  27 H :    0.039701
  28 C :   -0.045146
  29 H :    0.036139
  30 H :    0.014839
  31 H :    0.042777
  32 H :    0.044025
  33 H :    0.050790
Sum of atomic charges:    0.0000000

LOEWDIN ATOMIC CHARGES
----------------------
   0 S :    0.434765
   1 C :   -0.203625
   2 C :   -0.060971
   3 C :   -0.047775
   4 C :   -0.222053
   5 H :    0.013244
   6 C :   -0.041216
   7 H :    0.036183
   8 H :    0.028123
   9 C :   -0.029406
  10 H :    0.031595
  11 H :    0.025735
  12 C :   -0.065235
  13 H :    0.022614
  14 H :    0.018486
  15 H :    0.033229
  16 S :    0.394282
  17 C :   -0.177318
  18 C :   -0.053624
  19 C :   -0.058125
  20 C :   -0.173662
  21 H :    0.023261
  22 C :   -0.037750
  23 H :    0.028204
  24 H :    0.021163
  25 C :   -0.049155
  26 H :    0.028533
  27 H :    0.022742
  28 C :   -0.072075
  29 H :    0.035702
  30 H :    0.016502
  31 H :    0.031919
  32 H :    0.028946
  33 H :    0.016762

  Mayer bond orders larger than 0.100000
B(  0-S ,  1-C ) :   1.1442 B(  0-S ,  4-C ) :   1.1438 B(  1-C ,  2-C ) :   1.6149
B(  1-C , 32-H ) :   0.9678 B(  2-C ,  3-C ) :   1.2400 B(  2-C ,  6-C ) :   1.0199
B(  3-C ,  4-C ) :   1.5291 B(  3-C ,  5-H ) :   1.0011 B(  4-C , 20-C ) :   1.0814
B(  6-C ,  7-H ) :   0.9308 B(  6-C ,  8-H ) :   0.9247 B(  6-C ,  9-C ) :   1.0680
B(  9-C , 10-H ) :   0.9481 B(  9-C , 11-H ) :   0.9597 B(  9-C , 12-C ) :   1.0706
B( 12-C , 13-H ) :   0.9771 B( 12-C , 14-H ) :   0.9795 B( 12-C , 15-H ) :   0.9695
B( 16-S , 17-C ) :   1.1660 B( 16-S , 20-C ) :   1.1413 B( 17-C , 18-C ) :   1.5668
B( 17-C , 33-H ) :   0.9644 B( 18-C , 19-C ) :   1.2935 B( 18-C , 21-H ) :   0.9988
B( 19-C , 20-C ) :   1.5411 B( 19-C , 22-C ) :   1.0562 B( 22-C , 23-H ) :   0.9276
B( 22-C , 24-H ) :   0.9252 B( 22-C , 25-C ) :   1.0527 B( 25-C , 26-H ) :   0.9499
B( 25-C , 27-H ) :   0.9581 B( 25-C , 28-C ) :   1.0854 B( 28-C , 29-H ) :   0.9697
B( 28-C , 30-H ) :   0.9704 B( 28-C , 31-H ) :   0.9728

Dispersion correction           -0.014787789
FINAL SINGLE POINT ENERGY     -1339.847627143632

DIPOLE MOMENT
-------------
                                X             Y             Z
Electronic contribution:     16.81832      16.72458      22.64417
Nuclear contribution   :    -17.13313     -17.42108     -23.04650
                        -----------------------------------------
Total Dipole Moment    :     -0.31481      -0.69649      -0.40233
                        -----------------------------------------
Magnitude (a.u.)       :      0.86376
Magnitude (Debye)      :      2.19550

Rotational constants in cm-1:     0.017727     0.010188     0.006872
Rotational constants in MHz :   531.431718   305.439694   206.004096

                             ****ORCA TERMINATED NORMALLY****
TOTAL RUN TIME: 0 days 0 hours 0 minutes 22 seconds 375 msec
