                         Program Version 4.2.1 -  RELEASE  -
|  1> ! wB97X-D3 SP def2-SVP
|  2> %pal
|  3> nprocs 24
|  4> end
|  5>
|  6> * xyz 0 1
|  7> S 	 -51.663 	 12.6239 	 -105.306
|  8> C 	 -53.1182 	 12.1776 	 -106.169
|  9> C 	 -54.1824 	 12.9653 	 -105.707
| 10> C 	 -53.8463 	 13.6957 	 -104.534
| 11> C 	 -52.495 	 13.6467 	 -104.19
| 12> H 	 -54.5876 	 14.1947 	 -103.991
| 13> C 	 -55.5768 	 13.0784 	 -106.467
| 14> H 	 -55.4337 	 12.7022 	 -107.497
| 15> H 	 -55.9061 	 14.1357 	 -106.591
| 16> C 	 -56.7072 	 12.3131 	 -105.733
| 17> H 	 -56.3707 	 11.2913 	 -105.519
| 18> H 	 -56.7333 	 12.7833 	 -104.737
| 19> C 	 -58.1747 	 12.45 	 -106.271
| 20> H 	 -58.7913 	 11.8137 	 -105.547
| 21> H 	 -58.5321 	 13.4781 	 -106.15
| 22> H 	 -58.3688 	 12.1782 	 -107.315
| 23> S 	 -51.8294 	 13.2636 	 -101.618
| 24> C 	 -51.1226 	 14.5041 	 -100.641
| 25> C 	 -51.0335 	 15.6361 	 -101.34
| 26> C 	 -51.431 	 15.5015 	 -102.687
| 27> C 	 -51.8833 	 14.2326 	 -103.006
| 28> H 	 -50.6851 	 16.5606 	 -100.815
| 29> C 	 -51.4792 	 16.7193 	 -103.597
| 30> H 	 -51.5688 	 16.4063 	 -104.589
| 31> H 	 -50.4521 	 17.1669 	 -103.552
| 32> C 	 -52.4346 	 17.8555 	 -103.294
| 33> H 	 -52.1731 	 18.7017 	 -103.956
| 34> H 	 -52.4379 	 18.1291 	 -102.227
| 35> C 	 -53.8507 	 17.6062 	 -103.749
| 36> H 	 -53.812 	 17.1846 	 -104.766
| 37> H 	 -54.471 	 18.52 	 -103.801
| 38> H 	 -54.287 	 16.8928 	 -103.077
| 39> H 	 -53.1163 	 11.4981 	 -107.063
| 40> H 	 -50.7147 	 14.3846 	 -99.6624
| 41> *
| 42>
| 43>                          ****END OF INPUT****

CARTESIAN COORDINATES (ANGSTROEM)
---------------------------------
  S    -51.663000   12.623900  -105.306000
  C    -53.118200   12.177600  -106.169000
  C    -54.182400   12.965300  -105.707000
  C    -53.846300   13.695700  -104.534000
  C    -52.495000   13.646700  -104.190000
  H    -54.587600   14.194700  -103.991000
  C    -55.576800   13.078400  -106.467000
  H    -55.433700   12.702200  -107.497000
  H    -55.906100   14.135700  -106.591000
  C    -56.707200   12.313100  -105.733000
  H    -56.370700   11.291300  -105.519000
  H    -56.733300   12.783300  -104.737000
  C    -58.174700   12.450000  -106.271000
  H    -58.791300   11.813700  -105.547000
  H    -58.532100   13.478100  -106.150000
  H    -58.368800   12.178200  -107.315000
  S    -51.829400   13.263600  -101.618000
  C    -51.122600   14.504100  -100.641000
  C    -51.033500   15.636100  -101.340000
  C    -51.431000   15.501500  -102.687000
  C    -51.883300   14.232600  -103.006000
  H    -50.685100   16.560600  -100.815000
  C    -51.479200   16.719300  -103.597000
  H    -51.568800   16.406300  -104.589000
  H    -50.452100   17.166900  -103.552000
  C    -52.434600   17.855500  -103.294000
  H    -52.173100   18.701700  -103.956000
  H    -52.437900   18.129100  -102.227000
  C    -53.850700   17.606200  -103.749000
  H    -53.812000   17.184600  -104.766000
  H    -54.471000   18.520000  -103.801000
  H    -54.287000   16.892800  -103.077000
  H    -53.116300   11.498100  -107.063000
  H    -50.714700   14.384600  -99.662400

 Total Charge           Charge          ....    0
 Multiplicity           Mult            ....    1
 Number of Electrons    NEL             ....  134
 Basis Dimension        Dim             ....  322

ORBITAL ENERGIES
----------------

  NO   OCC          E(Eh)            E(eV)
   0   2.0000     -88.967747     -2420.9355
   1   2.0000     -88.960350     -2420.7342
   2   2.0000     -10.330236      -281.1000
   3   2.0000     -10.322348      -280.8854
   4   2.0000     -10.321438      -280.8606
   5   2.0000     -10.308330      -280.5039
   6   2.0000     -10.307419      -280.4791
   7   2.0000     -10.302316      -280.3403
   8   2.0000     -10.299641      -280.2675
   9   2.0000     -10.293017      -280.0872
  10   2.0000     -10.291185      -280.0374
  11   2.0000     -10.289668      -279.9961
  12   2.0000     -10.288407      -279.9618
  13   2.0000     -10.284145      -279.8458
  14   2.0000     -10.283699      -279.8337
  15   2.0000     -10.271105      -279.4910
  16   2.0000      -8.082657      -219.9403
  17   2.0000      -8.076831      -219.7818
  18   2.0000      -6.041118      -164.3872
  19   2.0000      -6.036916      -164.2728
  20   2.0000      -6.035257      -164.2277
  21   2.0000      -6.033676      -164.1847
  22   2.0000      -6.030943      -164.1103
  23   2.0000      -6.027700      -164.0221
  24   2.0000      -1.016227       -27.6529
  25   2.0000      -0.990345       -26.9487
  26   2.0000      -0.912121       -24.8201
  27   2.0000      -0.900707       -24.5095
  28   2.0000      -0.873380       -23.7659
  29   2.0000      -0.849432       -23.1142
  30   2.0000      -0.844559       -22.9816
  31   2.0000      -0.816613       -22.2212
  32   2.0000      -0.781117       -21.2553
  33   2.0000      -0.771875       -21.0038
  34   2.0000      -0.706120       -19.2145
  35   2.0000      -0.692041       -18.8314
  36   2.0000      -0.690266       -18.7831
  37   2.0000      -0.655199       -17.8289
  38   2.0000      -0.643510       -17.5108
  39   2.0000      -0.623763       -16.9734
  40   2.0000      -0.603181       -16.4134
  41   2.0000      -0.570228       -15.5167
  42   2.0000      -0.555341       -15.1116
  43   2.0000      -0.553316       -15.0565
  44   2.0000      -0.540586       -14.7101
  45   2.0000      -0.521976       -14.2037
  46   2.0000      -0.517691       -14.0871
  47   2.0000      -0.510520       -13.8919
  48   2.0000      -0.504246       -13.7212
  49   2.0000      -0.500491       -13.6190
  50   2.0000      -0.492614       -13.4047
  51   2.0000      -0.481570       -13.1042
  52   2.0000      -0.469409       -12.7733
  53   2.0000      -0.467031       -12.7086
  54   2.0000      -0.463016       -12.5993
  55   2.0000      -0.447036       -12.1645
  56   2.0000      -0.439253       -11.9527
  57   2.0000      -0.433474       -11.7954
  58   2.0000      -0.432277       -11.7629
  59   2.0000      -0.427265       -11.6265
  60   2.0000      -0.418532       -11.3888
  61   2.0000      -0.415948       -11.3185
  62   2.0000      -0.403303       -10.9744
  63   2.0000      -0.340327        -9.2608
  64   2.0000      -0.328758        -8.9460
  65   2.0000      -0.317572        -8.6416
  66   2.0000      -0.316085        -8.6011
  67   0.0000       0.044464         1.2099
  68   0.0000       0.059178         1.6103
  69   0.0000       0.111778         3.0416
  70   0.0000       0.127857         3.4792
  71   0.0000       0.136734         3.7207

MULLIKEN ATOMIC CHARGES
-----------------------
   0 S :    0.125839
   1 C :   -0.151645
   2 C :   -0.096847
   3 C :    0.081529
   4 C :   -0.175234
   5 H :   -0.009597
   6 C :    0.054222
   7 H :    0.023974
   8 H :    0.035144
   9 C :   -0.100612
  10 H :    0.034731
  11 H :    0.025376
  12 C :   -0.058609
  13 H :    0.047840
  14 H :    0.032507
  15 H :    0.042772
  16 S :    0.117551
  17 C :   -0.081239
  18 C :   -0.058006
  19 C :   -0.026507
  20 C :   -0.170567
  21 H :    0.034585
  22 C :    0.093663
  23 H :    0.001894
  24 H :    0.027605
  25 C :   -0.069724
  26 H :    0.029866
  27 H :    0.031953
  28 C :   -0.058061
  29 H :    0.026352
  30 H :    0.038069
  31 H :    0.029708
  32 H :    0.074733
  33 H :    0.046737
Sum of atomic charges:   -0.0000000

LOEWDIN ATOMIC CHARGES
----------------------
   0 S :    0.426248
   1 C :   -0.206302
   2 C :   -0.063374
   3 C :   -0.049767
   4 C :   -0.213657
   5 H :    0.021480
   6 C :   -0.031397
   7 H :    0.026432
   8 H :    0.032203
   9 C :   -0.050454
  10 H :    0.024238
  11 H :    0.026064
  12 C :   -0.072256
  13 H :    0.039066
  14 H :    0.025047
  15 H :    0.023581
  16 S :    0.440742
  17 C :   -0.186219
  18 C :   -0.082046
  19 C :   -0.059122
  20 C :   -0.224421
  21 H :    0.041200
  22 C :   -0.030181
  23 H :    0.019932
  24 H :    0.038740
  25 C :   -0.042331
  26 H :    0.030373
  27 H :    0.024236
  28 C :   -0.067088
  29 H :    0.025232
  30 H :    0.027308
  31 H :    0.017782
  32 H :    0.040414
  33 H :    0.028297

  Mayer bond orders larger than 0.100000
B(  0-S ,  1-C ) :   1.1628 B(  0-S ,  4-C ) :   1.1705 B(  1-C ,  2-C ) :   1.5784
B(  1-C ,  4-C ) :   0.1057 B(  1-C , 32-H ) :   0.9625 B(  2-C ,  3-C ) :   1.2766
B(  2-C ,  6-C ) :   1.0113 B(  3-C ,  4-C ) :   1.5502 B(  3-C ,  5-H ) :   1.0020
B(  4-C , 20-C ) :   0.9972 B(  6-C ,  7-H ) :   0.9466 B(  6-C ,  8-H ) :   0.9493
B(  6-C ,  9-C ) :   1.0513 B(  9-C , 10-H ) :   0.9602 B(  9-C , 11-H ) :   0.9575
B(  9-C , 12-C ) :   1.0677 B( 12-C , 13-H ) :   0.9743 B( 12-C , 14-H ) :   0.9743
B( 12-C , 15-H ) :   0.9786 B( 16-S , 17-C ) :   1.1628 B( 16-S , 20-C ) :   1.1713
B( 17-C , 18-C ) :   1.6116 B( 17-C , 33-H ) :   0.9687 B( 18-C , 19-C ) :   1.2500
B( 18-C , 21-H ) :   0.9851 B( 19-C , 20-C ) :   1.5904 B( 19-C , 22-C ) :   1.0492
B( 22-C , 23-H ) :   0.9280 B( 22-C , 24-H ) :   0.9280 B( 22-C , 25-C ) :   1.0828
B( 25-C , 26-H ) :   0.9516 B( 25-C , 27-H ) :   0.9545 B( 25-C , 28-C ) :   1.0805
B( 28-C , 29-H ) :   0.9709 B( 28-C , 30-H ) :   0.9736 B( 28-C , 31-H ) :   0.9768

Dispersion correction           -0.014472470
FINAL SINGLE POINT ENERGY     -1339.881977705470

DIPOLE MOMENT
-------------
                                X             Y             Z
Electronic contribution:     22.08280     -12.99249       8.84648
Nuclear contribution   :    -22.44343      13.40711      -8.93956
                        -----------------------------------------
Total Dipole Moment    :     -0.36064       0.41463      -0.09308
                        -----------------------------------------
Magnitude (a.u.)       :      0.55735
Magnitude (Debye)      :      1.41667

Rotational constants in cm-1:     0.018954     0.008058     0.006989
Rotational constants in MHz :   568.214448   241.571625   209.530594

                             ****ORCA TERMINATED NORMALLY****
TOTAL RUN TIME: 0 days 0 hours 0 minutes 21 seconds 625 msec
