                         Program Version 4.2.1 -  RELEASE  -
|  1> ! wB97X-D3 SP def2-SVP
|  2> %pal
|  3> nprocs 24
|  4> end
|  5>
|  6> * xyz 0 1
|  7> S 	 -56.9694 	 10.5248 	 -100.852
|  8> C 	 -55.8312 	 11.8305 	 -101.19
|  9> C 	 -54.863 	 11.4099 	 -102.104
| 10> C 	 -55.1791 	 10.1022 	 -102.62
| 11> C 	 -56.3025 	 9.51584 	 -102.069
| 12> H 	 -54.4899 	 9.60166 	 -103.328
| 13> C 	 -53.8587 	 12.2779 	 -102.703
| 14> H 	 -53.1199 	 11.6154 	 -103.119
| 15> H 	 -53.3694 	 12.9081 	 -101.923
| 16> C 	 -54.425 	 13.1867 	 -103.805
| 17> H 	 -54.8276 	 12.6125 	 -104.645
| 18> H 	 -55.3812 	 13.5651 	 -103.538
| 19> C 	 -53.4168 	 14.2916 	 -104.269
| 20> H 	 -53.0503 	 14.6503 	 -103.33
| 21> H 	 -52.5429 	 14.0006 	 -104.829
| 22> H 	 -53.9839 	 15.0122 	 -104.801
| 23> S 	 -58.5424 	 8.11081 	 -102.836
| 24> C 	 -58.5254 	 6.3431 	 -102.946
| 25> C 	 -57.2814 	 5.91983 	 -102.72
| 26> C 	 -56.3343 	 6.93164 	 -102.46
| 27> C 	 -56.8534 	 8.22301 	 -102.414
| 28> H 	 -56.9925 	 4.90915 	 -102.874
| 29> C 	 -54.8916 	 6.59707 	 -102.092
| 30> H 	 -54.205 	 7.48391 	 -102.276
| 31> H 	 -54.5007 	 5.87041 	 -102.938
| 32> C 	 -54.6054 	 6.16149 	 -100.672
| 33> H 	 -53.5267 	 5.96908 	 -100.66
| 34> H 	 -55.1451 	 5.16971 	 -100.404
| 35> C 	 -55.0775 	 7.21721 	 -99.526
| 36> H 	 -54.7421 	 6.9044 	 -98.5526
| 37> H 	 -56.1702 	 7.29875 	 -99.3846
| 38> H 	 -54.8273 	 8.2382 	 -99.7239
| 39> H 	 -55.799 	 12.864 	 -100.919
| 40> H 	 -59.3447 	 5.70271 	 -103.203
| 41> *
| 42>
| 43>                          ****END OF INPUT****

CARTESIAN COORDINATES (ANGSTROEM)
---------------------------------
  S    -56.969400   10.524800  -100.852000
  C    -55.831200   11.830500  -101.190000
  C    -54.863000   11.409900  -102.104000
  C    -55.179100   10.102200  -102.620000
  C    -56.302500    9.515840  -102.069000
  H    -54.489900    9.601660  -103.328000
  C    -53.858700   12.277900  -102.703000
  H    -53.119900   11.615400  -103.119000
  H    -53.369400   12.908100  -101.923000
  C    -54.425000   13.186700  -103.805000
  H    -54.827600   12.612500  -104.645000
  H    -55.381200   13.565100  -103.538000
  C    -53.416800   14.291600  -104.269000
  H    -53.050300   14.650300  -103.330000
  H    -52.542900   14.000600  -104.829000
  H    -53.983900   15.012200  -104.801000
  S    -58.542400    8.110810  -102.836000
  C    -58.525400    6.343100  -102.946000
  C    -57.281400    5.919830  -102.720000
  C    -56.334300    6.931640  -102.460000
  C    -56.853400    8.223010  -102.414000
  H    -56.992500    4.909150  -102.874000
  C    -54.891600    6.597070  -102.092000
  H    -54.205000    7.483910  -102.276000
  H    -54.500700    5.870410  -102.938000
  C    -54.605400    6.161490  -100.672000
  H    -53.526700    5.969080  -100.660000
  H    -55.145100    5.169710  -100.404000
  C    -55.077500    7.217210  -99.526000
  H    -54.742100    6.904400  -98.552600
  H    -56.170200    7.298750  -99.384600
  H    -54.827300    8.238200  -99.723900
  H    -55.799000   12.864000  -100.919000
  H    -59.344700    5.702710  -103.203000

 Total Charge           Charge          ....    0
 Multiplicity           Mult            ....    1
 Number of Electrons    NEL             ....  134
 Basis Dimension        Dim             ....  322

ORBITAL ENERGIES
----------------

  NO   OCC          E(Eh)            E(eV)
   0   2.0000     -88.971914     -2421.0489
   1   2.0000     -88.961762     -2420.7726
   2   2.0000     -10.329941      -281.0920
   3   2.0000     -10.327237      -281.0184
   4   2.0000     -10.315507      -280.6992
   5   2.0000     -10.313268      -280.6383
   6   2.0000     -10.301263      -280.3116
   7   2.0000     -10.300352      -280.2868
   8   2.0000     -10.298888      -280.2470
   9   2.0000     -10.297372      -280.2057
  10   2.0000     -10.296571      -280.1839
  11   2.0000     -10.290853      -280.0283
  12   2.0000     -10.285693      -279.8879
  13   2.0000     -10.285445      -279.8812
  14   2.0000     -10.276295      -279.6322
  15   2.0000     -10.274901      -279.5943
  16   2.0000      -8.086262      -220.0384
  17   2.0000      -8.076556      -219.7743
  18   2.0000      -6.044932      -164.4910
  19   2.0000      -6.040653      -164.3745
  20   2.0000      -6.037019      -164.2756
  21   2.0000      -6.035126      -164.2241
  22   2.0000      -6.030965      -164.1109
  23   2.0000      -6.027312      -164.0115
  24   2.0000      -1.011088       -27.5131
  25   2.0000      -0.988810       -26.9069
  26   2.0000      -0.919566       -25.0227
  27   2.0000      -0.897334       -24.4177
  28   2.0000      -0.873629       -23.7727
  29   2.0000      -0.850171       -23.1343
  30   2.0000      -0.836322       -22.7575
  31   2.0000      -0.816742       -22.2247
  32   2.0000      -0.782862       -21.3028
  33   2.0000      -0.772421       -21.0186
  34   2.0000      -0.714059       -19.4305
  35   2.0000      -0.711935       -19.3727
  36   2.0000      -0.690658       -18.7938
  37   2.0000      -0.661049       -17.9881
  38   2.0000      -0.637674       -17.3520
  39   2.0000      -0.622456       -16.9379
  40   2.0000      -0.594678       -16.1820
  41   2.0000      -0.576587       -15.6897
  42   2.0000      -0.555846       -15.1253
  43   2.0000      -0.542513       -14.7625
  44   2.0000      -0.537644       -14.6300
  45   2.0000      -0.527990       -14.3673
  46   2.0000      -0.518270       -14.1028
  47   2.0000      -0.514828       -14.0092
  48   2.0000      -0.505402       -13.7527
  49   2.0000      -0.500538       -13.6203
  50   2.0000      -0.489504       -13.3201
  51   2.0000      -0.478709       -13.0263
  52   2.0000      -0.468576       -12.7506
  53   2.0000      -0.461961       -12.5706
  54   2.0000      -0.455431       -12.3929
  55   2.0000      -0.453718       -12.3463
  56   2.0000      -0.447775       -12.1846
  57   2.0000      -0.442154       -12.0316
  58   2.0000      -0.437570       -11.9069
  59   2.0000      -0.426521       -11.6062
  60   2.0000      -0.411115       -11.1870
  61   2.0000      -0.408040       -11.1033
  62   2.0000      -0.400650       -10.9022
  63   2.0000      -0.347703        -9.4615
  64   2.0000      -0.331001        -9.0070
  65   2.0000      -0.329144        -8.9565
  66   2.0000      -0.296634        -8.0718
  67   0.0000       0.027572         0.7503
  68   0.0000       0.071934         1.9574
  69   0.0000       0.111076         3.0225
  70   0.0000       0.119605         3.2546
  71   0.0000       0.131590         3.5807

MULLIKEN ATOMIC CHARGES
-----------------------
   0 S :    0.136175
   1 C :   -0.104692
   2 C :   -0.120627
   3 C :    0.024974
   4 C :   -0.150030
   5 H :    0.026134
   6 C :    0.062903
   7 H :    0.018669
   8 H :    0.031533
   9 C :   -0.067087
  10 H :    0.014319
  11 H :    0.006341
  12 C :    0.002569
  13 H :    0.013397
  14 H :    0.036236
  15 H :    0.032435
  16 S :    0.091034
  17 C :   -0.075449
  18 C :   -0.008326
  19 C :   -0.020806
  20 C :   -0.160301
  21 H :    0.005876
  22 C :   -0.010541
  23 H :    0.024741
  24 H :    0.043040
  25 C :   -0.064134
  26 H :    0.039910
  27 H :    0.039669
  28 C :   -0.053610
  29 H :    0.029587
  30 H :    0.034908
  31 H :    0.032632
  32 H :    0.035273
  33 H :    0.053247
Sum of atomic charges:   -0.0000000

LOEWDIN ATOMIC CHARGES
----------------------
   0 S :    0.428023
   1 C :   -0.198969
   2 C :   -0.063412
   3 C :   -0.064261
   4 C :   -0.209353
   5 H :    0.033668
   6 C :   -0.037261
   7 H :    0.029869
   8 H :    0.034138
   9 C :   -0.038904
  10 H :    0.025698
  11 H :    0.019244
  12 C :   -0.054458
  13 H :    0.020787
  14 H :    0.025491
  15 H :    0.024735
  16 S :    0.396890
  17 C :   -0.168429
  18 C :   -0.070982
  19 C :   -0.061637
  20 C :   -0.199843
  21 H :    0.028765
  22 C :   -0.052924
  23 H :    0.032266
  24 H :    0.041205
  25 C :   -0.040845
  26 H :    0.026736
  27 H :    0.029789
  28 C :   -0.068619
  29 H :    0.023560
  30 H :    0.029886
  31 H :    0.019632
  32 H :    0.027604
  33 H :    0.031908

  Mayer bond orders larger than 0.100000
B(  0-S ,  1-C ) :   1.1316 B(  0-S ,  4-C ) :   1.1605 B(  1-C ,  2-C ) :   1.5918
B(  1-C , 32-H ) :   0.9681 B(  2-C ,  3-C ) :   1.2601 B(  2-C ,  6-C ) :   1.0581
B(  3-C ,  4-C ) :   1.5551 B(  3-C ,  5-H ) :   0.9841 B(  4-C , 20-C ) :   1.0369
B(  6-C ,  7-H ) :   0.9299 B(  6-C ,  8-H ) :   0.9320 B(  6-C ,  9-C ) :   1.0609
B(  9-C , 10-H ) :   0.9451 B(  9-C , 11-H ) :   0.9561 B(  9-C , 12-C ) :   1.0629
B( 12-C , 13-H ) :   0.9762 B( 12-C , 14-H ) :   0.9787 B( 12-C , 15-H ) :   0.9748
B( 16-S , 17-C ) :   1.1430 B( 16-S , 20-C ) :   1.1445 B( 17-C , 18-C ) :   1.6034
B( 17-C , 33-H ) :   0.9710 B( 18-C , 19-C ) :   1.2618 B( 18-C , 21-H ) :   0.9927
B( 19-C , 20-C ) :   1.5766 B( 19-C , 22-C ) :   1.0421 B( 22-C , 23-H ) :   0.9355
B( 22-C , 24-H ) :   0.9329 B( 22-C , 25-C ) :   1.0718 B( 25-C , 26-H ) :   0.9561
B( 25-C , 27-H ) :   0.9560 B( 25-C , 28-C ) :   1.0524 B( 28-C , 29-H ) :   0.9773
B( 28-C , 30-H ) :   0.9745 B( 28-C , 31-H ) :   0.9783

Dispersion correction           -0.015358362
FINAL SINGLE POINT ENERGY     -1339.869533972820

DIPOLE MOMENT
-------------
                                X             Y             Z
Electronic contribution:    -21.00797      -6.18350       1.41934
Nuclear contribution   :     21.51074       6.14954      -1.65521
                        -----------------------------------------
Total Dipole Moment    :      0.50276      -0.03396      -0.23587
                        -----------------------------------------
Magnitude (a.u.)       :      0.55638
Magnitude (Debye)      :      1.41420

Rotational constants in cm-1:     0.022340     0.007768     0.007131
Rotational constants in MHz :   669.727849   232.865993   213.769462

                             ****ORCA TERMINATED NORMALLY****
TOTAL RUN TIME: 0 days 0 hours 0 minutes 22 seconds 141 msec
