                         Program Version 4.2.1 -  RELEASE  -
|  1> ! wB97X-D3 SP def2-SVP
|  2> %pal
|  3> nprocs 24
|  4> end
|  5>
|  6> * xyz 0 1
|  7> S 	 -74.7161 	 1.80379 	 -61.5371
|  8> C 	 -75.434 	 2.89573 	 -60.3809
|  9> C 	 -76.1138 	 2.20557 	 -59.3888
| 10> C 	 -76.1717 	 0.810766 	 -59.6732
| 11> C 	 -75.493 	 0.368992 	 -60.7866
| 12> H 	 -76.7134 	 0.0585622 	 -59.1613
| 13> C 	 -76.741 	 2.89065 	 -58.1488
| 14> H 	 -75.993 	 3.46633 	 -57.719
| 15> H 	 -77.0154 	 2.26554 	 -57.347
| 16> C 	 -77.8592 	 3.92343 	 -58.3624
| 17> H 	 -77.5532 	 4.52863 	 -59.2365
| 18> H 	 -78.7753 	 3.45168 	 -58.442
| 19> C 	 -78.0018 	 4.81662 	 -57.0974
| 20> H 	 -78.7989 	 5.56563 	 -57.2121
| 21> H 	 -78.4521 	 4.17245 	 -56.3233
| 22> H 	 -77.1364 	 5.32403 	 -56.6357
| 23> S 	 -75.9057 	 -1.21488 	 -62.957
| 24> C 	 -75.5946 	 -2.92196 	 -62.8795
| 25> C 	 -75.2459 	 -3.31869 	 -61.62
| 26> C 	 -75.1725 	 -2.17628 	 -60.7209
| 27> C 	 -75.5448 	 -0.989328 	 -61.3089
| 28> H 	 -75.0348 	 -4.35542 	 -61.443
| 29> C 	 -74.6577 	 -2.29068 	 -59.3004
| 30> H 	 -75.4322 	 -2.82575 	 -58.706
| 31> H 	 -74.6169 	 -1.31831 	 -58.8432
| 32> C 	 -73.2957 	 -2.90253 	 -59.1812
| 33> H 	 -72.5223 	 -2.2906 	 -59.6742
| 34> H 	 -73.2406 	 -3.86144 	 -59.6234
| 35> C 	 -72.8316 	 -2.91679 	 -57.6894
| 36> H 	 -72.5887 	 -1.99083 	 -57.2361
| 37> H 	 -71.9046 	 -3.38216 	 -57.6964
| 38> H 	 -73.5625 	 -3.50356 	 -57.0435
| 39> H 	 -75.3672 	 3.9161 	 -60.2936
| 40> H 	 -75.643 	 -3.64478 	 -63.7054
| 41> *
| 42>
| 43>                          ****END OF INPUT****

CARTESIAN COORDINATES (ANGSTROEM)
---------------------------------
  S    -74.716100    1.803790  -61.537100
  C    -75.434000    2.895730  -60.380900
  C    -76.113800    2.205570  -59.388800
  C    -76.171700    0.810766  -59.673200
  C    -75.493000    0.368992  -60.786600
  H    -76.713400    0.058562  -59.161300
  C    -76.741000    2.890650  -58.148800
  H    -75.993000    3.466330  -57.719000
  H    -77.015400    2.265540  -57.347000
  C    -77.859200    3.923430  -58.362400
  H    -77.553200    4.528630  -59.236500
  H    -78.775300    3.451680  -58.442000
  C    -78.001800    4.816620  -57.097400
  H    -78.798900    5.565630  -57.212100
  H    -78.452100    4.172450  -56.323300
  H    -77.136400    5.324030  -56.635700
  S    -75.905700   -1.214880  -62.957000
  C    -75.594600   -2.921960  -62.879500
  C    -75.245900   -3.318690  -61.620000
  C    -75.172500   -2.176280  -60.720900
  C    -75.544800   -0.989328  -61.308900
  H    -75.034800   -4.355420  -61.443000
  C    -74.657700   -2.290680  -59.300400
  H    -75.432200   -2.825750  -58.706000
  H    -74.616900   -1.318310  -58.843200
  C    -73.295700   -2.902530  -59.181200
  H    -72.522300   -2.290600  -59.674200
  H    -73.240600   -3.861440  -59.623400
  C    -72.831600   -2.916790  -57.689400
  H    -72.588700   -1.990830  -57.236100
  H    -71.904600   -3.382160  -57.696400
  H    -73.562500   -3.503560  -57.043500
  H    -75.367200    3.916100  -60.293600
  H    -75.643000   -3.644780  -63.705400

 Total Charge           Charge          ....    0
 Multiplicity           Mult            ....    1
 Number of Electrons    NEL             ....  134
 Basis Dimension        Dim             ....  322

ORBITAL ENERGIES
----------------

  NO   OCC          E(Eh)            E(eV)
   0   2.0000     -88.968704     -2420.9615
   1   2.0000     -88.962841     -2420.8020
   2   2.0000     -10.330141      -281.0974
   3   2.0000     -10.321438      -280.8606
   4   2.0000     -10.316525      -280.7269
   5   2.0000     -10.310399      -280.5602
   6   2.0000     -10.303352      -280.3685
   7   2.0000     -10.302373      -280.3418
   8   2.0000     -10.293848      -280.1098
   9   2.0000     -10.289415      -279.9892
  10   2.0000     -10.286832      -279.9189
  11   2.0000     -10.284533      -279.8564
  12   2.0000     -10.283738      -279.8347
  13   2.0000     -10.283565      -279.8300
  14   2.0000     -10.282049      -279.7888
  15   2.0000     -10.272962      -279.5415
  16   2.0000      -8.082319      -219.9311
  17   2.0000      -8.078865      -219.8371
  18   2.0000      -6.041015      -164.3844
  19   2.0000      -6.037331      -164.2841
  20   2.0000      -6.036907      -164.2726
  21   2.0000      -6.033178      -164.1711
  22   2.0000      -6.033007      -164.1665
  23   2.0000      -6.029586      -164.0734
  24   2.0000      -1.009942       -27.4819
  25   2.0000      -0.984886       -26.8001
  26   2.0000      -0.912535       -24.8313
  27   2.0000      -0.910932       -24.7877
  28   2.0000      -0.874653       -23.8005
  29   2.0000      -0.849931       -23.1278
  30   2.0000      -0.843361       -22.9490
  31   2.0000      -0.820221       -22.3194
  32   2.0000      -0.781817       -21.2743
  33   2.0000      -0.772528       -21.0216
  34   2.0000      -0.708596       -19.2819
  35   2.0000      -0.705402       -19.1950
  36   2.0000      -0.699292       -19.0287
  37   2.0000      -0.659437       -17.9442
  38   2.0000      -0.645529       -17.5657
  39   2.0000      -0.618945       -16.8424
  40   2.0000      -0.597225       -16.2513
  41   2.0000      -0.582698       -15.8560
  42   2.0000      -0.568079       -15.4582
  43   2.0000      -0.564040       -15.3483
  44   2.0000      -0.526212       -14.3190
  45   2.0000      -0.521546       -14.1920
  46   2.0000      -0.513361       -13.9693
  47   2.0000      -0.510236       -13.8842
  48   2.0000      -0.507966       -13.8224
  49   2.0000      -0.503322       -13.6961
  50   2.0000      -0.491825       -13.3832
  51   2.0000      -0.477137       -12.9836
  52   2.0000      -0.473977       -12.8976
  53   2.0000      -0.466421       -12.6920
  54   2.0000      -0.464680       -12.6446
  55   2.0000      -0.447010       -12.1637
  56   2.0000      -0.442882       -12.0514
  57   2.0000      -0.438621       -11.9355
  58   2.0000      -0.433352       -11.7921
  59   2.0000      -0.427169       -11.6239
  60   2.0000      -0.424668       -11.5558
  61   2.0000      -0.421776       -11.4771
  62   2.0000      -0.405508       -11.0344
  63   2.0000      -0.350451        -9.5363
  64   2.0000      -0.329492        -8.9659
  65   2.0000      -0.328732        -8.9452
  66   2.0000      -0.295188        -8.0325
  67   0.0000       0.032105         0.8736
  68   0.0000       0.074645         2.0312
  69   0.0000       0.118568         3.2264
  70   0.0000       0.124061         3.3759
  71   0.0000       0.134319         3.6550

MULLIKEN ATOMIC CHARGES
-----------------------
   0 S :    0.120685
   1 C :   -0.082358
   2 C :   -0.064725
   3 C :    0.035061
   4 C :   -0.156129
   5 H :   -0.001788
   6 C :    0.103944
   7 H :    0.002586
   8 H :    0.001715
   9 C :   -0.035704
  10 H :    0.033087
  11 H :    0.022367
  12 C :   -0.097490
  13 H :    0.034079
  14 H :    0.024573
  15 H :    0.043041
  16 S :    0.112664
  17 C :   -0.099054
  18 C :   -0.027844
  19 C :   -0.047369
  20 C :   -0.158496
  21 H :    0.017640
  22 C :    0.082746
  23 H :    0.032415
  24 H :    0.011388
  25 C :   -0.080794
  26 H :    0.033914
  27 H :    0.021040
  28 C :   -0.028347
  29 H :    0.027166
  30 H :    0.011644
  31 H :    0.035391
  32 H :    0.011855
  33 H :    0.061093
Sum of atomic charges:    0.0000000

LOEWDIN ATOMIC CHARGES
----------------------
   0 S :    0.392971
   1 C :   -0.183680
   2 C :   -0.057530
   3 C :   -0.056643
   4 C :   -0.184228
   5 H :    0.025263
   6 C :   -0.027960
   7 H :    0.023993
   8 H :    0.023109
   9 C :   -0.023825
  10 H :    0.024899
  11 H :    0.017077
  12 C :   -0.076109
  13 H :    0.027917
  14 H :    0.026505
  15 H :    0.025744
  16 S :    0.427939
  17 C :   -0.187878
  18 C :   -0.071589
  19 C :   -0.050919
  20 C :   -0.219310
  21 H :    0.030862
  22 C :   -0.037758
  23 H :    0.033868
  24 H :    0.027387
  25 C :   -0.033054
  26 H :    0.031630
  27 H :    0.015326
  28 C :   -0.060582
  29 H :    0.021064
  30 H :    0.017555
  31 H :    0.029718
  32 H :    0.012887
  33 H :    0.035348

  Mayer bond orders larger than 0.100000
B(  0-S ,  1-C ) :   1.1419 B(  0-S ,  4-C ) :   1.1236 B(  1-C ,  2-C ) :   1.6072
B(  1-C , 32-H ) :   0.9732 B(  2-C ,  3-C ) :   1.2422 B(  2-C ,  6-C ) :   1.0096
B(  3-C ,  4-C ) :   1.5786 B(  3-C ,  5-H ) :   1.0001 B(  4-C , 20-C ) :   1.0498
B(  6-C ,  7-H ) :   0.9363 B(  6-C ,  8-H ) :   0.9451 B(  6-C ,  9-C ) :   1.0649
B(  9-C , 10-H ) :   0.9584 B(  9-C , 11-H ) :   0.9567 B(  9-C , 12-C ) :   1.0747
B( 12-C , 13-H ) :   0.9739 B( 12-C , 14-H ) :   0.9747 B( 12-C , 15-H ) :   0.9771
B( 16-S , 17-C ) :   1.1594 B( 16-S , 20-C ) :   1.1349 B( 17-C , 18-C ) :   1.6270
B( 17-C , 33-H ) :   0.9630 B( 18-C , 19-C ) :   1.2172 B( 18-C , 21-H ) :   0.9953
B( 19-C , 20-C ) :   1.6088 B( 19-C , 22-C ) :   1.0464 B( 22-C , 23-H ) :   0.9282
B( 22-C , 24-H ) :   0.9271 B( 22-C , 25-C ) :   1.0750 B( 25-C , 26-H ) :   0.9509
B( 25-C , 27-H ) :   0.9565 B( 25-C , 28-C ) :   1.0884 B( 28-C , 29-H ) :   0.9743
B( 28-C , 30-H ) :   0.9710 B( 28-C , 31-H ) :   0.9745

Dispersion correction           -0.013339010
FINAL SINGLE POINT ENERGY     -1339.868285651171

DIPOLE MOMENT
-------------
                                X             Y             Z
Electronic contribution:      1.03637      -3.41337     -26.98743
Nuclear contribution   :     -1.06717       3.24848      27.61182
                        -----------------------------------------
Total Dipole Moment    :     -0.03080      -0.16489       0.62438
                        -----------------------------------------
Magnitude (a.u.)       :      0.64652
Magnitude (Debye)      :      1.64333

Rotational constants in cm-1:     0.019334     0.007387     0.006081
Rotational constants in MHz :   579.632485   221.456220   182.304407

                             ****ORCA TERMINATED NORMALLY****
TOTAL RUN TIME: 0 days 0 hours 0 minutes 20 seconds 989 msec
