                         Program Version 4.2.1 -  RELEASE  -
|  1> ! wB97X-D3 SP def2-SVP
|  2> %pal
|  3> nprocs 24
|  4> end
|  5>
|  6> * xyz 0 1
|  7> S 	 -82.9756 	 -42.2044 	 -72.9974
|  8> C 	 -83.6201 	 -42.3246 	 -74.5666
|  9> C 	 -82.7413 	 -41.8428 	 -75.5471
| 10> C 	 -81.6136 	 -41.1547 	 -74.8952
| 11> C 	 -81.5066 	 -41.3187 	 -73.4968
| 12> H 	 -80.8637 	 -40.6372 	 -75.537
| 13> C 	 -83.0203 	 -41.8433 	 -77.0395
| 14> H 	 -83.1501 	 -40.7916 	 -77.3974
| 15> H 	 -83.972 	 -42.3379 	 -77.166
| 16> C 	 -81.9425 	 -42.5518 	 -77.8886
| 17> H 	 -82.1587 	 -42.4299 	 -78.9311
| 18> H 	 -81.0845 	 -42.0586 	 -77.6349
| 19> C 	 -81.9751 	 -44.1106 	 -77.674
| 20> H 	 -82.8583 	 -44.4388 	 -78.1512
| 21> H 	 -81.2315 	 -44.6491 	 -78.26
| 22> H 	 -82.0959 	 -44.3901 	 -76.6747
| 23> S 	 -80.9136 	 -40.2845 	 -71.1134
| 24> C 	 -79.2302 	 -40.1639 	 -70.5486
| 25> C 	 -78.359 	 -40.6855 	 -71.4917
| 26> C 	 -78.9713 	 -41.1478 	 -72.6302
| 27> C 	 -80.4186 	 -41.0474 	 -72.5821
| 28> H 	 -77.3359 	 -40.6184 	 -71.2977
| 29> C 	 -78.1928 	 -41.7988 	 -73.7826
| 30> H 	 -77.1036 	 -41.5997 	 -73.6259
| 31> H 	 -78.5841 	 -41.1563 	 -74.5972
| 32> C 	 -78.4939 	 -43.2689 	 -74.1286
| 33> H 	 -79.5372 	 -43.4551 	 -74.3844
| 34> H 	 -78.3026 	 -43.8784 	 -73.3039
| 35> C 	 -77.6293 	 -43.9204 	 -75.2715
| 36> H 	 -77.9502 	 -43.6669 	 -76.2676
| 37> H 	 -77.8042 	 -44.9541 	 -75.2193
| 38> H 	 -76.541 	 -43.7838 	 -75.2598
| 39> H 	 -84.5695 	 -42.7813 	 -74.8214
| 40> H 	 -78.9125 	 -39.8418 	 -69.6117
| 41> *
| 42>
| 43>                          ****END OF INPUT****

CARTESIAN COORDINATES (ANGSTROEM)
---------------------------------
  S    -82.975600  -42.204400  -72.997400
  C    -83.620100  -42.324600  -74.566600
  C    -82.741300  -41.842800  -75.547100
  C    -81.613600  -41.154700  -74.895200
  C    -81.506600  -41.318700  -73.496800
  H    -80.863700  -40.637200  -75.537000
  C    -83.020300  -41.843300  -77.039500
  H    -83.150100  -40.791600  -77.397400
  H    -83.972000  -42.337900  -77.166000
  C    -81.942500  -42.551800  -77.888600
  H    -82.158700  -42.429900  -78.931100
  H    -81.084500  -42.058600  -77.634900
  C    -81.975100  -44.110600  -77.674000
  H    -82.858300  -44.438800  -78.151200
  H    -81.231500  -44.649100  -78.260000
  H    -82.095900  -44.390100  -76.674700
  S    -80.913600  -40.284500  -71.113400
  C    -79.230200  -40.163900  -70.548600
  C    -78.359000  -40.685500  -71.491700
  C    -78.971300  -41.147800  -72.630200
  C    -80.418600  -41.047400  -72.582100
  H    -77.335900  -40.618400  -71.297700
  C    -78.192800  -41.798800  -73.782600
  H    -77.103600  -41.599700  -73.625900
  H    -78.584100  -41.156300  -74.597200
  C    -78.493900  -43.268900  -74.128600
  H    -79.537200  -43.455100  -74.384400
  H    -78.302600  -43.878400  -73.303900
  C    -77.629300  -43.920400  -75.271500
  H    -77.950200  -43.666900  -76.267600
  H    -77.804200  -44.954100  -75.219300
  H    -76.541000  -43.783800  -75.259800
  H    -84.569500  -42.781300  -74.821400
  H    -78.912500  -39.841800  -69.611700

 Total Charge           Charge          ....    0
 Multiplicity           Mult            ....    1
 Number of Electrons    NEL             ....  134
 Basis Dimension        Dim             ....  322

ORBITAL ENERGIES
----------------

  NO   OCC          E(Eh)            E(eV)
   0   2.0000     -88.969587     -2420.9855
   1   2.0000     -88.966248     -2420.8947
   2   2.0000     -10.337866      -281.3076
   3   2.0000     -10.330927      -281.1188
   4   2.0000     -10.315540      -280.7001
   5   2.0000     -10.315346      -280.6948
   6   2.0000     -10.308286      -280.5027
   7   2.0000     -10.306082      -280.4428
   8   2.0000     -10.305158      -280.4176
   9   2.0000     -10.297003      -280.1957
  10   2.0000     -10.295539      -280.1559
  11   2.0000     -10.287942      -279.9491
  12   2.0000     -10.282444      -279.7995
  13   2.0000     -10.282277      -279.7950
  14   2.0000     -10.272163      -279.5198
  15   2.0000     -10.270910      -279.4857
  16   2.0000      -8.083895      -219.9740
  17   2.0000      -8.081202      -219.9007
  18   2.0000      -6.042241      -164.4177
  19   2.0000      -6.039727      -164.3493
  20   2.0000      -6.038242      -164.3089
  21   2.0000      -6.035531      -164.2352
  22   2.0000      -6.035070      -164.2226
  23   2.0000      -6.032050      -164.1404
  24   2.0000      -1.004382       -27.3306
  25   2.0000      -0.982233       -26.7279
  26   2.0000      -0.911933       -24.8150
  27   2.0000      -0.900797       -24.5119
  28   2.0000      -0.875005       -23.8101
  29   2.0000      -0.849562       -23.1178
  30   2.0000      -0.841717       -22.9043
  31   2.0000      -0.815273       -22.1847
  32   2.0000      -0.782845       -21.3023
  33   2.0000      -0.771114       -20.9831
  34   2.0000      -0.718485       -19.5510
  35   2.0000      -0.703176       -19.1344
  36   2.0000      -0.693154       -18.8617
  37   2.0000      -0.666468       -18.1355
  38   2.0000      -0.637026       -17.3343
  39   2.0000      -0.622866       -16.9490
  40   2.0000      -0.589707       -16.0468
  41   2.0000      -0.572969       -15.5913
  42   2.0000      -0.563086       -15.3224
  43   2.0000      -0.550790       -14.9878
  44   2.0000      -0.545583       -14.8461
  45   2.0000      -0.521683       -14.1957
  46   2.0000      -0.517045       -14.0695
  47   2.0000      -0.509950       -13.8764
  48   2.0000      -0.507926       -13.8214
  49   2.0000      -0.493189       -13.4204
  50   2.0000      -0.490934       -13.3590
  51   2.0000      -0.484628       -13.1874
  52   2.0000      -0.471451       -12.8288
  53   2.0000      -0.462867       -12.5953
  54   2.0000      -0.461117       -12.5476
  55   2.0000      -0.447686       -12.1822
  56   2.0000      -0.444796       -12.1035
  57   2.0000      -0.439801       -11.9676
  58   2.0000      -0.431823       -11.7505
  59   2.0000      -0.427548       -11.6342
  60   2.0000      -0.424909       -11.5623
  61   2.0000      -0.416384       -11.3304
  62   2.0000      -0.413749       -11.2587
  63   2.0000      -0.351853        -9.5744
  64   2.0000      -0.333511        -9.0753
  65   2.0000      -0.325395        -8.8545
  66   2.0000      -0.284689        -7.7468
  67   0.0000       0.018573         0.5054
  68   0.0000       0.070471         1.9176
  69   0.0000       0.110245         2.9999
  70   0.0000       0.116080         3.1587
  71   0.0000       0.126179         3.4335

MULLIKEN ATOMIC CHARGES
-----------------------
   0 S :    0.112526
   1 C :   -0.103460
   2 C :   -0.140178
   3 C :    0.010752
   4 C :   -0.136016
   5 H :    0.030783
   6 C :    0.037873
   7 H :    0.049605
   8 H :    0.004078
   9 C :   -0.023923
  10 H :    0.025298
  11 H :    0.008106
  12 C :   -0.020271
  13 H :    0.002149
  14 H :    0.034805
  15 H :    0.030223
  16 S :    0.114130
  17 C :   -0.064963
  18 C :   -0.039491
  19 C :   -0.007228
  20 C :   -0.172349
  21 H :   -0.002220
  22 C :    0.070411
  23 H :    0.026258
  24 H :    0.030001
  25 C :   -0.039556
  26 H :    0.040440
  27 H :    0.015944
  28 C :   -0.044032
  29 H :    0.020365
  30 H :    0.018400
  31 H :    0.029713
  32 H :    0.051886
  33 H :    0.029941
Sum of atomic charges:   -0.0000000

LOEWDIN ATOMIC CHARGES
----------------------
   0 S :    0.413027
   1 C :   -0.212272
   2 C :   -0.068674
   3 C :   -0.067506
   4 C :   -0.197775
   5 H :    0.032045
   6 C :   -0.030856
   7 H :    0.038949
   8 H :    0.023140
   9 C :   -0.024269
  10 H :    0.024114
  11 H :    0.006225
  12 C :   -0.057002
  13 H :    0.020981
  14 H :    0.028741
  15 H :    0.017516
  16 S :    0.425800
  17 C :   -0.167115
  18 C :   -0.066656
  19 C :   -0.048786
  20 C :   -0.215799
  21 H :    0.026140
  22 C :   -0.035000
  23 H :    0.033543
  24 H :    0.036168
  25 C :   -0.031880
  26 H :    0.031660
  27 H :    0.016847
  28 C :   -0.063000
  29 H :    0.019787
  30 H :    0.021802
  31 H :    0.024511
  32 H :    0.030269
  33 H :    0.015324

  Mayer bond orders larger than 0.100000
B(  0-S ,  1-C ) :   1.1608 B(  0-S ,  4-C ) :   1.1401 B(  1-C ,  2-C ) :   1.5867
B(  1-C , 32-H ) :   0.9627 B(  2-C ,  3-C ) :   1.2541 B(  2-C ,  6-C ) :   1.0327
B(  3-C ,  4-C ) :   1.5505 B(  3-C ,  5-H ) :   0.9836 B(  4-C , 20-C ) :   1.0654
B(  6-C ,  7-H ) :   0.9421 B(  6-C ,  8-H ) :   0.9417 B(  6-C ,  9-C ) :   1.0638
B(  9-C , 10-H ) :   0.9580 B(  9-C , 11-H ) :   0.9636 B(  9-C , 12-C ) :   1.0630
B( 12-C , 13-H ) :   0.9693 B( 12-C , 14-H ) :   0.9753 B( 12-C , 15-H ) :   0.9820
B( 16-S , 17-C ) :   1.1724 B( 16-S , 20-C ) :   1.1772 B( 17-C , 18-C ) :   1.5519
B( 17-C , 20-C ) :   0.1253 B( 17-C , 33-H ) :   0.9747 B( 18-C , 19-C ) :   1.3144
B( 18-C , 21-H ) :   1.0014 B( 19-C , 20-C ) :   1.4832 B( 19-C , 22-C ) :   1.0227
B( 22-C , 23-H ) :   0.9389 B( 22-C , 24-H ) :   0.9280 B( 22-C , 25-C ) :   1.0678
B( 25-C , 26-H ) :   0.9507 B( 25-C , 27-H ) :   0.9590 B( 25-C , 28-C ) :   1.0811
B( 28-C , 29-H ) :   0.9770 B( 28-C , 30-H ) :   0.9744 B( 28-C , 31-H ) :   0.9770

Dispersion correction           -0.014947554
FINAL SINGLE POINT ENERGY     -1339.862692649182

DIPOLE MOMENT
-------------
                                X             Y             Z
Electronic contribution:    -10.87123      13.76501      26.23629
Nuclear contribution   :     11.18935     -13.94509     -26.77202
                        -----------------------------------------
Total Dipole Moment    :      0.31812      -0.18008      -0.53573
                        -----------------------------------------
Magnitude (a.u.)       :      0.64857
Magnitude (Debye)      :      1.64853

Rotational constants in cm-1:     0.018631     0.009796     0.007096
Rotational constants in MHz :   558.554325   293.669901   212.740184

                             ****ORCA TERMINATED NORMALLY****
TOTAL RUN TIME: 0 days 0 hours 0 minutes 22 seconds 436 msec
