                         Program Version 4.2.1 -  RELEASE  -
|  1> ! wB97X-D3 SP def2-SVP
|  2> %pal
|  3> nprocs 24
|  4> end
|  5>
|  6> * xyz 0 1
|  7> S 	 -42.2527 	 -50.999 	 -70.6452
|  8> C 	 -42.4471 	 -52.6539 	 -71.2371
|  9> C 	 -41.3473 	 -53.4587 	 -71.0045
| 10> C 	 -40.3294 	 -52.7373 	 -70.3243
| 11> C 	 -40.6291 	 -51.3906 	 -70.0881
| 12> H 	 -39.4281 	 -53.2013 	 -69.9854
| 13> C 	 -41.1933 	 -54.9899 	 -71.2241
| 14> H 	 -40.6515 	 -55.2117 	 -70.2396
| 15> H 	 -40.5527 	 -55.2386 	 -72.0414
| 16> C 	 -42.4312 	 -55.7911 	 -71.1205
| 17> H 	 -43.09 	 -55.5518 	 -71.926
| 18> H 	 -42.0874 	 -56.7841 	 -71.3427
| 19> C 	 -43.0954 	 -55.5866 	 -69.773
| 20> H 	 -43.5048 	 -54.5507 	 -69.6698
| 21> H 	 -43.8158 	 -56.4188 	 -69.7286
| 22> H 	 -42.4435 	 -55.81 	 -68.8811
| 23> S 	 -39.4212 	 -50.348 	 -67.9013
| 24> C 	 -38.2937 	 -49.0308 	 -68.1714
| 25> C 	 -38.3191 	 -48.5323 	 -69.4911
| 26> C 	 -39.1285 	 -49.342 	 -70.3173
| 27> C 	 -39.7429 	 -50.3762 	 -69.6179
| 28> H 	 -37.697 	 -47.5716 	 -69.6584
| 29> C 	 -39.2394 	 -49.126 	 -71.8157
| 30> H 	 -39.9951 	 -49.813 	 -72.1731
| 31> H 	 -38.2559 	 -49.4868 	 -72.2181
| 32> C 	 -39.3634 	 -47.6283 	 -72.328
| 33> H 	 -38.4294 	 -47.208 	 -71.9545
| 34> H 	 -40.155 	 -47.1857 	 -71.7041
| 35> C 	 -39.5718 	 -47.5395 	 -73.9256
| 36> H 	 -39.4805 	 -46.5171 	 -74.2858
| 37> H 	 -40.5748 	 -47.8062 	 -74.2128
| 38> H 	 -38.9283 	 -48.1321 	 -74.4881
| 39> H 	 -43.3185 	 -52.9521 	 -71.6898
| 40> H 	 -37.7441 	 -48.4748 	 -67.3861
| 41> *
| 42>
| 43>                          ****END OF INPUT****

CARTESIAN COORDINATES (ANGSTROEM)
---------------------------------
  S    -42.252700  -50.999000  -70.645200
  C    -42.447100  -52.653900  -71.237100
  C    -41.347300  -53.458700  -71.004500
  C    -40.329400  -52.737300  -70.324300
  C    -40.629100  -51.390600  -70.088100
  H    -39.428100  -53.201300  -69.985400
  C    -41.193300  -54.989900  -71.224100
  H    -40.651500  -55.211700  -70.239600
  H    -40.552700  -55.238600  -72.041400
  C    -42.431200  -55.791100  -71.120500
  H    -43.090000  -55.551800  -71.926000
  H    -42.087400  -56.784100  -71.342700
  C    -43.095400  -55.586600  -69.773000
  H    -43.504800  -54.550700  -69.669800
  H    -43.815800  -56.418800  -69.728600
  H    -42.443500  -55.810000  -68.881100
  S    -39.421200  -50.348000  -67.901300
  C    -38.293700  -49.030800  -68.171400
  C    -38.319100  -48.532300  -69.491100
  C    -39.128500  -49.342000  -70.317300
  C    -39.742900  -50.376200  -69.617900
  H    -37.697000  -47.571600  -69.658400
  C    -39.239400  -49.126000  -71.815700
  H    -39.995100  -49.813000  -72.173100
  H    -38.255900  -49.486800  -72.218100
  C    -39.363400  -47.628300  -72.328000
  H    -38.429400  -47.208000  -71.954500
  H    -40.155000  -47.185700  -71.704100
  C    -39.571800  -47.539500  -73.925600
  H    -39.480500  -46.517100  -74.285800
  H    -40.574800  -47.806200  -74.212800
  H    -38.928300  -48.132100  -74.488100
  H    -43.318500  -52.952100  -71.689800
  H    -37.744100  -48.474800  -67.386100

 Total Charge           Charge          ....    0
 Multiplicity           Mult            ....    1
 Number of Electrons    NEL             ....  134
 Basis Dimension        Dim             ....  322

ORBITAL ENERGIES
----------------

  NO   OCC          E(Eh)            E(eV)
   0   2.0000     -88.967515     -2420.9291
   1   2.0000     -88.966684     -2420.9065
   2   2.0000     -10.325321      -280.9663
   3   2.0000     -10.318975      -280.7936
   4   2.0000     -10.318663      -280.7851
   5   2.0000     -10.309115      -280.5253
   6   2.0000     -10.302434      -280.3435
   7   2.0000     -10.300530      -280.2917
   8   2.0000     -10.299954      -280.2760
   9   2.0000     -10.296483      -280.1815
  10   2.0000     -10.292674      -280.0779
  11   2.0000     -10.291449      -280.0446
  12   2.0000     -10.289337      -279.9871
  13   2.0000     -10.282157      -279.7917
  14   2.0000     -10.279426      -279.7174
  15   2.0000     -10.278887      -279.7027
  16   2.0000      -8.082010      -219.9227
  17   2.0000      -8.080664      -219.8860
  18   2.0000      -6.040334      -164.3658
  19   2.0000      -6.039079      -164.3317
  20   2.0000      -6.036648      -164.2656
  21   2.0000      -6.035271      -164.2281
  22   2.0000      -6.032887      -164.1632
  23   2.0000      -6.031586      -164.1278
  24   2.0000      -1.004021       -27.3208
  25   2.0000      -0.979512       -26.6539
  26   2.0000      -0.920627       -25.0515
  27   2.0000      -0.895857       -24.3775
  28   2.0000      -0.866380       -23.5754
  29   2.0000      -0.848036       -23.0762
  30   2.0000      -0.843639       -22.9566
  31   2.0000      -0.804110       -21.8809
  32   2.0000      -0.783307       -21.3149
  33   2.0000      -0.772389       -21.0178
  34   2.0000      -0.710255       -19.3270
  35   2.0000      -0.704119       -19.1601
  36   2.0000      -0.695367       -18.9219
  37   2.0000      -0.651084       -17.7169
  38   2.0000      -0.642104       -17.4725
  39   2.0000      -0.607275       -16.5248
  40   2.0000      -0.587834       -15.9958
  41   2.0000      -0.574226       -15.6255
  42   2.0000      -0.563417       -15.3314
  43   2.0000      -0.555988       -15.1292
  44   2.0000      -0.539006       -14.6671
  45   2.0000      -0.516794       -14.0627
  46   2.0000      -0.513191       -13.9646
  47   2.0000      -0.506830       -13.7915
  48   2.0000      -0.502044       -13.6613
  49   2.0000      -0.488929       -13.3044
  50   2.0000      -0.487094       -13.2545
  51   2.0000      -0.475287       -12.9332
  52   2.0000      -0.470668       -12.8075
  53   2.0000      -0.468735       -12.7549
  54   2.0000      -0.458051       -12.4642
  55   2.0000      -0.447081       -12.1657
  56   2.0000      -0.442324       -12.0362
  57   2.0000      -0.435527       -11.8513
  58   2.0000      -0.427257       -11.6262
  59   2.0000      -0.424325       -11.5465
  60   2.0000      -0.423789       -11.5319
  61   2.0000      -0.421040       -11.4571
  62   2.0000      -0.411548       -11.1988
  63   2.0000      -0.334711        -9.1079
  64   2.0000      -0.331629        -9.0241
  65   2.0000      -0.321900        -8.7594
  66   2.0000      -0.297878        -8.1057
  67   0.0000       0.038584         1.0499
  68   0.0000       0.057612         1.5677
  69   0.0000       0.106416         2.8957
  70   0.0000       0.120521         3.2796
  71   0.0000       0.122656         3.3376

MULLIKEN ATOMIC CHARGES
-----------------------
   0 S :    0.115971
   1 C :   -0.116684
   2 C :   -0.075960
   3 C :    0.048413
   4 C :   -0.193212
   5 H :    0.004677
   6 C :    0.037875
   7 H :    0.031207
   8 H :    0.042281
   9 C :   -0.034396
  10 H :    0.021459
  11 H :    0.019766
  12 C :   -0.079559
  13 H :    0.064391
  14 H :    0.034495
  15 H :    0.036346
  16 S :    0.127678
  17 C :   -0.114297
  18 C :   -0.093798
  19 C :    0.001703
  20 C :   -0.185479
  21 H :    0.059979
  22 C :    0.058830
  23 H :    0.024363
  24 H :    0.038078
  25 C :   -0.099280
  26 H :    0.031394
  27 H :    0.042083
  28 C :   -0.006732
  29 H :    0.031438
  30 H :    0.029567
  31 H :    0.020557
  32 H :    0.014477
  33 H :    0.062372
Sum of atomic charges:    0.0000000

LOEWDIN ATOMIC CHARGES
----------------------
   0 S :    0.400952
   1 C :   -0.181588
   2 C :   -0.061876
   3 C :   -0.051292
   4 C :   -0.199871
   5 H :    0.027594
   6 C :   -0.030365
   7 H :    0.040302
   8 H :    0.026883
   9 C :   -0.047255
  10 H :    0.020250
  11 H :    0.026789
  12 C :   -0.070592
  13 H :    0.036056
  14 H :    0.028775
  15 H :    0.030581
  16 S :    0.414829
  17 C :   -0.193659
  18 C :   -0.086966
  19 C :   -0.054687
  20 C :   -0.214957
  21 H :    0.051161
  22 C :   -0.035012
  23 H :    0.019633
  24 H :    0.037278
  25 C :   -0.034353
  26 H :    0.019937
  27 H :    0.026642
  28 C :   -0.055510
  29 H :    0.028407
  30 H :    0.027404
  31 H :    0.017193
  32 H :    0.005168
  33 H :    0.032148

  Mayer bond orders larger than 0.100000
B(  0-S ,  1-C ) :   1.1397 B(  0-S ,  4-C ) :   1.1445 B(  1-C ,  2-C ) :   1.6068
B(  1-C , 32-H ) :   0.9756 B(  2-C ,  3-C ) :   1.2633 B(  2-C ,  6-C ) :   0.9724
B(  3-C ,  4-C ) :   1.5740 B(  3-C ,  5-H ) :   0.9934 B(  4-C , 20-C ) :   1.0308
B(  6-C ,  7-H ) :   0.9529 B(  6-C ,  8-H ) :   0.9395 B(  6-C ,  9-C ) :   1.0925
B(  9-C , 10-H ) :   0.9420 B(  9-C , 11-H ) :   0.9474 B(  9-C , 12-C ) :   1.0792
B( 12-C , 13-H ) :   0.9684 B( 12-C , 14-H ) :   0.9728 B( 12-C , 15-H ) :   0.9727
B( 16-S , 17-C ) :   1.1638 B( 16-S , 20-C ) :   1.1486 B( 17-C , 18-C ) :   1.6201
B( 17-C , 20-C ) :   0.1078 B( 17-C , 33-H ) :   0.9597 B( 18-C , 19-C ) :   1.2299
B( 18-C , 21-H ) :   0.9736 B( 19-C , 20-C ) :   1.5890 B( 19-C , 22-C ) :   1.0461
B( 22-C , 23-H ) :   0.9322 B( 22-C , 24-H ) :   0.9331 B( 22-C , 25-C ) :   1.0370
B( 25-C , 26-H ) :   0.9558 B( 25-C , 27-H ) :   0.9686 B( 25-C , 28-C ) :   1.0629
B( 28-C , 29-H ) :   0.9779 B( 28-C , 30-H ) :   0.9773 B( 28-C , 31-H ) :   0.9782

Dispersion correction           -0.014300246
FINAL SINGLE POINT ENERGY     -1339.862501585828

DIPOLE MOMENT
-------------
                                X             Y             Z
Electronic contribution:      1.19930       6.46638      14.91691
Nuclear contribution   :     -1.03977      -6.67902     -15.27730
                        -----------------------------------------
Total Dipole Moment    :      0.15953      -0.21264      -0.36040
                        -----------------------------------------
Magnitude (a.u.)       :      0.44783
Magnitude (Debye)      :      1.13828

Rotational constants in cm-1:     0.020887     0.007878     0.006366
Rotational constants in MHz :   626.190454   236.182731   190.860198

                             ****ORCA TERMINATED NORMALLY****
TOTAL RUN TIME: 0 days 0 hours 0 minutes 21 seconds 175 msec
