                         Program Version 4.2.1 -  RELEASE  -
|  1> ! wB97X-D3 SP def2-SVP
|  2> %pal
|  3> nprocs 24
|  4> end
|  5>
|  6> * xyz 0 1
|  7> S 	 -85.9968 	 0.161737 	 4.84595
|  8> C 	 -84.8192 	 0.0158494 	 6.05207
|  9> C 	 -83.5699 	 0.457458 	 5.54554
| 10> C 	 -83.5622 	 0.814286 	 4.15405
| 11> C 	 -84.8354 	 0.699935 	 3.67433
| 12> H 	 -82.8096 	 1.22155 	 3.57626
| 13> C 	 -82.34 	 0.730719 	 6.38392
| 14> H 	 -81.5212 	 0.256203 	 5.921
| 15> H 	 -82.4386 	 0.264995 	 7.34232
| 16> C 	 -81.9243 	 2.18351 	 6.61434
| 17> H 	 -81.0137 	 2.20726 	 7.04543
| 18> H 	 -81.8283 	 2.52571 	 5.64943
| 19> C 	 -82.8803 	 3.011 	 7.55534
| 20> H 	 -83.0228 	 2.59705 	 8.54285
| 21> H 	 -82.4612 	 4.01283 	 7.72293
| 22> H 	 -83.9219 	 3.11234 	 7.17562
| 23> S 	 -86.674 	 1.93132 	 2.07224
| 24> C 	 -86.6163 	 1.68867 	 0.39601
| 25> C 	 -85.5199 	 0.990809 	 -0.016625
| 26> C 	 -84.699 	 0.567635 	 1.08325
| 27> C 	 -85.2464 	 0.937649 	 2.30442
| 28> H 	 -85.3975 	 0.818673 	 -1.06752
| 29> C 	 -83.5547 	 -0.342335 	 0.789293
| 30> H 	 -82.9414 	 -0.643021 	 1.64362
| 31> H 	 -82.9009 	 0.167725 	 0.0768096
| 32> C 	 -83.881 	 -1.81074 	 0.401059
| 33> H 	 -84.5187 	 -1.78433 	 -0.476049
| 34> H 	 -84.5851 	 -2.29178 	 1.09104
| 35> C 	 -82.6334 	 -2.59505 	 0.0237074
| 36> H 	 -81.9573 	 -2.15723 	 -0.700419
| 37> H 	 -82.9659 	 -3.52404 	 -0.521545
| 38> H 	 -82.1831 	 -2.92542 	 0.967338
| 39> H 	 -84.9961 	 -0.295763 	 7.11549
| 40> H 	 -87.3198 	 2.23159 	 -0.233281
| 41> *
| 42>
| 43>                          ****END OF INPUT****

CARTESIAN COORDINATES (ANGSTROEM)
---------------------------------
  S    -85.996800    0.161737    4.845950
  C    -84.819200    0.015849    6.052070
  C    -83.569900    0.457458    5.545540
  C    -83.562200    0.814286    4.154050
  C    -84.835400    0.699935    3.674330
  H    -82.809600    1.221550    3.576260
  C    -82.340000    0.730719    6.383920
  H    -81.521200    0.256203    5.921000
  H    -82.438600    0.264995    7.342320
  C    -81.924300    2.183510    6.614340
  H    -81.013700    2.207260    7.045430
  H    -81.828300    2.525710    5.649430
  C    -82.880300    3.011000    7.555340
  H    -83.022800    2.597050    8.542850
  H    -82.461200    4.012830    7.722930
  H    -83.921900    3.112340    7.175620
  S    -86.674000    1.931320    2.072240
  C    -86.616300    1.688670    0.396010
  C    -85.519900    0.990809   -0.016625
  C    -84.699000    0.567635    1.083250
  C    -85.246400    0.937649    2.304420
  H    -85.397500    0.818673   -1.067520
  C    -83.554700   -0.342335    0.789293
  H    -82.941400   -0.643021    1.643620
  H    -82.900900    0.167725    0.076810
  C    -83.881000   -1.810740    0.401059
  H    -84.518700   -1.784330   -0.476049
  H    -84.585100   -2.291780    1.091040
  C    -82.633400   -2.595050    0.023707
  H    -81.957300   -2.157230   -0.700419
  H    -82.965900   -3.524040   -0.521545
  H    -82.183100   -2.925420    0.967338
  H    -84.996100   -0.295763    7.115490
  H    -87.319800    2.231590   -0.233281

 Total Charge           Charge          ....    0
 Multiplicity           Mult            ....    1
 Number of Electrons    NEL             ....  134
 Basis Dimension        Dim             ....  322

ORBITAL ENERGIES
----------------

  NO   OCC          E(Eh)            E(eV)
   0   2.0000     -88.966932     -2420.9133
   1   2.0000     -88.961921     -2420.7769
   2   2.0000     -10.323976      -280.9297
   3   2.0000     -10.323753      -280.9236
   4   2.0000     -10.315390      -280.6960
   5   2.0000     -10.310269      -280.5567
   6   2.0000     -10.303305      -280.3672
   7   2.0000     -10.301817      -280.3267
   8   2.0000     -10.289626      -279.9950
   9   2.0000     -10.288755      -279.9713
  10   2.0000     -10.287237      -279.9299
  11   2.0000     -10.283978      -279.8413
  12   2.0000     -10.282194      -279.7927
  13   2.0000     -10.277960      -279.6775
  14   2.0000     -10.277330      -279.6604
  15   2.0000     -10.272831      -279.5380
  16   2.0000      -8.082788      -219.9438
  17   2.0000      -8.078069      -219.8154
  18   2.0000      -6.041198      -164.3894
  19   2.0000      -6.037006      -164.2753
  20   2.0000      -6.036376      -164.2581
  21   2.0000      -6.033722      -164.1859
  22   2.0000      -6.032382      -164.1495
  23   2.0000      -6.028964      -164.0564
  24   2.0000      -1.013275       -27.5726
  25   2.0000      -0.990223       -26.9453
  26   2.0000      -0.911320       -24.7983
  27   2.0000      -0.910148       -24.7664
  28   2.0000      -0.871700       -23.7202
  29   2.0000      -0.855269       -23.2731
  30   2.0000      -0.847828       -23.0706
  31   2.0000      -0.812396       -22.1064
  32   2.0000      -0.782396       -21.2901
  33   2.0000      -0.770701       -20.9718
  34   2.0000      -0.712589       -19.3905
  35   2.0000      -0.699393       -19.0314
  36   2.0000      -0.690068       -18.7777
  37   2.0000      -0.662873       -18.0377
  38   2.0000      -0.644967       -17.5504
  39   2.0000      -0.624859       -17.0033
  40   2.0000      -0.605096       -16.4655
  41   2.0000      -0.566992       -15.4286
  42   2.0000      -0.560444       -15.2505
  43   2.0000      -0.549041       -14.9402
  44   2.0000      -0.545738       -14.8503
  45   2.0000      -0.523590       -14.2476
  46   2.0000      -0.514490       -14.0000
  47   2.0000      -0.512968       -13.9586
  48   2.0000      -0.503294       -13.6953
  49   2.0000      -0.498337       -13.5604
  50   2.0000      -0.491764       -13.3816
  51   2.0000      -0.485336       -13.2067
  52   2.0000      -0.470783       -12.8107
  53   2.0000      -0.461436       -12.5563
  54   2.0000      -0.457324       -12.4444
  55   2.0000      -0.453795       -12.3484
  56   2.0000      -0.449352       -12.2275
  57   2.0000      -0.438227       -11.9248
  58   2.0000      -0.435245       -11.8436
  59   2.0000      -0.426228       -11.5982
  60   2.0000      -0.420028       -11.4296
  61   2.0000      -0.415486       -11.3059
  62   2.0000      -0.397522       -10.8171
  63   2.0000      -0.353462        -9.6182
  64   2.0000      -0.330302        -8.9880
  65   2.0000      -0.328758        -8.9460
  66   2.0000      -0.287274        -7.8171
  67   0.0000       0.035003         0.9525
  68   0.0000       0.075941         2.0665
  69   0.0000       0.115634         3.1466
  70   0.0000       0.124773         3.3952
  71   0.0000       0.134989         3.6732

MULLIKEN ATOMIC CHARGES
-----------------------
   0 S :    0.128743
   1 C :   -0.130683
   2 C :   -0.103595
   3 C :    0.045856
   4 C :   -0.137598
   5 H :   -0.005133
   6 C :    0.075265
   7 H :    0.010837
   8 H :   -0.002783
   9 C :    0.021815
  10 H :    0.003494
  11 H :    0.000732
  12 C :   -0.075827
  13 H :    0.020936
  14 H :    0.034586
  15 H :    0.044500
  16 S :    0.105209
  17 C :   -0.090699
  18 C :   -0.038542
  19 C :    0.007290
  20 C :   -0.168449
  21 H :    0.015342
  22 C :    0.034991
  23 H :    0.016160
  24 H :    0.030326
  25 C :   -0.074816
  26 H :    0.003111
  27 H :    0.039095
  28 C :   -0.054835
  29 H :    0.038520
  30 H :    0.034681
  31 H :    0.042949
  32 H :    0.069269
  33 H :    0.059255
Sum of atomic charges:   -0.0000000

LOEWDIN ATOMIC CHARGES
----------------------
   0 S :    0.438888
   1 C :   -0.234540
   2 C :   -0.056165
   3 C :   -0.053219
   4 C :   -0.194089
   5 H :    0.023753
   6 C :   -0.029669
   7 H :    0.025011
   8 H :    0.020175
   9 C :   -0.018461
  10 H :    0.012387
  11 H :    0.012921
  12 C :   -0.068185
  13 H :    0.021055
  14 H :    0.027222
  15 H :    0.030427
  16 S :    0.419350
  17 C :   -0.197855
  18 C :   -0.070436
  19 C :   -0.056386
  20 C :   -0.197628
  21 H :    0.030988
  22 C :   -0.041207
  23 H :    0.030168
  24 H :    0.032442
  25 C :   -0.042448
  26 H :    0.012356
  27 H :    0.031925
  28 C :   -0.068693
  29 H :    0.026786
  30 H :    0.035274
  31 H :    0.027698
  32 H :    0.041929
  33 H :    0.028226

  Mayer bond orders larger than 0.100000
B(  0-S ,  1-C ) :   1.1448 B(  0-S ,  4-C ) :   1.1747 B(  1-C ,  2-C ) :   1.5813
B(  1-C , 32-H ) :   0.9641 B(  2-C ,  3-C ) :   1.2268 B(  2-C ,  6-C ) :   1.0445
B(  3-C ,  4-C ) :   1.5608 B(  3-C ,  5-H ) :   1.0116 B(  4-C , 20-C ) :   1.0274
B(  6-C ,  7-H ) :   0.9291 B(  6-C ,  8-H ) :   0.9372 B(  6-C ,  9-C ) :   1.0832
B(  9-C , 10-H ) :   0.9490 B(  9-C , 11-H ) :   0.9529 B(  9-C , 12-C ) :   1.0682
B( 12-C , 13-H ) :   0.9757 B( 12-C , 14-H ) :   0.9766 B( 12-C , 15-H ) :   0.9793
B( 16-S , 17-C ) :   1.1668 B( 16-S , 20-C ) :   1.1495 B( 17-C , 18-C ) :   1.6079
B( 17-C , 33-H ) :   0.9651 B( 18-C , 19-C ) :   1.2173 B( 18-C , 21-H ) :   0.9988
B( 19-C , 20-C ) :   1.5936 B( 19-C , 22-C ) :   1.0618 B( 22-C , 23-H ) :   0.9423
B( 22-C , 24-H ) :   0.9305 B( 22-C , 25-C ) :   1.0478 B( 25-C , 26-H ) :   0.9533
B( 25-C , 27-H ) :   0.9541 B( 25-C , 28-C ) :   1.0803 B( 28-C , 29-H ) :   0.9736
B( 28-C , 30-H ) :   0.9716 B( 28-C , 31-H ) :   0.9763

Dispersion correction           -0.014093250
FINAL SINGLE POINT ENERGY     -1339.869516925504

DIPOLE MOMENT
-------------
                                X             Y             Z
Electronic contribution:    -21.28180       5.37794      -1.75327
Nuclear contribution   :     21.76948      -5.45907       1.58627
                        -----------------------------------------
Total Dipole Moment    :      0.48768      -0.08113      -0.16700
                        -----------------------------------------
Magnitude (a.u.)       :      0.52183
Magnitude (Debye)      :      1.32638

Rotational constants in cm-1:     0.018712     0.008420     0.006915
Rotational constants in MHz :   560.976305   252.413578   207.304390

                             ****ORCA TERMINATED NORMALLY****
TOTAL RUN TIME: 0 days 0 hours 0 minutes 20 seconds 251 msec
