                         Program Version 4.2.1 -  RELEASE  -
|  1> ! wB97X-D3 SP def2-SVP
|  2> %pal
|  3> nprocs 24
|  4> end
|  5>
|  6> * xyz 0 1
|  7> S 	 -120.048 	 66.0866 	 -65.4819
|  8> C 	 -120.635 	 64.4315 	 -65.9671
|  9> C 	 -120.726 	 63.5655 	 -64.8594
| 10> C 	 -120.383 	 64.3066 	 -63.689
| 11> C 	 -119.947 	 65.5883 	 -63.8042
| 12> H 	 -120.394 	 63.9753 	 -62.6904
| 13> C 	 -121.124 	 62.1504 	 -64.7686
| 14> H 	 -121.607 	 61.8298 	 -65.6525
| 15> H 	 -121.974 	 62.178 	 -64.0948
| 16> C 	 -120.02 	 61.0944 	 -64.6024
| 17> H 	 -119.349 	 61.3166 	 -65.4655
| 18> H 	 -119.477 	 61.2038 	 -63.7051
| 19> C 	 -120.501 	 59.6419 	 -64.6733
| 20> H 	 -119.625 	 59.0177 	 -64.5523
| 21> H 	 -121.112 	 59.4985 	 -63.818
| 22> H 	 -120.996 	 59.4741 	 -65.6194
| 23> S 	 -117.747 	 66.7732 	 -62.4211
| 24> C 	 -118.13 	 67.588 	 -60.8835
| 25> C 	 -119.489 	 67.6211 	 -60.6898
| 26> C 	 -120.263 	 66.9034 	 -61.6309
| 27> C 	 -119.528 	 66.4179 	 -62.6654
| 28> H 	 -119.885 	 68.1472 	 -59.7849
| 29> C 	 -121.744 	 66.7722 	 -61.4456
| 30> H 	 -122.091 	 66.4667 	 -62.4533
| 31> H 	 -122.078 	 67.7962 	 -61.1682
| 32> C 	 -122.322 	 65.6742 	 -60.5347
| 33> H 	 -122.287 	 64.7307 	 -60.9877
| 34> H 	 -123.393 	 65.9335 	 -60.4874
| 35> C 	 -121.692 	 65.572 	 -59.1503
| 36> H 	 -121.598 	 66.506 	 -58.6839
| 37> H 	 -120.77 	 65.105 	 -59.3102
| 38> H 	 -122.237 	 64.9142 	 -58.476
| 39> H 	 -121.06 	 64.1535 	 -66.9325
| 40> H 	 -117.377 	 67.9928 	 -60.2475
| 41> *
| 42>
| 43>                          ****END OF INPUT****

CARTESIAN COORDINATES (ANGSTROEM)
---------------------------------
  S    -120.048000   66.086600  -65.481900
  C    -120.635000   64.431500  -65.967100
  C    -120.726000   63.565500  -64.859400
  C    -120.383000   64.306600  -63.689000
  C    -119.947000   65.588300  -63.804200
  H    -120.394000   63.975300  -62.690400
  C    -121.124000   62.150400  -64.768600
  H    -121.607000   61.829800  -65.652500
  H    -121.974000   62.178000  -64.094800
  C    -120.020000   61.094400  -64.602400
  H    -119.349000   61.316600  -65.465500
  H    -119.477000   61.203800  -63.705100
  C    -120.501000   59.641900  -64.673300
  H    -119.625000   59.017700  -64.552300
  H    -121.112000   59.498500  -63.818000
  H    -120.996000   59.474100  -65.619400
  S    -117.747000   66.773200  -62.421100
  C    -118.130000   67.588000  -60.883500
  C    -119.489000   67.621100  -60.689800
  C    -120.263000   66.903400  -61.630900
  C    -119.528000   66.417900  -62.665400
  H    -119.885000   68.147200  -59.784900
  C    -121.744000   66.772200  -61.445600
  H    -122.091000   66.466700  -62.453300
  H    -122.078000   67.796200  -61.168200
  C    -122.322000   65.674200  -60.534700
  H    -122.287000   64.730700  -60.987700
  H    -123.393000   65.933500  -60.487400
  C    -121.692000   65.572000  -59.150300
  H    -121.598000   66.506000  -58.683900
  H    -120.770000   65.105000  -59.310200
  H    -122.237000   64.914200  -58.476000
  H    -121.060000   64.153500  -66.932500
  H    -117.377000   67.992800  -60.247500

 Total Charge           Charge          ....    0
 Multiplicity           Mult            ....    1
 Number of Electrons    NEL             ....  134
 Basis Dimension        Dim             ....  322

ORBITAL ENERGIES
----------------

  NO   OCC          E(Eh)            E(eV)
   0   2.0000     -88.967415     -2420.9264
   1   2.0000     -88.961794     -2420.7735
   2   2.0000     -10.329146      -281.0704
   3   2.0000     -10.326141      -280.9886
   4   2.0000     -10.324334      -280.9394
   5   2.0000     -10.319627      -280.8113
   6   2.0000     -10.304818      -280.4083
   7   2.0000     -10.298848      -280.2459
   8   2.0000     -10.294443      -280.1260
   9   2.0000     -10.292525      -280.0739
  10   2.0000     -10.288277      -279.9583
  11   2.0000     -10.287271      -279.9309
  12   2.0000     -10.285673      -279.8874
  13   2.0000     -10.283477      -279.8276
  14   2.0000     -10.276958      -279.6502
  15   2.0000     -10.266972      -279.3785
  16   2.0000      -8.080764      -219.8888
  17   2.0000      -8.075220      -219.7379
  18   2.0000      -6.039424      -164.3411
  19   2.0000      -6.035512      -164.2346
  20   2.0000      -6.033858      -164.1896
  21   2.0000      -6.031374      -164.1220
  22   2.0000      -6.030063      -164.0864
  23   2.0000      -6.025768      -163.9695
  24   2.0000      -1.000168       -27.2160
  25   2.0000      -0.978581       -26.6285
  26   2.0000      -0.918143       -24.9839
  27   2.0000      -0.909623       -24.7521
  28   2.0000      -0.869749       -23.6671
  29   2.0000      -0.852809       -23.2061
  30   2.0000      -0.845824       -23.0160
  31   2.0000      -0.812977       -22.1222
  32   2.0000      -0.788102       -21.4453
  33   2.0000      -0.777884       -21.1673
  34   2.0000      -0.710809       -19.3421
  35   2.0000      -0.704140       -19.1606
  36   2.0000      -0.693565       -18.8729
  37   2.0000      -0.660851       -17.9827
  38   2.0000      -0.645918       -17.5763
  39   2.0000      -0.618007       -16.8168
  40   2.0000      -0.587811       -15.9952
  41   2.0000      -0.573675       -15.6105
  42   2.0000      -0.567011       -15.4292
  43   2.0000      -0.562475       -15.3057
  44   2.0000      -0.543040       -14.7769
  45   2.0000      -0.530836       -14.4448
  46   2.0000      -0.520781       -14.1712
  47   2.0000      -0.515386       -14.0244
  48   2.0000      -0.505508       -13.7556
  49   2.0000      -0.497722       -13.5437
  50   2.0000      -0.492536       -13.4026
  51   2.0000      -0.480503       -13.0752
  52   2.0000      -0.472560       -12.8590
  53   2.0000      -0.466170       -12.6851
  54   2.0000      -0.454978       -12.3806
  55   2.0000      -0.448275       -12.1982
  56   2.0000      -0.441153       -12.0044
  57   2.0000      -0.434307       -11.8181
  58   2.0000      -0.431267       -11.7354
  59   2.0000      -0.429167       -11.6782
  60   2.0000      -0.423000       -11.5104
  61   2.0000      -0.418632       -11.3916
  62   2.0000      -0.410820       -11.1790
  63   2.0000      -0.335292        -9.1237
  64   2.0000      -0.331118        -9.0102
  65   2.0000      -0.327564        -8.9135
  66   2.0000      -0.304179        -8.2771
  67   0.0000       0.039480         1.0743
  68   0.0000       0.053762         1.4629
  69   0.0000       0.111828         3.0430
  70   0.0000       0.114112         3.1051
  71   0.0000       0.120912         3.2902

MULLIKEN ATOMIC CHARGES
-----------------------
   0 S :    0.106035
   1 C :   -0.126108
   2 C :   -0.079793
   3 C :    0.041014
   4 C :   -0.171744
   5 H :   -0.013163
   6 C :    0.098706
   7 H :   -0.015688
   8 H :    0.024904
   9 C :   -0.078259
  10 H :    0.035067
  11 H :    0.022403
  12 C :   -0.013675
  13 H :    0.037443
  14 H :    0.026015
  15 H :    0.034571
  16 S :    0.082740
  17 C :   -0.089559
  18 C :   -0.043003
  19 C :   -0.019569
  20 C :   -0.175300
  21 H :    0.033863
  22 C :    0.052064
  23 H :    0.034755
  24 H :    0.038576
  25 C :   -0.050394
  26 H :    0.011602
  27 H :    0.031066
  28 C :   -0.012456
  29 H :    0.017866
  30 H :    0.028372
  31 H :    0.027364
  32 H :    0.051389
  33 H :    0.052895
Sum of atomic charges:    0.0000000

LOEWDIN ATOMIC CHARGES
----------------------
   0 S :    0.378057
   1 C :   -0.177075
   2 C :   -0.057332
   3 C :   -0.056518
   4 C :   -0.198400
   5 H :    0.020973
   6 C :   -0.040327
   7 H :    0.023567
   8 H :    0.033724
   9 C :   -0.030332
  10 H :    0.031479
  11 H :    0.015399
  12 C :   -0.053940
  13 H :    0.030283
  14 H :    0.022094
  15 H :    0.024006
  16 S :    0.351086
  17 C :   -0.161196
  18 C :   -0.078060
  19 C :   -0.060918
  20 C :   -0.173119
  21 H :    0.037897
  22 C :   -0.031664
  23 H :    0.038815
  24 H :    0.036351
  25 C :   -0.031878
  26 H :    0.014744
  27 H :    0.028466
  28 C :   -0.057048
  29 H :    0.015579
  30 H :    0.022174
  31 H :    0.027708
  32 H :    0.029790
  33 H :    0.025614

  Mayer bond orders larger than 0.100000
B(  0-S ,  1-C ) :   1.1310 B(  0-S ,  4-C ) :   1.1200 B(  1-C ,  2-C ) :   1.6081
B(  1-C , 32-H ) :   0.9640 B(  2-C ,  3-C ) :   1.2134 B(  2-C ,  6-C ) :   1.0406
B(  3-C ,  4-C ) :   1.6199 B(  3-C ,  5-H ) :   0.9973 B(  4-C , 20-C ) :   1.0206
B(  6-C ,  7-H ) :   0.9238 B(  6-C ,  8-H ) :   0.9290 B(  6-C ,  9-C ) :   1.0490
B(  9-C , 10-H ) :   0.9524 B(  9-C , 11-H ) :   0.9597 B(  9-C , 12-C ) :   1.0891
B( 12-C , 13-H ) :   0.9731 B( 12-C , 14-H ) :   0.9752 B( 12-C , 15-H ) :   0.9747
B( 16-S , 17-C ) :   1.1403 B( 16-S , 20-C ) :   1.1072 B( 17-C , 18-C ) :   1.6361
B( 17-C , 33-H ) :   0.9713 B( 18-C , 19-C ) :   1.2041 B( 18-C , 21-H ) :   0.9801
B( 19-C , 20-C ) :   1.6511 B( 19-C , 22-C ) :   1.0335 B( 22-C , 23-H ) :   0.9235
B( 22-C , 24-H ) :   0.9383 B( 22-C , 25-C ) :   1.0797 B( 25-C , 26-H ) :   0.9535
B( 25-C , 27-H ) :   0.9516 B( 25-C , 28-C ) :   1.0884 B( 28-C , 29-H ) :   0.9758
B( 28-C , 30-H ) :   0.9684 B( 28-C , 31-H ) :   0.9707

Dispersion correction           -0.014711129
FINAL SINGLE POINT ENERGY     -1339.869071220020

DIPOLE MOMENT
-------------
                                X             Y             Z
Electronic contribution:     14.13434      20.76579     -10.17704
Nuclear contribution   :    -14.63190     -21.28728      10.61919
                        -----------------------------------------
Total Dipole Moment    :     -0.49756      -0.52149       0.44215
                        -----------------------------------------
Magnitude (a.u.)       :      0.84558
Magnitude (Debye)      :      2.14930

Rotational constants in cm-1:     0.017952     0.008234     0.007003
Rotational constants in MHz :   538.193059   246.834621   209.948340

                             ****ORCA TERMINATED NORMALLY****
TOTAL RUN TIME: 0 days 0 hours 0 minutes 21 seconds 825 msec
