                         Program Version 4.2.1 -  RELEASE  -
|  1> ! wB97X-D3 SP def2-SVP
|  2> %pal
|  3> nprocs 24
|  4> end
|  5>
|  6> * xyz 0 1
|  7> S 	 -48.0303 	 25.6576 	 28.5625
|  8> C 	 -47.1939 	 27.1822 	 28.1574
|  9> C 	 -45.8406 	 26.9645 	 28.0152
| 10> C 	 -45.4348 	 25.623 	 28.2798
| 11> C 	 -46.4803 	 24.8496 	 28.7006
| 12> H 	 -44.4228 	 25.2484 	 28.3809
| 13> C 	 -44.737 	 28.0336 	 27.9088
| 14> H 	 -43.7496 	 27.5974 	 27.7134
| 15> H 	 -44.7082 	 28.4523 	 28.8456
| 16> C 	 -44.938 	 29.1664 	 26.8247
| 17> H 	 -45.0977 	 28.7062 	 25.8095
| 18> H 	 -45.8454 	 29.7299 	 27.1353
| 19> C 	 -43.7471 	 30.065 	 26.7569
| 20> H 	 -42.8985 	 29.4927 	 26.571
| 21> H 	 -43.8347 	 30.7632 	 25.9675
| 22> H 	 -43.6177 	 30.6116 	 27.6491
| 23> S 	 -47.5136 	 22.3284 	 28.1508
| 24> C 	 -46.9427 	 20.9423 	 28.835
| 25> C 	 -45.8494 	 21.0723 	 29.5965
| 26> C 	 -45.5305 	 22.514 	 29.7736
| 27> C 	 -46.3774 	 23.3777 	 28.972
| 28> H 	 -45.3795 	 20.2652 	 30.1082
| 29> C 	 -44.2724 	 22.9191 	 30.5433
| 30> H 	 -44.2017 	 23.9375 	 30.4494
| 31> H 	 -43.4677 	 22.4053 	 30.2034
| 32> C 	 -44.5001 	 22.7115 	 32.0386
| 33> H 	 -43.573 	 22.9187 	 32.4693
| 34> H 	 -44.4626 	 21.6183 	 32.2793
| 35> C 	 -45.6868 	 23.6061 	 32.6176
| 36> H 	 -46.4941 	 23.0761 	 32.4994
| 37> H 	 -45.7415 	 24.5024 	 32.0279
| 38> H 	 -45.5333 	 23.6864 	 33.7119
| 39> H 	 -47.6931 	 28.1035 	 27.9859
| 40> H 	 -47.3211 	 19.9828 	 28.6458
| 41> *
| 42>
| 43>                          ****END OF INPUT****

CARTESIAN COORDINATES (ANGSTROEM)
---------------------------------
  S    -48.030300   25.657600   28.562500
  C    -47.193900   27.182200   28.157400
  C    -45.840600   26.964500   28.015200
  C    -45.434800   25.623000   28.279800
  C    -46.480300   24.849600   28.700600
  H    -44.422800   25.248400   28.380900
  C    -44.737000   28.033600   27.908800
  H    -43.749600   27.597400   27.713400
  H    -44.708200   28.452300   28.845600
  C    -44.938000   29.166400   26.824700
  H    -45.097700   28.706200   25.809500
  H    -45.845400   29.729900   27.135300
  C    -43.747100   30.065000   26.756900
  H    -42.898500   29.492700   26.571000
  H    -43.834700   30.763200   25.967500
  H    -43.617700   30.611600   27.649100
  S    -47.513600   22.328400   28.150800
  C    -46.942700   20.942300   28.835000
  C    -45.849400   21.072300   29.596500
  C    -45.530500   22.514000   29.773600
  C    -46.377400   23.377700   28.972000
  H    -45.379500   20.265200   30.108200
  C    -44.272400   22.919100   30.543300
  H    -44.201700   23.937500   30.449400
  H    -43.467700   22.405300   30.203400
  C    -44.500100   22.711500   32.038600
  H    -43.573000   22.918700   32.469300
  H    -44.462600   21.618300   32.279300
  C    -45.686800   23.606100   32.617600
  H    -46.494100   23.076100   32.499400
  H    -45.741500   24.502400   32.027900
  H    -45.533300   23.686400   33.711900
  H    -47.693100   28.103500   27.985900
  H    -47.321100   19.982800   28.645800

 Total Charge           Charge          ....    0
 Multiplicity           Mult            ....    1
 Number of Electrons    NEL             ....  134
 Basis Dimension        Dim             ....  322

ORBITAL ENERGIES
----------------

  NO   OCC          E(Eh)            E(eV)
   0   2.0000     -88.968826     -2420.9648
   1   2.0000     -88.959449     -2420.7097
   2   2.0000     -10.333579      -281.1910
   3   2.0000     -10.331880      -281.1447
   4   2.0000     -10.315167      -280.6900
   5   2.0000     -10.310320      -280.5581
   6   2.0000     -10.303177      -280.3637
   7   2.0000     -10.301226      -280.3106
   8   2.0000     -10.291791      -280.0539
   9   2.0000     -10.291489      -280.0456
  10   2.0000     -10.289771      -279.9989
  11   2.0000     -10.287485      -279.9367
  12   2.0000     -10.279805      -279.7277
  13   2.0000     -10.274935      -279.5952
  14   2.0000     -10.266894      -279.3764
  15   2.0000     -10.264876      -279.3215
  16   2.0000      -8.082883      -219.9464
  17   2.0000      -8.076453      -219.7715
  18   2.0000      -6.041493      -164.3974
  19   2.0000      -6.037577      -164.2908
  20   2.0000      -6.034829      -164.2161
  21   2.0000      -6.033481      -164.1794
  22   2.0000      -6.030477      -164.0976
  23   2.0000      -6.027382      -164.0134
  24   2.0000      -1.006116       -27.3778
  25   2.0000      -0.986967       -26.8567
  26   2.0000      -0.912189       -24.8219
  27   2.0000      -0.910792       -24.7839
  28   2.0000      -0.869582       -23.6625
  29   2.0000      -0.852708       -23.2034
  30   2.0000      -0.838961       -22.8293
  31   2.0000      -0.817493       -22.2451
  32   2.0000      -0.788339       -21.4518
  33   2.0000      -0.776282       -21.1237
  34   2.0000      -0.711256       -19.3543
  35   2.0000      -0.704695       -19.1757
  36   2.0000      -0.689886       -18.7728
  37   2.0000      -0.654454       -17.8086
  38   2.0000      -0.640969       -17.4416
  39   2.0000      -0.618634       -16.8339
  40   2.0000      -0.596491       -16.2313
  41   2.0000      -0.576863       -15.6972
  42   2.0000      -0.571227       -15.5439
  43   2.0000      -0.564697       -15.3662
  44   2.0000      -0.536279       -14.5929
  45   2.0000      -0.525297       -14.2941
  46   2.0000      -0.517684       -14.0869
  47   2.0000      -0.509668       -13.8688
  48   2.0000      -0.507003       -13.7962
  49   2.0000      -0.500754       -13.6262
  50   2.0000      -0.498400       -13.5621
  51   2.0000      -0.482295       -13.1239
  52   2.0000      -0.474935       -12.9236
  53   2.0000      -0.466855       -12.7038
  54   2.0000      -0.458174       -12.4675
  55   2.0000      -0.453224       -12.3328
  56   2.0000      -0.447968       -12.1898
  57   2.0000      -0.434795       -11.8314
  58   2.0000      -0.432550       -11.7703
  59   2.0000      -0.427954       -11.6452
  60   2.0000      -0.421094       -11.4585
  61   2.0000      -0.417090       -11.3496
  62   2.0000      -0.402923       -10.9641
  63   2.0000      -0.349536        -9.5114
  64   2.0000      -0.331944        -9.0326
  65   2.0000      -0.323326        -8.7981
  66   2.0000      -0.292994        -7.9728
  67   0.0000       0.032599         0.8871
  68   0.0000       0.077504         2.1090
  69   0.0000       0.109206         2.9717
  70   0.0000       0.117582         3.1996
  71   0.0000       0.138663         3.7732

MULLIKEN ATOMIC CHARGES
-----------------------
   0 S :    0.105624
   1 C :   -0.124042
   2 C :   -0.042245
   3 C :    0.022703
   4 C :   -0.137074
   5 H :    0.023047
   6 C :    0.054925
   7 H :    0.018434
   8 H :    0.025959
   9 C :   -0.125974
  10 H :    0.042990
  11 H :    0.031942
  12 C :    0.030604
  13 H :    0.009743
  14 H :    0.021894
  15 H :    0.015638
  16 S :    0.107697
  17 C :   -0.042727
  18 C :   -0.026999
  19 C :   -0.108424
  20 C :   -0.162453
  21 H :    0.011155
  22 C :    0.154581
  23 H :   -0.014739
  24 H :    0.007556
  25 C :   -0.101138
  26 H :   -0.002826
  27 H :    0.015138
  28 C :    0.031396
  29 H :    0.006361
  30 H :    0.037304
  31 H :    0.039758
  32 H :    0.040939
  33 H :    0.033254
Sum of atomic charges:    0.0000000

LOEWDIN ATOMIC CHARGES
----------------------
   0 S :    0.390225
   1 C :   -0.184270
   2 C :   -0.055571
   3 C :   -0.063843
   4 C :   -0.188426
   5 H :    0.034356
   6 C :   -0.022703
   7 H :    0.027226
   8 H :    0.022994
   9 C :   -0.040220
  10 H :    0.030096
  11 H :    0.022281
  12 C :   -0.054008
  13 H :    0.017483
  14 H :    0.024078
  15 H :    0.020684
  16 S :    0.441269
  17 C :   -0.205331
  18 C :   -0.074568
  19 C :   -0.042400
  20 C :   -0.211386
  21 H :    0.027531
  22 C :   -0.016319
  23 H :    0.013942
  24 H :    0.018600
  25 C :   -0.037146
  26 H :    0.008924
  27 H :    0.021965
  28 C :   -0.038652
  29 H :    0.004223
  30 H :    0.029639
  31 H :    0.035341
  32 H :    0.021922
  33 H :    0.022064

  Mayer bond orders larger than 0.100000
B(  0-S ,  1-C ) :   1.1151 B(  0-S ,  4-C ) :   1.1524 B(  1-C ,  2-C ) :   1.6225
B(  1-C , 32-H ) :   0.9776 B(  2-C ,  3-C ) :   1.2302 B(  2-C ,  6-C ) :   1.0047
B(  3-C ,  4-C ) :   1.5907 B(  3-C ,  5-H ) :   0.9903 B(  4-C , 20-C ) :   1.0199
B(  6-C ,  7-H ) :   0.9504 B(  6-C ,  8-H ) :   0.9424 B(  6-C ,  9-C ) :   1.0565
B(  9-C , 10-H ) :   0.9622 B(  9-C , 11-H ) :   0.9528 B(  9-C , 12-C ) :   1.0960
B( 12-C , 13-H ) :   0.9698 B( 12-C , 14-H ) :   0.9694 B( 12-C , 15-H ) :   0.9704
B( 16-S , 17-C ) :   1.1832 B( 16-S , 20-C ) :   1.1495 B( 17-C , 18-C ) :   1.6072
B( 17-C , 33-H ) :   0.9656 B( 18-C , 19-C ) :   1.2362 B( 18-C , 21-H ) :   0.9948
B( 19-C , 20-C ) :   1.5750 B( 19-C , 22-C ) :   1.0469 B( 22-C , 23-H ) :   0.9265
B( 22-C , 24-H ) :   0.9355 B( 22-C , 25-C ) :   1.0931 B( 25-C , 26-H ) :   0.9558
B( 25-C , 27-H ) :   0.9548 B( 25-C , 28-C ) :   1.0378 B( 28-C , 29-H ) :   0.9731
B( 28-C , 30-H ) :   0.9772 B( 28-C , 31-H ) :   0.9752

Dispersion correction           -0.014085162
FINAL SINGLE POINT ENERGY     -1339.837276147553

DIPOLE MOMENT
-------------
                                X             Y             Z
Electronic contribution:    -19.23507     -14.66527      -7.42872
Nuclear contribution   :     19.88842      14.84279       7.60295
                        -----------------------------------------
Total Dipole Moment    :      0.65335       0.17752       0.17423
                        -----------------------------------------
Magnitude (a.u.)       :      0.69909
Magnitude (Debye)      :      1.77695

Rotational constants in cm-1:     0.021799     0.007305     0.006327
Rotational constants in MHz :   653.524150   218.987784   189.673631

                             ****ORCA TERMINATED NORMALLY****
TOTAL RUN TIME: 0 days 0 hours 0 minutes 21 seconds 397 msec
