                         Program Version 4.2.1 -  RELEASE  -
|  1> ! wB97X-D3 SP def2-SVP
|  2> %pal
|  3> nprocs 24
|  4> end
|  5>
|  6> * xyz 0 1
|  7> S 	 -135.298 	 27.5097 	 -15.3902
|  8> C 	 -135.672 	 26.0085 	 -14.5267
|  9> C 	 -135.591 	 24.8708 	 -15.3771
| 10> C 	 -135.196 	 25.251 	 -16.6806
| 11> C 	 -135.164 	 26.6316 	 -16.885
| 12> H 	 -134.948 	 24.7635 	 -17.5809
| 13> C 	 -135.945 	 23.4018 	 -15.0378
| 14> H 	 -137.062 	 23.2977 	 -14.9778
| 15> H 	 -135.542 	 23.2526 	 -13.9807
| 16> C 	 -135.281 	 22.3061 	 -15.8815
| 17> H 	 -135.792 	 21.3809 	 -15.8424
| 18> H 	 -135.393 	 22.5416 	 -16.9458
| 19> C 	 -133.77 	 22.0143 	 -15.7922
| 20> H 	 -133.223 	 22.8478 	 -16.0869
| 21> H 	 -133.367 	 21.7135 	 -14.7675
| 22> H 	 -133.368 	 21.147 	 -16.3813
| 23> S 	 -132.862 	 27.7215 	 -17.9959
| 24> C 	 -132.84 	 28.0773 	 -19.7083
| 25> C 	 -133.971 	 27.5907 	 -20.3639
| 26> C 	 -134.903 	 27.0017 	 -19.4335
| 27> C 	 -134.554 	 27.2237 	 -18.0601
| 28> H 	 -134.094 	 27.5825 	 -21.4302
| 29> C 	 -136.345 	 26.5861 	 -19.8067
| 30> H 	 -136.84 	 26.1296 	 -18.9276
| 31> H 	 -136.302 	 25.7212 	 -20.4645
| 32> C 	 -137.055 	 27.7477 	 -20.3931
| 33> H 	 -136.791 	 27.7546 	 -21.4197
| 34> H 	 -136.649 	 28.7057 	 -20.0163
| 35> C 	 -138.609 	 27.7527 	 -20.3823
| 36> H 	 -138.995 	 26.8558 	 -20.8372
| 37> H 	 -138.898 	 28.6772 	 -20.8362
| 38> H 	 -138.931 	 27.8285 	 -19.3283
| 39> H 	 -136.042 	 26.0323 	 -13.4783
| 40> H 	 -132.049 	 28.3517 	 -20.3827
| 41> *
| 42>
| 43>                          ****END OF INPUT****

CARTESIAN COORDINATES (ANGSTROEM)
---------------------------------
  S    -135.298000   27.509700  -15.390200
  C    -135.672000   26.008500  -14.526700
  C    -135.591000   24.870800  -15.377100
  C    -135.196000   25.251000  -16.680600
  C    -135.164000   26.631600  -16.885000
  H    -134.948000   24.763500  -17.580900
  C    -135.945000   23.401800  -15.037800
  H    -137.062000   23.297700  -14.977800
  H    -135.542000   23.252600  -13.980700
  C    -135.281000   22.306100  -15.881500
  H    -135.792000   21.380900  -15.842400
  H    -135.393000   22.541600  -16.945800
  C    -133.770000   22.014300  -15.792200
  H    -133.223000   22.847800  -16.086900
  H    -133.367000   21.713500  -14.767500
  H    -133.368000   21.147000  -16.381300
  S    -132.862000   27.721500  -17.995900
  C    -132.840000   28.077300  -19.708300
  C    -133.971000   27.590700  -20.363900
  C    -134.903000   27.001700  -19.433500
  C    -134.554000   27.223700  -18.060100
  H    -134.094000   27.582500  -21.430200
  C    -136.345000   26.586100  -19.806700
  H    -136.840000   26.129600  -18.927600
  H    -136.302000   25.721200  -20.464500
  C    -137.055000   27.747700  -20.393100
  H    -136.791000   27.754600  -21.419700
  H    -136.649000   28.705700  -20.016300
  C    -138.609000   27.752700  -20.382300
  H    -138.995000   26.855800  -20.837200
  H    -138.898000   28.677200  -20.836200
  H    -138.931000   27.828500  -19.328300
  H    -136.042000   26.032300  -13.478300
  H    -132.049000   28.351700  -20.382700

 Total Charge           Charge          ....    0
 Multiplicity           Mult            ....    1
 Number of Electrons    NEL             ....  134
 Basis Dimension        Dim             ....  322

ORBITAL ENERGIES
----------------

  NO   OCC          E(Eh)            E(eV)
   0   2.0000     -88.970611     -2421.0134
   1   2.0000     -88.968017     -2420.9428
   2   2.0000     -10.326438      -280.9967
   3   2.0000     -10.325457      -280.9700
   4   2.0000     -10.325149      -280.9616
   5   2.0000     -10.317051      -280.7412
   6   2.0000     -10.313291      -280.6389
   7   2.0000     -10.308867      -280.5185
   8   2.0000     -10.306840      -280.4634
   9   2.0000     -10.295298      -280.1493
  10   2.0000     -10.292290      -280.0675
  11   2.0000     -10.288606      -279.9672
  12   2.0000     -10.286539      -279.9110
  13   2.0000     -10.280966      -279.7593
  14   2.0000     -10.276168      -279.6287
  15   2.0000     -10.274628      -279.5868
  16   2.0000      -8.084934      -220.0022
  17   2.0000      -8.082046      -219.9237
  18   2.0000      -6.043308      -164.4468
  19   2.0000      -6.040639      -164.3741
  20   2.0000      -6.039450      -164.3418
  21   2.0000      -6.036717      -164.2674
  22   2.0000      -6.035922      -164.2458
  23   2.0000      -6.032680      -164.1576
  24   2.0000      -1.003670       -27.3112
  25   2.0000      -0.977905       -26.6101
  26   2.0000      -0.909362       -24.7450
  27   2.0000      -0.907495       -24.6942
  28   2.0000      -0.868453       -23.6318
  29   2.0000      -0.849490       -23.1158
  30   2.0000      -0.842310       -22.9204
  31   2.0000      -0.811907       -22.0931
  32   2.0000      -0.784614       -21.3504
  33   2.0000      -0.768738       -20.9184
  34   2.0000      -0.708640       -19.2831
  35   2.0000      -0.695926       -18.9371
  36   2.0000      -0.693164       -18.8619
  37   2.0000      -0.652082       -17.7440
  38   2.0000      -0.647006       -17.6059
  39   2.0000      -0.617046       -16.7907
  40   2.0000      -0.590317       -16.0633
  41   2.0000      -0.564363       -15.3571
  42   2.0000      -0.558326       -15.1928
  43   2.0000      -0.552590       -15.0367
  44   2.0000      -0.535618       -14.5749
  45   2.0000      -0.530920       -14.4471
  46   2.0000      -0.519676       -14.1411
  47   2.0000      -0.515872       -14.0376
  48   2.0000      -0.494534       -13.4570
  49   2.0000      -0.493561       -13.4305
  50   2.0000      -0.482369       -13.1259
  51   2.0000      -0.476501       -12.9662
  52   2.0000      -0.469253       -12.7690
  53   2.0000      -0.462399       -12.5825
  54   2.0000      -0.457921       -12.4607
  55   2.0000      -0.450027       -12.2459
  56   2.0000      -0.445806       -12.1310
  57   2.0000      -0.442073       -12.0294
  58   2.0000      -0.437094       -11.8939
  59   2.0000      -0.425031       -11.5657
  60   2.0000      -0.417216       -11.3530
  61   2.0000      -0.408488       -11.1155
  62   2.0000      -0.403184       -10.9712
  63   2.0000      -0.344125        -9.3641
  64   2.0000      -0.329732        -8.9725
  65   2.0000      -0.325515        -8.8577
  66   2.0000      -0.293464        -7.9856
  67   0.0000       0.026740         0.7276
  68   0.0000       0.055139         1.5004
  69   0.0000       0.112078         3.0498
  70   0.0000       0.116781         3.1778
  71   0.0000       0.123888         3.3712

MULLIKEN ATOMIC CHARGES
-----------------------
   0 S :    0.115718
   1 C :   -0.146525
   2 C :   -0.058440
   3 C :    0.033854
   4 C :   -0.185193
   5 H :    0.004263
   6 C :    0.054728
   7 H :    0.063968
   8 H :    0.037936
   9 C :   -0.056976
  10 H :    0.019210
  11 H :    0.022270
  12 C :   -0.069552
  13 H :    0.026282
  14 H :    0.027494
  15 H :    0.038836
  16 S :    0.119320
  17 C :   -0.069581
  18 C :   -0.043851
  19 C :   -0.092141
  20 C :   -0.136714
  21 H :    0.019948
  22 C :    0.073299
  23 H :    0.022627
  24 H :    0.018544
  25 C :   -0.091796
  26 H :    0.011983
  27 H :    0.041531
  28 C :   -0.020028
  29 H :    0.033873
  30 H :    0.029901
  31 H :    0.034275
  32 H :    0.068110
  33 H :    0.052827
Sum of atomic charges:    0.0000000

LOEWDIN ATOMIC CHARGES
----------------------
   0 S :    0.414247
   1 C :   -0.197813
   2 C :   -0.061947
   3 C :   -0.053872
   4 C :   -0.208796
   5 H :    0.027183
   6 C :   -0.034511
   7 H :    0.044839
   8 H :    0.039364
   9 C :   -0.048852
  10 H :    0.023377
  11 H :    0.026453
  12 C :   -0.070619
  13 H :    0.014423
  14 H :    0.026989
  15 H :    0.035299
  16 S :    0.409029
  17 C :   -0.190798
  18 C :   -0.070640
  19 C :   -0.048884
  20 C :   -0.207918
  21 H :    0.029534
  22 C :   -0.038830
  23 H :    0.028102
  24 H :    0.026844
  25 C :   -0.046105
  26 H :    0.017375
  27 H :    0.029791
  28 C :   -0.055819
  29 H :    0.022690
  30 H :    0.025356
  31 H :    0.027474
  32 H :    0.034828
  33 H :    0.032209

  Mayer bond orders larger than 0.100000
B(  0-S ,  1-C ) :   1.1619 B(  0-S ,  4-C ) :   1.1592 B(  1-C ,  2-C ) :   1.5720
B(  1-C ,  4-C ) :   0.1048 B(  1-C , 32-H ) :   0.9678 B(  2-C ,  3-C ) :   1.2417
B(  2-C ,  6-C ) :   0.9930 B(  3-C ,  4-C ) :   1.5510 B(  3-C ,  5-H ) :   0.9981
B(  4-C , 20-C ) :   1.0337 B(  6-C ,  7-H ) :   0.9422 B(  6-C ,  8-H ) :   0.9445
B(  6-C ,  9-C ) :   1.0732 B(  9-C , 10-H ) :   0.9539 B(  9-C , 11-H ) :   0.9451
B(  9-C , 12-C ) :   1.0756 B( 12-C , 13-H ) :   0.9777 B( 12-C , 14-H ) :   0.9734
B( 12-C , 15-H ) :   0.9741 B( 16-S , 17-C ) :   1.1587 B( 16-S , 20-C ) :   1.1381
B( 17-C , 18-C ) :   1.6006 B( 17-C , 33-H ) :   0.9636 B( 18-C , 19-C ) :   1.2584
B( 18-C , 21-H ) :   0.9907 B( 19-C , 20-C ) :   1.5624 B( 19-C , 22-C ) :   1.0501
B( 22-C , 23-H ) :   0.9411 B( 22-C , 24-H ) :   0.9278 B( 22-C , 25-C ) :   1.0525
B( 25-C , 26-H ) :   0.9441 B( 25-C , 27-H ) :   0.9614 B( 25-C , 28-C ) :   1.0892
B( 28-C , 29-H ) :   0.9749 B( 28-C , 30-H ) :   0.9733 B( 28-C , 31-H ) :   0.9773

Dispersion correction           -0.014284957
FINAL SINGLE POINT ENERGY     -1339.851965762669

DIPOLE MOMENT
-------------
                                X             Y             Z
Electronic contribution:     12.25767      16.92280       8.07727
Nuclear contribution   :    -12.50069     -17.49358      -8.39612
                        -----------------------------------------
Total Dipole Moment    :     -0.24302      -0.57078      -0.31885
                        -----------------------------------------
Magnitude (a.u.)       :      0.69751
Magnitude (Debye)      :      1.77293

Rotational constants in cm-1:     0.016706     0.008540     0.007825
Rotational constants in MHz :   500.830590   256.018305   234.601687

                             ****ORCA TERMINATED NORMALLY****
TOTAL RUN TIME: 0 days 0 hours 0 minutes 21 seconds 670 msec
