                         Program Version 4.2.1 -  RELEASE  -
|  1> ! wB97X-D3 SP def2-SVP
|  2> %pal
|  3> nprocs 24
|  4> end
|  5>
|  6> * xyz 0 1
|  7> S 	 -71.5479 	 16.7517 	 -70.9532
|  8> C 	 -70.6691 	 15.2641 	 -71.3736
|  9> C 	 -69.3447 	 15.4139 	 -71.1544
| 10> C 	 -68.9566 	 16.7416 	 -70.8535
| 11> C 	 -70.0535 	 17.5891 	 -70.8426
| 12> H 	 -67.9686 	 17.1638 	 -70.7499
| 13> C 	 -68.4881 	 14.2206 	 -71.1012
| 14> H 	 -68.6568 	 13.6782 	 -72.0044
| 15> H 	 -68.8532 	 13.6111 	 -70.2464
| 16> C 	 -66.9939 	 14.4412 	 -70.8259
| 17> H 	 -66.5169 	 14.5877 	 -71.7755
| 18> H 	 -66.8589 	 15.2089 	 -70.041
| 19> C 	 -66.2451 	 13.2248 	 -70.1
| 20> H 	 -66.5437 	 13.0111 	 -69.0767
| 21> H 	 -66.5855 	 12.3505 	 -70.6659
| 22> H 	 -65.1612 	 13.2408 	 -70.0194
| 23> S 	 -70.2154 	 20.0568 	 -72.3232
| 24> C 	 -70.4898 	 21.5046 	 -71.4079
| 25> C 	 -70.3804 	 21.3755 	 -70.0555
| 26> C 	 -70.222 	 20.0118 	 -69.6786
| 27> C 	 -70.102 	 19.088 	 -70.7871
| 28> H 	 -70.5654 	 22.2707 	 -69.4503
| 29> C 	 -70.2934 	 19.6018 	 -68.1825
| 30> H 	 -70.5257 	 18.5148 	 -68.0385
| 31> H 	 -71.0586 	 20.1425 	 -67.6316
| 32> C 	 -69.0267 	 19.8093 	 -67.2245
| 33> H 	 -69.3239 	 19.416 	 -66.2587
| 34> H 	 -68.8301 	 20.8754 	 -67.0405
| 35> C 	 -67.7054 	 19.1754 	 -67.8097
| 36> H 	 -67.3481 	 19.71 	 -68.6079
| 37> H 	 -67.8222 	 18.1969 	 -68.1547
| 38> H 	 -66.9301 	 19.1483 	 -67.0854
| 39> H 	 -71.2347 	 14.3596 	 -71.5841
| 40> H 	 -70.5374 	 22.4666 	 -71.864
| 41> *
| 42>
| 43>                          ****END OF INPUT****

CARTESIAN COORDINATES (ANGSTROEM)
---------------------------------
  S    -71.547900   16.751700  -70.953200
  C    -70.669100   15.264100  -71.373600
  C    -69.344700   15.413900  -71.154400
  C    -68.956600   16.741600  -70.853500
  C    -70.053500   17.589100  -70.842600
  H    -67.968600   17.163800  -70.749900
  C    -68.488100   14.220600  -71.101200
  H    -68.656800   13.678200  -72.004400
  H    -68.853200   13.611100  -70.246400
  C    -66.993900   14.441200  -70.825900
  H    -66.516900   14.587700  -71.775500
  H    -66.858900   15.208900  -70.041000
  C    -66.245100   13.224800  -70.100000
  H    -66.543700   13.011100  -69.076700
  H    -66.585500   12.350500  -70.665900
  H    -65.161200   13.240800  -70.019400
  S    -70.215400   20.056800  -72.323200
  C    -70.489800   21.504600  -71.407900
  C    -70.380400   21.375500  -70.055500
  C    -70.222000   20.011800  -69.678600
  C    -70.102000   19.088000  -70.787100
  H    -70.565400   22.270700  -69.450300
  C    -70.293400   19.601800  -68.182500
  H    -70.525700   18.514800  -68.038500
  H    -71.058600   20.142500  -67.631600
  C    -69.026700   19.809300  -67.224500
  H    -69.323900   19.416000  -66.258700
  H    -68.830100   20.875400  -67.040500
  C    -67.705400   19.175400  -67.809700
  H    -67.348100   19.710000  -68.607900
  H    -67.822200   18.196900  -68.154700
  H    -66.930100   19.148300  -67.085400
  H    -71.234700   14.359600  -71.584100
  H    -70.537400   22.466600  -71.864000

 Total Charge           Charge          ....    0
 Multiplicity           Mult            ....    1
 Number of Electrons    NEL             ....  134
 Basis Dimension        Dim             ....  322

ORBITAL ENERGIES
----------------

  NO   OCC          E(Eh)            E(eV)
   0   2.0000     -88.966524     -2420.9022
   1   2.0000     -88.962894     -2420.8034
   2   2.0000     -10.337447      -281.2962
   3   2.0000     -10.329632      -281.0836
   4   2.0000     -10.315548      -280.7003
   5   2.0000     -10.313211      -280.6367
   6   2.0000     -10.309435      -280.5340
   7   2.0000     -10.296666      -280.1865
   8   2.0000     -10.296135      -280.1721
   9   2.0000     -10.294362      -280.1238
  10   2.0000     -10.293056      -280.0883
  11   2.0000     -10.292771      -280.0805
  12   2.0000     -10.290803      -280.0270
  13   2.0000     -10.289161      -279.9823
  14   2.0000     -10.281527      -279.7746
  15   2.0000     -10.260153      -279.1930
  16   2.0000      -8.080383      -219.8784
  17   2.0000      -8.078083      -219.8158
  18   2.0000      -6.038888      -164.3265
  19   2.0000      -6.036421      -164.2594
  20   2.0000      -6.035014      -164.2211
  21   2.0000      -6.032624      -164.1561
  22   2.0000      -6.031202      -164.1174
  23   2.0000      -6.028892      -164.0545
  24   2.0000      -1.004453       -27.3326
  25   2.0000      -0.980694       -26.6860
  26   2.0000      -0.914420       -24.8826
  27   2.0000      -0.891431       -24.2571
  28   2.0000      -0.864057       -23.5122
  29   2.0000      -0.844285       -22.9742
  30   2.0000      -0.841459       -22.8973
  31   2.0000      -0.817336       -22.2408
  32   2.0000      -0.785225       -21.3671
  33   2.0000      -0.772197       -21.0126
  34   2.0000      -0.715016       -19.4566
  35   2.0000      -0.696091       -18.9416
  36   2.0000      -0.683789       -18.6068
  37   2.0000      -0.650568       -17.7028
  38   2.0000      -0.642437       -17.4816
  39   2.0000      -0.621006       -16.8984
  40   2.0000      -0.591918       -16.1069
  41   2.0000      -0.577515       -15.7150
  42   2.0000      -0.567986       -15.4557
  43   2.0000      -0.541623       -14.7383
  44   2.0000      -0.534825       -14.5533
  45   2.0000      -0.522416       -14.2157
  46   2.0000      -0.516638       -14.0584
  47   2.0000      -0.513377       -13.9697
  48   2.0000      -0.502579       -13.6759
  49   2.0000      -0.489924       -13.3315
  50   2.0000      -0.487092       -13.2544
  51   2.0000      -0.478948       -13.0328
  52   2.0000      -0.465915       -12.6782
  53   2.0000      -0.464552       -12.6411
  54   2.0000      -0.459671       -12.5083
  55   2.0000      -0.454883       -12.3780
  56   2.0000      -0.449939       -12.2435
  57   2.0000      -0.438732       -11.9385
  58   2.0000      -0.426656       -11.6099
  59   2.0000      -0.422462       -11.4958
  60   2.0000      -0.420792       -11.4503
  61   2.0000      -0.417091       -11.3496
  62   2.0000      -0.405198       -11.0260
  63   2.0000      -0.336845        -9.1660
  64   2.0000      -0.328059        -8.9269
  65   2.0000      -0.314090        -8.5468
  66   2.0000      -0.311115        -8.4659
  67   0.0000       0.039914         1.0861
  68   0.0000       0.048822         1.3285
  69   0.0000       0.109702         2.9852
  70   0.0000       0.120465         3.2780
  71   0.0000       0.126095         3.4312

MULLIKEN ATOMIC CHARGES
-----------------------
   0 S :    0.118735
   1 C :   -0.149675
   2 C :   -0.058200
   3 C :    0.048450
   4 C :   -0.185374
   5 H :    0.018264
   6 C :    0.056672
   7 H :    0.032151
   8 H :    0.042450
   9 C :   -0.082048
  10 H :    0.042182
  11 H :    0.046804
  12 C :   -0.078574
  13 H :    0.027463
  14 H :    0.025662
  15 H :    0.040242
  16 S :    0.109457
  17 C :   -0.086286
  18 C :   -0.035979
  19 C :    0.008157
  20 C :   -0.174956
  21 H :    0.032684
  22 C :    0.022001
  23 H :    0.037965
  24 H :    0.028749
  25 C :   -0.091308
  26 H :    0.028529
  27 H :    0.026753
  28 C :    0.007556
  29 H :    0.018885
  30 H :    0.006502
  31 H :    0.017073
  32 H :    0.049559
  33 H :    0.049454
Sum of atomic charges:    0.0000000

LOEWDIN ATOMIC CHARGES
----------------------
   0 S :    0.413390
   1 C :   -0.184709
   2 C :   -0.067870
   3 C :   -0.062157
   4 C :   -0.201091
   5 H :    0.034532
   6 C :   -0.035875
   7 H :    0.032084
   8 H :    0.040510
   9 C :   -0.037136
  10 H :    0.025041
  11 H :    0.029132
  12 C :   -0.072702
  13 H :    0.021948
  14 H :    0.022578
  15 H :    0.026659
  16 S :    0.390167
  17 C :   -0.177963
  18 C :   -0.080591
  19 C :   -0.045520
  20 C :   -0.196603
  21 H :    0.040557
  22 C :   -0.036849
  23 H :    0.033643
  24 H :    0.029288
  25 C :   -0.031476
  26 H :    0.021485
  27 H :    0.019560
  28 C :   -0.054988
  29 H :    0.016830
  30 H :    0.015476
  31 H :    0.021911
  32 H :    0.027013
  33 H :    0.023724

  Mayer bond orders larger than 0.100000
B(  0-S ,  1-C ) :   1.1326 B(  0-S ,  4-C ) :   1.1831 B(  1-C ,  2-C ) :   1.6140
B(  1-C , 32-H ) :   0.9789 B(  2-C ,  3-C ) :   1.2298 B(  2-C ,  6-C ) :   1.0060
B(  3-C ,  4-C ) :   1.5741 B(  3-C ,  5-H ) :   0.9962 B(  4-C , 20-C ) :   0.9998
B(  6-C ,  7-H ) :   0.9303 B(  6-C ,  8-H ) :   0.9438 B(  6-C ,  9-C ) :   1.0797
B(  9-C , 10-H ) :   0.9570 B(  9-C , 11-H ) :   0.9532 B(  9-C , 12-C ) :   1.0706
B( 12-C , 13-H ) :   0.9773 B( 12-C , 14-H ) :   0.9778 B( 12-C , 15-H ) :   0.9778
B( 16-S , 17-C ) :   1.1703 B( 16-S , 20-C ) :   1.1310 B( 17-C , 18-C ) :   1.6246
B( 17-C , 20-C ) :   0.1003 B( 17-C , 33-H ) :   0.9609 B( 18-C , 19-C ) :   1.2354
B( 18-C , 21-H ) :   0.9878 B( 19-C , 20-C ) :   1.5803 B( 19-C , 22-C ) :   1.0396
B( 22-C , 23-H ) :   0.9417 B( 22-C , 24-H ) :   0.9455 B( 22-C , 25-C ) :   1.0659
B( 25-C , 26-H ) :   0.9601 B( 25-C , 27-H ) :   0.9603 B( 25-C , 28-C ) :   1.0678
B( 28-C , 29-H ) :   0.9732 B( 28-C , 30-H ) :   0.9761 B( 28-C , 31-H ) :   0.9730

Dispersion correction           -0.014507888
FINAL SINGLE POINT ENERGY     -1339.857834351740

DIPOLE MOMENT
-------------
                                X             Y             Z
Electronic contribution:    -19.63065      11.91753     -16.35849
Nuclear contribution   :     19.91059     -12.07003      16.72943
                        -----------------------------------------
Total Dipole Moment    :      0.27994      -0.15250       0.37094
                        -----------------------------------------
Magnitude (a.u.)       :      0.48910
Magnitude (Debye)      :      1.24320

Rotational constants in cm-1:     0.018768     0.008355     0.006933
Rotational constants in MHz :   562.663894   250.485858   207.860539

                             ****ORCA TERMINATED NORMALLY****
TOTAL RUN TIME: 0 days 0 hours 0 minutes 21 seconds 528 msec
