                         Program Version 4.2.1 -  RELEASE  -
|  1> ! wB97X-D3 SP def2-SVP
|  2> %pal
|  3> nprocs 24
|  4> end
|  5>
|  6> * xyz 0 1
|  7> S 	 -120.591 	 50.3647 	 -31.5422
|  8> C 	 -120.989 	 50.2073 	 -33.2422
|  9> C 	 -121.136 	 51.4353 	 -33.8471
| 10> C 	 -120.725 	 52.4789 	 -32.9539
| 11> C 	 -120.449 	 52.1041 	 -31.6835
| 12> H 	 -120.59 	 53.5164 	 -33.272
| 13> C 	 -121.398 	 51.702 	 -35.2975
| 14> H 	 -121.1 	 50.7234 	 -35.7761
| 15> H 	 -120.686 	 52.4137 	 -35.7185
| 16> C 	 -122.814 	 51.9443 	 -35.7209
| 17> H 	 -123.094 	 52.9312 	 -35.5201
| 18> H 	 -122.792 	 51.7732 	 -36.7725
| 19> C 	 -123.724 	 50.9597 	 -35.0753
| 20> H 	 -124.74 	 51.2621 	 -35.3339
| 21> H 	 -123.55 	 49.9117 	 -35.351
| 22> H 	 -123.677 	 51.1258 	 -33.9756
| 23> S 	 -118.437 	 53.1071 	 -30.0608
| 24> C 	 -118.854 	 53.9416 	 -28.5979
| 25> C 	 -120.174 	 54.2564 	 -28.6134
| 26> C 	 -120.914 	 53.6938 	 -29.735
| 27> C 	 -120.082 	 52.8876 	 -30.5092
| 28> H 	 -120.656 	 54.833 	 -27.8572
| 29> C 	 -122.404 	 53.9277 	 -29.8561
| 30> H 	 -122.883 	 54.1166 	 -28.8452
| 31> H 	 -122.851 	 53.0253 	 -30.2158
| 32> C 	 -122.929 	 55.0439 	 -30.7564
| 33> H 	 -123.985 	 54.78 	 -31.0117
| 34> H 	 -122.356 	 55.1521 	 -31.7607
| 35> C 	 -123.02 	 56.3788 	 -29.9822
| 36> H 	 -123.537 	 57.0632 	 -30.6476
| 37> H 	 -121.989 	 56.8056 	 -29.7601
| 38> H 	 -123.521 	 56.1603 	 -29.009
| 39> H 	 -121.079 	 49.2511 	 -33.8323
| 40> H 	 -118.193 	 54.076 	 -27.7337
| 41> *
| 42>
| 43>                          ****END OF INPUT****

CARTESIAN COORDINATES (ANGSTROEM)
---------------------------------
  S    -120.591000   50.364700  -31.542200
  C    -120.989000   50.207300  -33.242200
  C    -121.136000   51.435300  -33.847100
  C    -120.725000   52.478900  -32.953900
  C    -120.449000   52.104100  -31.683500
  H    -120.590000   53.516400  -33.272000
  C    -121.398000   51.702000  -35.297500
  H    -121.100000   50.723400  -35.776100
  H    -120.686000   52.413700  -35.718500
  C    -122.814000   51.944300  -35.720900
  H    -123.094000   52.931200  -35.520100
  H    -122.792000   51.773200  -36.772500
  C    -123.724000   50.959700  -35.075300
  H    -124.740000   51.262100  -35.333900
  H    -123.550000   49.911700  -35.351000
  H    -123.677000   51.125800  -33.975600
  S    -118.437000   53.107100  -30.060800
  C    -118.854000   53.941600  -28.597900
  C    -120.174000   54.256400  -28.613400
  C    -120.914000   53.693800  -29.735000
  C    -120.082000   52.887600  -30.509200
  H    -120.656000   54.833000  -27.857200
  C    -122.404000   53.927700  -29.856100
  H    -122.883000   54.116600  -28.845200
  H    -122.851000   53.025300  -30.215800
  C    -122.929000   55.043900  -30.756400
  H    -123.985000   54.780000  -31.011700
  H    -122.356000   55.152100  -31.760700
  C    -123.020000   56.378800  -29.982200
  H    -123.537000   57.063200  -30.647600
  H    -121.989000   56.805600  -29.760100
  H    -123.521000   56.160300  -29.009000
  H    -121.079000   49.251100  -33.832300
  H    -118.193000   54.076000  -27.733700

 Total Charge           Charge          ....    0
 Multiplicity           Mult            ....    1
 Number of Electrons    NEL             ....  134
 Basis Dimension        Dim             ....  322

ORBITAL ENERGIES
----------------

  NO   OCC          E(Eh)            E(eV)
   0   2.0000     -88.963936     -2420.8318
   1   2.0000     -88.962796     -2420.8007
   2   2.0000     -10.324289      -280.9382
   3   2.0000     -10.323704      -280.9223
   4   2.0000     -10.318305      -280.7754
   5   2.0000     -10.315014      -280.6858
   6   2.0000     -10.304216      -280.3920
   7   2.0000     -10.296899      -280.1929
   8   2.0000     -10.294461      -280.1265
   9   2.0000     -10.291449      -280.0446
  10   2.0000     -10.290981      -280.0318
  11   2.0000     -10.289678      -279.9964
  12   2.0000     -10.289404      -279.9889
  13   2.0000     -10.284271      -279.8492
  14   2.0000     -10.274321      -279.5785
  15   2.0000     -10.274146      -279.5737
  16   2.0000      -8.078705      -219.8327
  17   2.0000      -8.078539      -219.8282
  18   2.0000      -6.037242      -164.2817
  19   2.0000      -6.037056      -164.2767
  20   2.0000      -6.033204      -164.1718
  21   2.0000      -6.032902      -164.1636
  22   2.0000      -6.029420      -164.0689
  23   2.0000      -6.029229      -164.0637
  24   2.0000      -1.009526       -27.4706
  25   2.0000      -0.987984       -26.8844
  26   2.0000      -0.924318       -25.1520
  27   2.0000      -0.907563       -24.6960
  28   2.0000      -0.871282       -23.7088
  29   2.0000      -0.846889       -23.0450
  30   2.0000      -0.845240       -23.0002
  31   2.0000      -0.815503       -22.1910
  32   2.0000      -0.783098       -21.3092
  33   2.0000      -0.771889       -21.0042
  34   2.0000      -0.707757       -19.2590
  35   2.0000      -0.694112       -18.8878
  36   2.0000      -0.681432       -18.5427
  37   2.0000      -0.660387       -17.9701
  38   2.0000      -0.638352       -17.3704
  39   2.0000      -0.619903       -16.8684
  40   2.0000      -0.596597       -16.2342
  41   2.0000      -0.573500       -15.6057
  42   2.0000      -0.561129       -15.2691
  43   2.0000      -0.552988       -15.0476
  44   2.0000      -0.549154       -14.9433
  45   2.0000      -0.543716       -14.7953
  46   2.0000      -0.516263       -14.0482
  47   2.0000      -0.514955       -14.0127
  48   2.0000      -0.501904       -13.6575
  49   2.0000      -0.490635       -13.3508
  50   2.0000      -0.483048       -13.1444
  51   2.0000      -0.475648       -12.9430
  52   2.0000      -0.472645       -12.8613
  53   2.0000      -0.464057       -12.6276
  54   2.0000      -0.462383       -12.5821
  55   2.0000      -0.441836       -12.0230
  56   2.0000      -0.439761       -11.9665
  57   2.0000      -0.435552       -11.8520
  58   2.0000      -0.432336       -11.7644
  59   2.0000      -0.423274       -11.5179
  60   2.0000      -0.418318       -11.3830
  61   2.0000      -0.416382       -11.3303
  62   2.0000      -0.410163       -11.1611
  63   2.0000      -0.335609        -9.1324
  64   2.0000      -0.328291        -8.9332
  65   2.0000      -0.319615        -8.6972
  66   2.0000      -0.313848        -8.5402
  67   0.0000       0.038379         1.0443
  68   0.0000       0.062912         1.7119
  69   0.0000       0.114542         3.1169
  70   0.0000       0.123249         3.3538
  71   0.0000       0.129602         3.5266

MULLIKEN ATOMIC CHARGES
-----------------------
   0 S :    0.114698
   1 C :   -0.130988
   2 C :   -0.119113
   3 C :    0.049457
   4 C :   -0.181470
   5 H :    0.013140
   6 C :    0.027797
   7 H :    0.013356
   8 H :    0.032307
   9 C :    0.004181
  10 H :    0.013652
  11 H :    0.021990
  12 C :   -0.066229
  13 H :    0.024646
  14 H :    0.033931
  15 H :    0.052060
  16 S :    0.121170
  17 C :   -0.095685
  18 C :   -0.022696
  19 C :   -0.000149
  20 C :   -0.179130
  21 H :    0.005941
  22 C :    0.062202
  23 H :    0.024250
  24 H :    0.022175
  25 C :   -0.105232
  26 H :    0.033569
  27 H :    0.044522
  28 C :   -0.068423
  29 H :    0.040259
  30 H :    0.045408
  31 H :    0.033496
  32 H :    0.066464
  33 H :    0.068443
Sum of atomic charges:   -0.0000000

LOEWDIN ATOMIC CHARGES
----------------------
   0 S :    0.405225
   1 C :   -0.197847
   2 C :   -0.073791
   3 C :   -0.058864
   4 C :   -0.199793
   5 H :    0.032236
   6 C :   -0.036828
   7 H :    0.033125
   8 H :    0.030800
   9 C :   -0.035665
  10 H :    0.016093
  11 H :    0.024830
  12 C :   -0.064074
  13 H :    0.025094
  14 H :    0.025138
  15 H :    0.032820
  16 S :    0.423345
  17 C :   -0.192697
  18 C :   -0.069792
  19 C :   -0.048123
  20 C :   -0.219414
  21 H :    0.024582
  22 C :   -0.039080
  23 H :    0.035396
  24 H :    0.029545
  25 C :   -0.047253
  26 H :    0.027624
  27 H :    0.031485
  28 C :   -0.072850
  29 H :    0.024602
  30 H :    0.030325
  31 H :    0.025992
  32 H :    0.040209
  33 H :    0.037605

  Mayer bond orders larger than 0.100000
B(  0-S ,  1-C ) :   1.1445 B(  0-S ,  4-C ) :   1.1407 B(  1-C ,  2-C ) :   1.6216
B(  1-C , 32-H ) :   0.9553 B(  2-C ,  3-C ) :   1.2191 B(  2-C ,  6-C ) :   1.0182
B(  3-C ,  4-C ) :   1.6225 B(  3-C ,  5-H ) :   0.9960 B(  4-C , 20-C ) :   1.0014
B(  6-C ,  7-H ) :   0.9406 B(  6-C ,  8-H ) :   0.9469 B(  6-C ,  9-C ) :   1.0700
B(  9-C , 10-H ) :   0.9501 B(  9-C , 11-H ) :   0.9495 B(  9-C , 12-C ) :   1.1009
B( 12-C , 13-H ) :   0.9692 B( 12-C , 14-H ) :   0.9747 B( 12-C , 15-H ) :   0.9629
B( 16-S , 17-C ) :   1.1505 B( 16-S , 20-C ) :   1.1610 B( 17-C , 18-C ) :   1.6062
B( 17-C , 33-H ) :   0.9661 B( 18-C , 19-C ) :   1.2415 B( 18-C , 21-H ) :   0.9926
B( 19-C , 20-C ) :   1.5882 B( 19-C , 22-C ) :   1.0511 B( 22-C , 23-H ) :   0.9406
B( 22-C , 24-H ) :   0.9233 B( 22-C , 25-C ) :   1.0688 B( 25-C , 26-H ) :   0.9545
B( 25-C , 27-H ) :   0.9513 B( 25-C , 28-C ) :   1.0744 B( 28-C , 29-H ) :   0.9743
B( 28-C , 30-H ) :   0.9758 B( 28-C , 31-H ) :   0.9722

Dispersion correction           -0.014910194
FINAL SINGLE POINT ENERGY     -1339.880776334714

DIPOLE MOMENT
-------------
                                X             Y             Z
Electronic contribution:     21.80080     -10.34014      12.23190
Nuclear contribution   :    -22.22231      10.64191     -12.51746
                        -----------------------------------------
Total Dipole Moment    :     -0.42151       0.30176      -0.28556
                        -----------------------------------------
Magnitude (a.u.)       :      0.59184
Magnitude (Debye)      :      1.50435

Rotational constants in cm-1:     0.019439     0.009030     0.006968
Rotational constants in MHz :   582.778272   270.714462   208.905313

                             ****ORCA TERMINATED NORMALLY****
TOTAL RUN TIME: 0 days 0 hours 0 minutes 22 seconds 275 msec
