                         Program Version 4.2.1 -  RELEASE  -
|  1> ! wB97X-D3 SP def2-SVP
|  2> %pal
|  3> nprocs 24
|  4> end
|  5>
|  6> * xyz 0 1
|  7> S 	 -79.3743 	 -21.2752 	 -53.1175
|  8> C 	 -79.1596 	 -20.3991 	 -51.5752
|  9> C 	 -78.9564 	 -21.3291 	 -50.5861
| 10> C 	 -78.6293 	 -22.6229 	 -51.0298
| 11> C 	 -78.7566 	 -22.7874 	 -52.4058
| 12> H 	 -78.2831 	 -23.3409 	 -50.4374
| 13> C 	 -78.9542 	 -20.9138 	 -49.0919
| 14> H 	 -79.7554 	 -20.1519 	 -48.9867
| 15> H 	 -78.0813 	 -20.257 	 -48.8469
| 16> C 	 -79.062 	 -22.0794 	 -48.1184
| 17> H 	 -78.1893 	 -22.7231 	 -48.1914
| 18> H 	 -78.9405 	 -21.5799 	 -47.1297
| 19> C 	 -80.3955 	 -22.7832 	 -48.1242
| 20> H 	 -80.218 	 -23.7353 	 -47.7281
| 21> H 	 -81.0935 	 -22.2727 	 -47.5388
| 22> H 	 -80.859 	 -22.88 	 -49.152
| 23> S 	 -79.9943 	 -24.31 	 -54.3708
| 24> C 	 -79.4492 	 -25.9546 	 -54.6085
| 25> C 	 -78.3353 	 -26.2279 	 -53.8691
| 26> C 	 -77.8487 	 -25.1673 	 -53.0529
| 27> C 	 -78.6918 	 -24.0496 	 -53.1162
| 28> H 	 -77.82 	 -27.2191 	 -54.1109
| 29> C 	 -76.7461 	 -25.2793 	 -52.1073
| 30> H 	 -76.7031 	 -26.3001 	 -51.7092
| 31> H 	 -76.9373 	 -24.7561 	 -51.2319
| 32> C 	 -75.2934 	 -24.9832 	 -52.5341
| 33> H 	 -74.9616 	 -25.8274 	 -53.17
| 34> H 	 -74.7072 	 -25.0446 	 -51.6075
| 35> C 	 -75.173 	 -23.4884 	 -52.9888
| 36> H 	 -75.9783 	 -23.2993 	 -53.7331
| 37> H 	 -74.2587 	 -23.2741 	 -53.4848
| 38> H 	 -75.4183 	 -22.6772 	 -52.2748
| 39> H 	 -79.3122 	 -19.3162 	 -51.4378
| 40> H 	 -79.8958 	 -26.6821 	 -55.2718
| 41> *
| 42>
| 43>                          ****END OF INPUT****

CARTESIAN COORDINATES (ANGSTROEM)
---------------------------------
  S    -79.374300  -21.275200  -53.117500
  C    -79.159600  -20.399100  -51.575200
  C    -78.956400  -21.329100  -50.586100
  C    -78.629300  -22.622900  -51.029800
  C    -78.756600  -22.787400  -52.405800
  H    -78.283100  -23.340900  -50.437400
  C    -78.954200  -20.913800  -49.091900
  H    -79.755400  -20.151900  -48.986700
  H    -78.081300  -20.257000  -48.846900
  C    -79.062000  -22.079400  -48.118400
  H    -78.189300  -22.723100  -48.191400
  H    -78.940500  -21.579900  -47.129700
  C    -80.395500  -22.783200  -48.124200
  H    -80.218000  -23.735300  -47.728100
  H    -81.093500  -22.272700  -47.538800
  H    -80.859000  -22.880000  -49.152000
  S    -79.994300  -24.310000  -54.370800
  C    -79.449200  -25.954600  -54.608500
  C    -78.335300  -26.227900  -53.869100
  C    -77.848700  -25.167300  -53.052900
  C    -78.691800  -24.049600  -53.116200
  H    -77.820000  -27.219100  -54.110900
  C    -76.746100  -25.279300  -52.107300
  H    -76.703100  -26.300100  -51.709200
  H    -76.937300  -24.756100  -51.231900
  C    -75.293400  -24.983200  -52.534100
  H    -74.961600  -25.827400  -53.170000
  H    -74.707200  -25.044600  -51.607500
  C    -75.173000  -23.488400  -52.988800
  H    -75.978300  -23.299300  -53.733100
  H    -74.258700  -23.274100  -53.484800
  H    -75.418300  -22.677200  -52.274800
  H    -79.312200  -19.316200  -51.437800
  H    -79.895800  -26.682100  -55.271800

 Total Charge           Charge          ....    0
 Multiplicity           Mult            ....    1
 Number of Electrons    NEL             ....  134
 Basis Dimension        Dim             ....  322

ORBITAL ENERGIES
----------------

  NO   OCC          E(Eh)            E(eV)
   0   2.0000     -88.966989     -2420.9148
   1   2.0000     -88.964524     -2420.8478
   2   2.0000     -10.335641      -281.2471
   3   2.0000     -10.334997      -281.2296
   4   2.0000     -10.316740      -280.7328
   5   2.0000     -10.315437      -280.6973
   6   2.0000     -10.304497      -280.3996
   7   2.0000     -10.299824      -280.2725
   8   2.0000     -10.296757      -280.1890
   9   2.0000     -10.296629      -280.1855
  10   2.0000     -10.291698      -280.0513
  11   2.0000     -10.288657      -279.9686
  12   2.0000     -10.286499      -279.9099
  13   2.0000     -10.281567      -279.7757
  14   2.0000     -10.272811      -279.5374
  15   2.0000     -10.270415      -279.4722
  16   2.0000      -8.080494      -219.8814
  17   2.0000      -8.078327      -219.8225
  18   2.0000      -6.039193      -164.3348
  19   2.0000      -6.036891      -164.2722
  20   2.0000      -6.035231      -164.2270
  21   2.0000      -6.033106      -164.1691
  22   2.0000      -6.031064      -164.1136
  23   2.0000      -6.028941      -164.0558
  24   2.0000      -1.002641       -27.2833
  25   2.0000      -0.980666       -26.6853
  26   2.0000      -0.912617       -24.8336
  27   2.0000      -0.911071       -24.7915
  28   2.0000      -0.870904       -23.6985
  29   2.0000      -0.848270       -23.0826
  30   2.0000      -0.840621       -22.8745
  31   2.0000      -0.816263       -22.2116
  32   2.0000      -0.785585       -21.3769
  33   2.0000      -0.774839       -21.0844
  34   2.0000      -0.716365       -19.4933
  35   2.0000      -0.698503       -19.0072
  36   2.0000      -0.691909       -18.8278
  37   2.0000      -0.654631       -17.8134
  38   2.0000      -0.641501       -17.4561
  39   2.0000      -0.630280       -17.1508
  40   2.0000      -0.600283       -16.3345
  41   2.0000      -0.563576       -15.3357
  42   2.0000      -0.554416       -15.0864
  43   2.0000      -0.546892       -14.8817
  44   2.0000      -0.540212       -14.6999
  45   2.0000      -0.533163       -14.5081
  46   2.0000      -0.522857       -14.2276
  47   2.0000      -0.510819       -13.9001
  48   2.0000      -0.506107       -13.7719
  49   2.0000      -0.499996       -13.6056
  50   2.0000      -0.492300       -13.3962
  51   2.0000      -0.482766       -13.1367
  52   2.0000      -0.471264       -12.8238
  53   2.0000      -0.468651       -12.7526
  54   2.0000      -0.456918       -12.4334
  55   2.0000      -0.443284       -12.0624
  56   2.0000      -0.439935       -11.9712
  57   2.0000      -0.435464       -11.8496
  58   2.0000      -0.432002       -11.7554
  59   2.0000      -0.427068       -11.6211
  60   2.0000      -0.421200       -11.4614
  61   2.0000      -0.407526       -11.0894
  62   2.0000      -0.403989       -10.9931
  63   2.0000      -0.354719        -9.6524
  64   2.0000      -0.333060        -9.0630
  65   2.0000      -0.328054        -8.9268
  66   2.0000      -0.281594        -7.6626
  67   0.0000       0.018176         0.4946
  68   0.0000       0.066454         1.8083
  69   0.0000       0.103136         2.8065
  70   0.0000       0.117835         3.2065
  71   0.0000       0.129646         3.5279

MULLIKEN ATOMIC CHARGES
-----------------------
   0 S :    0.093600
   1 C :   -0.137778
   2 C :   -0.070114
   3 C :    0.064897
   4 C :   -0.103028
   5 H :   -0.053836
   6 C :    0.028136
   7 H :    0.022479
   8 H :    0.042120
   9 C :   -0.092655
  10 H :    0.032874
  11 H :    0.028355
  12 C :   -0.008781
  13 H :    0.022588
  14 H :    0.020675
  15 H :    0.052211
  16 S :    0.084343
  17 C :   -0.084160
  18 C :   -0.064047
  19 C :    0.001336
  20 C :   -0.156476
  21 H :    0.043580
  22 C :    0.054241
  23 H :    0.016208
  24 H :   -0.014227
  25 C :   -0.051906
  26 H :    0.039590
  27 H :    0.029280
  28 C :   -0.064415
  29 H :    0.036117
  30 H :    0.030772
  31 H :    0.041525
  32 H :    0.061018
  33 H :    0.055479
Sum of atomic charges:    0.0000000

LOEWDIN ATOMIC CHARGES
----------------------
   0 S :    0.376640
   1 C :   -0.189436
   2 C :   -0.062148
   3 C :   -0.050464
   4 C :   -0.174354
   5 H :    0.003621
   6 C :   -0.039675
   7 H :    0.030884
   8 H :    0.036335
   9 C :   -0.048687
  10 H :    0.021450
  11 H :    0.033323
  12 C :   -0.058578
  13 H :    0.022074
  14 H :    0.019802
  15 H :    0.036854
  16 S :    0.368508
  17 C :   -0.183682
  18 C :   -0.081206
  19 C :   -0.059765
  20 C :   -0.161032
  21 H :    0.045005
  22 C :   -0.038256
  23 H :    0.035991
  24 H :    0.019319
  25 C :   -0.032693
  26 H :    0.028046
  27 H :    0.026430
  28 C :   -0.076278
  29 H :    0.030477
  30 H :    0.019105
  31 H :    0.034338
  32 H :    0.036411
  33 H :    0.031640

  Mayer bond orders larger than 0.100000
B(  0-S ,  1-C ) :   1.1191 B(  0-S ,  4-C ) :   1.1431 B(  1-C ,  2-C ) :   1.6079
B(  1-C ,  4-C ) :   0.1042 B(  1-C , 32-H ) :   0.9721 B(  2-C ,  3-C ) :   1.2666
B(  2-C ,  6-C ) :   0.9945 B(  3-C ,  4-C ) :   1.5196 B(  3-C ,  5-H ) :   1.0136
B(  4-C , 20-C ) :   1.0911 B(  6-C ,  7-H ) :   0.9440 B(  6-C ,  8-H ) :   0.9402
B(  6-C ,  9-C ) :   1.0880 B(  9-C , 10-H ) :   0.9535 B(  9-C , 11-H ) :   0.9487
B(  9-C , 12-C ) :   1.0688 B( 12-C , 13-H ) :   0.9720 B( 12-C , 14-H ) :   0.9731
B( 12-C , 15-H ) :   0.9781 B( 16-S , 17-C ) :   1.1365 B( 16-S , 20-C ) :   1.1163
B( 17-C , 18-C ) :   1.6495 B( 17-C , 33-H ) :   0.9644 B( 18-C , 19-C ) :   1.2230
B( 18-C , 21-H ) :   0.9739 B( 19-C , 20-C ) :   1.5785 B( 19-C , 22-C ) :   1.0525
B( 22-C , 23-H ) :   0.9231 B( 22-C , 24-H ) :   0.9327 B( 22-C , 25-C ) :   1.0812
B( 25-C , 26-H ) :   0.9604 B( 25-C , 27-H ) :   0.9527 B( 25-C , 28-C ) :   1.0578
B( 28-C , 29-H ) :   0.9758 B( 28-C , 30-H ) :   0.9767 B( 28-C , 31-H ) :   0.9727

Dispersion correction           -0.015356019
FINAL SINGLE POINT ENERGY     -1339.856897778471

DIPOLE MOMENT
-------------
                                X             Y             Z
Electronic contribution:    -12.12412       2.21585     -20.43322
Nuclear contribution   :     12.39333      -2.39630      21.12040
                        -----------------------------------------
Total Dipole Moment    :      0.26921      -0.18045       0.68718
                        -----------------------------------------
Magnitude (a.u.)       :      0.75977
Magnitude (Debye)      :      1.93118

Rotational constants in cm-1:     0.018020     0.009378     0.008309
Rotational constants in MHz :   540.220368   281.152487   249.107196

                             ****ORCA TERMINATED NORMALLY****
TOTAL RUN TIME: 0 days 0 hours 0 minutes 21 seconds 494 msec
