                         Program Version 4.2.1 -  RELEASE  -
|  1> ! wB97X-D3 SP def2-SVP
|  2> %pal
|  3> nprocs 24
|  4> end
|  5>
|  6> * xyz 0 1
|  7> S 	 -43.1377 	 -2.12555 	 -22.0742
|  8> C 	 -44.7755 	 -2.61974 	 -21.9662
|  9> C 	 -44.9251 	 -3.83963 	 -21.3045
| 10> C 	 -43.7058 	 -4.15646 	 -20.5918
| 11> C 	 -42.6962 	 -3.24919 	 -20.8133
| 12> H 	 -43.505 	 -4.97091 	 -19.8374
| 13> C 	 -46.2172 	 -4.63619 	 -21.1557
| 14> H 	 -46.988 	 -4.06444 	 -20.685
| 15> H 	 -46.0952 	 -5.55172 	 -20.4793
| 16> C 	 -46.9325 	 -5.15124 	 -22.4277
| 17> H 	 -48.0101 	 -5.38775 	 -22.1236
| 18> H 	 -47.1182 	 -4.29979 	 -23.087
| 19> C 	 -46.1584 	 -6.09515 	 -23.3226
| 20> H 	 -45.6309 	 -6.87187 	 -22.7495
| 21> H 	 -46.8931 	 -6.57156 	 -23.9694
| 22> H 	 -45.4465 	 -5.57737 	 -24.0091
| 23> S 	 -40.0887 	 -2.49434 	 -21.0696
| 24> C 	 -39.0225 	 -2.43589 	 -19.659
| 25> C 	 -39.5956 	 -3.16457 	 -18.5906
| 26> C 	 -40.954 	 -3.47685 	 -18.8424
| 27> C 	 -41.3899 	 -3.08343 	 -20.0941
| 28> H 	 -38.9797 	 -3.19907 	 -17.6723
| 29> C 	 -41.7718 	 -4.17544 	 -17.8488
| 30> H 	 -42.7649 	 -3.81169 	 -17.9631
| 31> H 	 -41.5825 	 -3.90027 	 -16.8465
| 32> C 	 -41.8592 	 -5.71279 	 -18.0719
| 33> H 	 -40.9288 	 -6.15816 	 -17.7924
| 34> H 	 -42.0056 	 -5.91764 	 -19.1428
| 35> C 	 -43.0444 	 -6.23481 	 -17.1987
| 36> H 	 -43.1028 	 -7.33319 	 -17.371
| 37> H 	 -43.9805 	 -5.73718 	 -17.4438
| 38> H 	 -42.9446 	 -6.24101 	 -16.138
| 39> H 	 -45.6569 	 -2.06956 	 -22.2941
| 40> H 	 -37.9154 	 -2.34416 	 -19.6429
| 41> *
| 42>
| 43>                          ****END OF INPUT****

CARTESIAN COORDINATES (ANGSTROEM)
---------------------------------
  S    -43.137700   -2.125550  -22.074200
  C    -44.775500   -2.619740  -21.966200
  C    -44.925100   -3.839630  -21.304500
  C    -43.705800   -4.156460  -20.591800
  C    -42.696200   -3.249190  -20.813300
  H    -43.505000   -4.970910  -19.837400
  C    -46.217200   -4.636190  -21.155700
  H    -46.988000   -4.064440  -20.685000
  H    -46.095200   -5.551720  -20.479300
  C    -46.932500   -5.151240  -22.427700
  H    -48.010100   -5.387750  -22.123600
  H    -47.118200   -4.299790  -23.087000
  C    -46.158400   -6.095150  -23.322600
  H    -45.630900   -6.871870  -22.749500
  H    -46.893100   -6.571560  -23.969400
  H    -45.446500   -5.577370  -24.009100
  S    -40.088700   -2.494340  -21.069600
  C    -39.022500   -2.435890  -19.659000
  C    -39.595600   -3.164570  -18.590600
  C    -40.954000   -3.476850  -18.842400
  C    -41.389900   -3.083430  -20.094100
  H    -38.979700   -3.199070  -17.672300
  C    -41.771800   -4.175440  -17.848800
  H    -42.764900   -3.811690  -17.963100
  H    -41.582500   -3.900270  -16.846500
  C    -41.859200   -5.712790  -18.071900
  H    -40.928800   -6.158160  -17.792400
  H    -42.005600   -5.917640  -19.142800
  C    -43.044400   -6.234810  -17.198700
  H    -43.102800   -7.333190  -17.371000
  H    -43.980500   -5.737180  -17.443800
  H    -42.944600   -6.241010  -16.138000
  H    -45.656900   -2.069560  -22.294100
  H    -37.915400   -2.344160  -19.642900

 Total Charge           Charge          ....    0
 Multiplicity           Mult            ....    1
 Number of Electrons    NEL             ....  134
 Basis Dimension        Dim             ....  322

ORBITAL ENERGIES
----------------

  NO   OCC          E(Eh)            E(eV)
   0   2.0000     -88.967342     -2420.9244
   1   2.0000     -88.966980     -2420.9146
   2   2.0000     -10.331238      -281.1273
   3   2.0000     -10.328968      -281.0655
   4   2.0000     -10.319169      -280.7989
   5   2.0000     -10.314541      -280.6729
   6   2.0000     -10.307914      -280.4926
   7   2.0000     -10.300015      -280.2777
   8   2.0000     -10.298415      -280.2341
   9   2.0000     -10.297501      -280.2093
  10   2.0000     -10.297435      -280.2075
  11   2.0000     -10.292395      -280.0703
  12   2.0000     -10.290869      -280.0288
  13   2.0000     -10.282419      -279.7988
  14   2.0000     -10.279236      -279.7122
  15   2.0000     -10.278471      -279.6914
  16   2.0000      -8.082859      -219.9458
  17   2.0000      -8.081641      -219.9126
  18   2.0000      -6.041415      -164.3953
  19   2.0000      -6.040157      -164.3610
  20   2.0000      -6.037397      -164.2859
  21   2.0000      -6.036258      -164.2549
  22   2.0000      -6.033370      -164.1764
  23   2.0000      -6.032313      -164.1476
  24   2.0000      -1.009991       -27.4833
  25   2.0000      -0.986908       -26.8551
  26   2.0000      -0.914101       -24.8739
  27   2.0000      -0.907829       -24.7033
  28   2.0000      -0.864911       -23.5354
  29   2.0000      -0.852446       -23.1962
  30   2.0000      -0.846879       -23.0448
  31   2.0000      -0.814829       -22.1726
  32   2.0000      -0.783132       -21.3101
  33   2.0000      -0.771923       -21.0051
  34   2.0000      -0.712091       -19.3770
  35   2.0000      -0.697380       -18.9767
  36   2.0000      -0.691138       -18.8068
  37   2.0000      -0.664563       -18.0837
  38   2.0000      -0.636382       -17.3168
  39   2.0000      -0.614557       -16.7230
  40   2.0000      -0.594959       -16.1896
  41   2.0000      -0.571163       -15.5421
  42   2.0000      -0.566891       -15.4259
  43   2.0000      -0.549856       -14.9623
  44   2.0000      -0.538117       -14.6429
  45   2.0000      -0.525307       -14.2943
  46   2.0000      -0.512041       -13.9333
  47   2.0000      -0.507637       -13.8135
  48   2.0000      -0.501832       -13.6555
  49   2.0000      -0.498836       -13.5740
  50   2.0000      -0.496454       -13.5092
  51   2.0000      -0.474222       -12.9042
  52   2.0000      -0.473714       -12.8904
  53   2.0000      -0.470539       -12.8040
  54   2.0000      -0.457584       -12.4515
  55   2.0000      -0.450541       -12.2599
  56   2.0000      -0.445473       -12.1219
  57   2.0000      -0.437262       -11.8985
  58   2.0000      -0.436263       -11.8713
  59   2.0000      -0.426082       -11.5943
  60   2.0000      -0.422295       -11.4912
  61   2.0000      -0.415402       -11.3037
  62   2.0000      -0.404717       -11.0129
  63   2.0000      -0.353815        -9.6278
  64   2.0000      -0.334094        -9.0911
  65   2.0000      -0.327318        -8.9068
  66   2.0000      -0.281918        -7.6714
  67   0.0000       0.020403         0.5552
  68   0.0000       0.066287         1.8038
  69   0.0000       0.093731         2.5505
  70   0.0000       0.121524         3.3068
  71   0.0000       0.136020         3.7013

MULLIKEN ATOMIC CHARGES
-----------------------
   0 S :    0.122857
   1 C :   -0.126671
   2 C :   -0.053851
   3 C :   -0.012265
   4 C :   -0.122864
   5 H :    0.011533
   6 C :    0.039975
   7 H :    0.027601
   8 H :    0.035564
   9 C :   -0.116796
  10 H :    0.036820
  11 H :    0.016570
  12 C :   -0.037572
  13 H :    0.031035
  14 H :    0.031352
  15 H :    0.050117
  16 S :    0.092452
  17 C :   -0.099839
  18 C :   -0.074366
  19 C :   -0.045565
  20 C :   -0.106457
  21 H :    0.039047
  22 C :    0.073178
  23 H :    0.004947
  24 H :    0.007863
  25 C :   -0.065108
  26 H :    0.020856
  27 H :    0.045208
  28 C :   -0.050090
  29 H :    0.032657
  30 H :    0.037234
  31 H :    0.028264
  32 H :    0.055709
  33 H :    0.070606
Sum of atomic charges:    0.0000000

LOEWDIN ATOMIC CHARGES
----------------------
   0 S :    0.416248
   1 C :   -0.205090
   2 C :   -0.062033
   3 C :   -0.074045
   4 C :   -0.191854
   5 H :    0.041490
   6 C :   -0.040344
   7 H :    0.030725
   8 H :    0.035936
   9 C :   -0.055380
  10 H :    0.031806
  11 H :    0.021234
  12 C :   -0.069313
  13 H :    0.022997
  14 H :    0.029196
  15 H :    0.035135
  16 S :    0.405046
  17 C :   -0.198842
  18 C :   -0.069310
  19 C :   -0.066051
  20 C :   -0.192661
  21 H :    0.040166
  22 C :   -0.034429
  23 H :    0.025671
  24 H :    0.024951
  25 C :   -0.027584
  26 H :    0.020953
  27 H :    0.025835
  28 C :   -0.068384
  29 H :    0.031235
  30 H :    0.023497
  31 H :    0.023010
  32 H :    0.032584
  33 H :    0.037601

  Mayer bond orders larger than 0.100000
B(  0-S ,  1-C ) :   1.1496 B(  0-S ,  4-C ) :   1.1401 B(  1-C ,  2-C ) :   1.6076
B(  1-C , 32-H ) :   0.9665 B(  2-C ,  3-C ) :   1.2153 B(  2-C ,  6-C ) :   1.0160
B(  3-C ,  4-C ) :   1.5938 B(  3-C ,  5-H ) :   0.9810 B(  4-C , 20-C ) :   1.0206
B(  6-C ,  7-H ) :   0.9378 B(  6-C ,  8-H ) :   0.9485 B(  6-C ,  9-C ) :   1.0811
B(  9-C , 10-H ) :   0.9581 B(  9-C , 11-H ) :   0.9513 B(  9-C , 12-C ) :   1.0637
B( 12-C , 13-H ) :   0.9799 B( 12-C , 14-H ) :   0.9713 B( 12-C , 15-H ) :   0.9731
B( 16-S , 17-C ) :   1.1487 B( 16-S , 20-C ) :   1.1499 B( 17-C , 18-C ) :   1.6121
B( 17-C , 20-C ) :   0.1044 B( 17-C , 33-H ) :   0.9574 B( 18-C , 19-C ) :   1.2524
B( 18-C , 21-H ) :   0.9840 B( 19-C , 20-C ) :   1.5866 B( 19-C , 22-C ) :   1.0554
B( 22-C , 23-H ) :   0.9302 B( 22-C , 24-H ) :   0.9311 B( 22-C , 25-C ) :   1.0460
B( 25-C , 26-H ) :   0.9484 B( 25-C , 27-H ) :   0.9556 B( 25-C , 28-C ) :   1.0702
B( 28-C , 29-H ) :   0.9730 B( 28-C , 30-H ) :   0.9743 B( 28-C , 31-H ) :   0.9746

Dispersion correction           -0.014600404
FINAL SINGLE POINT ENERGY     -1339.856774213019

DIPOLE MOMENT
-------------
                                X             Y             Z
Electronic contribution:     18.38226      20.95680      -8.57337
Nuclear contribution   :    -18.74434     -21.41506       9.04328
                        -----------------------------------------
Total Dipole Moment    :     -0.36208      -0.45826       0.46990
                        -----------------------------------------
Magnitude (a.u.)       :      0.74961
Magnitude (Debye)      :      1.90536

Rotational constants in cm-1:     0.019521     0.009071     0.006721
Rotational constants in MHz :   585.215862   271.949513   201.493368

                             ****ORCA TERMINATED NORMALLY****
TOTAL RUN TIME: 0 days 0 hours 0 minutes 22 seconds 299 msec
