                         Program Version 4.2.1 -  RELEASE  -
|  1> ! wB97X-D3 SP def2-SVP
|  2> %pal
|  3> nprocs 24
|  4> end
|  5>
|  6> * xyz 0 1
|  7> S 	 -73.5436 	 0.666921 	 -108.583
|  8> C 	 -73.7458 	 2.37661 	 -108.37
|  9> C 	 -72.9706 	 3.10771 	 -109.2
| 10> C 	 -72.1753 	 2.30588 	 -110.054
| 11> C 	 -72.2019 	 0.952881 	 -109.717
| 12> H 	 -71.5035 	 2.62977 	 -110.856
| 13> C 	 -73.1755 	 4.62402 	 -109.378
| 14> H 	 -73.6682 	 4.76408 	 -110.364
| 15> H 	 -72.2258 	 5.10823 	 -109.322
| 16> C 	 -74.0323 	 5.26764 	 -108.247
| 17> H 	 -74.9925 	 4.982 	 -108.476
| 18> H 	 -73.8914 	 4.88581 	 -107.252
| 19> C 	 -73.902 	 6.75576 	 -108.322
| 20> H 	 -72.9739 	 7.1815 	 -108.059
| 21> H 	 -74.3422 	 7.02217 	 -109.288
| 22> H 	 -74.5672 	 7.1216 	 -107.632
| 23> S 	 -72.2557 	 -1.18509 	 -111.381
| 24> C 	 -70.7377 	 -2.13238 	 -111.677
| 25> C 	 -69.7488 	 -1.68326 	 -110.812
| 26> C 	 -70.151 	 -0.45534 	 -110.156
| 27> C 	 -71.4622 	 -0.0893395 	 -110.396
| 28> H 	 -68.7703 	 -2.19576 	 -110.682
| 29> C 	 -69.2754 	 0.26633 	 -109.158
| 30> H 	 -69.8137 	 0.32795 	 -108.159
| 31> H 	 -69.1781 	 1.29138 	 -109.481
| 32> C 	 -67.879 	 -0.275659 	 -108.824
| 33> H 	 -67.2326 	 -0.403963 	 -109.682
| 34> H 	 -68.0033 	 -1.29365 	 -108.468
| 35> C 	 -67.133 	 0.638422 	 -107.776
| 36> H 	 -67.6496 	 0.710883 	 -106.833
| 37> H 	 -66.9393 	 1.66255 	 -108.139
| 38> H 	 -66.1983 	 0.18472 	 -107.486
| 39> H 	 -74.4455 	 2.8514 	 -107.755
| 40> H 	 -70.6475 	 -3.09765 	 -112.093
| 41> *
| 42>
| 43>                          ****END OF INPUT****

CARTESIAN COORDINATES (ANGSTROEM)
---------------------------------
  S    -73.543600    0.666921  -108.583000
  C    -73.745800    2.376610  -108.370000
  C    -72.970600    3.107710  -109.200000
  C    -72.175300    2.305880  -110.054000
  C    -72.201900    0.952881  -109.717000
  H    -71.503500    2.629770  -110.856000
  C    -73.175500    4.624020  -109.378000
  H    -73.668200    4.764080  -110.364000
  H    -72.225800    5.108230  -109.322000
  C    -74.032300    5.267640  -108.247000
  H    -74.992500    4.982000  -108.476000
  H    -73.891400    4.885810  -107.252000
  C    -73.902000    6.755760  -108.322000
  H    -72.973900    7.181500  -108.059000
  H    -74.342200    7.022170  -109.288000
  H    -74.567200    7.121600  -107.632000
  S    -72.255700   -1.185090  -111.381000
  C    -70.737700   -2.132380  -111.677000
  C    -69.748800   -1.683260  -110.812000
  C    -70.151000   -0.455340  -110.156000
  C    -71.462200   -0.089340  -110.396000
  H    -68.770300   -2.195760  -110.682000
  C    -69.275400    0.266330  -109.158000
  H    -69.813700    0.327950  -108.159000
  H    -69.178100    1.291380  -109.481000
  C    -67.879000   -0.275659  -108.824000
  H    -67.232600   -0.403963  -109.682000
  H    -68.003300   -1.293650  -108.468000
  C    -67.133000    0.638422  -107.776000
  H    -67.649600    0.710883  -106.833000
  H    -66.939300    1.662550  -108.139000
  H    -66.198300    0.184720  -107.486000
  H    -74.445500    2.851400  -107.755000
  H    -70.647500   -3.097650  -112.093000

 Total Charge           Charge          ....    0
 Multiplicity           Mult            ....    1
 Number of Electrons    NEL             ....  134
 Basis Dimension        Dim             ....  322

ORBITAL ENERGIES
----------------

  NO   OCC          E(Eh)            E(eV)
   0   2.0000     -88.965914     -2420.8856
   1   2.0000     -88.965002     -2420.8608
   2   2.0000     -10.328357      -281.0489
   3   2.0000     -10.316900      -280.7371
   4   2.0000     -10.316723      -280.7323
   5   2.0000     -10.303889      -280.3831
   6   2.0000     -10.300266      -280.2845
   7   2.0000     -10.299750      -280.2704
   8   2.0000     -10.294350      -280.1235
   9   2.0000     -10.293599      -280.1031
  10   2.0000     -10.292798      -280.0813
  11   2.0000     -10.287888      -279.9477
  12   2.0000     -10.287806      -279.9454
  13   2.0000     -10.279479      -279.7188
  14   2.0000     -10.277675      -279.6698
  15   2.0000     -10.267799      -279.4010
  16   2.0000      -8.080321      -219.8767
  17   2.0000      -8.080064      -219.8697
  18   2.0000      -6.038797      -164.3240
  19   2.0000      -6.038671      -164.3206
  20   2.0000      -6.035016      -164.2211
  21   2.0000      -6.034438      -164.2054
  22   2.0000      -6.030984      -164.1114
  23   2.0000      -6.030770      -164.1056
  24   2.0000      -1.008661       -27.4470
  25   2.0000      -0.985073       -26.8052
  26   2.0000      -0.917408       -24.9640
  27   2.0000      -0.902105       -24.5475
  28   2.0000      -0.874036       -23.7837
  29   2.0000      -0.851755       -23.1774
  30   2.0000      -0.843735       -22.9592
  31   2.0000      -0.818530       -22.2733
  32   2.0000      -0.779767       -21.2185
  33   2.0000      -0.766923       -20.8690
  34   2.0000      -0.718973       -19.5642
  35   2.0000      -0.705747       -19.2044
  36   2.0000      -0.697300       -18.9745
  37   2.0000      -0.652147       -17.7458
  38   2.0000      -0.640976       -17.4418
  39   2.0000      -0.609900       -16.5962
  40   2.0000      -0.593651       -16.1541
  41   2.0000      -0.582839       -15.8599
  42   2.0000      -0.571888       -15.5619
  43   2.0000      -0.562823       -15.3152
  44   2.0000      -0.526108       -14.3161
  45   2.0000      -0.522081       -14.2065
  46   2.0000      -0.517472       -14.0811
  47   2.0000      -0.509893       -13.8749
  48   2.0000      -0.508051       -13.8248
  49   2.0000      -0.501242       -13.6395
  50   2.0000      -0.488545       -13.2940
  51   2.0000      -0.479121       -13.0375
  52   2.0000      -0.470635       -12.8066
  53   2.0000      -0.469515       -12.7761
  54   2.0000      -0.457217       -12.4415
  55   2.0000      -0.450728       -12.2649
  56   2.0000      -0.446770       -12.1572
  57   2.0000      -0.437960       -11.9175
  58   2.0000      -0.428139       -11.6502
  59   2.0000      -0.426488       -11.6053
  60   2.0000      -0.424495       -11.5511
  61   2.0000      -0.418212       -11.3801
  62   2.0000      -0.413946       -11.2640
  63   2.0000      -0.341754        -9.2996
  64   2.0000      -0.330083        -8.9820
  65   2.0000      -0.322410        -8.7732
  66   2.0000      -0.299194        -8.1415
  67   0.0000       0.035575         0.9681
  68   0.0000       0.061246         1.6666
  69   0.0000       0.113754         3.0954
  70   0.0000       0.121001         3.2926
  71   0.0000       0.139243         3.7890

MULLIKEN ATOMIC CHARGES
-----------------------
   0 S :    0.120806
   1 C :   -0.095484
   2 C :   -0.090430
   3 C :    0.028553
   4 C :   -0.180060
   5 H :    0.024302
   6 C :    0.071259
   7 H :    0.051908
   8 H :    0.023120
   9 C :   -0.115993
  10 H :    0.008061
  11 H :    0.029129
  12 C :    0.046799
  13 H :    0.031418
  14 H :    0.022657
  15 H :   -0.001864
  16 S :    0.107736
  17 C :   -0.068473
  18 C :   -0.068668
  19 C :   -0.050290
  20 C :   -0.155107
  21 H :    0.043072
  22 C :    0.060091
  23 H :    0.045121
  24 H :    0.019550
  25 C :   -0.084640
  26 H :    0.027874
  27 H :    0.024519
  28 C :   -0.031686
  29 H :    0.025816
  30 H :    0.038576
  31 H :    0.024655
  32 H :    0.022302
  33 H :    0.045372
Sum of atomic charges:   -0.0000000

LOEWDIN ATOMIC CHARGES
----------------------
   0 S :    0.397488
   1 C :   -0.192695
   2 C :   -0.070812
   3 C :   -0.053421
   4 C :   -0.186367
   5 H :    0.036038
   6 C :   -0.020822
   7 H :    0.040684
   8 H :    0.023956
   9 C :   -0.038743
  10 H :    0.013103
  11 H :    0.019877
  12 C :   -0.048742
  13 H :    0.021556
  14 H :    0.031704
  15 H :    0.017191
  16 S :    0.421254
  17 C :   -0.174487
  18 C :   -0.067239
  19 C :   -0.059111
  20 C :   -0.233739
  21 H :    0.040550
  22 C :   -0.040983
  23 H :    0.042386
  24 H :    0.028553
  25 C :   -0.042099
  26 H :    0.019345
  27 H :    0.021106
  28 C :   -0.060868
  29 H :    0.022979
  30 H :    0.028487
  31 H :    0.024708
  32 H :    0.016431
  33 H :    0.022734

  Mayer bond orders larger than 0.100000
B(  0-S ,  1-C ) :   1.1265 B(  0-S ,  4-C ) :   1.1340 B(  1-C ,  2-C ) :   1.6441
B(  1-C , 32-H ) :   0.9575 B(  2-C ,  3-C ) :   1.2412 B(  2-C ,  6-C ) :   1.0063
B(  3-C ,  4-C ) :   1.5875 B(  3-C ,  5-H ) :   0.9906 B(  4-C , 20-C ) :   1.0443
B(  6-C ,  7-H ) :   0.9370 B(  6-C ,  8-H ) :   0.9436 B(  6-C ,  9-C ) :   1.0777
B(  9-C , 10-H ) :   0.9418 B(  9-C , 11-H ) :   0.9564 B(  9-C , 12-C ) :   1.0981
B( 12-C , 13-H ) :   0.9749 B( 12-C , 14-H ) :   0.9669 B( 12-C , 15-H ) :   0.9612
B( 16-S , 17-C ) :   1.1432 B( 16-S , 20-C ) :   1.1572 B( 17-C , 18-C ) :   1.6086
B( 17-C , 33-H ) :   0.9639 B( 18-C , 19-C ) :   1.2667 B( 18-C , 21-H ) :   0.9743
B( 19-C , 20-C ) :   1.5865 B( 19-C , 22-C ) :   1.0410 B( 22-C , 23-H ) :   0.9259
B( 22-C , 24-H ) :   0.9258 B( 22-C , 25-C ) :   1.0796 B( 25-C , 26-H ) :   0.9525
B( 25-C , 27-H ) :   0.9479 B( 25-C , 28-C ) :   1.0817 B( 28-C , 29-H ) :   0.9758
B( 28-C , 30-H ) :   0.9764 B( 28-C , 31-H ) :   0.9729

Dispersion correction           -0.013404002
FINAL SINGLE POINT ENERGY     -1339.862406813856

DIPOLE MOMENT
-------------
                                X             Y             Z
Electronic contribution:    -12.57253     -21.25708     -10.68666
Nuclear contribution   :     12.83442      21.71487      10.91923
                        -----------------------------------------
Total Dipole Moment    :      0.26190       0.45779       0.23257
                        -----------------------------------------
Magnitude (a.u.)       :      0.57641
Magnitude (Debye)      :      1.46512

Rotational constants in cm-1:     0.019508     0.007426     0.005967
Rotational constants in MHz :   584.829214   222.633234   178.893531

                             ****ORCA TERMINATED NORMALLY****
TOTAL RUN TIME: 0 days 0 hours 0 minutes 20 seconds 844 msec
