                         Program Version 4.2.1 -  RELEASE  -
|  1> ! wB97X-D3 SP def2-SVP
|  2> %pal
|  3> nprocs 24
|  4> end
|  5>
|  6> * xyz 0 1
|  7> S 	 -46.7955 	 13.9614 	 -106.457
|  8> C 	 -47.795 	 12.6351 	 -105.772
|  9> C 	 -48.6474 	 13.0739 	 -104.816
| 10> C 	 -48.6383 	 14.5237 	 -104.693
| 11> C 	 -47.7557 	 15.1654 	 -105.564
| 12> H 	 -49.2744 	 15.122 	 -104.042
| 13> C 	 -49.3947 	 12.2142 	 -103.816
| 14> H 	 -49.1903 	 12.7096 	 -102.872
| 15> H 	 -48.8038 	 11.2779 	 -103.809
| 16> C 	 -50.9001 	 11.9833 	 -104.285
| 17> H 	 -50.9117 	 11.6026 	 -105.263
| 18> H 	 -51.3181 	 11.0483 	 -103.827
| 19> C 	 -51.793 	 13.2421 	 -104.146
| 20> H 	 -51.4657 	 14.0746 	 -104.779
| 21> H 	 -52.8221 	 13.1236 	 -104.564
| 22> H 	 -51.8791 	 13.6399 	 -103.099
| 23> S 	 -45.7271 	 17.0455 	 -105.606
| 24> C 	 -46.3083 	 18.6833 	 -105.523
| 25> C 	 -47.6634 	 18.8837 	 -105.52
| 26> C 	 -48.3019 	 17.6013 	 -105.594
| 27> C 	 -47.4282 	 16.5341 	 -105.661
| 28> H 	 -48.102 	 19.8993 	 -105.438
| 29> C 	 -49.8064 	 17.5618 	 -105.652
| 30> H 	 -50.1975 	 18.6073 	 -105.656
| 31> H 	 -50.2588 	 17.2601 	 -104.677
| 32> C 	 -50.2983 	 16.8758 	 -106.86
| 33> H 	 -49.9282 	 15.8143 	 -106.917
| 34> H 	 -49.8419 	 17.2615 	 -107.749
| 35> C 	 -51.8222 	 17.0366 	 -107.048
| 36> H 	 -52.1572 	 16.3781 	 -107.856
| 37> H 	 -52.1459 	 18.0669 	 -107.228
| 38> H 	 -52.3309 	 16.846 	 -106.073
| 39> H 	 -47.5492 	 11.612 	 -105.949
| 40> H 	 -45.5789 	 19.4805 	 -105.468
| 41> *
| 42>
| 43>                          ****END OF INPUT****

CARTESIAN COORDINATES (ANGSTROEM)
---------------------------------
  S    -46.795500   13.961400  -106.457000
  C    -47.795000   12.635100  -105.772000
  C    -48.647400   13.073900  -104.816000
  C    -48.638300   14.523700  -104.693000
  C    -47.755700   15.165400  -105.564000
  H    -49.274400   15.122000  -104.042000
  C    -49.394700   12.214200  -103.816000
  H    -49.190300   12.709600  -102.872000
  H    -48.803800   11.277900  -103.809000
  C    -50.900100   11.983300  -104.285000
  H    -50.911700   11.602600  -105.263000
  H    -51.318100   11.048300  -103.827000
  C    -51.793000   13.242100  -104.146000
  H    -51.465700   14.074600  -104.779000
  H    -52.822100   13.123600  -104.564000
  H    -51.879100   13.639900  -103.099000
  S    -45.727100   17.045500  -105.606000
  C    -46.308300   18.683300  -105.523000
  C    -47.663400   18.883700  -105.520000
  C    -48.301900   17.601300  -105.594000
  C    -47.428200   16.534100  -105.661000
  H    -48.102000   19.899300  -105.438000
  C    -49.806400   17.561800  -105.652000
  H    -50.197500   18.607300  -105.656000
  H    -50.258800   17.260100  -104.677000
  C    -50.298300   16.875800  -106.860000
  H    -49.928200   15.814300  -106.917000
  H    -49.841900   17.261500  -107.749000
  C    -51.822200   17.036600  -107.048000
  H    -52.157200   16.378100  -107.856000
  H    -52.145900   18.066900  -107.228000
  H    -52.330900   16.846000  -106.073000
  H    -47.549200   11.612000  -105.949000
  H    -45.578900   19.480500  -105.468000

 Total Charge           Charge          ....    0
 Multiplicity           Mult            ....    1
 Number of Electrons    NEL             ....  134
 Basis Dimension        Dim             ....  322

ORBITAL ENERGIES
----------------

  NO   OCC          E(Eh)            E(eV)
   0   2.0000     -88.969311     -2420.9780
   1   2.0000     -88.960590     -2420.7407
   2   2.0000     -10.328122      -281.0425
   3   2.0000     -10.321788      -280.8701
   4   2.0000     -10.316884      -280.7367
   5   2.0000     -10.310577      -280.5651
   6   2.0000     -10.302669      -280.3499
   7   2.0000     -10.299295      -280.2581
   8   2.0000     -10.298740      -280.2430
   9   2.0000     -10.297447      -280.2078
  10   2.0000     -10.295274      -280.1486
  11   2.0000     -10.295187      -280.1463
  12   2.0000     -10.292246      -280.0663
  13   2.0000     -10.287369      -279.9335
  14   2.0000     -10.279505      -279.7196
  15   2.0000     -10.278411      -279.6898
  16   2.0000      -8.083979      -219.9762
  17   2.0000      -8.074567      -219.7201
  18   2.0000      -6.042434      -164.4230
  19   2.0000      -6.038770      -164.3233
  20   2.0000      -6.034525      -164.2078
  21   2.0000      -6.033302      -164.1745
  22   2.0000      -6.029310      -164.0659
  23   2.0000      -6.025042      -163.9497
  24   2.0000      -1.006132       -27.3783
  25   2.0000      -0.978216       -26.6186
  26   2.0000      -0.915272       -24.9058
  27   2.0000      -0.905837       -24.6491
  28   2.0000      -0.869313       -23.6552
  29   2.0000      -0.852031       -23.1849
  30   2.0000      -0.837410       -22.7871
  31   2.0000      -0.811532       -22.0829
  32   2.0000      -0.782915       -21.3042
  33   2.0000      -0.769178       -20.9304
  34   2.0000      -0.712213       -19.3803
  35   2.0000      -0.710589       -19.3361
  36   2.0000      -0.691904       -18.8277
  37   2.0000      -0.663931       -18.0665
  38   2.0000      -0.637149       -17.3377
  39   2.0000      -0.613431       -16.6923
  40   2.0000      -0.598758       -16.2930
  41   2.0000      -0.562552       -15.3078
  42   2.0000      -0.556934       -15.1549
  43   2.0000      -0.542828       -14.7711
  44   2.0000      -0.535505       -14.5718
  45   2.0000      -0.525934       -14.3114
  46   2.0000      -0.516887       -14.0652
  47   2.0000      -0.509663       -13.8686
  48   2.0000      -0.499988       -13.6054
  49   2.0000      -0.494132       -13.4460
  50   2.0000      -0.493627       -13.4323
  51   2.0000      -0.480411       -13.0727
  52   2.0000      -0.473430       -12.8827
  53   2.0000      -0.459576       -12.5057
  54   2.0000      -0.458188       -12.4679
  55   2.0000      -0.452556       -12.3147
  56   2.0000      -0.442132       -12.0310
  57   2.0000      -0.441139       -12.0040
  58   2.0000      -0.434915       -11.8346
  59   2.0000      -0.430591       -11.7170
  60   2.0000      -0.421897       -11.4804
  61   2.0000      -0.408016       -11.1027
  62   2.0000      -0.397738       -10.8230
  63   2.0000      -0.351043        -9.5524
  64   2.0000      -0.335970        -9.1422
  65   2.0000      -0.326783        -8.8922
  66   2.0000      -0.285067        -7.7571
  67   0.0000       0.024128         0.6565
  68   0.0000       0.070380         1.9151
  69   0.0000       0.101573         2.7640
  70   0.0000       0.120650         3.2831
  71   0.0000       0.124230         3.3805

MULLIKEN ATOMIC CHARGES
-----------------------
   0 S :    0.070464
   1 C :   -0.110699
   2 C :   -0.094755
   3 C :    0.031919
   4 C :   -0.181463
   5 H :    0.007492
   6 C :    0.056650
   7 H :    0.040023
   8 H :    0.024031
   9 C :   -0.019114
  10 H :    0.010461
  11 H :    0.028561
  12 C :   -0.082755
  13 H :    0.037811
  14 H :    0.037962
  15 H :    0.043874
  16 S :    0.116267
  17 C :   -0.087228
  18 C :   -0.031732
  19 C :   -0.045678
  20 C :   -0.117650
  21 H :    0.038391
  22 C :    0.052679
  23 H :    0.005820
  24 H :    0.033279
  25 C :   -0.077442
  26 H :    0.055697
  27 H :    0.021535
  28 C :   -0.041091
  29 H :    0.044078
  30 H :    0.026073
  31 H :    0.021678
  32 H :    0.036281
  33 H :    0.048580
Sum of atomic charges:   -0.0000000

LOEWDIN ATOMIC CHARGES
----------------------
   0 S :    0.356539
   1 C :   -0.179309
   2 C :   -0.062158
   3 C :   -0.062342
   4 C :   -0.178000
   5 H :    0.028372
   6 C :   -0.026795
   7 H :    0.033720
   8 H :    0.034026
   9 C :   -0.038088
  10 H :    0.020685
  11 H :    0.029008
  12 C :   -0.078694
  13 H :    0.027655
  14 H :    0.032649
  15 H :    0.030003
  16 S :    0.398921
  17 C :   -0.172448
  18 C :   -0.074016
  19 C :   -0.044552
  20 C :   -0.202671
  21 H :    0.043890
  22 C :   -0.041097
  23 H :    0.031416
  24 H :    0.031018
  25 C :   -0.049140
  26 H :    0.034117
  27 H :    0.024704
  28 C :   -0.066959
  29 H :    0.029682
  30 H :    0.023394
  31 H :    0.024135
  32 H :    0.020865
  33 H :    0.021470

  Mayer bond orders larger than 0.100000
B(  0-S ,  1-C ) :   1.1058 B(  0-S ,  4-C ) :   1.1209 B(  1-C ,  2-C ) :   1.6687
B(  1-C , 32-H ) :   0.9674 B(  2-C ,  3-C ) :   1.1998 B(  2-C ,  6-C ) :   0.9977
B(  3-C ,  4-C ) :   1.5906 B(  3-C ,  5-H ) :   0.9871 B(  4-C , 20-C ) :   1.0960
B(  6-C ,  7-H ) :   0.9542 B(  6-C ,  8-H ) :   0.9431 B(  6-C ,  9-C ) :   1.0495
B(  9-C , 10-H ) :   0.9521 B(  9-C , 11-H ) :   0.9576 B(  9-C , 12-C ) :   1.0705
B( 12-C , 13-H ) :   0.9699 B( 12-C , 14-H ) :   0.9708 B( 12-C , 15-H ) :   0.9773
B( 16-S , 17-C ) :   1.1602 B( 16-S , 20-C ) :   1.1087 B( 17-C , 18-C ) :   1.6267
B( 17-C , 33-H ) :   0.9626 B( 18-C , 19-C ) :   1.2227 B( 18-C , 21-H ) :   0.9881
B( 19-C , 20-C ) :   1.6115 B( 19-C , 22-C ) :   1.0411 B( 22-C , 23-H ) :   0.9319
B( 22-C , 24-H ) :   0.9187 B( 22-C , 25-C ) :   1.0672 B( 25-C , 26-H ) :   0.9483
B( 25-C , 27-H ) :   0.9476 B( 25-C , 28-C ) :   1.0822 B( 28-C , 29-H ) :   0.9740
B( 28-C , 30-H ) :   0.9727 B( 28-C , 31-H ) :   0.9726

Dispersion correction           -0.015673346
FINAL SINGLE POINT ENERGY     -1339.877229804178

DIPOLE MOMENT
-------------
                                X             Y             Z
Electronic contribution:     29.91519       3.86356      -3.62401
Nuclear contribution   :    -30.45069      -3.72434       3.91654
                        -----------------------------------------
Total Dipole Moment    :     -0.53549       0.13922       0.29254
                        -----------------------------------------
Magnitude (a.u.)       :      0.62587
Magnitude (Debye)      :      1.59084

Rotational constants in cm-1:     0.018228     0.010292     0.007502
Rotational constants in MHz :   546.453417   308.547300   224.914142

                             ****ORCA TERMINATED NORMALLY****
TOTAL RUN TIME: 0 days 0 hours 0 minutes 23 seconds 127 msec
