                         Program Version 4.2.1 -  RELEASE  -
|  1> ! wB97X-D3 SP def2-SVP
|  2> %pal
|  3> nprocs 24
|  4> end
|  5>
|  6> * xyz 0 1
|  7> S 	 -106.691 	 26.7829 	 -115.087
|  8> C 	 -107.029 	 28.4012 	 -114.516
|  9> C 	 -108.297 	 28.9394 	 -114.801
| 10> C 	 -109.005 	 28.0169 	 -115.606
| 11> C 	 -108.301 	 26.8221 	 -115.831
| 12> H 	 -109.985 	 27.9423 	 -116.033
| 13> C 	 -108.75 	 30.2736 	 -114.269
| 14> H 	 -109.106 	 30.8568 	 -115.08
| 15> H 	 -107.84 	 30.7376 	 -113.923
| 16> C 	 -109.88 	 30.2974 	 -113.173
| 17> H 	 -109.724 	 29.5548 	 -112.406
| 18> H 	 -109.845 	 31.2878 	 -112.706
| 19> C 	 -111.321 	 29.9958 	 -113.72
| 20> H 	 -111.405 	 29.024 	 -114.241
| 21> H 	 -112.009 	 29.9542 	 -112.849
| 22> H 	 -111.785 	 30.6575 	 -114.49
| 23> S 	 -108.01 	 24.9165 	 -117.777
| 24> C 	 -109.307 	 23.7486 	 -118.084
| 25> C 	 -110.323 	 23.9547 	 -117.204
| 26> C 	 -110.016 	 24.9965 	 -116.273
| 27> C 	 -108.837 	 25.6068 	 -116.492
| 28> H 	 -111.198 	 23.2971 	 -117.264
| 29> C 	 -111.09 	 25.217 	 -115.268
| 30> H 	 -112.038 	 25.5112 	 -115.742
| 31> H 	 -110.779 	 26.0644 	 -114.718
| 32> C 	 -111.37 	 24.1 	 -114.235
| 33> H 	 -111.537 	 23.1718 	 -114.811
| 34> H 	 -112.265 	 24.3119 	 -113.66
| 35> C 	 -110.14 	 23.8217 	 -113.315
| 36> H 	 -109.821 	 24.6481 	 -112.745
| 37> H 	 -109.333 	 23.4075 	 -113.969
| 38> H 	 -110.449 	 22.9694 	 -112.747
| 39> H 	 -106.314 	 29.0049 	 -114.067
| 40> H 	 -109.183 	 23.0007 	 -118.84
| 41> *
| 42>
| 43>                          ****END OF INPUT****

CARTESIAN COORDINATES (ANGSTROEM)
---------------------------------
  S    -106.691000   26.782900  -115.087000
  C    -107.029000   28.401200  -114.516000
  C    -108.297000   28.939400  -114.801000
  C    -109.005000   28.016900  -115.606000
  C    -108.301000   26.822100  -115.831000
  H    -109.985000   27.942300  -116.033000
  C    -108.750000   30.273600  -114.269000
  H    -109.106000   30.856800  -115.080000
  H    -107.840000   30.737600  -113.923000
  C    -109.880000   30.297400  -113.173000
  H    -109.724000   29.554800  -112.406000
  H    -109.845000   31.287800  -112.706000
  C    -111.321000   29.995800  -113.720000
  H    -111.405000   29.024000  -114.241000
  H    -112.009000   29.954200  -112.849000
  H    -111.785000   30.657500  -114.490000
  S    -108.010000   24.916500  -117.777000
  C    -109.307000   23.748600  -118.084000
  C    -110.323000   23.954700  -117.204000
  C    -110.016000   24.996500  -116.273000
  C    -108.837000   25.606800  -116.492000
  H    -111.198000   23.297100  -117.264000
  C    -111.090000   25.217000  -115.268000
  H    -112.038000   25.511200  -115.742000
  H    -110.779000   26.064400  -114.718000
  C    -111.370000   24.100000  -114.235000
  H    -111.537000   23.171800  -114.811000
  H    -112.265000   24.311900  -113.660000
  C    -110.140000   23.821700  -113.315000
  H    -109.821000   24.648100  -112.745000
  H    -109.333000   23.407500  -113.969000
  H    -110.449000   22.969400  -112.747000
  H    -106.314000   29.004900  -114.067000
  H    -109.183000   23.000700  -118.840000

 Total Charge           Charge          ....    0
 Multiplicity           Mult            ....    1
 Number of Electrons    NEL             ....  134
 Basis Dimension        Dim             ....  322

ORBITAL ENERGIES
----------------

  NO   OCC          E(Eh)            E(eV)
   0   2.0000     -88.971218     -2421.0299
   1   2.0000     -88.959195     -2420.7028
   2   2.0000     -10.330596      -281.1098
   3   2.0000     -10.318349      -280.7766
   4   2.0000     -10.315036      -280.6864
   5   2.0000     -10.310204      -280.5549
   6   2.0000     -10.305228      -280.4195
   7   2.0000     -10.296360      -280.1782
   8   2.0000     -10.295967      -280.1675
   9   2.0000     -10.293218      -280.0927
  10   2.0000     -10.292676      -280.0780
  11   2.0000     -10.291462      -280.0449
  12   2.0000     -10.287534      -279.9380
  13   2.0000     -10.286250      -279.9031
  14   2.0000     -10.280561      -279.7483
  15   2.0000     -10.269902      -279.4583
  16   2.0000      -8.085385      -220.0145
  17   2.0000      -8.075668      -219.7501
  18   2.0000      -6.043606      -164.4549
  19   2.0000      -6.040181      -164.3617
  20   2.0000      -6.036294      -164.2559
  21   2.0000      -6.034052      -164.1949
  22   2.0000      -6.029937      -164.0829
  23   2.0000      -6.026433      -163.9876
  24   2.0000      -1.013102       -27.5679
  25   2.0000      -0.985058       -26.8048
  26   2.0000      -0.908190       -24.7131
  27   2.0000      -0.905970       -24.6527
  28   2.0000      -0.868272       -23.6269
  29   2.0000      -0.850894       -23.1540
  30   2.0000      -0.844673       -22.9847
  31   2.0000      -0.818656       -22.2768
  32   2.0000      -0.782651       -21.2970
  33   2.0000      -0.771958       -21.0060
  34   2.0000      -0.707432       -19.2502
  35   2.0000      -0.699838       -19.0436
  36   2.0000      -0.694635       -18.9020
  37   2.0000      -0.663475       -18.0541
  38   2.0000      -0.648603       -17.6494
  39   2.0000      -0.615055       -16.7365
  40   2.0000      -0.599070       -16.3015
  41   2.0000      -0.574085       -15.6216
  42   2.0000      -0.549697       -14.9580
  43   2.0000      -0.544344       -14.8123
  44   2.0000      -0.539428       -14.6786
  45   2.0000      -0.534406       -14.5419
  46   2.0000      -0.520907       -14.1746
  47   2.0000      -0.517013       -14.0686
  48   2.0000      -0.499169       -13.5831
  49   2.0000      -0.497007       -13.5242
  50   2.0000      -0.485794       -13.2191
  51   2.0000      -0.481809       -13.1107
  52   2.0000      -0.472724       -12.8635
  53   2.0000      -0.461544       -12.5592
  54   2.0000      -0.457416       -12.4469
  55   2.0000      -0.447496       -12.1770
  56   2.0000      -0.440524       -11.9873
  57   2.0000      -0.436696       -11.8831
  58   2.0000      -0.430873       -11.7247
  59   2.0000      -0.425815       -11.5870
  60   2.0000      -0.425038       -11.5659
  61   2.0000      -0.421703       -11.4751
  62   2.0000      -0.412335       -11.2202
  63   2.0000      -0.346458        -9.4276
  64   2.0000      -0.336434        -9.1548
  65   2.0000      -0.325050        -8.8451
  66   2.0000      -0.294749        -8.0205
  67   0.0000       0.034551         0.9402
  68   0.0000       0.073485         1.9996
  69   0.0000       0.110284         3.0010
  70   0.0000       0.120440         3.2773
  71   0.0000       0.130494         3.5509

MULLIKEN ATOMIC CHARGES
-----------------------
   0 S :    0.124615
   1 C :   -0.086017
   2 C :   -0.094083
   3 C :    0.045184
   4 C :   -0.192372
   5 H :    0.009081
   6 C :    0.108385
   7 H :    0.023765
   8 H :    0.010570
   9 C :   -0.044415
  10 H :    0.033878
  11 H :    0.039919
  12 C :   -0.104103
  13 H :    0.032751
  14 H :    0.041893
  15 H :    0.036471
  16 S :    0.093354
  17 C :   -0.096075
  18 C :   -0.034502
  19 C :   -0.062755
  20 C :   -0.139604
  21 H :    0.033272
  22 C :    0.093047
  23 H :    0.031611
  24 H :   -0.005454
  25 C :   -0.085494
  26 H :    0.020685
  27 H :    0.031831
  28 C :   -0.041319
  29 H :    0.039056
  30 H :    0.043379
  31 H :    0.026482
  32 H :    0.015493
  33 H :    0.051474
Sum of atomic charges:   -0.0000000

LOEWDIN ATOMIC CHARGES
----------------------
   0 S :    0.401693
   1 C :   -0.186220
   2 C :   -0.056832
   3 C :   -0.058290
   4 C :   -0.181093
   5 H :    0.031568
   6 C :   -0.026797
   7 H :    0.028653
   8 H :    0.029708
   9 C :   -0.030245
  10 H :    0.025520
  11 H :    0.028941
  12 C :   -0.080803
  13 H :    0.025171
  14 H :    0.030703
  15 H :    0.026511
  16 S :    0.416488
  17 C :   -0.168259
  18 C :   -0.067668
  19 C :   -0.067689
  20 C :   -0.228454
  21 H :    0.037396
  22 C :   -0.037990
  23 H :    0.032759
  24 H :    0.017391
  25 C :   -0.033833
  26 H :    0.020644
  27 H :    0.022028
  28 C :   -0.059737
  29 H :    0.018659
  30 H :    0.034432
  31 H :    0.023914
  32 H :    0.008280
  33 H :    0.023454

  Mayer bond orders larger than 0.100000
B(  0-S ,  1-C ) :   1.1485 B(  0-S ,  4-C ) :   1.1526 B(  1-C ,  2-C ) :   1.6126
B(  1-C ,  4-C ) :   0.1063 B(  1-C , 32-H ) :   0.9667 B(  2-C ,  3-C ) :   1.2094
B(  2-C ,  6-C ) :   1.0321 B(  3-C ,  4-C ) :   1.5928 B(  3-C ,  5-H ) :   0.9964
B(  4-C , 20-C ) :   0.9919 B(  6-C ,  7-H ) :   0.9365 B(  6-C ,  8-H ) :   0.9324
B(  6-C ,  9-C ) :   1.0582 B(  9-C , 10-H ) :   0.9589 B(  9-C , 11-H ) :   0.9573
B(  9-C , 12-C ) :   1.0654 B( 12-C , 13-H ) :   0.9750 B( 12-C , 14-H ) :   0.9749
B( 12-C , 15-H ) :   0.9765 B( 16-S , 17-C ) :   1.1488 B( 16-S , 20-C ) :   1.1506
B( 17-C , 18-C ) :   1.6124 B( 17-C , 33-H ) :   0.9752 B( 18-C , 19-C ) :   1.2095
B( 18-C , 21-H ) :   0.9936 B( 19-C , 20-C ) :   1.6199 B( 19-C , 22-C ) :   1.0452
B( 22-C , 23-H ) :   0.9335 B( 22-C , 24-H ) :   0.9205 B( 22-C , 25-C ) :   1.0743
B( 25-C , 26-H ) :   0.9571 B( 25-C , 27-H ) :   0.9565 B( 25-C , 28-C ) :   1.0735
B( 28-C , 29-H ) :   0.9793 B( 28-C , 30-H ) :   0.9735 B( 28-C , 31-H ) :   0.9733

Dispersion correction           -0.015189945
FINAL SINGLE POINT ENERGY     -1339.876841968717

DIPOLE MOMENT
-------------
                                X             Y             Z
Electronic contribution:     20.14851      -7.43379     -16.68775
Nuclear contribution   :    -20.70125       7.57696      16.95434
                        -----------------------------------------
Total Dipole Moment    :     -0.55274       0.14317       0.26658
                        -----------------------------------------
Magnitude (a.u.)       :      0.63015
Magnitude (Debye)      :      1.60170

Rotational constants in cm-1:     0.018505     0.009494     0.007642
Rotational constants in MHz :   554.768428   284.610816   229.094262

                             ****ORCA TERMINATED NORMALLY****
TOTAL RUN TIME: 0 days 0 hours 0 minutes 22 seconds 334 msec
