                         Program Version 4.2.1 -  RELEASE  -
|  1> ! wB97X-D3 SP def2-SVP
|  2> %pal
|  3> nprocs 24
|  4> end
|  5>
|  6> * xyz 0 1
|  7> S 	 -121.512 	 25.0574 	 -17.3812
|  8> C 	 -120.996 	 24.6904 	 -18.9536
|  9> C 	 -119.665 	 24.8368 	 -19.1844
| 10> C 	 -119.069 	 25.483 	 -18.0363
| 11> C 	 -119.952 	 25.8826 	 -17.0724
| 12> H 	 -117.966 	 25.6196 	 -17.8727
| 13> C 	 -118.872 	 24.3878 	 -20.3558
| 14> H 	 -118.09 	 25.0865 	 -20.66
| 15> H 	 -119.783 	 24.3669 	 -20.9557
| 16> C 	 -118.285 	 22.9993 	 -20.3676
| 17> H 	 -117.764 	 22.9001 	 -21.2494
| 18> H 	 -117.481 	 22.9847 	 -19.63
| 19> C 	 -119.183 	 21.8091 	 -20.1233
| 20> H 	 -119.715 	 21.6358 	 -21.1109
| 21> H 	 -118.742 	 20.8588 	 -19.8851
| 22> H 	 -119.93 	 21.9639 	 -19.3908
| 23> S 	 -120.502 	 26.195 	 -14.4154
| 24> C 	 -119.621 	 27.4187 	 -13.5101
| 25> C 	 -118.853 	 28.1571 	 -14.3351
| 26> C 	 -118.938 	 27.7454 	 -15.697
| 27> C 	 -119.725 	 26.6718 	 -15.9063
| 28> H 	 -118.227 	 28.9427 	 -13.8349
| 29> C 	 -118.115 	 28.4563 	 -16.7782
| 30> H 	 -118.692 	 28.3422 	 -17.6726
| 31> H 	 -117.305 	 27.8288 	 -17.1386
| 32> C 	 -117.709 	 29.9645 	 -16.5464
| 33> H 	 -117.047 	 30.2181 	 -17.2989
| 34> H 	 -117.178 	 30.0195 	 -15.615
| 35> C 	 -118.943 	 30.9147 	 -16.529
| 36> H 	 -119.535 	 30.5836 	 -17.3441
| 37> H 	 -118.449 	 31.8953 	 -16.6466
| 38> H 	 -119.503 	 30.8064 	 -15.57
| 39> H 	 -121.707 	 24.2057 	 -19.5741
| 40> H 	 -119.626 	 27.4798 	 -12.4456
| 41> *
| 42>
| 43>                          ****END OF INPUT****

CARTESIAN COORDINATES (ANGSTROEM)
---------------------------------
  S    -121.512000   25.057400  -17.381200
  C    -120.996000   24.690400  -18.953600
  C    -119.665000   24.836800  -19.184400
  C    -119.069000   25.483000  -18.036300
  C    -119.952000   25.882600  -17.072400
  H    -117.966000   25.619600  -17.872700
  C    -118.872000   24.387800  -20.355800
  H    -118.090000   25.086500  -20.660000
  H    -119.783000   24.366900  -20.955700
  C    -118.285000   22.999300  -20.367600
  H    -117.764000   22.900100  -21.249400
  H    -117.481000   22.984700  -19.630000
  C    -119.183000   21.809100  -20.123300
  H    -119.715000   21.635800  -21.110900
  H    -118.742000   20.858800  -19.885100
  H    -119.930000   21.963900  -19.390800
  S    -120.502000   26.195000  -14.415400
  C    -119.621000   27.418700  -13.510100
  C    -118.853000   28.157100  -14.335100
  C    -118.938000   27.745400  -15.697000
  C    -119.725000   26.671800  -15.906300
  H    -118.227000   28.942700  -13.834900
  C    -118.115000   28.456300  -16.778200
  H    -118.692000   28.342200  -17.672600
  H    -117.305000   27.828800  -17.138600
  C    -117.709000   29.964500  -16.546400
  H    -117.047000   30.218100  -17.298900
  H    -117.178000   30.019500  -15.615000
  C    -118.943000   30.914700  -16.529000
  H    -119.535000   30.583600  -17.344100
  H    -118.449000   31.895300  -16.646600
  H    -119.503000   30.806400  -15.570000
  H    -121.707000   24.205700  -19.574100
  H    -119.626000   27.479800  -12.445600

 Total Charge           Charge          ....    0
 Multiplicity           Mult            ....    1
 Number of Electrons    NEL             ....  134
 Basis Dimension        Dim             ....  322

ORBITAL ENERGIES
----------------

  NO   OCC          E(Eh)            E(eV)
   0   2.0000     -88.962052     -2420.7805
   1   2.0000     -88.959641     -2420.7149
   2   2.0000     -10.327493      -281.0254
   3   2.0000     -10.319376      -280.8045
   4   2.0000     -10.313344      -280.6404
   5   2.0000     -10.308916      -280.5199
   6   2.0000     -10.300012      -280.2776
   7   2.0000     -10.298950      -280.2487
   8   2.0000     -10.295936      -280.1667
   9   2.0000     -10.293486      -280.1000
  10   2.0000     -10.291020      -280.0329
  11   2.0000     -10.286612      -279.9129
  12   2.0000     -10.282105      -279.7903
  13   2.0000     -10.279187      -279.7109
  14   2.0000     -10.277766      -279.6722
  15   2.0000     -10.275071      -279.5989
  16   2.0000      -8.077899      -219.8108
  17   2.0000      -8.074953      -219.7306
  18   2.0000      -6.036337      -164.2571
  19   2.0000      -6.033551      -164.1813
  20   2.0000      -6.032598      -164.1553
  21   2.0000      -6.029457      -164.0699
  22   2.0000      -6.028322      -164.0390
  23   2.0000      -6.025513      -163.9626
  24   2.0000      -1.013715       -27.5846
  25   2.0000      -0.991864       -26.9900
  26   2.0000      -0.921719       -25.0812
  27   2.0000      -0.902820       -24.5670
  28   2.0000      -0.879237       -23.9252
  29   2.0000      -0.854321       -23.2472
  30   2.0000      -0.843502       -22.9529
  31   2.0000      -0.821352       -22.3501
  32   2.0000      -0.785875       -21.3847
  33   2.0000      -0.775308       -21.0972
  34   2.0000      -0.718054       -19.5392
  35   2.0000      -0.703103       -19.1324
  36   2.0000      -0.701094       -19.0777
  37   2.0000      -0.658395       -17.9159
  38   2.0000      -0.642755       -17.4903
  39   2.0000      -0.620608       -16.8876
  40   2.0000      -0.600991       -16.3538
  41   2.0000      -0.572661       -15.5829
  42   2.0000      -0.558368       -15.1940
  43   2.0000      -0.550834       -14.9890
  44   2.0000      -0.545431       -14.8419
  45   2.0000      -0.538094       -14.6423
  46   2.0000      -0.525764       -14.3068
  47   2.0000      -0.517285       -14.0760
  48   2.0000      -0.503887       -13.7115
  49   2.0000      -0.498730       -13.5711
  50   2.0000      -0.489083       -13.3086
  51   2.0000      -0.482566       -13.1313
  52   2.0000      -0.471580       -12.8324
  53   2.0000      -0.462666       -12.5898
  54   2.0000      -0.455804       -12.4031
  55   2.0000      -0.450200       -12.2506
  56   2.0000      -0.444283       -12.0896
  57   2.0000      -0.444054       -12.0833
  58   2.0000      -0.432152       -11.7594
  59   2.0000      -0.427791       -11.6408
  60   2.0000      -0.422847       -11.5062
  61   2.0000      -0.413260       -11.2454
  62   2.0000      -0.399547       -10.8722
  63   2.0000      -0.362031        -9.8514
  64   2.0000      -0.331074        -9.0090
  65   2.0000      -0.325025        -8.8444
  66   2.0000      -0.286553        -7.7975
  67   0.0000       0.026062         0.7092
  68   0.0000       0.073590         2.0025
  69   0.0000       0.101336         2.7575
  70   0.0000       0.122861         3.3432
  71   0.0000       0.139769         3.8033

MULLIKEN ATOMIC CHARGES
-----------------------
   0 S :    0.099845
   1 C :   -0.116756
   2 C :   -0.078372
   3 C :   -0.026542
   4 C :   -0.141008
   5 H :    0.035386
   6 C :    0.071411
   7 H :    0.035755
   8 H :    0.015218
   9 C :   -0.007257
  10 H :    0.010844
  11 H :    0.010406
  12 C :   -0.053884
  13 H :    0.025064
  14 H :    0.031908
  15 H :    0.030391
  16 S :    0.081909
  17 C :   -0.082569
  18 C :   -0.059395
  19 C :   -0.040648
  20 C :   -0.117925
  21 H :    0.039074
  22 C :    0.044335
  23 H :    0.009184
  24 H :    0.022727
  25 C :   -0.039501
  26 H :    0.012313
  27 H :    0.022391
  28 C :   -0.045397
  29 H :    0.034040
  30 H :    0.044885
  31 H :    0.050393
  32 H :    0.035278
  33 H :    0.046496
Sum of atomic charges:   -0.0000000

LOEWDIN ATOMIC CHARGES
----------------------
   0 S :    0.397648
   1 C :   -0.198096
   2 C :   -0.068506
   3 C :   -0.064784
   4 C :   -0.176451
   5 H :    0.039012
   6 C :   -0.032463
   7 H :    0.036869
   8 H :    0.037603
   9 C :   -0.036247
  10 H :    0.016686
  11 H :    0.020917
  12 C :   -0.064302
  13 H :    0.031133
  14 H :    0.026910
  15 H :    0.019415
  16 S :    0.385625
  17 C :   -0.169300
  18 C :   -0.080445
  19 C :   -0.057974
  20 C :   -0.196912
  21 H :    0.043517
  22 C :   -0.039376
  23 H :    0.026487
  24 H :    0.028733
  25 C :   -0.029111
  26 H :    0.015388
  27 H :    0.017129
  28 C :   -0.058810
  29 H :    0.022031
  30 H :    0.032357
  31 H :    0.032234
  32 H :    0.017596
  33 H :    0.025486

  Mayer bond orders larger than 0.100000
B(  0-S ,  1-C ) :   1.1488 B(  0-S ,  4-C ) :   1.1172 B(  1-C ,  2-C ) :   1.6212
B(  1-C , 32-H ) :   0.9673 B(  2-C ,  3-C ) :   1.2031 B(  2-C ,  6-C ) :   1.0043
B(  3-C ,  4-C ) :   1.5961 B(  3-C ,  5-H ) :   0.9873 B(  4-C , 20-C ) :   1.0803
B(  6-C ,  7-H ) :   0.9371 B(  6-C ,  8-H ) :   0.9337 B(  6-C ,  9-C ) :   1.0833
B(  9-C , 10-H ) :   0.9524 B(  9-C , 11-H ) :   0.9473 B(  9-C , 12-C ) :   1.0738
B( 12-C , 13-H ) :   0.9742 B( 12-C , 14-H ) :   0.9735 B( 12-C , 15-H ) :   0.9771
B( 16-S , 17-C ) :   1.1429 B( 16-S , 20-C ) :   1.1106 B( 17-C , 18-C ) :   1.6471
B( 17-C , 33-H ) :   0.9685 B( 18-C , 19-C ) :   1.2012 B( 18-C , 21-H ) :   0.9830
B( 19-C , 20-C ) :   1.6437 B( 19-C , 22-C ) :   1.0286 B( 22-C , 23-H ) :   0.9205
B( 22-C , 24-H ) :   0.9285 B( 22-C , 25-C ) :   1.0715 B( 25-C , 26-H ) :   0.9531
B( 25-C , 27-H ) :   0.9512 B( 25-C , 28-C ) :   1.0688 B( 28-C , 29-H ) :   0.9783
B( 28-C , 30-H ) :   0.9768 B( 28-C , 31-H ) :   0.9752

Dispersion correction           -0.014346204
FINAL SINGLE POINT ENERGY     -1339.853988934753

DIPOLE MOMENT
-------------
                                X             Y             Z
Electronic contribution:    -14.24294      -3.92237      15.71970
Nuclear contribution   :     14.89785       3.99519     -16.03239
                        -----------------------------------------
Total Dipole Moment    :      0.65490       0.07282      -0.31269
                        -----------------------------------------
Magnitude (a.u.)       :      0.72937
Magnitude (Debye)      :      1.85391

Rotational constants in cm-1:     0.022103     0.007798     0.006508
Rotational constants in MHz :   662.616432   233.791314   195.092765

                             ****ORCA TERMINATED NORMALLY****
TOTAL RUN TIME: 0 days 0 hours 0 minutes 21 seconds 700 msec
