                         Program Version 4.2.1 -  RELEASE  -
|  1> ! wB97X-D3 SP def2-SVP
|  2> %pal
|  3> nprocs 24
|  4> end
|  5>
|  6> * xyz 0 1
|  7> S 	 -81.6272 	 -15.8268 	 -54.8929
|  8> C 	 -83.0134 	 -15.5552 	 -53.7627
|  9> C 	 -84.0177 	 -16.4692 	 -53.9649
| 10> C 	 -83.6799 	 -17.4654 	 -54.964
| 11> C 	 -82.3878 	 -17.3623 	 -55.4394
| 12> H 	 -84.3121 	 -18.2563 	 -55.3141
| 13> C 	 -85.3859 	 -16.3715 	 -53.3015
| 14> H 	 -86.0007 	 -15.6008 	 -53.7786
| 15> H 	 -85.2049 	 -16.136 	 -52.267
| 16> C 	 -86.2921 	 -17.6509 	 -53.3768
| 17> H 	 -86.9744 	 -17.775 	 -54.2595
| 18> H 	 -85.6816 	 -18.5798 	 -53.443
| 19> C 	 -87.1868 	 -17.7613 	 -52.0882
| 20> H 	 -86.6255 	 -17.3968 	 -51.2622
| 21> H 	 -88.1069 	 -17.2335 	 -52.1572
| 22> H 	 -87.4109 	 -18.8525 	 -51.9199
| 23> S 	 -81.0262 	 -17.5475 	 -57.8409
| 24> C 	 -80.5456 	 -19.0378 	 -58.4228
| 25> C 	 -80.6811 	 -19.9657 	 -57.459
| 26> C 	 -81.3445 	 -19.535 	 -56.2799
| 27> C 	 -81.6855 	 -18.2188 	 -56.4104
| 28> H 	 -80.4366 	 -21.0398 	 -57.6611
| 29> C 	 -81.6304 	 -20.5543 	 -55.2075
| 30> H 	 -82.2767 	 -21.4012 	 -55.5072
| 31> H 	 -82.2195 	 -20.0729 	 -54.4478
| 32> C 	 -80.4343 	 -21.1213 	 -54.3017
| 33> H 	 -79.6534 	 -21.5737 	 -54.9185
| 34> H 	 -80.8512 	 -21.8934 	 -53.713
| 35> C 	 -79.6971 	 -20.0532 	 -53.5055
| 36> H 	 -78.9301 	 -19.5377 	 -54.0867
| 37> H 	 -79.0632 	 -20.5571 	 -52.8106
| 38> H 	 -80.3025 	 -19.3296 	 -52.9358
| 39> H 	 -83.0631 	 -14.6011 	 -53.213
| 40> H 	 -80.2617 	 -19.1887 	 -59.4981
| 41> *
| 42>
| 43>                          ****END OF INPUT****

CARTESIAN COORDINATES (ANGSTROEM)
---------------------------------
  S    -81.627200  -15.826800  -54.892900
  C    -83.013400  -15.555200  -53.762700
  C    -84.017700  -16.469200  -53.964900
  C    -83.679900  -17.465400  -54.964000
  C    -82.387800  -17.362300  -55.439400
  H    -84.312100  -18.256300  -55.314100
  C    -85.385900  -16.371500  -53.301500
  H    -86.000700  -15.600800  -53.778600
  H    -85.204900  -16.136000  -52.267000
  C    -86.292100  -17.650900  -53.376800
  H    -86.974400  -17.775000  -54.259500
  H    -85.681600  -18.579800  -53.443000
  C    -87.186800  -17.761300  -52.088200
  H    -86.625500  -17.396800  -51.262200
  H    -88.106900  -17.233500  -52.157200
  H    -87.410900  -18.852500  -51.919900
  S    -81.026200  -17.547500  -57.840900
  C    -80.545600  -19.037800  -58.422800
  C    -80.681100  -19.965700  -57.459000
  C    -81.344500  -19.535000  -56.279900
  C    -81.685500  -18.218800  -56.410400
  H    -80.436600  -21.039800  -57.661100
  C    -81.630400  -20.554300  -55.207500
  H    -82.276700  -21.401200  -55.507200
  H    -82.219500  -20.072900  -54.447800
  C    -80.434300  -21.121300  -54.301700
  H    -79.653400  -21.573700  -54.918500
  H    -80.851200  -21.893400  -53.713000
  C    -79.697100  -20.053200  -53.505500
  H    -78.930100  -19.537700  -54.086700
  H    -79.063200  -20.557100  -52.810600
  H    -80.302500  -19.329600  -52.935800
  H    -83.063100  -14.601100  -53.213000
  H    -80.261700  -19.188700  -59.498100

 Total Charge           Charge          ....    0
 Multiplicity           Mult            ....    1
 Number of Electrons    NEL             ....  134
 Basis Dimension        Dim             ....  322

ORBITAL ENERGIES
----------------

  NO   OCC          E(Eh)            E(eV)
   0   2.0000     -88.961330     -2420.7609
   1   2.0000     -88.960949     -2420.7505
   2   2.0000     -10.332920      -281.1730
   3   2.0000     -10.322452      -280.8882
   4   2.0000     -10.317177      -280.7447
   5   2.0000     -10.311385      -280.5870
   6   2.0000     -10.305271      -280.4207
   7   2.0000     -10.299050      -280.2514
   8   2.0000     -10.296261      -280.1755
   9   2.0000     -10.295927      -280.1664
  10   2.0000     -10.295356      -280.1509
  11   2.0000     -10.291274      -280.0398
  12   2.0000     -10.287263      -279.9307
  13   2.0000     -10.286195      -279.9016
  14   2.0000     -10.278543      -279.6934
  15   2.0000     -10.269594      -279.4499
  16   2.0000      -8.078516      -219.8276
  17   2.0000      -8.074787      -219.7261
  18   2.0000      -6.036795      -164.2695
  19   2.0000      -6.033401      -164.1772
  20   2.0000      -6.032608      -164.1556
  21   2.0000      -6.029686      -164.0761
  22   2.0000      -6.029347      -164.0669
  23   2.0000      -6.025300      -163.9567
  24   2.0000      -1.018213       -27.7070
  25   2.0000      -0.979185       -26.6450
  26   2.0000      -0.904711       -24.6185
  27   2.0000      -0.902946       -24.5704
  28   2.0000      -0.867876       -23.6161
  29   2.0000      -0.853254       -23.2182
  30   2.0000      -0.837907       -22.8006
  31   2.0000      -0.815192       -22.1825
  32   2.0000      -0.783462       -21.3191
  33   2.0000      -0.770445       -20.9649
  34   2.0000      -0.709738       -19.3129
  35   2.0000      -0.698509       -19.0074
  36   2.0000      -0.686968       -18.6934
  37   2.0000      -0.654299       -17.8044
  38   2.0000      -0.639998       -17.4152
  39   2.0000      -0.619537       -16.8585
  40   2.0000      -0.603175       -16.4132
  41   2.0000      -0.568061       -15.4577
  42   2.0000      -0.558490       -15.1973
  43   2.0000      -0.547138       -14.8884
  44   2.0000      -0.539994       -14.6940
  45   2.0000      -0.519701       -14.1418
  46   2.0000      -0.513809       -13.9815
  47   2.0000      -0.509816       -13.8728
  48   2.0000      -0.502025       -13.6608
  49   2.0000      -0.497830       -13.5466
  50   2.0000      -0.491909       -13.3855
  51   2.0000      -0.478977       -13.0336
  52   2.0000      -0.465270       -12.6606
  53   2.0000      -0.463991       -12.6258
  54   2.0000      -0.457462       -12.4482
  55   2.0000      -0.445933       -12.1344
  56   2.0000      -0.444410       -12.0930
  57   2.0000      -0.439725       -11.9655
  58   2.0000      -0.433853       -11.8057
  59   2.0000      -0.417782       -11.3684
  60   2.0000      -0.416262       -11.3271
  61   2.0000      -0.415174       -11.2975
  62   2.0000      -0.412922       -11.2362
  63   2.0000      -0.345225        -9.3941
  64   2.0000      -0.329958        -8.9786
  65   2.0000      -0.327648        -8.9158
  66   2.0000      -0.296338        -8.0638
  67   0.0000       0.036608         0.9961
  68   0.0000       0.065970         1.7951
  69   0.0000       0.108391         2.9495
  70   0.0000       0.125403         3.4124
  71   0.0000       0.136474         3.7137

MULLIKEN ATOMIC CHARGES
-----------------------
   0 S :    0.076780
   1 C :   -0.145320
   2 C :   -0.084246
   3 C :    0.042162
   4 C :   -0.144027
   5 H :    0.012264
   6 C :    0.089356
   7 H :    0.053662
   8 H :    0.029565
   9 C :   -0.143083
  10 H :    0.041477
  11 H :    0.035580
  12 C :   -0.046495
  13 H :    0.024632
  14 H :    0.035662
  15 H :    0.038387
  16 S :    0.118919
  17 C :   -0.109524
  18 C :   -0.044647
  19 C :   -0.001321
  20 C :   -0.178840
  21 H :    0.028588
  22 C :    0.043004
  23 H :    0.039800
  24 H :    0.008321
  25 C :   -0.056482
  26 H :    0.023893
  27 H :    0.023774
  28 C :   -0.045525
  29 H :    0.034680
  30 H :    0.014690
  31 H :    0.042698
  32 H :    0.061724
  33 H :    0.079891
Sum of atomic charges:   -0.0000000

LOEWDIN ATOMIC CHARGES
----------------------
   0 S :    0.349641
   1 C :   -0.183070
   2 C :   -0.061182
   3 C :   -0.062942
   4 C :   -0.164145
   5 H :    0.030293
   6 C :   -0.029798
   7 H :    0.040437
   8 H :    0.030484
   9 C :   -0.050948
  10 H :    0.028081
  11 H :    0.022509
  12 C :   -0.060835
  13 H :    0.017675
  14 H :    0.019861
  15 H :    0.033712
  16 S :    0.446947
  17 C :   -0.214837
  18 C :   -0.079349
  19 C :   -0.059099
  20 C :   -0.213271
  21 H :    0.035856
  22 C :   -0.037222
  23 H :    0.035009
  24 H :    0.025246
  25 C :   -0.029628
  26 H :    0.022964
  27 H :    0.018599
  28 C :   -0.069019
  29 H :    0.030161
  30 H :    0.023697
  31 H :    0.027760
  32 H :    0.032323
  33 H :    0.044092

  Mayer bond orders larger than 0.100000
B(  0-S ,  1-C ) :   1.1111 B(  0-S ,  4-C ) :   1.1314 B(  1-C ,  2-C ) :   1.6546
B(  1-C , 32-H ) :   0.9695 B(  2-C ,  3-C ) :   1.2049 B(  2-C ,  6-C ) :   1.0134
B(  3-C ,  4-C ) :   1.6150 B(  3-C ,  5-H ) :   0.9924 B(  4-C , 20-C ) :   1.0149
B(  6-C ,  7-H ) :   0.9340 B(  6-C ,  8-H ) :   0.9485 B(  6-C ,  9-C ) :   1.0568
B(  9-C , 10-H ) :   0.9561 B(  9-C , 11-H ) :   0.9648 B(  9-C , 12-C ) :   1.0715
B( 12-C , 13-H ) :   0.9800 B( 12-C , 14-H ) :   0.9793 B( 12-C , 15-H ) :   0.9778
B( 16-S , 17-C ) :   1.1711 B( 16-S , 20-C ) :   1.1644 B( 17-C , 18-C ) :   1.5908
B( 17-C , 33-H ) :   0.9631 B( 18-C , 19-C ) :   1.2500 B( 18-C , 21-H ) :   0.9861
B( 19-C , 20-C ) :   1.5834 B( 19-C , 22-C ) :   1.0475 B( 22-C , 23-H ) :   0.9428
B( 22-C , 24-H ) :   0.9271 B( 22-C , 25-C ) :   1.0658 B( 25-C , 26-H ) :   0.9569
B( 25-C , 27-H ) :   0.9595 B( 25-C , 28-C ) :   1.0772 B( 28-C , 29-H ) :   0.9733
B( 28-C , 30-H ) :   0.9687 B( 28-C , 31-H ) :   0.9773

Dispersion correction           -0.014047351
FINAL SINGLE POINT ENERGY     -1339.873370148614

DIPOLE MOMENT
-------------
                                X             Y             Z
Electronic contribution:     13.05891      14.22145     -19.19771
Nuclear contribution   :    -13.48836     -14.67798      19.37500
                        -----------------------------------------
Total Dipole Moment    :     -0.42945      -0.45653       0.17729
                        -----------------------------------------
Magnitude (a.u.)       :      0.65137
Magnitude (Debye)      :      1.65564

Rotational constants in cm-1:     0.018493     0.008216     0.007114
Rotational constants in MHz :   554.417786   246.302961   213.281841

                             ****ORCA TERMINATED NORMALLY****
TOTAL RUN TIME: 0 days 0 hours 0 minutes 21 seconds 417 msec
