                         Program Version 4.2.1 -  RELEASE  -
|  1> ! wB97X-D3 SP def2-SVP
|  2> %pal
|  3> nprocs 24
|  4> end
|  5>
|  6> * xyz 0 1
|  7> S 	 -123.893 	 65.1128 	 -52.322
|  8> C 	 -122.921 	 65.5256 	 -53.69
|  9> C 	 -121.621 	 65.8111 	 -53.3274
| 10> C 	 -121.405 	 65.6991 	 -51.9512
| 11> C 	 -122.473 	 65.2597 	 -51.2172
| 12> H 	 -120.463 	 65.8373 	 -51.3986
| 13> C 	 -120.481 	 66.2675 	 -54.2243
| 14> H 	 -120.542 	 65.7773 	 -55.1757
| 15> H 	 -119.535 	 65.9059 	 -53.8146
| 16> C 	 -120.271 	 67.7795 	 -54.4449
| 17> H 	 -119.644 	 67.8785 	 -55.3046
| 18> H 	 -121.168 	 68.2707 	 -54.8022
| 19> C 	 -119.581 	 68.507 	 -53.2916
| 20> H 	 -119.462 	 69.5566 	 -53.4596
| 21> H 	 -120.112 	 68.3706 	 -52.3243
| 22> H 	 -118.532 	 68.1261 	 -53.161
| 23> S 	 -123.857 	 65.7782 	 -48.9936
| 24> C 	 -123.438 	 65.0125 	 -47.4911
| 25> C 	 -122.446 	 64.1117 	 -47.6049
| 26> C 	 -121.878 	 64.041 	 -48.9335
| 27> C 	 -122.547 	 64.9303 	 -49.8019
| 28> H 	 -122.089 	 63.4474 	 -46.8144
| 29> C 	 -120.847 	 63.0222 	 -49.2392
| 30> H 	 -120.258 	 62.8615 	 -48.3288
| 31> H 	 -120.145 	 63.6169 	 -49.789
| 32> C 	 -121.248 	 61.7368 	 -50.1153
| 33> H 	 -120.363 	 61.3793 	 -50.7326
| 34> H 	 -122.025 	 62.0553 	 -50.8065
| 35> C 	 -121.801 	 60.7049 	 -49.1972
| 36> H 	 -122.919 	 60.9454 	 -49.0272
| 37> H 	 -121.208 	 60.594 	 -48.3041
| 38> H 	 -121.664 	 59.7263 	 -49.6535
| 39> H 	 -123.355 	 65.5929 	 -54.6929
| 40> H 	 -123.827 	 65.4042 	 -46.5626
| 41> *
| 42>
| 43>                          ****END OF INPUT****

CARTESIAN COORDINATES (ANGSTROEM)
---------------------------------
  S    -123.893000   65.112800  -52.322000
  C    -122.921000   65.525600  -53.690000
  C    -121.621000   65.811100  -53.327400
  C    -121.405000   65.699100  -51.951200
  C    -122.473000   65.259700  -51.217200
  H    -120.463000   65.837300  -51.398600
  C    -120.481000   66.267500  -54.224300
  H    -120.542000   65.777300  -55.175700
  H    -119.535000   65.905900  -53.814600
  C    -120.271000   67.779500  -54.444900
  H    -119.644000   67.878500  -55.304600
  H    -121.168000   68.270700  -54.802200
  C    -119.581000   68.507000  -53.291600
  H    -119.462000   69.556600  -53.459600
  H    -120.112000   68.370600  -52.324300
  H    -118.532000   68.126100  -53.161000
  S    -123.857000   65.778200  -48.993600
  C    -123.438000   65.012500  -47.491100
  C    -122.446000   64.111700  -47.604900
  C    -121.878000   64.041000  -48.933500
  C    -122.547000   64.930300  -49.801900
  H    -122.089000   63.447400  -46.814400
  C    -120.847000   63.022200  -49.239200
  H    -120.258000   62.861500  -48.328800
  H    -120.145000   63.616900  -49.789000
  C    -121.248000   61.736800  -50.115300
  H    -120.363000   61.379300  -50.732600
  H    -122.025000   62.055300  -50.806500
  C    -121.801000   60.704900  -49.197200
  H    -122.919000   60.945400  -49.027200
  H    -121.208000   60.594000  -48.304100
  H    -121.664000   59.726300  -49.653500
  H    -123.355000   65.592900  -54.692900
  H    -123.827000   65.404200  -46.562600

 Total Charge           Charge          ....    0
 Multiplicity           Mult            ....    1
 Number of Electrons    NEL             ....  134
 Basis Dimension        Dim             ....  322

ORBITAL ENERGIES
----------------

  NO   OCC          E(Eh)            E(eV)
   0   2.0000     -88.964471     -2420.8463
   1   2.0000     -88.962869     -2420.8027
   2   2.0000     -10.328809      -281.0612
   3   2.0000     -10.328077      -281.0413
   4   2.0000     -10.314382      -280.6686
   5   2.0000     -10.311880      -280.6005
   6   2.0000     -10.306153      -280.4447
   7   2.0000     -10.297382      -280.2060
   8   2.0000     -10.292385      -280.0700
   9   2.0000     -10.290856      -280.0284
  10   2.0000     -10.289507      -279.9917
  11   2.0000     -10.288932      -279.9761
  12   2.0000     -10.288713      -279.9701
  13   2.0000     -10.282422      -279.7989
  14   2.0000     -10.279082      -279.7080
  15   2.0000     -10.276904      -279.6488
  16   2.0000      -8.078854      -219.8368
  17   2.0000      -8.078134      -219.8172
  18   2.0000      -6.037382      -164.2855
  19   2.0000      -6.036594      -164.2641
  20   2.0000      -6.033389      -164.1769
  21   2.0000      -6.032557      -164.1542
  22   2.0000      -6.029629      -164.0746
  23   2.0000      -6.028918      -164.0552
  24   2.0000      -1.005692       -27.3663
  25   2.0000      -0.984890       -26.8002
  26   2.0000      -0.908570       -24.7234
  27   2.0000      -0.906894       -24.6778
  28   2.0000      -0.870584       -23.6898
  29   2.0000      -0.854730       -23.2584
  30   2.0000      -0.846855       -23.0441
  31   2.0000      -0.815293       -22.1853
  32   2.0000      -0.781805       -21.2740
  33   2.0000      -0.767891       -20.8954
  34   2.0000      -0.705069       -19.1859
  35   2.0000      -0.702670       -19.1206
  36   2.0000      -0.688206       -18.7270
  37   2.0000      -0.663668       -18.0593
  38   2.0000      -0.642975       -17.4963
  39   2.0000      -0.615305       -16.7433
  40   2.0000      -0.595259       -16.1978
  41   2.0000      -0.567648       -15.4465
  42   2.0000      -0.552954       -15.0466
  43   2.0000      -0.549077       -14.9412
  44   2.0000      -0.541656       -14.7392
  45   2.0000      -0.533157       -14.5079
  46   2.0000      -0.519267       -14.1300
  47   2.0000      -0.507551       -13.8112
  48   2.0000      -0.500936       -13.6312
  49   2.0000      -0.493214       -13.4210
  50   2.0000      -0.488200       -13.2846
  51   2.0000      -0.478809       -13.0291
  52   2.0000      -0.471793       -12.8381
  53   2.0000      -0.467117       -12.7109
  54   2.0000      -0.457089       -12.4380
  55   2.0000      -0.442598       -12.0437
  56   2.0000      -0.440867       -11.9966
  57   2.0000      -0.436319       -11.8728
  58   2.0000      -0.430559       -11.7161
  59   2.0000      -0.425667       -11.5830
  60   2.0000      -0.419969       -11.4279
  61   2.0000      -0.414490       -11.2789
  62   2.0000      -0.413138       -11.2421
  63   2.0000      -0.348770        -9.4905
  64   2.0000      -0.332167        -9.0387
  65   2.0000      -0.327400        -8.9090
  66   2.0000      -0.289031        -7.8649
  67   0.0000       0.031390         0.8542
  68   0.0000       0.062354         1.6967
  69   0.0000       0.111407         3.0315
  70   0.0000       0.123304         3.3553
  71   0.0000       0.129397         3.5211

MULLIKEN ATOMIC CHARGES
-----------------------
   0 S :    0.103277
   1 C :   -0.136067
   2 C :   -0.054250
   3 C :    0.023258
   4 C :   -0.157930
   5 H :    0.022090
   6 C :    0.072974
   7 H :    0.014999
   8 H :    0.009652
   9 C :   -0.033116
  10 H :    0.014365
  11 H :    0.020185
  12 C :   -0.070884
  13 H :    0.031860
  14 H :    0.046018
  15 H :    0.028477
  16 S :    0.097656
  17 C :   -0.076334
  18 C :   -0.031021
  19 C :   -0.057423
  20 C :   -0.186481
  21 H :    0.021521
  22 C :    0.072653
  23 H :    0.015662
  24 H :    0.006136
  25 C :   -0.057945
  26 H :    0.043008
  27 H :    0.042599
  28 C :   -0.048327
  29 H :    0.062532
  30 H :    0.019993
  31 H :    0.027265
  32 H :    0.056176
  33 H :    0.057420
Sum of atomic charges:    0.0000000

LOEWDIN ATOMIC CHARGES
----------------------
   0 S :    0.387716
   1 C :   -0.199518
   2 C :   -0.070385
   3 C :   -0.067765
   4 C :   -0.185695
   5 H :    0.036985
   6 C :   -0.027527
   7 H :    0.027702
   8 H :    0.029184
   9 C :   -0.038868
  10 H :    0.021927
  11 H :    0.021928
  12 C :   -0.070251
  13 H :    0.023319
  14 H :    0.029088
  15 H :    0.028185
  16 S :    0.408072
  17 C :   -0.184436
  18 C :   -0.074051
  19 C :   -0.052222
  20 C :   -0.197558
  21 H :    0.034643
  22 C :   -0.042262
  23 H :    0.030911
  24 H :    0.029782
  25 C :   -0.033840
  26 H :    0.031144
  27 H :    0.029964
  28 C :   -0.074868
  29 H :    0.043735
  30 H :    0.019545
  31 H :    0.025724
  32 H :    0.032230
  33 H :    0.027463

  Mayer bond orders larger than 0.100000
B(  0-S ,  1-C ) :   1.1454 B(  0-S ,  4-C ) :   1.1317 B(  1-C ,  2-C ) :   1.5967
B(  1-C ,  4-C ) :   0.1040 B(  1-C , 32-H ) :   0.9692 B(  2-C ,  3-C ) :   1.2430
B(  2-C ,  6-C ) :   1.0265 B(  3-C ,  4-C ) :   1.5988 B(  3-C ,  5-H ) :   0.9882
B(  4-C , 20-C ) :   1.0355 B(  6-C ,  7-H ) :   0.9373 B(  6-C ,  8-H ) :   0.9389
B(  6-C ,  9-C ) :   1.0747 B(  9-C , 10-H ) :   0.9505 B(  9-C , 11-H ) :   0.9538
B(  9-C , 12-C ) :   1.0810 B( 12-C , 13-H ) :   0.9729 B( 12-C , 14-H ) :   0.9756
B( 12-C , 15-H ) :   0.9722 B( 16-S , 17-C ) :   1.1489 B( 16-S , 20-C ) :   1.1522
B( 17-C , 18-C ) :   1.6105 B( 17-C , 33-H ) :   0.9661 B( 18-C , 19-C ) :   1.2406
B( 18-C , 21-H ) :   0.9874 B( 19-C , 20-C ) :   1.5782 B( 19-C , 22-C ) :   1.0507
B( 22-C , 23-H ) :   0.9312 B( 22-C , 24-H ) :   0.9153 B( 22-C , 25-C ) :   1.0419
B( 25-C , 26-H ) :   0.9583 B( 25-C , 27-H ) :   0.9590 B( 25-C , 28-C ) :   1.0779
B( 28-C , 29-H ) :   0.9742 B( 28-C , 30-H ) :   0.9757 B( 28-C , 31-H ) :   0.9707

Dispersion correction           -0.014543736
FINAL SINGLE POINT ENERGY     -1339.879603331526

DIPOLE MOMENT
-------------
                                X             Y             Z
Electronic contribution:    -19.76786       4.56066       6.32541
Nuclear contribution   :     20.38591      -4.71202      -6.42192
                        -----------------------------------------
Total Dipole Moment    :      0.61804      -0.15136      -0.09651
                        -----------------------------------------
Magnitude (a.u.)       :      0.64359
Magnitude (Debye)      :      1.63587

Rotational constants in cm-1:     0.019728     0.008064     0.007355
Rotational constants in MHz :   591.420315   241.760505   220.506093

                             ****ORCA TERMINATED NORMALLY****
TOTAL RUN TIME: 0 days 0 hours 0 minutes 21 seconds 764 msec
