                         Program Version 4.2.1 -  RELEASE  -
|  1> ! wB97X-D3 SP def2-SVP
|  2> %pal
|  3> nprocs 24
|  4> end
|  5>
|  6> * xyz 0 1
|  7> S 	 -112.082 	 49.8251 	 -74.6887
|  8> C 	 -112.61 	 50.292 	 -76.3259
|  9> C 	 -111.75 	 51.1999 	 -76.9203
| 10> C 	 -110.632 	 51.3941 	 -76.0626
| 11> C 	 -110.582 	 50.6535 	 -74.884
| 12> H 	 -109.757 	 52.1088 	 -76.2294
| 13> C 	 -111.952 	 51.9345 	 -78.3007
| 14> H 	 -112.325 	 51.1741 	 -79.0093
| 15> H 	 -110.941 	 52.2233 	 -78.6334
| 16> C 	 -112.735 	 53.2853 	 -78.3237
| 17> H 	 -112.902 	 53.5777 	 -79.336
| 18> H 	 -113.78 	 53.1058 	 -78.0798
| 19> C 	 -112.159 	 54.543 	 -77.698
| 20> H 	 -111.237 	 54.8035 	 -78.237
| 21> H 	 -112.848 	 55.3263 	 -77.8396
| 22> H 	 -111.965 	 54.4515 	 -76.6069
| 23> S 	 -110.233 	 50.1816 	 -72.1548
| 24> C 	 -108.661 	 50.4666 	 -71.4318
| 25> C 	 -107.775 	 50.9635 	 -72.3873
| 26> C 	 -108.314 	 51.0137 	 -73.7179
| 27> C 	 -109.628 	 50.5702 	 -73.7989
| 28> H 	 -106.806 	 51.3024 	 -71.9938
| 29> C 	 -107.452 	 51.2054 	 -74.8753
| 30> H 	 -107.85 	 50.8295 	 -75.7843
| 31> H 	 -106.529 	 50.5623 	 -74.6957
| 32> C 	 -107.057 	 52.6567 	 -75.1755
| 33> H 	 -106.408 	 53.1859 	 -74.3606
| 34> H 	 -107.91 	 53.3538 	 -75.3655
| 35> C 	 -106.109 	 52.6902 	 -76.4468
| 36> H 	 -105.979 	 53.7429 	 -76.7805
| 37> H 	 -106.597 	 52.2648 	 -77.3259
| 38> H 	 -105.141 	 52.1773 	 -76.3239
| 39> H 	 -113.573 	 49.948 	 -76.7395
| 40> H 	 -108.43 	 50.4273 	 -70.3911
| 41> *
| 42>
| 43>                          ****END OF INPUT****

CARTESIAN COORDINATES (ANGSTROEM)
---------------------------------
  S    -112.082000   49.825100  -74.688700
  C    -112.610000   50.292000  -76.325900
  C    -111.750000   51.199900  -76.920300
  C    -110.632000   51.394100  -76.062600
  C    -110.582000   50.653500  -74.884000
  H    -109.757000   52.108800  -76.229400
  C    -111.952000   51.934500  -78.300700
  H    -112.325000   51.174100  -79.009300
  H    -110.941000   52.223300  -78.633400
  C    -112.735000   53.285300  -78.323700
  H    -112.902000   53.577700  -79.336000
  H    -113.780000   53.105800  -78.079800
  C    -112.159000   54.543000  -77.698000
  H    -111.237000   54.803500  -78.237000
  H    -112.848000   55.326300  -77.839600
  H    -111.965000   54.451500  -76.606900
  S    -110.233000   50.181600  -72.154800
  C    -108.661000   50.466600  -71.431800
  C    -107.775000   50.963500  -72.387300
  C    -108.314000   51.013700  -73.717900
  C    -109.628000   50.570200  -73.798900
  H    -106.806000   51.302400  -71.993800
  C    -107.452000   51.205400  -74.875300
  H    -107.850000   50.829500  -75.784300
  H    -106.529000   50.562300  -74.695700
  C    -107.057000   52.656700  -75.175500
  H    -106.408000   53.185900  -74.360600
  H    -107.910000   53.353800  -75.365500
  C    -106.109000   52.690200  -76.446800
  H    -105.979000   53.742900  -76.780500
  H    -106.597000   52.264800  -77.325900
  H    -105.141000   52.177300  -76.323900
  H    -113.573000   49.948000  -76.739500
  H    -108.430000   50.427300  -70.391100

 Total Charge           Charge          ....    0
 Multiplicity           Mult            ....    1
 Number of Electrons    NEL             ....  134
 Basis Dimension        Dim             ....  322

ORBITAL ENERGIES
----------------

  NO   OCC          E(Eh)            E(eV)
   0   2.0000     -88.965753     -2420.8812
   1   2.0000     -88.964609     -2420.8501
   2   2.0000     -10.331632      -281.1380
   3   2.0000     -10.330092      -281.0961
   4   2.0000     -10.320159      -280.8258
   5   2.0000     -10.319466      -280.8069
   6   2.0000     -10.308564      -280.5103
   7   2.0000     -10.306351      -280.4501
   8   2.0000     -10.303121      -280.3622
   9   2.0000     -10.302729      -280.3515
  10   2.0000     -10.300352      -280.2868
  11   2.0000     -10.298452      -280.2351
  12   2.0000     -10.291376      -280.0426
  13   2.0000     -10.286172      -279.9010
  14   2.0000     -10.284165      -279.8464
  15   2.0000     -10.279382      -279.7162
  16   2.0000      -8.079821      -219.8631
  17   2.0000      -8.079546      -219.8556
  18   2.0000      -6.038519      -164.3164
  19   2.0000      -6.038064      -164.3041
  20   2.0000      -6.034457      -164.2059
  21   2.0000      -6.034110      -164.1965
  22   2.0000      -6.030393      -164.0953
  23   2.0000      -6.030206      -164.0902
  24   2.0000      -1.006973       -27.4011
  25   2.0000      -0.981229       -26.7006
  26   2.0000      -0.910891       -24.7866
  27   2.0000      -0.906603       -24.6699
  28   2.0000      -0.872434       -23.7401
  29   2.0000      -0.850613       -23.1464
  30   2.0000      -0.839835       -22.8531
  31   2.0000      -0.812255       -22.1026
  32   2.0000      -0.786392       -21.3988
  33   2.0000      -0.772252       -21.0140
  34   2.0000      -0.705951       -19.2099
  35   2.0000      -0.702808       -19.1244
  36   2.0000      -0.695172       -18.9166
  37   2.0000      -0.661738       -18.0068
  38   2.0000      -0.635925       -17.3044
  39   2.0000      -0.615094       -16.7376
  40   2.0000      -0.598479       -16.2854
  41   2.0000      -0.566907       -15.4263
  42   2.0000      -0.561434       -15.2774
  43   2.0000      -0.550699       -14.9853
  44   2.0000      -0.542530       -14.7630
  45   2.0000      -0.526930       -14.3385
  46   2.0000      -0.512500       -13.9458
  47   2.0000      -0.508243       -13.8300
  48   2.0000      -0.503860       -13.7107
  49   2.0000      -0.496861       -13.5203
  50   2.0000      -0.492478       -13.4010
  51   2.0000      -0.476401       -12.9635
  52   2.0000      -0.471732       -12.8365
  53   2.0000      -0.469523       -12.7764
  54   2.0000      -0.454921       -12.3790
  55   2.0000      -0.449515       -12.2319
  56   2.0000      -0.446465       -12.1489
  57   2.0000      -0.441370       -12.0103
  58   2.0000      -0.430648       -11.7185
  59   2.0000      -0.429667       -11.6918
  60   2.0000      -0.418871       -11.3981
  61   2.0000      -0.411113       -11.1870
  62   2.0000      -0.407853       -11.0982
  63   2.0000      -0.361021        -9.8239
  64   2.0000      -0.335227        -9.1220
  65   2.0000      -0.326455        -8.8833
  66   2.0000      -0.281457        -7.6588
  67   0.0000       0.016327         0.4443
  68   0.0000       0.079378         2.1600
  69   0.0000       0.093701         2.5497
  70   0.0000       0.115736         3.1493
  71   0.0000       0.126570         3.4442

MULLIKEN ATOMIC CHARGES
-----------------------
   0 S :    0.086351
   1 C :   -0.138848
   2 C :   -0.063008
   3 C :   -0.022093
   4 C :   -0.135105
   5 H :    0.017454
   6 C :    0.070771
   7 H :    0.042364
   8 H :    0.017339
   9 C :   -0.063257
  10 H :    0.013901
  11 H :    0.016098
  12 C :   -0.035179
  13 H :    0.029200
  14 H :    0.026981
  15 H :    0.049031
  16 S :    0.081080
  17 C :   -0.078509
  18 C :   -0.042313
  19 C :   -0.013621
  20 C :   -0.082627
  21 H :    0.027849
  22 C :    0.026758
  23 H :    0.014059
  24 H :    0.046858
  25 C :   -0.132318
  26 H :    0.046530
  27 H :    0.049244
  28 C :   -0.066621
  29 H :    0.034672
  30 H :    0.022282
  31 H :    0.045116
  32 H :    0.055922
  33 H :    0.053639
Sum of atomic charges:    0.0000000

LOEWDIN ATOMIC CHARGES
----------------------
   0 S :    0.399840
   1 C :   -0.185883
   2 C :   -0.066333
   3 C :   -0.081190
   4 C :   -0.195678
   5 H :    0.037161
   6 C :   -0.025184
   7 H :    0.038137
   8 H :    0.029376
   9 C :   -0.047614
  10 H :    0.024110
  11 H :    0.021211
  12 C :   -0.059662
  13 H :    0.026743
  14 H :    0.024203
  15 H :    0.030424
  16 S :    0.377241
  17 C :   -0.175987
  18 C :   -0.069138
  19 C :   -0.059996
  20 C :   -0.180495
  21 H :    0.036087
  22 C :   -0.039980
  23 H :    0.024473
  24 H :    0.045846
  25 C :   -0.046156
  26 H :    0.032719
  27 H :    0.026589
  28 C :   -0.075142
  29 H :    0.028554
  30 H :    0.019967
  31 H :    0.027232
  32 H :    0.030466
  33 H :    0.028058

  Mayer bond orders larger than 0.100000
B(  0-S ,  1-C ) :   1.1440 B(  0-S ,  4-C ) :   1.1466 B(  1-C ,  2-C ) :   1.6057
B(  1-C ,  4-C ) :   0.1021 B(  1-C , 32-H ) :   0.9683 B(  2-C ,  3-C ) :   1.2585
B(  2-C ,  6-C ) :   1.0014 B(  3-C ,  4-C ) :   1.5662 B(  3-C ,  5-H ) :   0.9702
B(  4-C , 20-C ) :   1.0800 B(  6-C ,  7-H ) :   0.9446 B(  6-C ,  8-H ) :   0.9422
B(  6-C ,  9-C ) :   1.0695 B(  9-C , 10-H ) :   0.9487 B(  9-C , 11-H ) :   0.9532
B(  9-C , 12-C ) :   1.0836 B( 12-C , 13-H ) :   0.9723 B( 12-C , 14-H ) :   0.9696
B( 12-C , 15-H ) :   0.9764 B( 16-S , 17-C ) :   1.1457 B( 16-S , 20-C ) :   1.1094
B( 17-C , 18-C ) :   1.6266 B( 17-C , 33-H ) :   0.9699 B( 18-C , 19-C ) :   1.2168
B( 18-C , 21-H ) :   0.9892 B( 19-C , 20-C ) :   1.5968 B( 19-C , 22-C ) :   1.0540
B( 22-C , 23-H ) :   0.9428 B( 22-C , 24-H ) :   0.9390 B( 22-C , 25-C ) :   1.0417
B( 25-C , 26-H ) :   0.9568 B( 25-C , 27-H ) :   0.9528 B( 25-C , 28-C ) :   1.0742
B( 28-C , 29-H ) :   0.9754 B( 28-C , 30-H ) :   0.9736 B( 28-C , 31-H ) :   0.9767

Dispersion correction           -0.013992048
FINAL SINGLE POINT ENERGY     -1339.873882586804

DIPOLE MOMENT
-------------
                                X             Y             Z
Electronic contribution:    -10.51512     -19.79704      21.96574
Nuclear contribution   :     10.82214      20.31699     -22.42499
                        -----------------------------------------
Total Dipole Moment    :      0.30702       0.51995      -0.45926
                        -----------------------------------------
Magnitude (a.u.)       :      0.75864
Magnitude (Debye)      :      1.92830

Rotational constants in cm-1:     0.016650     0.009543     0.006726
Rotational constants in MHz :   499.143652   286.084168   201.635967

                             ****ORCA TERMINATED NORMALLY****
TOTAL RUN TIME: 0 days 0 hours 0 minutes 21 seconds 406 msec
