                         Program Version 4.2.1 -  RELEASE  -
|  1> ! wB97X-D3 SP def2-SVP
|  2> %pal
|  3> nprocs 24
|  4> end
|  5>
|  6> * xyz 0 1
|  7> S 	 -48.485 	 17.7211 	 29.2186
|  8> C 	 -47.5617 	 18.5867 	 27.9871
|  9> C 	 -46.1918 	 18.4201 	 28.1299
| 10> C 	 -45.8882 	 17.6055 	 29.313
| 11> C 	 -47.0394 	 17.2272 	 30.0273
| 12> H 	 -44.9592 	 17.2409 	 29.6676
| 13> C 	 -45.143 	 18.9748 	 27.241
| 14> H 	 -44.2389 	 18.9929 	 27.9078
| 15> H 	 -45.3662 	 20.0425 	 27.211
| 16> C 	 -44.7757 	 18.3593 	 25.8808
| 17> H 	 -45.5786 	 18.6057 	 25.1625
| 18> H 	 -43.7883 	 18.8332 	 25.4946
| 19> C 	 -44.6196 	 16.8399 	 26.0747
| 20> H 	 -45.5111 	 16.4168 	 26.4201
| 21> H 	 -44.3927 	 16.2595 	 25.1738
| 22> H 	 -43.7821 	 16.7549 	 26.7712
| 23> S 	 -45.7358 	 16.5893 	 32.407
| 24> C 	 -46.195 	 15.1118 	 33.3474
| 25> C 	 -47.2623 	 14.5062 	 32.6727
| 26> C 	 -47.8385 	 15.2173 	 31.5342
| 27> C 	 -47.0223 	 16.3401 	 31.2023
| 28> H 	 -47.6455 	 13.5782 	 33.0876
| 29> C 	 -49.0458 	 14.6941 	 30.8795
| 30> H 	 -49.6522 	 15.5916 	 30.5507
| 31> H 	 -49.572 	 14.1309 	 31.6737
| 32> C 	 -48.7532 	 13.6403 	 29.7932
| 33> H 	 -49.6566 	 13.0213 	 29.7132
| 34> H 	 -47.9494 	 12.8838 	 30.1238
| 35> C 	 -48.3145 	 14.2548 	 28.4159
| 36> H 	 -47.3975 	 14.8423 	 28.3921
| 37> H 	 -49.1513 	 14.9114 	 28.1047
| 38> H 	 -48.1154 	 13.4148 	 27.7649
| 39> H 	 -48.0407 	 19.0946 	 27.1403
| 40> H 	 -45.579 	 14.618 	 34.1163
| 41> *
| 42>
| 43>                          ****END OF INPUT****

CARTESIAN COORDINATES (ANGSTROEM)
---------------------------------
  S    -48.485000   17.721100   29.218600
  C    -47.561700   18.586700   27.987100
  C    -46.191800   18.420100   28.129900
  C    -45.888200   17.605500   29.313000
  C    -47.039400   17.227200   30.027300
  H    -44.959200   17.240900   29.667600
  C    -45.143000   18.974800   27.241000
  H    -44.238900   18.992900   27.907800
  H    -45.366200   20.042500   27.211000
  C    -44.775700   18.359300   25.880800
  H    -45.578600   18.605700   25.162500
  H    -43.788300   18.833200   25.494600
  C    -44.619600   16.839900   26.074700
  H    -45.511100   16.416800   26.420100
  H    -44.392700   16.259500   25.173800
  H    -43.782100   16.754900   26.771200
  S    -45.735800   16.589300   32.407000
  C    -46.195000   15.111800   33.347400
  C    -47.262300   14.506200   32.672700
  C    -47.838500   15.217300   31.534200
  C    -47.022300   16.340100   31.202300
  H    -47.645500   13.578200   33.087600
  C    -49.045800   14.694100   30.879500
  H    -49.652200   15.591600   30.550700
  H    -49.572000   14.130900   31.673700
  C    -48.753200   13.640300   29.793200
  H    -49.656600   13.021300   29.713200
  H    -47.949400   12.883800   30.123800
  C    -48.314500   14.254800   28.415900
  H    -47.397500   14.842300   28.392100
  H    -49.151300   14.911400   28.104700
  H    -48.115400   13.414800   27.764900
  H    -48.040700   19.094600   27.140300
  H    -45.579000   14.618000   34.116300

 Total Charge           Charge          ....    0
 Multiplicity           Mult            ....    1
 Number of Electrons    NEL             ....  134
 Basis Dimension        Dim             ....  322

ORBITAL ENERGIES
----------------

  NO   OCC          E(Eh)            E(eV)
   0   2.0000     -88.971429     -2421.0357
   1   2.0000     -88.966090     -2420.8904
   2   2.0000     -10.336496      -281.2704
   3   2.0000     -10.333662      -281.1932
   4   2.0000     -10.324812      -280.9524
   5   2.0000     -10.318520      -280.7812
   6   2.0000     -10.308077      -280.4970
   7   2.0000     -10.308048      -280.4962
   8   2.0000     -10.299723      -280.2697
   9   2.0000     -10.299634      -280.2673
  10   2.0000     -10.297517      -280.2097
  11   2.0000     -10.296318      -280.1771
  12   2.0000     -10.295501      -280.1548
  13   2.0000     -10.292877      -280.0834
  14   2.0000     -10.275046      -279.5982
  15   2.0000     -10.273375      -279.5527
  16   2.0000      -8.085516      -220.0181
  17   2.0000      -8.079062      -219.8425
  18   2.0000      -6.044105      -164.4685
  19   2.0000      -6.040064      -164.3585
  20   2.0000      -6.037842      -164.2980
  21   2.0000      -6.036310      -164.2564
  22   2.0000      -6.033734      -164.1862
  23   2.0000      -6.029721      -164.0771
  24   2.0000      -1.000200       -27.2168
  25   2.0000      -0.973745       -26.4969
  26   2.0000      -0.914346       -24.8806
  27   2.0000      -0.906234       -24.6599
  28   2.0000      -0.865302       -23.5461
  29   2.0000      -0.848582       -23.0911
  30   2.0000      -0.838560       -22.8184
  31   2.0000      -0.809289       -22.0219
  32   2.0000      -0.783767       -21.3274
  33   2.0000      -0.769298       -20.9337
  34   2.0000      -0.705862       -19.2075
  35   2.0000      -0.703556       -19.1447
  36   2.0000      -0.687404       -18.7052
  37   2.0000      -0.659366       -17.9423
  38   2.0000      -0.639866       -17.4116
  39   2.0000      -0.604653       -16.4534
  40   2.0000      -0.586284       -15.9536
  41   2.0000      -0.573362       -15.6020
  42   2.0000      -0.554052       -15.0765
  43   2.0000      -0.548024       -14.9125
  44   2.0000      -0.545372       -14.8403
  45   2.0000      -0.531926       -14.4744
  46   2.0000      -0.523485       -14.2448
  47   2.0000      -0.512377       -13.9425
  48   2.0000      -0.502265       -13.6673
  49   2.0000      -0.493839       -13.4380
  50   2.0000      -0.487023       -13.2526
  51   2.0000      -0.469074       -12.7642
  52   2.0000      -0.467073       -12.7097
  53   2.0000      -0.463374       -12.6090
  54   2.0000      -0.458724       -12.4825
  55   2.0000      -0.449231       -12.2242
  56   2.0000      -0.439818       -11.9681
  57   2.0000      -0.438003       -11.9187
  58   2.0000      -0.433857       -11.8058
  59   2.0000      -0.426600       -11.6084
  60   2.0000      -0.416882       -11.3439
  61   2.0000      -0.412129       -11.2146
  62   2.0000      -0.407228       -11.0812
  63   2.0000      -0.350600        -9.5403
  64   2.0000      -0.330928        -9.0050
  65   2.0000      -0.326240        -8.8774
  66   2.0000      -0.285630        -7.7724
  67   0.0000       0.019797         0.5387
  68   0.0000       0.075623         2.0578
  69   0.0000       0.103514         2.8168
  70   0.0000       0.112206         3.0533
  71   0.0000       0.115621         3.1462

MULLIKEN ATOMIC CHARGES
-----------------------
   0 S :    0.099971
   1 C :   -0.128880
   2 C :   -0.090451
   3 C :    0.017726
   4 C :   -0.134534
   5 H :    0.002258
   6 C :    0.028827
   7 H :    0.025606
   8 H :    0.036351
   9 C :   -0.065722
  10 H :    0.033088
  11 H :    0.049798
  12 C :   -0.038609
  13 H :    0.038529
  14 H :    0.032453
  15 H :    0.029175
  16 S :    0.084683
  17 C :   -0.104780
  18 C :   -0.047051
  19 C :   -0.046264
  20 C :   -0.142916
  21 H :    0.021218
  22 C :    0.039588
  23 H :    0.050185
  24 H :    0.028086
  25 C :   -0.090118
  26 H :    0.033015
  27 H :    0.036588
  28 C :   -0.050564
  29 H :    0.049823
  30 H :    0.037367
  31 H :    0.032084
  32 H :    0.057104
  33 H :    0.076366
Sum of atomic charges:   -0.0000000

LOEWDIN ATOMIC CHARGES
----------------------
   0 S :    0.420711
   1 C :   -0.197047
   2 C :   -0.060001
   3 C :   -0.061424
   4 C :   -0.198014
   5 H :    0.020376
   6 C :   -0.049430
   7 H :    0.036213
   8 H :    0.036667
   9 C :   -0.039404
  10 H :    0.021505
  11 H :    0.036971
  12 C :   -0.060959
  13 H :    0.019273
  14 H :    0.026571
  15 H :    0.027121
  16 S :    0.372980
  17 C :   -0.185158
  18 C :   -0.064918
  19 C :   -0.060533
  20 C :   -0.184702
  21 H :    0.028652
  22 C :   -0.047291
  23 H :    0.032970
  24 H :    0.038562
  25 C :   -0.040609
  26 H :    0.023231
  27 H :    0.031601
  28 C :   -0.070965
  29 H :    0.026768
  30 H :    0.024001
  31 H :    0.024484
  32 H :    0.032155
  33 H :    0.039642

  Mayer bond orders larger than 0.100000
B(  0-S ,  1-C ) :   1.1301 B(  0-S ,  4-C ) :   1.1568 B(  1-C ,  2-C ) :   1.6112
B(  1-C , 32-H ) :   0.9691 B(  2-C ,  3-C ) :   1.2222 B(  2-C ,  6-C ) :   1.0150
B(  3-C ,  4-C ) :   1.5585 B(  3-C ,  5-H ) :   0.9932 B(  4-C , 20-C ) :   1.0565
B(  6-C ,  7-H ) :   0.9407 B(  6-C ,  8-H ) :   0.9353 B(  6-C ,  9-C ) :   1.0580
B(  9-C , 10-H ) :   0.9566 B(  9-C , 11-H ) :   0.9562 B(  9-C , 12-C ) :   1.0687
B( 12-C , 13-H ) :   0.9719 B( 12-C , 14-H ) :   0.9735 B( 12-C , 15-H ) :   0.9779
B( 16-S , 17-C ) :   1.1191 B( 16-S , 20-C ) :   1.1419 B( 17-C , 18-C ) :   1.6359
B( 17-C , 33-H ) :   0.9625 B( 18-C , 19-C ) :   1.2362 B( 18-C , 21-H ) :   0.9782
B( 19-C , 20-C ) :   1.5464 B( 19-C , 22-C ) :   1.0518 B( 22-C , 23-H ) :   0.9368
B( 22-C , 24-H ) :   0.9218 B( 22-C , 25-C ) :   1.0641 B( 25-C , 26-H ) :   0.9575
B( 25-C , 27-H ) :   0.9545 B( 25-C , 28-C ) :   1.0674 B( 28-C , 29-H ) :   0.9762
B( 28-C , 30-H ) :   0.9736 B( 28-C , 31-H ) :   0.9723

Dispersion correction           -0.016088407
FINAL SINGLE POINT ENERGY     -1339.876695427289

DIPOLE MOMENT
-------------
                                X             Y             Z
Electronic contribution:     -3.40149       8.25281      19.30191
Nuclear contribution   :      3.48073      -8.63539     -19.71182
                        -----------------------------------------
Total Dipole Moment    :      0.07925      -0.38258      -0.40991
                        -----------------------------------------
Magnitude (a.u.)       :      0.56628
Magnitude (Debye)      :      1.43936

Rotational constants in cm-1:     0.020523     0.009071     0.007901
Rotational constants in MHz :   615.257785   271.940944   236.871161

                             ****ORCA TERMINATED NORMALLY****
TOTAL RUN TIME: 0 days 0 hours 0 minutes 21 seconds 521 msec
