                         Program Version 4.2.1 -  RELEASE  -
|  1> ! wB97X-D3 SP def2-SVP
|  2> %pal
|  3> nprocs 24
|  4> end
|  5>
|  6> * xyz 0 1
|  7> S 	 31.455 	 -31.7412 	 -111.002
|  8> C 	 31.4271 	 -31.629 	 -109.28
|  9> C 	 32.6823 	 -31.3303 	 -108.824
| 10> C 	 33.5851 	 -31.0017 	 -109.867
| 11> C 	 33.069 	 -31.1951 	 -111.09
| 12> H 	 34.5762 	 -30.6922 	 -109.786
| 13> C 	 33.064 	 -31.1743 	 -107.382
| 14> H 	 32.2655 	 -31.2246 	 -106.716
| 15> H 	 33.4966 	 -30.1969 	 -107.17
| 16> C 	 34.2162 	 -32.1207 	 -107.063
| 17> H 	 34.8605 	 -32.2498 	 -107.846
| 18> H 	 34.8062 	 -31.6392 	 -106.285
| 19> C 	 33.6599 	 -33.3604 	 -106.363
| 20> H 	 32.8975 	 -33.8396 	 -106.959
| 21> H 	 34.3066 	 -34.2614 	 -106.083
| 22> H 	 33.2114 	 -33.0274 	 -105.412
| 23> S 	 32.8683 	 -30.2035 	 -113.569
| 24> C 	 34.2212 	 -30.1932 	 -114.635
| 25> C 	 35.3093 	 -30.7635 	 -114.054
| 26> C 	 35.0889 	 -31.285 	 -112.796
| 27> C 	 33.8401 	 -30.9831 	 -112.347
| 28> H 	 36.221 	 -30.7959 	 -114.64
| 29> C 	 36.2754 	 -31.8248 	 -112.016
| 30> H 	 36.6343 	 -32.6664 	 -112.593
| 31> H 	 35.7749 	 -32.2253 	 -111.21
| 32> C 	 37.45 	 -30.8919 	 -111.689
| 33> H 	 36.9771 	 -29.9749 	 -111.31
| 34> H 	 37.892 	 -30.6027 	 -112.642
| 35> C 	 38.3674 	 -31.5253 	 -110.636
| 36> H 	 37.8551 	 -32.0163 	 -109.778
| 37> H 	 39.0701 	 -30.8986 	 -110.11
| 38> H 	 39.0101 	 -32.2791 	 -111.093
| 39> H 	 30.6973 	 -32.0962 	 -108.662
| 40> H 	 34.135 	 -29.7356 	 -115.6
| 41> *
| 42>
| 43>                          ****END OF INPUT****

CARTESIAN COORDINATES (ANGSTROEM)
---------------------------------
  S     31.455000  -31.741200  -111.002000
  C     31.427100  -31.629000  -109.280000
  C     32.682300  -31.330300  -108.824000
  C     33.585100  -31.001700  -109.867000
  C     33.069000  -31.195100  -111.090000
  H     34.576200  -30.692200  -109.786000
  C     33.064000  -31.174300  -107.382000
  H     32.265500  -31.224600  -106.716000
  H     33.496600  -30.196900  -107.170000
  C     34.216200  -32.120700  -107.063000
  H     34.860500  -32.249800  -107.846000
  H     34.806200  -31.639200  -106.285000
  C     33.659900  -33.360400  -106.363000
  H     32.897500  -33.839600  -106.959000
  H     34.306600  -34.261400  -106.083000
  H     33.211400  -33.027400  -105.412000
  S     32.868300  -30.203500  -113.569000
  C     34.221200  -30.193200  -114.635000
  C     35.309300  -30.763500  -114.054000
  C     35.088900  -31.285000  -112.796000
  C     33.840100  -30.983100  -112.347000
  H     36.221000  -30.795900  -114.640000
  C     36.275400  -31.824800  -112.016000
  H     36.634300  -32.666400  -112.593000
  H     35.774900  -32.225300  -111.210000
  C     37.450000  -30.891900  -111.689000
  H     36.977100  -29.974900  -111.310000
  H     37.892000  -30.602700  -112.642000
  C     38.367400  -31.525300  -110.636000
  H     37.855100  -32.016300  -109.778000
  H     39.070100  -30.898600  -110.110000
  H     39.010100  -32.279100  -111.093000
  H     30.697300  -32.096200  -108.662000
  H     34.135000  -29.735600  -115.600000

 Total Charge           Charge          ....    0
 Multiplicity           Mult            ....    1
 Number of Electrons    NEL             ....  134
 Basis Dimension        Dim             ....  322

ORBITAL ENERGIES
----------------

  NO   OCC          E(Eh)            E(eV)
   0   2.0000     -88.963911     -2420.8311
   1   2.0000     -88.961195     -2420.7572
   2   2.0000     -10.325432      -280.9693
   3   2.0000     -10.323296      -280.9112
   4   2.0000     -10.309681      -280.5407
   5   2.0000     -10.306366      -280.4505
   6   2.0000     -10.296575      -280.1840
   7   2.0000     -10.295778      -280.1624
   8   2.0000     -10.294526      -280.1283
   9   2.0000     -10.284779      -279.8631
  10   2.0000     -10.284436      -279.8537
  11   2.0000     -10.283575      -279.8303
  12   2.0000     -10.282911      -279.8122
  13   2.0000     -10.280729      -279.7529
  14   2.0000     -10.280518      -279.7471
  15   2.0000     -10.278838      -279.7014
  16   2.0000      -8.079960      -219.8669
  17   2.0000      -8.077120      -219.7896
  18   2.0000      -6.038416      -164.3136
  19   2.0000      -6.035394      -164.2314
  20   2.0000      -6.034293      -164.2015
  21   2.0000      -6.031445      -164.1240
  22   2.0000      -6.030673      -164.1029
  23   2.0000      -6.028079      -164.0324
  24   2.0000      -1.019516       -27.7424
  25   2.0000      -0.998280       -27.1646
  26   2.0000      -0.921399       -25.0725
  27   2.0000      -0.913986       -24.8708
  28   2.0000      -0.872391       -23.7390
  29   2.0000      -0.858169       -23.3520
  30   2.0000      -0.848061       -23.0769
  31   2.0000      -0.818484       -22.2721
  32   2.0000      -0.785451       -21.3732
  33   2.0000      -0.776588       -21.1320
  34   2.0000      -0.716288       -19.4912
  35   2.0000      -0.709189       -19.2980
  36   2.0000      -0.695636       -18.9292
  37   2.0000      -0.666968       -18.1491
  38   2.0000      -0.648848       -17.6561
  39   2.0000      -0.630757       -17.1638
  40   2.0000      -0.601703       -16.3732
  41   2.0000      -0.577013       -15.7013
  42   2.0000      -0.568884       -15.4801
  43   2.0000      -0.547614       -14.9013
  44   2.0000      -0.539825       -14.6894
  45   2.0000      -0.526494       -14.3266
  46   2.0000      -0.522519       -14.2185
  47   2.0000      -0.519927       -14.1479
  48   2.0000      -0.507387       -13.8067
  49   2.0000      -0.498012       -13.5516
  50   2.0000      -0.493409       -13.4264
  51   2.0000      -0.486303       -13.2330
  52   2.0000      -0.473268       -12.8783
  53   2.0000      -0.472073       -12.8458
  54   2.0000      -0.461478       -12.5575
  55   2.0000      -0.447773       -12.1845
  56   2.0000      -0.446252       -12.1431
  57   2.0000      -0.439658       -11.9637
  58   2.0000      -0.435428       -11.8486
  59   2.0000      -0.428211       -11.6522
  60   2.0000      -0.424198       -11.5430
  61   2.0000      -0.418533       -11.3889
  62   2.0000      -0.408285       -11.1100
  63   2.0000      -0.353873        -9.6294
  64   2.0000      -0.335261        -9.1229
  65   2.0000      -0.329137        -8.9563
  66   2.0000      -0.295017        -8.0278
  67   0.0000       0.037323         1.0156
  68   0.0000       0.078627         2.1396
  69   0.0000       0.115130         3.1328
  70   0.0000       0.121471         3.3054
  71   0.0000       0.125536         3.4160

MULLIKEN ATOMIC CHARGES
-----------------------
   0 S :    0.113853
   1 C :   -0.105758
   2 C :   -0.084385
   3 C :    0.022852
   4 C :   -0.099421
   5 H :   -0.020245
   6 C :    0.099263
   7 H :   -0.006206
   8 H :    0.026382
   9 C :   -0.025993
  10 H :    0.011896
  11 H :    0.016101
  12 C :   -0.077500
  13 H :    0.021558
  14 H :    0.040174
  15 H :    0.028632
  16 S :    0.096322
  17 C :   -0.084421
  18 C :   -0.046965
  19 C :   -0.034140
  20 C :   -0.182093
  21 H :    0.017038
  22 C :    0.097129
  23 H :    0.020100
  24 H :   -0.010053
  25 C :   -0.034803
  26 H :    0.029923
  27 H :    0.030762
  28 C :   -0.048124
  29 H :    0.033986
  30 H :    0.028605
  31 H :    0.030928
  32 H :    0.045110
  33 H :    0.049493
Sum of atomic charges:    0.0000000

LOEWDIN ATOMIC CHARGES
----------------------
   0 S :    0.425994
   1 C :   -0.207537
   2 C :   -0.054662
   3 C :   -0.065873
   4 C :   -0.201902
   5 H :    0.020367
   6 C :   -0.019500
   7 H :    0.018995
   8 H :    0.036205
   9 C :   -0.029560
  10 H :    0.009381
  11 H :    0.024064
  12 C :   -0.072786
  13 H :    0.017894
  14 H :    0.030515
  15 H :    0.025363
  16 S :    0.415242
  17 C :   -0.183371
  18 C :   -0.074590
  19 C :   -0.064187
  20 C :   -0.185324
  21 H :    0.032611
  22 C :   -0.024207
  23 H :    0.031286
  24 H :    0.014778
  25 C :   -0.034909
  26 H :    0.025691
  27 H :    0.026131
  28 C :   -0.070344
  29 H :    0.031839
  30 H :    0.024932
  31 H :    0.027742
  32 H :    0.025960
  33 H :    0.023762

  Mayer bond orders larger than 0.100000
B(  0-S ,  1-C ) :   1.1263 B(  0-S ,  4-C ) :   1.1688 B(  1-C ,  2-C ) :   1.6209
B(  1-C , 32-H ) :   0.9657 B(  2-C ,  3-C ) :   1.2149 B(  2-C ,  6-C ) :   1.0462
B(  3-C ,  4-C ) :   1.5857 B(  3-C ,  5-H ) :   1.0117 B(  4-C , 20-C ) :   0.9918
B(  6-C ,  7-H ) :   0.9417 B(  6-C ,  8-H ) :   0.9409 B(  6-C ,  9-C ) :   1.0491
B(  9-C , 10-H ) :   0.9640 B(  9-C , 11-H ) :   0.9571 B(  9-C , 12-C ) :   1.0617
B( 12-C , 13-H ) :   0.9785 B( 12-C , 14-H ) :   0.9755 B( 12-C , 15-H ) :   0.9778
B( 16-S , 17-C ) :   1.1629 B( 16-S , 20-C ) :   1.1593 B( 17-C , 18-C ) :   1.5993
B( 17-C , 20-C ) :   0.1029 B( 17-C , 33-H ) :   0.9726 B( 18-C , 19-C ) :   1.2303
B( 18-C , 21-H ) :   0.9958 B( 19-C , 20-C ) :   1.6106 B( 19-C , 22-C ) :   1.0420
B( 22-C , 23-H ) :   0.9181 B( 22-C , 24-H ) :   0.9306 B( 22-C , 25-C ) :   1.0572
B( 25-C , 26-H ) :   0.9580 B( 25-C , 27-H ) :   0.9504 B( 25-C , 28-C ) :   1.0713
B( 28-C , 29-H ) :   0.9759 B( 28-C , 30-H ) :   0.9753 B( 28-C , 31-H ) :   0.9753

Dispersion correction           -0.014336655
FINAL SINGLE POINT ENERGY     -1339.865364008695

DIPOLE MOMENT
-------------
                                X             Y             Z
Electronic contribution:    -22.07018       6.64587     -21.45608
Nuclear contribution   :     22.72634      -6.67274      21.78640
                        -----------------------------------------
Total Dipole Moment    :      0.65616      -0.02687       0.33032
                        -----------------------------------------
Magnitude (a.u.)       :      0.73511
Magnitude (Debye)      :      1.86849

Rotational constants in cm-1:     0.017193     0.010057     0.006693
Rotational constants in MHz :   515.446472   301.509690   200.654723

                             ****ORCA TERMINATED NORMALLY****
TOTAL RUN TIME: 0 days 0 hours 0 minutes 22 seconds 217 msec
