                         Program Version 4.2.1 -  RELEASE  -
|  1> ! wB97X-D3 SP def2-SVP
|  2> %pal
|  3> nprocs 24
|  4> end
|  5>
|  6> * xyz 0 1
|  7> S 	 -66.9106 	 8.22822 	 -69.1477
|  8> C 	 -66.9488 	 8.35068 	 -70.8709
|  9> C 	 -66.3905 	 7.23835 	 -71.4414
| 10> C 	 -66.0494 	 6.22043 	 -70.4398
| 11> C 	 -66.3729 	 6.57331 	 -69.1484
| 12> H 	 -65.5953 	 5.28096 	 -70.6358
| 13> C 	 -66.2712 	 6.86665 	 -72.8773
| 14> H 	 -65.3654 	 6.17868 	 -72.9138
| 15> H 	 -66.0106 	 7.7424 	 -73.4415
| 16> C 	 -67.4507 	 6.22688 	 -73.6044
| 17> H 	 -68.3173 	 6.63379 	 -73.0954
| 18> H 	 -67.5186 	 6.42239 	 -74.701
| 19> C 	 -67.4742 	 4.79737 	 -73.2342
| 20> H 	 -67.5622 	 4.46534 	 -72.1722
| 21> H 	 -68.3662 	 4.39084 	 -73.7366
| 22> H 	 -66.6349 	 4.3174 	 -73.6856
| 23> S 	 -65.2138 	 6.69831 	 -66.7268
| 24> C 	 -65.2077 	 5.36215 	 -65.6602
| 25> C 	 -65.6484 	 4.19695 	 -66.2716
| 26> C 	 -66.2564 	 4.50469 	 -67.5189
| 27> C 	 -66.0068 	 5.79927 	 -67.9558
| 28> H 	 -65.6512 	 3.23667 	 -65.7535
| 29> C 	 -66.8734 	 3.44332 	 -68.4547
| 30> H 	 -67.651 	 3.88737 	 -69.1021
| 31> H 	 -67.505 	 2.87179 	 -67.7593
| 32> C 	 -65.9071 	 2.52549 	 -69.1769
| 33> H 	 -65.5296 	 1.90629 	 -68.3909
| 34> H 	 -65.0293 	 3.19211 	 -69.277
| 35> C 	 -66.4175 	 1.70299 	 -70.4008
| 36> H 	 -65.7849 	 0.852367 	 -70.5567
| 37> H 	 -66.3783 	 2.34036 	 -71.2872
| 38> H 	 -67.3345 	 1.13579 	 -70.2221
| 39> H 	 -67.3383 	 9.1248 	 -71.4197
| 40> H 	 -64.7196 	 5.41258 	 -64.759
| 41> *
| 42>
| 43>                          ****END OF INPUT****

CARTESIAN COORDINATES (ANGSTROEM)
---------------------------------
  S    -66.910600    8.228220  -69.147700
  C    -66.948800    8.350680  -70.870900
  C    -66.390500    7.238350  -71.441400
  C    -66.049400    6.220430  -70.439800
  C    -66.372900    6.573310  -69.148400
  H    -65.595300    5.280960  -70.635800
  C    -66.271200    6.866650  -72.877300
  H    -65.365400    6.178680  -72.913800
  H    -66.010600    7.742400  -73.441500
  C    -67.450700    6.226880  -73.604400
  H    -68.317300    6.633790  -73.095400
  H    -67.518600    6.422390  -74.701000
  C    -67.474200    4.797370  -73.234200
  H    -67.562200    4.465340  -72.172200
  H    -68.366200    4.390840  -73.736600
  H    -66.634900    4.317400  -73.685600
  S    -65.213800    6.698310  -66.726800
  C    -65.207700    5.362150  -65.660200
  C    -65.648400    4.196950  -66.271600
  C    -66.256400    4.504690  -67.518900
  C    -66.006800    5.799270  -67.955800
  H    -65.651200    3.236670  -65.753500
  C    -66.873400    3.443320  -68.454700
  H    -67.651000    3.887370  -69.102100
  H    -67.505000    2.871790  -67.759300
  C    -65.907100    2.525490  -69.176900
  H    -65.529600    1.906290  -68.390900
  H    -65.029300    3.192110  -69.277000
  C    -66.417500    1.702990  -70.400800
  H    -65.784900    0.852367  -70.556700
  H    -66.378300    2.340360  -71.287200
  H    -67.334500    1.135790  -70.222100
  H    -67.338300    9.124800  -71.419700
  H    -64.719600    5.412580  -64.759000

 Total Charge           Charge          ....    0
 Multiplicity           Mult            ....    1
 Number of Electrons    NEL             ....  134
 Basis Dimension        Dim             ....  322

ORBITAL ENERGIES
----------------

  NO   OCC          E(Eh)            E(eV)
   0   2.0000     -88.965827     -2420.8832
   1   2.0000     -88.964166     -2420.8380
   2   2.0000     -10.328694      -281.0581
   3   2.0000     -10.324346      -280.9397
   4   2.0000     -10.309675      -280.5405
   5   2.0000     -10.309139      -280.5259
   6   2.0000     -10.303283      -280.3666
   7   2.0000     -10.300425      -280.2888
   8   2.0000     -10.297130      -280.1992
   9   2.0000     -10.291161      -280.0367
  10   2.0000     -10.288440      -279.9627
  11   2.0000     -10.288071      -279.9526
  12   2.0000     -10.286302      -279.9045
  13   2.0000     -10.285123      -279.8724
  14   2.0000     -10.284973      -279.8683
  15   2.0000     -10.272837      -279.5381
  16   2.0000      -8.081027      -219.8959
  17   2.0000      -8.080478      -219.8810
  18   2.0000      -6.039674      -164.3479
  19   2.0000      -6.038730      -164.3222
  20   2.0000      -6.035400      -164.2316
  21   2.0000      -6.034639      -164.2109
  22   2.0000      -6.031667      -164.1300
  23   2.0000      -6.031548      -164.1268
  24   2.0000      -1.013718       -27.5847
  25   2.0000      -0.990989       -26.9662
  26   2.0000      -0.921235       -25.0681
  27   2.0000      -0.907505       -24.6945
  28   2.0000      -0.875550       -23.8249
  29   2.0000      -0.852146       -23.1881
  30   2.0000      -0.846883       -23.0449
  31   2.0000      -0.818692       -22.2777
  32   2.0000      -0.784824       -21.3561
  33   2.0000      -0.775273       -21.0962
  34   2.0000      -0.708395       -19.2764
  35   2.0000      -0.703152       -19.1337
  36   2.0000      -0.695903       -18.9365
  37   2.0000      -0.667600       -18.1663
  38   2.0000      -0.647418       -17.6171
  39   2.0000      -0.616096       -16.7648
  40   2.0000      -0.597824       -16.2676
  41   2.0000      -0.579418       -15.7668
  42   2.0000      -0.563135       -15.3237
  43   2.0000      -0.555635       -15.1196
  44   2.0000      -0.545311       -14.8387
  45   2.0000      -0.521143       -14.1810
  46   2.0000      -0.517395       -14.0790
  47   2.0000      -0.515002       -14.0139
  48   2.0000      -0.511400       -13.9159
  49   2.0000      -0.506955       -13.7949
  50   2.0000      -0.491839       -13.3836
  51   2.0000      -0.486483       -13.2379
  52   2.0000      -0.473688       -12.8897
  53   2.0000      -0.468375       -12.7451
  54   2.0000      -0.465699       -12.6723
  55   2.0000      -0.452486       -12.3128
  56   2.0000      -0.438770       -11.9395
  57   2.0000      -0.433426       -11.7941
  58   2.0000      -0.429184       -11.6787
  59   2.0000      -0.423973       -11.5369
  60   2.0000      -0.417595       -11.3633
  61   2.0000      -0.410963       -11.1829
  62   2.0000      -0.401357       -10.9215
  63   2.0000      -0.352279        -9.5860
  64   2.0000      -0.333999        -9.0886
  65   2.0000      -0.325209        -8.8494
  66   2.0000      -0.294580        -8.0159
  67   0.0000       0.032659         0.8887
  68   0.0000       0.071964         1.9583
  69   0.0000       0.110672         3.0115
  70   0.0000       0.127587         3.4718
  71   0.0000       0.128506         3.4968

MULLIKEN ATOMIC CHARGES
-----------------------
   0 S :    0.111156
   1 C :   -0.076730
   2 C :   -0.080329
   3 C :    0.018213
   4 C :   -0.111558
   5 H :   -0.005111
   6 C :    0.041530
   7 H :    0.026007
   8 H :    0.011906
   9 C :   -0.018825
  10 H :    0.019624
  11 H :    0.046679
  12 C :   -0.084038
  13 H :    0.057397
  14 H :    0.023618
  15 H :    0.018340
  16 S :    0.111164
  17 C :   -0.064965
  18 C :   -0.033303
  19 C :   -0.086462
  20 C :   -0.149875
  21 H :    0.030622
  22 C :    0.041025
  23 H :    0.030996
  24 H :    0.011794
  25 C :   -0.063699
  26 H :    0.007211
  27 H :    0.030215
  28 C :   -0.007746
  29 H :    0.021578
  30 H :    0.046901
  31 H :    0.035156
  32 H :    0.012254
  33 H :    0.029255
Sum of atomic charges:   -0.0000000

LOEWDIN ATOMIC CHARGES
----------------------
   0 S :    0.415451
   1 C :   -0.185453
   2 C :   -0.060838
   3 C :   -0.056198
   4 C :   -0.200563
   5 H :    0.022406
   6 C :   -0.039767
   7 H :    0.034148
   8 H :    0.024593
   9 C :   -0.041503
  10 H :    0.026895
  11 H :    0.034345
  12 C :   -0.071281
  13 H :    0.031994
  14 H :    0.026778
  15 H :    0.015899
  16 S :    0.440343
  17 C :   -0.182261
  18 C :   -0.069939
  19 C :   -0.060984
  20 C :   -0.204804
  21 H :    0.036526
  22 C :   -0.040030
  23 H :    0.029027
  24 H :    0.025527
  25 C :   -0.051046
  26 H :    0.020608
  27 H :    0.027337
  28 C :   -0.063397
  29 H :    0.028128
  30 H :    0.030173
  31 H :    0.033170
  32 H :    0.014929
  33 H :    0.009790

  Mayer bond orders larger than 0.100000
B(  0-S ,  1-C ) :   1.1337 B(  0-S ,  4-C ) :   1.1467 B(  1-C ,  2-C ) :   1.6066
B(  1-C , 32-H ) :   0.9829 B(  2-C ,  3-C ) :   1.2232 B(  2-C ,  6-C ) :   1.0488
B(  3-C ,  4-C ) :   1.5701 B(  3-C ,  5-H ) :   0.9969 B(  4-C , 20-C ) :   1.0303
B(  6-C ,  7-H ) :   0.9406 B(  6-C ,  8-H ) :   0.9284 B(  6-C ,  9-C ) :   1.0570
B(  9-C , 10-H ) :   0.9456 B(  9-C , 11-H ) :   0.9538 B(  9-C , 12-C ) :   1.0880
B( 12-C , 13-H ) :   0.9674 B( 12-C , 14-H ) :   0.9664 B( 12-C , 15-H ) :   0.9746
B( 16-S , 17-C ) :   1.1872 B( 16-S , 20-C ) :   1.1614 B( 17-C , 18-C ) :   1.5734
B( 17-C , 20-C ) :   0.1004 B( 17-C , 33-H ) :   0.9770 B( 18-C , 19-C ) :   1.2606
B( 18-C , 21-H ) :   0.9895 B( 19-C , 20-C ) :   1.5804 B( 19-C , 22-C ) :   1.0537
B( 22-C , 23-H ) :   0.9415 B( 22-C , 24-H ) :   0.9264 B( 22-C , 25-C ) :   1.0403
B( 25-C , 26-H ) :   0.9471 B( 25-C , 27-H ) :   0.9596 B( 25-C , 28-C ) :   1.0682
B( 28-C , 29-H ) :   0.9693 B( 28-C , 30-H ) :   0.9753 B( 28-C , 31-H ) :   0.9714

Dispersion correction           -0.015536803
FINAL SINGLE POINT ENERGY     -1339.862182976010

DIPOLE MOMENT
-------------
                                X             Y             Z
Electronic contribution:      4.42755      22.52057      22.21388
Nuclear contribution   :     -4.42909     -23.06510     -22.62190
                        -----------------------------------------
Total Dipole Moment    :     -0.00154      -0.54453      -0.40801
                        -----------------------------------------
Magnitude (a.u.)       :      0.68044
Magnitude (Debye)      :      1.72953

Rotational constants in cm-1:     0.017456     0.010800     0.007019
Rotational constants in MHz :   523.328433   323.764583   210.413410

                             ****ORCA TERMINATED NORMALLY****
TOTAL RUN TIME: 0 days 0 hours 0 minutes 22 seconds 946 msec
