                         Program Version 4.2.1 -  RELEASE  -
|  1> ! wB97X-D3 SP def2-SVP
|  2> %pal
|  3> nprocs 24
|  4> end
|  5>
|  6> * xyz 0 1
|  7> S 	 -125.444 	 64.3796 	 -59.1122
|  8> C 	 -127.203 	 64.1315 	 -59.2767
|  9> C 	 -127.605 	 62.9081 	 -58.7482
| 10> C 	 -126.456 	 62.2113 	 -58.2061
| 11> C 	 -125.218 	 62.7875 	 -58.3543
| 12> H 	 -126.578 	 61.2679 	 -57.7247
| 13> C 	 -129.036 	 62.4642 	 -58.5473
| 14> H 	 -129.754 	 63.2731 	 -58.2658
| 15> H 	 -129.101 	 61.8037 	 -57.7377
| 16> C 	 -129.666 	 61.6912 	 -59.7434
| 17> H 	 -130.758 	 61.5345 	 -59.5354
| 18> H 	 -129.603 	 62.2777 	 -60.6621
| 19> C 	 -128.93 	 60.3798 	 -59.9943
| 20> H 	 -128.845 	 59.7147 	 -59.1969
| 21> H 	 -129.408 	 59.7646 	 -60.7982
| 22> H 	 -127.904 	 60.5487 	 -60.2041
| 23> S 	 -122.804 	 63.428 	 -57.3117
| 24> C 	 -121.597 	 62.153 	 -56.9591
| 25> C 	 -122.063 	 60.9047 	 -57.3101
| 26> C 	 -123.344 	 60.9297 	 -57.9242
| 27> C 	 -123.945 	 62.2063 	 -57.9475
| 28> H 	 -121.486 	 60.0224 	 -57.0504
| 29> C 	 -124.045 	 59.7005 	 -58.5223
| 30> H 	 -124.958 	 59.5683 	 -57.8757
| 31> H 	 -123.413 	 58.8091 	 -58.2806
| 32> C 	 -124.242 	 59.7951 	 -59.9976
| 33> H 	 -124.763 	 60.6412 	 -60.3196
| 34> H 	 -124.648 	 58.892 	 -60.5201
| 35> C 	 -122.872 	 59.8711 	 -60.6799
| 36> H 	 -122.903 	 59.7145 	 -61.7219
| 37> H 	 -122.344 	 58.9159 	 -60.2612
| 38> H 	 -122.193 	 60.7155 	 -60.4124
| 39> H 	 -127.953 	 64.897 	 -59.4931
| 40> H 	 -120.567 	 62.1926 	 -56.5736
| 41> *
| 42>
| 43>                          ****END OF INPUT****

CARTESIAN COORDINATES (ANGSTROEM)
---------------------------------
  S    -125.444000   64.379600  -59.112200
  C    -127.203000   64.131500  -59.276700
  C    -127.605000   62.908100  -58.748200
  C    -126.456000   62.211300  -58.206100
  C    -125.218000   62.787500  -58.354300
  H    -126.578000   61.267900  -57.724700
  C    -129.036000   62.464200  -58.547300
  H    -129.754000   63.273100  -58.265800
  H    -129.101000   61.803700  -57.737700
  C    -129.666000   61.691200  -59.743400
  H    -130.758000   61.534500  -59.535400
  H    -129.603000   62.277700  -60.662100
  C    -128.930000   60.379800  -59.994300
  H    -128.845000   59.714700  -59.196900
  H    -129.408000   59.764600  -60.798200
  H    -127.904000   60.548700  -60.204100
  S    -122.804000   63.428000  -57.311700
  C    -121.597000   62.153000  -56.959100
  C    -122.063000   60.904700  -57.310100
  C    -123.344000   60.929700  -57.924200
  C    -123.945000   62.206300  -57.947500
  H    -121.486000   60.022400  -57.050400
  C    -124.045000   59.700500  -58.522300
  H    -124.958000   59.568300  -57.875700
  H    -123.413000   58.809100  -58.280600
  C    -124.242000   59.795100  -59.997600
  H    -124.763000   60.641200  -60.319600
  H    -124.648000   58.892000  -60.520100
  C    -122.872000   59.871100  -60.679900
  H    -122.903000   59.714500  -61.721900
  H    -122.344000   58.915900  -60.261200
  H    -122.193000   60.715500  -60.412400
  H    -127.953000   64.897000  -59.493100
  H    -120.567000   62.192600  -56.573600

 Total Charge           Charge          ....    0
 Multiplicity           Mult            ....    1
 Number of Electrons    NEL             ....  134
 Basis Dimension        Dim             ....  322

ORBITAL ENERGIES
----------------

  NO   OCC          E(Eh)            E(eV)
   0   2.0000     -88.970379     -2421.0071
   1   2.0000     -88.969111     -2420.9726
   2   2.0000     -10.336230      -281.2631
   3   2.0000     -10.335613      -281.2463
   4   2.0000     -10.324031      -280.9312
   5   2.0000     -10.321181      -280.8536
   6   2.0000     -10.311562      -280.5919
   7   2.0000     -10.306813      -280.4627
   8   2.0000     -10.299784      -280.2714
   9   2.0000     -10.297164      -280.2001
  10   2.0000     -10.294655      -280.1318
  11   2.0000     -10.294630      -280.1311
  12   2.0000     -10.291740      -280.0525
  13   2.0000     -10.281843      -279.7832
  14   2.0000     -10.276559      -279.6394
  15   2.0000     -10.269609      -279.4503
  16   2.0000      -8.083858      -219.9730
  17   2.0000      -8.082503      -219.9361
  18   2.0000      -6.042649      -164.4288
  19   2.0000      -6.041193      -164.3892
  20   2.0000      -6.038543      -164.3171
  21   2.0000      -6.037169      -164.2797
  22   2.0000      -6.034359      -164.2032
  23   2.0000      -6.033162      -164.1707
  24   2.0000      -1.001801       -27.2604
  25   2.0000      -0.978684       -26.6313
  26   2.0000      -0.914824       -24.8936
  27   2.0000      -0.912019       -24.8173
  28   2.0000      -0.871194       -23.7064
  29   2.0000      -0.847045       -23.0493
  30   2.0000      -0.841122       -22.8881
  31   2.0000      -0.816329       -22.2134
  32   2.0000      -0.784362       -21.3436
  33   2.0000      -0.769781       -20.9468
  34   2.0000      -0.711408       -19.3584
  35   2.0000      -0.704812       -19.1789
  36   2.0000      -0.687845       -18.7172
  37   2.0000      -0.663696       -18.0601
  38   2.0000      -0.638807       -17.3828
  39   2.0000      -0.619893       -16.8681
  40   2.0000      -0.589805       -16.0494
  41   2.0000      -0.576738       -15.6938
  42   2.0000      -0.561700       -15.2846
  43   2.0000      -0.550618       -14.9831
  44   2.0000      -0.545864       -14.8537
  45   2.0000      -0.538959       -14.6658
  46   2.0000      -0.513510       -13.9733
  47   2.0000      -0.507945       -13.8219
  48   2.0000      -0.506594       -13.7851
  49   2.0000      -0.495293       -13.4776
  50   2.0000      -0.480325       -13.0703
  51   2.0000      -0.476569       -12.9681
  52   2.0000      -0.471584       -12.8324
  53   2.0000      -0.464679       -12.6446
  54   2.0000      -0.458748       -12.4832
  55   2.0000      -0.448615       -12.2074
  56   2.0000      -0.442708       -12.0467
  57   2.0000      -0.434139       -11.8135
  58   2.0000      -0.429582       -11.6895
  59   2.0000      -0.426302       -11.6003
  60   2.0000      -0.419562       -11.4168
  61   2.0000      -0.414775       -11.2866
  62   2.0000      -0.412868       -11.2347
  63   2.0000      -0.353255        -9.6126
  64   2.0000      -0.335614        -9.1325
  65   2.0000      -0.330626        -8.9968
  66   2.0000      -0.288965        -7.8631
  67   0.0000       0.016338         0.4446
  68   0.0000       0.070274         1.9123
  69   0.0000       0.095279         2.5927
  70   0.0000       0.116793         3.1781
  71   0.0000       0.127167         3.4604

MULLIKEN ATOMIC CHARGES
-----------------------
   0 S :    0.105042
   1 C :   -0.116807
   2 C :   -0.088604
   3 C :    0.017223
   4 C :   -0.101365
   5 H :   -0.007178
   6 C :    0.058789
   7 H :    0.037612
   8 H :    0.007990
   9 C :   -0.067869
  10 H :    0.037087
  11 H :    0.033186
  12 C :   -0.042884
  13 H :    0.002129
  14 H :    0.038393
  15 H :    0.028752
  16 S :    0.091101
  17 C :   -0.082890
  18 C :   -0.048425
  19 C :   -0.064664
  20 C :   -0.157670
  21 H :    0.024710
  22 C :    0.057523
  23 H :    0.047425
  24 H :    0.018038
  25 C :   -0.029720
  26 H :    0.042361
  27 H :    0.037877
  28 C :   -0.100203
  29 H :    0.028656
  30 H :    0.012937
  31 H :    0.060581
  32 H :    0.057689
  33 H :    0.063177
Sum of atomic charges:   -0.0000000

LOEWDIN ATOMIC CHARGES
----------------------
   0 S :    0.380179
   1 C :   -0.185301
   2 C :   -0.061765
   3 C :   -0.059656
   4 C :   -0.192388
   5 H :    0.022441
   6 C :   -0.031400
   7 H :    0.037515
   8 H :    0.022120
   9 C :   -0.035973
  10 H :    0.027617
  11 H :    0.024012
  12 C :   -0.069197
  13 H :    0.012797
  14 H :    0.033162
  15 H :    0.023399
  16 S :    0.379497
  17 C :   -0.178069
  18 C :   -0.074428
  19 C :   -0.052213
  20 C :   -0.179153
  21 H :    0.035553
  22 C :   -0.035186
  23 H :    0.034650
  24 H :    0.031243
  25 C :   -0.042290
  26 H :    0.018244
  27 H :    0.035128
  28 C :   -0.066939
  29 H :    0.015983
  30 H :    0.026448
  31 H :    0.029579
  32 H :    0.034378
  33 H :    0.040011

  Mayer bond orders larger than 0.100000
B(  0-S ,  1-C ) :   1.1295 B(  0-S ,  4-C ) :   1.1169 B(  1-C ,  2-C ) :   1.6257
B(  1-C , 32-H ) :   0.9592 B(  2-C ,  3-C ) :   1.2362 B(  2-C ,  6-C ) :   1.0223
B(  3-C ,  4-C ) :   1.5760 B(  3-C ,  5-H ) :   0.9990 B(  4-C , 20-C ) :   1.0767
B(  6-C ,  7-H ) :   0.9452 B(  6-C ,  8-H ) :   0.9437 B(  6-C ,  9-C ) :   1.0659
B(  9-C , 10-H ) :   0.9570 B(  9-C , 11-H ) :   0.9582 B(  9-C , 12-C ) :   1.0740
B( 12-C , 13-H ) :   0.9728 B( 12-C , 14-H ) :   0.9722 B( 12-C , 15-H ) :   0.9717
B( 16-S , 17-C ) :   1.1407 B( 16-S , 20-C ) :   1.1244 B( 17-C , 18-C ) :   1.6324
B( 17-C , 20-C ) :   0.1048 B( 17-C , 33-H ) :   0.9585 B( 18-C , 19-C ) :   1.2504
B( 18-C , 21-H ) :   0.9840 B( 19-C , 20-C ) :   1.5768 B( 19-C , 22-C ) :   1.0147
B( 22-C , 23-H ) :   0.9377 B( 22-C , 24-H ) :   0.9364 B( 22-C , 25-C ) :   1.0716
B( 25-C , 26-H ) :   0.9555 B( 25-C , 27-H ) :   0.9573 B( 25-C , 28-C ) :   1.0587
B( 28-C , 29-H ) :   0.9755 B( 28-C , 30-H ) :   0.9747 B( 28-C , 31-H ) :   0.9724

Dispersion correction           -0.015636115
FINAL SINGLE POINT ENERGY     -1339.869323246544

DIPOLE MOMENT
-------------
                                X             Y             Z
Electronic contribution:     13.44174      21.62442      10.59264
Nuclear contribution   :    -13.75636     -22.24686     -10.53309
                        -----------------------------------------
Total Dipole Moment    :     -0.31462      -0.62244       0.05955
                        -----------------------------------------
Magnitude (a.u.)       :      0.69998
Magnitude (Debye)      :      1.77920

Rotational constants in cm-1:     0.020338     0.009479     0.007358
Rotational constants in MHz :   609.723425   284.161826   220.579835

                             ****ORCA TERMINATED NORMALLY****
TOTAL RUN TIME: 0 days 0 hours 0 minutes 22 seconds 882 msec
