                         Program Version 4.2.1 -  RELEASE  -
|  1> ! wB97X-D3 SP def2-SVP
|  2> %pal
|  3> nprocs 24
|  4> end
|  5>
|  6> * xyz 0 1
|  7> S 	 -61.2926 	 -4.79762 	 -30.291
|  8> C 	 -62.5907 	 -4.84832 	 -31.476
|  9> C 	 -63.7927 	 -4.67997 	 -30.8383
| 10> C 	 -63.6806 	 -4.61377 	 -29.4289
| 11> C 	 -62.3478 	 -4.62644 	 -28.9657
| 12> H 	 -64.4933 	 -4.55612 	 -28.7165
| 13> C 	 -65.1512 	 -4.5776 	 -31.5688
| 14> H 	 -65.0208 	 -4.9083 	 -32.5963
| 15> H 	 -65.4433 	 -3.54052 	 -31.4761
| 16> C 	 -66.2647 	 -5.40433 	 -31.0129
| 17> H 	 -65.8303 	 -6.43907 	 -31.046
| 18> H 	 -66.5607 	 -5.04896 	 -29.9792
| 19> C 	 -67.5744 	 -5.21718 	 -31.7858
| 20> H 	 -67.4811 	 -4.98583 	 -32.8587
| 21> H 	 -67.9315 	 -6.23171 	 -31.8836
| 22> H 	 -68.2658 	 -4.51232 	 -31.3235
| 23> S 	 -60.5805 	 -5.51677 	 -27.0856
| 24> C 	 -60.7429 	 -4.99347 	 -25.465
| 25> C 	 -61.6998 	 -3.96617 	 -25.2562
| 26> C 	 -62.4389 	 -3.68231 	 -26.4792
| 27> C 	 -61.9515 	 -4.50022 	 -27.5681
| 28> H 	 -61.716 	 -3.41625 	 -24.3552
| 29> C 	 -63.5169 	 -2.61173 	 -26.5943
| 30> H 	 -63.7325 	 -2.25173 	 -25.5157
| 31> H 	 -64.4351 	 -3.04785 	 -26.7966
| 32> C 	 -63.1555 	 -1.4573 	 -27.6205
| 33> H 	 -64.0662 	 -0.854044 	 -27.8124
| 34> H 	 -63.1196 	 -1.8886 	 -28.5672
| 35> C 	 -62.0741 	 -0.325375 	 -27.1944
| 36> H 	 -62.1913 	 0.078357 	 -26.2188
| 37> H 	 -62.177 	 0.534645 	 -27.8145
| 38> H 	 -61.124 	 -0.732037 	 -27.1791
| 39> H 	 -62.5079 	 -4.87199 	 -32.5458
| 40> H 	 -60.0332 	 -5.3551 	 -24.7203
| 41> *
| 42>
| 43>                          ****END OF INPUT****

CARTESIAN COORDINATES (ANGSTROEM)
---------------------------------
  S    -61.292600   -4.797620  -30.291000
  C    -62.590700   -4.848320  -31.476000
  C    -63.792700   -4.679970  -30.838300
  C    -63.680600   -4.613770  -29.428900
  C    -62.347800   -4.626440  -28.965700
  H    -64.493300   -4.556120  -28.716500
  C    -65.151200   -4.577600  -31.568800
  H    -65.020800   -4.908300  -32.596300
  H    -65.443300   -3.540520  -31.476100
  C    -66.264700   -5.404330  -31.012900
  H    -65.830300   -6.439070  -31.046000
  H    -66.560700   -5.048960  -29.979200
  C    -67.574400   -5.217180  -31.785800
  H    -67.481100   -4.985830  -32.858700
  H    -67.931500   -6.231710  -31.883600
  H    -68.265800   -4.512320  -31.323500
  S    -60.580500   -5.516770  -27.085600
  C    -60.742900   -4.993470  -25.465000
  C    -61.699800   -3.966170  -25.256200
  C    -62.438900   -3.682310  -26.479200
  C    -61.951500   -4.500220  -27.568100
  H    -61.716000   -3.416250  -24.355200
  C    -63.516900   -2.611730  -26.594300
  H    -63.732500   -2.251730  -25.515700
  H    -64.435100   -3.047850  -26.796600
  C    -63.155500   -1.457300  -27.620500
  H    -64.066200   -0.854044  -27.812400
  H    -63.119600   -1.888600  -28.567200
  C    -62.074100   -0.325375  -27.194400
  H    -62.191300    0.078357  -26.218800
  H    -62.177000    0.534645  -27.814500
  H    -61.124000   -0.732037  -27.179100
  H    -62.507900   -4.871990  -32.545800
  H    -60.033200   -5.355100  -24.720300

 Total Charge           Charge          ....    0
 Multiplicity           Mult            ....    1
 Number of Electrons    NEL             ....  134
 Basis Dimension        Dim             ....  322

ORBITAL ENERGIES
----------------

  NO   OCC          E(Eh)            E(eV)
   0   2.0000     -88.969558     -2420.9848
   1   2.0000     -88.967077     -2420.9173
   2   2.0000     -10.332616      -281.1648
   3   2.0000     -10.328774      -281.0602
   4   2.0000     -10.319776      -280.8154
   5   2.0000     -10.315781      -280.7067
   6   2.0000     -10.310121      -280.5527
   7   2.0000     -10.299886      -280.2742
   8   2.0000     -10.299726      -280.2698
   9   2.0000     -10.297563      -280.2109
  10   2.0000     -10.290903      -280.0297
  11   2.0000     -10.289840      -280.0008
  12   2.0000     -10.289692      -279.9967
  13   2.0000     -10.287936      -279.9490
  14   2.0000     -10.278529      -279.6930
  15   2.0000     -10.271558      -279.5033
  16   2.0000      -8.084526      -219.9911
  17   2.0000      -8.082177      -219.9272
  18   2.0000      -6.042809      -164.4332
  19   2.0000      -6.040726      -164.3765
  20   2.0000      -6.038972      -164.3288
  21   2.0000      -6.036466      -164.2606
  22   2.0000      -6.035564      -164.2361
  23   2.0000      -6.033055      -164.1678
  24   2.0000      -1.005868       -27.3711
  25   2.0000      -0.980413       -26.6784
  26   2.0000      -0.916541       -24.9404
  27   2.0000      -0.897198       -24.4140
  28   2.0000      -0.868308       -23.6279
  29   2.0000      -0.845641       -23.0111
  30   2.0000      -0.842873       -22.9358
  31   2.0000      -0.808970       -22.0132
  32   2.0000      -0.787792       -21.4369
  33   2.0000      -0.775105       -21.0917
  34   2.0000      -0.717857       -19.5339
  35   2.0000      -0.695521       -18.9261
  36   2.0000      -0.685231       -18.6461
  37   2.0000      -0.662245       -18.0206
  38   2.0000      -0.635543       -17.2940
  39   2.0000      -0.618250       -16.8234
  40   2.0000      -0.591826       -16.1044
  41   2.0000      -0.583907       -15.8889
  42   2.0000      -0.564460       -15.3597
  43   2.0000      -0.543974       -14.8023
  44   2.0000      -0.536725       -14.6050
  45   2.0000      -0.518921       -14.1206
  46   2.0000      -0.514451       -13.9989
  47   2.0000      -0.507852       -13.8194
  48   2.0000      -0.503150       -13.6914
  49   2.0000      -0.497091       -13.5265
  50   2.0000      -0.488456       -13.2916
  51   2.0000      -0.486613       -13.2414
  52   2.0000      -0.473518       -12.8851
  53   2.0000      -0.469468       -12.7749
  54   2.0000      -0.464171       -12.6307
  55   2.0000      -0.452313       -12.3081
  56   2.0000      -0.444367       -12.0918
  57   2.0000      -0.435387       -11.8475
  58   2.0000      -0.425221       -11.5708
  59   2.0000      -0.423107       -11.5133
  60   2.0000      -0.419842       -11.4245
  61   2.0000      -0.410475       -11.1696
  62   2.0000      -0.408746       -11.1225
  63   2.0000      -0.348479        -9.4826
  64   2.0000      -0.332786        -9.0556
  65   2.0000      -0.330823        -9.0022
  66   2.0000      -0.281630        -7.6635
  67   0.0000       0.022629         0.6158
  68   0.0000       0.075526         2.0552
  69   0.0000       0.107903         2.9362
  70   0.0000       0.118096         3.2136
  71   0.0000       0.135868         3.6972

MULLIKEN ATOMIC CHARGES
-----------------------
   0 S :    0.112366
   1 C :   -0.124736
   2 C :   -0.075854
   3 C :   -0.004228
   4 C :   -0.125224
   5 H :    0.002641
   6 C :    0.091936
   7 H :    0.014933
   8 H :    0.032340
   9 C :   -0.138164
  10 H :    0.047938
  11 H :    0.040973
  12 C :   -0.033674
  13 H :    0.020818
  14 H :    0.030754
  15 H :    0.048163
  16 S :    0.118147
  17 C :   -0.101013
  18 C :   -0.024700
  19 C :   -0.034944
  20 C :   -0.174138
  21 H :    0.012229
  22 C :    0.068284
  23 H :    0.022175
  24 H :    0.015657
  25 C :   -0.057861
  26 H :    0.013358
  27 H :    0.024829
  28 C :    0.000939
  29 H :    0.012979
  30 H :    0.030121
  31 H :    0.029981
  32 H :    0.038727
  33 H :    0.064244
Sum of atomic charges:    0.0000000

LOEWDIN ATOMIC CHARGES
----------------------
   0 S :    0.423199
   1 C :   -0.204197
   2 C :   -0.062812
   3 C :   -0.075548
   4 C :   -0.210235
   5 H :    0.025971
   6 C :   -0.030824
   7 H :    0.026417
   8 H :    0.030161
   9 C :   -0.049770
  10 H :    0.031791
  11 H :    0.030012
  12 C :   -0.072162
  13 H :    0.024775
  14 H :    0.032757
  15 H :    0.028762
  16 S :    0.423727
  17 C :   -0.197450
  18 C :   -0.068878
  19 C :   -0.045294
  20 C :   -0.196513
  21 H :    0.026594
  22 C :   -0.032136
  23 H :    0.038544
  24 H :    0.020277
  25 C :   -0.032978
  26 H :    0.026493
  27 H :    0.018126
  28 C :   -0.050227
  29 H :    0.022752
  30 H :    0.026155
  31 H :    0.017072
  32 H :    0.028027
  33 H :    0.027411

  Mayer bond orders larger than 0.100000
B(  0-S ,  1-C ) :   1.1255 B(  0-S ,  4-C ) :   1.1792 B(  1-C ,  2-C ) :   1.6023
B(  1-C , 32-H ) :   0.9718 B(  2-C ,  3-C ) :   1.2603 B(  2-C ,  6-C ) :   1.0150
B(  3-C ,  4-C ) :   1.5152 B(  3-C ,  5-H ) :   1.0017 B(  4-C , 20-C ) :   1.0719
B(  6-C ,  7-H ) :   0.9415 B(  6-C ,  8-H ) :   0.9332 B(  6-C ,  9-C ) :   1.0778
B(  9-C , 10-H ) :   0.9661 B(  9-C , 11-H ) :   0.9472 B(  9-C , 12-C ) :   1.0661
B( 12-C , 13-H ) :   0.9719 B( 12-C , 14-H ) :   0.9725 B( 12-C , 15-H ) :   0.9784
B( 16-S , 17-C ) :   1.1885 B( 16-S , 20-C ) :   1.1540 B( 17-C , 18-C ) :   1.5653
B( 17-C , 20-C ) :   0.1076 B( 17-C , 33-H ) :   0.9656 B( 18-C , 19-C ) :   1.2686
B( 18-C , 21-H ) :   0.9948 B( 19-C , 20-C ) :   1.5305 B( 19-C , 22-C ) :   1.0349
B( 22-C , 23-H ) :   0.9370 B( 22-C , 24-H ) :   0.9328 B( 22-C , 25-C ) :   1.0630
B( 25-C , 26-H ) :   0.9547 B( 25-C , 27-H ) :   0.9586 B( 25-C , 28-C ) :   1.0515
B( 28-C , 29-H ) :   0.9747 B( 28-C , 30-H ) :   0.9789 B( 28-C , 31-H ) :   0.9821

Dispersion correction           -0.014443508
FINAL SINGLE POINT ENERGY     -1339.853294932546

DIPOLE MOMENT
-------------
                                X             Y             Z
Electronic contribution:     23.71628     -12.98140       4.71316
Nuclear contribution   :    -24.25237      13.33379      -4.67461
                        -----------------------------------------
Total Dipole Moment    :     -0.53609       0.35239       0.03854
                        -----------------------------------------
Magnitude (a.u.)       :      0.64270
Magnitude (Debye)      :      1.63361

Rotational constants in cm-1:     0.018963     0.008244     0.007125
Rotational constants in MHz :   568.494242   247.163579   213.601378

                             ****ORCA TERMINATED NORMALLY****
TOTAL RUN TIME: 0 days 0 hours 0 minutes 21 seconds 833 msec
