                         Program Version 4.2.1 -  RELEASE  -
|  1> ! wB97X-D3 SP def2-SVP
|  2> %pal
|  3> nprocs 24
|  4> end
|  5>
|  6> * xyz 0 1
|  7> S 	 -38.0915 	 -13.9201 	 13.911
|  8> C 	 -39.3693 	 -12.7294 	 13.7113
|  9> C 	 -39.4556 	 -11.8031 	 14.759
| 10> C 	 -38.4621 	 -12.1222 	 15.7638
| 11> C 	 -37.598 	 -13.2088 	 15.4966
| 12> H 	 -38.2711 	 -11.4926 	 16.5942
| 13> C 	 -40.3904 	 -10.618 	 14.861
| 14> H 	 -41.3923 	 -10.8785 	 15.1626
| 15> H 	 -40.5843 	 -10.2026 	 13.8806
| 16> C 	 -39.8053 	 -9.46181 	 15.7434
| 17> H 	 -40.6252 	 -8.6593 	 15.7509
| 18> H 	 -39.7517 	 -9.89495 	 16.6938
| 19> C 	 -38.4081 	 -8.9432 	 15.1579
| 20> H 	 -38.5217 	 -8.674 	 14.1266
| 21> H 	 -37.8963 	 -8.01156 	 15.5577
| 22> H 	 -37.5371 	 -9.5837 	 15.4006
| 23> S 	 -36.2312 	 -15.3671 	 16.5336
| 24> C 	 -34.6071 	 -15.1588 	 17.2386
| 25> C 	 -34.2258 	 -13.7733 	 17.2911
| 26> C 	 -35.2232 	 -12.9014 	 16.8435
| 27> C 	 -36.2906 	 -13.5884 	 16.1652
| 28> H 	 -33.3534 	 -13.5741 	 17.8719
| 29> C 	 -35.1179 	 -11.4395 	 17.0418
| 30> H 	 -35.2628 	 -11.215 	 18.0595
| 31> H 	 -35.8836 	 -10.9644 	 16.4505
| 32> C 	 -33.7995 	 -10.7804 	 16.5558
| 33> H 	 -33.6749 	 -10.9443 	 15.4717
| 34> H 	 -32.9644 	 -11.3216 	 17.0257
| 35> C 	 -33.5978 	 -9.32087 	 17.1035
| 36> H 	 -34.3631 	 -8.67761 	 16.7144
| 37> H 	 -32.636 	 -8.80821 	 16.9276
| 38> H 	 -33.7652 	 -9.16218 	 18.1448
| 39> H 	 -40.1306 	 -12.791 	 12.9789
| 40> H 	 -33.8848 	 -15.8763 	 17.6966
| 41> *
| 42>
| 43>                          ****END OF INPUT****

CARTESIAN COORDINATES (ANGSTROEM)
---------------------------------
  S    -38.091500  -13.920100   13.911000
  C    -39.369300  -12.729400   13.711300
  C    -39.455600  -11.803100   14.759000
  C    -38.462100  -12.122200   15.763800
  C    -37.598000  -13.208800   15.496600
  H    -38.271100  -11.492600   16.594200
  C    -40.390400  -10.618000   14.861000
  H    -41.392300  -10.878500   15.162600
  H    -40.584300  -10.202600   13.880600
  C    -39.805300   -9.461810   15.743400
  H    -40.625200   -8.659300   15.750900
  H    -39.751700   -9.894950   16.693800
  C    -38.408100   -8.943200   15.157900
  H    -38.521700   -8.674000   14.126600
  H    -37.896300   -8.011560   15.557700
  H    -37.537100   -9.583700   15.400600
  S    -36.231200  -15.367100   16.533600
  C    -34.607100  -15.158800   17.238600
  C    -34.225800  -13.773300   17.291100
  C    -35.223200  -12.901400   16.843500
  C    -36.290600  -13.588400   16.165200
  H    -33.353400  -13.574100   17.871900
  C    -35.117900  -11.439500   17.041800
  H    -35.262800  -11.215000   18.059500
  H    -35.883600  -10.964400   16.450500
  C    -33.799500  -10.780400   16.555800
  H    -33.674900  -10.944300   15.471700
  H    -32.964400  -11.321600   17.025700
  C    -33.597800   -9.320870   17.103500
  H    -34.363100   -8.677610   16.714400
  H    -32.636000   -8.808210   16.927600
  H    -33.765200   -9.162180   18.144800
  H    -40.130600  -12.791000   12.978900
  H    -33.884800  -15.876300   17.696600

 Total Charge           Charge          ....    0
 Multiplicity           Mult            ....    1
 Number of Electrons    NEL             ....  134
 Basis Dimension        Dim             ....  322

ORBITAL ENERGIES
----------------

  NO   OCC          E(Eh)            E(eV)
   0   2.0000     -88.972452     -2421.0635
   1   2.0000     -88.967478     -2420.9282
   2   2.0000     -10.342734      -281.4401
   3   2.0000     -10.341188      -281.3980
   4   2.0000     -10.329052      -281.0678
   5   2.0000     -10.315143      -280.6893
   6   2.0000     -10.312424      -280.6153
   7   2.0000     -10.305996      -280.4404
   8   2.0000     -10.302399      -280.3425
   9   2.0000     -10.297513      -280.2096
  10   2.0000     -10.295766      -280.1620
  11   2.0000     -10.295679      -280.1597
  12   2.0000     -10.295211      -280.1469
  13   2.0000     -10.289719      -279.9975
  14   2.0000     -10.289085      -279.9802
  15   2.0000     -10.280319      -279.7417
  16   2.0000      -8.085011      -220.0043
  17   2.0000      -8.080918      -219.8930
  18   2.0000      -6.043561      -164.4537
  19   2.0000      -6.039854      -164.3528
  20   2.0000      -6.039534      -164.3441
  21   2.0000      -6.035818      -164.2430
  22   2.0000      -6.035552      -164.2357
  23   2.0000      -6.031688      -164.1306
  24   2.0000      -0.990639       -26.9567
  25   2.0000      -0.973047       -26.4779
  26   2.0000      -0.910721       -24.7820
  27   2.0000      -0.905659       -24.6442
  28   2.0000      -0.857786       -23.3415
  29   2.0000      -0.849100       -23.1052
  30   2.0000      -0.834060       -22.6959
  31   2.0000      -0.811621       -22.0853
  32   2.0000      -0.786382       -21.3986
  33   2.0000      -0.772779       -21.0284
  34   2.0000      -0.714869       -19.4526
  35   2.0000      -0.706191       -19.2164
  36   2.0000      -0.691807       -18.8250
  37   2.0000      -0.656845       -17.8737
  38   2.0000      -0.640588       -17.4313
  39   2.0000      -0.626311       -17.0428
  40   2.0000      -0.592777       -16.1303
  41   2.0000      -0.570536       -15.5251
  42   2.0000      -0.564859       -15.3706
  43   2.0000      -0.556635       -15.1468
  44   2.0000      -0.527843       -14.3633
  45   2.0000      -0.517588       -14.0843
  46   2.0000      -0.512128       -13.9357
  47   2.0000      -0.507962       -13.8223
  48   2.0000      -0.504756       -13.7351
  49   2.0000      -0.494984       -13.4692
  50   2.0000      -0.487436       -13.2638
  51   2.0000      -0.473496       -12.8845
  52   2.0000      -0.465840       -12.6762
  53   2.0000      -0.464994       -12.6531
  54   2.0000      -0.461185       -12.5495
  55   2.0000      -0.452065       -12.3013
  56   2.0000      -0.444598       -12.0981
  57   2.0000      -0.440351       -11.9826
  58   2.0000      -0.437216       -11.8973
  59   2.0000      -0.429131       -11.6772
  60   2.0000      -0.423701       -11.5295
  61   2.0000      -0.413378       -11.2486
  62   2.0000      -0.409202       -11.1350
  63   2.0000      -0.341154        -9.2833
  64   2.0000      -0.332951        -9.0601
  65   2.0000      -0.328374        -8.9355
  66   2.0000      -0.286810        -7.8045
  67   0.0000       0.018843         0.5127
  68   0.0000       0.060403         1.6436
  69   0.0000       0.098231         2.6730
  70   0.0000       0.113366         3.0848
  71   0.0000       0.127029         3.4566

MULLIKEN ATOMIC CHARGES
-----------------------
   0 S :    0.105234
   1 C :   -0.100739
   2 C :   -0.098558
   3 C :    0.021439
   4 C :   -0.130046
   5 H :   -0.004057
   6 C :    0.080037
   7 H :    0.037162
   8 H :    0.017379
   9 C :   -0.090834
  10 H :    0.047788
  11 H :    0.034388
  12 C :   -0.072724
  13 H :    0.038306
  14 H :    0.029923
  15 H :    0.042218
  16 S :    0.104089
  17 C :   -0.103259
  18 C :   -0.057597
  19 C :   -0.032242
  20 C :   -0.153061
  21 H :    0.020549
  22 C :    0.112204
  23 H :    0.025643
  24 H :    0.012262
  25 C :   -0.100839
  26 H :    0.048287
  27 H :    0.029768
  28 C :   -0.042494
  29 H :    0.013667
  30 H :    0.042198
  31 H :    0.016919
  32 H :    0.034992
  33 H :    0.071997
Sum of atomic charges:   -0.0000000

LOEWDIN ATOMIC CHARGES
----------------------
   0 S :    0.386058
   1 C :   -0.185251
   2 C :   -0.060985
   3 C :   -0.057925
   4 C :   -0.190431
   5 H :    0.019004
   6 C :   -0.031740
   7 H :    0.032187
   8 H :    0.028356
   9 C :   -0.033398
  10 H :    0.036446
  11 H :    0.013110
  12 C :   -0.081603
  13 H :    0.025496
  14 H :    0.033799
  15 H :    0.029729
  16 S :    0.386070
  17 C :   -0.185379
  18 C :   -0.073468
  19 C :   -0.047599
  20 C :   -0.181187
  21 H :    0.029100
  22 C :   -0.028064
  23 H :    0.029843
  24 H :    0.028071
  25 C :   -0.035428
  26 H :    0.032057
  27 H :    0.021142
  28 C :   -0.073280
  29 H :    0.019756
  30 H :    0.032014
  31 H :    0.022668
  32 H :    0.019921
  33 H :    0.040914

  Mayer bond orders larger than 0.100000
B(  0-S ,  1-C ) :   1.1492 B(  0-S ,  4-C ) :   1.1368 B(  1-C ,  2-C ) :   1.6102
B(  1-C ,  4-C ) :   0.1011 B(  1-C , 32-H ) :   0.9680 B(  2-C ,  3-C ) :   1.2553
B(  2-C ,  6-C ) :   1.0090 B(  3-C ,  4-C ) :   1.5696 B(  3-C ,  5-H ) :   0.9897
B(  4-C , 20-C ) :   1.0128 B(  6-C ,  7-H ) :   0.9346 B(  6-C ,  8-H ) :   0.9418
B(  6-C ,  9-C ) :   1.0725 B(  9-C , 10-H ) :   0.9574 B(  9-C , 11-H ) :   0.9560
B(  9-C , 12-C ) :   1.0538 B( 12-C , 13-H ) :   0.9764 B( 12-C , 14-H ) :   0.9727
B( 12-C , 15-H ) :   0.9733 B( 16-S , 17-C ) :   1.1639 B( 16-S , 20-C ) :   1.1379
B( 17-C , 18-C ) :   1.5937 B( 17-C , 20-C ) :   0.1201 B( 17-C , 33-H ) :   0.9578
B( 18-C , 19-C ) :   1.2674 B( 18-C , 21-H ) :   0.9862 B( 19-C , 20-C ) :   1.5448
B( 19-C , 22-C ) :   1.0551 B( 22-C , 23-H ) :   0.9190 B( 22-C , 24-H ) :   0.9281
B( 22-C , 25-C ) :   1.0639 B( 25-C , 26-H ) :   0.9600 B( 25-C , 27-H ) :   0.9581
B( 25-C , 28-C ) :   1.0618 B( 28-C , 29-H ) :   0.9747 B( 28-C , 30-H ) :   0.9772
B( 28-C , 31-H ) :   0.9732

Dispersion correction           -0.014650773
FINAL SINGLE POINT ENERGY     -1339.839607972340

DIPOLE MOMENT
-------------
                                X             Y             Z
Electronic contribution:     -4.14365     -31.03809      -5.43396
Nuclear contribution   :      4.16201      31.80285       5.79576
                        -----------------------------------------
Total Dipole Moment    :      0.01836       0.76476       0.36181
                        -----------------------------------------
Magnitude (a.u.)       :      0.84622
Magnitude (Debye)      :      2.15093

Rotational constants in cm-1:     0.015390     0.010503     0.006795
Rotational constants in MHz :   461.368076   314.869882   203.700620

                             ****ORCA TERMINATED NORMALLY****
TOTAL RUN TIME: 0 days 0 hours 0 minutes 21 seconds 937 msec
