                         Program Version 4.2.1 -  RELEASE  -
|  1> ! wB97X-D3 SP def2-SVP
|  2> %pal
|  3> nprocs 24
|  4> end
|  5>
|  6> * xyz 0 1
|  7> S 	 0.656509 	 -18.0625 	 -103.54
|  8> C 	 2.29431 	 -17.6791 	 -103.159
|  9> C 	 2.71362 	 -16.5232 	 -103.801
| 10> C 	 1.68453 	 -15.8276 	 -104.461
| 11> C 	 0.464804 	 -16.5388 	 -104.447
| 12> H 	 1.74384 	 -14.8963 	 -104.956
| 13> C 	 4.15647 	 -16.1097 	 -103.937
| 14> H 	 4.31603 	 -15.6968 	 -104.935
| 15> H 	 4.90905 	 -16.8896 	 -103.873
| 16> C 	 4.55918 	 -15.1617 	 -102.847
| 17> H 	 3.918 	 -14.2464 	 -103.002
| 18> H 	 4.30934 	 -15.4967 	 -101.84
| 19> C 	 6.05778 	 -14.8292 	 -102.869
| 20> H 	 6.63165 	 -15.7811 	 -102.728
| 21> H 	 6.25694 	 -14.4992 	 -103.857
| 22> H 	 6.21389 	 -13.9864 	 -102.253
| 23> S 	 -1.91178 	 -17.4271 	 -105.664
| 24> C 	 -2.99747 	 -16.3032 	 -106.379
| 25> C 	 -2.62195 	 -14.9875 	 -106.204
| 26> C 	 -1.33337 	 -14.9274 	 -105.485
| 27> C 	 -0.812714 	 -16.1518 	 -105.074
| 28> H 	 -3.22766 	 -14.2102 	 -106.622
| 29> C 	 -0.721248 	 -13.5775 	 -105.174
| 30> H 	 -0.0836923 	 -13.6001 	 -104.279
| 31> H 	 -1.55808 	 -12.8703 	 -104.877
| 32> C 	 0.0295641 	 -12.8612 	 -106.314
| 33> H 	 -0.749252 	 -12.6662 	 -107.054
| 34> H 	 0.770482 	 -13.5309 	 -106.717
| 35> C 	 0.562525 	 -11.5412 	 -105.839
| 36> H 	 1.2553 	 -11.7257 	 -104.975
| 37> H 	 -0.1569 	 -10.7385 	 -105.582
| 38> H 	 1.23031 	 -10.9666 	 -106.53
| 39> H 	 3.07059 	 -18.3834 	 -102.762
| 40> H 	 -3.8581 	 -16.6118 	 -106.918
| 41> *
| 42>
| 43>                          ****END OF INPUT****

CARTESIAN COORDINATES (ANGSTROEM)
---------------------------------
  S      0.656509  -18.062500  -103.540000
  C      2.294310  -17.679100  -103.159000
  C      2.713620  -16.523200  -103.801000
  C      1.684530  -15.827600  -104.461000
  C      0.464804  -16.538800  -104.447000
  H      1.743840  -14.896300  -104.956000
  C      4.156470  -16.109700  -103.937000
  H      4.316030  -15.696800  -104.935000
  H      4.909050  -16.889600  -103.873000
  C      4.559180  -15.161700  -102.847000
  H      3.918000  -14.246400  -103.002000
  H      4.309340  -15.496700  -101.840000
  C      6.057780  -14.829200  -102.869000
  H      6.631650  -15.781100  -102.728000
  H      6.256940  -14.499200  -103.857000
  H      6.213890  -13.986400  -102.253000
  S     -1.911780  -17.427100  -105.664000
  C     -2.997470  -16.303200  -106.379000
  C     -2.621950  -14.987500  -106.204000
  C     -1.333370  -14.927400  -105.485000
  C     -0.812714  -16.151800  -105.074000
  H     -3.227660  -14.210200  -106.622000
  C     -0.721248  -13.577500  -105.174000
  H     -0.083692  -13.600100  -104.279000
  H     -1.558080  -12.870300  -104.877000
  C      0.029564  -12.861200  -106.314000
  H     -0.749252  -12.666200  -107.054000
  H      0.770482  -13.530900  -106.717000
  C      0.562525  -11.541200  -105.839000
  H      1.255300  -11.725700  -104.975000
  H     -0.156900  -10.738500  -105.582000
  H      1.230310  -10.966600  -106.530000
  H      3.070590  -18.383400  -102.762000
  H     -3.858100  -16.611800  -106.918000

 Total Charge           Charge          ....    0
 Multiplicity           Mult            ....    1
 Number of Electrons    NEL             ....  134
 Basis Dimension        Dim             ....  322

ORBITAL ENERGIES
----------------

  NO   OCC          E(Eh)            E(eV)
   0   2.0000     -88.971393     -2421.0347
   1   2.0000     -88.964396     -2420.8443
   2   2.0000     -10.340259      -281.3727
   3   2.0000     -10.334535      -281.2170
   4   2.0000     -10.317153      -280.7440
   5   2.0000     -10.315471      -280.6982
   6   2.0000     -10.311382      -280.5870
   7   2.0000     -10.300051      -280.2786
   8   2.0000     -10.299279      -280.2576
   9   2.0000     -10.295859      -280.1646
  10   2.0000     -10.294566      -280.1294
  11   2.0000     -10.288568      -279.9662
  12   2.0000     -10.288438      -279.9626
  13   2.0000     -10.286945      -279.9220
  14   2.0000     -10.283726      -279.8344
  15   2.0000     -10.275290      -279.6049
  16   2.0000      -8.085592      -220.0201
  17   2.0000      -8.079482      -219.8539
  18   2.0000      -6.044157      -164.4699
  19   2.0000      -6.040145      -164.3607
  20   2.0000      -6.038052      -164.3037
  21   2.0000      -6.036358      -164.2577
  22   2.0000      -6.033909      -164.1910
  23   2.0000      -6.030190      -164.0898
  24   2.0000      -1.004367       -27.3302
  25   2.0000      -0.984779       -26.7972
  26   2.0000      -0.918244       -24.9867
  27   2.0000      -0.913113       -24.8471
  28   2.0000      -0.870290       -23.6818
  29   2.0000      -0.855993       -23.2928
  30   2.0000      -0.846936       -23.0463
  31   2.0000      -0.816394       -22.2152
  32   2.0000      -0.781579       -21.2678
  33   2.0000      -0.769736       -20.9456
  34   2.0000      -0.706893       -19.2355
  35   2.0000      -0.695611       -18.9285
  36   2.0000      -0.694836       -18.9074
  37   2.0000      -0.666418       -18.1342
  38   2.0000      -0.640136       -17.4190
  39   2.0000      -0.627606       -17.0780
  40   2.0000      -0.598614       -16.2891
  41   2.0000      -0.573743       -15.6123
  42   2.0000      -0.573020       -15.5927
  43   2.0000      -0.563701       -15.3391
  44   2.0000      -0.532933       -14.5018
  45   2.0000      -0.522753       -14.2248
  46   2.0000      -0.516861       -14.0645
  47   2.0000      -0.511960       -13.9311
  48   2.0000      -0.506135       -13.7726
  49   2.0000      -0.500789       -13.6272
  50   2.0000      -0.489357       -13.3161
  51   2.0000      -0.486643       -13.2422
  52   2.0000      -0.471197       -12.8219
  53   2.0000      -0.465689       -12.6721
  54   2.0000      -0.461407       -12.5555
  55   2.0000      -0.456232       -12.4147
  56   2.0000      -0.444157       -12.0861
  57   2.0000      -0.439883       -11.9698
  58   2.0000      -0.426957       -11.6181
  59   2.0000      -0.425178       -11.5697
  60   2.0000      -0.422254       -11.4901
  61   2.0000      -0.414584       -11.2814
  62   2.0000      -0.410064       -11.1584
  63   2.0000      -0.361030        -9.8241
  64   2.0000      -0.334975        -9.1151
  65   2.0000      -0.327783        -8.9194
  66   2.0000      -0.284542        -7.7428
  67   0.0000       0.020135         0.5479
  68   0.0000       0.077301         2.1035
  69   0.0000       0.106006         2.8846
  70   0.0000       0.116270         3.1639
  71   0.0000       0.124538         3.3888

MULLIKEN ATOMIC CHARGES
-----------------------
   0 S :    0.115838
   1 C :   -0.114330
   2 C :   -0.079783
   3 C :    0.035493
   4 C :   -0.131801
   5 H :   -0.019713
   6 C :    0.064271
   7 H :    0.026501
   8 H :    0.005286
   9 C :   -0.125262
  10 H :    0.020868
  11 H :    0.029725
  12 C :    0.014928
  13 H :    0.041746
  14 H :    0.005398
  15 H :    0.032586
  16 S :    0.089294
  17 C :   -0.076932
  18 C :   -0.011972
  19 C :   -0.047501
  20 C :   -0.097093
  21 H :    0.019063
  22 C :   -0.034088
  23 H :    0.027474
  24 H :    0.031643
  25 C :   -0.026601
  26 H :    0.025003
  27 H :    0.035440
  28 C :   -0.074813
  29 H :    0.028142
  30 H :    0.040376
  31 H :    0.033234
  32 H :    0.067241
  33 H :    0.050338
Sum of atomic charges:   -0.0000000

LOEWDIN ATOMIC CHARGES
----------------------
   0 S :    0.409237
   1 C :   -0.217243
   2 C :   -0.060405
   3 C :   -0.057172
   4 C :   -0.173450
   5 H :    0.024074
   6 C :   -0.033713
   7 H :    0.031416
   8 H :    0.024188
   9 C :   -0.044353
  10 H :    0.023077
  11 H :    0.021404
  12 C :   -0.059696
  13 H :    0.032669
  14 H :    0.017734
  15 H :    0.024476
  16 S :    0.396417
  17 C :   -0.179124
  18 C :   -0.069686
  19 C :   -0.053440
  20 C :   -0.189356
  21 H :    0.031972
  22 C :   -0.042655
  23 H :    0.024694
  24 H :    0.036743
  25 C :   -0.040929
  26 H :    0.026061
  27 H :    0.021998
  28 C :   -0.078302
  29 H :    0.027078
  30 H :    0.030591
  31 H :    0.029623
  32 H :    0.041678
  33 H :    0.024393

  Mayer bond orders larger than 0.100000
B(  0-S ,  1-C ) :   1.1411 B(  0-S ,  4-C ) :   1.1572 B(  1-C ,  2-C ) :   1.6056
B(  1-C ,  4-C ) :   0.1035 B(  1-C , 32-H ) :   0.9537 B(  2-C ,  3-C ) :   1.2652
B(  2-C ,  6-C ) :   1.0213 B(  3-C ,  4-C ) :   1.5347 B(  3-C ,  5-H ) :   0.9975
B(  4-C , 20-C ) :   1.0675 B(  6-C ,  7-H ) :   0.9416 B(  6-C ,  8-H ) :   0.9435
B(  6-C ,  9-C ) :   1.0556 B(  9-C , 10-H ) :   0.9531 B(  9-C , 11-H ) :   0.9589
B(  9-C , 12-C ) :   1.0812 B( 12-C , 13-H ) :   0.9713 B( 12-C , 14-H ) :   0.9694
B( 12-C , 15-H ) :   0.9716 B( 16-S , 17-C ) :   1.1682 B( 16-S , 20-C ) :   1.1082
B( 17-C , 18-C ) :   1.6156 B( 17-C , 33-H ) :   0.9685 B( 18-C , 19-C ) :   1.2097
B( 18-C , 21-H ) :   0.9968 B( 19-C , 20-C ) :   1.6152 B( 19-C , 22-C ) :   1.0441
B( 22-C , 23-H ) :   0.9453 B( 22-C , 24-H ) :   0.9390 B( 22-C , 25-C ) :   1.0528
B( 25-C , 26-H ) :   0.9500 B( 25-C , 27-H ) :   0.9525 B( 25-C , 28-C ) :   1.0843
B( 28-C , 29-H ) :   0.9716 B( 28-C , 30-H ) :   0.9728 B( 28-C , 31-H ) :   0.9723

Dispersion correction           -0.013796271
FINAL SINGLE POINT ENERGY     -1339.882261337271

DIPOLE MOMENT
-------------
                                X             Y             Z
Electronic contribution:    -21.56945     -25.32580      -0.74749
Nuclear contribution   :     21.86910      25.91677       0.45656
                        -----------------------------------------
Total Dipole Moment    :      0.29964       0.59097      -0.29093
                        -----------------------------------------
Magnitude (a.u.)       :      0.72365
Magnitude (Debye)      :      1.83937

Rotational constants in cm-1:     0.017864     0.008903     0.006131
Rotational constants in MHz :   535.541235   266.903782   183.810493

                             ****ORCA TERMINATED NORMALLY****
TOTAL RUN TIME: 0 days 0 hours 0 minutes 21 seconds 487 msec
