                         Program Version 4.2.1 -  RELEASE  -
|  1> ! wB97X-D3 SP def2-SVP
|  2> %pal
|  3> nprocs 24
|  4> end
|  5>
|  6> * xyz 0 1
|  7> S 	 -51.6994 	 9.52334 	 -99.0742
|  8> C 	 -49.9827 	 9.52912 	 -98.6446
|  9> C 	 -49.3796 	 10.7021 	 -99.0012
| 10> C 	 -50.2017 	 11.4681 	 -99.9028
| 11> C 	 -51.4247 	 10.8584 	 -100.132
| 12> H 	 -49.9235 	 12.3594 	 -100.391
| 13> C 	 -47.9197 	 10.9668 	 -98.8138
| 14> H 	 -47.421 	 11.4525 	 -99.5941
| 15> H 	 -47.4123 	 10.0197 	 -98.8073
| 16> C 	 -47.4593 	 11.6085 	 -97.5016
| 17> H 	 -47.452 	 10.7454 	 -96.8254
| 18> H 	 -46.399 	 11.8973 	 -97.6604
| 19> C 	 -48.2817 	 12.8405 	 -97.0081
| 20> H 	 -49.3339 	 12.5618 	 -96.7129
| 21> H 	 -47.8304 	 13.3395 	 -96.1413
| 22> H 	 -48.2969 	 13.5548 	 -97.8263
| 23> S 	 -53.3122 	 12.7962 	 -100.037
| 24> C 	 -54.2535 	 13.1094 	 -101.405
| 25> C 	 -54.155 	 12.1717 	 -102.411
| 26> C 	 -53.0201 	 11.3319 	 -102.199
| 27> C 	 -52.5011 	 11.5411 	 -100.872
| 28> H 	 -54.6966 	 12.2902 	 -103.404
| 29> C 	 -52.4799 	 10.2754 	 -103.137
| 30> H 	 -51.6899 	 9.6476 	 -102.76
| 31> H 	 -52.0079 	 10.7937 	 -103.966
| 32> C 	 -53.5834 	 9.41885 	 -103.677
| 33> H 	 -54.14 	 9.91843 	 -104.491
| 34> H 	 -54.3662 	 9.18956 	 -102.883
| 35> C 	 -52.9664 	 8.14564 	 -104.335
| 36> H 	 -52.7073 	 7.43902 	 -103.609
| 37> H 	 -52.1053 	 8.25881 	 -104.969
| 38> H 	 -53.7169 	 7.57835 	 -104.862
| 39> H 	 -49.5029 	 8.8256 	 -98.0374
| 40> H 	 -55.0206 	 13.8813 	 -101.464
| 41> *
| 42>
| 43>                          ****END OF INPUT****

CARTESIAN COORDINATES (ANGSTROEM)
---------------------------------
  S    -51.699400    9.523340  -99.074200
  C    -49.982700    9.529120  -98.644600
  C    -49.379600   10.702100  -99.001200
  C    -50.201700   11.468100  -99.902800
  C    -51.424700   10.858400  -100.132000
  H    -49.923500   12.359400  -100.391000
  C    -47.919700   10.966800  -98.813800
  H    -47.421000   11.452500  -99.594100
  H    -47.412300   10.019700  -98.807300
  C    -47.459300   11.608500  -97.501600
  H    -47.452000   10.745400  -96.825400
  H    -46.399000   11.897300  -97.660400
  C    -48.281700   12.840500  -97.008100
  H    -49.333900   12.561800  -96.712900
  H    -47.830400   13.339500  -96.141300
  H    -48.296900   13.554800  -97.826300
  S    -53.312200   12.796200  -100.037000
  C    -54.253500   13.109400  -101.405000
  C    -54.155000   12.171700  -102.411000
  C    -53.020100   11.331900  -102.199000
  C    -52.501100   11.541100  -100.872000
  H    -54.696600   12.290200  -103.404000
  C    -52.479900   10.275400  -103.137000
  H    -51.689900    9.647600  -102.760000
  H    -52.007900   10.793700  -103.966000
  C    -53.583400    9.418850  -103.677000
  H    -54.140000    9.918430  -104.491000
  H    -54.366200    9.189560  -102.883000
  C    -52.966400    8.145640  -104.335000
  H    -52.707300    7.439020  -103.609000
  H    -52.105300    8.258810  -104.969000
  H    -53.716900    7.578350  -104.862000
  H    -49.502900    8.825600  -98.037400
  H    -55.020600   13.881300  -101.464000

 Total Charge           Charge          ....    0
 Multiplicity           Mult            ....    1
 Number of Electrons    NEL             ....  134
 Basis Dimension        Dim             ....  322

ORBITAL ENERGIES
----------------

  NO   OCC          E(Eh)            E(eV)
   0   2.0000     -88.966790     -2420.9094
   1   2.0000     -88.965569     -2420.8762
   2   2.0000     -10.323026      -280.9038
   3   2.0000     -10.319136      -280.7980
   4   2.0000     -10.310544      -280.5642
   5   2.0000     -10.308722      -280.5146
   6   2.0000     -10.305142      -280.4172
   7   2.0000     -10.297469      -280.2084
   8   2.0000     -10.296273      -280.1758
   9   2.0000     -10.288966      -279.9770
  10   2.0000     -10.288680      -279.9692
  11   2.0000     -10.288049      -279.9520
  12   2.0000     -10.283948      -279.8405
  13   2.0000     -10.281397      -279.7710
  14   2.0000     -10.280122      -279.7363
  15   2.0000     -10.268138      -279.4102
  16   2.0000      -8.083021      -219.9502
  17   2.0000      -8.080419      -219.8794
  18   2.0000      -6.041147      -164.3880
  19   2.0000      -6.038841      -164.3252
  20   2.0000      -6.037277      -164.2827
  21   2.0000      -6.035108      -164.2236
  22   2.0000      -6.034142      -164.1974
  23   2.0000      -6.031066      -164.1136
  24   2.0000      -1.009106       -27.4592
  25   2.0000      -0.987366       -26.8676
  26   2.0000      -0.912831       -24.8394
  27   2.0000      -0.911764       -24.8104
  28   2.0000      -0.864738       -23.5307
  29   2.0000      -0.848382       -23.0857
  30   2.0000      -0.842875       -22.9358
  31   2.0000      -0.811131       -22.0720
  32   2.0000      -0.786908       -21.4129
  33   2.0000      -0.772503       -21.0209
  34   2.0000      -0.701603       -19.0916
  35   2.0000      -0.697341       -18.9756
  36   2.0000      -0.693744       -18.8777
  37   2.0000      -0.647166       -17.6103
  38   2.0000      -0.642339       -17.4789
  39   2.0000      -0.614899       -16.7322
  40   2.0000      -0.600396       -16.3376
  41   2.0000      -0.575878       -15.6704
  42   2.0000      -0.561412       -15.2768
  43   2.0000      -0.548281       -14.9195
  44   2.0000      -0.538061       -14.6414
  45   2.0000      -0.520377       -14.1602
  46   2.0000      -0.515722       -14.0335
  47   2.0000      -0.508195       -13.8287
  48   2.0000      -0.499355       -13.5881
  49   2.0000      -0.491473       -13.3737
  50   2.0000      -0.486723       -13.2444
  51   2.0000      -0.475850       -12.9485
  52   2.0000      -0.470226       -12.7955
  53   2.0000      -0.468403       -12.7459
  54   2.0000      -0.458753       -12.4833
  55   2.0000      -0.452000       -12.2995
  56   2.0000      -0.445149       -12.1131
  57   2.0000      -0.443567       -12.0701
  58   2.0000      -0.434436       -11.8216
  59   2.0000      -0.422865       -11.5067
  60   2.0000      -0.419245       -11.4082
  61   2.0000      -0.412594       -11.2273
  62   2.0000      -0.409662       -11.1475
  63   2.0000      -0.337624        -9.1872
  64   2.0000      -0.326510        -8.8848
  65   2.0000      -0.316302        -8.6070
  66   2.0000      -0.305898        -8.3239
  67   0.0000       0.042711         1.1622
  68   0.0000       0.059074         1.6075
  69   0.0000       0.114503         3.1158
  70   0.0000       0.121494         3.3060
  71   0.0000       0.125705         3.4206

MULLIKEN ATOMIC CHARGES
-----------------------
   0 S :    0.118248
   1 C :   -0.097601
   2 C :   -0.048634
   3 C :    0.036263
   4 C :   -0.148256
   5 H :   -0.001793
   6 C :    0.069549
   7 H :    0.007200
   8 H :    0.013236
   9 C :   -0.095242
  10 H :    0.023754
  11 H :    0.031053
  12 C :   -0.055991
  13 H :    0.052142
  14 H :    0.039608
  15 H :    0.027456
  16 S :    0.153011
  17 C :   -0.088794
  18 C :   -0.063222
  19 C :   -0.040107
  20 C :   -0.215013
  21 H :    0.045652
  22 C :    0.117494
  23 H :    0.026688
  24 H :    0.025098
  25 C :   -0.134615
  26 H :    0.031411
  27 H :    0.051636
  28 C :   -0.020405
  29 H :    0.017169
  30 H :    0.030324
  31 H :    0.017403
  32 H :    0.022540
  33 H :    0.052738
Sum of atomic charges:   -0.0000000

LOEWDIN ATOMIC CHARGES
----------------------
   0 S :    0.405936
   1 C :   -0.177343
   2 C :   -0.058762
   3 C :   -0.049396
   4 C :   -0.210078
   5 H :    0.024339
   6 C :   -0.035166
   7 H :    0.020157
   8 H :    0.033558
   9 C :   -0.040642
  10 H :    0.018804
  11 H :    0.026880
  12 C :   -0.070887
  13 H :    0.033988
  14 H :    0.027603
  15 H :    0.023019
  16 S :    0.459684
  17 C :   -0.207002
  18 C :   -0.085756
  19 C :   -0.044554
  20 C :   -0.229976
  21 H :    0.044074
  22 C :   -0.034231
  23 H :    0.030339
  24 H :    0.035354
  25 C :   -0.042522
  26 H :    0.022389
  27 H :    0.033884
  28 C :   -0.065356
  29 H :    0.019508
  30 H :    0.024565
  31 H :    0.024602
  32 H :    0.015413
  33 H :    0.027575

  Mayer bond orders larger than 0.100000
B(  0-S ,  1-C ) :   1.1315 B(  0-S ,  4-C ) :   1.1537 B(  1-C ,  2-C ) :   1.6245
B(  1-C , 32-H ) :   0.9724 B(  2-C ,  3-C ) :   1.2108 B(  2-C ,  6-C ) :   1.0221
B(  3-C ,  4-C ) :   1.5800 B(  3-C ,  5-H ) :   1.0110 B(  4-C , 20-C ) :   1.0126
B(  6-C ,  7-H ) :   0.9468 B(  6-C ,  8-H ) :   0.9449 B(  6-C ,  9-C ) :   1.0649
B(  9-C , 10-H ) :   0.9648 B(  9-C , 11-H ) :   0.9564 B(  9-C , 12-C ) :   1.0734
B( 12-C , 13-H ) :   0.9706 B( 12-C , 14-H ) :   0.9766 B( 12-C , 15-H ) :   0.9767
B( 16-S , 17-C ) :   1.1894 B( 16-S , 20-C ) :   1.1775 B( 17-C , 18-C ) :   1.5894
B( 17-C , 33-H ) :   0.9610 B( 18-C , 19-C ) :   1.2778 B( 18-C , 21-H ) :   0.9739
B( 19-C , 20-C ) :   1.5548 B( 19-C , 22-C ) :   1.0450 B( 22-C , 23-H ) :   0.9458
B( 22-C , 24-H ) :   0.9127 B( 22-C , 25-C ) :   1.0564 B( 25-C , 26-H ) :   0.9491
B( 25-C , 27-H ) :   0.9629 B( 25-C , 28-C ) :   1.0817 B( 28-C , 29-H ) :   0.9724
B( 28-C , 30-H ) :   0.9736 B( 28-C , 31-H ) :   0.9714

Dispersion correction           -0.014152530
FINAL SINGLE POINT ENERGY     -1339.867044845605

DIPOLE MOMENT
-------------
                                X             Y             Z
Electronic contribution:    -12.60186       4.40966       6.90651
Nuclear contribution   :     12.95100      -4.36826      -7.18141
                        -----------------------------------------
Total Dipole Moment    :      0.34914       0.04140      -0.27490
                        -----------------------------------------
Magnitude (a.u.)       :      0.44630
Magnitude (Debye)      :      1.13440

Rotational constants in cm-1:     0.021385     0.007903     0.006559
Rotational constants in MHz :   641.113604   236.923905   196.621833

                             ****ORCA TERMINATED NORMALLY****
TOTAL RUN TIME: 0 days 0 hours 0 minutes 21 seconds 290 msec
