                         Program Version 4.2.1 -  RELEASE  -
|  1> ! wB97X-D3 SP def2-SVP
|  2> %pal
|  3> nprocs 24
|  4> end
|  5>
|  6> * xyz 0 1
|  7> S 	 -72.0074 	 0.599599 	 -67.6535
|  8> C 	 -71.5983 	 2.1808 	 -67.022
|  9> C 	 -72.6759 	 2.73843 	 -66.3404
| 10> C 	 -73.8115 	 1.92831 	 -66.4541
| 11> C 	 -73.6449 	 0.79157 	 -67.2566
| 12> H 	 -74.7948 	 2.26396 	 -66.1255
| 13> C 	 -72.7275 	 4.09551 	 -65.5834
| 14> H 	 -71.8492 	 4.1645 	 -64.8702
| 15> H 	 -73.6732 	 4.16501 	 -65.0797
| 16> C 	 -72.7005 	 5.37297 	 -66.5278
| 17> H 	 -71.8264 	 5.26123 	 -67.1494
| 18> H 	 -73.5517 	 5.3021 	 -67.2496
| 19> C 	 -72.9527 	 6.69675 	 -65.7719
| 20> H 	 -73.9647 	 6.73264 	 -65.4593
| 21> H 	 -72.4245 	 6.76781 	 -64.759
| 22> H 	 -72.8692 	 7.62704 	 -66.308
| 23> S 	 -74.0916 	 -1.5893 	 -68.53
| 24> C 	 -75.6568 	 -2.25727 	 -68.6984
| 25> C 	 -76.559 	 -1.40978 	 -68.1423
| 26> C 	 -76.0396 	 -0.274393 	 -67.4689
| 27> C 	 -74.6605 	 -0.204812 	 -67.6204
| 28> H 	 -77.6157 	 -1.66415 	 -68.2057
| 29> C 	 -76.9341 	 0.901154 	 -67.0454
| 30> H 	 -77.9087 	 0.856303 	 -67.6035
| 31> H 	 -76.4239 	 1.79062 	 -67.392
| 32> C 	 -77.2384 	 0.914049 	 -65.5256
| 33> H 	 -76.223 	 0.971869 	 -65.0217
| 34> H 	 -77.7095 	 0.00879112 	 -65.2419
| 35> C 	 -78.0255 	 2.22413 	 -65.2657
| 36> H 	 -77.9208 	 2.49458 	 -64.1881
| 37> H 	 -79.0726 	 2.27819 	 -65.628
| 38> H 	 -77.5918 	 3.10832 	 -65.8104
| 39> H 	 -70.5608 	 2.5693 	 -66.986
| 40> H 	 -75.8956 	 -3.17372 	 -69.0237
| 41> *
| 42>
| 43>                          ****END OF INPUT****

CARTESIAN COORDINATES (ANGSTROEM)
---------------------------------
  S    -72.007400    0.599599  -67.653500
  C    -71.598300    2.180800  -67.022000
  C    -72.675900    2.738430  -66.340400
  C    -73.811500    1.928310  -66.454100
  C    -73.644900    0.791570  -67.256600
  H    -74.794800    2.263960  -66.125500
  C    -72.727500    4.095510  -65.583400
  H    -71.849200    4.164500  -64.870200
  H    -73.673200    4.165010  -65.079700
  C    -72.700500    5.372970  -66.527800
  H    -71.826400    5.261230  -67.149400
  H    -73.551700    5.302100  -67.249600
  C    -72.952700    6.696750  -65.771900
  H    -73.964700    6.732640  -65.459300
  H    -72.424500    6.767810  -64.759000
  H    -72.869200    7.627040  -66.308000
  S    -74.091600   -1.589300  -68.530000
  C    -75.656800   -2.257270  -68.698400
  C    -76.559000   -1.409780  -68.142300
  C    -76.039600   -0.274393  -67.468900
  C    -74.660500   -0.204812  -67.620400
  H    -77.615700   -1.664150  -68.205700
  C    -76.934100    0.901154  -67.045400
  H    -77.908700    0.856303  -67.603500
  H    -76.423900    1.790620  -67.392000
  C    -77.238400    0.914049  -65.525600
  H    -76.223000    0.971869  -65.021700
  H    -77.709500    0.008791  -65.241900
  C    -78.025500    2.224130  -65.265700
  H    -77.920800    2.494580  -64.188100
  H    -79.072600    2.278190  -65.628000
  H    -77.591800    3.108320  -65.810400
  H    -70.560800    2.569300  -66.986000
  H    -75.895600   -3.173720  -69.023700

 Total Charge           Charge          ....    0
 Multiplicity           Mult            ....    1
 Number of Electrons    NEL             ....  134
 Basis Dimension        Dim             ....  322

ORBITAL ENERGIES
----------------

  NO   OCC          E(Eh)            E(eV)
   0   2.0000     -88.970585     -2421.0127
   1   2.0000     -88.963486     -2420.8195
   2   2.0000     -10.331687      -281.1395
   3   2.0000     -10.330599      -281.1099
   4   2.0000     -10.317402      -280.7508
   5   2.0000     -10.304521      -280.4003
   6   2.0000     -10.303834      -280.3816
   7   2.0000     -10.303445      -280.3710
   8   2.0000     -10.301053      -280.3059
   9   2.0000     -10.296073      -280.1704
  10   2.0000     -10.294472      -280.1268
  11   2.0000     -10.293192      -280.0920
  12   2.0000     -10.292625      -280.0766
  13   2.0000     -10.289216      -279.9838
  14   2.0000     -10.288930      -279.9760
  15   2.0000     -10.283136      -279.8184
  16   2.0000      -8.086059      -220.0329
  17   2.0000      -8.079197      -219.8461
  18   2.0000      -6.044487      -164.4789
  19   2.0000      -6.040437      -164.3687
  20   2.0000      -6.037680      -164.2936
  21   2.0000      -6.036893      -164.2722
  22   2.0000      -6.033522      -164.1805
  23   2.0000      -6.029986      -164.0843
  24   2.0000      -1.015698       -27.6385
  25   2.0000      -0.992516       -27.0077
  26   2.0000      -0.909509       -24.7490
  27   2.0000      -0.905872       -24.6500
  28   2.0000      -0.870811       -23.6960
  29   2.0000      -0.854641       -23.2560
  30   2.0000      -0.845235       -23.0000
  31   2.0000      -0.813369       -22.1329
  32   2.0000      -0.781601       -21.2685
  33   2.0000      -0.772008       -21.0074
  34   2.0000      -0.707866       -19.2620
  35   2.0000      -0.704585       -19.1727
  36   2.0000      -0.698956       -19.0196
  37   2.0000      -0.667823       -18.1724
  38   2.0000      -0.636270       -17.3138
  39   2.0000      -0.624617       -16.9967
  40   2.0000      -0.598789       -16.2939
  41   2.0000      -0.571043       -15.5389
  42   2.0000      -0.564358       -15.3570
  43   2.0000      -0.554721       -15.0947
  44   2.0000      -0.527317       -14.3490
  45   2.0000      -0.521884       -14.2012
  46   2.0000      -0.515891       -14.0381
  47   2.0000      -0.512990       -13.9592
  48   2.0000      -0.502131       -13.6637
  49   2.0000      -0.499797       -13.6002
  50   2.0000      -0.494361       -13.4522
  51   2.0000      -0.490340       -13.3428
  52   2.0000      -0.475717       -12.9449
  53   2.0000      -0.466070       -12.6824
  54   2.0000      -0.459986       -12.5169
  55   2.0000      -0.453612       -12.3434
  56   2.0000      -0.449707       -12.2372
  57   2.0000      -0.439721       -11.9654
  58   2.0000      -0.433203       -11.7880
  59   2.0000      -0.426482       -11.6052
  60   2.0000      -0.419047       -11.4029
  61   2.0000      -0.415489       -11.3060
  62   2.0000      -0.408747       -11.1226
  63   2.0000      -0.363426        -9.8893
  64   2.0000      -0.339148        -9.2287
  65   2.0000      -0.329058        -8.9541
  66   2.0000      -0.281921        -7.6715
  67   0.0000       0.016611         0.4520
  68   0.0000       0.090000         2.4490
  69   0.0000       0.098157         2.6710
  70   0.0000       0.117078         3.1859
  71   0.0000       0.131291         3.5726

MULLIKEN ATOMIC CHARGES
-----------------------
   0 S :    0.115456
   1 C :   -0.141952
   2 C :   -0.068505
   3 C :   -0.015333
   4 C :   -0.095028
   5 H :   -0.002571
   6 C :    0.046392
   7 H :    0.050100
   8 H :    0.016316
   9 C :   -0.078412
  10 H :    0.028662
  11 H :    0.032453
  12 C :   -0.040318
  13 H :    0.013711
  14 H :    0.034001
  15 H :    0.039697
  16 S :    0.086875
  17 C :   -0.020131
  18 C :   -0.048742
  19 C :   -0.031161
  20 C :   -0.114773
  21 H :    0.014813
  22 C :   -0.021138
  23 H :    0.032751
  24 H :    0.035811
  25 C :   -0.055208
  26 H :    0.043098
  27 H :    0.030636
  28 C :   -0.064788
  29 H :    0.044265
  30 H :    0.042650
  31 H :    0.023870
  32 H :    0.061073
  33 H :    0.005429
Sum of atomic charges:   -0.0000000

LOEWDIN ATOMIC CHARGES
----------------------
   0 S :    0.435183
   1 C :   -0.207887
   2 C :   -0.062199
   3 C :   -0.076737
   4 C :   -0.203282
   5 H :    0.027022
   6 C :   -0.024751
   7 H :    0.037760
   8 H :    0.023772
   9 C :   -0.040331
  10 H :    0.017885
  11 H :    0.029144
  12 C :   -0.074711
  13 H :    0.021141
  14 H :    0.031910
  15 H :    0.027970
  16 S :    0.412726
  17 C :   -0.178366
  18 C :   -0.070146
  19 C :   -0.065532
  20 C :   -0.185007
  21 H :    0.030275
  22 C :   -0.031028
  23 H :    0.033802
  24 H :    0.025491
  25 C :   -0.037286
  26 H :    0.031770
  27 H :    0.021373
  28 C :   -0.078597
  29 H :    0.029763
  30 H :    0.029221
  31 H :    0.027452
  32 H :    0.034388
  33 H :    0.007816

  Mayer bond orders larger than 0.100000
B(  0-S ,  1-C ) :   1.1474 B(  0-S ,  4-C ) :   1.1801 B(  1-C ,  2-C ) :   1.5707
B(  1-C ,  4-C ) :   0.1039 B(  1-C , 32-H ) :   0.9666 B(  2-C ,  3-C ) :   1.3137
B(  2-C ,  6-C ) :   1.0172 B(  3-C ,  4-C ) :   1.5070 B(  3-C ,  5-H ) :   0.9818
B(  4-C , 20-C ) :   1.0801 B(  6-C ,  7-H ) :   0.9416 B(  6-C ,  8-H ) :   0.9465
B(  6-C ,  9-C ) :   1.0523 B(  9-C , 10-H ) :   0.9647 B(  9-C , 11-H ) :   0.9588
B(  9-C , 12-C ) :   1.0626 B( 12-C , 13-H ) :   0.9709 B( 12-C , 14-H ) :   0.9752
B( 12-C , 15-H ) :   0.9753 B( 16-S , 17-C ) :   1.1515 B( 16-S , 20-C ) :   1.1486
B( 17-C , 18-C ) :   1.6018 B( 17-C , 33-H ) :   0.9836 B( 18-C , 19-C ) :   1.2679
B( 18-C , 21-H ) :   0.9869 B( 19-C , 20-C ) :   1.5667 B( 19-C , 22-C ) :   1.0204
B( 22-C , 23-H ) :   0.9470 B( 22-C , 24-H ) :   0.9467 B( 22-C , 25-C ) :   1.0502
B( 25-C , 26-H ) :   0.9563 B( 25-C , 27-H ) :   0.9564 B( 25-C , 28-C ) :   1.0651
B( 28-C , 29-H ) :   0.9756 B( 28-C , 30-H ) :   0.9739 B( 28-C , 31-H ) :   0.9716

Dispersion correction           -0.013913518
FINAL SINGLE POINT ENERGY     -1339.873894609748

DIPOLE MOMENT
-------------
                                X             Y             Z
Electronic contribution:     13.52474     -27.43012     -14.00740
Nuclear contribution   :    -14.00518      27.88117      14.22004
                        -----------------------------------------
Total Dipole Moment    :     -0.48045       0.45104       0.21263
                        -----------------------------------------
Magnitude (a.u.)       :      0.69245
Magnitude (Debye)      :      1.76006

Rotational constants in cm-1:     0.018261     0.008933     0.006262
Rotational constants in MHz :   547.439176   267.808239   187.740805

                             ****ORCA TERMINATED NORMALLY****
TOTAL RUN TIME: 0 days 0 hours 0 minutes 22 seconds 186 msec
