                         Program Version 4.2.1 -  RELEASE  -
|  1> ! wB97X-D3 SP def2-SVP
|  2> %pal
|  3> nprocs 24
|  4> end
|  5>
|  6> * xyz 0 1
|  7> S 	 -35.0999 	 4.91371 	 2.20193
|  8> C 	 -35.7223 	 3.40717 	 1.59978
|  9> C 	 -35.7737 	 2.3711 	 2.57485
| 10> C 	 -35.1441 	 2.81951 	 3.7787
| 11> C 	 -34.6647 	 4.14135 	 3.71092
| 12> H 	 -34.926 	 2.20951 	 4.63458
| 13> C 	 -36.2019 	 1.00402 	 2.33635
| 14> H 	 -36.4864 	 0.817513 	 1.28638
| 15> H 	 -37.1292 	 0.819949 	 2.91804
| 16> C 	 -35.2007 	 -0.150531 	 2.69913
| 17> H 	 -34.2983 	 -0.0943446 	 2.15181
| 18> H 	 -34.8802 	 -0.151005 	 3.70555
| 19> C 	 -35.8552 	 -1.50119 	 2.35399
| 20> H 	 -35.9532 	 -1.53297 	 1.29487
| 21> H 	 -35.2738 	 -2.38696 	 2.70397
| 22> H 	 -36.8549 	 -1.65824 	 2.79147
| 23> S 	 -34.383 	 6.34346 	 5.3479
| 24> C 	 -33.2527 	 6.43283 	 6.60835
| 25> C 	 -32.2584 	 5.45026 	 6.41379
| 26> C 	 -32.6391 	 4.4797 	 5.3926
| 27> C 	 -33.7988 	 4.82119 	 4.71789
| 28> H 	 -31.4447 	 5.4781 	 7.10806
| 29> C 	 -31.7244 	 3.33834 	 5.03605
| 30> H 	 -32.1514 	 2.6927 	 4.31565
| 31> H 	 -31.6263 	 2.82686 	 5.96068
| 32> C 	 -30.3573 	 3.63315 	 4.54468
| 33> H 	 -29.7484 	 2.75426 	 4.67161
| 34> H 	 -29.8732 	 4.25633 	 5.2813
| 35> C 	 -30.2973 	 4.15469 	 3.1254
| 36> H 	 -30.6809 	 3.37508 	 2.37354
| 37> H 	 -29.3696 	 4.52046 	 2.7632
| 38> H 	 -30.9675 	 5.04328 	 2.9458
| 39> H 	 -35.9021 	 3.1987 	 0.560127
| 40> H 	 -33.2706 	 7.27635 	 7.32567
| 41> *
| 42>
| 43>                          ****END OF INPUT****

CARTESIAN COORDINATES (ANGSTROEM)
---------------------------------
  S    -35.099900    4.913710    2.201930
  C    -35.722300    3.407170    1.599780
  C    -35.773700    2.371100    2.574850
  C    -35.144100    2.819510    3.778700
  C    -34.664700    4.141350    3.710920
  H    -34.926000    2.209510    4.634580
  C    -36.201900    1.004020    2.336350
  H    -36.486400    0.817513    1.286380
  H    -37.129200    0.819949    2.918040
  C    -35.200700   -0.150531    2.699130
  H    -34.298300   -0.094345    2.151810
  H    -34.880200   -0.151005    3.705550
  C    -35.855200   -1.501190    2.353990
  H    -35.953200   -1.532970    1.294870
  H    -35.273800   -2.386960    2.703970
  H    -36.854900   -1.658240    2.791470
  S    -34.383000    6.343460    5.347900
  C    -33.252700    6.432830    6.608350
  C    -32.258400    5.450260    6.413790
  C    -32.639100    4.479700    5.392600
  C    -33.798800    4.821190    4.717890
  H    -31.444700    5.478100    7.108060
  C    -31.724400    3.338340    5.036050
  H    -32.151400    2.692700    4.315650
  H    -31.626300    2.826860    5.960680
  C    -30.357300    3.633150    4.544680
  H    -29.748400    2.754260    4.671610
  H    -29.873200    4.256330    5.281300
  C    -30.297300    4.154690    3.125400
  H    -30.680900    3.375080    2.373540
  H    -29.369600    4.520460    2.763200
  H    -30.967500    5.043280    2.945800
  H    -35.902100    3.198700    0.560127
  H    -33.270600    7.276350    7.325670

 Total Charge           Charge          ....    0
 Multiplicity           Mult            ....    1
 Number of Electrons    NEL             ....  134
 Basis Dimension        Dim             ....  322

ORBITAL ENERGIES
----------------

  NO   OCC          E(Eh)            E(eV)
   0   2.0000     -88.970470     -2421.0096
   1   2.0000     -88.958387     -2420.6808
   2   2.0000     -10.334499      -281.2160
   3   2.0000     -10.327254      -281.0189
   4   2.0000     -10.320015      -280.8219
   5   2.0000     -10.314764      -280.6790
   6   2.0000     -10.306900      -280.4650
   7   2.0000     -10.303405      -280.3699
   8   2.0000     -10.297864      -280.2191
   9   2.0000     -10.296270      -280.1757
  10   2.0000     -10.296071      -280.1703
  11   2.0000     -10.284565      -279.8573
  12   2.0000     -10.280572      -279.7486
  13   2.0000     -10.278389      -279.6892
  14   2.0000     -10.278077      -279.6807
  15   2.0000     -10.277524      -279.6657
  16   2.0000      -8.085107      -220.0070
  17   2.0000      -8.074694      -219.7236
  18   2.0000      -6.043480      -164.4515
  19   2.0000      -6.039658      -164.3475
  20   2.0000      -6.036005      -164.2481
  21   2.0000      -6.033055      -164.1678
  22   2.0000      -6.028779      -164.0514
  23   2.0000      -6.025728      -163.9684
  24   2.0000      -1.004795       -27.3419
  25   2.0000      -0.984166       -26.7805
  26   2.0000      -0.918471       -24.9929
  27   2.0000      -0.914568       -24.8867
  28   2.0000      -0.865225       -23.5440
  29   2.0000      -0.853433       -23.2231
  30   2.0000      -0.843603       -22.9556
  31   2.0000      -0.811945       -22.0942
  32   2.0000      -0.783333       -21.3156
  33   2.0000      -0.769935       -20.9510
  34   2.0000      -0.714140       -19.4327
  35   2.0000      -0.703580       -19.1454
  36   2.0000      -0.690353       -18.7855
  37   2.0000      -0.657162       -17.8823
  38   2.0000      -0.641193       -17.4477
  39   2.0000      -0.623772       -16.9737
  40   2.0000      -0.600665       -16.3449
  41   2.0000      -0.570927       -15.5357
  42   2.0000      -0.566972       -15.4281
  43   2.0000      -0.561797       -15.2873
  44   2.0000      -0.536850       -14.6084
  45   2.0000      -0.522337       -14.2135
  46   2.0000      -0.517134       -14.0719
  47   2.0000      -0.505440       -13.7537
  48   2.0000      -0.503307       -13.6957
  49   2.0000      -0.499262       -13.5856
  50   2.0000      -0.489984       -13.3332
  51   2.0000      -0.478101       -13.0098
  52   2.0000      -0.469760       -12.7828
  53   2.0000      -0.464015       -12.6265
  54   2.0000      -0.459054       -12.4915
  55   2.0000      -0.450200       -12.2506
  56   2.0000      -0.442666       -12.0456
  57   2.0000      -0.439832       -11.9684
  58   2.0000      -0.437143       -11.8953
  59   2.0000      -0.432332       -11.7644
  60   2.0000      -0.424299       -11.5458
  61   2.0000      -0.419912       -11.4264
  62   2.0000      -0.404709       -11.0127
  63   2.0000      -0.343337        -9.3427
  64   2.0000      -0.331202        -9.0125
  65   2.0000      -0.324309        -8.8249
  66   2.0000      -0.288322        -7.8456
  67   0.0000       0.035720         0.9720
  68   0.0000       0.060506         1.6465
  69   0.0000       0.113502         3.0885
  70   0.0000       0.118044         3.2121
  71   0.0000       0.129570         3.5258

MULLIKEN ATOMIC CHARGES
-----------------------
   0 S :    0.127815
   1 C :   -0.114972
   2 C :   -0.067317
   3 C :    0.041376
   4 C :   -0.152020
   5 H :    0.010561
   6 C :    0.033286
   7 H :    0.017063
   8 H :    0.043942
   9 C :   -0.046307
  10 H :    0.023871
  11 H :    0.019423
  12 C :   -0.066516
  13 H :    0.025393
  14 H :    0.039457
  15 H :    0.029348
  16 S :    0.095039
  17 C :   -0.114292
  18 C :   -0.045362
  19 C :   -0.047765
  20 C :   -0.147338
  21 H :    0.018280
  22 C :    0.101579
  23 H :    0.004591
  24 H :    0.013411
  25 C :   -0.023637
  26 H :    0.015508
  27 H :    0.006653
  28 C :   -0.064465
  29 H :    0.037213
  30 H :    0.024611
  31 H :    0.039854
  32 H :    0.044811
  33 H :    0.076906
Sum of atomic charges:   -0.0000000

LOEWDIN ATOMIC CHARGES
----------------------
   0 S :    0.417582
   1 C :   -0.203782
   2 C :   -0.061624
   3 C :   -0.055933
   4 C :   -0.194333
   5 H :    0.029362
   6 C :   -0.036914
   7 H :    0.032334
   8 H :    0.041095
   9 C :   -0.031037
  10 H :    0.021173
  11 H :    0.015075
  12 C :   -0.065499
  13 H :    0.019300
  14 H :    0.030753
  15 H :    0.025048
  16 S :    0.421890
  17 C :   -0.201073
  18 C :   -0.076212
  19 C :   -0.052545
  20 C :   -0.206215
  21 H :    0.027064
  22 C :   -0.027326
  23 H :    0.023082
  24 H :    0.030814
  25 C :   -0.042322
  26 H :    0.025590
  27 H :    0.019824
  28 C :   -0.072166
  29 H :    0.034036
  30 H :    0.018714
  31 H :    0.033481
  32 H :    0.024022
  33 H :    0.036740

  Mayer bond orders larger than 0.100000
B(  0-S ,  1-C ) :   1.1489 B(  0-S ,  4-C ) :   1.1681 B(  1-C ,  2-C ) :   1.5843
B(  1-C ,  4-C ) :   0.1014 B(  1-C , 32-H ) :   0.9665 B(  2-C ,  3-C ) :   1.2385
B(  2-C ,  6-C ) :   1.0543 B(  3-C ,  4-C ) :   1.5664 B(  3-C ,  5-H ) :   0.9981
B(  4-C , 20-C ) :   0.9990 B(  6-C ,  7-H ) :   0.9447 B(  6-C ,  8-H ) :   0.9242
B(  6-C ,  9-C ) :   1.0550 B(  9-C , 10-H ) :   0.9562 B(  9-C , 11-H ) :   0.9535
B(  9-C , 12-C ) :   1.0832 B( 12-C , 13-H ) :   0.9773 B( 12-C , 14-H ) :   0.9738
B( 12-C , 15-H ) :   0.9756 B( 16-S , 17-C ) :   1.1945 B( 16-S , 20-C ) :   1.1440
B( 17-C , 18-C ) :   1.5731 B( 17-C , 33-H ) :   0.9655 B( 18-C , 19-C ) :   1.2206
B( 18-C , 21-H ) :   0.9981 B( 19-C , 20-C ) :   1.6003 B( 19-C , 22-C ) :   1.0496
B( 22-C , 23-H ) :   0.9364 B( 22-C , 24-H ) :   0.9124 B( 22-C , 25-C ) :   1.1034
B( 25-C , 26-H ) :   0.9439 B( 25-C , 27-H ) :   0.9440 B( 25-C , 28-C ) :   1.0704
B( 28-C , 29-H ) :   0.9710 B( 28-C , 30-H ) :   0.9743 B( 28-C , 31-H ) :   0.9757

Dispersion correction           -0.014299010
FINAL SINGLE POINT ENERGY     -1339.876157470140

DIPOLE MOMENT
-------------
                                X             Y             Z
Electronic contribution:    -10.08549      25.46487       4.48796
Nuclear contribution   :     10.44498     -26.08643      -4.39687
                        -----------------------------------------
Total Dipole Moment    :      0.35949      -0.62156       0.09108
                        -----------------------------------------
Magnitude (a.u.)       :      0.72378
Magnitude (Debye)      :      1.83971

Rotational constants in cm-1:     0.018988     0.008286     0.007027
Rotational constants in MHz :   569.254079   248.411413   210.652682

                             ****ORCA TERMINATED NORMALLY****
TOTAL RUN TIME: 0 days 0 hours 0 minutes 21 seconds 598 msec
