                         Program Version 4.2.1 -  RELEASE  -
|  1> ! wB97X-D3 SP def2-SVP
|  2> %pal
|  3> nprocs 24
|  4> end
|  5>
|  6> * xyz 0 1
|  7> S 	 -109.047 	 1.03092 	 -109.681
|  8> C 	 -108.698 	 2.62436 	 -110.299
|  9> C 	 -107.747 	 3.27555 	 -109.528
| 10> C 	 -107.39 	 2.47856 	 -108.406
| 11> C 	 -108.204 	 1.39813 	 -108.25
| 12> H 	 -106.562 	 2.5385 	 -107.788
| 13> C 	 -107.045 	 4.49836 	 -109.992
| 14> H 	 -106.062 	 4.12729 	 -110.209
| 15> H 	 -106.887 	 5.22923 	 -109.147
| 16> C 	 -107.569 	 5.1603 	 -111.264
| 17> H 	 -107.164 	 4.61686 	 -112.108
| 18> H 	 -108.657 	 5.09884 	 -111.263
| 19> C 	 -107.087 	 6.6005 	 -111.476
| 20> H 	 -105.996 	 6.63137 	 -111.546
| 21> H 	 -107.483 	 7.17392 	 -112.354
| 22> H 	 -107.242 	 7.24941 	 -110.591
| 23> S 	 -107.889 	 -1.27385 	 -107.765
| 24> C 	 -107.858 	 -1.81986 	 -106.076
| 25> C 	 -108.154 	 -0.787715 	 -105.189
| 26> C 	 -108.19 	 0.484084 	 -105.849
| 27> C 	 -108.147 	 0.357772 	 -107.273
| 28> H 	 -108.209 	 -1.00114 	 -104.154
| 29> C 	 -108.281 	 1.76372 	 -104.993
| 30> H 	 -108.652 	 2.50417 	 -105.682
| 31> H 	 -107.27 	 2.10941 	 -104.701
| 32> C 	 -109.157 	 1.86437 	 -103.735
| 33> H 	 -109.016 	 2.89891 	 -103.358
| 34> H 	 -108.656 	 1.18335 	 -102.968
| 35> C 	 -110.598 	 1.42584 	 -103.939
| 36> H 	 -111.138 	 1.45108 	 -103.019
| 37> H 	 -110.573 	 0.355804 	 -104.163
| 38> H 	 -111.184 	 2.02126 	 -104.707
| 39> H 	 -108.924 	 2.96592 	 -111.314
| 40> H 	 -107.765 	 -2.84013 	 -105.897
| 41> *
| 42>
| 43>                          ****END OF INPUT****

CARTESIAN COORDINATES (ANGSTROEM)
---------------------------------
  S    -109.047000    1.030920  -109.681000
  C    -108.698000    2.624360  -110.299000
  C    -107.747000    3.275550  -109.528000
  C    -107.390000    2.478560  -108.406000
  C    -108.204000    1.398130  -108.250000
  H    -106.562000    2.538500  -107.788000
  C    -107.045000    4.498360  -109.992000
  H    -106.062000    4.127290  -110.209000
  H    -106.887000    5.229230  -109.147000
  C    -107.569000    5.160300  -111.264000
  H    -107.164000    4.616860  -112.108000
  H    -108.657000    5.098840  -111.263000
  C    -107.087000    6.600500  -111.476000
  H    -105.996000    6.631370  -111.546000
  H    -107.483000    7.173920  -112.354000
  H    -107.242000    7.249410  -110.591000
  S    -107.889000   -1.273850  -107.765000
  C    -107.858000   -1.819860  -106.076000
  C    -108.154000   -0.787715  -105.189000
  C    -108.190000    0.484084  -105.849000
  C    -108.147000    0.357772  -107.273000
  H    -108.209000   -1.001140  -104.154000
  C    -108.281000    1.763720  -104.993000
  H    -108.652000    2.504170  -105.682000
  H    -107.270000    2.109410  -104.701000
  C    -109.157000    1.864370  -103.735000
  H    -109.016000    2.898910  -103.358000
  H    -108.656000    1.183350  -102.968000
  C    -110.598000    1.425840  -103.939000
  H    -111.138000    1.451080  -103.019000
  H    -110.573000    0.355804  -104.163000
  H    -111.184000    2.021260  -104.707000
  H    -108.924000    2.965920  -111.314000
  H    -107.765000   -2.840130  -105.897000

 Total Charge           Charge          ....    0
 Multiplicity           Mult            ....    1
 Number of Electrons    NEL             ....  134
 Basis Dimension        Dim             ....  322

ORBITAL ENERGIES
----------------

  NO   OCC          E(Eh)            E(eV)
   0   2.0000     -88.966999     -2420.9151
   1   2.0000     -88.961475     -2420.7648
   2   2.0000     -10.325252      -280.9644
   3   2.0000     -10.318621      -280.7840
   4   2.0000     -10.316164      -280.7171
   5   2.0000     -10.308438      -280.5069
   6   2.0000     -10.308278      -280.5025
   7   2.0000     -10.300247      -280.2840
   8   2.0000     -10.295068      -280.1431
   9   2.0000     -10.293915      -280.1117
  10   2.0000     -10.293248      -280.0935
  11   2.0000     -10.289907      -280.0026
  12   2.0000     -10.289339      -279.9871
  13   2.0000     -10.285616      -279.8858
  14   2.0000     -10.285149      -279.8731
  15   2.0000     -10.276639      -279.6416
  16   2.0000      -8.081833      -219.9179
  17   2.0000      -8.077595      -219.8025
  18   2.0000      -6.040266      -164.3640
  19   2.0000      -6.036335      -164.2570
  20   2.0000      -6.035988      -164.2476
  21   2.0000      -6.032671      -164.1573
  22   2.0000      -6.032183      -164.1440
  23   2.0000      -6.028124      -164.0336
  24   2.0000      -1.015122       -27.6229
  25   2.0000      -0.983637       -26.7661
  26   2.0000      -0.919716       -25.0268
  27   2.0000      -0.905314       -24.6349
  28   2.0000      -0.871125       -23.7045
  29   2.0000      -0.853299       -23.2194
  30   2.0000      -0.844526       -22.9807
  31   2.0000      -0.816054       -22.2060
  32   2.0000      -0.785472       -21.3738
  33   2.0000      -0.770524       -20.9670
  34   2.0000      -0.715367       -19.4661
  35   2.0000      -0.700588       -19.0640
  36   2.0000      -0.690666       -18.7940
  37   2.0000      -0.659588       -17.9483
  38   2.0000      -0.641411       -17.4537
  39   2.0000      -0.613337       -16.6898
  40   2.0000      -0.596508       -16.2318
  41   2.0000      -0.576800       -15.6955
  42   2.0000      -0.568323       -15.4648
  43   2.0000      -0.550995       -14.9933
  44   2.0000      -0.538297       -14.6478
  45   2.0000      -0.524821       -14.2811
  46   2.0000      -0.520132       -14.1535
  47   2.0000      -0.518192       -14.1007
  48   2.0000      -0.499304       -13.5868
  49   2.0000      -0.498786       -13.5726
  50   2.0000      -0.489471       -13.3192
  51   2.0000      -0.481496       -13.1022
  52   2.0000      -0.468889       -12.7591
  53   2.0000      -0.463227       -12.6050
  54   2.0000      -0.458621       -12.4797
  55   2.0000      -0.450745       -12.2654
  56   2.0000      -0.445548       -12.1240
  57   2.0000      -0.436282       -11.8718
  58   2.0000      -0.434932       -11.8351
  59   2.0000      -0.426684       -11.6107
  60   2.0000      -0.424720       -11.5572
  61   2.0000      -0.419901       -11.4261
  62   2.0000      -0.407789       -11.0965
  63   2.0000      -0.348193        -9.4748
  64   2.0000      -0.329148        -8.9566
  65   2.0000      -0.325119        -8.8469
  66   2.0000      -0.286244        -7.7891
  67   0.0000       0.027946         0.7604
  68   0.0000       0.070036         1.9058
  69   0.0000       0.105140         2.8610
  70   0.0000       0.120522         3.2796
  71   0.0000       0.129942         3.5359

MULLIKEN ATOMIC CHARGES
-----------------------
   0 S :    0.099130
   1 C :   -0.118990
   2 C :   -0.102215
   3 C :    0.043660
   4 C :   -0.148654
   5 H :   -0.009206
   6 C :    0.064340
   7 H :    0.029957
   8 H :    0.037393
   9 C :   -0.084866
  10 H :    0.035863
  11 H :    0.045059
  12 C :   -0.062613
  13 H :    0.022377
  14 H :    0.047377
  15 H :    0.027480
  16 S :    0.107856
  17 C :   -0.086517
  18 C :   -0.008798
  19 C :   -0.049511
  20 C :   -0.151174
  21 H :    0.012435
  22 C :    0.059278
  23 H :    0.020236
  24 H :    0.041075
  25 C :   -0.103934
  26 H :    0.038141
  27 H :    0.028507
  28 C :   -0.031470
  29 H :    0.024704
  30 H :    0.030732
  31 H :    0.050499
  32 H :    0.053899
  33 H :    0.037948
Sum of atomic charges:    0.0000000

LOEWDIN ATOMIC CHARGES
----------------------
   0 S :    0.421026
   1 C :   -0.211639
   2 C :   -0.057643
   3 C :   -0.054687
   4 C :   -0.199677
   5 H :    0.022115
   6 C :   -0.035445
   7 H :    0.037054
   8 H :    0.035462
   9 C :   -0.043212
  10 H :    0.028053
  11 H :    0.024246
  12 C :   -0.073075
  13 H :    0.024057
  14 H :    0.033279
  15 H :    0.024729
  16 S :    0.407240
  17 C :   -0.165068
  18 C :   -0.062508
  19 C :   -0.051659
  20 C :   -0.215886
  21 H :    0.027016
  22 C :   -0.039776
  23 H :    0.025882
  24 H :    0.035238
  25 C :   -0.046896
  26 H :    0.029790
  27 H :    0.025168
  28 C :   -0.070367
  29 H :    0.022323
  30 H :    0.029564
  31 H :    0.035528
  32 H :    0.027916
  33 H :    0.011852

  Mayer bond orders larger than 0.100000
B(  0-S ,  1-C ) :   1.1294 B(  0-S ,  4-C ) :   1.1577 B(  1-C ,  2-C ) :   1.6207
B(  1-C , 32-H ) :   0.9529 B(  2-C ,  3-C ) :   1.2317 B(  2-C ,  6-C ) :   1.0205
B(  3-C ,  4-C ) :   1.5644 B(  3-C ,  5-H ) :   1.0117 B(  4-C , 20-C ) :   1.0532
B(  6-C ,  7-H ) :   0.9199 B(  6-C ,  8-H ) :   0.9418 B(  6-C ,  9-C ) :   1.0740
B(  9-C , 10-H ) :   0.9466 B(  9-C , 11-H ) :   0.9555 B(  9-C , 12-C ) :   1.0832
B( 12-C , 13-H ) :   0.9722 B( 12-C , 14-H ) :   0.9745 B( 12-C , 15-H ) :   0.9755
B( 16-S , 17-C ) :   1.1549 B( 16-S , 20-C ) :   1.1555 B( 17-C , 18-C ) :   1.5891
B( 17-C , 20-C ) :   0.1059 B( 17-C , 33-H ) :   0.9777 B( 18-C , 19-C ) :   1.2440
B( 18-C , 21-H ) :   0.9950 B( 19-C , 20-C ) :   1.5667 B( 19-C , 22-C ) :   1.0303
B( 22-C , 23-H ) :   0.9274 B( 22-C , 24-H ) :   0.9355 B( 22-C , 25-C ) :   1.0796
B( 25-C , 26-H ) :   0.9513 B( 25-C , 27-H ) :   0.9477 B( 25-C , 28-C ) :   1.0838
B( 28-C , 29-H ) :   0.9706 B( 28-C , 30-H ) :   0.9663 B( 28-C , 31-H ) :   0.9743

Dispersion correction           -0.013722152
FINAL SINGLE POINT ENERGY     -1339.869947926656

DIPOLE MOMENT
-------------
                                X             Y             Z
Electronic contribution:     -0.37082     -23.77057      -6.16063
Nuclear contribution   :      0.76479      24.13705       6.39224
                        -----------------------------------------
Total Dipole Moment    :      0.39397       0.36648       0.23161
                        -----------------------------------------
Magnitude (a.u.)       :      0.58580
Magnitude (Debye)      :      1.48898

Rotational constants in cm-1:     0.022465     0.007220     0.006034
Rotational constants in MHz :   673.480144   216.464928   180.885992

                             ****ORCA TERMINATED NORMALLY****
TOTAL RUN TIME: 0 days 0 hours 0 minutes 21 seconds 256 msec
