                         Program Version 4.2.1 -  RELEASE  -
|  1> ! wB97X-D3 SP def2-SVP
|  2> %pal
|  3> nprocs 24
|  4> end
|  5>
|  6> * xyz 0 1
|  7> S 	 -132.022 	 32.418 	 -12.0323
|  8> C 	 -130.703 	 31.3854 	 -12.4874
|  9> C 	 -130.952 	 30.9178 	 -13.7757
| 10> C 	 -132.196 	 31.2282 	 -14.2783
| 11> C 	 -132.949 	 31.9708 	 -13.3893
| 12> H 	 -132.675 	 30.7674 	 -15.1969
| 13> C 	 -129.992 	 30.0155 	 -14.5848
| 14> H 	 -129.128 	 29.5538 	 -14.0141
| 15> H 	 -129.348 	 30.788 	 -15.1636
| 16> C 	 -130.614 	 28.9277 	 -15.4489
| 17> H 	 -131.308 	 29.3317 	 -16.1225
| 18> H 	 -129.885 	 28.3646 	 -16.0908
| 19> C 	 -131.335 	 27.9409 	 -14.592
| 20> H 	 -130.706 	 27.1988 	 -14.1546
| 21> H 	 -132.056 	 28.4501 	 -13.9652
| 22> H 	 -131.902 	 27.3547 	 -15.2953
| 23> S 	 -134.611 	 33.9905 	 -13.0851
| 24> C 	 -136.278 	 33.8897 	 -13.4247
| 25> C 	 -136.607 	 32.6136 	 -13.8169
| 26> C 	 -135.488 	 31.7069 	 -13.8518
| 27> C 	 -134.29 	 32.354 	 -13.5509
| 28> H 	 -137.637 	 32.3044 	 -14.0381
| 29> C 	 -135.667 	 30.2714 	 -14.3238
| 30> H 	 -134.726 	 30.0767 	 -14.9572
| 31> H 	 -136.54 	 30.1932 	 -15.0006
| 32> C 	 -135.749 	 29.2645 	 -13.2093
| 33> H 	 -136.521 	 29.6429 	 -12.5828
| 34> H 	 -134.824 	 29.4189 	 -12.6623
| 35> C 	 -135.921 	 27.8371 	 -13.6962
| 36> H 	 -136.096 	 27.169 	 -12.8462
| 37> H 	 -135.165 	 27.3651 	 -14.2984
| 38> H 	 -136.829 	 27.81 	 -14.3226
| 39> H 	 -129.784 	 31.131 	 -11.8817
| 40> H 	 -137.03 	 34.6426 	 -13.4724
| 41> *
| 42>
| 43>                          ****END OF INPUT****

CARTESIAN COORDINATES (ANGSTROEM)
---------------------------------
  S    -132.022000   32.418000  -12.032300
  C    -130.703000   31.385400  -12.487400
  C    -130.952000   30.917800  -13.775700
  C    -132.196000   31.228200  -14.278300
  C    -132.949000   31.970800  -13.389300
  H    -132.675000   30.767400  -15.196900
  C    -129.992000   30.015500  -14.584800
  H    -129.128000   29.553800  -14.014100
  H    -129.348000   30.788000  -15.163600
  C    -130.614000   28.927700  -15.448900
  H    -131.308000   29.331700  -16.122500
  H    -129.885000   28.364600  -16.090800
  C    -131.335000   27.940900  -14.592000
  H    -130.706000   27.198800  -14.154600
  H    -132.056000   28.450100  -13.965200
  H    -131.902000   27.354700  -15.295300
  S    -134.611000   33.990500  -13.085100
  C    -136.278000   33.889700  -13.424700
  C    -136.607000   32.613600  -13.816900
  C    -135.488000   31.706900  -13.851800
  C    -134.290000   32.354000  -13.550900
  H    -137.637000   32.304400  -14.038100
  C    -135.667000   30.271400  -14.323800
  H    -134.726000   30.076700  -14.957200
  H    -136.540000   30.193200  -15.000600
  C    -135.749000   29.264500  -13.209300
  H    -136.521000   29.642900  -12.582800
  H    -134.824000   29.418900  -12.662300
  C    -135.921000   27.837100  -13.696200
  H    -136.096000   27.169000  -12.846200
  H    -135.165000   27.365100  -14.298400
  H    -136.829000   27.810000  -14.322600
  H    -129.784000   31.131000  -11.881700
  H    -137.030000   34.642600  -13.472400

 Total Charge           Charge          ....    0
 Multiplicity           Mult            ....    1
 Number of Electrons    NEL             ....  134
 Basis Dimension        Dim             ....  322

ORBITAL ENERGIES
----------------

  NO   OCC          E(Eh)            E(eV)
   0   2.0000     -88.969831     -2420.9922
   1   2.0000     -88.964965     -2420.8598
   2   2.0000     -10.323894      -280.9274
   3   2.0000     -10.323071      -280.9051
   4   2.0000     -10.316866      -280.7362
   5   2.0000     -10.311317      -280.5852
   6   2.0000     -10.303997      -280.3860
   7   2.0000     -10.301655      -280.3223
   8   2.0000     -10.300744      -280.2975
   9   2.0000     -10.295223      -280.1473
  10   2.0000     -10.293153      -280.0909
  11   2.0000     -10.292784      -280.0809
  12   2.0000     -10.283602      -279.8310
  13   2.0000     -10.279244      -279.7124
  14   2.0000     -10.278274      -279.6861
  15   2.0000     -10.267804      -279.4012
  16   2.0000      -8.085355      -220.0137
  17   2.0000      -8.080936      -219.8934
  18   2.0000      -6.043748      -164.4587
  19   2.0000      -6.039652      -164.3473
  20   2.0000      -6.039428      -164.3412
  21   2.0000      -6.036258      -164.2549
  22   2.0000      -6.035131      -164.2243
  23   2.0000      -6.031762      -164.1326
  24   2.0000      -1.021774       -27.8039
  25   2.0000      -0.993419       -27.0323
  26   2.0000      -0.918162       -24.9845
  27   2.0000      -0.914824       -24.8936
  28   2.0000      -0.879846       -23.9418
  29   2.0000      -0.856117       -23.2961
  30   2.0000      -0.847574       -23.0637
  31   2.0000      -0.814923       -22.1752
  32   2.0000      -0.782848       -21.3024
  33   2.0000      -0.772869       -21.0308
  34   2.0000      -0.713934       -19.4271
  35   2.0000      -0.696539       -18.9538
  36   2.0000      -0.693036       -18.8585
  37   2.0000      -0.664232       -18.0747
  38   2.0000      -0.636677       -17.3249
  39   2.0000      -0.628397       -17.0996
  40   2.0000      -0.594573       -16.1792
  41   2.0000      -0.570124       -15.5139
  42   2.0000      -0.567121       -15.4321
  43   2.0000      -0.557281       -15.1644
  44   2.0000      -0.542610       -14.7652
  45   2.0000      -0.523359       -14.2413
  46   2.0000      -0.516666       -14.0592
  47   2.0000      -0.515810       -14.0359
  48   2.0000      -0.508526       -13.8377
  49   2.0000      -0.504413       -13.7258
  50   2.0000      -0.495877       -13.4935
  51   2.0000      -0.482740       -13.1360
  52   2.0000      -0.473562       -12.8863
  53   2.0000      -0.471992       -12.8435
  54   2.0000      -0.460460       -12.5298
  55   2.0000      -0.451449       -12.2845
  56   2.0000      -0.439873       -11.9696
  57   2.0000      -0.434034       -11.8107
  58   2.0000      -0.430732       -11.7208
  59   2.0000      -0.422488       -11.4965
  60   2.0000      -0.419689       -11.4203
  61   2.0000      -0.414686       -11.2842
  62   2.0000      -0.410349       -11.1662
  63   2.0000      -0.353148        -9.6096
  64   2.0000      -0.335706        -9.1350
  65   2.0000      -0.330243        -8.9864
  66   2.0000      -0.285353        -7.7649
  67   0.0000       0.027944         0.7604
  68   0.0000       0.069508         1.8914
  69   0.0000       0.112901         3.0722
  70   0.0000       0.113942         3.1005
  71   0.0000       0.133335         3.6282

MULLIKEN ATOMIC CHARGES
-----------------------
   0 S :    0.134274
   1 C :   -0.151584
   2 C :   -0.074876
   3 C :   -0.015732
   4 C :   -0.134020
   5 H :    0.040421
   6 C :    0.025723
   7 H :    0.023652
   8 H :    0.048790
   9 C :   -0.070725
  10 H :    0.015303
  11 H :    0.032061
  12 C :   -0.020044
  13 H :    0.026790
  14 H :    0.043701
  15 H :    0.010815
  16 S :    0.105453
  17 C :   -0.054560
  18 C :   -0.059989
  19 C :   -0.036506
  20 C :   -0.163332
  21 H :    0.021172
  22 C :    0.015431
  23 H :    0.019731
  24 H :    0.022604
  25 C :   -0.038182
  26 H :    0.018541
  27 H :    0.030989
  28 C :   -0.019794
  29 H :    0.036651
  30 H :    0.031297
  31 H :    0.019779
  32 H :    0.072425
  33 H :    0.043741
Sum of atomic charges:    0.0000000

LOEWDIN ATOMIC CHARGES
----------------------
   0 S :    0.441326
   1 C :   -0.222231
   2 C :   -0.066794
   3 C :   -0.079279
   4 C :   -0.212065
   5 H :    0.042079
   6 C :   -0.045464
   7 H :    0.032377
   8 H :    0.041855
   9 C :   -0.045602
  10 H :    0.012183
  11 H :    0.033497
  12 C :   -0.059219
  13 H :    0.023012
  14 H :    0.026392
  15 H :    0.024154
  16 S :    0.434503
  17 C :   -0.201085
  18 C :   -0.074269
  19 C :   -0.057886
  20 C :   -0.201778
  21 H :    0.032006
  22 C :   -0.035748
  23 H :    0.031369
  24 H :    0.026537
  25 C :   -0.041096
  26 H :    0.023215
  27 H :    0.026925
  28 C :   -0.065328
  29 H :    0.030249
  30 H :    0.024569
  31 H :    0.026579
  32 H :    0.045887
  33 H :    0.029131

  Mayer bond orders larger than 0.100000
B(  0-S ,  1-C ) :   1.1417 B(  0-S ,  4-C ) :   1.1807 B(  1-C ,  2-C ) :   1.5701
B(  1-C ,  4-C ) :   0.1104 B(  1-C , 32-H ) :   0.9653 B(  2-C ,  3-C ) :   1.2891
B(  2-C ,  6-C ) :   1.0005 B(  3-C ,  4-C ) :   1.5195 B(  3-C ,  5-H ) :   0.9810
B(  4-C , 20-C ) :   1.0703 B(  6-C ,  7-H ) :   0.9505 B(  6-C ,  8-H ) :   0.9345
B(  6-C ,  9-C ) :   1.0724 B(  9-C , 10-H ) :   0.9517 B(  9-C , 11-H ) :   0.9490
B(  9-C , 12-C ) :   1.0886 B( 12-C , 13-H ) :   0.9725 B( 12-C , 14-H ) :   0.9710
B( 12-C , 15-H ) :   0.9683 B( 16-S , 17-C ) :   1.1606 B( 16-S , 20-C ) :   1.1470
B( 17-C , 18-C ) :   1.5966 B( 17-C , 20-C ) :   0.1011 B( 17-C , 33-H ) :   0.9695
B( 18-C , 19-C ) :   1.2626 B( 18-C , 21-H ) :   0.9844 B( 19-C , 20-C ) :   1.5694
B( 19-C , 22-C ) :   1.0324 B( 22-C , 23-H ) :   0.9382 B( 22-C , 24-H ) :   0.9360
B( 22-C , 25-C ) :   1.0632 B( 25-C , 26-H ) :   0.9506 B( 25-C , 27-H ) :   0.9512
B( 25-C , 28-C ) :   1.0811 B( 28-C , 29-H ) :   0.9730 B( 28-C , 30-H ) :   0.9744
B( 28-C , 31-H ) :   0.9696

Dispersion correction           -0.015331390
FINAL SINGLE POINT ENERGY     -1339.871324474605

DIPOLE MOMENT
-------------
                                X             Y             Z
Electronic contribution:      0.17297      29.08196      10.78001
Nuclear contribution   :     -0.27926     -29.67020     -11.10013
                        -----------------------------------------
Total Dipole Moment    :     -0.10629      -0.58825      -0.32012
                        -----------------------------------------
Magnitude (a.u.)       :      0.67809
Magnitude (Debye)      :      1.72357

Rotational constants in cm-1:     0.017347     0.010904     0.007534
Rotational constants in MHz :   520.064424   326.880362   225.860651

                             ****ORCA TERMINATED NORMALLY****
TOTAL RUN TIME: 0 days 0 hours 0 minutes 21 seconds 834 msec
