                         Program Version 4.2.1 -  RELEASE  -
|  1> ! wB97X-D3 SP def2-SVP
|  2> %pal
|  3> nprocs 24
|  4> end
|  5>
|  6> * xyz 0 1
|  7> S 	 35.4303 	 -31.2807 	 -129.684
|  8> C 	 37.165 	 -31.0227 	 -129.609
|  9> C 	 37.9081 	 -32.1983 	 -129.655
| 10> C 	 36.9819 	 -33.2982 	 -129.675
| 11> C 	 35.6413 	 -33.0093 	 -129.731
| 12> H 	 37.1577 	 -34.4086 	 -129.595
| 13> C 	 39.3859 	 -32.2763 	 -129.417
| 14> H 	 39.6183 	 -33.033 	 -128.628
| 15> H 	 39.7827 	 -31.407 	 -128.889
| 16> C 	 40.2467 	 -32.5606 	 -130.657
| 17> H 	 41.2305 	 -33.0713 	 -130.419
| 18> H 	 39.7573 	 -33.3349 	 -131.26
| 19> C 	 40.3918 	 -31.1977 	 -131.408
| 20> H 	 41.1264 	 -31.2577 	 -132.126
| 21> H 	 39.5015 	 -30.89 	 -131.846
| 22> H 	 40.7519 	 -30.3071 	 -130.803
| 23> S 	 33.8004 	 -34.3461 	 -131.232
| 24> C 	 32.653 	 -35.3744 	 -130.477
| 25> C 	 32.9029 	 -35.5114 	 -129.101
| 26> C 	 33.9737 	 -34.6569 	 -128.679
| 27> C 	 34.5856 	 -34.01 	 -129.736
| 28> H 	 32.3069 	 -36.1312 	 -128.473
| 29> C 	 34.4177 	 -34.5464 	 -127.258
| 30> H 	 35.4785 	 -34.3492 	 -127.038
| 31> H 	 34.372 	 -35.5477 	 -126.989
| 32> C 	 33.4702 	 -33.8311 	 -126.302
| 33> H 	 32.4537 	 -34.1679 	 -126.508
| 34> H 	 33.4273 	 -32.7432 	 -126.512
| 35> C 	 33.7874 	 -34.0052 	 -124.826
| 36> H 	 33.0935 	 -33.4286 	 -124.165
| 37> H 	 34.8586 	 -33.7474 	 -124.693
| 38> H 	 33.6741 	 -35.0069 	 -124.469
| 39> H 	 37.6852 	 -30.1045 	 -129.564
| 40> H 	 31.8942 	 -35.877 	 -131.118
| 41> *
| 42>
| 43>                          ****END OF INPUT****

CARTESIAN COORDINATES (ANGSTROEM)
---------------------------------
  S     35.430300  -31.280700  -129.684000
  C     37.165000  -31.022700  -129.609000
  C     37.908100  -32.198300  -129.655000
  C     36.981900  -33.298200  -129.675000
  C     35.641300  -33.009300  -129.731000
  H     37.157700  -34.408600  -129.595000
  C     39.385900  -32.276300  -129.417000
  H     39.618300  -33.033000  -128.628000
  H     39.782700  -31.407000  -128.889000
  C     40.246700  -32.560600  -130.657000
  H     41.230500  -33.071300  -130.419000
  H     39.757300  -33.334900  -131.260000
  C     40.391800  -31.197700  -131.408000
  H     41.126400  -31.257700  -132.126000
  H     39.501500  -30.890000  -131.846000
  H     40.751900  -30.307100  -130.803000
  S     33.800400  -34.346100  -131.232000
  C     32.653000  -35.374400  -130.477000
  C     32.902900  -35.511400  -129.101000
  C     33.973700  -34.656900  -128.679000
  C     34.585600  -34.010000  -129.736000
  H     32.306900  -36.131200  -128.473000
  C     34.417700  -34.546400  -127.258000
  H     35.478500  -34.349200  -127.038000
  H     34.372000  -35.547700  -126.989000
  C     33.470200  -33.831100  -126.302000
  H     32.453700  -34.167900  -126.508000
  H     33.427300  -32.743200  -126.512000
  C     33.787400  -34.005200  -124.826000
  H     33.093500  -33.428600  -124.165000
  H     34.858600  -33.747400  -124.693000
  H     33.674100  -35.006900  -124.469000
  H     37.685200  -30.104500  -129.564000
  H     31.894200  -35.877000  -131.118000

 Total Charge           Charge          ....    0
 Multiplicity           Mult            ....    1
 Number of Electrons    NEL             ....  134
 Basis Dimension        Dim             ....  322

ORBITAL ENERGIES
----------------

  NO   OCC          E(Eh)            E(eV)
   0   2.0000     -88.966941     -2420.9136
   1   2.0000     -88.964101     -2420.8362
   2   2.0000     -10.322557      -280.8911
   3   2.0000     -10.322112      -280.8790
   4   2.0000     -10.318990      -280.7940
   5   2.0000     -10.313017      -280.6315
   6   2.0000     -10.303754      -280.3794
   7   2.0000     -10.302931      -280.3570
   8   2.0000     -10.297802      -280.2174
   9   2.0000     -10.294869      -280.1376
  10   2.0000     -10.293949      -280.1126
  11   2.0000     -10.293452      -280.0991
  12   2.0000     -10.283639      -279.8320
  13   2.0000     -10.282699      -279.8065
  14   2.0000     -10.278715      -279.6980
  15   2.0000     -10.270323      -279.4697
  16   2.0000      -8.081382      -219.9056
  17   2.0000      -8.080143      -219.8719
  18   2.0000      -6.039886      -164.3536
  19   2.0000      -6.038424      -164.3139
  20   2.0000      -6.035923      -164.2458
  21   2.0000      -6.034286      -164.2013
  22   2.0000      -6.032164      -164.1435
  23   2.0000      -6.031260      -164.1189
  24   2.0000      -1.009582       -27.4721
  25   2.0000      -0.986203       -26.8359
  26   2.0000      -0.914141       -24.8750
  27   2.0000      -0.910540       -24.7771
  28   2.0000      -0.867768       -23.6132
  29   2.0000      -0.854123       -23.2419
  30   2.0000      -0.843014       -22.9396
  31   2.0000      -0.811466       -22.0811
  32   2.0000      -0.784969       -21.3601
  33   2.0000      -0.774992       -21.0886
  34   2.0000      -0.707108       -19.2414
  35   2.0000      -0.699616       -19.0375
  36   2.0000      -0.692418       -18.8417
  37   2.0000      -0.666243       -18.1294
  38   2.0000      -0.642945       -17.4954
  39   2.0000      -0.614449       -16.7200
  40   2.0000      -0.602592       -16.3974
  41   2.0000      -0.573720       -15.6117
  42   2.0000      -0.558062       -15.1856
  43   2.0000      -0.550356       -14.9760
  44   2.0000      -0.528320       -14.3763
  45   2.0000      -0.525297       -14.2941
  46   2.0000      -0.518172       -14.1002
  47   2.0000      -0.515637       -14.0312
  48   2.0000      -0.503191       -13.6925
  49   2.0000      -0.495358       -13.4794
  50   2.0000      -0.488627       -13.2962
  51   2.0000      -0.476218       -12.9586
  52   2.0000      -0.471649       -12.8342
  53   2.0000      -0.465458       -12.6658
  54   2.0000      -0.461072       -12.5464
  55   2.0000      -0.453466       -12.3394
  56   2.0000      -0.443232       -12.0609
  57   2.0000      -0.436123       -11.8675
  58   2.0000      -0.430405       -11.7119
  59   2.0000      -0.425337       -11.5740
  60   2.0000      -0.423687       -11.5291
  61   2.0000      -0.412224       -11.2172
  62   2.0000      -0.409843       -11.1524
  63   2.0000      -0.334956        -9.1146
  64   2.0000      -0.328051        -8.9267
  65   2.0000      -0.322769        -8.7830
  66   2.0000      -0.311375        -8.4730
  67   0.0000       0.049206         1.3390
  68   0.0000       0.055823         1.5190
  69   0.0000       0.114466         3.1148
  70   0.0000       0.121917         3.3175
  71   0.0000       0.131545         3.5795

MULLIKEN ATOMIC CHARGES
-----------------------
   0 S :    0.128610
   1 C :   -0.101652
   2 C :   -0.049646
   3 C :    0.017528
   4 C :   -0.169518
   5 H :    0.026614
   6 C :    0.028108
   7 H :    0.031435
   8 H :    0.019941
   9 C :   -0.075023
  10 H :    0.037088
  11 H :    0.035368
  12 C :   -0.018698
  13 H :    0.011173
  14 H :    0.026284
  15 H :    0.024649
  16 S :    0.123126
  17 C :   -0.117512
  18 C :   -0.018603
  19 C :   -0.012021
  20 C :   -0.213049
  21 H :    0.011048
  22 C :    0.107517
  23 H :    0.024879
  24 H :   -0.005633
  25 C :   -0.076276
  26 H :    0.015378
  27 H :    0.033804
  28 C :   -0.046557
  29 H :    0.042051
  30 H :    0.033986
  31 H :    0.018944
  32 H :    0.029430
  33 H :    0.077226
Sum of atomic charges:   -0.0000000

LOEWDIN ATOMIC CHARGES
----------------------
   0 S :    0.408309
   1 C :   -0.182675
   2 C :   -0.066403
   3 C :   -0.062883
   4 C :   -0.213117
   5 H :    0.038852
   6 C :   -0.039676
   7 H :    0.035894
   8 H :    0.029011
   9 C :   -0.039840
  10 H :    0.029295
  11 H :    0.026936
  12 C :   -0.059336
  13 H :    0.013112
  14 H :    0.018242
  15 H :    0.031641
  16 S :    0.438447
  17 C :   -0.196235
  18 C :   -0.069277
  19 C :   -0.045460
  20 C :   -0.220057
  21 H :    0.026779
  22 C :   -0.036024
  23 H :    0.034276
  24 H :    0.025668
  25 C :   -0.041139
  26 H :    0.020364
  27 H :    0.026877
  28 C :   -0.067342
  29 H :    0.033413
  30 H :    0.028923
  31 H :    0.017380
  32 H :    0.020288
  33 H :    0.035757

  Mayer bond orders larger than 0.100000
B(  0-S ,  1-C ) :   1.1522 B(  0-S ,  4-C ) :   1.1254 B(  1-C ,  2-C ) :   1.6078
B(  1-C , 32-H ) :   0.9673 B(  2-C ,  3-C ) :   1.2207 B(  2-C ,  6-C ) :   1.0236
B(  3-C ,  4-C ) :   1.6253 B(  3-C ,  5-H ) :   0.9803 B(  4-C , 20-C ) :   1.0233
B(  6-C ,  7-H ) :   0.9426 B(  6-C ,  8-H ) :   0.9512 B(  6-C ,  9-C ) :   1.0577
B(  9-C , 10-H ) :   0.9596 B(  9-C , 11-H ) :   0.9593 B(  9-C , 12-C ) :   1.0605
B( 12-C , 13-H ) :   0.9744 B( 12-C , 14-H ) :   0.9769 B( 12-C , 15-H ) :   0.9763
B( 16-S , 17-C ) :   1.1924 B( 16-S , 20-C ) :   1.1600 B( 17-C , 18-C ) :   1.5583
B( 17-C , 33-H ) :   0.9651 B( 18-C , 19-C ) :   1.2584 B( 18-C , 21-H ) :   0.9962
B( 19-C , 20-C ) :   1.5926 B( 19-C , 22-C ) :   1.0325 B( 22-C , 23-H ) :   0.9324
B( 22-C , 24-H ) :   0.9184 B( 22-C , 25-C ) :   1.0619 B( 25-C , 26-H ) :   0.9528
B( 25-C , 27-H ) :   0.9523 B( 25-C , 28-C ) :   1.0856 B( 28-C , 29-H ) :   0.9727
B( 28-C , 30-H ) :   0.9725 B( 28-C , 31-H ) :   0.9753

Dispersion correction           -0.014264728
FINAL SINGLE POINT ENERGY     -1339.876025941435

DIPOLE MOMENT
-------------
                                X             Y             Z
Electronic contribution:    -15.04571       0.26954     -14.17242
Nuclear contribution   :     15.29399      -0.56610      14.54702
                        -----------------------------------------
Total Dipole Moment    :      0.24828      -0.29656       0.37460
                        -----------------------------------------
Magnitude (a.u.)       :      0.53844
Magnitude (Debye)      :      1.36861

Rotational constants in cm-1:     0.020002     0.007813     0.006574
Rotational constants in MHz :   599.652275   234.221606   197.091183

                             ****ORCA TERMINATED NORMALLY****
TOTAL RUN TIME: 0 days 0 hours 0 minutes 21 seconds 220 msec
