                         Program Version 4.2.1 -  RELEASE  -
|  1> ! wB97X-D3 SP def2-SVP
|  2> %pal
|  3> nprocs 24
|  4> end
|  5>
|  6> * xyz 0 1
|  7> S 	 -27.9401 	 -7.13011 	 -4.54158
|  8> C 	 -27.7623 	 -8.79469 	 -4.01603
|  9> C 	 -28.77 	 -9.16826 	 -3.17541
| 10> C 	 -29.7907 	 -8.13382 	 -3.15406
| 11> C 	 -29.4631 	 -6.96643 	 -3.74836
| 12> H 	 -30.6661 	 -8.16747 	 -2.58713
| 13> C 	 -29.0851 	 -10.4972 	 -2.63439
| 14> H 	 -28.3906 	 -11.2458 	 -3.07991
| 15> H 	 -30.0776 	 -10.7028 	 -3.02941
| 16> C 	 -29 	 -10.4957 	 -1.10738
| 17> H 	 -28.0136 	 -10.4023 	 -0.737544
| 18> H 	 -29.5721 	 -9.6655 	 -0.645737
| 19> C 	 -29.5324 	 -11.7688 	 -0.494939
| 20> H 	 -28.8374 	 -12.5632 	 -0.59434
| 21> H 	 -29.8072 	 -11.6011 	 0.572901
| 22> H 	 -30.428 	 -12.1257 	 -0.996294
| 23> S 	 -29.9529 	 -4.58719 	 -5.2694
| 24> C 	 -30.8476 	 -3.33061 	 -4.48477
| 25> C 	 -31.2897 	 -3.69082 	 -3.25073
| 26> C 	 -30.907 	 -5.05939 	 -2.87283
| 27> C 	 -30.0721 	 -5.63848 	 -3.8229
| 28> H 	 -31.7539 	 -2.90332 	 -2.65167
| 29> C 	 -31.4378 	 -5.73579 	 -1.667
| 30> H 	 -31.5673 	 -5.01177 	 -0.855102
| 31> H 	 -30.7235 	 -6.51422 	 -1.32117
| 32> C 	 -32.7544 	 -6.55272 	 -1.93384
| 33> H 	 -32.6952 	 -6.94656 	 -2.95015
| 34> H 	 -33.5854 	 -5.873 	 -1.8571
| 35> C 	 -33.0189 	 -7.75914 	 -0.937258
| 36> H 	 -33.4746 	 -7.39336 	 -0.100666
| 37> H 	 -32.1064 	 -8.4049 	 -0.740891
| 38> H 	 -33.8584 	 -8.33257 	 -1.40857
| 39> H 	 -26.9866 	 -9.47948 	 -4.25615
| 40> H 	 -30.9245 	 -2.36236 	 -4.94578
| 41> *
| 42>
| 43>                          ****END OF INPUT****

CARTESIAN COORDINATES (ANGSTROEM)
---------------------------------
  S    -27.940100   -7.130110   -4.541580
  C    -27.762300   -8.794690   -4.016030
  C    -28.770000   -9.168260   -3.175410
  C    -29.790700   -8.133820   -3.154060
  C    -29.463100   -6.966430   -3.748360
  H    -30.666100   -8.167470   -2.587130
  C    -29.085100  -10.497200   -2.634390
  H    -28.390600  -11.245800   -3.079910
  H    -30.077600  -10.702800   -3.029410
  C    -29.000000  -10.495700   -1.107380
  H    -28.013600  -10.402300   -0.737544
  H    -29.572100   -9.665500   -0.645737
  C    -29.532400  -11.768800   -0.494939
  H    -28.837400  -12.563200   -0.594340
  H    -29.807200  -11.601100    0.572901
  H    -30.428000  -12.125700   -0.996294
  S    -29.952900   -4.587190   -5.269400
  C    -30.847600   -3.330610   -4.484770
  C    -31.289700   -3.690820   -3.250730
  C    -30.907000   -5.059390   -2.872830
  C    -30.072100   -5.638480   -3.822900
  H    -31.753900   -2.903320   -2.651670
  C    -31.437800   -5.735790   -1.667000
  H    -31.567300   -5.011770   -0.855102
  H    -30.723500   -6.514220   -1.321170
  C    -32.754400   -6.552720   -1.933840
  H    -32.695200   -6.946560   -2.950150
  H    -33.585400   -5.873000   -1.857100
  C    -33.018900   -7.759140   -0.937258
  H    -33.474600   -7.393360   -0.100666
  H    -32.106400   -8.404900   -0.740891
  H    -33.858400   -8.332570   -1.408570
  H    -26.986600   -9.479480   -4.256150
  H    -30.924500   -2.362360   -4.945780

 Total Charge           Charge          ....    0
 Multiplicity           Mult            ....    1
 Number of Electrons    NEL             ....  134
 Basis Dimension        Dim             ....  322

ORBITAL ENERGIES
----------------

  NO   OCC          E(Eh)            E(eV)
   0   2.0000     -88.965100     -2420.8634
   1   2.0000     -88.958699     -2420.6893
   2   2.0000     -10.330657      -281.1115
   3   2.0000     -10.325389      -280.9681
   4   2.0000     -10.315949      -280.7112
   5   2.0000     -10.308115      -280.4981
   6   2.0000     -10.307725      -280.4875
   7   2.0000     -10.297125      -280.1990
   8   2.0000     -10.295647      -280.1588
   9   2.0000     -10.293747      -280.1071
  10   2.0000     -10.293695      -280.1057
  11   2.0000     -10.292271      -280.0669
  12   2.0000     -10.286326      -279.9052
  13   2.0000     -10.285302      -279.8773
  14   2.0000     -10.284613      -279.8585
  15   2.0000     -10.273955      -279.5685
  16   2.0000      -8.079680      -219.8593
  17   2.0000      -8.074323      -219.7135
  18   2.0000      -6.038351      -164.3119
  19   2.0000      -6.034253      -164.2004
  20   2.0000      -6.032957      -164.1651
  21   2.0000      -6.030232      -164.0910
  22   2.0000      -6.028740      -164.0503
  23   2.0000      -6.024848      -163.9444
  24   2.0000      -1.009041       -27.4574
  25   2.0000      -0.985143       -26.8071
  26   2.0000      -0.921043       -25.0628
  27   2.0000      -0.907706       -24.6999
  28   2.0000      -0.873259       -23.7626
  29   2.0000      -0.852107       -23.1870
  30   2.0000      -0.844057       -22.9680
  31   2.0000      -0.820526       -22.3277
  32   2.0000      -0.785545       -21.3758
  33   2.0000      -0.773303       -21.0426
  34   2.0000      -0.709677       -19.3113
  35   2.0000      -0.701979       -19.1018
  36   2.0000      -0.694933       -18.9101
  37   2.0000      -0.661702       -18.0058
  38   2.0000      -0.642819       -17.4920
  39   2.0000      -0.627581       -17.0774
  40   2.0000      -0.595927       -16.2160
  41   2.0000      -0.572921       -15.5900
  42   2.0000      -0.569379       -15.4936
  43   2.0000      -0.561969       -15.2920
  44   2.0000      -0.533787       -14.5251
  45   2.0000      -0.526100       -14.3159
  46   2.0000      -0.518269       -14.1028
  47   2.0000      -0.515711       -14.0332
  48   2.0000      -0.506932       -13.7943
  49   2.0000      -0.503819       -13.7096
  50   2.0000      -0.498706       -13.5705
  51   2.0000      -0.481629       -13.1058
  52   2.0000      -0.468376       -12.7452
  53   2.0000      -0.461387       -12.5550
  54   2.0000      -0.458583       -12.4787
  55   2.0000      -0.449920       -12.2429
  56   2.0000      -0.446740       -12.1564
  57   2.0000      -0.441032       -12.0011
  58   2.0000      -0.430499       -11.7145
  59   2.0000      -0.424801       -11.5594
  60   2.0000      -0.423974       -11.5369
  61   2.0000      -0.422457       -11.4956
  62   2.0000      -0.414034       -11.2664
  63   2.0000      -0.356789        -9.7087
  64   2.0000      -0.327922        -8.9232
  65   2.0000      -0.326086        -8.8732
  66   2.0000      -0.291975        -7.9450
  67   0.0000       0.029054         0.7906
  68   0.0000       0.084308         2.2941
  69   0.0000       0.109139         2.9698
  70   0.0000       0.120135         3.2690
  71   0.0000       0.123268         3.3543

MULLIKEN ATOMIC CHARGES
-----------------------
   0 S :    0.088718
   1 C :   -0.092059
   2 C :   -0.084665
   3 C :    0.038238
   4 C :   -0.113905
   5 H :   -0.067422
   6 C :    0.065508
   7 H :    0.022993
   8 H :    0.036939
   9 C :   -0.080643
  10 H :    0.023093
  11 H :    0.030454
  12 C :   -0.025100
  13 H :    0.020405
  14 H :    0.038093
  15 H :    0.016979
  16 S :    0.102541
  17 C :   -0.091648
  18 C :   -0.023048
  19 C :   -0.052258
  20 C :   -0.108900
  21 H :    0.027051
  22 C :    0.042410
  23 H :    0.028593
  24 H :    0.026194
  25 C :   -0.092799
  26 H :    0.046021
  27 H :    0.027081
  28 C :   -0.049022
  29 H :    0.016709
  30 H :    0.057642
  31 H :    0.039433
  32 H :    0.027246
  33 H :    0.059125
Sum of atomic charges:    0.0000000

LOEWDIN ATOMIC CHARGES
----------------------
   0 S :    0.402088
   1 C :   -0.189009
   2 C :   -0.061253
   3 C :   -0.067493
   4 C :   -0.181611
   5 H :    0.013950
   6 C :   -0.030009
   7 H :    0.033866
   8 H :    0.036493
   9 C :   -0.038756
  10 H :    0.023357
  11 H :    0.025358
  12 C :   -0.063993
  13 H :    0.017703
  14 H :    0.031649
  15 H :    0.020834
  16 S :    0.386597
  17 C :   -0.180629
  18 C :   -0.075306
  19 C :   -0.047474
  20 C :   -0.191443
  21 H :    0.036141
  22 C :   -0.040521
  23 H :    0.030243
  24 H :    0.031964
  25 C :   -0.033655
  26 H :    0.024397
  27 H :    0.022679
  28 C :   -0.066441
  29 H :    0.011451
  30 H :    0.030447
  31 H :    0.036970
  32 H :    0.022686
  33 H :    0.028721

  Mayer bond orders larger than 0.100000
B(  0-S ,  1-C ) :   1.1208 B(  0-S ,  4-C ) :   1.1366 B(  1-C ,  2-C ) :   1.6460
B(  1-C , 32-H ) :   0.9682 B(  2-C ,  3-C ) :   1.1973 B(  2-C ,  6-C ) :   1.0335
B(  3-C ,  4-C ) :   1.6151 B(  3-C ,  5-H ) :   0.9968 B(  4-C , 20-C ) :   1.0436
B(  6-C ,  7-H ) :   0.9393 B(  6-C ,  8-H ) :   0.9426 B(  6-C ,  9-C ) :   1.0545
B(  9-C , 10-H ) :   0.9513 B(  9-C , 11-H ) :   0.9613 B(  9-C , 12-C ) :   1.0865
B( 12-C , 13-H ) :   0.9731 B( 12-C , 14-H ) :   0.9743 B( 12-C , 15-H ) :   0.9735
B( 16-S , 17-C ) :   1.1441 B( 16-S , 20-C ) :   1.1170 B( 17-C , 18-C ) :   1.6421
B( 17-C , 33-H ) :   0.9667 B( 18-C , 19-C ) :   1.1939 B( 18-C , 21-H ) :   0.9905
B( 19-C , 20-C ) :   1.6093 B( 19-C , 22-C ) :   1.0833 B( 22-C , 23-H ) :   0.9309
B( 22-C , 24-H ) :   0.9302 B( 22-C , 25-C ) :   1.0380 B( 25-C , 26-H ) :   0.9646
B( 25-C , 27-H ) :   0.9539 B( 25-C , 28-C ) :   1.0726 B( 28-C , 29-H ) :   0.9747
B( 28-C , 30-H ) :   0.9702 B( 28-C , 31-H ) :   0.9731

Dispersion correction           -0.014830407
FINAL SINGLE POINT ENERGY     -1339.880745190454

DIPOLE MOMENT
-------------
                                X             Y             Z
Electronic contribution:     12.84981      20.86781     -22.93821
Nuclear contribution   :    -13.31233     -21.09592      23.51626
                        -----------------------------------------
Total Dipole Moment    :     -0.46252      -0.22811       0.57806
                        -----------------------------------------
Magnitude (a.u.)       :      0.77466
Magnitude (Debye)      :      1.96904

Rotational constants in cm-1:     0.019693     0.009475     0.006672
Rotational constants in MHz :   590.395509   284.065182   200.010170

                             ****ORCA TERMINATED NORMALLY****
TOTAL RUN TIME: 0 days 0 hours 0 minutes 22 seconds 579 msec
