                         Program Version 4.2.1 -  RELEASE  -
|  1> ! wB97X-D3 SP def2-SVP
|  2> %pal
|  3> nprocs 24
|  4> end
|  5>
|  6> * xyz 0 1
|  7> S 	 -103.726 	 41.8021 	 -92.2592
|  8> C 	 -103.688 	 40.5455 	 -91.0982
|  9> C 	 -103.362 	 39.311 	 -91.6839
| 10> C 	 -103.126 	 39.4836 	 -93.0906
| 11> C 	 -103.256 	 40.793 	 -93.5893
| 12> H 	 -102.965 	 38.6428 	 -93.7859
| 13> C 	 -103.344 	 37.96 	 -90.9551
| 14> H 	 -103.178 	 37.2486 	 -91.8152
| 15> H 	 -104.305 	 37.8356 	 -90.5623
| 16> C 	 -102.198 	 37.7832 	 -89.9668
| 17> H 	 -101.228 	 38.1277 	 -90.387
| 18> H 	 -102.397 	 38.3502 	 -89.0575
| 19> C 	 -102.178 	 36.2778 	 -89.6595
| 20> H 	 -101.645 	 35.9469 	 -88.7717
| 21> H 	 -103.196 	 35.8504 	 -89.6323
| 22> H 	 -101.607 	 35.8902 	 -90.5499
| 23> S 	 -103.478 	 40.0352 	 -96.3364
| 24> C 	 -103.019 	 41.2783 	 -97.4599
| 25> C 	 -102.481 	 42.3581 	 -96.86
| 26> C 	 -102.531 	 42.4008 	 -95.4534
| 27> C 	 -103.08 	 41.2018 	 -94.9694
| 28> H 	 -102.007 	 43.1267 	 -97.4665
| 29> C 	 -102.028 	 43.4978 	 -94.5968
| 30> H 	 -101.713 	 43.092 	 -93.6502
| 31> H 	 -102.92 	 44.1411 	 -94.3249
| 32> C 	 -100.873 	 44.3709 	 -95.1448
| 33> H 	 -101.269 	 44.8222 	 -96.0522
| 34> H 	 -100.031 	 43.7651 	 -95.399
| 35> C 	 -100.317 	 45.407 	 -94.1208
| 36> H 	 -99.3773 	 45.9243 	 -94.4669
| 37> H 	 -100.109 	 44.863 	 -93.1827
| 38> H 	 -101.075 	 46.175 	 -93.8475
| 39> H 	 -104.059 	 40.6964 	 -90.1275
| 40> H 	 -103.083 	 41.0941 	 -98.5345
| 41> *
| 42>
| 43>                          ****END OF INPUT****

CARTESIAN COORDINATES (ANGSTROEM)
---------------------------------
  S    -103.726000   41.802100  -92.259200
  C    -103.688000   40.545500  -91.098200
  C    -103.362000   39.311000  -91.683900
  C    -103.126000   39.483600  -93.090600
  C    -103.256000   40.793000  -93.589300
  H    -102.965000   38.642800  -93.785900
  C    -103.344000   37.960000  -90.955100
  H    -103.178000   37.248600  -91.815200
  H    -104.305000   37.835600  -90.562300
  C    -102.198000   37.783200  -89.966800
  H    -101.228000   38.127700  -90.387000
  H    -102.397000   38.350200  -89.057500
  C    -102.178000   36.277800  -89.659500
  H    -101.645000   35.946900  -88.771700
  H    -103.196000   35.850400  -89.632300
  H    -101.607000   35.890200  -90.549900
  S    -103.478000   40.035200  -96.336400
  C    -103.019000   41.278300  -97.459900
  C    -102.481000   42.358100  -96.860000
  C    -102.531000   42.400800  -95.453400
  C    -103.080000   41.201800  -94.969400
  H    -102.007000   43.126700  -97.466500
  C    -102.028000   43.497800  -94.596800
  H    -101.713000   43.092000  -93.650200
  H    -102.920000   44.141100  -94.324900
  C    -100.873000   44.370900  -95.144800
  H    -101.269000   44.822200  -96.052200
  H    -100.031000   43.765100  -95.399000
  C    -100.317000   45.407000  -94.120800
  H    -99.377300   45.924300  -94.466900
  H    -100.109000   44.863000  -93.182700
  H    -101.075000   46.175000  -93.847500
  H    -104.059000   40.696400  -90.127500
  H    -103.083000   41.094100  -98.534500

 Total Charge           Charge          ....    0
 Multiplicity           Mult            ....    1
 Number of Electrons    NEL             ....  134
 Basis Dimension        Dim             ....  322

ORBITAL ENERGIES
----------------

  NO   OCC          E(Eh)            E(eV)
   0   2.0000     -88.967453     -2420.9275
   1   2.0000     -88.966599     -2420.9042
   2   2.0000     -10.332401      -281.1589
   3   2.0000     -10.328191      -281.0444
   4   2.0000     -10.315145      -280.6894
   5   2.0000     -10.308149      -280.4990
   6   2.0000     -10.302832      -280.3543
   7   2.0000     -10.301823      -280.3269
   8   2.0000     -10.293977      -280.1134
   9   2.0000     -10.293193      -280.0920
  10   2.0000     -10.292729      -280.0794
  11   2.0000     -10.289111      -279.9809
  12   2.0000     -10.288792      -279.9723
  13   2.0000     -10.288675      -279.9691
  14   2.0000     -10.288250      -279.9575
  15   2.0000     -10.281768      -279.7811
  16   2.0000      -8.082302      -219.9306
  17   2.0000      -8.080295      -219.8760
  18   2.0000      -6.040776      -164.3779
  19   2.0000      -6.038936      -164.3278
  20   2.0000      -6.036488      -164.2612
  21   2.0000      -6.035189      -164.2258
  22   2.0000      -6.033417      -164.1776
  23   2.0000      -6.030752      -164.1051
  24   2.0000      -1.004103       -27.3230
  25   2.0000      -0.983826       -26.7713
  26   2.0000      -0.914890       -24.8954
  27   2.0000      -0.909060       -24.7368
  28   2.0000      -0.869579       -23.6624
  29   2.0000      -0.851861       -23.1803
  30   2.0000      -0.845414       -23.0049
  31   2.0000      -0.808759       -22.0074
  32   2.0000      -0.780117       -21.2281
  33   2.0000      -0.767181       -20.8761
  34   2.0000      -0.707817       -19.2607
  35   2.0000      -0.699704       -19.0399
  36   2.0000      -0.698960       -19.0197
  37   2.0000      -0.657747       -17.8982
  38   2.0000      -0.635401       -17.2901
  39   2.0000      -0.613215       -16.6864
  40   2.0000      -0.602366       -16.3912
  41   2.0000      -0.570603       -15.5269
  42   2.0000      -0.569198       -15.4887
  43   2.0000      -0.563755       -15.3406
  44   2.0000      -0.528016       -14.3680
  45   2.0000      -0.522261       -14.2114
  46   2.0000      -0.515912       -14.0387
  47   2.0000      -0.511411       -13.9162
  48   2.0000      -0.503164       -13.6918
  49   2.0000      -0.500748       -13.6260
  50   2.0000      -0.485303       -13.2058
  51   2.0000      -0.475774       -12.9465
  52   2.0000      -0.467621       -12.7246
  53   2.0000      -0.460346       -12.5267
  54   2.0000      -0.460156       -12.5215
  55   2.0000      -0.453753       -12.3472
  56   2.0000      -0.446578       -12.1520
  57   2.0000      -0.440860       -11.9964
  58   2.0000      -0.430572       -11.7165
  59   2.0000      -0.425499       -11.5784
  60   2.0000      -0.424160       -11.5420
  61   2.0000      -0.419727       -11.4213
  62   2.0000      -0.409042       -11.1306
  63   2.0000      -0.355969        -9.6864
  64   2.0000      -0.333471        -9.0742
  65   2.0000      -0.328222        -8.9314
  66   2.0000      -0.278939        -7.5903
  67   0.0000       0.022517         0.6127
  68   0.0000       0.076286         2.0759
  69   0.0000       0.101853         2.7716
  70   0.0000       0.125864         3.4249
  71   0.0000       0.133823         3.6415

MULLIKEN ATOMIC CHARGES
-----------------------
   0 S :    0.113796
   1 C :   -0.111504
   2 C :   -0.100725
   3 C :   -0.013498
   4 C :   -0.159300
   5 H :    0.018212
   6 C :    0.058729
   7 H :    0.023651
   8 H :    0.031893
   9 C :   -0.060687
  10 H :    0.044283
  11 H :    0.029330
  12 C :   -0.070936
  13 H :    0.035742
  14 H :    0.039353
  15 H :    0.039831
  16 S :    0.092128
  17 C :   -0.085342
  18 C :   -0.036388
  19 C :   -0.024447
  20 C :   -0.131794
  21 H :    0.016631
  22 C :    0.039183
  23 H :    0.021241
  24 H :    0.052629
  25 C :   -0.079045
  26 H :    0.035460
  27 H :    0.033523
  28 C :   -0.068998
  29 H :    0.050845
  30 H :    0.035045
  31 H :    0.036896
  32 H :    0.033117
  33 H :    0.061147
Sum of atomic charges:    0.0000000

LOEWDIN ATOMIC CHARGES
----------------------
   0 S :    0.444971
   1 C :   -0.210293
   2 C :   -0.060839
   3 C :   -0.077950
   4 C :   -0.204335
   5 H :    0.027047
   6 C :   -0.025700
   7 H :    0.035367
   8 H :    0.025570
   9 C :   -0.038971
  10 H :    0.031167
  11 H :    0.019857
  12 C :   -0.070168
  13 H :    0.021310
  14 H :    0.027308
  15 H :    0.033352
  16 S :    0.372070
  17 C :   -0.181487
  18 C :   -0.077192
  19 C :   -0.052633
  20 C :   -0.165605
  21 H :    0.032279
  22 C :   -0.042271
  23 H :    0.019665
  24 H :    0.042788
  25 C :   -0.037493
  26 H :    0.020612
  27 H :    0.023696
  28 C :   -0.070004
  29 H :    0.033778
  30 H :    0.027885
  31 H :    0.026937
  32 H :    0.016918
  33 H :    0.032364

  Mayer bond orders larger than 0.100000
B(  0-S ,  1-C ) :   1.1688 B(  0-S ,  4-C ) :   1.1653 B(  1-C ,  2-C ) :   1.5435
B(  1-C , 32-H ) :   0.9790 B(  2-C ,  3-C ) :   1.3143 B(  2-C ,  6-C ) :   1.0014
B(  3-C ,  4-C ) :   1.5077 B(  3-C ,  5-H ) :   0.9829 B(  4-C , 20-C ) :   1.0918
B(  6-C ,  7-H ) :   0.9497 B(  6-C ,  8-H ) :   0.9348 B(  6-C ,  9-C ) :   1.0623
B(  9-C , 10-H ) :   0.9634 B(  9-C , 11-H ) :   0.9538 B(  9-C , 12-C ) :   1.0636
B( 12-C , 13-H ) :   0.9753 B( 12-C , 14-H ) :   0.9728 B( 12-C , 15-H ) :   0.9791
B( 16-S , 17-C ) :   1.1398 B( 16-S , 20-C ) :   1.1202 B( 17-C , 18-C ) :   1.6227
B( 17-C , 33-H ) :   0.9629 B( 18-C , 19-C ) :   1.2384 B( 18-C , 21-H ) :   0.9866
B( 19-C , 20-C ) :   1.5676 B( 19-C , 22-C ) :   1.0482 B( 22-C , 23-H ) :   0.9209
B( 22-C , 24-H ) :   0.9229 B( 22-C , 25-C ) :   1.0680 B( 25-C , 26-H ) :   0.9489
B( 25-C , 27-H ) :   0.9603 B( 25-C , 28-C ) :   1.0814 B( 28-C , 29-H ) :   0.9754
B( 28-C , 30-H ) :   0.9733 B( 28-C , 31-H ) :   0.9756

Dispersion correction           -0.013252536
FINAL SINGLE POINT ENERGY     -1339.888096650998

DIPOLE MOMENT
-------------
                                X             Y             Z
Electronic contribution:    -12.64828       0.67743     -12.96145
Nuclear contribution   :     12.89166      -0.66594      13.11134
                        -----------------------------------------
Total Dipole Moment    :      0.24338       0.01148       0.14989
                        -----------------------------------------
Magnitude (a.u.)       :      0.28607
Magnitude (Debye)      :      0.72712

Rotational constants in cm-1:     0.020010     0.007247     0.005941
Rotational constants in MHz :   599.882020   217.272831   178.116076

                             ****ORCA TERMINATED NORMALLY****
TOTAL RUN TIME: 0 days 0 hours 0 minutes 21 seconds 755 msec
