                         Program Version 4.2.1 -  RELEASE  -
|  1> ! wB97X-D3 SP def2-SVP
|  2> %pal
|  3> nprocs 24
|  4> end
|  5>
|  6> * xyz 0 1
|  7> S 	 46.8311 	 -19.3792 	 -110.922
|  8> C 	 46.8197 	 -19.2383 	 -109.17
|  9> C 	 45.8757 	 -20.0723 	 -108.603
| 10> C 	 45.3169 	 -20.9583 	 -109.619
| 11> C 	 45.7235 	 -20.7497 	 -110.915
| 12> H 	 44.5393 	 -21.7225 	 -109.446
| 13> C 	 45.4094 	 -20.0478 	 -107.15
| 14> H 	 45.2286 	 -18.9594 	 -106.997
| 15> H 	 46.1603 	 -20.3536 	 -106.399
| 16> C 	 44.0896 	 -20.7849 	 -106.77
| 17> H 	 43.2731 	 -20.6466 	 -107.476
| 18> H 	 44.4161 	 -21.8168 	 -106.817
| 19> C 	 43.5254 	 -20.3638 	 -105.424
| 20> H 	 44.309 	 -20.2917 	 -104.666
| 21> H 	 43.125 	 -19.3521 	 -105.398
| 22> H 	 42.7204 	 -21.097 	 -105.159
| 23> S 	 46.7176 	 -21.6107 	 -113.334
| 24> C 	 45.7318 	 -22.6464 	 -114.312
| 25> C 	 44.5475 	 -23.0096 	 -113.703
| 26> C 	 44.331 	 -22.2633 	 -112.504
| 27> C 	 45.4899 	 -21.5558 	 -112.087
| 28> H 	 43.886 	 -23.6677 	 -114.258
| 29> C 	 42.9689 	 -22.4044 	 -111.839
| 30> H 	 43.1582 	 -22.6503 	 -110.804
| 31> H 	 42.4861 	 -23.2914 	 -112.234
| 32> C 	 41.9913 	 -21.2041 	 -112.103
| 33> H 	 41.6202 	 -21.2297 	 -113.2
| 34> H 	 42.4964 	 -20.2367 	 -111.964
| 35> C 	 40.7682 	 -21.3336 	 -111.205
| 36> H 	 40.867 	 -20.6481 	 -110.359
| 37> H 	 40.5502 	 -22.3346 	 -110.846
| 38> H 	 39.9312 	 -21.1296 	 -111.903
| 39> H 	 47.3874 	 -18.5054 	 -108.619
| 40> H 	 45.9404 	 -22.8928 	 -115.367
| 41> *
| 42>
| 43>                          ****END OF INPUT****

CARTESIAN COORDINATES (ANGSTROEM)
---------------------------------
  S     46.831100  -19.379200  -110.922000
  C     46.819700  -19.238300  -109.170000
  C     45.875700  -20.072300  -108.603000
  C     45.316900  -20.958300  -109.619000
  C     45.723500  -20.749700  -110.915000
  H     44.539300  -21.722500  -109.446000
  C     45.409400  -20.047800  -107.150000
  H     45.228600  -18.959400  -106.997000
  H     46.160300  -20.353600  -106.399000
  C     44.089600  -20.784900  -106.770000
  H     43.273100  -20.646600  -107.476000
  H     44.416100  -21.816800  -106.817000
  C     43.525400  -20.363800  -105.424000
  H     44.309000  -20.291700  -104.666000
  H     43.125000  -19.352100  -105.398000
  H     42.720400  -21.097000  -105.159000
  S     46.717600  -21.610700  -113.334000
  C     45.731800  -22.646400  -114.312000
  C     44.547500  -23.009600  -113.703000
  C     44.331000  -22.263300  -112.504000
  C     45.489900  -21.555800  -112.087000
  H     43.886000  -23.667700  -114.258000
  C     42.968900  -22.404400  -111.839000
  H     43.158200  -22.650300  -110.804000
  H     42.486100  -23.291400  -112.234000
  C     41.991300  -21.204100  -112.103000
  H     41.620200  -21.229700  -113.200000
  H     42.496400  -20.236700  -111.964000
  C     40.768200  -21.333600  -111.205000
  H     40.867000  -20.648100  -110.359000
  H     40.550200  -22.334600  -110.846000
  H     39.931200  -21.129600  -111.903000
  H     47.387400  -18.505400  -108.619000
  H     45.940400  -22.892800  -115.367000

 Total Charge           Charge          ....    0
 Multiplicity           Mult            ....    1
 Number of Electrons    NEL             ....  134
 Basis Dimension        Dim             ....  322

ORBITAL ENERGIES
----------------

  NO   OCC          E(Eh)            E(eV)
   0   2.0000     -88.967362     -2420.9250
   1   2.0000     -88.963151     -2420.8104
   2   2.0000     -10.329142      -281.0703
   3   2.0000     -10.328406      -281.0502
   4   2.0000     -10.316217      -280.7185
   5   2.0000     -10.313965      -280.6572
   6   2.0000     -10.306890      -280.4647
   7   2.0000     -10.306151      -280.4446
   8   2.0000     -10.299298      -280.2582
   9   2.0000     -10.295023      -280.1418
  10   2.0000     -10.294467      -280.1267
  11   2.0000     -10.292749      -280.0799
  12   2.0000     -10.292732      -280.0795
  13   2.0000     -10.289354      -279.9876
  14   2.0000     -10.284317      -279.8505
  15   2.0000     -10.278065      -279.6804
  16   2.0000      -8.082231      -219.9287
  17   2.0000      -8.077650      -219.8040
  18   2.0000      -6.040680      -164.3753
  19   2.0000      -6.036650      -164.2656
  20   2.0000      -6.036301      -164.2561
  21   2.0000      -6.033129      -164.1698
  22   2.0000      -6.032185      -164.1441
  23   2.0000      -6.028292      -164.0382
  24   2.0000      -1.004929       -27.3455
  25   2.0000      -0.981293       -26.7023
  26   2.0000      -0.910414       -24.7736
  27   2.0000      -0.905765       -24.6471
  28   2.0000      -0.872651       -23.7461
  29   2.0000      -0.853438       -23.2232
  30   2.0000      -0.841876       -22.9086
  31   2.0000      -0.814251       -22.1569
  32   2.0000      -0.780427       -21.2365
  33   2.0000      -0.769256       -20.9325
  34   2.0000      -0.710517       -19.3342
  35   2.0000      -0.695542       -18.9267
  36   2.0000      -0.687411       -18.7054
  37   2.0000      -0.660726       -17.9793
  38   2.0000      -0.637530       -17.3481
  39   2.0000      -0.616694       -16.7811
  40   2.0000      -0.591801       -16.1037
  41   2.0000      -0.575939       -15.6721
  42   2.0000      -0.566428       -15.4133
  43   2.0000      -0.558988       -15.2108
  44   2.0000      -0.529664       -14.4129
  45   2.0000      -0.523316       -14.2402
  46   2.0000      -0.511754       -13.9255
  47   2.0000      -0.505024       -13.7424
  48   2.0000      -0.503777       -13.7085
  49   2.0000      -0.500286       -13.6135
  50   2.0000      -0.494004       -13.4425
  51   2.0000      -0.485250       -13.2043
  52   2.0000      -0.478096       -13.0097
  53   2.0000      -0.470884       -12.8134
  54   2.0000      -0.459050       -12.4914
  55   2.0000      -0.450125       -12.2485
  56   2.0000      -0.445261       -12.1162
  57   2.0000      -0.436075       -11.8662
  58   2.0000      -0.431280       -11.7357
  59   2.0000      -0.422060       -11.4848
  60   2.0000      -0.416670       -11.3382
  61   2.0000      -0.411171       -11.1885
  62   2.0000      -0.407399       -11.0859
  63   2.0000      -0.354078        -9.6349
  64   2.0000      -0.332633        -9.0514
  65   2.0000      -0.325879        -8.8676
  66   2.0000      -0.281804        -7.6683
  67   0.0000       0.020776         0.5653
  68   0.0000       0.083312         2.2670
  69   0.0000       0.102795         2.7972
  70   0.0000       0.116951         3.1824
  71   0.0000       0.131821         3.5870

MULLIKEN ATOMIC CHARGES
-----------------------
   0 S :    0.092900
   1 C :   -0.126719
   2 C :   -0.057650
   3 C :   -0.013809
   4 C :   -0.118175
   5 H :    0.010800
   6 C :    0.010289
   7 H :    0.034759
   8 H :    0.050180
   9 C :   -0.093357
  10 H :    0.033974
  11 H :    0.039394
  12 C :   -0.042395
  13 H :    0.022360
  14 H :    0.033335
  15 H :    0.048633
  16 S :    0.115801
  17 C :   -0.108742
  18 C :   -0.029252
  19 C :   -0.060126
  20 C :   -0.131203
  21 H :    0.022401
  22 C :    0.061606
  23 H :    0.025034
  24 H :    0.013960
  25 C :   -0.108096
  26 H :    0.042281
  27 H :    0.049265
  28 C :   -0.034034
  29 H :    0.046874
  30 H :    0.025686
  31 H :    0.033007
  32 H :    0.044758
  33 H :    0.066260
Sum of atomic charges:   -0.0000000

LOEWDIN ATOMIC CHARGES
----------------------
   0 S :    0.387510
   1 C :   -0.191230
   2 C :   -0.061955
   3 C :   -0.071695
   4 C :   -0.190164
   5 H :    0.029700
   6 C :   -0.040060
   7 H :    0.034739
   8 H :    0.036107
   9 C :   -0.045230
  10 H :    0.023594
  11 H :    0.024452
  12 C :   -0.065664
  13 H :    0.022362
  14 H :    0.026361
  15 H :    0.036199
  16 S :    0.417113
  17 C :   -0.193835
  18 C :   -0.074181
  19 C :   -0.049678
  20 C :   -0.204887
  21 H :    0.033721
  22 C :   -0.032445
  23 H :    0.024048
  24 H :    0.029251
  25 C :   -0.040635
  26 H :    0.032257
  27 H :    0.028343
  28 C :   -0.070240
  29 H :    0.029296
  30 H :    0.021696
  31 H :    0.032925
  32 H :    0.027293
  33 H :    0.034932

  Mayer bond orders larger than 0.100000
B(  0-S ,  1-C ) :   1.1333 B(  0-S ,  4-C ) :   1.1265 B(  1-C ,  2-C ) :   1.6213
B(  1-C , 32-H ) :   0.9736 B(  2-C ,  3-C ) :   1.2409 B(  2-C ,  6-C ) :   0.9976
B(  3-C ,  4-C ) :   1.5845 B(  3-C ,  5-H ) :   0.9819 B(  4-C , 20-C ) :   1.0903
B(  6-C ,  7-H ) :   0.9483 B(  6-C ,  8-H ) :   0.9388 B(  6-C ,  9-C ) :   1.0735
B(  9-C , 10-H ) :   0.9555 B(  9-C , 11-H ) :   0.9500 B(  9-C , 12-C ) :   1.0850
B( 12-C , 13-H ) :   0.9733 B( 12-C , 14-H ) :   0.9730 B( 12-C , 15-H ) :   0.9719
B( 16-S , 17-C ) :   1.1679 B( 16-S , 20-C ) :   1.1359 B( 17-C , 18-C ) :   1.6018
B( 17-C , 33-H ) :   0.9607 B( 18-C , 19-C ) :   1.2634 B( 18-C , 21-H ) :   0.9871
B( 19-C , 20-C ) :   1.5487 B( 19-C , 22-C ) :   1.0370 B( 22-C , 23-H ) :   0.9411
B( 22-C , 24-H ) :   0.9296 B( 22-C , 25-C ) :   1.0479 B( 25-C , 26-H ) :   0.9646
B( 25-C , 27-H ) :   0.9652 B( 25-C , 28-C ) :   1.0574 B( 28-C , 29-H ) :   0.9784
B( 28-C , 30-H ) :   0.9745 B( 28-C , 31-H ) :   0.9792

Dispersion correction           -0.013775701
FINAL SINGLE POINT ENERGY     -1339.877033224333

DIPOLE MOMENT
-------------
                                X             Y             Z
Electronic contribution:     25.38134       2.37944     -20.38580
Nuclear contribution   :    -26.05596      -2.54065      20.69528
                        -----------------------------------------
Total Dipole Moment    :     -0.67463      -0.16121       0.30947
                        -----------------------------------------
Magnitude (a.u.)       :      0.75953
Magnitude (Debye)      :      1.93057

Rotational constants in cm-1:     0.017165     0.009209     0.006552
Rotational constants in MHz :   514.605153   276.078481   196.420938

                             ****ORCA TERMINATED NORMALLY****
TOTAL RUN TIME: 0 days 0 hours 0 minutes 21 seconds 502 msec
