                         Program Version 4.2.1 -  RELEASE  -
|  1> ! wB97X-D3 SP def2-SVP
|  2> %pal
|  3> nprocs 24
|  4> end
|  5>
|  6> * xyz 0 1
|  7> S 	 -41.6648 	 15.9404 	 -100.924
|  8> C 	 -40.5168 	 14.7813 	 -101.579
|  9> C 	 -39.8667 	 14.1627 	 -100.545
| 10> C 	 -40.2896 	 14.6321 	 -99.2215
| 11> C 	 -41.2565 	 15.6161 	 -99.281
| 12> H 	 -39.8914 	 14.3829 	 -98.2207
| 13> C 	 -38.7485 	 13.1151 	 -100.661
| 14> H 	 -38.694 	 12.8141 	 -101.688
| 15> H 	 -39.0409 	 12.2701 	 -100.095
| 16> C 	 -37.3628 	 13.643 	 -100.045
| 17> H 	 -37.4122 	 14.0131 	 -99.0148
| 18> H 	 -36.7107 	 12.7162 	 -99.8846
| 19> C 	 -36.8456 	 14.7827 	 -100.988
| 20> H 	 -36.9493 	 14.5345 	 -102.064
| 21> H 	 -37.449 	 15.6548 	 -100.9
| 22> H 	 -35.8392 	 15.1307 	 -100.715
| 23> S 	 -41.5726 	 18.154 	 -98.2863
| 24> C 	 -42.4085 	 18.3487 	 -96.7932
| 25> C 	 -42.7999 	 17.1425 	 -96.2332
| 26> C 	 -42.5079 	 16.008 	 -97.0912
| 27> C 	 -41.8572 	 16.396 	 -98.2667
| 28> H 	 -43.1773 	 17.1056 	 -95.2229
| 29> C 	 -43.0488 	 14.6093 	 -96.7714
| 30> H 	 -42.9203 	 13.9293 	 -97.6515
| 31> H 	 -44.1536 	 14.7123 	 -96.5832
| 32> C 	 -42.2584 	 13.9413 	 -95.5815
| 33> H 	 -42.2744 	 14.7059 	 -94.8013
| 34> H 	 -41.2586 	 13.8329 	 -95.756
| 35> C 	 -42.9509 	 12.556 	 -95.2035
| 36> H 	 -42.9755 	 11.8364 	 -96.072
| 37> H 	 -43.9194 	 12.7067 	 -94.953
| 38> H 	 -42.5545 	 12.1218 	 -94.3561
| 39> H 	 -40.5214 	 14.4519 	 -102.538
| 40> H 	 -42.4007 	 19.3166 	 -96.3557
| 41> *
| 42>
| 43>                          ****END OF INPUT****

CARTESIAN COORDINATES (ANGSTROEM)
---------------------------------
  S    -41.664800   15.940400  -100.924000
  C    -40.516800   14.781300  -101.579000
  C    -39.866700   14.162700  -100.545000
  C    -40.289600   14.632100  -99.221500
  C    -41.256500   15.616100  -99.281000
  H    -39.891400   14.382900  -98.220700
  C    -38.748500   13.115100  -100.661000
  H    -38.694000   12.814100  -101.688000
  H    -39.040900   12.270100  -100.095000
  C    -37.362800   13.643000  -100.045000
  H    -37.412200   14.013100  -99.014800
  H    -36.710700   12.716200  -99.884600
  C    -36.845600   14.782700  -100.988000
  H    -36.949300   14.534500  -102.064000
  H    -37.449000   15.654800  -100.900000
  H    -35.839200   15.130700  -100.715000
  S    -41.572600   18.154000  -98.286300
  C    -42.408500   18.348700  -96.793200
  C    -42.799900   17.142500  -96.233200
  C    -42.507900   16.008000  -97.091200
  C    -41.857200   16.396000  -98.266700
  H    -43.177300   17.105600  -95.222900
  C    -43.048800   14.609300  -96.771400
  H    -42.920300   13.929300  -97.651500
  H    -44.153600   14.712300  -96.583200
  C    -42.258400   13.941300  -95.581500
  H    -42.274400   14.705900  -94.801300
  H    -41.258600   13.832900  -95.756000
  C    -42.950900   12.556000  -95.203500
  H    -42.975500   11.836400  -96.072000
  H    -43.919400   12.706700  -94.953000
  H    -42.554500   12.121800  -94.356100
  H    -40.521400   14.451900  -102.538000
  H    -42.400700   19.316600  -96.355700

 Total Charge           Charge          ....    0
 Multiplicity           Mult            ....    1
 Number of Electrons    NEL             ....  134
 Basis Dimension        Dim             ....  322

ORBITAL ENERGIES
----------------

  NO   OCC          E(Eh)            E(eV)
   0   2.0000     -88.964424     -2420.8450
   1   2.0000     -88.958833     -2420.6929
   2   2.0000     -10.325657      -280.9754
   3   2.0000     -10.324486      -280.9435
   4   2.0000     -10.317092      -280.7423
   5   2.0000     -10.309212      -280.5279
   6   2.0000     -10.306816      -280.4627
   7   2.0000     -10.304768      -280.4070
   8   2.0000     -10.300942      -280.3029
   9   2.0000     -10.300588      -280.2933
  10   2.0000     -10.297813      -280.2177
  11   2.0000     -10.297588      -280.2116
  12   2.0000     -10.292897      -280.0840
  13   2.0000     -10.288083      -279.9530
  14   2.0000     -10.276805      -279.6461
  15   2.0000     -10.272871      -279.5390
  16   2.0000      -8.079570      -219.8563
  17   2.0000      -8.074378      -219.7150
  18   2.0000      -6.038002      -164.3024
  19   2.0000      -6.034027      -164.1942
  20   2.0000      -6.032955      -164.1651
  21   2.0000      -6.030363      -164.0945
  22   2.0000      -6.028645      -164.0478
  23   2.0000      -6.025134      -163.9522
  24   2.0000      -1.007700       -27.4209
  25   2.0000      -0.981743       -26.7146
  26   2.0000      -0.904031       -24.5999
  27   2.0000      -0.901983       -24.5442
  28   2.0000      -0.870702       -23.6930
  29   2.0000      -0.848374       -23.0854
  30   2.0000      -0.835267       -22.7288
  31   2.0000      -0.813255       -22.1298
  32   2.0000      -0.782952       -21.3052
  33   2.0000      -0.773876       -21.0582
  34   2.0000      -0.717145       -19.5145
  35   2.0000      -0.706032       -19.2121
  36   2.0000      -0.697596       -18.9826
  37   2.0000      -0.661825       -18.0092
  38   2.0000      -0.647432       -17.6175
  39   2.0000      -0.614129       -16.7113
  40   2.0000      -0.598305       -16.2807
  41   2.0000      -0.564906       -15.3719
  42   2.0000      -0.555360       -15.1121
  43   2.0000      -0.550359       -14.9760
  44   2.0000      -0.526852       -14.3364
  45   2.0000      -0.523135       -14.2352
  46   2.0000      -0.519968       -14.1490
  47   2.0000      -0.514966       -14.0129
  48   2.0000      -0.508591       -13.8395
  49   2.0000      -0.500868       -13.6293
  50   2.0000      -0.486137       -13.2285
  51   2.0000      -0.479514       -13.0482
  52   2.0000      -0.467627       -12.7248
  53   2.0000      -0.464167       -12.6306
  54   2.0000      -0.455451       -12.3934
  55   2.0000      -0.453112       -12.3298
  56   2.0000      -0.449392       -12.2286
  57   2.0000      -0.445172       -12.1137
  58   2.0000      -0.434790       -11.8312
  59   2.0000      -0.425616       -11.5816
  60   2.0000      -0.424915       -11.5625
  61   2.0000      -0.413584       -11.2542
  62   2.0000      -0.405031       -11.0215
  63   2.0000      -0.346109        -9.4181
  64   2.0000      -0.331503        -9.0207
  65   2.0000      -0.322701        -8.7811
  66   2.0000      -0.296688        -8.0733
  67   0.0000       0.034163         0.9296
  68   0.0000       0.066572         1.8115
  69   0.0000       0.117506         3.1975
  70   0.0000       0.121262         3.2997
  71   0.0000       0.125447         3.4136

MULLIKEN ATOMIC CHARGES
-----------------------
   0 S :    0.090820
   1 C :   -0.074867
   2 C :   -0.118312
   3 C :    0.033249
   4 C :   -0.175574
   5 H :    0.020332
   6 C :    0.097795
   7 H :    0.016373
   8 H :    0.021106
   9 C :   -0.104252
  10 H :    0.036822
  11 H :    0.041195
  12 C :   -0.045783
  13 H :    0.032212
  14 H :    0.036329
  15 H :    0.036286
  16 S :    0.109114
  17 C :   -0.082545
  18 C :   -0.031847
  19 C :   -0.018952
  20 C :   -0.154168
  21 H :    0.024600
  22 C :    0.013915
  23 H :    0.039361
  24 H :    0.051831
  25 C :   -0.058404
  26 H :    0.016735
  27 H :    0.008889
  28 C :    0.015642
  29 H :    0.038928
  30 H :   -0.000654
  31 H :    0.016689
  32 H :    0.013187
  33 H :    0.053948
Sum of atomic charges:   -0.0000000

LOEWDIN ATOMIC CHARGES
----------------------
   0 S :    0.406330
   1 C :   -0.185609
   2 C :   -0.056110
   3 C :   -0.067410
   4 C :   -0.201390
   5 H :    0.034450
   6 C :   -0.021937
   7 H :    0.025057
   8 H :    0.024800
   9 C :   -0.040860
  10 H :    0.024159
  11 H :    0.029327
  12 C :   -0.068336
  13 H :    0.027548
  14 H :    0.025418
  15 H :    0.026262
  16 S :    0.406687
  17 C :   -0.181006
  18 C :   -0.073722
  19 C :   -0.049669
  20 C :   -0.201902
  21 H :    0.031035
  22 C :   -0.031969
  23 H :    0.032800
  24 H :    0.039379
  25 C :   -0.025094
  26 H :    0.021298
  27 H :    0.008838
  28 C :   -0.052614
  29 H :    0.035464
  30 H :    0.011075
  31 H :    0.016326
  32 H :    0.009246
  33 H :    0.022130

  Mayer bond orders larger than 0.100000
B(  0-S ,  1-C ) :   1.1192 B(  0-S ,  4-C ) :   1.1577 B(  1-C ,  2-C ) :   1.6305
B(  1-C , 32-H ) :   0.9823 B(  2-C ,  3-C ) :   1.1979 B(  2-C ,  6-C ) :   1.0251
B(  3-C ,  4-C ) :   1.5994 B(  3-C ,  5-H ) :   0.9906 B(  4-C , 20-C ) :   1.0387
B(  6-C ,  7-H ) :   0.9486 B(  6-C ,  8-H ) :   0.9370 B(  6-C ,  9-C ) :   1.0590
B(  9-C , 10-H ) :   0.9593 B(  9-C , 11-H ) :   0.9621 B(  9-C , 12-C ) :   1.0498
B( 12-C , 13-H ) :   0.9792 B( 12-C , 14-H ) :   0.9742 B( 12-C , 15-H ) :   0.9754
B( 16-S , 17-C ) :   1.1671 B( 16-S , 20-C ) :   1.1361 B( 17-C , 18-C ) :   1.6000
B( 17-C , 33-H ) :   0.9723 B( 18-C , 19-C ) :   1.2221 B( 18-C , 21-H ) :   0.9909
B( 19-C , 20-C ) :   1.6018 B( 19-C , 22-C ) :   1.0373 B( 22-C , 23-H ) :   0.9398
B( 22-C , 24-H ) :   0.9483 B( 22-C , 25-C ) :   1.0410 B( 25-C , 26-H ) :   0.9622
B( 25-C , 27-H ) :   0.9588 B( 25-C , 28-C ) :   1.0685 B( 28-C , 29-H ) :   0.9755
B( 28-C , 30-H ) :   0.9727 B( 28-C , 31-H ) :   0.9738

Dispersion correction           -0.014515381
FINAL SINGLE POINT ENERGY     -1339.866832364507

DIPOLE MOMENT
-------------
                                X             Y             Z
Electronic contribution:    -10.08282      20.26033      -9.06332
Nuclear contribution   :     10.24755     -20.70702       9.56410
                        -----------------------------------------
Total Dipole Moment    :      0.16473      -0.44669       0.50078
                        -----------------------------------------
Magnitude (a.u.)       :      0.69098
Magnitude (Debye)      :      1.75633

Rotational constants in cm-1:     0.017098     0.008968     0.007101
Rotational constants in MHz :   512.585303   268.868839   212.892645

                             ****ORCA TERMINATED NORMALLY****
TOTAL RUN TIME: 0 days 0 hours 0 minutes 21 seconds 513 msec
