                         Program Version 4.2.1 -  RELEASE  -
|  1> ! wB97X-D3 SP def2-SVP
|  2> %pal
|  3> nprocs 24
|  4> end
|  5>
|  6> * xyz 0 1
|  7> S 	 -144.211 	 9.15346 	 0.760074
|  8> C 	 -143.509 	 10.0525 	 -0.534941
|  9> C 	 -142.11 	 10.1478 	 -0.361972
| 10> C 	 -141.659 	 9.39581 	 0.734166
| 11> C 	 -142.656 	 8.83482 	 1.48077
| 12> H 	 -140.663 	 9.33953 	 0.987705
| 13> C 	 -141.099 	 10.883 	 -1.26285
| 14> H 	 -141.64 	 11.6257 	 -1.98039
| 15> H 	 -140.842 	 10.0999 	 -2.01597
| 16> C 	 -140.004 	 11.7254 	 -0.565293
| 17> H 	 -140.391 	 12.4722 	 0.0845829
| 18> H 	 -139.443 	 11.1543 	 0.225792
| 19> C 	 -138.914 	 12.2392 	 -1.61232
| 20> H 	 -138.722 	 11.4785 	 -2.3484
| 21> H 	 -139.305 	 13.1051 	 -2.12847
| 22> H 	 -137.982 	 12.5899 	 -1.16685
| 23> S 	 -141.953 	 9.02278 	 4.13403
| 24> C 	 -141.868 	 7.52319 	 5.06727
| 25> C 	 -142.14 	 6.43662 	 4.32938
| 26> C 	 -142.422 	 6.75435 	 2.97966
| 27> C 	 -142.368 	 8.09989 	 2.69676
| 28> H 	 -141.987 	 5.43447 	 4.66592
| 29> C 	 -142.807 	 5.73776 	 1.93518
| 30> H 	 -143.411 	 6.2385 	 1.20436
| 31> H 	 -143.271 	 4.85634 	 2.35152
| 32> C 	 -141.609 	 5.30129 	 1.25676
| 33> H 	 -140.98 	 4.76442 	 1.98117
| 34> H 	 -141.005 	 6.05407 	 0.79973
| 35> C 	 -141.969 	 4.37091 	 0.0835744
| 36> H 	 -142.68 	 4.8878 	 -0.597969
| 37> H 	 -142.521 	 3.47887 	 0.355482
| 38> H 	 -141.16 	 4.05861 	 -0.54507
| 39> H 	 -143.946 	 10.5923 	 -1.28452
| 40> H 	 -141.523 	 7.4957 	 6.08363
| 41> *
| 42>
| 43>                          ****END OF INPUT****

CARTESIAN COORDINATES (ANGSTROEM)
---------------------------------
  S    -144.211000    9.153460    0.760074
  C    -143.509000   10.052500   -0.534941
  C    -142.110000   10.147800   -0.361972
  C    -141.659000    9.395810    0.734166
  C    -142.656000    8.834820    1.480770
  H    -140.663000    9.339530    0.987705
  C    -141.099000   10.883000   -1.262850
  H    -141.640000   11.625700   -1.980390
  H    -140.842000   10.099900   -2.015970
  C    -140.004000   11.725400   -0.565293
  H    -140.391000   12.472200    0.084583
  H    -139.443000   11.154300    0.225792
  C    -138.914000   12.239200   -1.612320
  H    -138.722000   11.478500   -2.348400
  H    -139.305000   13.105100   -2.128470
  H    -137.982000   12.589900   -1.166850
  S    -141.953000    9.022780    4.134030
  C    -141.868000    7.523190    5.067270
  C    -142.140000    6.436620    4.329380
  C    -142.422000    6.754350    2.979660
  C    -142.368000    8.099890    2.696760
  H    -141.987000    5.434470    4.665920
  C    -142.807000    5.737760    1.935180
  H    -143.411000    6.238500    1.204360
  H    -143.271000    4.856340    2.351520
  C    -141.609000    5.301290    1.256760
  H    -140.980000    4.764420    1.981170
  H    -141.005000    6.054070    0.799730
  C    -141.969000    4.370910    0.083574
  H    -142.680000    4.887800   -0.597969
  H    -142.521000    3.478870    0.355482
  H    -141.160000    4.058610   -0.545070
  H    -143.946000   10.592300   -1.284520
  H    -141.523000    7.495700    6.083630

 Total Charge           Charge          ....    0
 Multiplicity           Mult            ....    1
 Number of Electrons    NEL             ....  134
 Basis Dimension        Dim             ....  322

ORBITAL ENERGIES
----------------

  NO   OCC          E(Eh)            E(eV)
   0   2.0000     -88.972376     -2421.0614
   1   2.0000     -88.962620     -2420.7960
   2   2.0000     -10.324411      -280.9415
   3   2.0000     -10.319996      -280.8214
   4   2.0000     -10.313821      -280.6533
   5   2.0000     -10.308846      -280.5180
   6   2.0000     -10.307358      -280.4775
   7   2.0000     -10.300523      -280.2915
   8   2.0000     -10.297230      -280.2019
   9   2.0000     -10.295802      -280.1630
  10   2.0000     -10.287275      -279.9310
  11   2.0000     -10.282178      -279.7923
  12   2.0000     -10.282159      -279.7918
  13   2.0000     -10.277684      -279.6700
  14   2.0000     -10.274346      -279.5792
  15   2.0000     -10.270445      -279.4730
  16   2.0000      -8.086579      -220.0470
  17   2.0000      -8.077189      -219.7915
  18   2.0000      -6.045061      -164.4945
  19   2.0000      -6.040988      -164.3836
  20   2.0000      -6.037577      -164.2908
  21   2.0000      -6.035746      -164.2410
  22   2.0000      -6.031791      -164.1334
  23   2.0000      -6.027846      -164.0260
  24   2.0000      -1.010123       -27.4868
  25   2.0000      -0.988099       -26.8875
  26   2.0000      -0.923236       -25.1225
  27   2.0000      -0.902824       -24.5671
  28   2.0000      -0.873796       -23.7772
  29   2.0000      -0.849957       -23.1285
  30   2.0000      -0.845682       -23.0122
  31   2.0000      -0.816794       -22.2261
  32   2.0000      -0.779846       -21.2207
  33   2.0000      -0.769809       -20.9476
  34   2.0000      -0.714049       -19.4303
  35   2.0000      -0.703709       -19.1489
  36   2.0000      -0.692938       -18.8558
  37   2.0000      -0.668332       -18.1862
  38   2.0000      -0.644309       -17.5325
  39   2.0000      -0.622936       -16.9510
  40   2.0000      -0.603069       -16.4103
  41   2.0000      -0.578900       -15.7527
  42   2.0000      -0.569510       -15.4972
  43   2.0000      -0.548703       -14.9310
  44   2.0000      -0.532569       -14.4919
  45   2.0000      -0.521298       -14.1852
  46   2.0000      -0.515703       -14.0330
  47   2.0000      -0.511871       -13.9287
  48   2.0000      -0.504234       -13.7209
  49   2.0000      -0.495901       -13.4941
  50   2.0000      -0.494299       -13.4506
  51   2.0000      -0.483759       -13.1638
  52   2.0000      -0.466991       -12.7075
  53   2.0000      -0.463887       -12.6230
  54   2.0000      -0.458097       -12.4655
  55   2.0000      -0.454604       -12.3704
  56   2.0000      -0.449748       -12.2383
  57   2.0000      -0.443774       -12.0757
  58   2.0000      -0.440725       -11.9927
  59   2.0000      -0.420105       -11.4316
  60   2.0000      -0.418219       -11.3803
  61   2.0000      -0.414000       -11.2655
  62   2.0000      -0.407048       -11.0764
  63   2.0000      -0.338014        -9.1978
  64   2.0000      -0.337159        -9.1746
  65   2.0000      -0.321182        -8.7398
  66   2.0000      -0.304320        -8.2810
  67   0.0000       0.042323         1.1517
  68   0.0000       0.059617         1.6223
  69   0.0000       0.115643         3.1468
  70   0.0000       0.126577         3.4443
  71   0.0000       0.132798         3.6136

MULLIKEN ATOMIC CHARGES
-----------------------
   0 S :    0.144098
   1 C :   -0.076798
   2 C :   -0.087776
   3 C :    0.054240
   4 C :   -0.157500
   5 H :   -0.020173
   6 C :    0.016290
   7 H :    0.026619
   8 H :    0.055129
   9 C :   -0.080948
  10 H :    0.032073
  11 H :    0.032438
  12 C :   -0.043308
  13 H :    0.033449
  14 H :    0.029809
  15 H :    0.037506
  16 S :    0.104130
  17 C :   -0.084283
  18 C :   -0.002724
  19 C :   -0.041719
  20 C :   -0.192659
  21 H :    0.008544
  22 C :    0.143081
  23 H :    0.003911
  24 H :    0.015635
  25 C :   -0.080768
  26 H :    0.017765
  27 H :    0.025592
  28 C :   -0.031593
  29 H :    0.020940
  30 H :    0.015865
  31 H :    0.027334
  32 H :    0.004820
  33 H :    0.050982
Sum of atomic charges:   -0.0000000

LOEWDIN ATOMIC CHARGES
----------------------
   0 S :    0.433904
   1 C :   -0.200009
   2 C :   -0.060303
   3 C :   -0.052057
   4 C :   -0.204750
   5 H :    0.017758
   6 C :   -0.045268
   7 H :    0.035786
   8 H :    0.041011
   9 C :   -0.042933
  10 H :    0.024535
  11 H :    0.025433
  12 C :   -0.060792
  13 H :    0.024452
  14 H :    0.023505
  15 H :    0.027747
  16 S :    0.392480
  17 C :   -0.167174
  18 C :   -0.071120
  19 C :   -0.045605
  20 C :   -0.199180
  21 H :    0.030378
  22 C :   -0.026017
  23 H :    0.022757
  24 H :    0.030852
  25 C :   -0.037127
  26 H :    0.021826
  27 H :    0.022826
  28 C :   -0.066980
  29 H :    0.026951
  30 H :    0.019065
  31 H :    0.020629
  32 H :    0.010930
  33 H :    0.026492

  Mayer bond orders larger than 0.100000
B(  0-S ,  1-C ) :   1.1531 B(  0-S ,  4-C ) :   1.1498 B(  1-C ,  2-C ) :   1.5787
B(  1-C , 32-H ) :   0.9767 B(  2-C ,  3-C ) :   1.2734 B(  2-C ,  6-C ) :   1.0116
B(  3-C ,  4-C ) :   1.5473 B(  3-C ,  5-H ) :   1.0065 B(  4-C , 20-C ) :   1.0260
B(  6-C ,  7-H ) :   0.9451 B(  6-C ,  8-H ) :   0.9437 B(  6-C ,  9-C ) :   1.0393
B(  9-C , 10-H ) :   0.9594 B(  9-C , 11-H ) :   0.9594 B(  9-C , 12-C ) :   1.0632
B( 12-C , 13-H ) :   0.9791 B( 12-C , 14-H ) :   0.9788 B( 12-C , 15-H ) :   0.9778
B( 16-S , 17-C ) :   1.1488 B( 16-S , 20-C ) :   1.1296 B( 17-C , 18-C ) :   1.6203
B( 17-C , 33-H ) :   0.9655 B( 18-C , 19-C ) :   1.2395 B( 18-C , 21-H ) :   0.9911
B( 19-C , 20-C ) :   1.6244 B( 19-C , 22-C ) :   1.0480 B( 22-C , 23-H ) :   0.9149
B( 22-C , 24-H ) :   0.9293 B( 22-C , 25-C ) :   1.0818 B( 25-C , 26-H ) :   0.9505
B( 25-C , 27-H ) :   0.9532 B( 25-C , 28-C ) :   1.0846 B( 28-C , 29-H ) :   0.9713
B( 28-C , 30-H ) :   0.9707 B( 28-C , 31-H ) :   0.9747

Dispersion correction           -0.014365624
FINAL SINGLE POINT ENERGY     -1339.870755340094

DIPOLE MOMENT
-------------
                                X             Y             Z
Electronic contribution:    -14.63051       4.10153      17.70105
Nuclear contribution   :     15.05741      -4.20923     -17.97636
                        -----------------------------------------
Total Dipole Moment    :      0.42689      -0.10771      -0.27531
                        -----------------------------------------
Magnitude (a.u.)       :      0.51926
Magnitude (Debye)      :      1.31987

Rotational constants in cm-1:     0.017565     0.008290     0.007407
Rotational constants in MHz :   526.576960   248.517558   222.059389

                             ****ORCA TERMINATED NORMALLY****
TOTAL RUN TIME: 0 days 0 hours 0 minutes 20 seconds 502 msec
