                         Program Version 4.2.1 -  RELEASE  -
|  1> ! wB97X-D3 SP def2-SVP
|  2> %pal
|  3> nprocs 24
|  4> end
|  5>
|  6> * xyz 0 1
|  7> S 	 -37.4448 	 -9.79823 	 21.098
|  8> C 	 -36.0463 	 -10.0671 	 22.1975
|  9> C 	 -35.4641 	 -11.3055 	 21.9466
| 10> C 	 -35.9833 	 -11.9295 	 20.7588
| 11> C 	 -36.9836 	 -11.2129 	 20.0937
| 12> H 	 -35.6237 	 -12.8648 	 20.3715
| 13> C 	 -34.195 	 -11.8145 	 22.6406
| 14> H 	 -34.6155 	 -12.5274 	 23.3283
| 15> H 	 -33.7618 	 -11.0517 	 23.2273
| 16> C 	 -33.1176 	 -12.3816 	 21.654
| 17> H 	 -32.2928 	 -12.7488 	 22.2602
| 18> H 	 -33.5831 	 -13.1954 	 21.1016
| 19> C 	 -32.5619 	 -11.4182 	 20.6789
| 20> H 	 -31.7847 	 -11.8012 	 20.088
| 21> H 	 -33.3467 	 -11.1406 	 19.9238
| 22> H 	 -32.1402 	 -10.5234 	 21.1321
| 23> S 	 -39.5519 	 -11.3727 	 19.0365
| 24> C 	 -39.7835 	 -12.0369 	 17.4877
| 25> C 	 -38.6214 	 -12.4719 	 16.934
| 26> C 	 -37.4394 	 -12.1644 	 17.7033
| 27> C 	 -37.8213 	 -11.6074 	 18.9315
| 28> H 	 -38.6031 	 -12.8299 	 15.9213
| 29> C 	 -36.0297 	 -12.5876 	 17.2618
| 30> H 	 -36.1344 	 -13.2874 	 16.4181
| 31> H 	 -35.6014 	 -13.1795 	 18.0705
| 32> C 	 -34.969 	 -11.4423 	 16.9802
| 33> H 	 -35.1731 	 -10.5725 	 17.6341
| 34> H 	 -35.2468 	 -11.0364 	 16.0277
| 35> C 	 -33.4923 	 -11.8575 	 16.9621
| 36> H 	 -32.8777 	 -11.0009 	 16.8642
| 37> H 	 -33.355 	 -12.5478 	 16.1084
| 38> H 	 -33.1652 	 -12.4089 	 17.8536
| 39> H 	 -35.6963 	 -9.46337 	 22.9488
| 40> H 	 -40.7403 	 -12.22 	 17.028
| 41> *
| 42>
| 43>                          ****END OF INPUT****

CARTESIAN COORDINATES (ANGSTROEM)
---------------------------------
  S    -37.444800   -9.798230   21.098000
  C    -36.046300  -10.067100   22.197500
  C    -35.464100  -11.305500   21.946600
  C    -35.983300  -11.929500   20.758800
  C    -36.983600  -11.212900   20.093700
  H    -35.623700  -12.864800   20.371500
  C    -34.195000  -11.814500   22.640600
  H    -34.615500  -12.527400   23.328300
  H    -33.761800  -11.051700   23.227300
  C    -33.117600  -12.381600   21.654000
  H    -32.292800  -12.748800   22.260200
  H    -33.583100  -13.195400   21.101600
  C    -32.561900  -11.418200   20.678900
  H    -31.784700  -11.801200   20.088000
  H    -33.346700  -11.140600   19.923800
  H    -32.140200  -10.523400   21.132100
  S    -39.551900  -11.372700   19.036500
  C    -39.783500  -12.036900   17.487700
  C    -38.621400  -12.471900   16.934000
  C    -37.439400  -12.164400   17.703300
  C    -37.821300  -11.607400   18.931500
  H    -38.603100  -12.829900   15.921300
  C    -36.029700  -12.587600   17.261800
  H    -36.134400  -13.287400   16.418100
  H    -35.601400  -13.179500   18.070500
  C    -34.969000  -11.442300   16.980200
  H    -35.173100  -10.572500   17.634100
  H    -35.246800  -11.036400   16.027700
  C    -33.492300  -11.857500   16.962100
  H    -32.877700  -11.000900   16.864200
  H    -33.355000  -12.547800   16.108400
  H    -33.165200  -12.408900   17.853600
  H    -35.696300   -9.463370   22.948800
  H    -40.740300  -12.220000   17.028000

 Total Charge           Charge          ....    0
 Multiplicity           Mult            ....    1
 Number of Electrons    NEL             ....  134
 Basis Dimension        Dim             ....  322

ORBITAL ENERGIES
----------------

  NO   OCC          E(Eh)            E(eV)
   0   2.0000     -88.967980     -2420.9418
   1   2.0000     -88.965222     -2420.8668
   2   2.0000     -10.338288      -281.3191
   3   2.0000     -10.330825      -281.1160
   4   2.0000     -10.312210      -280.6095
   5   2.0000     -10.311130      -280.5801
   6   2.0000     -10.307959      -280.4938
   7   2.0000     -10.302858      -280.3550
   8   2.0000     -10.299441      -280.2620
   9   2.0000     -10.297033      -280.1965
  10   2.0000     -10.291420      -280.0438
  11   2.0000     -10.290205      -280.0107
  12   2.0000     -10.288187      -279.9558
  13   2.0000     -10.287489      -279.9368
  14   2.0000     -10.280085      -279.7353
  15   2.0000     -10.271945      -279.5138
  16   2.0000      -8.083536      -219.9642
  17   2.0000      -8.078356      -219.8233
  18   2.0000      -6.041973      -164.4104
  19   2.0000      -6.037922      -164.3002
  20   2.0000      -6.037064      -164.2769
  21   2.0000      -6.034326      -164.2024
  22   2.0000      -6.033181      -164.1712
  23   2.0000      -6.028912      -164.0550
  24   2.0000      -1.005084       -27.3497
  25   2.0000      -0.978142       -26.6166
  26   2.0000      -0.912565       -24.8322
  27   2.0000      -0.901907       -24.5421
  28   2.0000      -0.868043       -23.6206
  29   2.0000      -0.853861       -23.2347
  30   2.0000      -0.840612       -22.8742
  31   2.0000      -0.817478       -22.2447
  32   2.0000      -0.785268       -21.3682
  33   2.0000      -0.775435       -21.1007
  34   2.0000      -0.710861       -19.3435
  35   2.0000      -0.700005       -19.0481
  36   2.0000      -0.692465       -18.8429
  37   2.0000      -0.659758       -17.9529
  38   2.0000      -0.638576       -17.3765
  39   2.0000      -0.625234       -17.0135
  40   2.0000      -0.597337       -16.2544
  41   2.0000      -0.567665       -15.4469
  42   2.0000      -0.557974       -15.1833
  43   2.0000      -0.556909       -15.1543
  44   2.0000      -0.537793       -14.6341
  45   2.0000      -0.526679       -14.3317
  46   2.0000      -0.517524       -14.0825
  47   2.0000      -0.508984       -13.8501
  48   2.0000      -0.506777       -13.7901
  49   2.0000      -0.498621       -13.5682
  50   2.0000      -0.492259       -13.3951
  51   2.0000      -0.482019       -13.1164
  52   2.0000      -0.476555       -12.9677
  53   2.0000      -0.468850       -12.7581
  54   2.0000      -0.456150       -12.4125
  55   2.0000      -0.450972       -12.2716
  56   2.0000      -0.446729       -12.1561
  57   2.0000      -0.436344       -11.8735
  58   2.0000      -0.434383       -11.8202
  59   2.0000      -0.430380       -11.7112
  60   2.0000      -0.424283       -11.5453
  61   2.0000      -0.414570       -11.2810
  62   2.0000      -0.405968       -11.0469
  63   2.0000      -0.351163        -9.5556
  64   2.0000      -0.332738        -9.0543
  65   2.0000      -0.327567        -8.9135
  66   2.0000      -0.287814        -7.8318
  67   0.0000       0.025265         0.6875
  68   0.0000       0.071650         1.9497
  69   0.0000       0.104617         2.8468
  70   0.0000       0.116716         3.1760
  71   0.0000       0.134952         3.6722

MULLIKEN ATOMIC CHARGES
-----------------------
   0 S :    0.081985
   1 C :   -0.082314
   2 C :   -0.111166
   3 C :    0.020757
   4 C :   -0.125842
   5 H :    0.003446
   6 C :    0.103439
   7 H :    0.040575
   8 H :    0.005879
   9 C :   -0.078680
  10 H :    0.031563
  11 H :    0.025147
  12 C :   -0.034866
  13 H :    0.021839
  14 H :    0.042344
  15 H :    0.024855
  16 S :    0.120661
  17 C :   -0.079081
  18 C :   -0.037502
  19 C :   -0.046305
  20 C :   -0.155082
  21 H :    0.014222
  22 C :    0.064423
  23 H :    0.023815
  24 H :    0.016405
  25 C :   -0.082867
  26 H :    0.044928
  27 H :    0.018849
  28 C :   -0.033016
  29 H :    0.035385
  30 H :    0.032678
  31 H :    0.027575
  32 H :    0.012147
  33 H :    0.053802
Sum of atomic charges:    0.0000000

LOEWDIN ATOMIC CHARGES
----------------------
   0 S :    0.360720
   1 C :   -0.171390
   2 C :   -0.056705
   3 C :   -0.065174
   4 C :   -0.169586
   5 H :    0.023794
   6 C :   -0.022700
   7 H :    0.035989
   8 H :    0.021391
   9 C :   -0.038017
  10 H :    0.026554
  11 H :    0.021369
  12 C :   -0.066034
  13 H :    0.019162
  14 H :    0.033286
  15 H :    0.025396
  16 S :    0.428776
  17 C :   -0.199500
  18 C :   -0.074062
  19 C :   -0.054643
  20 C :   -0.199851
  21 H :    0.028819
  22 C :   -0.030362
  23 H :    0.030716
  24 H :    0.026032
  25 C :   -0.041297
  26 H :    0.028989
  27 H :    0.020509
  28 C :   -0.062296
  29 H :    0.025522
  30 H :    0.029245
  31 H :    0.023149
  32 H :    0.011373
  33 H :    0.030824

  Mayer bond orders larger than 0.100000
B(  0-S ,  1-C ) :   1.1169 B(  0-S ,  4-C ) :   1.1301 B(  1-C ,  2-C ) :   1.6297
B(  1-C ,  4-C ) :   0.1002 B(  1-C , 32-H ) :   0.9768 B(  2-C ,  3-C ) :   1.2282
B(  2-C ,  6-C ) :   1.0057 B(  3-C ,  4-C ) :   1.5858 B(  3-C ,  5-H ) :   0.9884
B(  4-C , 20-C ) :   1.0435 B(  6-C ,  7-H ) :   0.9320 B(  6-C ,  8-H ) :   0.9470
B(  6-C ,  9-C ) :   1.0731 B(  9-C , 10-H ) :   0.9527 B(  9-C , 11-H ) :   0.9508
B(  9-C , 12-C ) :   1.0951 B( 12-C , 13-H ) :   0.9668 B( 12-C , 14-H ) :   0.9646
B( 12-C , 15-H ) :   0.9678 B( 16-S , 17-C ) :   1.1583 B( 16-S , 20-C ) :   1.1534
B( 17-C , 18-C ) :   1.6151 B( 17-C , 33-H ) :   0.9659 B( 18-C , 19-C ) :   1.2563
B( 18-C , 21-H ) :   0.9859 B( 19-C , 20-C ) :   1.5834 B( 19-C , 22-C ) :   1.0371
B( 22-C , 23-H ) :   0.9378 B( 22-C , 24-H ) :   0.9416 B( 22-C , 25-C ) :   1.0359
B( 25-C , 26-H ) :   0.9631 B( 25-C , 27-H ) :   0.9519 B( 25-C , 28-C ) :   1.0801
B( 28-C , 29-H ) :   0.9730 B( 28-C , 30-H ) :   0.9727 B( 28-C , 31-H ) :   0.9723

Dispersion correction           -0.016038691
FINAL SINGLE POINT ENERGY     -1339.883322432051

DIPOLE MOMENT
-------------
                                X             Y             Z
Electronic contribution:    -30.19154       7.39629       5.74912
Nuclear contribution   :     30.82161      -7.77345      -5.94075
                        -----------------------------------------
Total Dipole Moment    :      0.63007      -0.37716      -0.19164
                        -----------------------------------------
Magnitude (a.u.)       :      0.75892
Magnitude (Debye)      :      1.92902

Rotational constants in cm-1:     0.018019     0.010636     0.007384
Rotational constants in MHz :   540.196890   318.853666   221.354383

                             ****ORCA TERMINATED NORMALLY****
TOTAL RUN TIME: 0 days 0 hours 0 minutes 23 seconds 110 msec
