                         Program Version 4.2.1 -  RELEASE  -
|  1> ! wB97X-D3 SP def2-SVP
|  2> %pal
|  3> nprocs 24
|  4> end
|  5>
|  6> * xyz 0 1
|  7> S 	 -46.5079 	 12.0973 	 26.6521
|  8> C 	 -45.8126 	 12.9085 	 25.2231
|  9> C 	 -46.5936 	 12.7561 	 24.127
| 10> C 	 -47.7633 	 12.0236 	 24.4526
| 11> C 	 -47.9967 	 11.7495 	 25.792
| 12> H 	 -48.529 	 11.6968 	 23.7662
| 13> C 	 -46.4497 	 13.2171 	 22.73
| 14> H 	 -45.822 	 14.0879 	 22.6494
| 15> H 	 -47.3392 	 13.7992 	 22.5998
| 16> C 	 -46.1934 	 12.1478 	 21.673
| 17> H 	 -46.8695 	 11.3645 	 21.9357
| 18> H 	 -46.667 	 12.4178 	 20.6545
| 19> C 	 -44.6953 	 11.6459 	 21.7135
| 20> H 	 -43.9709 	 12.4385 	 21.3665
| 21> H 	 -44.3954 	 11.4438 	 22.7295
| 22> H 	 -44.5627 	 10.8555 	 20.9961
| 23> S 	 -48.9663 	 9.30974 	 26.4603
| 24> C 	 -50.6598 	 9.04589 	 26.7282
| 25> C 	 -51.2549 	 10.2779 	 26.927
| 26> C 	 -50.3907 	 11.3959 	 26.6149
| 27> C 	 -49.1123 	 11.03 	 26.3841
| 28> H 	 -52.2926 	 10.3842 	 27.1934
| 29> C 	 -51.0108 	 12.7717 	 26.5297
| 30> H 	 -52.0433 	 12.7481 	 26.7674
| 31> H 	 -50.9268 	 13.0305 	 25.4906
| 32> C 	 -50.3974 	 13.8229 	 27.5019
| 33> H 	 -51.0514 	 14.6471 	 27.5136
| 34> H 	 -49.4374 	 14.1644 	 27.1411
| 35> C 	 -50.4509 	 13.3199 	 28.9548
| 36> H 	 -51.4788 	 13.0023 	 29.2849
| 37> H 	 -50.0997 	 14.0527 	 29.7357
| 38> H 	 -49.7907 	 12.3791 	 29.0217
| 39> H 	 -44.7688 	 13.0922 	 25.1014
| 40> H 	 -51.2141 	 8.11587 	 26.8828
| 41> *
| 42>
| 43>                          ****END OF INPUT****

CARTESIAN COORDINATES (ANGSTROEM)
---------------------------------
  S    -46.507900   12.097300   26.652100
  C    -45.812600   12.908500   25.223100
  C    -46.593600   12.756100   24.127000
  C    -47.763300   12.023600   24.452600
  C    -47.996700   11.749500   25.792000
  H    -48.529000   11.696800   23.766200
  C    -46.449700   13.217100   22.730000
  H    -45.822000   14.087900   22.649400
  H    -47.339200   13.799200   22.599800
  C    -46.193400   12.147800   21.673000
  H    -46.869500   11.364500   21.935700
  H    -46.667000   12.417800   20.654500
  C    -44.695300   11.645900   21.713500
  H    -43.970900   12.438500   21.366500
  H    -44.395400   11.443800   22.729500
  H    -44.562700   10.855500   20.996100
  S    -48.966300    9.309740   26.460300
  C    -50.659800    9.045890   26.728200
  C    -51.254900   10.277900   26.927000
  C    -50.390700   11.395900   26.614900
  C    -49.112300   11.030000   26.384100
  H    -52.292600   10.384200   27.193400
  C    -51.010800   12.771700   26.529700
  H    -52.043300   12.748100   26.767400
  H    -50.926800   13.030500   25.490600
  C    -50.397400   13.822900   27.501900
  H    -51.051400   14.647100   27.513600
  H    -49.437400   14.164400   27.141100
  C    -50.450900   13.319900   28.954800
  H    -51.478800   13.002300   29.284900
  H    -50.099700   14.052700   29.735700
  H    -49.790700   12.379100   29.021700
  H    -44.768800   13.092200   25.101400
  H    -51.214100    8.115870   26.882800

 Total Charge           Charge          ....    0
 Multiplicity           Mult            ....    1
 Number of Electrons    NEL             ....  134
 Basis Dimension        Dim             ....  322

ORBITAL ENERGIES
----------------

  NO   OCC          E(Eh)            E(eV)
   0   2.0000     -88.963235     -2420.8127
   1   2.0000     -88.962569     -2420.7946
   2   2.0000     -10.329647      -281.0840
   3   2.0000     -10.320055      -280.8230
   4   2.0000     -10.319695      -280.8132
   5   2.0000     -10.311847      -280.5996
   6   2.0000     -10.299792      -280.2716
   7   2.0000     -10.297902      -280.2202
   8   2.0000     -10.297508      -280.2094
   9   2.0000     -10.291865      -280.0559
  10   2.0000     -10.290840      -280.0280
  11   2.0000     -10.286722      -279.9159
  12   2.0000     -10.285812      -279.8912
  13   2.0000     -10.285639      -279.8865
  14   2.0000     -10.284159      -279.8462
  15   2.0000     -10.279616      -279.7226
  16   2.0000      -8.078114      -219.8167
  17   2.0000      -8.077501      -219.8000
  18   2.0000      -6.036721      -164.2675
  19   2.0000      -6.036079      -164.2501
  20   2.0000      -6.032395      -164.1498
  21   2.0000      -6.032122      -164.1424
  22   2.0000      -6.028791      -164.0518
  23   2.0000      -6.028159      -164.0345
  24   2.0000      -1.011658       -27.5286
  25   2.0000      -0.988992       -26.9118
  26   2.0000      -0.916006       -24.9258
  27   2.0000      -0.907844       -24.7037
  28   2.0000      -0.870779       -23.6951
  29   2.0000      -0.843900       -22.9637
  30   2.0000      -0.841955       -22.9108
  31   2.0000      -0.813485       -22.1360
  32   2.0000      -0.786481       -21.4012
  33   2.0000      -0.774043       -21.0628
  34   2.0000      -0.714993       -19.4560
  35   2.0000      -0.705139       -19.1878
  36   2.0000      -0.689618       -18.7655
  37   2.0000      -0.666447       -18.1350
  38   2.0000      -0.643311       -17.5054
  39   2.0000      -0.621915       -16.9232
  40   2.0000      -0.589145       -16.0314
  41   2.0000      -0.574740       -15.6395
  42   2.0000      -0.558528       -15.1983
  43   2.0000      -0.556503       -15.1432
  44   2.0000      -0.543930       -14.8011
  45   2.0000      -0.522184       -14.2094
  46   2.0000      -0.514194       -13.9919
  47   2.0000      -0.512392       -13.9429
  48   2.0000      -0.507429       -13.8079
  49   2.0000      -0.493565       -13.4306
  50   2.0000      -0.486031       -13.2256
  51   2.0000      -0.477618       -12.9967
  52   2.0000      -0.471096       -12.8192
  53   2.0000      -0.469395       -12.7729
  54   2.0000      -0.463007       -12.5991
  55   2.0000      -0.449634       -12.2352
  56   2.0000      -0.441485       -12.0134
  57   2.0000      -0.431614       -11.7448
  58   2.0000      -0.428688       -11.6652
  59   2.0000      -0.422211       -11.4890
  60   2.0000      -0.418964       -11.4006
  61   2.0000      -0.414331       -11.2745
  62   2.0000      -0.407611       -11.0917
  63   2.0000      -0.334584        -9.1045
  64   2.0000      -0.327613        -8.9148
  65   2.0000      -0.323169        -8.7939
  66   2.0000      -0.314312        -8.5529
  67   0.0000       0.042887         1.1670
  68   0.0000       0.052887         1.4391
  69   0.0000       0.115941         3.1549
  70   0.0000       0.123437         3.3589
  71   0.0000       0.130132         3.5411

MULLIKEN ATOMIC CHARGES
-----------------------
   0 S :    0.091485
   1 C :   -0.100230
   2 C :   -0.094273
   3 C :    0.034066
   4 C :   -0.180437
   5 H :    0.009953
   6 C :    0.074746
   7 H :    0.002582
   8 H :    0.020387
   9 C :   -0.055622
  10 H :    0.017672
  11 H :    0.038356
  12 C :   -0.040882
  13 H :    0.032044
  14 H :    0.039000
  15 H :    0.039923
  16 S :    0.114551
  17 C :   -0.088455
  18 C :   -0.040696
  19 C :   -0.074423
  20 C :   -0.152845
  21 H :    0.014924
  22 C :    0.115691
  23 H :   -0.000292
  24 H :    0.030993
  25 C :   -0.028975
  26 H :    0.014801
  27 H :    0.039762
  28 C :   -0.116514
  29 H :    0.029793
  30 H :    0.048841
  31 H :    0.053699
  32 H :    0.045264
  33 H :    0.065110
Sum of atomic charges:   -0.0000000

LOEWDIN ATOMIC CHARGES
----------------------
   0 S :    0.385548
   1 C :   -0.184347
   2 C :   -0.066138
   3 C :   -0.055508
   4 C :   -0.195784
   5 H :    0.027632
   6 C :   -0.042146
   7 H :    0.027214
   8 H :    0.037533
   9 C :   -0.041520
  10 H :    0.019625
  11 H :    0.035645
  12 C :   -0.061209
  13 H :    0.030793
  14 H :    0.026201
  15 H :    0.025462
  16 S :    0.424384
  17 C :   -0.189355
  18 C :   -0.074602
  19 C :   -0.050384
  20 C :   -0.221259
  21 H :    0.026585
  22 C :   -0.022047
  23 H :    0.023248
  24 H :    0.033399
  25 C :   -0.033692
  26 H :    0.017598
  27 H :    0.023904
  28 C :   -0.079077
  29 H :    0.025285
  30 H :    0.030696
  31 H :    0.032590
  32 H :    0.025382
  33 H :    0.038345

  Mayer bond orders larger than 0.100000
B(  0-S ,  1-C ) :   1.1300 B(  0-S ,  4-C ) :   1.1373 B(  1-C ,  2-C ) :   1.6309
B(  1-C , 32-H ) :   0.9616 B(  2-C ,  3-C ) :   1.2298 B(  2-C ,  6-C ) :   1.0141
B(  3-C ,  4-C ) :   1.6067 B(  3-C ,  5-H ) :   0.9917 B(  4-C , 20-C ) :   1.0052
B(  6-C ,  7-H ) :   0.9371 B(  6-C ,  8-H ) :   0.9276 B(  6-C ,  9-C ) :   1.0601
B(  9-C , 10-H ) :   0.9565 B(  9-C , 11-H ) :   0.9542 B(  9-C , 12-C ) :   1.0565
B( 12-C , 13-H ) :   0.9768 B( 12-C , 14-H ) :   0.9767 B( 12-C , 15-H ) :   0.9763
B( 16-S , 17-C ) :   1.1656 B( 16-S , 20-C ) :   1.1380 B( 17-C , 18-C ) :   1.6041
B( 17-C , 33-H ) :   0.9656 B( 18-C , 19-C ) :   1.2443 B( 18-C , 21-H ) :   0.9873
B( 19-C , 20-C ) :   1.6238 B( 19-C , 22-C ) :   1.0401 B( 22-C , 23-H ) :   0.9309
B( 22-C , 24-H ) :   0.9274 B( 22-C , 25-C ) :   1.0780 B( 25-C , 26-H ) :   0.9565
B( 25-C , 27-H ) :   0.9569 B( 25-C , 28-C ) :   1.0649 B( 28-C , 29-H ) :   0.9742
B( 28-C , 30-H ) :   0.9751 B( 28-C , 31-H ) :   0.9701

Dispersion correction           -0.015347300
FINAL SINGLE POINT ENERGY     -1339.862123731467

DIPOLE MOMENT
-------------
                                X             Y             Z
Electronic contribution:      1.58664     -12.10614       9.84735
Nuclear contribution   :     -1.99292      12.29101     -10.39326
                        -----------------------------------------
Total Dipole Moment    :     -0.40629       0.18487      -0.54591
                        -----------------------------------------
Magnitude (a.u.)       :      0.70517
Magnitude (Debye)      :      1.79239

Rotational constants in cm-1:     0.021911     0.008257     0.007376
Rotational constants in MHz :   656.889696   247.532897   221.130335

                             ****ORCA TERMINATED NORMALLY****
TOTAL RUN TIME: 0 days 0 hours 0 minutes 22 seconds 299 msec
