                         Program Version 4.2.1 -  RELEASE  -
|  1> ! wB97X-D3 SP def2-SVP
|  2> %pal
|  3> nprocs 24
|  4> end
|  5>
|  6> * xyz 0 1
|  7> S 	 -33.647 	 5.21731 	 16.1121
|  8> C 	 -33.6948 	 6.94304 	 15.9966
|  9> C 	 -34.9093 	 7.4831 	 16.3911
| 10> C 	 -35.7912 	 6.42674 	 16.7381
| 11> C 	 -35.3436 	 5.15107 	 16.4933
| 12> H 	 -36.8101 	 6.4883 	 17.1087
| 13> C 	 -35.0999 	 8.98456 	 16.6637
| 14> H 	 -34.295 	 9.39955 	 17.3099
| 15> H 	 -35.9571 	 9.13444 	 17.2218
| 16> C 	 -35.0932 	 9.80863 	 15.3281
| 17> H 	 -35.3273 	 10.8152 	 15.6614
| 18> H 	 -34.0471 	 9.83023 	 14.9805
| 19> C 	 -36.0156 	 9.22123 	 14.1705
| 20> H 	 -37.0556 	 9.11181 	 14.5546
| 21> H 	 -36.0416 	 10.0168 	 13.4409
| 22> H 	 -35.6569 	 8.28185 	 13.8214
| 23> S 	 -36.7497 	 3.67449 	 18.4563
| 24> C 	 -37.5995 	 2.28114 	 17.9249
| 25> C 	 -37.3216 	 1.93158 	 16.5759
| 26> C 	 -36.3772 	 2.85489 	 16.012
| 27> C 	 -36.0461 	 3.8995 	 16.8424
| 28> H 	 -37.9223 	 1.0702 	 16.1463
| 29> C 	 -35.9981 	 2.7847 	 14.5173
| 30> H 	 -36.4028 	 1.88043 	 14.0625
| 31> H 	 -34.913 	 2.65197 	 14.4574
| 32> C 	 -36.3176 	 3.93894 	 13.6187
| 33> H 	 -36.0425 	 4.90244 	 14.1197
| 34> H 	 -37.3737 	 3.9473 	 13.5107
| 35> C 	 -35.7199 	 3.84833 	 12.2241
| 36> H 	 -34.632 	 4.14867 	 12.2427
| 37> H 	 -36.3632 	 4.48268 	 11.5851
| 38> H 	 -35.7431 	 2.92858 	 11.673
| 39> H 	 -32.8595 	 7.58848 	 15.787
| 40> H 	 -38.0891 	 1.63752 	 18.6157
| 41> *
| 42>
| 43>                          ****END OF INPUT****

CARTESIAN COORDINATES (ANGSTROEM)
---------------------------------
  S    -33.647000    5.217310   16.112100
  C    -33.694800    6.943040   15.996600
  C    -34.909300    7.483100   16.391100
  C    -35.791200    6.426740   16.738100
  C    -35.343600    5.151070   16.493300
  H    -36.810100    6.488300   17.108700
  C    -35.099900    8.984560   16.663700
  H    -34.295000    9.399550   17.309900
  H    -35.957100    9.134440   17.221800
  C    -35.093200    9.808630   15.328100
  H    -35.327300   10.815200   15.661400
  H    -34.047100    9.830230   14.980500
  C    -36.015600    9.221230   14.170500
  H    -37.055600    9.111810   14.554600
  H    -36.041600   10.016800   13.440900
  H    -35.656900    8.281850   13.821400
  S    -36.749700    3.674490   18.456300
  C    -37.599500    2.281140   17.924900
  C    -37.321600    1.931580   16.575900
  C    -36.377200    2.854890   16.012000
  C    -36.046100    3.899500   16.842400
  H    -37.922300    1.070200   16.146300
  C    -35.998100    2.784700   14.517300
  H    -36.402800    1.880430   14.062500
  H    -34.913000    2.651970   14.457400
  C    -36.317600    3.938940   13.618700
  H    -36.042500    4.902440   14.119700
  H    -37.373700    3.947300   13.510700
  C    -35.719900    3.848330   12.224100
  H    -34.632000    4.148670   12.242700
  H    -36.363200    4.482680   11.585100
  H    -35.743100    2.928580   11.673000
  H    -32.859500    7.588480   15.787000
  H    -38.089100    1.637520   18.615700

 Total Charge           Charge          ....    0
 Multiplicity           Mult            ....    1
 Number of Electrons    NEL             ....  134
 Basis Dimension        Dim             ....  322

ORBITAL ENERGIES
----------------

  NO   OCC          E(Eh)            E(eV)
   0   2.0000     -88.968971     -2420.9688
   1   2.0000     -88.968214     -2420.9482
   2   2.0000     -10.326797      -281.0064
   3   2.0000     -10.326667      -281.0029
   4   2.0000     -10.317270      -280.7472
   5   2.0000     -10.311584      -280.5925
   6   2.0000     -10.306400      -280.4514
   7   2.0000     -10.304272      -280.3935
   8   2.0000     -10.300918      -280.3022
   9   2.0000     -10.292260      -280.0666
  10   2.0000     -10.291855      -280.0556
  11   2.0000     -10.291777      -280.0535
  12   2.0000     -10.285173      -279.8738
  13   2.0000     -10.279597      -279.7221
  14   2.0000     -10.276197      -279.6295
  15   2.0000     -10.275422      -279.6085
  16   2.0000      -8.083613      -219.9663
  17   2.0000      -8.082987      -219.9493
  18   2.0000      -6.041967      -164.4103
  19   2.0000      -6.041393      -164.3947
  20   2.0000      -6.038049      -164.3037
  21   2.0000      -6.037532      -164.2896
  22   2.0000      -6.034634      -164.2108
  23   2.0000      -6.033818      -164.1885
  24   2.0000      -1.007845       -27.4248
  25   2.0000      -0.985786       -26.8246
  26   2.0000      -0.909378       -24.7454
  27   2.0000      -0.903908       -24.5966
  28   2.0000      -0.863039       -23.4845
  29   2.0000      -0.850752       -23.1502
  30   2.0000      -0.842947       -22.9378
  31   2.0000      -0.809414       -22.0253
  32   2.0000      -0.784614       -21.3504
  33   2.0000      -0.774023       -21.0622
  34   2.0000      -0.703166       -19.1341
  35   2.0000      -0.701495       -19.0887
  36   2.0000      -0.685272       -18.6472
  37   2.0000      -0.662811       -18.0360
  38   2.0000      -0.639455       -17.4005
  39   2.0000      -0.609941       -16.5973
  40   2.0000      -0.592192       -16.1144
  41   2.0000      -0.575319       -15.6552
  42   2.0000      -0.566374       -15.4118
  43   2.0000      -0.541850       -14.7445
  44   2.0000      -0.540194       -14.6994
  45   2.0000      -0.520900       -14.1744
  46   2.0000      -0.510913       -13.9027
  47   2.0000      -0.506861       -13.7924
  48   2.0000      -0.505095       -13.7443
  49   2.0000      -0.495236       -13.4761
  50   2.0000      -0.491513       -13.3748
  51   2.0000      -0.477105       -12.9827
  52   2.0000      -0.474750       -12.9186
  53   2.0000      -0.466133       -12.6841
  54   2.0000      -0.461094       -12.5470
  55   2.0000      -0.446226       -12.1424
  56   2.0000      -0.441116       -12.0034
  57   2.0000      -0.430729       -11.7207
  58   2.0000      -0.428964       -11.6727
  59   2.0000      -0.425711       -11.5842
  60   2.0000      -0.422446       -11.4953
  61   2.0000      -0.416600       -11.3363
  62   2.0000      -0.406845       -11.0708
  63   2.0000      -0.340481        -9.2649
  64   2.0000      -0.332306        -9.0425
  65   2.0000      -0.331552        -9.0220
  66   2.0000      -0.295233        -8.0337
  67   0.0000       0.032306         0.8791
  68   0.0000       0.062194         1.6924
  69   0.0000       0.105350         2.8667
  70   0.0000       0.125050         3.4028
  71   0.0000       0.126090         3.4311

MULLIKEN ATOMIC CHARGES
-----------------------
   0 S :    0.127399
   1 C :   -0.117644
   2 C :   -0.086921
   3 C :    0.001855
   4 C :   -0.187571
   5 H :    0.010738
   6 C :    0.090520
   7 H :    0.040480
   8 H :    0.000645
   9 C :   -0.107860
  10 H :    0.027907
  11 H :    0.029969
  12 C :   -0.034655
  13 H :    0.032961
  14 H :    0.036590
  15 H :    0.051970
  16 S :    0.126586
  17 C :   -0.105796
  18 C :   -0.068594
  19 C :   -0.007587
  20 C :   -0.156466
  21 H :    0.051869
  22 C :    0.076723
  23 H :    0.008915
  24 H :    0.019396
  25 C :   -0.067238
  26 H :    0.059390
  27 H :    0.014516
  28 C :   -0.060895
  29 H :    0.044726
  30 H :    0.031519
  31 H :    0.020290
  32 H :    0.042384
  33 H :    0.053880
Sum of atomic charges:   -0.0000000

LOEWDIN ATOMIC CHARGES
----------------------
   0 S :    0.424392
   1 C :   -0.198515
   2 C :   -0.064691
   3 C :   -0.066761
   4 C :   -0.203984
   5 H :    0.029164
   6 C :   -0.025918
   7 H :    0.037688
   8 H :    0.015643
   9 C :   -0.036584
  10 H :    0.020852
  11 H :    0.021039
  12 C :   -0.059025
  13 H :    0.028927
  14 H :    0.026304
  15 H :    0.023715
  16 S :    0.418713
  17 C :   -0.193020
  18 C :   -0.080178
  19 C :   -0.050494
  20 C :   -0.200752
  21 H :    0.047160
  22 C :   -0.035118
  23 H :    0.026934
  24 H :    0.028120
  25 C :   -0.045043
  26 H :    0.034071
  27 H :    0.017211
  28 C :   -0.070237
  29 H :    0.032699
  30 H :    0.031844
  31 H :    0.019430
  32 H :    0.024952
  33 H :    0.021463

  Mayer bond orders larger than 0.100000
B(  0-S ,  1-C ) :   1.1616 B(  0-S ,  4-C ) :   1.1538 B(  1-C ,  2-C ) :   1.5832
B(  1-C , 32-H ) :   0.9671 B(  2-C ,  3-C ) :   1.2527 B(  2-C ,  6-C ) :   1.0134
B(  3-C ,  4-C ) :   1.5736 B(  3-C ,  5-H ) :   0.9973 B(  4-C , 20-C ) :   1.0277
B(  6-C ,  7-H ) :   0.9484 B(  6-C ,  8-H ) :   0.9417 B(  6-C ,  9-C ) :   1.0606
B(  9-C , 10-H ) :   0.9608 B(  9-C , 11-H ) :   0.9606 B(  9-C , 12-C ) :   1.0647
B( 12-C , 13-H ) :   0.9799 B( 12-C , 14-H ) :   0.9755 B( 12-C , 15-H ) :   0.9705
B( 16-S , 17-C ) :   1.1849 B( 16-S , 20-C ) :   1.1342 B( 17-C , 18-C ) :   1.5858
B( 17-C , 33-H ) :   0.9673 B( 18-C , 19-C ) :   1.2562 B( 18-C , 21-H ) :   0.9833
B( 19-C , 20-C ) :   1.5847 B( 19-C , 22-C ) :   1.0320 B( 22-C , 23-H ) :   0.9368
B( 22-C , 24-H ) :   0.9285 B( 22-C , 25-C ) :   1.0696 B( 25-C , 26-H ) :   0.9461
B( 25-C , 27-H ) :   0.9543 B( 25-C , 28-C ) :   1.0824 B( 28-C , 29-H ) :   0.9728
B( 28-C , 30-H ) :   0.9738 B( 28-C , 31-H ) :   0.9744

Dispersion correction           -0.015453873
FINAL SINGLE POINT ENERGY     -1339.878392932442

DIPOLE MOMENT
-------------
                                X             Y             Z
Electronic contribution:      3.29032     -13.62704      20.70447
Nuclear contribution   :     -3.50969      13.87710     -20.86217
                        -----------------------------------------
Total Dipole Moment    :     -0.21937       0.25006      -0.15770
                        -----------------------------------------
Magnitude (a.u.)       :      0.36813
Magnitude (Debye)      :      0.93572

Rotational constants in cm-1:     0.019079     0.009229     0.007553
Rotational constants in MHz :   571.977878   276.682468   226.419642

                             ****ORCA TERMINATED NORMALLY****
TOTAL RUN TIME: 0 days 0 hours 0 minutes 22 seconds 303 msec
