                         Program Version 4.2.1 -  RELEASE  -
|  1> ! wB97X-D3 SP def2-SVP
|  2> %pal
|  3> nprocs 24
|  4> end
|  5>
|  6> * xyz 0 1
|  7> S 	 23.5469 	 -2.03661 	 -111.066
|  8> C 	 22.7952 	 -3.21037 	 -112.114
|  9> C 	 22.1821 	 -2.59054 	 -113.215
| 10> C 	 22.3327 	 -1.18028 	 -113.187
| 11> C 	 23.1247 	 -0.719014 	 -112.126
| 12> H 	 22.0052 	 -0.475779 	 -114.006
| 13> C 	 21.4115 	 -3.26896 	 -114.384
| 14> H 	 22.1833 	 -3.94596 	 -114.809
| 15> H 	 21.1786 	 -2.60377 	 -115.222
| 16> C 	 20.2394 	 -4.13278 	 -113.851
| 17> H 	 19.7697 	 -4.86068 	 -114.528
| 18> H 	 20.582 	 -4.72168 	 -113.025
| 19> C 	 19.1592 	 -3.26144 	 -113.281
| 20> H 	 18.3173 	 -3.77553 	 -112.792
| 21> H 	 19.6046 	 -2.59265 	 -112.529
| 22> H 	 18.7269 	 -2.53856 	 -114.019
| 23> S 	 23.7024 	 1.0815 	 -110.052
| 24> C 	 24.1919 	 2.63546 	 -110.383
| 25> C 	 24.3528 	 2.81904 	 -111.737
| 26> C 	 24.074 	 1.6665 	 -112.477
| 27> C 	 23.6264 	 0.607094 	 -111.723
| 28> H 	 24.5799 	 3.78324 	 -112.075
| 29> C 	 24.3261 	 1.62171 	 -113.952
| 30> H 	 24.0315 	 2.58711 	 -114.305
| 31> H 	 23.6964 	 0.966731 	 -114.544
| 32> C 	 25.7285 	 1.34296 	 -114.389
| 33> H 	 26.4522 	 2.09518 	 -114.066
| 34> H 	 25.7049 	 1.42719 	 -115.432
| 35> C 	 26.2099 	 -0.11793 	 -114.209
| 36> H 	 26.0036 	 -0.380514 	 -113.202
| 37> H 	 27.2829 	 -0.197249 	 -114.464
| 38> H 	 25.5871 	 -0.765749 	 -114.77
| 39> H 	 22.7885 	 -4.30427 	 -111.953
| 40> H 	 24.6103 	 3.33254 	 -109.615
| 41> *
| 42>
| 43>                          ****END OF INPUT****

CARTESIAN COORDINATES (ANGSTROEM)
---------------------------------
  S     23.546900   -2.036610  -111.066000
  C     22.795200   -3.210370  -112.114000
  C     22.182100   -2.590540  -113.215000
  C     22.332700   -1.180280  -113.187000
  C     23.124700   -0.719014  -112.126000
  H     22.005200   -0.475779  -114.006000
  C     21.411500   -3.268960  -114.384000
  H     22.183300   -3.945960  -114.809000
  H     21.178600   -2.603770  -115.222000
  C     20.239400   -4.132780  -113.851000
  H     19.769700   -4.860680  -114.528000
  H     20.582000   -4.721680  -113.025000
  C     19.159200   -3.261440  -113.281000
  H     18.317300   -3.775530  -112.792000
  H     19.604600   -2.592650  -112.529000
  H     18.726900   -2.538560  -114.019000
  S     23.702400    1.081500  -110.052000
  C     24.191900    2.635460  -110.383000
  C     24.352800    2.819040  -111.737000
  C     24.074000    1.666500  -112.477000
  C     23.626400    0.607094  -111.723000
  H     24.579900    3.783240  -112.075000
  C     24.326100    1.621710  -113.952000
  H     24.031500    2.587110  -114.305000
  H     23.696400    0.966731  -114.544000
  C     25.728500    1.342960  -114.389000
  H     26.452200    2.095180  -114.066000
  H     25.704900    1.427190  -115.432000
  C     26.209900   -0.117930  -114.209000
  H     26.003600   -0.380514  -113.202000
  H     27.282900   -0.197249  -114.464000
  H     25.587100   -0.765749  -114.770000
  H     22.788500   -4.304270  -111.953000
  H     24.610300    3.332540  -109.615000

 Total Charge           Charge          ....    0
 Multiplicity           Mult            ....    1
 Number of Electrons    NEL             ....  134
 Basis Dimension        Dim             ....  322

ORBITAL ENERGIES
----------------

  NO   OCC          E(Eh)            E(eV)
   0   2.0000     -88.970041     -2420.9979
   1   2.0000     -88.964482     -2420.8466
   2   2.0000     -10.335341      -281.2389
   3   2.0000     -10.324787      -280.9517
   4   2.0000     -10.319434      -280.8061
   5   2.0000     -10.313906      -280.6557
   6   2.0000     -10.308399      -280.5058
   7   2.0000     -10.302002      -280.3317
   8   2.0000     -10.301605      -280.3209
   9   2.0000     -10.296804      -280.1903
  10   2.0000     -10.285869      -279.8927
  11   2.0000     -10.285634      -279.8863
  12   2.0000     -10.282526      -279.8017
  13   2.0000     -10.274095      -279.5723
  14   2.0000     -10.273021      -279.5431
  15   2.0000     -10.265414      -279.3361
  16   2.0000      -8.084722      -219.9965
  17   2.0000      -8.081201      -219.9007
  18   2.0000      -6.043242      -164.4450
  19   2.0000      -6.039490      -164.3429
  20   2.0000      -6.039070      -164.3314
  21   2.0000      -6.035642      -164.2382
  22   2.0000      -6.035236      -164.2271
  23   2.0000      -6.032265      -164.1463
  24   2.0000      -1.017619       -27.6908
  25   2.0000      -0.991087       -26.9688
  26   2.0000      -0.917251       -24.9597
  27   2.0000      -0.912334       -24.8259
  28   2.0000      -0.868199       -23.6249
  29   2.0000      -0.854903       -23.2631
  30   2.0000      -0.845776       -23.0147
  31   2.0000      -0.811788       -22.0899
  32   2.0000      -0.786699       -21.4072
  33   2.0000      -0.773825       -21.0569
  34   2.0000      -0.704107       -19.1597
  35   2.0000      -0.701776       -19.0963
  36   2.0000      -0.691024       -18.8037
  37   2.0000      -0.663555       -18.0562
  38   2.0000      -0.635800       -17.3010
  39   2.0000      -0.620036       -16.8720
  40   2.0000      -0.601950       -16.3799
  41   2.0000      -0.576587       -15.6897
  42   2.0000      -0.554648       -15.0927
  43   2.0000      -0.552512       -15.0346
  44   2.0000      -0.548238       -14.9183
  45   2.0000      -0.535777       -14.5792
  46   2.0000      -0.516702       -14.0602
  47   2.0000      -0.508032       -13.8243
  48   2.0000      -0.502893       -13.6844
  49   2.0000      -0.498021       -13.5518
  50   2.0000      -0.488515       -13.2932
  51   2.0000      -0.478008       -13.0073
  52   2.0000      -0.471838       -12.8394
  53   2.0000      -0.467814       -12.7299
  54   2.0000      -0.465203       -12.6588
  55   2.0000      -0.447371       -12.1736
  56   2.0000      -0.443213       -12.0604
  57   2.0000      -0.436827       -11.8867
  58   2.0000      -0.430661       -11.7189
  59   2.0000      -0.425690       -11.5836
  60   2.0000      -0.422246       -11.4899
  61   2.0000      -0.415714       -11.3122
  62   2.0000      -0.401626       -10.9288
  63   2.0000      -0.353160        -9.6100
  64   2.0000      -0.335745        -9.1361
  65   2.0000      -0.332837        -9.0570
  66   2.0000      -0.287485        -7.8229
  67   0.0000       0.024289         0.6609
  68   0.0000       0.076685         2.0867
  69   0.0000       0.107579         2.9274
  70   0.0000       0.120311         3.2738
  71   0.0000       0.140270         3.8169

MULLIKEN ATOMIC CHARGES
-----------------------
   0 S :    0.113123
   1 C :   -0.129403
   2 C :   -0.123911
   3 C :    0.017919
   4 C :   -0.162838
   5 H :    0.037814
   6 C :    0.064349
   7 H :    0.041827
   8 H :    0.030500
   9 C :   -0.043240
  10 H :    0.032888
  11 H :    0.017013
  12 C :   -0.083685
  13 H :    0.038454
  14 H :    0.038737
  15 H :    0.024549
  16 S :    0.116643
  17 C :   -0.101655
  18 C :   -0.039198
  19 C :   -0.032229
  20 C :   -0.131664
  21 H :   -0.003588
  22 C :    0.092845
  23 H :    0.003800
  24 H :   -0.003193
  25 C :   -0.058100
  26 H :    0.023548
  27 H :    0.008318
  28 C :   -0.009819
  29 H :    0.022576
  30 H :    0.043253
  31 H :    0.011331
  32 H :    0.062563
  33 H :    0.080473
Sum of atomic charges:   -0.0000000

LOEWDIN ATOMIC CHARGES
----------------------
   0 S :    0.422169
   1 C :   -0.212767
   2 C :   -0.061535
   3 C :   -0.077360
   4 C :   -0.186972
   5 H :    0.040362
   6 C :   -0.027531
   7 H :    0.038937
   8 H :    0.030089
   9 C :   -0.043687
  10 H :    0.025056
  11 H :    0.021491
  12 C :   -0.074956
  13 H :    0.025938
  14 H :    0.027659
  15 H :    0.023986
  16 S :    0.446479
  17 C :   -0.217034
  18 C :   -0.071153
  19 C :   -0.058962
  20 C :   -0.215107
  21 H :    0.023205
  22 C :   -0.029936
  23 H :    0.028991
  24 H :    0.025711
  25 C :   -0.035812
  26 H :    0.021500
  27 H :    0.017380
  28 C :   -0.054276
  29 H :    0.018897
  30 H :    0.031769
  31 H :    0.018731
  32 H :    0.034251
  33 H :    0.044486

  Mayer bond orders larger than 0.100000
B(  0-S ,  1-C ) :   1.1486 B(  0-S ,  4-C ) :   1.1756 B(  1-C ,  2-C ) :   1.5872
B(  1-C ,  4-C ) :   0.1112 B(  1-C , 32-H ) :   0.9637 B(  2-C ,  3-C ) :   1.2662
B(  2-C ,  6-C ) :   0.9990 B(  3-C ,  4-C ) :   1.5467 B(  3-C ,  5-H ) :   0.9811
B(  4-C , 20-C ) :   1.0330 B(  6-C ,  7-H ) :   0.9385 B(  6-C ,  8-H ) :   0.9555
B(  6-C ,  9-C ) :   1.0608 B(  9-C , 10-H ) :   0.9578 B(  9-C , 11-H ) :   0.9546
B(  9-C , 12-C ) :   1.0751 B( 12-C , 13-H ) :   0.9737 B( 12-C , 14-H ) :   0.9733
B( 12-C , 15-H ) :   0.9739 B( 16-S , 17-C ) :   1.2011 B( 16-S , 20-C ) :   1.1511
B( 17-C , 18-C ) :   1.5550 B( 17-C , 33-H ) :   0.9571 B( 18-C , 19-C ) :   1.2821
B( 18-C , 21-H ) :   1.0070 B( 19-C , 20-C ) :   1.5582 B( 19-C , 22-C ) :   1.0476
B( 22-C , 23-H ) :   0.9161 B( 22-C , 24-H ) :   0.9305 B( 22-C , 25-C ) :   1.1007
B( 25-C , 26-H ) :   0.9535 B( 25-C , 27-H ) :   0.9487 B( 25-C , 28-C ) :   1.0718
B( 28-C , 29-H ) :   0.9786 B( 28-C , 30-H ) :   0.9731 B( 28-C , 31-H ) :   0.9706

Dispersion correction           -0.015320856
FINAL SINGLE POINT ENERGY     -1339.882201964409

DIPOLE MOMENT
-------------
                                X             Y             Z
Electronic contribution:      4.94383       6.47633      20.78857
Nuclear contribution   :     -4.92316      -6.39921     -21.32925
                        -----------------------------------------
Total Dipole Moment    :      0.02067       0.07711      -0.54068
                        -----------------------------------------
Magnitude (a.u.)       :      0.54654
Magnitude (Debye)      :      1.38920

Rotational constants in cm-1:     0.022073     0.008444     0.007350
Rotational constants in MHz :   661.741296   253.133154   220.335285

                             ****ORCA TERMINATED NORMALLY****
TOTAL RUN TIME: 0 days 0 hours 0 minutes 22 seconds 477 msec
