                         Program Version 4.2.1 -  RELEASE  -
|  1> ! wB97X-D3 SP def2-SVP
|  2> %pal
|  3> nprocs 24
|  4> end
|  5>
|  6> * xyz 0 1
|  7> S 	 -51.6807 	 14.8844 	 28.1647
|  8> C 	 -52.9255 	 13.6824 	 28.586
|  9> C 	 -52.415 	 12.6257 	 29.3258
| 10> C 	 -50.9722 	 12.6671 	 29.3802
| 11> C 	 -50.4391 	 13.8159 	 28.7813
| 12> H 	 -50.3242 	 11.9354 	 29.8021
| 13> C 	 -53.1636 	 11.4104 	 29.8723
| 14> H 	 -53.0443 	 10.5703 	 29.226
| 15> H 	 -54.1886 	 11.5794 	 29.6952
| 16> C 	 -52.9327 	 11.0284 	 31.39
| 17> H 	 -51.8725 	 10.793 	 31.4584
| 18> H 	 -53.1033 	 11.8519 	 32.0875
| 19> C 	 -53.7094 	 9.74635 	 31.756
| 20> H 	 -54.8087 	 9.85956 	 31.6436
| 21> H 	 -53.5047 	 8.86742 	 31.161
| 22> H 	 -53.4288 	 9.53628 	 32.7933
| 23> S 	 -48.2564 	 13.8466 	 30.4246
| 24> C 	 -46.7254 	 14.1935 	 29.8095
| 25> C 	 -46.7895 	 14.8571 	 28.6219
| 26> C 	 -48.1107 	 14.8522 	 28.083
| 27> C 	 -49.0045 	 14.2206 	 28.9187
| 28> H 	 -45.9042 	 15.1043 	 28.0888
| 29> C 	 -48.4668 	 15.5486 	 26.7601
| 30> H 	 -49.2559 	 14.9773 	 26.2882
| 31> H 	 -47.5742 	 15.4438 	 26.2306
| 32> C 	 -48.9062 	 16.9823 	 26.8936
| 33> H 	 -49.7691 	 16.9359 	 27.5197
| 34> H 	 -49.2297 	 17.389 	 25.9596
| 35> C 	 -47.9343 	 17.9564 	 27.5616
| 36> H 	 -48.2574 	 18.9185 	 27.5519
| 37> H 	 -46.9821 	 17.9197 	 27.0907
| 38> H 	 -47.839 	 17.5479 	 28.5745
| 39> H 	 -53.961 	 13.8158 	 28.3416
| 40> H 	 -45.8288 	 13.9771 	 30.4333
| 41> *
| 42>
| 43>                          ****END OF INPUT****

CARTESIAN COORDINATES (ANGSTROEM)
---------------------------------
  S    -51.680700   14.884400   28.164700
  C    -52.925500   13.682400   28.586000
  C    -52.415000   12.625700   29.325800
  C    -50.972200   12.667100   29.380200
  C    -50.439100   13.815900   28.781300
  H    -50.324200   11.935400   29.802100
  C    -53.163600   11.410400   29.872300
  H    -53.044300   10.570300   29.226000
  H    -54.188600   11.579400   29.695200
  C    -52.932700   11.028400   31.390000
  H    -51.872500   10.793000   31.458400
  H    -53.103300   11.851900   32.087500
  C    -53.709400    9.746350   31.756000
  H    -54.808700    9.859560   31.643600
  H    -53.504700    8.867420   31.161000
  H    -53.428800    9.536280   32.793300
  S    -48.256400   13.846600   30.424600
  C    -46.725400   14.193500   29.809500
  C    -46.789500   14.857100   28.621900
  C    -48.110700   14.852200   28.083000
  C    -49.004500   14.220600   28.918700
  H    -45.904200   15.104300   28.088800
  C    -48.466800   15.548600   26.760100
  H    -49.255900   14.977300   26.288200
  H    -47.574200   15.443800   26.230600
  C    -48.906200   16.982300   26.893600
  H    -49.769100   16.935900   27.519700
  H    -49.229700   17.389000   25.959600
  C    -47.934300   17.956400   27.561600
  H    -48.257400   18.918500   27.551900
  H    -46.982100   17.919700   27.090700
  H    -47.839000   17.547900   28.574500
  H    -53.961000   13.815800   28.341600
  H    -45.828800   13.977100   30.433300

 Total Charge           Charge          ....    0
 Multiplicity           Mult            ....    1
 Number of Electrons    NEL             ....  134
 Basis Dimension        Dim             ....  322

ORBITAL ENERGIES
----------------

  NO   OCC          E(Eh)            E(eV)
   0   2.0000     -88.969771     -2420.9905
   1   2.0000     -88.961521     -2420.7660
   2   2.0000     -10.333207      -281.1809
   3   2.0000     -10.321754      -280.8692
   4   2.0000     -10.316953      -280.7386
   5   2.0000     -10.312450      -280.6160
   6   2.0000     -10.305719      -280.4329
   7   2.0000     -10.298465      -280.2355
   8   2.0000     -10.293444      -280.0989
   9   2.0000     -10.293237      -280.0932
  10   2.0000     -10.288851      -279.9739
  11   2.0000     -10.288319      -279.9594
  12   2.0000     -10.282650      -279.8051
  13   2.0000     -10.281754      -279.7807
  14   2.0000     -10.273387      -279.5531
  15   2.0000     -10.260945      -279.2145
  16   2.0000      -8.083369      -219.9597
  17   2.0000      -8.078174      -219.8183
  18   2.0000      -6.041992      -164.4109
  19   2.0000      -6.038085      -164.3046
  20   2.0000      -6.036441      -164.2599
  21   2.0000      -6.034049      -164.1948
  22   2.0000      -6.032429      -164.1507
  23   2.0000      -6.029067      -164.0593
  24   2.0000      -1.012110       -27.5409
  25   2.0000      -0.983704       -26.7679
  26   2.0000      -0.914105       -24.8741
  27   2.0000      -0.905175       -24.6311
  28   2.0000      -0.866459       -23.5775
  29   2.0000      -0.852264       -23.1913
  30   2.0000      -0.845468       -23.0064
  31   2.0000      -0.811983       -22.0952
  32   2.0000      -0.787849       -21.4385
  33   2.0000      -0.774804       -21.0835
  34   2.0000      -0.709798       -19.3146
  35   2.0000      -0.701355       -19.0848
  36   2.0000      -0.687015       -18.6946
  37   2.0000      -0.668362       -18.1871
  38   2.0000      -0.638039       -17.3619
  39   2.0000      -0.616434       -16.7740
  40   2.0000      -0.594830       -16.1861
  41   2.0000      -0.566168       -15.4062
  42   2.0000      -0.558975       -15.2105
  43   2.0000      -0.556950       -15.1554
  44   2.0000      -0.552436       -15.0326
  45   2.0000      -0.527896       -14.3648
  46   2.0000      -0.518658       -14.1134
  47   2.0000      -0.506560       -13.7842
  48   2.0000      -0.503378       -13.6976
  49   2.0000      -0.500177       -13.6105
  50   2.0000      -0.483367       -13.1531
  51   2.0000      -0.480624       -13.0784
  52   2.0000      -0.472845       -12.8668
  53   2.0000      -0.467018       -12.7082
  54   2.0000      -0.458904       -12.4874
  55   2.0000      -0.453570       -12.3423
  56   2.0000      -0.449125       -12.2213
  57   2.0000      -0.447275       -12.1710
  58   2.0000      -0.431618       -11.7449
  59   2.0000      -0.423558       -11.5256
  60   2.0000      -0.418643       -11.3918
  61   2.0000      -0.417324       -11.3560
  62   2.0000      -0.408942       -11.1279
  63   2.0000      -0.346399        -9.4260
  64   2.0000      -0.333411        -9.0726
  65   2.0000      -0.329212        -8.9583
  66   2.0000      -0.291887        -7.9427
  67   0.0000       0.027857         0.7580
  68   0.0000       0.081380         2.2145
  69   0.0000       0.105943         2.8828
  70   0.0000       0.116183         3.1615
  71   0.0000       0.125046         3.4027

MULLIKEN ATOMIC CHARGES
-----------------------
   0 S :    0.093991
   1 C :   -0.112866
   2 C :   -0.062155
   3 C :   -0.007151
   4 C :   -0.105904
   5 H :    0.012566
   6 C :    0.083354
   7 H :    0.027293
   8 H :   -0.010862
   9 C :   -0.081061
  10 H :    0.031453
  11 H :    0.044320
  12 C :   -0.056719
  13 H :    0.035074
  14 H :    0.029566
  15 H :    0.039940
  16 S :    0.112936
  17 C :   -0.116100
  18 C :   -0.012772
  19 C :   -0.110274
  20 C :   -0.154576
  21 H :    0.011683
  22 C :    0.122172
  23 H :    0.026372
  24 H :   -0.000172
  25 C :   -0.044432
  26 H :    0.009245
  27 H :    0.019826
  28 C :   -0.010542
  29 H :    0.016203
  30 H :    0.013516
  31 H :    0.043283
  32 H :    0.041760
  33 H :    0.071034
Sum of atomic charges:   -0.0000000

LOEWDIN ATOMIC CHARGES
----------------------
   0 S :    0.399973
   1 C :   -0.185889
   2 C :   -0.054758
   3 C :   -0.066322
   4 C :   -0.187529
   5 H :    0.022416
   6 C :   -0.032259
   7 H :    0.031552
   8 H :    0.019852
   9 C :   -0.033430
  10 H :    0.023202
  11 H :    0.029344
  12 C :   -0.067395
  13 H :    0.027066
  14 H :    0.023740
  15 H :    0.030071
  16 S :    0.444762
  17 C :   -0.204429
  18 C :   -0.075955
  19 C :   -0.057819
  20 C :   -0.208161
  21 H :    0.027575
  22 C :   -0.022631
  23 H :    0.030304
  24 H :    0.018506
  25 C :   -0.033702
  26 H :    0.011847
  27 H :    0.018991
  28 C :   -0.051406
  29 H :    0.012917
  30 H :    0.017917
  31 H :    0.032635
  32 H :    0.023340
  33 H :    0.035677

  Mayer bond orders larger than 0.100000
B(  0-S ,  1-C ) :   1.1220 B(  0-S ,  4-C ) :   1.1500 B(  1-C ,  2-C ) :   1.6266
B(  1-C , 32-H ) :   0.9694 B(  2-C ,  3-C ) :   1.2141 B(  2-C ,  6-C ) :   1.0258
B(  3-C ,  4-C ) :   1.5741 B(  3-C ,  5-H ) :   0.9966 B(  4-C , 20-C ) :   1.0283
B(  6-C ,  7-H ) :   0.9414 B(  6-C ,  8-H ) :   0.9343 B(  6-C ,  9-C ) :   1.0468
B(  9-C , 10-H ) :   0.9568 B(  9-C , 11-H ) :   0.9600 B(  9-C , 12-C ) :   1.0796
B( 12-C , 13-H ) :   0.9766 B( 12-C , 14-H ) :   0.9752 B( 12-C , 15-H ) :   0.9745
B( 16-S , 17-C ) :   1.1834 B( 16-S , 20-C ) :   1.1575 B( 17-C , 18-C ) :   1.5766
B( 17-C , 33-H ) :   0.9639 B( 18-C , 19-C ) :   1.2580 B( 18-C , 21-H ) :   0.9970
B( 19-C , 20-C ) :   1.5813 B( 19-C , 22-C ) :   1.0342 B( 22-C , 23-H ) :   0.9275
B( 22-C , 24-H ) :   0.9273 B( 22-C , 25-C ) :   1.0797 B( 25-C , 26-H ) :   0.9488
B( 25-C , 27-H ) :   0.9531 B( 25-C , 28-C ) :   1.0852 B( 28-C , 29-H ) :   0.9715
B( 28-C , 30-H ) :   0.9754 B( 28-C , 31-H ) :   0.9719

Dispersion correction           -0.014493667
FINAL SINGLE POINT ENERGY     -1339.880254033444

DIPOLE MOMENT
-------------
                                X             Y             Z
Electronic contribution:      5.80857       3.71618      -0.59985
Nuclear contribution   :     -5.84988      -3.98089       0.61698
                        -----------------------------------------
Total Dipole Moment    :     -0.04131      -0.26471       0.01713
                        -----------------------------------------
Magnitude (a.u.)       :      0.26846
Magnitude (Debye)      :      0.68237

Rotational constants in cm-1:     0.025475     0.007589     0.006138
Rotational constants in MHz :   763.732604   227.505898   184.007383

                             ****ORCA TERMINATED NORMALLY****
TOTAL RUN TIME: 0 days 0 hours 0 minutes 21 seconds 328 msec
