                         Program Version 4.2.1 -  RELEASE  -
|  1> ! wB97X-D3 SP def2-SVP
|  2> %pal
|  3> nprocs 24
|  4> end
|  5>
|  6> * xyz 0 1
|  7> S 	 -102.311 	 0.172801 	 -106.492
|  8> C 	 -101.132 	 1.4215 	 -106.113
|  9> C 	 -101.72 	 2.71315 	 -106.263
| 10> C 	 -103.147 	 2.6733 	 -106.617
| 11> C 	 -103.57 	 1.384 	 -106.874
| 12> H 	 -103.81 	 3.52101 	 -106.75
| 13> C 	 -101.051 	 4.05895 	 -106.103
| 14> H 	 -101.64 	 4.79863 	 -106.644
| 15> H 	 -100.099 	 4.05558 	 -106.671
| 16> C 	 -100.811 	 4.48557 	 -104.641
| 17> H 	 -100.262 	 5.45797 	 -104.637
| 18> H 	 -101.689 	 4.78346 	 -104.113
| 19> C 	 -100.103 	 3.46038 	 -103.866
| 20> H 	 -99.1983 	 3.11699 	 -104.402
| 21> H 	 -99.8716 	 3.91659 	 -102.898
| 22> H 	 -100.666 	 2.58998 	 -103.7
| 23> S 	 -105.48 	 -0.00438752 	 -108.552
| 24> C 	 -107.176 	 0.24458 	 -108.269
| 25> C 	 -107.328 	 0.950193 	 -107.161
| 26> C 	 -106.164 	 1.37937 	 -106.485
| 27> C 	 -105.001 	 1.02192 	 -107.171
| 28> H 	 -108.36 	 1.02576 	 -106.801
| 29> C 	 -106.201 	 2.04717 	 -105.17
| 30> H 	 -105.181 	 1.93656 	 -104.702
| 31> H 	 -106.919 	 1.56883 	 -104.508
| 32> C 	 -106.64 	 3.52461 	 -105.106
| 33> H 	 -107.629 	 3.64835 	 -105.522
| 34> H 	 -105.921 	 4.06257 	 -105.713
| 35> C 	 -106.682 	 3.95674 	 -103.638
| 36> H 	 -107.468 	 3.54797 	 -103.048
| 37> H 	 -106.67 	 5.0575 	 -103.495
| 38> H 	 -105.784 	 3.77112 	 -103.038
| 39> H 	 -100.132 	 1.13672 	 -105.603
| 40> H 	 -107.956 	 -0.227316 	 -108.82
| 41> *
| 42>
| 43>                          ****END OF INPUT****

CARTESIAN COORDINATES (ANGSTROEM)
---------------------------------
  S    -102.311000    0.172801  -106.492000
  C    -101.132000    1.421500  -106.113000
  C    -101.720000    2.713150  -106.263000
  C    -103.147000    2.673300  -106.617000
  C    -103.570000    1.384000  -106.874000
  H    -103.810000    3.521010  -106.750000
  C    -101.051000    4.058950  -106.103000
  H    -101.640000    4.798630  -106.644000
  H    -100.099000    4.055580  -106.671000
  C    -100.811000    4.485570  -104.641000
  H    -100.262000    5.457970  -104.637000
  H    -101.689000    4.783460  -104.113000
  C    -100.103000    3.460380  -103.866000
  H    -99.198300    3.116990  -104.402000
  H    -99.871600    3.916590  -102.898000
  H    -100.666000    2.589980  -103.700000
  S    -105.480000   -0.004388  -108.552000
  C    -107.176000    0.244580  -108.269000
  C    -107.328000    0.950193  -107.161000
  C    -106.164000    1.379370  -106.485000
  C    -105.001000    1.021920  -107.171000
  H    -108.360000    1.025760  -106.801000
  C    -106.201000    2.047170  -105.170000
  H    -105.181000    1.936560  -104.702000
  H    -106.919000    1.568830  -104.508000
  C    -106.640000    3.524610  -105.106000
  H    -107.629000    3.648350  -105.522000
  H    -105.921000    4.062570  -105.713000
  C    -106.682000    3.956740  -103.638000
  H    -107.468000    3.547970  -103.048000
  H    -106.670000    5.057500  -103.495000
  H    -105.784000    3.771120  -103.038000
  H    -100.132000    1.136720  -105.603000
  H    -107.956000   -0.227316  -108.820000

 Total Charge           Charge          ....    0
 Multiplicity           Mult            ....    1
 Number of Electrons    NEL             ....  134
 Basis Dimension        Dim             ....  322

ORBITAL ENERGIES
----------------

  NO   OCC          E(Eh)            E(eV)
   0   2.0000     -88.969148     -2420.9736
   1   2.0000     -88.959689     -2420.7162
   2   2.0000     -10.338125      -281.3147
   3   2.0000     -10.332559      -281.1632
   4   2.0000     -10.330428      -281.1052
   5   2.0000     -10.312695      -280.6227
   6   2.0000     -10.309907      -280.5468
   7   2.0000     -10.302563      -280.3470
   8   2.0000     -10.300094      -280.2798
   9   2.0000     -10.293218      -280.0927
  10   2.0000     -10.288180      -279.9556
  11   2.0000     -10.287599      -279.9398
  12   2.0000     -10.285423      -279.8806
  13   2.0000     -10.283130      -279.8182
  14   2.0000     -10.278119      -279.6818
  15   2.0000     -10.270604      -279.4773
  16   2.0000      -8.083042      -219.9507
  17   2.0000      -8.074514      -219.7187
  18   2.0000      -6.041698      -164.4030
  19   2.0000      -6.037596      -164.2914
  20   2.0000      -6.033743      -164.1865
  21   2.0000      -6.033107      -164.1692
  22   2.0000      -6.028983      -164.0570
  23   2.0000      -6.025194      -163.9539
  24   2.0000      -1.002743       -27.2860
  25   2.0000      -0.980783       -26.6885
  26   2.0000      -0.916740       -24.9458
  27   2.0000      -0.911959       -24.8157
  28   2.0000      -0.867238       -23.5988
  29   2.0000      -0.851768       -23.1778
  30   2.0000      -0.847553       -23.0631
  31   2.0000      -0.816174       -22.2092
  32   2.0000      -0.781154       -21.2563
  33   2.0000      -0.771571       -20.9955
  34   2.0000      -0.707964       -19.2647
  35   2.0000      -0.700799       -19.0697
  36   2.0000      -0.693124       -18.8609
  37   2.0000      -0.655526       -17.8378
  38   2.0000      -0.639774       -17.4091
  39   2.0000      -0.618055       -16.8181
  40   2.0000      -0.599463       -16.3122
  41   2.0000      -0.572187       -15.5700
  42   2.0000      -0.569539       -15.4979
  43   2.0000      -0.554563       -15.0904
  44   2.0000      -0.544335       -14.8121
  45   2.0000      -0.522123       -14.2077
  46   2.0000      -0.520098       -14.1526
  47   2.0000      -0.513324       -13.9682
  48   2.0000      -0.504210       -13.7202
  49   2.0000      -0.498927       -13.5765
  50   2.0000      -0.491696       -13.3797
  51   2.0000      -0.476451       -12.9649
  52   2.0000      -0.469490       -12.7755
  53   2.0000      -0.462887       -12.5958
  54   2.0000      -0.460179       -12.5221
  55   2.0000      -0.451419       -12.2837
  56   2.0000      -0.447211       -12.1692
  57   2.0000      -0.434261       -11.8168
  58   2.0000      -0.427974       -11.6458
  59   2.0000      -0.425663       -11.5829
  60   2.0000      -0.424138       -11.5414
  61   2.0000      -0.415901       -11.3172
  62   2.0000      -0.408011       -11.1025
  63   2.0000      -0.347448        -9.4545
  64   2.0000      -0.330929        -9.0050
  65   2.0000      -0.325944        -8.8694
  66   2.0000      -0.296596        -8.0708
  67   0.0000       0.030576         0.8320
  68   0.0000       0.064786         1.7629
  69   0.0000       0.114336         3.1112
  70   0.0000       0.116955         3.1825
  71   0.0000       0.122270         3.3271

MULLIKEN ATOMIC CHARGES
-----------------------
   0 S :    0.107597
   1 C :   -0.162865
   2 C :   -0.106452
   3 C :    0.020294
   4 C :   -0.128402
   5 H :    0.024737
   6 C :    0.052817
   7 H :    0.017907
   8 H :    0.040880
   9 C :   -0.055451
  10 H :    0.027750
  11 H :    0.013688
  12 C :   -0.033972
  13 H :    0.021585
  14 H :    0.032331
  15 H :    0.035529
  16 S :    0.085690
  17 C :   -0.076412
  18 C :   -0.032474
  19 C :    0.010067
  20 C :   -0.169084
  21 H :    0.017718
  22 C :    0.002352
  23 H :    0.044098
  24 H :    0.019520
  25 C :   -0.027056
  26 H :    0.029767
  27 H :    0.016043
  28 C :   -0.052787
  29 H :    0.030336
  30 H :    0.029023
  31 H :    0.018254
  32 H :    0.097176
  33 H :    0.049796
Sum of atomic charges:    0.0000000

LOEWDIN ATOMIC CHARGES
----------------------
   0 S :    0.391286
   1 C :   -0.214959
   2 C :   -0.058535
   3 C :   -0.055473
   4 C :   -0.180649
   5 H :    0.034516
   6 C :   -0.038022
   7 H :    0.029151
   8 H :    0.036883
   9 C :   -0.042962
  10 H :    0.028327
  11 H :    0.019388
  12 C :   -0.061542
  13 H :    0.023414
  14 H :    0.030810
  15 H :    0.017681
  16 S :    0.385004
  17 C :   -0.176743
  18 C :   -0.080415
  19 C :   -0.060590
  20 C :   -0.188195
  21 H :    0.034458
  22 C :   -0.038906
  23 H :    0.038459
  24 H :    0.029911
  25 C :   -0.030646
  26 H :    0.024237
  27 H :    0.018335
  28 C :   -0.073740
  29 H :    0.021920
  30 H :    0.030460
  31 H :    0.026590
  32 H :    0.050745
  33 H :    0.029805

  Mayer bond orders larger than 0.100000
B(  0-S ,  1-C ) :   1.1362 B(  0-S ,  4-C ) :   1.1480 B(  1-C ,  2-C ) :   1.5934
B(  1-C , 32-H ) :   0.9552 B(  2-C ,  3-C ) :   1.2263 B(  2-C ,  6-C ) :   1.0257
B(  3-C ,  4-C ) :   1.5847 B(  3-C ,  5-H ) :   0.9923 B(  4-C , 20-C ) :   1.0219
B(  6-C ,  7-H ) :   0.9407 B(  6-C ,  8-H ) :   0.9436 B(  6-C ,  9-C ) :   1.0695
B(  9-C , 10-H ) :   0.9519 B(  9-C , 11-H ) :   0.9501 B(  9-C , 12-C ) :   1.0984
B( 12-C , 13-H ) :   0.9711 B( 12-C , 14-H ) :   0.9648 B( 12-C , 15-H ) :   0.9654
B( 16-S , 17-C ) :   1.1450 B( 16-S , 20-C ) :   1.1315 B( 17-C , 18-C ) :   1.6336
B( 17-C , 33-H ) :   0.9685 B( 18-C , 19-C ) :   1.2290 B( 18-C , 21-H ) :   0.9877
B( 19-C , 20-C ) :   1.5801 B( 19-C , 22-C ) :   1.0597 B( 22-C , 23-H ) :   0.9307
B( 22-C , 24-H ) :   0.9345 B( 22-C , 25-C ) :   1.0646 B( 25-C , 26-H ) :   0.9530
B( 25-C , 27-H ) :   0.9526 B( 25-C , 28-C ) :   1.0806 B( 28-C , 29-H ) :   0.9752
B( 28-C , 30-H ) :   0.9720 B( 28-C , 31-H ) :   0.9708

Dispersion correction           -0.014641407
FINAL SINGLE POINT ENERGY     -1339.876829083468

DIPOLE MOMENT
-------------
                                X             Y             Z
Electronic contribution:     -2.69440     -22.46147     -20.40856
Nuclear contribution   :      2.51822      23.01880      20.96531
                        -----------------------------------------
Total Dipole Moment    :     -0.17617       0.55733       0.55676
                        -----------------------------------------
Magnitude (a.u.)       :      0.80724
Magnitude (Debye)      :      2.05183

Rotational constants in cm-1:     0.018564     0.009181     0.006725
Rotational constants in MHz :   556.544046   275.227012   201.624338

                             ****ORCA TERMINATED NORMALLY****
TOTAL RUN TIME: 0 days 0 hours 0 minutes 21 seconds 894 msec
