                         Program Version 4.2.1 -  RELEASE  -
|  1> ! wB97X-D3 SP def2-SVP
|  2> %pal
|  3> nprocs 24
|  4> end
|  5>
|  6> * xyz 0 1
|  7> S 	 -49.6997 	 21.0428 	 29.9159
|  8> C 	 -49.6747 	 19.3357 	 29.7497
|  9> C 	 -50.736 	 18.799 	 30.446
| 10> C 	 -51.453 	 19.8174 	 31.1554
| 11> C 	 -51.1699 	 21.1138 	 30.8446
| 12> H 	 -52.3103 	 19.5785 	 31.7747
| 13> C 	 -50.9942 	 17.3345 	 30.7442
| 14> H 	 -51.9755 	 17.1279 	 31.252
| 15> H 	 -50.2897 	 17.0302 	 31.5027
| 16> C 	 -50.8581 	 16.4295 	 29.5377
| 17> H 	 -49.7711 	 16.3 	 29.2647
| 18> H 	 -51.0883 	 15.3714 	 29.7569
| 19> C 	 -51.8234 	 16.6618 	 28.4092
| 20> H 	 -52.8524 	 16.7804 	 28.7917
| 21> H 	 -51.5783 	 17.6399 	 27.9706
| 22> H 	 -51.8411 	 15.896 	 27.6335
| 23> S 	 -50.6312 	 23.5083 	 32.3366
| 24> C 	 -52.0357 	 24.6618 	 32.5437
| 25> C 	 -53.2252 	 24.1534 	 32.0922
| 26> C 	 -53.0443 	 22.8323 	 31.5891
| 27> C 	 -51.7306 	 22.3287 	 31.5341
| 28> H 	 -54.1924 	 24.6998 	 32.1548
| 29> C 	 -54.2669 	 22.1139 	 31.0963
| 30> H 	 -54.0931 	 21.2026 	 30.5783
| 31> H 	 -54.6669 	 22.7823 	 30.3725
| 32> C 	 -55.4157 	 21.9345 	 32.093
| 33> H 	 -55.6919 	 22.9519 	 32.3954
| 34> H 	 -55.1157 	 21.3816 	 32.9981
| 35> C 	 -56.6411 	 21.2257 	 31.4697
| 36> H 	 -56.8057 	 21.7002 	 30.4929
| 37> H 	 -57.4965 	 21.4 	 32.1202
| 38> H 	 -56.6819 	 20.1065 	 31.3487
| 39> H 	 -48.9927 	 18.7482 	 29.1379
| 40> H 	 -51.9485 	 25.5843 	 33.069
| 41> *
| 42>
| 43>                          ****END OF INPUT****

CARTESIAN COORDINATES (ANGSTROEM)
---------------------------------
  S    -49.699700   21.042800   29.915900
  C    -49.674700   19.335700   29.749700
  C    -50.736000   18.799000   30.446000
  C    -51.453000   19.817400   31.155400
  C    -51.169900   21.113800   30.844600
  H    -52.310300   19.578500   31.774700
  C    -50.994200   17.334500   30.744200
  H    -51.975500   17.127900   31.252000
  H    -50.289700   17.030200   31.502700
  C    -50.858100   16.429500   29.537700
  H    -49.771100   16.300000   29.264700
  H    -51.088300   15.371400   29.756900
  C    -51.823400   16.661800   28.409200
  H    -52.852400   16.780400   28.791700
  H    -51.578300   17.639900   27.970600
  H    -51.841100   15.896000   27.633500
  S    -50.631200   23.508300   32.336600
  C    -52.035700   24.661800   32.543700
  C    -53.225200   24.153400   32.092200
  C    -53.044300   22.832300   31.589100
  C    -51.730600   22.328700   31.534100
  H    -54.192400   24.699800   32.154800
  C    -54.266900   22.113900   31.096300
  H    -54.093100   21.202600   30.578300
  H    -54.666900   22.782300   30.372500
  C    -55.415700   21.934500   32.093000
  H    -55.691900   22.951900   32.395400
  H    -55.115700   21.381600   32.998100
  C    -56.641100   21.225700   31.469700
  H    -56.805700   21.700200   30.492900
  H    -57.496500   21.400000   32.120200
  H    -56.681900   20.106500   31.348700
  H    -48.992700   18.748200   29.137900
  H    -51.948500   25.584300   33.069000

 Total Charge           Charge          ....    0
 Multiplicity           Mult            ....    1
 Number of Electrons    NEL             ....  134
 Basis Dimension        Dim             ....  322

ORBITAL ENERGIES
----------------

  NO   OCC          E(Eh)            E(eV)
   0   2.0000     -88.966955     -2420.9139
   1   2.0000     -88.965036     -2420.8617
   2   2.0000     -10.338329      -281.3202
   3   2.0000     -10.331857      -281.1441
   4   2.0000     -10.324828      -280.9528
   5   2.0000     -10.315395      -280.6962
   6   2.0000     -10.306985      -280.4673
   7   2.0000     -10.301208      -280.3101
   8   2.0000     -10.300124      -280.2806
   9   2.0000     -10.295413      -280.1524
  10   2.0000     -10.290883      -280.0292
  11   2.0000     -10.289674      -279.9963
  12   2.0000     -10.288297      -279.9588
  13   2.0000     -10.284627      -279.8589
  14   2.0000     -10.281069      -279.7621
  15   2.0000     -10.276671      -279.6424
  16   2.0000      -8.080423      -219.8795
  17   2.0000      -8.079732      -219.8607
  18   2.0000      -6.039017      -164.3300
  19   2.0000      -6.038476      -164.3153
  20   2.0000      -6.034663      -164.2115
  21   2.0000      -6.034627      -164.2105
  22   2.0000      -6.031184      -164.1169
  23   2.0000      -6.030235      -164.0910
  24   2.0000      -1.007638       -27.4192
  25   2.0000      -0.981181       -26.6993
  26   2.0000      -0.915617       -24.9152
  27   2.0000      -0.909344       -24.7445
  28   2.0000      -0.868564       -23.6348
  29   2.0000      -0.848891       -23.0995
  30   2.0000      -0.844646       -22.9840
  31   2.0000      -0.818513       -22.2729
  32   2.0000      -0.782953       -21.3052
  33   2.0000      -0.771221       -20.9860
  34   2.0000      -0.704113       -19.1599
  35   2.0000      -0.699534       -19.0353
  36   2.0000      -0.693533       -18.8720
  37   2.0000      -0.660660       -17.9775
  38   2.0000      -0.641111       -17.4455
  39   2.0000      -0.613605       -16.6970
  40   2.0000      -0.598585       -16.2883
  41   2.0000      -0.579084       -15.7577
  42   2.0000      -0.567336       -15.4380
  43   2.0000      -0.560249       -15.2452
  44   2.0000      -0.544183       -14.8080
  45   2.0000      -0.521920       -14.2022
  46   2.0000      -0.517059       -14.0699
  47   2.0000      -0.507639       -13.8136
  48   2.0000      -0.500914       -13.6306
  49   2.0000      -0.498477       -13.5643
  50   2.0000      -0.488934       -13.3046
  51   2.0000      -0.481358       -13.0984
  52   2.0000      -0.474989       -12.9251
  53   2.0000      -0.468638       -12.7523
  54   2.0000      -0.461013       -12.5448
  55   2.0000      -0.448272       -12.1981
  56   2.0000      -0.447144       -12.1674
  57   2.0000      -0.433455       -11.7949
  58   2.0000      -0.428880       -11.6704
  59   2.0000      -0.425377       -11.5751
  60   2.0000      -0.423500       -11.5240
  61   2.0000      -0.410511       -11.1706
  62   2.0000      -0.399997       -10.8845
  63   2.0000      -0.351403        -9.5622
  64   2.0000      -0.331736        -9.0270
  65   2.0000      -0.325554        -8.8588
  66   2.0000      -0.294901        -8.0247
  67   0.0000       0.029304         0.7974
  68   0.0000       0.065772         1.7897
  69   0.0000       0.105465         2.8699
  70   0.0000       0.122047         3.3211
  71   0.0000       0.125667         3.4196

MULLIKEN ATOMIC CHARGES
-----------------------
   0 S :    0.106781
   1 C :   -0.116398
   2 C :   -0.091725
   3 C :    0.011434
   4 C :   -0.124639
   5 H :    0.014880
   6 C :    0.068635
   7 H :    0.027124
   8 H :    0.043019
   9 C :   -0.112275
  10 H :    0.028676
  11 H :    0.020015
  12 C :   -0.039946
  13 H :    0.026984
  14 H :    0.032058
  15 H :    0.039492
  16 S :    0.084477
  17 C :   -0.086739
  18 C :   -0.033144
  19 C :   -0.035678
  20 C :   -0.142266
  21 H :    0.048076
  22 C :    0.080833
  23 H :    0.013586
  24 H :    0.014440
  25 C :   -0.083874
  26 H :    0.019802
  27 H :    0.035142
  28 C :   -0.064056
  29 H :    0.028326
  30 H :    0.031944
  31 H :    0.045754
  32 H :    0.057445
  33 H :    0.051816
Sum of atomic charges:    0.0000000

LOEWDIN ATOMIC CHARGES
----------------------
   0 S :    0.427214
   1 C :   -0.203789
   2 C :   -0.071062
   3 C :   -0.063103
   4 C :   -0.201061
   5 H :    0.028018
   6 C :   -0.033392
   7 H :    0.034298
   8 H :    0.037396
   9 C :   -0.059379
  10 H :    0.025228
  11 H :    0.026741
  12 C :   -0.066719
  13 H :    0.028449
  14 H :    0.023584
  15 H :    0.026629
  16 S :    0.350839
  17 C :   -0.145372
  18 C :   -0.072251
  19 C :   -0.048903
  20 C :   -0.182748
  21 H :    0.044706
  22 C :   -0.034402
  23 H :    0.022230
  24 H :    0.029462
  25 C :   -0.036579
  26 H :    0.020712
  27 H :    0.024273
  28 C :   -0.072708
  29 H :    0.025015
  30 H :    0.027065
  31 H :    0.031921
  32 H :    0.034164
  33 H :    0.023528

  Mayer bond orders larger than 0.100000
B(  0-S ,  1-C ) :   1.1598 B(  0-S ,  4-C ) :   1.1495 B(  1-C ,  2-C ) :   1.5709
B(  1-C , 32-H ) :   0.9687 B(  2-C ,  3-C ) :   1.2766 B(  2-C ,  6-C ) :   1.0130
B(  3-C ,  4-C ) :   1.5607 B(  3-C ,  5-H ) :   0.9890 B(  4-C , 20-C ) :   1.0290
B(  6-C ,  7-H ) :   0.9451 B(  6-C ,  8-H ) :   0.9363 B(  6-C ,  9-C ) :   1.0869
B(  9-C , 10-H ) :   0.9498 B(  9-C , 11-H ) :   0.9528 B(  9-C , 12-C ) :   1.0704
B( 12-C , 13-H ) :   0.9701 B( 12-C , 14-H ) :   0.9723 B( 12-C , 15-H ) :   0.9761
B( 16-S , 17-C ) :   1.1377 B( 16-S , 20-C ) :   1.1068 B( 17-C , 18-C ) :   1.6314
B( 17-C , 33-H ) :   0.9669 B( 18-C , 19-C ) :   1.2207 B( 18-C , 21-H ) :   0.9797
B( 19-C , 20-C ) :   1.6239 B( 19-C , 22-C ) :   1.0518 B( 22-C , 23-H ) :   0.9405
B( 22-C , 24-H ) :   0.9220 B( 22-C , 25-C ) :   1.0622 B( 25-C , 26-H ) :   0.9502
B( 25-C , 27-H ) :   0.9570 B( 25-C , 28-C ) :   1.0806 B( 28-C , 29-H ) :   0.9730
B( 28-C , 30-H ) :   0.9740 B( 28-C , 31-H ) :   0.9759

Dispersion correction           -0.013704382
FINAL SINGLE POINT ENERGY     -1339.871565070807

DIPOLE MOMENT
-------------
                                X             Y             Z
Electronic contribution:     21.90921      19.84590       4.79386
Nuclear contribution   :    -22.54041     -20.23052      -4.67790
                        -----------------------------------------
Total Dipole Moment    :     -0.63120      -0.38462       0.11596
                        -----------------------------------------
Magnitude (a.u.)       :      0.74819
Magnitude (Debye)      :      1.90175

Rotational constants in cm-1:     0.017908     0.008541     0.006162
Rotational constants in MHz :   536.873702   256.062072   184.721464

                             ****ORCA TERMINATED NORMALLY****
TOTAL RUN TIME: 0 days 0 hours 0 minutes 21 seconds 317 msec
