                         Program Version 4.2.1 -  RELEASE  -
|  1> ! wB97X-D3 SP def2-SVP
|  2> %pal
|  3> nprocs 24
|  4> end
|  5>
|  6> * xyz 0 1
|  7> S 	 -122.731 	 53.8352 	 -30.1892
|  8> C 	 -124.366 	 53.0528 	 -30.3019
|  9> C 	 -125.028 	 53.6794 	 -31.2955
| 10> C 	 -124.441 	 54.9177 	 -31.6702
| 11> C 	 -123.299 	 55.2307 	 -31.0254
| 12> H 	 -124.966 	 55.6203 	 -32.3077
| 13> C 	 -126.411 	 53.2154 	 -31.8113
| 14> H 	 -126.505 	 52.2854 	 -31.3079
| 15> H 	 -126.238 	 53.0138 	 -32.8584
| 16> C 	 -127.68 	 54.137 	 -31.4735
| 17> H 	 -127.412 	 55.1533 	 -31.9609
| 18> H 	 -128.572 	 53.7514 	 -31.9599
| 19> C 	 -127.812 	 54.3201 	 -29.9686
| 20> H 	 -126.769 	 54.4612 	 -29.5409
| 21> H 	 -128.486 	 55.1472 	 -29.7188
| 22> H 	 -128.289 	 53.395 	 -29.5965
| 23> S 	 -120.847 	 56.4743 	 -31.445
| 24> C 	 -120.809 	 58.144 	 -31.6118
| 25> C 	 -122.03 	 58.7805 	 -31.3446
| 26> C 	 -123.017 	 57.8504 	 -31.1341
| 27> C 	 -122.565 	 56.5217 	 -31.1638
| 28> H 	 -122.092 	 59.8636 	 -31.3608
| 29> C 	 -124.482 	 58.2287 	 -30.925
| 30> H 	 -125.143 	 57.5792 	 -31.6395
| 31> H 	 -124.603 	 59.2966 	 -31.3248
| 32> C 	 -125.137 	 58.084 	 -29.5957
| 33> H 	 -124.857 	 57.075 	 -29.3443
| 34> H 	 -126.223 	 58.1453 	 -29.7926
| 35> C 	 -124.569 	 58.9414 	 -28.4031
| 36> H 	 -124.999 	 58.5293 	 -27.4751
| 37> H 	 -124.923 	 59.9791 	 -28.6051
| 38> H 	 -123.485 	 58.913 	 -28.319
| 39> H 	 -124.696 	 52.1442 	 -29.9249
| 40> H 	 -119.989 	 58.7802 	 -31.7466
| 41> *
| 42>
| 43>                          ****END OF INPUT****

CARTESIAN COORDINATES (ANGSTROEM)
---------------------------------
  S    -122.731000   53.835200  -30.189200
  C    -124.366000   53.052800  -30.301900
  C    -125.028000   53.679400  -31.295500
  C    -124.441000   54.917700  -31.670200
  C    -123.299000   55.230700  -31.025400
  H    -124.966000   55.620300  -32.307700
  C    -126.411000   53.215400  -31.811300
  H    -126.505000   52.285400  -31.307900
  H    -126.238000   53.013800  -32.858400
  C    -127.680000   54.137000  -31.473500
  H    -127.412000   55.153300  -31.960900
  H    -128.572000   53.751400  -31.959900
  C    -127.812000   54.320100  -29.968600
  H    -126.769000   54.461200  -29.540900
  H    -128.486000   55.147200  -29.718800
  H    -128.289000   53.395000  -29.596500
  S    -120.847000   56.474300  -31.445000
  C    -120.809000   58.144000  -31.611800
  C    -122.030000   58.780500  -31.344600
  C    -123.017000   57.850400  -31.134100
  C    -122.565000   56.521700  -31.163800
  H    -122.092000   59.863600  -31.360800
  C    -124.482000   58.228700  -30.925000
  H    -125.143000   57.579200  -31.639500
  H    -124.603000   59.296600  -31.324800
  C    -125.137000   58.084000  -29.595700
  H    -124.857000   57.075000  -29.344300
  H    -126.223000   58.145300  -29.792600
  C    -124.569000   58.941400  -28.403100
  H    -124.999000   58.529300  -27.475100
  H    -124.923000   59.979100  -28.605100
  H    -123.485000   58.913000  -28.319000
  H    -124.696000   52.144200  -29.924900
  H    -119.989000   58.780200  -31.746600

 Total Charge           Charge          ....    0
 Multiplicity           Mult            ....    1
 Number of Electrons    NEL             ....  134
 Basis Dimension        Dim             ....  322

ORBITAL ENERGIES
----------------

  NO   OCC          E(Eh)            E(eV)
   0   2.0000     -88.974216     -2421.1115
   1   2.0000     -88.963453     -2420.8186
   2   2.0000     -10.330460      -281.1061
   3   2.0000     -10.329082      -281.0686
   4   2.0000     -10.311239      -280.5831
   5   2.0000     -10.310315      -280.5579
   6   2.0000     -10.302394      -280.3424
   7   2.0000     -10.300173      -280.2820
   8   2.0000     -10.299034      -280.2510
   9   2.0000     -10.297832      -280.2183
  10   2.0000     -10.293918      -280.1117
  11   2.0000     -10.291268      -280.0396
  12   2.0000     -10.286608      -279.9128
  13   2.0000     -10.283224      -279.8207
  14   2.0000     -10.282343      -279.7968
  15   2.0000     -10.280837      -279.7558
  16   2.0000      -8.089916      -220.1378
  17   2.0000      -8.078056      -219.8151
  18   2.0000      -6.048076      -164.5765
  19   2.0000      -6.044220      -164.4716
  20   2.0000      -6.041083      -164.3862
  21   2.0000      -6.036813      -164.2700
  22   2.0000      -6.032886      -164.1632
  23   2.0000      -6.028229      -164.0365
  24   2.0000      -1.015434       -27.6314
  25   2.0000      -0.994594       -27.0643
  26   2.0000      -0.910085       -24.7647
  27   2.0000      -0.907656       -24.6986
  28   2.0000      -0.869114       -23.6498
  29   2.0000      -0.854639       -23.2559
  30   2.0000      -0.841244       -22.8914
  31   2.0000      -0.816609       -22.2211
  32   2.0000      -0.783333       -21.3156
  33   2.0000      -0.774708       -21.0809
  34   2.0000      -0.713362       -19.4116
  35   2.0000      -0.694031       -18.8855
  36   2.0000      -0.685584       -18.6557
  37   2.0000      -0.663592       -18.0573
  38   2.0000      -0.637579       -17.3494
  39   2.0000      -0.625060       -17.0088
  40   2.0000      -0.592192       -16.1144
  41   2.0000      -0.569670       -15.5015
  42   2.0000      -0.554958       -15.1012
  43   2.0000      -0.546995       -14.8845
  44   2.0000      -0.543598       -14.7921
  45   2.0000      -0.538807       -14.6617
  46   2.0000      -0.515969       -14.0402
  47   2.0000      -0.512878       -13.9561
  48   2.0000      -0.509073       -13.8526
  49   2.0000      -0.494920       -13.4674
  50   2.0000      -0.486882       -13.2487
  51   2.0000      -0.479784       -13.0556
  52   2.0000      -0.476441       -12.9646
  53   2.0000      -0.468315       -12.7435
  54   2.0000      -0.460288       -12.5251
  55   2.0000      -0.451417       -12.2837
  56   2.0000      -0.444080       -12.0840
  57   2.0000      -0.439391       -11.9564
  58   2.0000      -0.434470       -11.8225
  59   2.0000      -0.422302       -11.4914
  60   2.0000      -0.416120       -11.3232
  61   2.0000      -0.412244       -11.2177
  62   2.0000      -0.398096       -10.8327
  63   2.0000      -0.350680        -9.5425
  64   2.0000      -0.341848        -9.3022
  65   2.0000      -0.328957        -8.9514
  66   2.0000      -0.290961        -7.9175
  67   0.0000       0.026205         0.7131
  68   0.0000       0.067933         1.8485
  69   0.0000       0.100395         2.7319
  70   0.0000       0.112917         3.0726
  71   0.0000       0.133190         3.6243

MULLIKEN ATOMIC CHARGES
-----------------------
   0 S :    0.084873
   1 C :   -0.081863
   2 C :   -0.137891
   3 C :    0.016096
   4 C :   -0.101971
   5 H :    0.006323
   6 C :    0.092997
   7 H :   -0.003394
   8 H :    0.040738
   9 C :   -0.090121
  10 H :    0.034682
  11 H :    0.042024
  12 C :   -0.074130
  13 H :    0.066613
  14 H :    0.042927
  15 H :    0.032278
  16 S :    0.144727
  17 C :   -0.061475
  18 C :   -0.073399
  19 C :   -0.000512
  20 C :   -0.176018
  21 H :    0.019595
  22 C :   -0.000284
  23 H :    0.034484
  24 H :    0.020349
  25 C :   -0.057753
  26 H :    0.028281
  27 H :    0.040347
  28 C :   -0.056652
  29 H :    0.042703
  30 H :    0.033099
  31 H :    0.044024
  32 H :    0.017305
  33 H :    0.030998
Sum of atomic charges:    0.0000000

LOEWDIN ATOMIC CHARGES
----------------------
   0 S :    0.373479
   1 C :   -0.165957
   2 C :   -0.062226
   3 C :   -0.073029
   4 C :   -0.189588
   5 H :    0.026258
   6 C :   -0.025821
   7 H :    0.019240
   8 H :    0.032867
   9 C :   -0.041657
  10 H :    0.025554
  11 H :    0.023735
  12 C :   -0.074032
  13 H :    0.038936
  14 H :    0.027290
  15 H :    0.026869
  16 S :    0.458117
  17 C :   -0.201587
  18 C :   -0.071942
  19 C :   -0.060908
  20 C :   -0.204089
  21 H :    0.035300
  22 C :   -0.042105
  23 H :    0.038367
  24 H :    0.027533
  25 C :   -0.047450
  26 H :    0.023380
  27 H :    0.030900
  28 C :   -0.065397
  29 H :    0.030260
  30 H :    0.025394
  31 H :    0.027282
  32 H :    0.015817
  33 H :    0.019206

  Mayer bond orders larger than 0.100000
B(  0-S ,  1-C ) :   1.0965 B(  0-S ,  4-C ) :   1.1348 B(  1-C ,  2-C ) :   1.6494
B(  1-C , 32-H ) :   0.9729 B(  2-C ,  3-C ) :   1.2044 B(  2-C ,  6-C ) :   1.0155
B(  3-C ,  4-C ) :   1.5903 B(  3-C ,  5-H ) :   0.9992 B(  4-C , 20-C ) :   1.0294
B(  6-C ,  7-H ) :   0.9391 B(  6-C ,  8-H ) :   0.9384 B(  6-C ,  9-C ) :   1.0487
B(  9-C , 10-H ) :   0.9592 B(  9-C , 11-H ) :   0.9595 B(  9-C , 12-C ) :   1.0624
B( 12-C , 13-H ) :   0.9715 B( 12-C , 14-H ) :   0.9739 B( 12-C , 15-H ) :   0.9743
B( 16-S , 17-C ) :   1.2027 B( 16-S , 20-C ) :   1.1660 B( 17-C , 18-C ) :   1.5510
B( 17-C , 20-C ) :   0.1125 B( 17-C , 33-H ) :   0.9675 B( 18-C , 19-C ) :   1.3087
B( 18-C , 21-H ) :   0.9940 B( 19-C , 20-C ) :   1.5428 B( 19-C , 22-C ) :   1.0274
B( 22-C , 23-H ) :   0.9353 B( 22-C , 24-H ) :   0.9327 B( 22-C , 25-C ) :   1.0722
B( 25-C , 26-H ) :   0.9514 B( 25-C , 27-H ) :   0.9540 B( 25-C , 28-C ) :   1.0673
B( 28-C , 29-H ) :   0.9765 B( 28-C , 30-H ) :   0.9778 B( 28-C , 31-H ) :   0.9754

Dispersion correction           -0.015815327
FINAL SINGLE POINT ENERGY     -1339.859173077699

DIPOLE MOMENT
-------------
                                X             Y             Z
Electronic contribution:     27.38941      -7.04411      -5.52541
Nuclear contribution   :    -27.94444       7.26830       5.38667
                        -----------------------------------------
Total Dipole Moment    :     -0.55502       0.22419      -0.13874
                        -----------------------------------------
Magnitude (a.u.)       :      0.61446
Magnitude (Debye)      :      1.56184

Rotational constants in cm-1:     0.019180     0.009952     0.007594
Rotational constants in MHz :   574.992287   298.367529   227.648265

                             ****ORCA TERMINATED NORMALLY****
TOTAL RUN TIME: 0 days 0 hours 0 minutes 23 seconds 206 msec
