                         Program Version 4.2.1 -  RELEASE  -
|  1> ! wB97X-D3 SP def2-SVP
|  2> %pal
|  3> nprocs 24
|  4> end
|  5>
|  6> * xyz 0 1
|  7> S 	 -57.9065 	 13.5511 	 -94.2621
|  8> C 	 -56.7934 	 12.3078 	 -93.9448
|  9> C 	 -55.9241 	 12.6739 	 -92.8922
| 10> C 	 -56.1565 	 13.9483 	 -92.4217
| 11> C 	 -57.1054 	 14.5471 	 -93.1789
| 12> H 	 -55.6785 	 14.4759 	 -91.6589
| 13> C 	 -54.836 	 11.8158 	 -92.2215
| 14> H 	 -53.8688 	 12.2388 	 -92.4905
| 15> H 	 -54.8507 	 10.7917 	 -92.499
| 16> C 	 -54.9183 	 11.7594 	 -90.7241
| 17> H 	 -54.659 	 12.7388 	 -90.3792
| 18> H 	 -55.9762 	 11.5893 	 -90.319
| 19> C 	 -54.1338 	 10.6228 	 -90.0359
| 20> H 	 -53.116 	 10.8973 	 -89.8657
| 21> H 	 -54.5314 	 10.3051 	 -89.0053
| 22> H 	 -54.1351 	 9.73826 	 -90.6371
| 23> S 	 -59.2711 	 16.3169 	 -93.1697
| 24> C 	 -59.0785 	 18.0175 	 -92.7351
| 25> C 	 -57.7586 	 18.2481 	 -92.3942
| 26> C 	 -56.8789 	 17.0619 	 -92.5852
| 27> C 	 -57.5278 	 15.9463 	 -93.1136
| 28> H 	 -57.5046 	 19.2568 	 -92.0203
| 29> C 	 -55.406 	 17.2082 	 -92.1733
| 30> H 	 -54.9098 	 18.0998 	 -92.5557
| 31> H 	 -54.8068 	 16.4703 	 -92.6473
| 32> C 	 -55.0896 	 17.1949 	 -90.6767
| 33> H 	 -55.6782 	 16.4753 	 -90.1149
| 34> H 	 -55.3321 	 18.1957 	 -90.2003
| 35> C 	 -53.5964 	 16.9752 	 -90.3809
| 36> H 	 -53.2674 	 16.0635 	 -90.8676
| 37> H 	 -53.4505 	 16.9864 	 -89.3135
| 38> H 	 -52.9968 	 17.7811 	 -90.73
| 39> H 	 -56.7855 	 11.3564 	 -94.3982
| 40> H 	 -59.7267 	 18.7966 	 -92.8992
| 41> *
| 42>
| 43>                          ****END OF INPUT****

CARTESIAN COORDINATES (ANGSTROEM)
---------------------------------
  S    -57.906500   13.551100  -94.262100
  C    -56.793400   12.307800  -93.944800
  C    -55.924100   12.673900  -92.892200
  C    -56.156500   13.948300  -92.421700
  C    -57.105400   14.547100  -93.178900
  H    -55.678500   14.475900  -91.658900
  C    -54.836000   11.815800  -92.221500
  H    -53.868800   12.238800  -92.490500
  H    -54.850700   10.791700  -92.499000
  C    -54.918300   11.759400  -90.724100
  H    -54.659000   12.738800  -90.379200
  H    -55.976200   11.589300  -90.319000
  C    -54.133800   10.622800  -90.035900
  H    -53.116000   10.897300  -89.865700
  H    -54.531400   10.305100  -89.005300
  H    -54.135100    9.738260  -90.637100
  S    -59.271100   16.316900  -93.169700
  C    -59.078500   18.017500  -92.735100
  C    -57.758600   18.248100  -92.394200
  C    -56.878900   17.061900  -92.585200
  C    -57.527800   15.946300  -93.113600
  H    -57.504600   19.256800  -92.020300
  C    -55.406000   17.208200  -92.173300
  H    -54.909800   18.099800  -92.555700
  H    -54.806800   16.470300  -92.647300
  C    -55.089600   17.194900  -90.676700
  H    -55.678200   16.475300  -90.114900
  H    -55.332100   18.195700  -90.200300
  C    -53.596400   16.975200  -90.380900
  H    -53.267400   16.063500  -90.867600
  H    -53.450500   16.986400  -89.313500
  H    -52.996800   17.781100  -90.730000
  H    -56.785500   11.356400  -94.398200
  H    -59.726700   18.796600  -92.899200

 Total Charge           Charge          ....    0
 Multiplicity           Mult            ....    1
 Number of Electrons    NEL             ....  134
 Basis Dimension        Dim             ....  322

ORBITAL ENERGIES
----------------

  NO   OCC          E(Eh)            E(eV)
   0   2.0000     -88.970048     -2420.9981
   1   2.0000     -88.961307     -2420.7602
   2   2.0000     -10.331822      -281.1432
   3   2.0000     -10.321731      -280.8686
   4   2.0000     -10.313807      -280.6530
   5   2.0000     -10.312184      -280.6088
   6   2.0000     -10.309509      -280.5360
   7   2.0000     -10.301535      -280.3190
   8   2.0000     -10.300753      -280.2977
   9   2.0000     -10.290809      -280.0272
  10   2.0000     -10.290038      -280.0062
  11   2.0000     -10.288853      -279.9739
  12   2.0000     -10.287122      -279.9268
  13   2.0000     -10.284008      -279.8421
  14   2.0000     -10.281562      -279.7755
  15   2.0000     -10.276801      -279.6460
  16   2.0000      -8.087069      -220.0603
  17   2.0000      -8.075454      -219.7443
  18   2.0000      -6.045205      -164.4984
  19   2.0000      -6.041230      -164.3902
  20   2.0000      -6.038112      -164.3054
  21   2.0000      -6.034340      -164.2027
  22   2.0000      -6.030018      -164.0851
  23   2.0000      -6.025874      -163.9724
  24   2.0000      -1.022765       -27.8308
  25   2.0000      -0.980877       -26.6910
  26   2.0000      -0.917823       -24.9752
  27   2.0000      -0.909054       -24.7366
  28   2.0000      -0.871500       -23.7147
  29   2.0000      -0.862749       -23.4766
  30   2.0000      -0.842474       -22.9249
  31   2.0000      -0.816775       -22.2256
  32   2.0000      -0.784966       -21.3600
  33   2.0000      -0.775326       -21.0977
  34   2.0000      -0.708472       -19.2785
  35   2.0000      -0.698039       -18.9946
  36   2.0000      -0.694409       -18.8958
  37   2.0000      -0.663148       -18.0452
  38   2.0000      -0.647073       -17.6078
  39   2.0000      -0.634745       -17.2723
  40   2.0000      -0.597730       -16.2651
  41   2.0000      -0.572656       -15.5828
  42   2.0000      -0.567239       -15.4354
  43   2.0000      -0.566049       -15.4030
  44   2.0000      -0.529151       -14.3989
  45   2.0000      -0.523552       -14.2466
  46   2.0000      -0.518574       -14.1111
  47   2.0000      -0.513852       -13.9826
  48   2.0000      -0.511565       -13.9204
  49   2.0000      -0.502920       -13.6852
  50   2.0000      -0.495876       -13.4935
  51   2.0000      -0.484272       -13.1777
  52   2.0000      -0.476649       -12.9703
  53   2.0000      -0.466255       -12.6874
  54   2.0000      -0.459977       -12.5166
  55   2.0000      -0.459089       -12.4924
  56   2.0000      -0.445102       -12.1118
  57   2.0000      -0.440589       -11.9890
  58   2.0000      -0.435347       -11.8464
  59   2.0000      -0.428501       -11.6601
  60   2.0000      -0.413993       -11.2653
  61   2.0000      -0.411683       -11.2025
  62   2.0000      -0.407026       -11.0757
  63   2.0000      -0.355004        -9.6601
  64   2.0000      -0.340642        -9.2694
  65   2.0000      -0.323627        -8.8063
  66   2.0000      -0.288641        -7.8543
  67   0.0000       0.024130         0.6566
  68   0.0000       0.080987         2.2038
  69   0.0000       0.104786         2.8514
  70   0.0000       0.118826         3.2334
  71   0.0000       0.120538         3.2800

MULLIKEN ATOMIC CHARGES
-----------------------
   0 S :    0.142137
   1 C :   -0.100278
   2 C :   -0.076977
   3 C :    0.029127
   4 C :   -0.137596
   5 H :   -0.031012
   6 C :    0.124363
   7 H :    0.034439
   8 H :   -0.003150
   9 C :   -0.128201
  10 H :    0.022465
  11 H :    0.043308
  12 C :   -0.044610
  13 H :    0.025304
  14 H :    0.044464
  15 H :    0.024318
  16 S :    0.064064
  17 C :   -0.053872
  18 C :   -0.044920
  19 C :   -0.066711
  20 C :   -0.061214
  21 H :    0.033185
  22 C :    0.057919
  23 H :    0.020676
  24 H :    0.005566
  25 C :   -0.108359
  26 H :    0.035640
  27 H :    0.030521
  28 C :   -0.025395
  29 H :    0.026640
  30 H :    0.033541
  31 H :    0.022122
  32 H :    0.026655
  33 H :    0.035841
Sum of atomic charges:    0.0000000

LOEWDIN ATOMIC CHARGES
----------------------
   0 S :    0.471847
   1 C :   -0.212785
   2 C :   -0.050516
   3 C :   -0.056494
   4 C :   -0.206703
   5 H :    0.025217
   6 C :   -0.026881
   7 H :    0.033568
   8 H :    0.019741
   9 C :   -0.048738
  10 H :    0.014506
  11 H :    0.034554
  12 C :   -0.066118
  13 H :    0.019298
  14 H :    0.037594
  15 H :    0.020343
  16 S :    0.369311
  17 C :   -0.170683
  18 C :   -0.066485
  19 C :   -0.055635
  20 C :   -0.184873
  21 H :    0.035997
  22 C :   -0.040250
  23 H :    0.033320
  24 H :    0.020439
  25 C :   -0.043814
  26 H :    0.019112
  27 H :    0.028033
  28 C :   -0.058367
  29 H :    0.020841
  30 H :    0.027900
  31 H :    0.020745
  32 H :    0.018710
  33 H :    0.017265

  Mayer bond orders larger than 0.100000
B(  0-S ,  1-C ) :   1.1615 B(  0-S ,  4-C ) :   1.1959 B(  1-C ,  2-C ) :   1.5680
B(  1-C ,  4-C ) :   0.1001 B(  1-C , 32-H ) :   0.9781 B(  2-C ,  3-C ) :   1.2666
B(  2-C ,  6-C ) :   1.0241 B(  3-C ,  4-C ) :   1.5349 B(  3-C ,  5-H ) :   1.0103
B(  4-C , 20-C ) :   1.0175 B(  6-C ,  7-H ) :   0.9330 B(  6-C ,  8-H ) :   0.9415
B(  6-C ,  9-C ) :   1.0596 B(  9-C , 10-H ) :   0.9520 B(  9-C , 11-H ) :   0.9635
B(  9-C , 12-C ) :   1.0769 B( 12-C , 13-H ) :   0.9758 B( 12-C , 14-H ) :   0.9780
B( 12-C , 15-H ) :   0.9739 B( 16-S , 17-C ) :   1.1331 B( 16-S , 20-C ) :   1.1097
B( 17-C , 18-C ) :   1.6445 B( 17-C , 33-H ) :   0.9729 B( 18-C , 19-C ) :   1.2036
B( 18-C , 21-H ) :   0.9856 B( 19-C , 20-C ) :   1.6333 B( 19-C , 22-C ) :   1.0440
B( 22-C , 23-H ) :   0.9329 B( 22-C , 24-H ) :   0.9446 B( 22-C , 25-C ) :   1.0509
B( 25-C , 26-H ) :   0.9575 B( 25-C , 27-H ) :   0.9502 B( 25-C , 28-C ) :   1.0876
B( 28-C , 29-H ) :   0.9750 B( 28-C , 30-H ) :   0.9728 B( 28-C , 31-H ) :   0.9736

Dispersion correction           -0.014152653
FINAL SINGLE POINT ENERGY     -1339.862626431174

DIPOLE MOMENT
-------------
                                X             Y             Z
Electronic contribution:    -26.19976       5.16289     -19.93850
Nuclear contribution   :     26.83555      -5.10121      20.34890
                        -----------------------------------------
Total Dipole Moment    :      0.63579       0.06167       0.41041
                        -----------------------------------------
Magnitude (a.u.)       :      0.75926
Magnitude (Debye)      :      1.92988

Rotational constants in cm-1:     0.017047     0.009696     0.006678
Rotational constants in MHz :   511.063464   290.676049   200.215295

                             ****ORCA TERMINATED NORMALLY****
TOTAL RUN TIME: 0 days 0 hours 0 minutes 20 seconds 955 msec
