                         Program Version 4.2.1 -  RELEASE  -
|  1> ! wB97X-D3 SP def2-SVP
|  2> %pal
|  3> nprocs 24
|  4> end
|  5>
|  6> * xyz 0 1
|  7> S 	 -33.3406 	 -36.8756 	 -94.1173
|  8> C 	 -31.9879 	 -36.4956 	 -92.9991
|  9> C 	 -32.4993 	 -36.0583 	 -91.7858
| 10> C 	 -33.9315 	 -35.9396 	 -91.8126
| 11> C 	 -34.5028 	 -36.2624 	 -92.9577
| 12> H 	 -34.4865 	 -35.6137 	 -90.9783
| 13> C 	 -31.658 	 -35.7082 	 -90.5912
| 14> H 	 -32.2884 	 -35.1364 	 -89.9583
| 15> H 	 -30.9192 	 -35.0264 	 -91.0007
| 16> C 	 -30.8569 	 -36.8334 	 -89.7935
| 17> H 	 -30.0677 	 -37.16 	 -90.4087
| 18> H 	 -30.3539 	 -36.3797 	 -88.9335
| 19> C 	 -31.6688 	 -37.9947 	 -89.4394
| 20> H 	 -31.9633 	 -38.4884 	 -90.3569
| 21> H 	 -31.0193 	 -38.6864 	 -88.981
| 22> H 	 -32.6055 	 -37.8858 	 -88.8788
| 23> S 	 -36.5664 	 -37.6229 	 -94.2476
| 24> C 	 -38.1821 	 -36.9088 	 -94.1923
| 25> C 	 -38.1757 	 -35.6384 	 -93.6882
| 26> C 	 -36.9098 	 -35.277 	 -93.0842
| 27> C 	 -35.9082 	 -36.1991 	 -93.3259
| 28> H 	 -39.073 	 -35.0711 	 -93.6759
| 29> C 	 -36.7375 	 -33.9462 	 -92.4465
| 30> H 	 -35.7496 	 -33.9286 	 -92.0835
| 31> H 	 -37.3468 	 -33.7784 	 -91.6135
| 32> C 	 -37.0827 	 -32.6454 	 -93.2278
| 33> H 	 -38.2003 	 -32.6886 	 -93.3263
| 34> H 	 -36.5974 	 -32.8328 	 -94.2298
| 35> C 	 -36.7124 	 -31.3045 	 -92.507
| 36> H 	 -37.4117 	 -30.5285 	 -92.9163
| 37> H 	 -35.6423 	 -31.1341 	 -92.4244
| 38> H 	 -36.9806 	 -31.3401 	 -91.4495
| 39> H 	 -30.9783 	 -36.6835 	 -93.2069
| 40> H 	 -39.0891 	 -37.4216 	 -94.5487
| 41> *
| 42>
| 43>                          ****END OF INPUT****

CARTESIAN COORDINATES (ANGSTROEM)
---------------------------------
  S    -33.340600  -36.875600  -94.117300
  C    -31.987900  -36.495600  -92.999100
  C    -32.499300  -36.058300  -91.785800
  C    -33.931500  -35.939600  -91.812600
  C    -34.502800  -36.262400  -92.957700
  H    -34.486500  -35.613700  -90.978300
  C    -31.658000  -35.708200  -90.591200
  H    -32.288400  -35.136400  -89.958300
  H    -30.919200  -35.026400  -91.000700
  C    -30.856900  -36.833400  -89.793500
  H    -30.067700  -37.160000  -90.408700
  H    -30.353900  -36.379700  -88.933500
  C    -31.668800  -37.994700  -89.439400
  H    -31.963300  -38.488400  -90.356900
  H    -31.019300  -38.686400  -88.981000
  H    -32.605500  -37.885800  -88.878800
  S    -36.566400  -37.622900  -94.247600
  C    -38.182100  -36.908800  -94.192300
  C    -38.175700  -35.638400  -93.688200
  C    -36.909800  -35.277000  -93.084200
  C    -35.908200  -36.199100  -93.325900
  H    -39.073000  -35.071100  -93.675900
  C    -36.737500  -33.946200  -92.446500
  H    -35.749600  -33.928600  -92.083500
  H    -37.346800  -33.778400  -91.613500
  C    -37.082700  -32.645400  -93.227800
  H    -38.200300  -32.688600  -93.326300
  H    -36.597400  -32.832800  -94.229800
  C    -36.712400  -31.304500  -92.507000
  H    -37.411700  -30.528500  -92.916300
  H    -35.642300  -31.134100  -92.424400
  H    -36.980600  -31.340100  -91.449500
  H    -30.978300  -36.683500  -93.206900
  H    -39.089100  -37.421600  -94.548700

 Total Charge           Charge          ....    0
 Multiplicity           Mult            ....    1
 Number of Electrons    NEL             ....  134
 Basis Dimension        Dim             ....  322

ORBITAL ENERGIES
----------------

  NO   OCC          E(Eh)            E(eV)
   0   2.0000     -88.963925     -2420.8315
   1   2.0000     -88.962893     -2420.8034
   2   2.0000     -10.332234      -281.1544
   3   2.0000     -10.325282      -280.9652
   4   2.0000     -10.321030      -280.8495
   5   2.0000     -10.313135      -280.6347
   6   2.0000     -10.306422      -280.4520
   7   2.0000     -10.301581      -280.3203
   8   2.0000     -10.297062      -280.1973
   9   2.0000     -10.292677      -280.0780
  10   2.0000     -10.288390      -279.9613
  11   2.0000     -10.288366      -279.9607
  12   2.0000     -10.285032      -279.8699
  13   2.0000     -10.284572      -279.8574
  14   2.0000     -10.278436      -279.6905
  15   2.0000     -10.265670      -279.3431
  16   2.0000      -8.077695      -219.8052
  17   2.0000      -8.077256      -219.7933
  18   2.0000      -6.036420      -164.2593
  19   2.0000      -6.036021      -164.2485
  20   2.0000      -6.032475      -164.1520
  21   2.0000      -6.031883      -164.1359
  22   2.0000      -6.028142      -164.0341
  23   2.0000      -6.027693      -164.0219
  24   2.0000      -1.005369       -27.3575
  25   2.0000      -0.979716       -26.6594
  26   2.0000      -0.913534       -24.8585
  27   2.0000      -0.907263       -24.6879
  28   2.0000      -0.872753       -23.7488
  29   2.0000      -0.853314       -23.2198
  30   2.0000      -0.843717       -22.9587
  31   2.0000      -0.821179       -22.3454
  32   2.0000      -0.785348       -21.3704
  33   2.0000      -0.774025       -21.0623
  34   2.0000      -0.708276       -19.2732
  35   2.0000      -0.705532       -19.1985
  36   2.0000      -0.695550       -18.9269
  37   2.0000      -0.659417       -17.9436
  38   2.0000      -0.643659       -17.5148
  39   2.0000      -0.620252       -16.8779
  40   2.0000      -0.597771       -16.2662
  41   2.0000      -0.572123       -15.5683
  42   2.0000      -0.569421       -15.4947
  43   2.0000      -0.552677       -15.0391
  44   2.0000      -0.548473       -14.9247
  45   2.0000      -0.528422       -14.3791
  46   2.0000      -0.520372       -14.1600
  47   2.0000      -0.509482       -13.8637
  48   2.0000      -0.505730       -13.7616
  49   2.0000      -0.503421       -13.6988
  50   2.0000      -0.488751       -13.2996
  51   2.0000      -0.477947       -13.0056
  52   2.0000      -0.474872       -12.9219
  53   2.0000      -0.463529       -12.6133
  54   2.0000      -0.460951       -12.5431
  55   2.0000      -0.453110       -12.3297
  56   2.0000      -0.442468       -12.0402
  57   2.0000      -0.433035       -11.7835
  58   2.0000      -0.428647       -11.6641
  59   2.0000      -0.423947       -11.5362
  60   2.0000      -0.419888       -11.4257
  61   2.0000      -0.414016       -11.2660
  62   2.0000      -0.413434       -11.2501
  63   2.0000      -0.354040        -9.6339
  64   2.0000      -0.330582        -8.9956
  65   2.0000      -0.327856        -8.9214
  66   2.0000      -0.289929        -7.8894
  67   0.0000       0.028853         0.7851
  68   0.0000       0.066279         1.8035
  69   0.0000       0.101022         2.7490
  70   0.0000       0.120136         3.2691
  71   0.0000       0.134896         3.6707

MULLIKEN ATOMIC CHARGES
-----------------------
   0 S :    0.088269
   1 C :   -0.105186
   2 C :   -0.113142
   3 C :    0.023467
   4 C :   -0.106271
   5 H :   -0.005213
   6 C :    0.078057
   7 H :    0.005121
   8 H :    0.032061
   9 C :   -0.035449
  10 H :    0.010230
  11 H :    0.028471
  12 C :   -0.026356
  13 H :    0.028969
  14 H :    0.019069
  15 H :    0.035314
  16 S :    0.082194
  17 C :   -0.094163
  18 C :   -0.017137
  19 C :   -0.037826
  20 C :   -0.130355
  21 H :    0.010539
  22 C :    0.106898
  23 H :   -0.007296
  24 H :    0.003988
  25 C :   -0.129015
  26 H :    0.032230
  27 H :    0.051766
  28 C :   -0.039457
  29 H :    0.052837
  30 H :    0.046129
  31 H :    0.016107
  32 H :    0.027334
  33 H :    0.067817
Sum of atomic charges:    0.0000000

LOEWDIN ATOMIC CHARGES
----------------------
   0 S :    0.377182
   1 C :   -0.173495
   2 C :   -0.056292
   3 C :   -0.067268
   4 C :   -0.181386
   5 H :    0.025480
   6 C :   -0.031269
   7 H :    0.021180
   8 H :    0.036165
   9 C :   -0.031084
  10 H :    0.019189
  11 H :    0.025707
  12 C :   -0.067047
  13 H :    0.029204
  14 H :    0.022864
  15 H :    0.027119
  16 S :    0.359569
  17 C :   -0.170754
  18 C :   -0.067039
  19 C :   -0.049154
  20 C :   -0.168893
  21 H :    0.027223
  22 C :   -0.038246
  23 H :    0.019257
  24 H :    0.022794
  25 C :   -0.039995
  26 H :    0.023653
  27 H :    0.030261
  28 C :   -0.071254
  29 H :    0.039885
  30 H :    0.029938
  31 H :    0.024454
  32 H :    0.016458
  33 H :    0.035594

  Mayer bond orders larger than 0.100000
B(  0-S ,  1-C ) :   1.1119 B(  0-S ,  4-C ) :   1.1285 B(  1-C ,  2-C ) :   1.6219
B(  1-C , 32-H ) :   0.9831 B(  2-C ,  3-C ) :   1.2082 B(  2-C ,  6-C ) :   1.0146
B(  3-C ,  4-C ) :   1.6151 B(  3-C ,  5-H ) :   1.0027 B(  4-C , 20-C ) :   1.0310
B(  6-C ,  7-H ) :   0.9408 B(  6-C ,  8-H ) :   0.9385 B(  6-C ,  9-C ) :   1.0645
B(  9-C , 10-H ) :   0.9489 B(  9-C , 11-H ) :   0.9553 B(  9-C , 12-C ) :   1.0965
B( 12-C , 13-H ) :   0.9626 B( 12-C , 14-H ) :   0.9670 B( 12-C , 15-H ) :   0.9775
B( 16-S , 17-C ) :   1.1352 B( 16-S , 20-C ) :   1.1035 B( 17-C , 18-C ) :   1.6512
B( 17-C , 33-H ) :   0.9624 B( 18-C , 19-C ) :   1.1840 B( 18-C , 21-H ) :   0.9952
B( 19-C , 20-C ) :   1.6335 B( 19-C , 22-C ) :   1.0755 B( 22-C , 23-H ) :   0.9266
B( 22-C , 24-H ) :   0.9161 B( 22-C , 25-C ) :   1.0485 B( 25-C , 26-H ) :   0.9544
B( 25-C , 27-H ) :   0.9612 B( 25-C , 28-C ) :   1.0744 B( 28-C , 29-H ) :   0.9743
B( 28-C , 30-H ) :   0.9753 B( 28-C , 31-H ) :   0.9693

Dispersion correction           -0.013833750
FINAL SINGLE POINT ENERGY     -1339.865329607963

DIPOLE MOMENT
-------------
                                X             Y             Z
Electronic contribution:     -5.28445     -15.39783     -18.17038
Nuclear contribution   :      5.25646      15.83173      18.75786
                        -----------------------------------------
Total Dipole Moment    :     -0.02799       0.43390       0.58748
                        -----------------------------------------
Magnitude (a.u.)       :      0.73088
Magnitude (Debye)      :      1.85774

Rotational constants in cm-1:     0.018116     0.008246     0.006560
Rotational constants in MHz :   543.109602   247.214164   196.676253

                             ****ORCA TERMINATED NORMALLY****
TOTAL RUN TIME: 0 days 0 hours 0 minutes 21 seconds 192 msec
