                         Program Version 4.2.1 -  RELEASE  -
|  1> ! wB97X-D3 SP def2-SVP
|  2> %pal
|  3> nprocs 24
|  4> end
|  5>
|  6> * xyz 0 1
|  7> S 	 -40.1905 	 14.4091 	 15.6226
|  8> C 	 -41.6697 	 14.3673 	 16.4487
|  9> C 	 -42.3245 	 15.5815 	 16.2947
| 10> C 	 -41.7097 	 16.443 	 15.3178
| 11> C 	 -40.5346 	 15.9703 	 14.8366
| 12> H 	 -42.0982 	 17.4467 	 15.1102
| 13> C 	 -43.5356 	 15.976 	 17.1005
| 14> H 	 -43.4239 	 17.0376 	 17.5603
| 15> H 	 -43.5621 	 15.3383 	 17.9947
| 16> C 	 -44.8335 	 15.8239 	 16.2639
| 17> H 	 -44.8506 	 16.5551 	 15.5027
| 18> H 	 -44.7977 	 14.8974 	 15.6154
| 19> C 	 -46.1414 	 15.9884 	 17.0178
| 20> H 	 -47.0015 	 15.6838 	 16.5081
| 21> H 	 -46.1539 	 15.2163 	 17.7904
| 22> H 	 -46.1737 	 17.0203 	 17.4454
| 23> S 	 -39.073 	 15.4369 	 12.3854
| 24> C 	 -38.3117 	 16.7178 	 11.5097
| 25> C 	 -38.3692 	 17.8938 	 12.2469
| 26> C 	 -39.1186 	 17.8072 	 13.5081
| 27> C 	 -39.6586 	 16.5472 	 13.7859
| 28> H 	 -37.7407 	 18.7743 	 12.0964
| 29> C 	 -39.0765 	 19.0321 	 14.4707
| 30> H 	 -40.0865 	 19.1254 	 14.9357
| 31> H 	 -38.8815 	 19.8751 	 13.7781
| 32> C 	 -37.9241 	 19.1588 	 15.4853
| 33> H 	 -38.2452 	 18.5923 	 16.3808
| 34> H 	 -37.8352 	 20.2193 	 15.6246
| 35> C 	 -36.5577 	 18.5646 	 14.9821
| 36> H 	 -35.7053 	 18.8351 	 15.5818
| 37> H 	 -36.3599 	 19.0204 	 14.0234
| 38> H 	 -36.6318 	 17.4978 	 14.6118
| 39> H 	 -41.9707 	 13.6031 	 17.1686
| 40> H 	 -37.6881 	 16.6631 	 10.5547
| 41> *
| 42>
| 43>                          ****END OF INPUT****

CARTESIAN COORDINATES (ANGSTROEM)
---------------------------------
  S    -40.190500   14.409100   15.622600
  C    -41.669700   14.367300   16.448700
  C    -42.324500   15.581500   16.294700
  C    -41.709700   16.443000   15.317800
  C    -40.534600   15.970300   14.836600
  H    -42.098200   17.446700   15.110200
  C    -43.535600   15.976000   17.100500
  H    -43.423900   17.037600   17.560300
  H    -43.562100   15.338300   17.994700
  C    -44.833500   15.823900   16.263900
  H    -44.850600   16.555100   15.502700
  H    -44.797700   14.897400   15.615400
  C    -46.141400   15.988400   17.017800
  H    -47.001500   15.683800   16.508100
  H    -46.153900   15.216300   17.790400
  H    -46.173700   17.020300   17.445400
  S    -39.073000   15.436900   12.385400
  C    -38.311700   16.717800   11.509700
  C    -38.369200   17.893800   12.246900
  C    -39.118600   17.807200   13.508100
  C    -39.658600   16.547200   13.785900
  H    -37.740700   18.774300   12.096400
  C    -39.076500   19.032100   14.470700
  H    -40.086500   19.125400   14.935700
  H    -38.881500   19.875100   13.778100
  C    -37.924100   19.158800   15.485300
  H    -38.245200   18.592300   16.380800
  H    -37.835200   20.219300   15.624600
  C    -36.557700   18.564600   14.982100
  H    -35.705300   18.835100   15.581800
  H    -36.359900   19.020400   14.023400
  H    -36.631800   17.497800   14.611800
  H    -41.970700   13.603100   17.168600
  H    -37.688100   16.663100   10.554700

 Total Charge           Charge          ....    0
 Multiplicity           Mult            ....    1
 Number of Electrons    NEL             ....  134
 Basis Dimension        Dim             ....  322

ORBITAL ENERGIES
----------------

  NO   OCC          E(Eh)            E(eV)
   0   2.0000     -88.965949     -2420.8866
   1   2.0000     -88.964239     -2420.8400
   2   2.0000     -10.343183      -281.4523
   3   2.0000     -10.336791      -281.2784
   4   2.0000     -10.329036      -281.0674
   5   2.0000     -10.315235      -280.6918
   6   2.0000     -10.313369      -280.6410
   7   2.0000     -10.301691      -280.3233
   8   2.0000     -10.301277      -280.3120
   9   2.0000     -10.299264      -280.2572
  10   2.0000     -10.298181      -280.2278
  11   2.0000     -10.297523      -280.2098
  12   2.0000     -10.290669      -280.0233
  13   2.0000     -10.285139      -279.8729
  14   2.0000     -10.278949      -279.7044
  15   2.0000     -10.276133      -279.6278
  16   2.0000      -8.081307      -219.9035
  17   2.0000      -8.077637      -219.8037
  18   2.0000      -6.039832      -164.3522
  19   2.0000      -6.036417      -164.2592
  20   2.0000      -6.035708      -164.2400
  21   2.0000      -6.032261      -164.1462
  22   2.0000      -6.032004      -164.1392
  23   2.0000      -6.028210      -164.0359
  24   2.0000      -1.004918       -27.3452
  25   2.0000      -0.977190       -26.5907
  26   2.0000      -0.908880       -24.7319
  27   2.0000      -0.903435       -24.5837
  28   2.0000      -0.870446       -23.6861
  29   2.0000      -0.851360       -23.1667
  30   2.0000      -0.836932       -22.7741
  31   2.0000      -0.814750       -22.1705
  32   2.0000      -0.782396       -21.2901
  33   2.0000      -0.769095       -20.9281
  34   2.0000      -0.710155       -19.3243
  35   2.0000      -0.697926       -18.9915
  36   2.0000      -0.684561       -18.6279
  37   2.0000      -0.658860       -17.9285
  38   2.0000      -0.643819       -17.5192
  39   2.0000      -0.620954       -16.8970
  40   2.0000      -0.579973       -15.7819
  41   2.0000      -0.569624       -15.5003
  42   2.0000      -0.561860       -15.2890
  43   2.0000      -0.553834       -15.0706
  44   2.0000      -0.542115       -14.7517
  45   2.0000      -0.526955       -14.3392
  46   2.0000      -0.514991       -14.0136
  47   2.0000      -0.513065       -13.9612
  48   2.0000      -0.506504       -13.7827
  49   2.0000      -0.500874       -13.6295
  50   2.0000      -0.481614       -13.1054
  51   2.0000      -0.475351       -12.9349
  52   2.0000      -0.471822       -12.8389
  53   2.0000      -0.463167       -12.6034
  54   2.0000      -0.453816       -12.3489
  55   2.0000      -0.448752       -12.2112
  56   2.0000      -0.444714       -12.1013
  57   2.0000      -0.436180       -11.8691
  58   2.0000      -0.433432       -11.7943
  59   2.0000      -0.423054       -11.5119
  60   2.0000      -0.413404       -11.2493
  61   2.0000      -0.411242       -11.1905
  62   2.0000      -0.404672       -11.0117
  63   2.0000      -0.356229        -9.6935
  64   2.0000      -0.328655        -8.9432
  65   2.0000      -0.323970        -8.8157
  66   2.0000      -0.294775        -8.0212
  67   0.0000       0.024879         0.6770
  68   0.0000       0.063620         1.7312
  69   0.0000       0.103919         2.8278
  70   0.0000       0.117427         3.1954
  71   0.0000       0.127742         3.4760

MULLIKEN ATOMIC CHARGES
-----------------------
   0 S :    0.113047
   1 C :   -0.109635
   2 C :   -0.124365
   3 C :    0.042129
   4 C :   -0.141499
   5 H :    0.022008
   6 C :    0.036354
   7 H :    0.045144
   8 H :    0.016368
   9 C :   -0.088742
  10 H :    0.012716
  11 H :    0.034715
  12 C :   -0.007646
  13 H :    0.022160
  14 H :    0.014418
  15 H :    0.043454
  16 S :    0.080995
  17 C :   -0.096617
  18 C :   -0.052927
  19 C :   -0.078879
  20 C :   -0.133213
  21 H :    0.029141
  22 C :    0.034412
  23 H :    0.039312
  24 H :    0.019718
  25 C :   -0.047254
  26 H :    0.045949
  27 H :    0.034681
  28 C :   -0.060714
  29 H :    0.043258
  30 H :   -0.003534
  31 H :    0.061810
  32 H :    0.060395
  33 H :    0.092841
Sum of atomic charges:    0.0000000

LOEWDIN ATOMIC CHARGES
----------------------
   0 S :    0.415906
   1 C :   -0.210926
   2 C :   -0.068492
   3 C :   -0.059059
   4 C :   -0.186933
   5 H :    0.035682
   6 C :   -0.037422
   7 H :    0.040150
   8 H :    0.026158
   9 C :   -0.048458
  10 H :    0.014983
  11 H :    0.031961
  12 C :   -0.065185
  13 H :    0.021072
  14 H :    0.023675
  15 H :    0.033317
  16 S :    0.362486
  17 C :   -0.198380
  18 C :   -0.088754
  19 C :   -0.054519
  20 C :   -0.164487
  21 H :    0.028477
  22 C :   -0.035261
  23 H :    0.034341
  24 H :    0.029913
  25 C :   -0.033885
  26 H :    0.027952
  27 H :    0.025432
  28 C :   -0.074743
  29 H :    0.026194
  30 H :    0.016628
  31 H :    0.041463
  32 H :    0.035930
  33 H :    0.054785

  Mayer bond orders larger than 0.100000
B(  0-S ,  1-C ) :   1.1518 B(  0-S ,  4-C ) :   1.1462 B(  1-C ,  2-C ) :   1.5982
B(  1-C , 32-H ) :   0.9645 B(  2-C ,  3-C ) :   1.2468 B(  2-C ,  6-C ) :   1.0346
B(  3-C ,  4-C ) :   1.5815 B(  3-C ,  5-H ) :   0.9911 B(  4-C , 20-C ) :   1.0396
B(  6-C ,  7-H ) :   0.9406 B(  6-C ,  8-H ) :   0.9446 B(  6-C ,  9-C ) :   1.0415
B(  9-C , 10-H ) :   0.9548 B(  9-C , 11-H ) :   0.9551 B(  9-C , 12-C ) :   1.0867
B( 12-C , 13-H ) :   0.9709 B( 12-C , 14-H ) :   0.9728 B( 12-C , 15-H ) :   0.9716
B( 16-S , 17-C ) :   1.1606 B( 16-S , 20-C ) :   1.0921 B( 17-C , 18-C ) :   1.6094
B( 17-C , 33-H ) :   0.9527 B( 18-C , 19-C ) :   1.2379 B( 18-C , 21-H ) :   0.9765
B( 19-C , 20-C ) :   1.6168 B( 19-C , 22-C ) :   1.0362 B( 22-C , 23-H ) :   0.9417
B( 22-C , 24-H ) :   0.9348 B( 22-C , 25-C ) :   1.0605 B( 25-C , 26-H ) :   0.9579
B( 25-C , 27-H ) :   0.9578 B( 25-C , 28-C ) :   1.0885 B( 28-C , 29-H ) :   0.9735
B( 28-C , 30-H ) :   0.9684 B( 28-C , 31-H ) :   0.9645

Dispersion correction           -0.014283462
FINAL SINGLE POINT ENERGY     -1339.860361334976

DIPOLE MOMENT
-------------
                                X             Y             Z
Electronic contribution:     10.30813     -14.93570     -11.85140
Nuclear contribution   :    -10.44357      15.48975      12.14979
                        -----------------------------------------
Total Dipole Moment    :     -0.13544       0.55406       0.29839
                        -----------------------------------------
Magnitude (a.u.)       :      0.64371
Magnitude (Debye)      :      1.63618

Rotational constants in cm-1:     0.021969     0.007088     0.006485
Rotational constants in MHz :   658.619695   212.497736   194.419942

                             ****ORCA TERMINATED NORMALLY****
TOTAL RUN TIME: 0 days 0 hours 0 minutes 21 seconds 68 msec
