                         Program Version 4.2.1 -  RELEASE  -
|  1> ! wB97X-D3 SP def2-SVP
|  2> %pal
|  3> nprocs 24
|  4> end
|  5>
|  6> * xyz 0 1
|  7> S 	 -100.011 	 1.57723 	 -105.684
|  8> C 	 -98.8893 	 2.30383 	 -106.903
|  9> C 	 -98.437 	 3.53243 	 -106.52
| 10> C 	 -99.0785 	 3.97293 	 -105.348
| 11> C 	 -99.8992 	 3.03464 	 -104.734
| 12> H 	 -98.9544 	 4.89122 	 -104.908
| 13> C 	 -97.5424 	 4.47387 	 -107.308
| 14> H 	 -97.8876 	 4.52992 	 -108.348
| 15> H 	 -96.5542 	 4.13304 	 -107.114
| 16> C 	 -97.5983 	 5.92744 	 -106.835
| 17> H 	 -98.6279 	 6.25202 	 -106.815
| 18> H 	 -97.2627 	 6.07196 	 -105.856
| 19> C 	 -96.7643 	 6.85078 	 -107.734
| 20> H 	 -95.7461 	 6.81213 	 -107.254
| 21> H 	 -96.7102 	 6.65162 	 -108.833
| 22> H 	 -97.1159 	 7.83853 	 -107.505
| 23> S 	 -102.136 	 3.00801 	 -102.983
| 24> C 	 -101.931 	 3.12629 	 -101.264
| 25> C 	 -100.612 	 3.46426 	 -100.982
| 26> C 	 -99.777 	 3.37255 	 -102.151
| 27> C 	 -100.444 	 3.19511 	 -103.375
| 28> H 	 -100.414 	 3.6028 	 -99.8985
| 29> C 	 -98.2654 	 3.5267 	 -101.959
| 30> H 	 -98.0001 	 4.40513 	 -101.361
| 31> H 	 -97.8211 	 3.6484 	 -102.964
| 32> C 	 -97.4339 	 2.30355 	 -101.462
| 33> H 	 -97.6654 	 1.50172 	 -102.059
| 34> H 	 -97.7143 	 2.07394 	 -100.459
| 35> C 	 -95.9295 	 2.45198 	 -101.496
| 36> H 	 -95.55 	 3.34383 	 -101.107
| 37> H 	 -95.5292 	 2.42295 	 -102.592
| 38> H 	 -95.504 	 1.48156 	 -101.092
| 39> H 	 -98.7237 	 1.97948 	 -107.885
| 40> H 	 -102.66 	 3.08274 	 -100.406
| 41> *
| 42>
| 43>                          ****END OF INPUT****

CARTESIAN COORDINATES (ANGSTROEM)
---------------------------------
  S    -100.011000    1.577230  -105.684000
  C    -98.889300    2.303830  -106.903000
  C    -98.437000    3.532430  -106.520000
  C    -99.078500    3.972930  -105.348000
  C    -99.899200    3.034640  -104.734000
  H    -98.954400    4.891220  -104.908000
  C    -97.542400    4.473870  -107.308000
  H    -97.887600    4.529920  -108.348000
  H    -96.554200    4.133040  -107.114000
  C    -97.598300    5.927440  -106.835000
  H    -98.627900    6.252020  -106.815000
  H    -97.262700    6.071960  -105.856000
  C    -96.764300    6.850780  -107.734000
  H    -95.746100    6.812130  -107.254000
  H    -96.710200    6.651620  -108.833000
  H    -97.115900    7.838530  -107.505000
  S    -102.136000    3.008010  -102.983000
  C    -101.931000    3.126290  -101.264000
  C    -100.612000    3.464260  -100.982000
  C    -99.777000    3.372550  -102.151000
  C    -100.444000    3.195110  -103.375000
  H    -100.414000    3.602800  -99.898500
  C    -98.265400    3.526700  -101.959000
  H    -98.000100    4.405130  -101.361000
  H    -97.821100    3.648400  -102.964000
  C    -97.433900    2.303550  -101.462000
  H    -97.665400    1.501720  -102.059000
  H    -97.714300    2.073940  -100.459000
  C    -95.929500    2.451980  -101.496000
  H    -95.550000    3.343830  -101.107000
  H    -95.529200    2.422950  -102.592000
  H    -95.504000    1.481560  -101.092000
  H    -98.723700    1.979480  -107.885000
  H    -102.660000    3.082740  -100.406000

 Total Charge           Charge          ....    0
 Multiplicity           Mult            ....    1
 Number of Electrons    NEL             ....  134
 Basis Dimension        Dim             ....  322

ORBITAL ENERGIES
----------------

  NO   OCC          E(Eh)            E(eV)
   0   2.0000     -88.969919     -2420.9946
   1   2.0000     -88.965773     -2420.8817
   2   2.0000     -10.331717      -281.1403
   3   2.0000     -10.330951      -281.1195
   4   2.0000     -10.322391      -280.8865
   5   2.0000     -10.312090      -280.6062
   6   2.0000     -10.309380      -280.5325
   7   2.0000     -10.297006      -280.1958
   8   2.0000     -10.296463      -280.1810
   9   2.0000     -10.292801      -280.0814
  10   2.0000     -10.287766      -279.9443
  11   2.0000     -10.285682      -279.8876
  12   2.0000     -10.284629      -279.8590
  13   2.0000     -10.281908      -279.7849
  14   2.0000     -10.281719      -279.7798
  15   2.0000     -10.272320      -279.5240
  16   2.0000      -8.083581      -219.9654
  17   2.0000      -8.080528      -219.8824
  18   2.0000      -6.042174      -164.4159
  19   2.0000      -6.039088      -164.3319
  20   2.0000      -6.038268      -164.3096
  21   2.0000      -6.034816      -164.2157
  22   2.0000      -6.034278      -164.2011
  23   2.0000      -6.031414      -164.1231
  24   2.0000      -1.004734       -27.3402
  25   2.0000      -0.984738       -26.7961
  26   2.0000      -0.918743       -25.0003
  27   2.0000      -0.903584       -24.5878
  28   2.0000      -0.871731       -23.7210
  29   2.0000      -0.850303       -23.1379
  30   2.0000      -0.845247       -23.0003
  31   2.0000      -0.816492       -22.2179
  32   2.0000      -0.783627       -21.3236
  33   2.0000      -0.768652       -20.9161
  34   2.0000      -0.714096       -19.4315
  35   2.0000      -0.696071       -18.9410
  36   2.0000      -0.690896       -18.8002
  37   2.0000      -0.651059       -17.7162
  38   2.0000      -0.641613       -17.4592
  39   2.0000      -0.625698       -17.0261
  40   2.0000      -0.590289       -16.0626
  41   2.0000      -0.586934       -15.9713
  42   2.0000      -0.573550       -15.6071
  43   2.0000      -0.564834       -15.3699
  44   2.0000      -0.529094       -14.3974
  45   2.0000      -0.523554       -14.2466
  46   2.0000      -0.515822       -14.0362
  47   2.0000      -0.508278       -13.8309
  48   2.0000      -0.504208       -13.7202
  49   2.0000      -0.497360       -13.5339
  50   2.0000      -0.494934       -13.4678
  51   2.0000      -0.484836       -13.1931
  52   2.0000      -0.472484       -12.8569
  53   2.0000      -0.463046       -12.6001
  54   2.0000      -0.458252       -12.4697
  55   2.0000      -0.453247       -12.3335
  56   2.0000      -0.436955       -11.8901
  57   2.0000      -0.433569       -11.7980
  58   2.0000      -0.431910       -11.7529
  59   2.0000      -0.424138       -11.5414
  60   2.0000      -0.418662       -11.3924
  61   2.0000      -0.414587       -11.2815
  62   2.0000      -0.406942       -11.0735
  63   2.0000      -0.338890        -9.2217
  64   2.0000      -0.335243        -9.1224
  65   2.0000      -0.327288        -8.9060
  66   2.0000      -0.299351        -8.1458
  67   0.0000       0.027806         0.7566
  68   0.0000       0.068731         1.8703
  69   0.0000       0.114659         3.1200
  70   0.0000       0.120376         3.2756
  71   0.0000       0.134909         3.6711

MULLIKEN ATOMIC CHARGES
-----------------------
   0 S :    0.119613
   1 C :   -0.113348
   2 C :   -0.097787
   3 C :    0.049030
   4 C :   -0.130905
   5 H :   -0.020737
   6 C :    0.118778
   7 H :    0.040404
   8 H :    0.033697
   9 C :   -0.132914
  10 H :    0.029070
  11 H :    0.020324
  12 C :   -0.029457
  13 H :    0.032419
  14 H :    0.051105
  15 H :    0.026901
  16 S :    0.107467
  17 C :   -0.116543
  18 C :   -0.050346
  19 C :   -0.033313
  20 C :   -0.153267
  21 H :    0.037461
  22 C :    0.035337
  23 H :    0.029223
  24 H :    0.011696
  25 C :   -0.013082
  26 H :    0.010163
  27 H :    0.012642
  28 C :   -0.075061
  29 H :    0.025366
  30 H :    0.030535
  31 H :    0.046568
  32 H :    0.021416
  33 H :    0.077545
Sum of atomic charges:   -0.0000000

LOEWDIN ATOMIC CHARGES
----------------------
   0 S :    0.393562
   1 C :   -0.173155
   2 C :   -0.061310
   3 C :   -0.050534
   4 C :   -0.194364
   5 H :    0.016460
   6 C :   -0.022725
   7 H :    0.037706
   8 H :    0.032818
   9 C :   -0.042537
  10 H :    0.019928
  11 H :    0.015482
  12 C :   -0.065597
  13 H :    0.032509
  14 H :    0.030603
  15 H :    0.025158
  16 S :    0.415816
  17 C :   -0.201129
  18 C :   -0.083952
  19 C :   -0.051220
  20 C :   -0.212134
  21 H :    0.040423
  22 C :   -0.038162
  23 H :    0.028254
  24 H :    0.028484
  25 C :   -0.032733
  26 H :    0.016530
  27 H :    0.014760
  28 C :   -0.066329
  29 H :    0.012134
  30 H :    0.031207
  31 H :    0.038282
  32 H :    0.017971
  33 H :    0.047795

  Mayer bond orders larger than 0.100000
B(  0-S ,  1-C ) :   1.1241 B(  0-S ,  4-C ) :   1.1496 B(  1-C ,  2-C ) :   1.6337
B(  1-C , 32-H ) :   0.9754 B(  2-C ,  3-C ) :   1.2598 B(  2-C ,  6-C ) :   0.9958
B(  3-C ,  4-C ) :   1.5434 B(  3-C ,  5-H ) :   1.0021 B(  4-C , 20-C ) :   1.0343
B(  6-C ,  7-H ) :   0.9434 B(  6-C ,  8-H ) :   0.9220 B(  6-C ,  9-C ) :   1.1125
B(  9-C , 10-H ) :   0.9543 B(  9-C , 11-H ) :   0.9416 B(  9-C , 12-C ) :   1.0726
B( 12-C , 13-H ) :   0.9768 B( 12-C , 14-H ) :   0.9763 B( 12-C , 15-H ) :   0.9709
B( 16-S , 17-C ) :   1.1741 B( 16-S , 20-C ) :   1.1298 B( 17-C , 18-C ) :   1.6043
B( 17-C , 33-H ) :   0.9578 B( 18-C , 19-C ) :   1.2438 B( 18-C , 21-H ) :   0.9872
B( 19-C , 20-C ) :   1.5739 B( 19-C , 22-C ) :   1.0513 B( 22-C , 23-H ) :   0.9404
B( 22-C , 24-H ) :   0.9317 B( 22-C , 25-C ) :   1.0656 B( 25-C , 26-H ) :   0.9494
B( 25-C , 27-H ) :   0.9536 B( 25-C , 28-C ) :   1.0923 B( 28-C , 29-H ) :   0.9771
B( 28-C , 30-H ) :   0.9721 B( 28-C , 31-H ) :   0.9710

Dispersion correction           -0.013824332
FINAL SINGLE POINT ENERGY     -1339.852535340724

DIPOLE MOMENT
-------------
                                X             Y             Z
Electronic contribution:    -26.28243     -13.00363       0.85902
Nuclear contribution   :     26.81883      13.42946      -0.75097
                        -----------------------------------------
Total Dipole Moment    :      0.53640       0.42583       0.10805
                        -----------------------------------------
Magnitude (a.u.)       :      0.69335
Magnitude (Debye)      :      1.76234

Rotational constants in cm-1:     0.016420     0.008578     0.007228
Rotational constants in MHz :   492.264084   257.171583   216.685102

                             ****ORCA TERMINATED NORMALLY****
TOTAL RUN TIME: 0 days 0 hours 0 minutes 21 seconds 572 msec
