                         Program Version 4.2.1 -  RELEASE  -
|  1> ! wB97X-D3 SP def2-SVP
|  2> %pal
|  3> nprocs 24
|  4> end
|  5>
|  6> * xyz 0 1
|  7> S 	 -65.0975 	 13.0749 	 -119.774
|  8> C 	 -65.4878 	 12.2159 	 -118.263
|  9> C 	 -64.683 	 12.6126 	 -117.219
| 10> C 	 -63.804 	 13.6298 	 -117.623
| 11> C 	 -64.0196 	 14.1553 	 -118.881
| 12> H 	 -63.1461 	 14.2338 	 -117.049
| 13> C 	 -64.732 	 12.2146 	 -115.785
| 14> H 	 -63.7045 	 12.1893 	 -115.366
| 15> H 	 -65.0676 	 11.1339 	 -115.606
| 16> C 	 -65.6361 	 13.0615 	 -114.922
| 17> H 	 -65.2993 	 14.1085 	 -115.153
| 18> H 	 -66.6575 	 12.9595 	 -115.274
| 19> C 	 -65.6013 	 12.8083 	 -113.344
| 20> H 	 -64.6501 	 12.8521 	 -112.809
| 21> H 	 -66.1377 	 13.5994 	 -112.89
| 22> H 	 -66.077 	 11.8701 	 -113.177
| 23> S 	 -62.577 	 14.8057 	 -121.163
| 24> C 	 -61.9496 	 16.441 	 -121.264
| 25> C 	 -62.1185 	 17.1442 	 -120.102
| 26> C 	 -62.85 	 16.4036 	 -119.117
| 27> C 	 -63.202 	 15.1338 	 -119.52
| 28> H 	 -61.7747 	 18.1559 	 -120.02
| 29> C 	 -63.1252 	 17.1001 	 -117.814
| 30> H 	 -63.9983 	 16.555 	 -117.51
| 31> H 	 -63.4903 	 18.0729 	 -118.084
| 32> C 	 -62.0023 	 17.1549 	 -116.742
| 33> H 	 -61.2255 	 17.8115 	 -117.115
| 34> H 	 -61.6556 	 16.1249 	 -116.556
| 35> C 	 -62.5332 	 17.8956 	 -115.43
| 36> H 	 -61.7395 	 17.8781 	 -114.61
| 37> H 	 -63.3859 	 17.4942 	 -114.941
| 38> H 	 -62.861 	 18.9463 	 -115.631
| 39> H 	 -66.2173 	 11.4018 	 -118.125
| 40> H 	 -61.4769 	 16.8801 	 -122.084
| 41> *
| 42>
| 43>                          ****END OF INPUT****

CARTESIAN COORDINATES (ANGSTROEM)
---------------------------------
  S    -65.097500   13.074900  -119.774000
  C    -65.487800   12.215900  -118.263000
  C    -64.683000   12.612600  -117.219000
  C    -63.804000   13.629800  -117.623000
  C    -64.019600   14.155300  -118.881000
  H    -63.146100   14.233800  -117.049000
  C    -64.732000   12.214600  -115.785000
  H    -63.704500   12.189300  -115.366000
  H    -65.067600   11.133900  -115.606000
  C    -65.636100   13.061500  -114.922000
  H    -65.299300   14.108500  -115.153000
  H    -66.657500   12.959500  -115.274000
  C    -65.601300   12.808300  -113.344000
  H    -64.650100   12.852100  -112.809000
  H    -66.137700   13.599400  -112.890000
  H    -66.077000   11.870100  -113.177000
  S    -62.577000   14.805700  -121.163000
  C    -61.949600   16.441000  -121.264000
  C    -62.118500   17.144200  -120.102000
  C    -62.850000   16.403600  -119.117000
  C    -63.202000   15.133800  -119.520000
  H    -61.774700   18.155900  -120.020000
  C    -63.125200   17.100100  -117.814000
  H    -63.998300   16.555000  -117.510000
  H    -63.490300   18.072900  -118.084000
  C    -62.002300   17.154900  -116.742000
  H    -61.225500   17.811500  -117.115000
  H    -61.655600   16.124900  -116.556000
  C    -62.533200   17.895600  -115.430000
  H    -61.739500   17.878100  -114.610000
  H    -63.385900   17.494200  -114.941000
  H    -62.861000   18.946300  -115.631000
  H    -66.217300   11.401800  -118.125000
  H    -61.476900   16.880100  -122.084000

 Total Charge           Charge          ....    0
 Multiplicity           Mult            ....    1
 Number of Electrons    NEL             ....  134
 Basis Dimension        Dim             ....  322

ORBITAL ENERGIES
----------------

  NO   OCC          E(Eh)            E(eV)
   0   2.0000     -88.969374     -2420.9798
   1   2.0000     -88.965779     -2420.8819
   2   2.0000     -10.327832      -281.0346
   3   2.0000     -10.326515      -280.9988
   4   2.0000     -10.319837      -280.8170
   5   2.0000     -10.311857      -280.5999
   6   2.0000     -10.300678      -280.2957
   7   2.0000     -10.300480      -280.2903
   8   2.0000     -10.299619      -280.2669
   9   2.0000     -10.296348      -280.1779
  10   2.0000     -10.293073      -280.0888
  11   2.0000     -10.289634      -279.9952
  12   2.0000     -10.289377      -279.9882
  13   2.0000     -10.288564      -279.9661
  14   2.0000     -10.286563      -279.9116
  15   2.0000     -10.279662      -279.7238
  16   2.0000      -8.083157      -219.9539
  17   2.0000      -8.079924      -219.8659
  18   2.0000      -6.041788      -164.4054
  19   2.0000      -6.038579      -164.3181
  20   2.0000      -6.037849      -164.2982
  21   2.0000      -6.034621      -164.2104
  22   2.0000      -6.033787      -164.1877
  23   2.0000      -6.030463      -164.0972
  24   2.0000      -1.007977       -27.4285
  25   2.0000      -0.983681       -26.7673
  26   2.0000      -0.912937       -24.8423
  27   2.0000      -0.905776       -24.6474
  28   2.0000      -0.872147       -23.7323
  29   2.0000      -0.850836       -23.1524
  30   2.0000      -0.844119       -22.9697
  31   2.0000      -0.815145       -22.1812
  32   2.0000      -0.785536       -21.3755
  33   2.0000      -0.773583       -21.0503
  34   2.0000      -0.713664       -19.4198
  35   2.0000      -0.702845       -19.1254
  36   2.0000      -0.700742       -19.0681
  37   2.0000      -0.666535       -18.1373
  38   2.0000      -0.643895       -17.5213
  39   2.0000      -0.618524       -16.8309
  40   2.0000      -0.589853       -16.0507
  41   2.0000      -0.570689       -15.5292
  42   2.0000      -0.568340       -15.4653
  43   2.0000      -0.559083       -15.2134
  44   2.0000      -0.527498       -14.3540
  45   2.0000      -0.524798       -14.2805
  46   2.0000      -0.517752       -14.0887
  47   2.0000      -0.506374       -13.7791
  48   2.0000      -0.505701       -13.7608
  49   2.0000      -0.498479       -13.5643
  50   2.0000      -0.495147       -13.4736
  51   2.0000      -0.482228       -13.1221
  52   2.0000      -0.470891       -12.8136
  53   2.0000      -0.466354       -12.6902
  54   2.0000      -0.461439       -12.5564
  55   2.0000      -0.449511       -12.2318
  56   2.0000      -0.442547       -12.0423
  57   2.0000      -0.439592       -11.9619
  58   2.0000      -0.438334       -11.9277
  59   2.0000      -0.429161       -11.6781
  60   2.0000      -0.421578       -11.4717
  61   2.0000      -0.414702       -11.2846
  62   2.0000      -0.412315       -11.2197
  63   2.0000      -0.351909        -9.5759
  64   2.0000      -0.334204        -9.0942
  65   2.0000      -0.331295        -9.0150
  66   2.0000      -0.289199        -7.8695
  67   0.0000       0.023044         0.6271
  68   0.0000       0.070319         1.9135
  69   0.0000       0.103236         2.8092
  70   0.0000       0.123083         3.3493
  71   0.0000       0.127836         3.4786

MULLIKEN ATOMIC CHARGES
-----------------------
   0 S :    0.103394
   1 C :   -0.119296
   2 C :   -0.037151
   3 C :    0.034249
   4 C :   -0.161243
   5 H :   -0.013817
   6 C :    0.033635
   7 H :    0.030544
   8 H :    0.021112
   9 C :   -0.088798
  10 H :    0.026208
  11 H :    0.029788
  12 C :   -0.023201
  13 H :    0.032577
  14 H :    0.028672
  15 H :    0.031916
  16 S :    0.100417
  17 C :   -0.063325
  18 C :   -0.024107
  19 C :   -0.064020
  20 C :   -0.138829
  21 H :    0.012888
  22 C :    0.065385
  23 H :    0.013724
  24 H :    0.013499
  25 C :   -0.033151
  26 H :    0.035025
  27 H :    0.046274
  28 C :   -0.080790
  29 H :    0.045483
  30 H :    0.023233
  31 H :    0.036473
  32 H :    0.050859
  33 H :    0.032375
Sum of atomic charges:   -0.0000000

LOEWDIN ATOMIC CHARGES
----------------------
   0 S :    0.386783
   1 C :   -0.182572
   2 C :   -0.067354
   3 C :   -0.052203
   4 C :   -0.185568
   5 H :    0.023570
   6 C :   -0.044295
   7 H :    0.033868
   8 H :    0.030490
   9 C :   -0.037633
  10 H :    0.023671
  11 H :    0.024394
  12 C :   -0.061347
  13 H :    0.027392
  14 H :    0.024947
  15 H :    0.022088
  16 S :    0.382114
  17 C :   -0.168690
  18 C :   -0.068187
  19 C :   -0.055125
  20 C :   -0.188695
  21 H :    0.029841
  22 C :   -0.035929
  23 H :    0.025745
  24 H :    0.027828
  25 C :   -0.027151
  26 H :    0.026990
  27 H :    0.026838
  28 C :   -0.074834
  29 H :    0.033247
  30 H :    0.016422
  31 H :    0.030227
  32 H :    0.034590
  33 H :    0.018539

  Mayer bond orders larger than 0.100000
B(  0-S ,  1-C ) :   1.1318 B(  0-S ,  4-C ) :   1.1245 B(  1-C ,  2-C ) :   1.6128
B(  1-C , 32-H ) :   0.9628 B(  2-C ,  3-C ) :   1.2337 B(  2-C ,  6-C ) :   1.0365
B(  3-C ,  4-C ) :   1.5710 B(  3-C ,  5-H ) :   0.9928 B(  4-C , 20-C ) :   1.0827
B(  6-C ,  7-H ) :   0.9385 B(  6-C ,  8-H ) :   0.9350 B(  6-C ,  9-C ) :   1.0617
B(  9-C , 10-H ) :   0.9578 B(  9-C , 11-H ) :   0.9546 B(  9-C , 12-C ) :   1.0702
B( 12-C , 13-H ) :   0.9770 B( 12-C , 14-H ) :   0.9751 B( 12-C , 15-H ) :   0.9771
B( 16-S , 17-C ) :   1.1394 B( 16-S , 20-C ) :   1.1061 B( 17-C , 18-C ) :   1.6368
B( 17-C , 33-H ) :   0.9702 B( 18-C , 19-C ) :   1.2187 B( 18-C , 21-H ) :   0.9928
B( 19-C , 20-C ) :   1.6204 B( 19-C , 22-C ) :   1.0426 B( 22-C , 23-H ) :   0.9263
B( 22-C , 24-H ) :   0.9293 B( 22-C , 25-C ) :   1.0601 B( 25-C , 26-H ) :   0.9533
B( 25-C , 27-H ) :   0.9556 B( 25-C , 28-C ) :   1.0651 B( 28-C , 29-H ) :   0.9771
B( 28-C , 30-H ) :   0.9796 B( 28-C , 31-H ) :   0.9750

Dispersion correction           -0.014114455
FINAL SINGLE POINT ENERGY     -1339.871449757474

DIPOLE MOMENT
-------------
                                X             Y             Z
Electronic contribution:      1.19960      -7.89687     -33.10961
Nuclear contribution   :     -1.15557       8.23896      33.81180
                        -----------------------------------------
Total Dipole Moment    :      0.04403       0.34209       0.70220
                        -----------------------------------------
Magnitude (a.u.)       :      0.78233
Magnitude (Debye)      :      1.98853

Rotational constants in cm-1:     0.016759     0.009623     0.006380
Rotational constants in MHz :   502.410571   288.487530   191.265917

                             ****ORCA TERMINATED NORMALLY****
TOTAL RUN TIME: 0 days 0 hours 0 minutes 20 seconds 594 msec
