                         Program Version 4.2.1 -  RELEASE  -
|  1> ! wB97X-D3 SP def2-SVP
|  2> %pal
|  3> nprocs 24
|  4> end
|  5>
|  6> * xyz 0 1
|  7> S 	 36.6493 	 -15.1892 	 -122.612
|  8> C 	 36.3171 	 -14.5526 	 -121.005
|  9> C 	 37.0538 	 -15.2614 	 -120.123
| 10> C 	 37.9358 	 -16.2364 	 -120.634
| 11> C 	 37.9868 	 -16.1395 	 -122.032
| 12> H 	 38.527 	 -16.8804 	 -119.934
| 13> C 	 37.0283 	 -15.0309 	 -118.623
| 14> H 	 37.8567 	 -15.6725 	 -118.167
| 15> H 	 36.1525 	 -15.3974 	 -118.125
| 16> C 	 37.2606 	 -13.6026 	 -118.154
| 17> H 	 36.4985 	 -12.8851 	 -118.585
| 18> H 	 37.1676 	 -13.4988 	 -117.074
| 19> C 	 38.557 	 -12.9587 	 -118.471
| 20> H 	 38.7229 	 -13.0525 	 -119.553
| 21> H 	 38.435 	 -11.8919 	 -118.163
| 22> H 	 39.45 	 -13.4542 	 -118.068
| 23> S 	 38.0111 	 -17.2323 	 -124.541
| 24> C 	 39.2302 	 -18.3201 	 -125.056
| 25> C 	 40.3237 	 -18.1409 	 -124.19
| 26> C 	 40.016 	 -17.4049 	 -122.971
| 27> C 	 38.6863 	 -16.9644 	 -123.016
| 28> H 	 41.329 	 -18.5175 	 -124.399
| 29> C 	 40.9296 	 -17.0272 	 -121.817
| 30> H 	 40.7771 	 -17.5987 	 -120.918
| 31> H 	 40.7373 	 -15.9487 	 -121.64
| 32> C 	 42.4165 	 -17.2433 	 -122.249
| 33> H 	 42.5035 	 -16.9814 	 -123.271
| 34> H 	 42.8349 	 -18.233 	 -122.125
| 35> C 	 43.3524 	 -16.4834 	 -121.435
| 36> H 	 43.1459 	 -15.4414 	 -121.721
| 37> H 	 44.3773 	 -16.677 	 -121.81
| 38> H 	 43.2332 	 -16.6439 	 -120.378
| 39> H 	 35.6023 	 -13.8074 	 -120.864
| 40> H 	 39.2825 	 -18.7528 	 -126.05
| 41> *
| 42>
| 43>                          ****END OF INPUT****

CARTESIAN COORDINATES (ANGSTROEM)
---------------------------------
  S     36.649300  -15.189200  -122.612000
  C     36.317100  -14.552600  -121.005000
  C     37.053800  -15.261400  -120.123000
  C     37.935800  -16.236400  -120.634000
  C     37.986800  -16.139500  -122.032000
  H     38.527000  -16.880400  -119.934000
  C     37.028300  -15.030900  -118.623000
  H     37.856700  -15.672500  -118.167000
  H     36.152500  -15.397400  -118.125000
  C     37.260600  -13.602600  -118.154000
  H     36.498500  -12.885100  -118.585000
  H     37.167600  -13.498800  -117.074000
  C     38.557000  -12.958700  -118.471000
  H     38.722900  -13.052500  -119.553000
  H     38.435000  -11.891900  -118.163000
  H     39.450000  -13.454200  -118.068000
  S     38.011100  -17.232300  -124.541000
  C     39.230200  -18.320100  -125.056000
  C     40.323700  -18.140900  -124.190000
  C     40.016000  -17.404900  -122.971000
  C     38.686300  -16.964400  -123.016000
  H     41.329000  -18.517500  -124.399000
  C     40.929600  -17.027200  -121.817000
  H     40.777100  -17.598700  -120.918000
  H     40.737300  -15.948700  -121.640000
  C     42.416500  -17.243300  -122.249000
  H     42.503500  -16.981400  -123.271000
  H     42.834900  -18.233000  -122.125000
  C     43.352400  -16.483400  -121.435000
  H     43.145900  -15.441400  -121.721000
  H     44.377300  -16.677000  -121.810000
  H     43.233200  -16.643900  -120.378000
  H     35.602300  -13.807400  -120.864000
  H     39.282500  -18.752800  -126.050000

 Total Charge           Charge          ....    0
 Multiplicity           Mult            ....    1
 Number of Electrons    NEL             ....  134
 Basis Dimension        Dim             ....  322

ORBITAL ENERGIES
----------------

  NO   OCC          E(Eh)            E(eV)
   0   2.0000     -88.964713     -2420.8529
   1   2.0000     -88.963975     -2420.8328
   2   2.0000     -10.335550      -281.2446
   3   2.0000     -10.321522      -280.8629
   4   2.0000     -10.318125      -280.7705
   5   2.0000     -10.309907      -280.5468
   6   2.0000     -10.304323      -280.3949
   7   2.0000     -10.301493      -280.3179
   8   2.0000     -10.301205      -280.3100
   9   2.0000     -10.297386      -280.2061
  10   2.0000     -10.295978      -280.1678
  11   2.0000     -10.292454      -280.0719
  12   2.0000     -10.284858      -279.8652
  13   2.0000     -10.275504      -279.6107
  14   2.0000     -10.273500      -279.5561
  15   2.0000     -10.272497      -279.5289
  16   2.0000      -8.081170      -219.8998
  17   2.0000      -8.079289      -219.8486
  18   2.0000      -6.039577      -164.3453
  19   2.0000      -6.037813      -164.2972
  20   2.0000      -6.035461      -164.2332
  21   2.0000      -6.033792      -164.1878
  22   2.0000      -6.031905      -164.1365
  23   2.0000      -6.029928      -164.0827
  24   2.0000      -1.016115       -27.6499
  25   2.0000      -0.991841       -26.9894
  26   2.0000      -0.919949       -25.0331
  27   2.0000      -0.915405       -24.9094
  28   2.0000      -0.873221       -23.7616
  29   2.0000      -0.860402       -23.4127
  30   2.0000      -0.846127       -23.0243
  31   2.0000      -0.816096       -22.2071
  32   2.0000      -0.782466       -21.2920
  33   2.0000      -0.772823       -21.0296
  34   2.0000      -0.706660       -19.2292
  35   2.0000      -0.699228       -19.0270
  36   2.0000      -0.689835       -18.7714
  37   2.0000      -0.654318       -17.8049
  38   2.0000      -0.640056       -17.4168
  39   2.0000      -0.617678       -16.8079
  40   2.0000      -0.602590       -16.3973
  41   2.0000      -0.579891       -15.7796
  42   2.0000      -0.572782       -15.5862
  43   2.0000      -0.555981       -15.1290
  44   2.0000      -0.540551       -14.7091
  45   2.0000      -0.533358       -14.5134
  46   2.0000      -0.525173       -14.2907
  47   2.0000      -0.518760       -14.1162
  48   2.0000      -0.509124       -13.8540
  49   2.0000      -0.498603       -13.5677
  50   2.0000      -0.492554       -13.4031
  51   2.0000      -0.483382       -13.1535
  52   2.0000      -0.476941       -12.9782
  53   2.0000      -0.468040       -12.7360
  54   2.0000      -0.461459       -12.5569
  55   2.0000      -0.459283       -12.4977
  56   2.0000      -0.438248       -11.9253
  57   2.0000      -0.436345       -11.8736
  58   2.0000      -0.424333       -11.5467
  59   2.0000      -0.420501       -11.4424
  60   2.0000      -0.414249       -11.2723
  61   2.0000      -0.410753       -11.1772
  62   2.0000      -0.403274       -10.9737
  63   2.0000      -0.359181        -9.7738
  64   2.0000      -0.334528        -9.1030
  65   2.0000      -0.323589        -8.8053
  66   2.0000      -0.285804        -7.7771
  67   0.0000       0.017170         0.4672
  68   0.0000       0.076273         2.0755
  69   0.0000       0.097183         2.6445
  70   0.0000       0.121185         3.2976
  71   0.0000       0.135780         3.6948

MULLIKEN ATOMIC CHARGES
-----------------------
   0 S :    0.077692
   1 C :   -0.103308
   2 C :   -0.066648
   3 C :   -0.001004
   4 C :   -0.129213
   5 H :    0.036987
   6 C :    0.076695
   7 H :    0.015101
   8 H :    0.034911
   9 C :   -0.102223
  10 H :    0.026593
  11 H :    0.025810
  12 C :   -0.059285
  13 H :    0.032995
  14 H :    0.044915
  15 H :    0.025780
  16 S :    0.104475
  17 C :   -0.081342
  18 C :   -0.053719
  19 C :   -0.083201
  20 C :   -0.114876
  21 H :    0.026739
  22 C :    0.070619
  23 H :    0.041570
  24 H :    0.048171
  25 C :   -0.093237
  26 H :    0.021063
  27 H :    0.025494
  28 C :   -0.030213
  29 H :    0.020654
  30 H :    0.031476
  31 H :    0.033966
  32 H :    0.028862
  33 H :    0.067703
Sum of atomic charges:    0.0000000

LOEWDIN ATOMIC CHARGES
----------------------
   0 S :    0.401227
   1 C :   -0.178717
   2 C :   -0.068628
   3 C :   -0.069938
   4 C :   -0.178264
   5 H :    0.041417
   6 C :   -0.033567
   7 H :    0.031521
   8 H :    0.030073
   9 C :   -0.052157
  10 H :    0.026663
  11 H :    0.023728
  12 C :   -0.071587
  13 H :    0.024977
  14 H :    0.034622
  15 H :    0.021349
  16 S :    0.444456
  17 C :   -0.207329
  18 C :   -0.070629
  19 C :   -0.061930
  20 C :   -0.221719
  21 H :    0.029774
  22 C :   -0.026125
  23 H :    0.029721
  24 H :    0.039797
  25 C :   -0.045848
  26 H :    0.017997
  27 H :    0.023423
  28 C :   -0.060824
  29 H :    0.023467
  30 H :    0.029632
  31 H :    0.022100
  32 H :    0.017274
  33 H :    0.034049

  Mayer bond orders larger than 0.100000
B(  0-S ,  1-C ) :   1.1202 B(  0-S ,  4-C ) :   1.1717 B(  1-C ,  2-C ) :   1.5871
B(  1-C , 32-H ) :   0.9927 B(  2-C ,  3-C ) :   1.2700 B(  2-C ,  6-C ) :   1.0096
B(  3-C ,  4-C ) :   1.5127 B(  3-C ,  5-H ) :   0.9840 B(  4-C , 20-C ) :   1.0773
B(  6-C ,  7-H ) :   0.9450 B(  6-C ,  8-H ) :   0.9345 B(  6-C ,  9-C ) :   1.0799
B(  9-C , 10-H ) :   0.9522 B(  9-C , 11-H ) :   0.9531 B(  9-C , 12-C ) :   1.0825
B( 12-C , 13-H ) :   0.9732 B( 12-C , 14-H ) :   0.9723 B( 12-C , 15-H ) :   0.9716
B( 16-S , 17-C ) :   1.1732 B( 16-S , 20-C ) :   1.1714 B( 17-C , 18-C ) :   1.5438
B( 17-C , 33-H ) :   0.9700 B( 18-C , 19-C ) :   1.2931 B( 18-C , 21-H ) :   0.9837
B( 19-C , 20-C ) :   1.5316 B( 19-C , 22-C ) :   1.0436 B( 22-C , 23-H ) :   0.9238
B( 22-C , 24-H ) :   0.9345 B( 22-C , 25-C ) :   1.0733 B( 25-C , 26-H ) :   0.9552
B( 25-C , 27-H ) :   0.9496 B( 25-C , 28-C ) :   1.0958 B( 28-C , 29-H ) :   0.9753
B( 28-C , 30-H ) :   0.9691 B( 28-C , 31-H ) :   0.9708

Dispersion correction           -0.013881544
FINAL SINGLE POINT ENERGY     -1339.860541429995

DIPOLE MOMENT
-------------
                                X             Y             Z
Electronic contribution:    -18.74207      -7.79974     -21.72813
Nuclear contribution   :     19.14621       7.82502      22.14207
                        -----------------------------------------
Total Dipole Moment    :      0.40414       0.02528       0.41394
                        -----------------------------------------
Magnitude (a.u.)       :      0.57907
Magnitude (Debye)      :      1.47187

Rotational constants in cm-1:     0.018106     0.009307     0.006537
Rotational constants in MHz :   542.804725   279.008018   195.963165

                             ****ORCA TERMINATED NORMALLY****
TOTAL RUN TIME: 0 days 0 hours 0 minutes 21 seconds 705 msec
