                         Program Version 4.2.1 -  RELEASE  -
|  1> ! wB97X-D3 SP def2-SVP
|  2> %pal
|  3> nprocs 24
|  4> end
|  5>
|  6> * xyz 0 1
|  7> S 	 -38.6396 	 -43.1394 	 -80.7526
|  8> C 	 -39.0656 	 -41.8448 	 -79.806
|  9> C 	 -37.9296 	 -41.3274 	 -79.2304
| 10> C 	 -36.7434 	 -42.0326 	 -79.5483
| 11> C 	 -36.943 	 -43.1309 	 -80.3083
| 12> H 	 -35.7395 	 -41.8526 	 -79.1343
| 13> C 	 -37.8106 	 -40.1406 	 -78.2785
| 14> H 	 -38.7493 	 -39.6856 	 -78.3851
| 15> H 	 -37.0798 	 -39.4624 	 -78.6097
| 16> C 	 -37.5994 	 -40.5181 	 -76.812
| 17> H 	 -38.5886 	 -40.7029 	 -76.5415
| 18> H 	 -36.9425 	 -41.369 	 -76.708
| 19> C 	 -37.2426 	 -39.2983 	 -75.9294
| 20> H 	 -37.9113 	 -38.5424 	 -76.162
| 21> H 	 -37.3238 	 -39.5092 	 -74.8729
| 22> H 	 -36.2823 	 -38.8608 	 -76.1412
| 23> S 	 -36.542 	 -45.8765 	 -80.6175
| 24> C 	 -35.1024 	 -46.49 	 -81.3577
| 25> C 	 -34.255 	 -45.445 	 -81.7083
| 26> C 	 -34.7393 	 -44.1578 	 -81.2644
| 27> C 	 -36.033 	 -44.2118 	 -80.703
| 28> H 	 -33.3665 	 -45.5946 	 -82.342
| 29> C 	 -34.0258 	 -42.8969 	 -81.5883
| 30> H 	 -32.9876 	 -43.272 	 -81.5237
| 31> H 	 -34.0684 	 -42.1354 	 -80.7767
| 32> C 	 -34.3443 	 -42.2272 	 -82.9108
| 33> H 	 -35.4523 	 -42.0575 	 -82.8641
| 34> H 	 -34.0509 	 -42.9009 	 -83.6935
| 35> C 	 -33.576 	 -40.8969 	 -83.0685
| 36> H 	 -32.5474 	 -41.2477 	 -82.9082
| 37> H 	 -33.7837 	 -40.3127 	 -82.2112
| 38> H 	 -33.7142 	 -40.3766 	 -83.9774
| 39> H 	 -40.1034 	 -41.5329 	 -79.6595
| 40> H 	 -34.8353 	 -47.5818 	 -81.493
| 41> *
| 42>
| 43>                          ****END OF INPUT****

CARTESIAN COORDINATES (ANGSTROEM)
---------------------------------
  S    -38.639600  -43.139400  -80.752600
  C    -39.065600  -41.844800  -79.806000
  C    -37.929600  -41.327400  -79.230400
  C    -36.743400  -42.032600  -79.548300
  C    -36.943000  -43.130900  -80.308300
  H    -35.739500  -41.852600  -79.134300
  C    -37.810600  -40.140600  -78.278500
  H    -38.749300  -39.685600  -78.385100
  H    -37.079800  -39.462400  -78.609700
  C    -37.599400  -40.518100  -76.812000
  H    -38.588600  -40.702900  -76.541500
  H    -36.942500  -41.369000  -76.708000
  C    -37.242600  -39.298300  -75.929400
  H    -37.911300  -38.542400  -76.162000
  H    -37.323800  -39.509200  -74.872900
  H    -36.282300  -38.860800  -76.141200
  S    -36.542000  -45.876500  -80.617500
  C    -35.102400  -46.490000  -81.357700
  C    -34.255000  -45.445000  -81.708300
  C    -34.739300  -44.157800  -81.264400
  C    -36.033000  -44.211800  -80.703000
  H    -33.366500  -45.594600  -82.342000
  C    -34.025800  -42.896900  -81.588300
  H    -32.987600  -43.272000  -81.523700
  H    -34.068400  -42.135400  -80.776700
  C    -34.344300  -42.227200  -82.910800
  H    -35.452300  -42.057500  -82.864100
  H    -34.050900  -42.900900  -83.693500
  C    -33.576000  -40.896900  -83.068500
  H    -32.547400  -41.247700  -82.908200
  H    -33.783700  -40.312700  -82.211200
  H    -33.714200  -40.376600  -83.977400
  H    -40.103400  -41.532900  -79.659500
  H    -34.835300  -47.581800  -81.493000

 Total Charge           Charge          ....    0
 Multiplicity           Mult            ....    1
 Number of Electrons    NEL             ....  134
 Basis Dimension        Dim             ....  322

ORBITAL ENERGIES
----------------

  NO   OCC          E(Eh)            E(eV)
   0   2.0000     -88.968184     -2420.9474
   1   2.0000     -88.961476     -2420.7648
   2   2.0000     -10.329907      -281.0911
   3   2.0000     -10.328077      -281.0413
   4   2.0000     -10.324024      -280.9310
   5   2.0000     -10.310525      -280.5636
   6   2.0000     -10.305067      -280.4151
   7   2.0000     -10.299661      -280.2680
   8   2.0000     -10.296592      -280.1845
   9   2.0000     -10.289391      -279.9886
  10   2.0000     -10.289274      -279.9854
  11   2.0000     -10.284138      -279.8456
  12   2.0000     -10.278889      -279.7028
  13   2.0000     -10.277561      -279.6667
  14   2.0000     -10.271801      -279.5099
  15   2.0000     -10.269762      -279.4544
  16   2.0000      -8.082996      -219.9495
  17   2.0000      -8.078190      -219.8187
  18   2.0000      -6.041503      -164.3976
  19   2.0000      -6.037278      -164.2827
  20   2.0000      -6.036571      -164.2634
  21   2.0000      -6.033960      -164.1924
  22   2.0000      -6.032262      -164.1462
  23   2.0000      -6.029090      -164.0599
  24   2.0000      -1.016269       -27.6541
  25   2.0000      -0.991693       -26.9853
  26   2.0000      -0.914882       -24.8952
  27   2.0000      -0.914126       -24.8746
  28   2.0000      -0.874381       -23.7931
  29   2.0000      -0.854499       -23.2521
  30   2.0000      -0.849305       -23.1108
  31   2.0000      -0.819264       -22.2933
  32   2.0000      -0.781610       -21.2687
  33   2.0000      -0.769101       -20.9283
  34   2.0000      -0.708414       -19.2769
  35   2.0000      -0.701254       -19.0821
  36   2.0000      -0.690647       -18.7934
  37   2.0000      -0.662856       -18.0372
  38   2.0000      -0.646353       -17.5881
  39   2.0000      -0.625828       -17.0296
  40   2.0000      -0.596906       -16.2426
  41   2.0000      -0.571339       -15.5469
  42   2.0000      -0.569024       -15.4839
  43   2.0000      -0.564651       -15.3649
  44   2.0000      -0.530783       -14.4433
  45   2.0000      -0.527433       -14.3522
  46   2.0000      -0.521229       -14.1834
  47   2.0000      -0.514963       -14.0129
  48   2.0000      -0.509518       -13.8647
  49   2.0000      -0.501541       -13.6476
  50   2.0000      -0.499137       -13.5822
  51   2.0000      -0.480903       -13.0860
  52   2.0000      -0.472256       -12.8507
  53   2.0000      -0.465169       -12.6579
  54   2.0000      -0.458745       -12.4831
  55   2.0000      -0.452909       -12.3243
  56   2.0000      -0.445105       -12.1119
  57   2.0000      -0.437316       -11.9000
  58   2.0000      -0.429320       -11.6824
  59   2.0000      -0.426428       -11.6037
  60   2.0000      -0.421569       -11.4715
  61   2.0000      -0.413955       -11.2643
  62   2.0000      -0.407621       -11.0919
  63   2.0000      -0.357920        -9.7395
  64   2.0000      -0.330598        -8.9960
  65   2.0000      -0.327373        -8.9083
  66   2.0000      -0.291255        -7.9254
  67   0.0000       0.029340         0.7984
  68   0.0000       0.077649         2.1129
  69   0.0000       0.117441         3.1957
  70   0.0000       0.124062         3.3759
  71   0.0000       0.132955         3.6179

MULLIKEN ATOMIC CHARGES
-----------------------
   0 S :    0.111945
   1 C :   -0.124007
   2 C :   -0.119780
   3 C :    0.012613
   4 C :   -0.144462
   5 H :    0.022631
   6 C :    0.108802
   7 H :   -0.007433
   8 H :    0.012506
   9 C :   -0.045916
  10 H :    0.009694
  11 H :    0.037788
  12 C :   -0.016355
  13 H :    0.005577
  14 H :    0.036509
  15 H :    0.021322
  16 S :    0.119550
  17 C :   -0.116580
  18 C :   -0.047324
  19 C :   -0.035982
  20 C :   -0.146660
  21 H :    0.033329
  22 C :    0.006205
  23 H :    0.018086
  24 H :    0.015064
  25 C :   -0.057602
  26 H :    0.045342
  27 H :    0.022963
  28 C :    0.003204
  29 H :    0.016978
  30 H :    0.016018
  31 H :    0.041432
  32 H :    0.058686
  33 H :    0.085856
Sum of atomic charges:    0.0000000

LOEWDIN ATOMIC CHARGES
----------------------
   0 S :    0.438143
   1 C :   -0.226964
   2 C :   -0.067501
   3 C :   -0.070288
   4 C :   -0.191556
   5 H :    0.034973
   6 C :   -0.022630
   7 H :    0.020249
   8 H :    0.019972
   9 C :   -0.028755
  10 H :    0.020632
  11 H :    0.021427
  12 C :   -0.056532
  13 H :    0.016165
  14 H :    0.027371
  15 H :    0.020064
  16 S :    0.425628
  17 C :   -0.204890
  18 C :   -0.077793
  19 C :   -0.056189
  20 C :   -0.206319
  21 H :    0.036631
  22 C :   -0.045642
  23 H :    0.030623
  24 H :    0.027944
  25 C :   -0.034134
  26 H :    0.030710
  27 H :    0.020142
  28 C :   -0.055885
  29 H :    0.028254
  30 H :    0.019285
  31 H :    0.022307
  32 H :    0.036888
  33 H :    0.047671

  Mayer bond orders larger than 0.100000
B(  0-S ,  1-C ) :   1.1620 B(  0-S ,  4-C ) :   1.1600 B(  1-C ,  2-C ) :   1.5794
B(  1-C , 32-H ) :   0.9717 B(  2-C ,  3-C ) :   1.2594 B(  2-C ,  6-C ) :   1.0242
B(  3-C ,  4-C ) :   1.5751 B(  3-C ,  5-H ) :   0.9915 B(  4-C , 20-C ) :   1.0446
B(  6-C ,  7-H ) :   0.9321 B(  6-C ,  8-H ) :   0.9432 B(  6-C ,  9-C ) :   1.0547
B(  9-C , 10-H ) :   0.9534 B(  9-C , 11-H ) :   0.9674 B(  9-C , 12-C ) :   1.0805
B( 12-C , 13-H ) :   0.9694 B( 12-C , 14-H ) :   0.9759 B( 12-C , 15-H ) :   0.9765
B( 16-S , 17-C ) :   1.1709 B( 16-S , 20-C ) :   1.1530 B( 17-C , 18-C ) :   1.5776
B( 17-C , 33-H ) :   0.9591 B( 18-C , 19-C ) :   1.2777 B( 18-C , 21-H ) :   0.9841
B( 19-C , 20-C ) :   1.5435 B( 19-C , 22-C ) :   1.0562 B( 22-C , 23-H ) :   0.9196
B( 22-C , 24-H ) :   0.9338 B( 22-C , 25-C ) :   1.0625 B( 25-C , 26-H ) :   0.9547
B( 25-C , 27-H ) :   0.9536 B( 25-C , 28-C ) :   1.0733 B( 28-C , 29-H ) :   0.9726
B( 28-C , 30-H ) :   0.9735 B( 28-C , 31-H ) :   0.9752

Dispersion correction           -0.013911258
FINAL SINGLE POINT ENERGY     -1339.872808246509

DIPOLE MOMENT
-------------
                                X             Y             Z
Electronic contribution:    -11.66195     -23.77646      -6.67982
Nuclear contribution   :     11.97890      24.13117       6.75826
                        -----------------------------------------
Total Dipole Moment    :      0.31695       0.35470       0.07844
                        -----------------------------------------
Magnitude (a.u.)       :      0.48210
Magnitude (Debye)      :      1.22541

Rotational constants in cm-1:     0.017789     0.008330     0.006916
Rotational constants in MHz :   533.302235   249.712922   207.323435

                             ****ORCA TERMINATED NORMALLY****
TOTAL RUN TIME: 0 days 0 hours 0 minutes 20 seconds 300 msec
