                         Program Version 4.2.1 -  RELEASE  -
|  1> ! wB97X-D3 SP def2-SVP
|  2> %pal
|  3> nprocs 24
|  4> end
|  5>
|  6> * xyz 0 1
|  7> S 	 -137.246 	 64.6609 	 -58.643
|  8> C 	 -135.64 	 64.5774 	 -59.2959
|  9> C 	 -134.741 	 64.9738 	 -58.3216
| 10> C 	 -135.33 	 65.4228 	 -57.1136
| 11> C 	 -136.639 	 65.243 	 -57.1086
| 12> H 	 -134.779 	 65.6529 	 -56.2355
| 13> C 	 -133.188 	 64.7794 	 -58.385
| 14> H 	 -132.744 	 65.3318 	 -57.5504
| 15> H 	 -132.862 	 65.3 	 -59.3132
| 16> C 	 -132.619 	 63.3418 	 -58.302
| 17> H 	 -132.958 	 62.8455 	 -59.2425
| 18> H 	 -131.543 	 63.3673 	 -58.3196
| 19> C 	 -133.197 	 62.5242 	 -57.1721
| 20> H 	 -132.894 	 63.0592 	 -56.3249
| 21> H 	 -134.321 	 62.3697 	 -57.2566
| 22> H 	 -132.688 	 61.5309 	 -57.179
| 23> S 	 -138.971 	 64.4165 	 -56.0275
| 24> C 	 -139.521 	 65.1339 	 -54.5539
| 25> C 	 -138.706 	 66.1392 	 -54.1447
| 26> C 	 -137.578 	 66.3105 	 -54.9773
| 27> C 	 -137.647 	 65.5146 	 -56.0864
| 28> H 	 -138.853 	 66.5268 	 -53.1826
| 29> C 	 -136.41 	 67.303 	 -54.6857
| 30> H 	 -136.318 	 67.9435 	 -55.5959
| 31> H 	 -135.513 	 66.716 	 -54.5425
| 32> C 	 -136.68 	 68.3325 	 -53.6553
| 33> H 	 -137.05 	 67.7892 	 -52.8399
| 34> H 	 -137.497 	 69.0095 	 -54.1123
| 35> C 	 -135.398 	 69.0768 	 -53.0531
| 36> H 	 -134.69 	 68.2624 	 -52.6479
| 37> H 	 -135.608 	 69.9227 	 -52.3155
| 38> H 	 -134.809 	 69.6469 	 -53.7969
| 39> H 	 -135.211 	 64.1297 	 -60.1143
| 40> H 	 -140.326 	 64.6971 	 -53.9751
| 41> *
| 42>
| 43>                          ****END OF INPUT****

CARTESIAN COORDINATES (ANGSTROEM)
---------------------------------
  S    -137.246000   64.660900  -58.643000
  C    -135.640000   64.577400  -59.295900
  C    -134.741000   64.973800  -58.321600
  C    -135.330000   65.422800  -57.113600
  C    -136.639000   65.243000  -57.108600
  H    -134.779000   65.652900  -56.235500
  C    -133.188000   64.779400  -58.385000
  H    -132.744000   65.331800  -57.550400
  H    -132.862000   65.300000  -59.313200
  C    -132.619000   63.341800  -58.302000
  H    -132.958000   62.845500  -59.242500
  H    -131.543000   63.367300  -58.319600
  C    -133.197000   62.524200  -57.172100
  H    -132.894000   63.059200  -56.324900
  H    -134.321000   62.369700  -57.256600
  H    -132.688000   61.530900  -57.179000
  S    -138.971000   64.416500  -56.027500
  C    -139.521000   65.133900  -54.553900
  C    -138.706000   66.139200  -54.144700
  C    -137.578000   66.310500  -54.977300
  C    -137.647000   65.514600  -56.086400
  H    -138.853000   66.526800  -53.182600
  C    -136.410000   67.303000  -54.685700
  H    -136.318000   67.943500  -55.595900
  H    -135.513000   66.716000  -54.542500
  C    -136.680000   68.332500  -53.655300
  H    -137.050000   67.789200  -52.839900
  H    -137.497000   69.009500  -54.112300
  C    -135.398000   69.076800  -53.053100
  H    -134.690000   68.262400  -52.647900
  H    -135.608000   69.922700  -52.315500
  H    -134.809000   69.646900  -53.796900
  H    -135.211000   64.129700  -60.114300
  H    -140.326000   64.697100  -53.975100

 Total Charge           Charge          ....    0
 Multiplicity           Mult            ....    1
 Number of Electrons    NEL             ....  134
 Basis Dimension        Dim             ....  322

ORBITAL ENERGIES
----------------

  NO   OCC          E(Eh)            E(eV)
   0   2.0000     -88.965687     -2420.8794
   1   2.0000     -88.965425     -2420.8723
   2   2.0000     -10.324107      -280.9332
   3   2.0000     -10.320628      -280.8386
   4   2.0000     -10.313824      -280.6534
   5   2.0000     -10.303549      -280.3738
   6   2.0000     -10.303120      -280.3621
   7   2.0000     -10.299856      -280.2733
   8   2.0000     -10.297891      -280.2199
   9   2.0000     -10.294942      -280.1396
  10   2.0000     -10.294346      -280.1234
  11   2.0000     -10.292826      -280.0820
  12   2.0000     -10.288077      -279.9528
  13   2.0000     -10.285834      -279.8918
  14   2.0000     -10.282379      -279.7978
  15   2.0000     -10.276305      -279.6325
  16   2.0000      -8.081613      -219.9119
  17   2.0000      -8.080319      -219.8767
  18   2.0000      -6.039924      -164.3547
  19   2.0000      -6.039003      -164.3296
  20   2.0000      -6.035971      -164.2471
  21   2.0000      -6.034827      -164.2160
  22   2.0000      -6.032494      -164.1525
  23   2.0000      -6.030855      -164.1079
  24   2.0000      -1.019073       -27.7304
  25   2.0000      -0.993223       -27.0270
  26   2.0000      -0.914164       -24.8757
  27   2.0000      -0.908212       -24.7137
  28   2.0000      -0.874302       -23.7910
  29   2.0000      -0.855560       -23.2810
  30   2.0000      -0.843134       -22.9428
  31   2.0000      -0.819626       -22.3032
  32   2.0000      -0.782458       -21.2918
  33   2.0000      -0.773727       -21.0542
  34   2.0000      -0.705809       -19.2060
  35   2.0000      -0.704712       -19.1762
  36   2.0000      -0.692633       -18.8475
  37   2.0000      -0.656816       -17.8729
  38   2.0000      -0.639341       -17.3973
  39   2.0000      -0.619993       -16.8709
  40   2.0000      -0.601268       -16.3613
  41   2.0000      -0.580516       -15.7966
  42   2.0000      -0.575035       -15.6475
  43   2.0000      -0.551645       -15.0110
  44   2.0000      -0.547498       -14.8982
  45   2.0000      -0.518678       -14.1140
  46   2.0000      -0.515965       -14.0401
  47   2.0000      -0.507005       -13.7963
  48   2.0000      -0.504814       -13.7367
  49   2.0000      -0.499203       -13.5840
  50   2.0000      -0.488732       -13.2991
  51   2.0000      -0.480925       -13.0866
  52   2.0000      -0.471158       -12.8209
  53   2.0000      -0.467620       -12.7246
  54   2.0000      -0.462431       -12.5834
  55   2.0000      -0.457362       -12.4455
  56   2.0000      -0.447679       -12.1820
  57   2.0000      -0.434735       -11.8297
  58   2.0000      -0.432949       -11.7811
  59   2.0000      -0.423417       -11.5218
  60   2.0000      -0.415142       -11.2966
  61   2.0000      -0.410560       -11.1719
  62   2.0000      -0.407430       -11.0867
  63   2.0000      -0.361035        -9.8243
  64   2.0000      -0.337915        -9.1951
  65   2.0000      -0.331259        -9.0140
  66   2.0000      -0.288278        -7.8444
  67   0.0000       0.028025         0.7626
  68   0.0000       0.078635         2.1398
  69   0.0000       0.105280         2.8648
  70   0.0000       0.124554         3.3893
  71   0.0000       0.138020         3.7557

MULLIKEN ATOMIC CHARGES
-----------------------
   0 S :    0.097689
   1 C :   -0.047374
   2 C :   -0.131596
   3 C :   -0.010210
   4 C :   -0.092676
   5 H :   -0.006568
   6 C :    0.030064
   7 H :    0.017660
   8 H :    0.039718
   9 C :   -0.067232
  10 H :    0.017601
  11 H :    0.034051
  12 C :   -0.049821
  13 H :    0.013726
  14 H :    0.066741
  15 H :    0.039739
  16 S :    0.103105
  17 C :   -0.083867
  18 C :   -0.021093
  19 C :   -0.078138
  20 C :   -0.102693
  21 H :    0.000538
  22 C :    0.042159
  23 H :    0.048190
  24 H :    0.038256
  25 C :   -0.073816
  26 H :    0.021047
  27 H :    0.052793
  28 C :   -0.093568
  29 H :    0.048757
  30 H :    0.053588
  31 H :    0.031829
  32 H :    0.004495
  33 H :    0.056907
Sum of atomic charges:    0.0000000

LOEWDIN ATOMIC CHARGES
----------------------
   0 S :    0.404318
   1 C :   -0.200825
   2 C :   -0.055120
   3 C :   -0.074705
   4 C :   -0.172293
   5 H :    0.027376
   6 C :   -0.036135
   7 H :    0.023365
   8 H :    0.034263
   9 C :   -0.043067
  10 H :    0.020182
  11 H :    0.023364
  12 C :   -0.066197
  13 H :    0.013335
  14 H :    0.040615
  15 H :    0.032126
  16 S :    0.424251
  17 C :   -0.183244
  18 C :   -0.071794
  19 C :   -0.055549
  20 C :   -0.206517
  21 H :    0.024730
  22 C :   -0.034973
  23 H :    0.043071
  24 H :    0.024770
  25 C :   -0.047201
  26 H :    0.012222
  27 H :    0.039342
  28 C :   -0.079960
  29 H :    0.035982
  30 H :    0.037034
  31 H :    0.022348
  32 H :    0.015141
  33 H :    0.029744

  Mayer bond orders larger than 0.100000
B(  0-S ,  1-C ) :   1.1165 B(  0-S ,  4-C ) :   1.1363 B(  1-C ,  2-C ) :   1.6441
B(  1-C , 32-H ) :   0.9713 B(  2-C ,  3-C ) :   1.2203 B(  2-C ,  6-C ) :   1.0106
B(  3-C ,  4-C ) :   1.6240 B(  3-C ,  5-H ) :   0.9959 B(  4-C , 20-C ) :   1.0153
B(  6-C ,  7-H ) :   0.9467 B(  6-C ,  8-H ) :   0.9420 B(  6-C ,  9-C ) :   1.0670
B(  9-C , 10-H ) :   0.9537 B(  9-C , 11-H ) :   0.9568 B(  9-C , 12-C ) :   1.0778
B( 12-C , 13-H ) :   0.9779 B( 12-C , 14-H ) :   0.9685 B( 12-C , 15-H ) :   0.9713
B( 16-S , 17-C ) :   1.1659 B( 16-S , 20-C ) :   1.1506 B( 17-C , 18-C ) :   1.5972
B( 17-C , 33-H ) :   0.9644 B( 18-C , 19-C ) :   1.2556 B( 18-C , 21-H ) :   0.9978
B( 19-C , 20-C ) :   1.6287 B( 19-C , 22-C ) :   1.0058 B( 22-C , 23-H ) :   0.9428
B( 22-C , 24-H ) :   0.9297 B( 22-C , 25-C ) :   1.0773 B( 25-C , 26-H ) :   0.9449
B( 25-C , 27-H ) :   0.9566 B( 25-C , 28-C ) :   1.0657 B( 28-C , 29-H ) :   0.9723
B( 28-C , 30-H ) :   0.9754 B( 28-C , 31-H ) :   0.9774

Dispersion correction           -0.014259400
FINAL SINGLE POINT ENERGY     -1339.859923552427

DIPOLE MOMENT
-------------
                                X             Y             Z
Electronic contribution:    -23.17965      -7.22951     -10.61097
Nuclear contribution   :     23.72792       7.28787      11.14353
                        -----------------------------------------
Total Dipole Moment    :      0.54827       0.05836       0.53256
                        -----------------------------------------
Magnitude (a.u.)       :      0.76657
Magnitude (Debye)      :      1.94846

Rotational constants in cm-1:     0.017441     0.009048     0.006861
Rotational constants in MHz :   522.853881   271.262994   205.694016

                             ****ORCA TERMINATED NORMALLY****
TOTAL RUN TIME: 0 days 0 hours 0 minutes 20 seconds 781 msec
