                         Program Version 4.2.1 -  RELEASE  -
|  1> ! wB97X-D3 SP def2-SVP
|  2> %pal
|  3> nprocs 24
|  4> end
|  5>
|  6> * xyz 0 1
|  7> S 	 -135.153 	 15.308 	 -4.43607
|  8> C 	 -133.635 	 16.0965 	 -4.22409
|  9> C 	 -132.85 	 15.5021 	 -3.24496
| 10> C 	 -133.521 	 14.4298 	 -2.64835
| 11> C 	 -134.762 	 14.1511 	 -3.13001
| 12> H 	 -133.072 	 13.9096 	 -1.80998
| 13> C 	 -131.447 	 16.0433 	 -2.76349
| 14> H 	 -131.384 	 15.8398 	 -1.68675
| 15> H 	 -131.462 	 17.0863 	 -2.99746
| 16> C 	 -130.248 	 15.5008 	 -3.49655
| 17> H 	 -129.291 	 15.7033 	 -2.93034
| 18> H 	 -130.365 	 14.4272 	 -3.57186
| 19> C 	 -130.013 	 16.05 	 -4.89018
| 20> H 	 -129.467 	 15.3181 	 -5.44578
| 21> H 	 -130.967 	 16.3273 	 -5.24127
| 22> H 	 -129.294 	 16.8805 	 -4.85588
| 23> S 	 -137.134 	 14.0887 	 -1.70048
| 24> C 	 -137.458 	 12.6428 	 -0.801853
| 25> C 	 -136.79 	 11.5886 	 -1.24786
| 26> C 	 -135.786 	 11.9349 	 -2.16892
| 27> C 	 -135.73 	 13.3221 	 -2.45112
| 28> H 	 -136.764 	 10.6881 	 -0.714163
| 29> C 	 -134.797 	 10.9098 	 -2.64809
| 30> H 	 -135.001 	 9.9301 	 -2.10642
| 31> H 	 -133.807 	 11.1487 	 -2.30758
| 32> C 	 -134.843 	 10.5605 	 -4.14728
| 33> H 	 -134.475 	 11.361 	 -4.90007
| 34> H 	 -135.87 	 10.4322 	 -4.40514
| 35> C 	 -134.22 	 9.20179 	 -4.35986
| 36> H 	 -133.165 	 9.16844 	 -4.04709
| 37> H 	 -134.276 	 9.04474 	 -5.39135
| 38> H 	 -134.762 	 8.42958 	 -3.84073
| 39> H 	 -133.23 	 17.0229 	 -4.63362
| 40> H 	 -138.121 	 12.5643 	 0.00142354
| 41> *
| 42>
| 43>                          ****END OF INPUT****

CARTESIAN COORDINATES (ANGSTROEM)
---------------------------------
  S    -135.153000   15.308000   -4.436070
  C    -133.635000   16.096500   -4.224090
  C    -132.850000   15.502100   -3.244960
  C    -133.521000   14.429800   -2.648350
  C    -134.762000   14.151100   -3.130010
  H    -133.072000   13.909600   -1.809980
  C    -131.447000   16.043300   -2.763490
  H    -131.384000   15.839800   -1.686750
  H    -131.462000   17.086300   -2.997460
  C    -130.248000   15.500800   -3.496550
  H    -129.291000   15.703300   -2.930340
  H    -130.365000   14.427200   -3.571860
  C    -130.013000   16.050000   -4.890180
  H    -129.467000   15.318100   -5.445780
  H    -130.967000   16.327300   -5.241270
  H    -129.294000   16.880500   -4.855880
  S    -137.134000   14.088700   -1.700480
  C    -137.458000   12.642800   -0.801853
  C    -136.790000   11.588600   -1.247860
  C    -135.786000   11.934900   -2.168920
  C    -135.730000   13.322100   -2.451120
  H    -136.764000   10.688100   -0.714163
  C    -134.797000   10.909800   -2.648090
  H    -135.001000    9.930100   -2.106420
  H    -133.807000   11.148700   -2.307580
  C    -134.843000   10.560500   -4.147280
  H    -134.475000   11.361000   -4.900070
  H    -135.870000   10.432200   -4.405140
  C    -134.220000    9.201790   -4.359860
  H    -133.165000    9.168440   -4.047090
  H    -134.276000    9.044740   -5.391350
  H    -134.762000    8.429580   -3.840730
  H    -133.230000   17.022900   -4.633620
  H    -138.121000   12.564300    0.001424

 Total Charge           Charge          ....    0
 Multiplicity           Mult            ....    1
 Number of Electrons    NEL             ....  134
 Basis Dimension        Dim             ....  322

ORBITAL ENERGIES
----------------

  NO   OCC          E(Eh)            E(eV)
   0   2.0000     -88.970822     -2421.0192
   1   2.0000     -88.962769     -2420.8000
   2   2.0000     -10.328357      -281.0489
   3   2.0000     -10.326419      -280.9962
   4   2.0000     -10.314062      -280.6599
   5   2.0000     -10.307107      -280.4706
   6   2.0000     -10.300796      -280.2989
   7   2.0000     -10.297801      -280.2174
   8   2.0000     -10.294821      -280.1363
   9   2.0000     -10.290280      -280.0128
  10   2.0000     -10.289547      -279.9928
  11   2.0000     -10.283465      -279.8273
  12   2.0000     -10.282743      -279.8077
  13   2.0000     -10.280133      -279.7366
  14   2.0000     -10.270319      -279.4696
  15   2.0000     -10.268653      -279.4243
  16   2.0000      -8.085061      -220.0057
  17   2.0000      -8.077893      -219.8106
  18   2.0000      -6.043575      -164.4540
  19   2.0000      -6.039678      -164.3480
  20   2.0000      -6.036333      -164.2570
  21   2.0000      -6.035792      -164.2422
  22   2.0000      -6.032407      -164.1502
  23   2.0000      -6.028623      -164.0472
  24   2.0000      -1.009230       -27.4625
  25   2.0000      -0.989462       -26.9246
  26   2.0000      -0.914613       -24.8879
  27   2.0000      -0.909716       -24.7546
  28   2.0000      -0.874884       -23.8068
  29   2.0000      -0.854841       -23.2614
  30   2.0000      -0.850360       -23.1395
  31   2.0000      -0.817948       -22.2575
  32   2.0000      -0.785785       -21.3823
  33   2.0000      -0.769525       -20.9398
  34   2.0000      -0.711990       -19.3742
  35   2.0000      -0.691832       -18.8257
  36   2.0000      -0.688098       -18.7241
  37   2.0000      -0.662395       -18.0247
  38   2.0000      -0.637253       -17.3405
  39   2.0000      -0.625509       -17.0210
  40   2.0000      -0.602218       -16.3872
  41   2.0000      -0.575031       -15.6474
  42   2.0000      -0.564657       -15.3651
  43   2.0000      -0.558701       -15.2030
  44   2.0000      -0.543593       -14.7919
  45   2.0000      -0.525739       -14.3061
  46   2.0000      -0.518174       -14.1002
  47   2.0000      -0.515020       -14.0144
  48   2.0000      -0.505640       -13.7592
  49   2.0000      -0.502376       -13.6703
  50   2.0000      -0.486084       -13.2270
  51   2.0000      -0.477249       -12.9866
  52   2.0000      -0.472596       -12.8600
  53   2.0000      -0.463467       -12.6116
  54   2.0000      -0.459755       -12.5106
  55   2.0000      -0.449797       -12.2396
  56   2.0000      -0.448459       -12.2032
  57   2.0000      -0.440295       -11.9810
  58   2.0000      -0.434907       -11.8344
  59   2.0000      -0.422461       -11.4957
  60   2.0000      -0.416465       -11.3326
  61   2.0000      -0.413116       -11.2415
  62   2.0000      -0.405635       -11.0379
  63   2.0000      -0.349160        -9.5011
  64   2.0000      -0.334096        -9.0912
  65   2.0000      -0.326666        -8.8890
  66   2.0000      -0.293317        -7.9816
  67   0.0000       0.031937         0.8691
  68   0.0000       0.057257         1.5580
  69   0.0000       0.118294         3.2189
  70   0.0000       0.125306         3.4098
  71   0.0000       0.131894         3.5890

MULLIKEN ATOMIC CHARGES
-----------------------
   0 S :    0.123542
   1 C :   -0.107615
   2 C :   -0.139194
   3 C :    0.045360
   4 C :   -0.156258
   5 H :    0.009766
   6 C :    0.084841
   7 H :    0.035571
   8 H :    0.013947
   9 C :   -0.090446
  10 H :    0.034448
  11 H :    0.023200
  12 C :   -0.009068
  13 H :    0.027643
  14 H :    0.013584
  15 H :    0.026569
  16 S :    0.108170
  17 C :   -0.060579
  18 C :   -0.001908
  19 C :   -0.038224
  20 C :   -0.157524
  21 H :    0.005389
  22 C :    0.055874
  23 H :    0.010643
  24 H :    0.024467
  25 C :   -0.087205
  26 H :    0.054618
  27 H :    0.018056
  28 C :   -0.022736
  29 H :    0.029407
  30 H :    0.019760
  31 H :    0.027549
  32 H :    0.048678
  33 H :    0.029673
Sum of atomic charges:    0.0000000

LOEWDIN ATOMIC CHARGES
----------------------
   0 S :    0.404943
   1 C :   -0.209483
   2 C :   -0.069541
   3 C :   -0.054427
   4 C :   -0.192923
   5 H :    0.032248
   6 C :   -0.023609
   7 H :    0.035038
   8 H :    0.024888
   9 C :   -0.048030
  10 H :    0.028995
  11 H :    0.019546
  12 C :   -0.057590
  13 H :    0.027427
  14 H :    0.015019
  15 H :    0.026742
  16 S :    0.402960
  17 C :   -0.165747
  18 C :   -0.075307
  19 C :   -0.048449
  20 C :   -0.196016
  21 H :    0.026587
  22 C :   -0.035605
  23 H :    0.033943
  24 H :    0.026354
  25 C :   -0.043537
  26 H :    0.036203
  27 H :    0.020624
  28 C :   -0.058397
  29 H :    0.025048
  30 H :    0.019713
  31 H :    0.022285
  32 H :    0.030972
  33 H :    0.019129

  Mayer bond orders larger than 0.100000
B(  0-S ,  1-C ) :   1.1484 B(  0-S ,  4-C ) :   1.1243 B(  1-C ,  2-C ) :   1.6141
B(  1-C , 32-H ) :   0.9499 B(  2-C ,  3-C ) :   1.2832 B(  2-C ,  6-C ) :   1.0088
B(  3-C ,  4-C ) :   1.5750 B(  3-C ,  5-H ) :   0.9893 B(  4-C , 20-C ) :   1.0603
B(  6-C ,  7-H ) :   0.9426 B(  6-C ,  8-H ) :   0.9435 B(  6-C ,  9-C ) :   1.0722
B(  9-C , 10-H ) :   0.9565 B(  9-C , 11-H ) :   0.9585 B(  9-C , 12-C ) :   1.0766
B( 12-C , 13-H ) :   0.9723 B( 12-C , 14-H ) :   0.9778 B( 12-C , 15-H ) :   0.9744
B( 16-S , 17-C ) :   1.1626 B( 16-S , 20-C ) :   1.1250 B( 17-C , 18-C ) :   1.6252
B( 17-C , 33-H ) :   0.9672 B( 18-C , 19-C ) :   1.2588 B( 18-C , 21-H ) :   0.9879
B( 19-C , 20-C ) :   1.5831 B( 19-C , 22-C ) :   1.0451 B( 22-C , 23-H ) :   0.9392
B( 22-C , 24-H ) :   0.9267 B( 22-C , 25-C ) :   1.0561 B( 25-C , 26-H ) :   0.9528
B( 25-C , 27-H ) :   0.9522 B( 25-C , 28-C ) :   1.0924 B( 28-C , 29-H ) :   0.9738
B( 28-C , 30-H ) :   0.9719 B( 28-C , 31-H ) :   0.9720

Dispersion correction           -0.013886219
FINAL SINGLE POINT ENERGY     -1339.860653766910

DIPOLE MOMENT
-------------
                                X             Y             Z
Electronic contribution:    -23.90382      10.79967       5.85679
Nuclear contribution   :     24.43649     -11.09075      -5.51427
                        -----------------------------------------
Total Dipole Moment    :      0.53267      -0.29108       0.34252
                        -----------------------------------------
Magnitude (a.u.)       :      0.69699
Magnitude (Debye)      :      1.77160

Rotational constants in cm-1:     0.018506     0.008349     0.006742
Rotational constants in MHz :   554.781561   250.307452   202.125334

                             ****ORCA TERMINATED NORMALLY****
TOTAL RUN TIME: 0 days 0 hours 0 minutes 21 seconds 420 msec
