                         Program Version 4.2.1 -  RELEASE  -
|  1> ! wB97X-D3 SP def2-SVP
|  2> %pal
|  3> nprocs 24
|  4> end
|  5>
|  6> * xyz 0 1
|  7> S 	 -94.2294 	 -38.1523 	 -57.1283
|  8> C 	 -94.9827 	 -39.1896 	 -55.9053
|  9> C 	 -95.1674 	 -38.5372 	 -54.6594
| 10> C 	 -94.8889 	 -37.1272 	 -54.7981
| 11> C 	 -94.5406 	 -36.7761 	 -56.0783
| 12> H 	 -94.9391 	 -36.4321 	 -53.9302
| 13> C 	 -95.7303 	 -39.2505 	 -53.3903
| 14> H 	 -95.0827 	 -38.7744 	 -52.5958
| 15> H 	 -95.5427 	 -40.3262 	 -53.5728
| 16> C 	 -97.1798 	 -38.9815 	 -52.9191
| 17> H 	 -97.3603 	 -37.9383 	 -52.8032
| 18> H 	 -98.0038 	 -39.3591 	 -53.5344
| 19> C 	 -97.4901 	 -39.4011 	 -51.4915
| 20> H 	 -98.5023 	 -39.2892 	 -51.2469
| 21> H 	 -97.3262 	 -40.4407 	 -51.2746
| 22> H 	 -96.8923 	 -38.8365 	 -50.7995
| 23> S 	 -92.2323 	 -35.3031 	 -56.4466
| 24> C 	 -92.3603 	 -33.8581 	 -57.2594
| 25> C 	 -93.6545 	 -33.5187 	 -57.6539
| 26> C 	 -94.6087 	 -34.4462 	 -57.1399
| 27> C 	 -94.0057 	 -35.5341 	 -56.4992
| 28> H 	 -93.816 	 -32.6037 	 -58.2187
| 29> C 	 -95.9808 	 -34.4677 	 -57.7564
| 30> H 	 -96.3932 	 -33.4103 	 -57.7308
| 31> H 	 -96.6921 	 -34.994 	 -57.0833
| 32> C 	 -96.1441 	 -34.9623 	 -59.2695
| 33> H 	 -95.6709 	 -35.91 	 -59.4437
| 34> H 	 -95.7034 	 -34.2317 	 -60.0032
| 35> C 	 -97.659 	 -35.0518 	 -59.6286
| 36> H 	 -97.8687 	 -35.5716 	 -60.5517
| 37> H 	 -98.1486 	 -34.1478 	 -59.7419
| 38> H 	 -98.2377 	 -35.6857 	 -58.9916
| 39> H 	 -95.3519 	 -40.1566 	 -56.18
| 40> H 	 -91.5243 	 -33.1089 	 -57.4778
| 41> *
| 42>
| 43>                          ****END OF INPUT****

CARTESIAN COORDINATES (ANGSTROEM)
---------------------------------
  S    -94.229400  -38.152300  -57.128300
  C    -94.982700  -39.189600  -55.905300
  C    -95.167400  -38.537200  -54.659400
  C    -94.888900  -37.127200  -54.798100
  C    -94.540600  -36.776100  -56.078300
  H    -94.939100  -36.432100  -53.930200
  C    -95.730300  -39.250500  -53.390300
  H    -95.082700  -38.774400  -52.595800
  H    -95.542700  -40.326200  -53.572800
  C    -97.179800  -38.981500  -52.919100
  H    -97.360300  -37.938300  -52.803200
  H    -98.003800  -39.359100  -53.534400
  C    -97.490100  -39.401100  -51.491500
  H    -98.502300  -39.289200  -51.246900
  H    -97.326200  -40.440700  -51.274600
  H    -96.892300  -38.836500  -50.799500
  S    -92.232300  -35.303100  -56.446600
  C    -92.360300  -33.858100  -57.259400
  C    -93.654500  -33.518700  -57.653900
  C    -94.608700  -34.446200  -57.139900
  C    -94.005700  -35.534100  -56.499200
  H    -93.816000  -32.603700  -58.218700
  C    -95.980800  -34.467700  -57.756400
  H    -96.393200  -33.410300  -57.730800
  H    -96.692100  -34.994000  -57.083300
  C    -96.144100  -34.962300  -59.269500
  H    -95.670900  -35.910000  -59.443700
  H    -95.703400  -34.231700  -60.003200
  C    -97.659000  -35.051800  -59.628600
  H    -97.868700  -35.571600  -60.551700
  H    -98.148600  -34.147800  -59.741900
  H    -98.237700  -35.685700  -58.991600
  H    -95.351900  -40.156600  -56.180000
  H    -91.524300  -33.108900  -57.477800

 Total Charge           Charge          ....    0
 Multiplicity           Mult            ....    1
 Number of Electrons    NEL             ....  134
 Basis Dimension        Dim             ....  322

ORBITAL ENERGIES
----------------

  NO   OCC          E(Eh)            E(eV)
   0   2.0000     -88.966278     -2420.8955
   1   2.0000     -88.964940     -2420.8591
   2   2.0000     -10.323817      -280.9254
   3   2.0000     -10.319612      -280.8109
   4   2.0000     -10.317733      -280.7598
   5   2.0000     -10.314533      -280.6727
   6   2.0000     -10.310019      -280.5499
   7   2.0000     -10.307468      -280.4805
   8   2.0000     -10.301422      -280.3159
   9   2.0000     -10.300131      -280.2808
  10   2.0000     -10.295653      -280.1590
  11   2.0000     -10.293042      -280.0879
  12   2.0000     -10.287954      -279.9494
  13   2.0000     -10.286324      -279.9051
  14   2.0000     -10.269753      -279.4542
  15   2.0000     -10.266053      -279.3535
  16   2.0000      -8.080795      -219.8896
  17   2.0000      -8.080706      -219.8872
  18   2.0000      -6.039181      -164.3345
  19   2.0000      -6.039042      -164.3307
  20   2.0000      -6.035419      -164.2321
  21   2.0000      -6.035130      -164.2242
  22   2.0000      -6.031755      -164.1324
  23   2.0000      -6.031357      -164.1216
  24   2.0000      -1.006821       -27.3970
  25   2.0000      -0.980305       -26.6755
  26   2.0000      -0.909234       -24.7415
  27   2.0000      -0.896989       -24.4083
  28   2.0000      -0.870129       -23.6774
  29   2.0000      -0.851481       -23.1700
  30   2.0000      -0.848454       -23.0876
  31   2.0000      -0.809691       -22.0328
  32   2.0000      -0.782472       -21.2921
  33   2.0000      -0.765298       -20.8248
  34   2.0000      -0.708844       -19.2886
  35   2.0000      -0.700884       -19.0720
  36   2.0000      -0.690896       -18.8002
  37   2.0000      -0.651976       -17.7412
  38   2.0000      -0.641026       -17.4432
  39   2.0000      -0.618195       -16.8219
  40   2.0000      -0.589855       -16.0508
  41   2.0000      -0.573508       -15.6060
  42   2.0000      -0.559045       -15.2124
  43   2.0000      -0.552206       -15.0263
  44   2.0000      -0.528791       -14.3891
  45   2.0000      -0.517936       -14.0937
  46   2.0000      -0.510406       -13.8889
  47   2.0000      -0.506785       -13.7903
  48   2.0000      -0.501197       -13.6383
  49   2.0000      -0.496729       -13.5167
  50   2.0000      -0.488978       -13.3058
  51   2.0000      -0.475162       -12.9298
  52   2.0000      -0.465450       -12.6655
  53   2.0000      -0.461162       -12.5488
  54   2.0000      -0.460905       -12.5419
  55   2.0000      -0.450994       -12.2722
  56   2.0000      -0.443846       -12.0777
  57   2.0000      -0.439585       -11.9617
  58   2.0000      -0.428901       -11.6710
  59   2.0000      -0.425358       -11.5746
  60   2.0000      -0.422702       -11.5023
  61   2.0000      -0.417559       -11.3624
  62   2.0000      -0.412960       -11.2372
  63   2.0000      -0.337219        -9.1762
  64   2.0000      -0.329847        -8.9756
  65   2.0000      -0.317415        -8.6373
  66   2.0000      -0.300578        -8.1791
  67   0.0000       0.037907         1.0315
  68   0.0000       0.050296         1.3686
  69   0.0000       0.103099         2.8055
  70   0.0000       0.120556         3.2805
  71   0.0000       0.123563         3.3623

MULLIKEN ATOMIC CHARGES
-----------------------
   0 S :    0.107627
   1 C :   -0.126631
   2 C :   -0.089404
   3 C :    0.030068
   4 C :   -0.158736
   5 H :    0.032376
   6 C :    0.054067
   7 H :    0.037098
   8 H :    0.039396
   9 C :   -0.049063
  10 H :    0.017503
  11 H :    0.032658
  12 C :   -0.033678
  13 H :    0.019192
  14 H :    0.016535
  15 H :    0.020466
  16 S :    0.138124
  17 C :   -0.112513
  18 C :   -0.063610
  19 C :    0.031917
  20 C :   -0.193636
  21 H :    0.020174
  22 C :    0.001395
  23 H :    0.026604
  24 H :    0.032798
  25 C :   -0.045216
  26 H :    0.030862
  27 H :    0.037749
  28 C :   -0.030703
  29 H :    0.016305
  30 H :    0.017187
  31 H :    0.018220
  32 H :    0.046633
  33 H :    0.078235
Sum of atomic charges:    0.0000000

LOEWDIN ATOMIC CHARGES
----------------------
   0 S :    0.395713
   1 C :   -0.185675
   2 C :   -0.060773
   3 C :   -0.053396
   4 C :   -0.198294
   5 H :    0.040786
   6 C :   -0.031253
   7 H :    0.042591
   8 H :    0.035744
   9 C :   -0.044244
  10 H :    0.023496
  11 H :    0.025978
  12 C :   -0.057924
  13 H :    0.021628
  14 H :    0.018785
  15 H :    0.020360
  16 S :    0.431609
  17 C :   -0.223470
  18 C :   -0.080714
  19 C :   -0.057335
  20 C :   -0.204972
  21 H :    0.031904
  22 C :   -0.040769
  23 H :    0.034376
  24 H :    0.030615
  25 C :   -0.027928
  26 H :    0.019520
  27 H :    0.030082
  28 C :   -0.065709
  29 H :    0.027551
  30 H :    0.014487
  31 H :    0.022354
  32 H :    0.019298
  33 H :    0.045579

  Mayer bond orders larger than 0.100000
B(  0-S ,  1-C ) :   1.1422 B(  0-S ,  4-C ) :   1.1453 B(  1-C ,  2-C ) :   1.6066
B(  1-C ,  4-C ) :   0.1020 B(  1-C , 32-H ) :   0.9717 B(  2-C ,  3-C ) :   1.2289
B(  2-C ,  6-C ) :   1.0174 B(  3-C ,  4-C ) :   1.5953 B(  3-C ,  5-H ) :   0.9906
B(  4-C , 20-C ) :   1.0360 B(  6-C ,  7-H ) :   0.9354 B(  6-C ,  8-H ) :   0.9444
B(  6-C ,  9-C ) :   1.0632 B(  9-C , 10-H ) :   0.9543 B(  9-C , 11-H ) :   0.9575
B(  9-C , 12-C ) :   1.0820 B( 12-C , 13-H ) :   0.9723 B( 12-C , 14-H ) :   0.9744
B( 12-C , 15-H ) :   0.9760 B( 16-S , 17-C ) :   1.1853 B( 16-S , 20-C ) :   1.1429
B( 17-C , 18-C ) :   1.5963 B( 17-C , 33-H ) :   0.9518 B( 18-C , 19-C ) :   1.2407
B( 18-C , 21-H ) :   0.9927 B( 19-C , 20-C ) :   1.5718 B( 19-C , 22-C ) :   1.0781
B( 22-C , 23-H ) :   0.9335 B( 22-C , 24-H ) :   0.9381 B( 22-C , 25-C ) :   1.0410
B( 25-C , 26-H ) :   0.9601 B( 25-C , 27-H ) :   0.9556 B( 25-C , 28-C ) :   1.0768
B( 28-C , 29-H ) :   0.9701 B( 28-C , 30-H ) :   0.9786 B( 28-C , 31-H ) :   0.9747

Dispersion correction           -0.013756559
FINAL SINGLE POINT ENERGY     -1339.856026921821

DIPOLE MOMENT
-------------
                                X             Y             Z
Electronic contribution:     23.80592       2.59441      -6.10022
Nuclear contribution   :    -24.24897      -2.59365       6.25573
                        -----------------------------------------
Total Dipole Moment    :     -0.44304       0.00076       0.15552
                        -----------------------------------------
Magnitude (a.u.)       :      0.46955
Magnitude (Debye)      :      1.19349

Rotational constants in cm-1:     0.018902     0.007599     0.006561
Rotational constants in MHz :   566.669765   227.815005   196.698665

                             ****ORCA TERMINATED NORMALLY****
TOTAL RUN TIME: 0 days 0 hours 0 minutes 20 seconds 680 msec
