                         Program Version 4.2.1 -  RELEASE  -
|  1> ! wB97X-D3 SP def2-SVP
|  2> %pal
|  3> nprocs 24
|  4> end
|  5>
|  6> * xyz 0 1
|  7> S 	 -92.1936 	 15.2894 	 -115.466
|  8> C 	 -90.5882 	 15.7058 	 -114.811
|  9> C 	 -89.6237 	 15.4747 	 -115.759
| 10> C 	 -90.1235 	 14.9315 	 -116.966
| 11> C 	 -91.4977 	 14.7853 	 -117.008
| 12> H 	 -89.507 	 14.7503 	 -117.812
| 13> C 	 -88.1573 	 15.8894 	 -115.543
| 14> H 	 -88.0886 	 16.5219 	 -114.641
| 15> H 	 -87.9089 	 16.6115 	 -116.408
| 16> C 	 -87.1387 	 14.7689 	 -115.513
| 17> H 	 -86.1537 	 15.1722 	 -115.222
| 18> H 	 -87.427 	 14.0087 	 -114.804
| 19> C 	 -86.9703 	 14.1189 	 -116.835
| 20> H 	 -85.9793 	 13.5159 	 -116.781
| 21> H 	 -87.7144 	 13.3175 	 -116.999
| 22> H 	 -87.0992 	 14.7985 	 -117.718
| 23> S 	 -93.9028 	 13.5694 	 -117.896
| 24> C 	 -94.4111 	 13.7932 	 -119.58
| 25> C 	 -93.4998 	 14.5484 	 -120.276
| 26> C 	 -92.3849 	 14.9842 	 -119.435
| 27> C 	 -92.3639 	 14.4591 	 -118.161
| 28> H 	 -93.8151 	 14.7836 	 -121.266
| 29> C 	 -91.4418 	 16.0195 	 -120.029
| 30> H 	 -91.5202 	 16.0057 	 -121.116
| 31> H 	 -90.5058 	 15.5495 	 -119.777
| 32> C 	 -91.3785 	 17.3963 	 -119.377
| 33> H 	 -90.9101 	 17.2798 	 -118.415
| 34> H 	 -92.3853 	 17.9263 	 -119.287
| 35> C 	 -90.4872 	 18.3801 	 -120.101
| 36> H 	 -89.5543 	 17.9887 	 -120.429
| 37> H 	 -90.349 	 19.267 	 -119.475
| 38> H 	 -90.9833 	 18.7451 	 -121.022
| 39> H 	 -90.3517 	 16.1151 	 -113.828
| 40> H 	 -95.2573 	 13.3588 	 -120.033
| 41> *
| 42>
| 43>                          ****END OF INPUT****

CARTESIAN COORDINATES (ANGSTROEM)
---------------------------------
  S    -92.193600   15.289400  -115.466000
  C    -90.588200   15.705800  -114.811000
  C    -89.623700   15.474700  -115.759000
  C    -90.123500   14.931500  -116.966000
  C    -91.497700   14.785300  -117.008000
  H    -89.507000   14.750300  -117.812000
  C    -88.157300   15.889400  -115.543000
  H    -88.088600   16.521900  -114.641000
  H    -87.908900   16.611500  -116.408000
  C    -87.138700   14.768900  -115.513000
  H    -86.153700   15.172200  -115.222000
  H    -87.427000   14.008700  -114.804000
  C    -86.970300   14.118900  -116.835000
  H    -85.979300   13.515900  -116.781000
  H    -87.714400   13.317500  -116.999000
  H    -87.099200   14.798500  -117.718000
  S    -93.902800   13.569400  -117.896000
  C    -94.411100   13.793200  -119.580000
  C    -93.499800   14.548400  -120.276000
  C    -92.384900   14.984200  -119.435000
  C    -92.363900   14.459100  -118.161000
  H    -93.815100   14.783600  -121.266000
  C    -91.441800   16.019500  -120.029000
  H    -91.520200   16.005700  -121.116000
  H    -90.505800   15.549500  -119.777000
  C    -91.378500   17.396300  -119.377000
  H    -90.910100   17.279800  -118.415000
  H    -92.385300   17.926300  -119.287000
  C    -90.487200   18.380100  -120.101000
  H    -89.554300   17.988700  -120.429000
  H    -90.349000   19.267000  -119.475000
  H    -90.983300   18.745100  -121.022000
  H    -90.351700   16.115100  -113.828000
  H    -95.257300   13.358800  -120.033000

 Total Charge           Charge          ....    0
 Multiplicity           Mult            ....    1
 Number of Electrons    NEL             ....  134
 Basis Dimension        Dim             ....  322

ORBITAL ENERGIES
----------------

  NO   OCC          E(Eh)            E(eV)
   0   2.0000     -88.967724     -2420.9348
   1   2.0000     -88.963923     -2420.8314
   2   2.0000     -10.337509      -281.2979
   3   2.0000     -10.333323      -281.1840
   4   2.0000     -10.318619      -280.7839
   5   2.0000     -10.317093      -280.7424
   6   2.0000     -10.310406      -280.5604
   7   2.0000     -10.300936      -280.3027
   8   2.0000     -10.300873      -280.3010
   9   2.0000     -10.295153      -280.1454
  10   2.0000     -10.293428      -280.0984
  11   2.0000     -10.289630      -279.9951
  12   2.0000     -10.286100      -279.8990
  13   2.0000     -10.285161      -279.8735
  14   2.0000     -10.284275      -279.8493
  15   2.0000     -10.273412      -279.5537
  16   2.0000      -8.081531      -219.9096
  17   2.0000      -8.077759      -219.8070
  18   2.0000      -6.040162      -164.3612
  19   2.0000      -6.036519      -164.2620
  20   2.0000      -6.036152      -164.2520
  21   2.0000      -6.032412      -164.1503
  22   2.0000      -6.032207      -164.1447
  23   2.0000      -6.028282      -164.0379
  24   2.0000      -1.002496       -27.2793
  25   2.0000      -0.980632       -26.6844
  26   2.0000      -0.917090       -24.9553
  27   2.0000      -0.909866       -24.7587
  28   2.0000      -0.871827       -23.7236
  29   2.0000      -0.851420       -23.1683
  30   2.0000      -0.842528       -22.9264
  31   2.0000      -0.821699       -22.3596
  32   2.0000      -0.782147       -21.2833
  33   2.0000      -0.770890       -20.9770
  34   2.0000      -0.709222       -19.2989
  35   2.0000      -0.694845       -18.9077
  36   2.0000      -0.689371       -18.7587
  37   2.0000      -0.663429       -18.0528
  38   2.0000      -0.640415       -17.4266
  39   2.0000      -0.622953       -16.9514
  40   2.0000      -0.589758       -16.0481
  41   2.0000      -0.577490       -15.7143
  42   2.0000      -0.568843       -15.4790
  43   2.0000      -0.548734       -14.9318
  44   2.0000      -0.547052       -14.8860
  45   2.0000      -0.527982       -14.3671
  46   2.0000      -0.520075       -14.1519
  47   2.0000      -0.515400       -14.0247
  48   2.0000      -0.505578       -13.7575
  49   2.0000      -0.501947       -13.6587
  50   2.0000      -0.492018       -13.3885
  51   2.0000      -0.481566       -13.1041
  52   2.0000      -0.475693       -12.9443
  53   2.0000      -0.463054       -12.6003
  54   2.0000      -0.453301       -12.3349
  55   2.0000      -0.443997       -12.0818
  56   2.0000      -0.440858       -11.9964
  57   2.0000      -0.435056       -11.8385
  58   2.0000      -0.431187       -11.7332
  59   2.0000      -0.428845       -11.6695
  60   2.0000      -0.415881       -11.3167
  61   2.0000      -0.410108       -11.1596
  62   2.0000      -0.407380       -11.0854
  63   2.0000      -0.352445        -9.5905
  64   2.0000      -0.334185        -9.0936
  65   2.0000      -0.327834        -8.9208
  66   2.0000      -0.293201        -7.9784
  67   0.0000       0.024127         0.6565
  68   0.0000       0.070238         1.9113
  69   0.0000       0.103023         2.8034
  70   0.0000       0.115427         3.1409
  71   0.0000       0.135101         3.6763

MULLIKEN ATOMIC CHARGES
-----------------------
   0 S :    0.106496
   1 C :   -0.130921
   2 C :   -0.080887
   3 C :    0.019862
   4 C :   -0.116205
   5 H :   -0.003256
   6 C :    0.016639
   7 H :    0.020063
   8 H :    0.043207
   9 C :   -0.025432
  10 H :    0.033617
  11 H :    0.031391
  12 C :   -0.107495
  13 H :    0.046950
  14 H :    0.042075
  15 H :    0.040203
  16 S :    0.078835
  17 C :   -0.075853
  18 C :   -0.022576
  19 C :   -0.049583
  20 C :   -0.136233
  21 H :    0.014227
  22 C :    0.086927
  23 H :    0.019391
  24 H :    0.006220
  25 C :   -0.069721
  26 H :    0.038526
  27 H :    0.043863
  28 C :   -0.038405
  29 H :    0.014951
  30 H :    0.035809
  31 H :    0.022745
  32 H :    0.049903
  33 H :    0.044665
Sum of atomic charges:    0.0000000

LOEWDIN ATOMIC CHARGES
----------------------
   0 S :    0.389219
   1 C :   -0.189769
   2 C :   -0.066186
   3 C :   -0.069206
   4 C :   -0.175877
   5 H :    0.024093
   6 C :   -0.033926
   7 H :    0.028564
   8 H :    0.037540
   9 C :   -0.048427
  10 H :    0.027640
  11 H :    0.028795
  12 C :   -0.079486
  13 H :    0.039497
  14 H :    0.026117
  15 H :    0.024448
  16 S :    0.368088
  17 C :   -0.159035
  18 C :   -0.072420
  19 C :   -0.042762
  20 C :   -0.191299
  21 H :    0.030932
  22 C :   -0.034692
  23 H :    0.028384
  24 H :    0.030396
  25 C :   -0.041114
  26 H :    0.025788
  27 H :    0.033536
  28 C :   -0.063727
  29 H :    0.015216
  30 H :    0.029337
  31 H :    0.023944
  32 H :    0.033061
  33 H :    0.023331

  Mayer bond orders larger than 0.100000
B(  0-S ,  1-C ) :   1.1234 B(  0-S ,  4-C ) :   1.1503 B(  1-C ,  2-C ) :   1.6299
B(  1-C , 32-H ) :   0.9652 B(  2-C ,  3-C ) :   1.2461 B(  2-C ,  6-C ) :   1.0088
B(  3-C ,  4-C ) :   1.5640 B(  3-C ,  5-H ) :   0.9993 B(  4-C , 20-C ) :   1.0479
B(  6-C ,  7-H ) :   0.9426 B(  6-C ,  8-H ) :   0.9462 B(  6-C ,  9-C ) :   1.0748
B(  9-C , 10-H ) :   0.9562 B(  9-C , 11-H ) :   0.9458 B(  9-C , 12-C ) :   1.0860
B( 12-C , 13-H ) :   0.9676 B( 12-C , 14-H ) :   0.9675 B( 12-C , 15-H ) :   0.9706
B( 16-S , 17-C ) :   1.1449 B( 16-S , 20-C ) :   1.1000 B( 17-C , 18-C ) :   1.6494
B( 17-C , 33-H ) :   0.9682 B( 18-C , 19-C ) :   1.1985 B( 18-C , 21-H ) :   0.9965
B( 19-C , 20-C ) :   1.6231 B( 19-C , 22-C ) :   1.0301 B( 22-C , 23-H ) :   0.9417
B( 22-C , 24-H ) :   0.9211 B( 22-C , 25-C ) :   1.0661 B( 25-C , 26-H ) :   0.9476
B( 25-C , 27-H ) :   0.9568 B( 25-C , 28-C ) :   1.0945 B( 28-C , 29-H ) :   0.9719
B( 28-C , 30-H ) :   0.9736 B( 28-C , 31-H ) :   0.9739

Dispersion correction           -0.014909085
FINAL SINGLE POINT ENERGY     -1339.876678496096

DIPOLE MOMENT
-------------
                                X             Y             Z
Electronic contribution:    -24.85766     -11.56557       8.40996
Nuclear contribution   :     25.34549      11.92962      -8.76287
                        -----------------------------------------
Total Dipole Moment    :      0.48783       0.36405      -0.35291
                        -----------------------------------------
Magnitude (a.u.)       :      0.70360
Magnitude (Debye)      :      1.78841

Rotational constants in cm-1:     0.018054     0.009294     0.007578
Rotational constants in MHz :   541.236215   278.634011   227.185639

                             ****ORCA TERMINATED NORMALLY****
TOTAL RUN TIME: 0 days 0 hours 0 minutes 22 seconds 476 msec
