                         Program Version 4.2.1 -  RELEASE  -
|  1> ! wB97X-D3 SP def2-SVP
|  2> %pal
|  3> nprocs 24
|  4> end
|  5>
|  6> * xyz 0 1
|  7> S 	 -53.7618 	 9.26709 	 -20.5272
|  8> C 	 -52.1596 	 9.99392 	 -20.2533
|  9> C 	 -52.2457 	 10.906 	 -19.1975
| 10> C 	 -53.5883 	 11.0914 	 -18.775
| 11> C 	 -54.5278 	 10.3371 	 -19.401
| 12> H 	 -53.8264 	 11.8014 	 -17.9595
| 13> C 	 -51.0055 	 11.6717 	 -18.7413
| 14> H 	 -50.7637 	 12.3421 	 -19.5945
| 15> H 	 -50.1888 	 11.0061 	 -18.724
| 16> C 	 -51.0746 	 12.3447 	 -17.3821
| 17> H 	 -50.1418 	 12.8579 	 -17.096
| 18> H 	 -51.8415 	 13.1157 	 -17.3298
| 19> C 	 -51.5536 	 11.4335 	 -16.2337
| 20> H 	 -51.2782 	 10.3748 	 -16.5226
| 21> H 	 -51.0546 	 11.6638 	 -15.3397
| 22> H 	 -52.5534 	 11.3095 	 -16.0918
| 23> S 	 -56.3456 	 10.3549 	 -17.3456
| 24> C 	 -57.9358 	 9.78117 	 -17.6547
| 25> C 	 -58.1518 	 9.74125 	 -18.9995
| 26> C 	 -57.0482 	 10.167 	 -19.8502
| 27> C 	 -55.9534 	 10.3412 	 -19.0661
| 28> H 	 -59.1538 	 9.40988 	 -19.3564
| 29> C 	 -57.1182 	 10.2992 	 -21.3879
| 30> H 	 -57.916 	 9.70596 	 -21.8812
| 31> H 	 -56.1996 	 9.97902 	 -21.789
| 32> C 	 -57.337 	 11.8238 	 -21.7167
| 33> H 	 -56.4642 	 12.3203 	 -21.3678
| 34> H 	 -58.2098 	 12.2386 	 -21.1715
| 35> C 	 -57.5567 	 12.0043 	 -23.3257
| 36> H 	 -57.4936 	 13.0189 	 -23.6821
| 37> H 	 -58.5881 	 11.5892 	 -23.5505
| 38> H 	 -56.7724 	 11.4169 	 -23.8547
| 39> H 	 -51.2231 	 9.65391 	 -20.6189
| 40> H 	 -58.6544 	 9.45484 	 -16.9443
| 41> *
| 42>
| 43>                          ****END OF INPUT****

CARTESIAN COORDINATES (ANGSTROEM)
---------------------------------
  S    -53.761800    9.267090  -20.527200
  C    -52.159600    9.993920  -20.253300
  C    -52.245700   10.906000  -19.197500
  C    -53.588300   11.091400  -18.775000
  C    -54.527800   10.337100  -19.401000
  H    -53.826400   11.801400  -17.959500
  C    -51.005500   11.671700  -18.741300
  H    -50.763700   12.342100  -19.594500
  H    -50.188800   11.006100  -18.724000
  C    -51.074600   12.344700  -17.382100
  H    -50.141800   12.857900  -17.096000
  H    -51.841500   13.115700  -17.329800
  C    -51.553600   11.433500  -16.233700
  H    -51.278200   10.374800  -16.522600
  H    -51.054600   11.663800  -15.339700
  H    -52.553400   11.309500  -16.091800
  S    -56.345600   10.354900  -17.345600
  C    -57.935800    9.781170  -17.654700
  C    -58.151800    9.741250  -18.999500
  C    -57.048200   10.167000  -19.850200
  C    -55.953400   10.341200  -19.066100
  H    -59.153800    9.409880  -19.356400
  C    -57.118200   10.299200  -21.387900
  H    -57.916000    9.705960  -21.881200
  H    -56.199600    9.979020  -21.789000
  C    -57.337000   11.823800  -21.716700
  H    -56.464200   12.320300  -21.367800
  H    -58.209800   12.238600  -21.171500
  C    -57.556700   12.004300  -23.325700
  H    -57.493600   13.018900  -23.682100
  H    -58.588100   11.589200  -23.550500
  H    -56.772400   11.416900  -23.854700
  H    -51.223100    9.653910  -20.618900
  H    -58.654400    9.454840  -16.944300

 Total Charge           Charge          ....    0
 Multiplicity           Mult            ....    1
 Number of Electrons    NEL             ....  134
 Basis Dimension        Dim             ....  322

ORBITAL ENERGIES
----------------

  NO   OCC          E(Eh)            E(eV)
   0   2.0000     -88.969578     -2420.9853
   1   2.0000     -88.963112     -2420.8094
   2   2.0000     -10.328060      -281.0408
   3   2.0000     -10.325572      -280.9731
   4   2.0000     -10.312685      -280.6224
   5   2.0000     -10.312410      -280.6149
   6   2.0000     -10.306551      -280.4555
   7   2.0000     -10.302529      -280.3461
   8   2.0000     -10.295760      -280.1619
   9   2.0000     -10.295748      -280.1615
  10   2.0000     -10.293182      -280.0917
  11   2.0000     -10.291386      -280.0429
  12   2.0000     -10.290755      -280.0257
  13   2.0000     -10.288205      -279.9563
  14   2.0000     -10.287611      -279.9401
  15   2.0000     -10.267398      -279.3901
  16   2.0000      -8.083404      -219.9606
  17   2.0000      -8.078444      -219.8256
  18   2.0000      -6.042008      -164.4114
  19   2.0000      -6.037997      -164.3022
  20   2.0000      -6.037080      -164.2773
  21   2.0000      -6.034156      -164.1977
  22   2.0000      -6.032977      -164.1656
  23   2.0000      -6.028928      -164.0555
  24   2.0000      -1.010742       -27.5037
  25   2.0000      -0.987079       -26.8598
  26   2.0000      -0.914511       -24.8851
  27   2.0000      -0.899913       -24.4879
  28   2.0000      -0.870368       -23.6839
  29   2.0000      -0.845215       -22.9995
  30   2.0000      -0.838681       -22.8217
  31   2.0000      -0.816379       -22.2148
  32   2.0000      -0.785141       -21.3648
  33   2.0000      -0.773158       -21.0387
  34   2.0000      -0.711241       -19.3538
  35   2.0000      -0.700014       -19.0483
  36   2.0000      -0.692559       -18.8455
  37   2.0000      -0.666410       -18.1339
  38   2.0000      -0.629017       -17.1164
  39   2.0000      -0.623724       -16.9724
  40   2.0000      -0.596026       -16.2187
  41   2.0000      -0.569544       -15.4981
  42   2.0000      -0.560748       -15.2587
  43   2.0000      -0.556098       -15.1322
  44   2.0000      -0.544467       -14.8157
  45   2.0000      -0.518288       -14.1033
  46   2.0000      -0.513573       -13.9750
  47   2.0000      -0.512376       -13.9425
  48   2.0000      -0.505248       -13.7485
  49   2.0000      -0.499962       -13.6046
  50   2.0000      -0.493073       -13.4172
  51   2.0000      -0.481000       -13.0887
  52   2.0000      -0.472917       -12.8687
  53   2.0000      -0.461570       -12.5600
  54   2.0000      -0.456174       -12.4131
  55   2.0000      -0.448172       -12.1954
  56   2.0000      -0.443170       -12.0593
  57   2.0000      -0.438628       -11.9357
  58   2.0000      -0.434227       -11.8159
  59   2.0000      -0.429284       -11.6814
  60   2.0000      -0.419770       -11.4225
  61   2.0000      -0.414996       -11.2926
  62   2.0000      -0.408565       -11.1176
  63   2.0000      -0.351655        -9.5690
  64   2.0000      -0.332277        -9.0417
  65   2.0000      -0.328263        -8.9325
  66   2.0000      -0.289777        -7.8852
  67   0.0000       0.026750         0.7279
  68   0.0000       0.072440         1.9712
  69   0.0000       0.107268         2.9189
  70   0.0000       0.119801         3.2600
  71   0.0000       0.135062         3.6752

MULLIKEN ATOMIC CHARGES
-----------------------
   0 S :    0.114646
   1 C :   -0.120941
   2 C :   -0.107708
   3 C :   -0.024493
   4 C :   -0.096303
   5 H :    0.022216
   6 C :    0.091906
   7 H :    0.051769
   8 H :    0.015084
   9 C :   -0.077744
  10 H :    0.035868
  11 H :    0.025890
  12 C :   -0.033847
  13 H :    0.022532
  14 H :    0.028179
  15 H :    0.014486
  16 S :    0.099137
  17 C :   -0.066035
  18 C :   -0.060122
  19 C :   -0.052846
  20 C :   -0.161685
  21 H :    0.025597
  22 C :    0.100961
  23 H :    0.029112
  24 H :    0.007078
  25 C :   -0.093643
  26 H :    0.033629
  27 H :    0.043158
  28 C :   -0.072453
  29 H :    0.041421
  30 H :    0.042933
  31 H :    0.040280
  32 H :    0.034389
  33 H :    0.047551
Sum of atomic charges:   -0.0000000

LOEWDIN ATOMIC CHARGES
----------------------
   0 S :    0.412567
   1 C :   -0.192205
   2 C :   -0.055343
   3 C :   -0.082121
   4 C :   -0.195079
   5 H :    0.031978
   6 C :   -0.032334
   7 H :    0.043624
   8 H :    0.024554
   9 C :   -0.045409
  10 H :    0.030938
  11 H :    0.022325
  12 C :   -0.058038
  13 H :    0.032404
  14 H :    0.021946
  15 H :    0.009077
  16 S :    0.404518
  17 C :   -0.190237
  18 C :   -0.073662
  19 C :   -0.052651
  20 C :   -0.187685
  21 H :    0.033302
  22 C :   -0.022455
  23 H :    0.031875
  24 H :    0.012639
  25 C :   -0.029274
  26 H :    0.018749
  27 H :    0.026717
  28 C :   -0.072135
  29 H :    0.021821
  30 H :    0.030814
  31 H :    0.027971
  32 H :    0.021987
  33 H :    0.028821

  Mayer bond orders larger than 0.100000
B(  0-S ,  1-C ) :   1.1344 B(  0-S ,  4-C ) :   1.1502 B(  1-C ,  2-C ) :   1.5985
B(  1-C , 32-H ) :   0.9735 B(  2-C ,  3-C ) :   1.2687 B(  2-C ,  6-C ) :   1.0018
B(  3-C ,  4-C ) :   1.5436 B(  3-C ,  5-H ) :   0.9868 B(  4-C , 20-C ) :   1.0550
B(  6-C ,  7-H ) :   0.9398 B(  6-C ,  8-H ) :   0.9359 B(  6-C ,  9-C ) :   1.0835
B(  9-C , 10-H ) :   0.9590 B(  9-C , 11-H ) :   0.9536 B(  9-C , 12-C ) :   1.0644
B( 12-C , 13-H ) :   0.9761 B( 12-C , 14-H ) :   0.9748 B( 12-C , 15-H ) :   0.9744
B( 16-S , 17-C ) :   1.1331 B( 16-S , 20-C ) :   1.1277 B( 17-C , 18-C ) :   1.6502
B( 17-C , 33-H ) :   0.9719 B( 18-C , 19-C ) :   1.1994 B( 18-C , 21-H ) :   0.9830
B( 19-C , 20-C ) :   1.6107 B( 19-C , 22-C ) :   1.0409 B( 22-C , 23-H ) :   0.9461
B( 22-C , 24-H ) :   0.9257 B( 22-C , 25-C ) :   1.0449 B( 25-C , 26-H ) :   0.9625
B( 25-C , 27-H ) :   0.9639 B( 25-C , 28-C ) :   1.0600 B( 28-C , 29-H ) :   0.9794
B( 28-C , 30-H ) :   0.9780 B( 28-C , 31-H ) :   0.9769

Dispersion correction           -0.014522925
FINAL SINGLE POINT ENERGY     -1339.867724750443

DIPOLE MOMENT
-------------
                                X             Y             Z
Electronic contribution:     -4.62478     -11.26107       4.87793
Nuclear contribution   :      4.70170      11.43577      -4.91228
                        -----------------------------------------
Total Dipole Moment    :      0.07692       0.17470      -0.03435
                        -----------------------------------------
Magnitude (a.u.)       :      0.19395
Magnitude (Debye)      :      0.49299

Rotational constants in cm-1:     0.019117     0.008861     0.007104
Rotational constants in MHz :   573.124129   265.659591   212.968950

                             ****ORCA TERMINATED NORMALLY****
TOTAL RUN TIME: 0 days 0 hours 0 minutes 21 seconds 566 msec
