                         Program Version 4.2.1 -  RELEASE  -
|  1> ! wB97X-D3 SP def2-SVP
|  2> %pal
|  3> nprocs 24
|  4> end
|  5>
|  6> * xyz 0 1
|  7> S 	 0.126281 	 -24.0498 	 -112.309
|  8> C 	 -0.846723 	 -25.1439 	 -113.333
|  9> C 	 -2.14287 	 -25.0234 	 -113.017
| 10> C 	 -2.30588 	 -24.4325 	 -111.712
| 11> C 	 -1.1943 	 -23.9478 	 -111.131
| 12> H 	 -3.19183 	 -24.2618 	 -111.269
| 13> C 	 -3.3384 	 -25.5712 	 -113.772
| 14> H 	 -3.98315 	 -26.2223 	 -113.198
| 15> H 	 -3.01574 	 -26.2006 	 -114.624
| 16> C 	 -4.23284 	 -24.4622 	 -114.326
| 17> H 	 -4.80185 	 -24.084 	 -113.466
| 18> H 	 -3.65242 	 -23.6871 	 -114.776
| 19> C 	 -5.41356 	 -25.0359 	 -115.221
| 20> H 	 -6.05634 	 -24.258 	 -115.645
| 21> H 	 -5.02885 	 -25.3131 	 -116.209
| 22> H 	 -6.01529 	 -25.8367 	 -114.756
| 23> S 	 -0.521736 	 -21.6465 	 -109.948
| 24> C 	 -0.703388 	 -21.4235 	 -108.258
| 25> C 	 -1.09194 	 -22.5803 	 -107.628
| 26> C 	 -1.34926 	 -23.6247 	 -108.51
| 27> C 	 -1.00657 	 -23.3378 	 -109.802
| 28> H 	 -1.25167 	 -22.6953 	 -106.505
| 29> C 	 -1.86775 	 -24.9895 	 -108.027
| 30> H 	 -2.63092 	 -25.3145 	 -108.71
| 31> H 	 -2.47153 	 -24.8638 	 -107.128
| 32> C 	 -0.795991 	 -26.0557 	 -107.87
| 33> H 	 -0.253387 	 -25.9838 	 -106.87
| 34> H 	 0.0748576 	 -25.9784 	 -108.551
| 35> C 	 -1.33358 	 -27.4429 	 -108.028
| 36> H 	 -0.653513 	 -28.2626 	 -107.654
| 37> H 	 -1.69339 	 -27.6657 	 -109.047
| 38> H 	 -2.23783 	 -27.4326 	 -107.336
| 39> H 	 -0.438065 	 -25.7004 	 -114.155
| 40> H 	 -0.407505 	 -20.5824 	 -107.659
| 41> *
| 42>
| 43>                          ****END OF INPUT****

CARTESIAN COORDINATES (ANGSTROEM)
---------------------------------
  S      0.126281  -24.049800  -112.309000
  C     -0.846723  -25.143900  -113.333000
  C     -2.142870  -25.023400  -113.017000
  C     -2.305880  -24.432500  -111.712000
  C     -1.194300  -23.947800  -111.131000
  H     -3.191830  -24.261800  -111.269000
  C     -3.338400  -25.571200  -113.772000
  H     -3.983150  -26.222300  -113.198000
  H     -3.015740  -26.200600  -114.624000
  C     -4.232840  -24.462200  -114.326000
  H     -4.801850  -24.084000  -113.466000
  H     -3.652420  -23.687100  -114.776000
  C     -5.413560  -25.035900  -115.221000
  H     -6.056340  -24.258000  -115.645000
  H     -5.028850  -25.313100  -116.209000
  H     -6.015290  -25.836700  -114.756000
  S     -0.521736  -21.646500  -109.948000
  C     -0.703388  -21.423500  -108.258000
  C     -1.091940  -22.580300  -107.628000
  C     -1.349260  -23.624700  -108.510000
  C     -1.006570  -23.337800  -109.802000
  H     -1.251670  -22.695300  -106.505000
  C     -1.867750  -24.989500  -108.027000
  H     -2.630920  -25.314500  -108.710000
  H     -2.471530  -24.863800  -107.128000
  C     -0.795991  -26.055700  -107.870000
  H     -0.253387  -25.983800  -106.870000
  H      0.074858  -25.978400  -108.551000
  C     -1.333580  -27.442900  -108.028000
  H     -0.653513  -28.262600  -107.654000
  H     -1.693390  -27.665700  -109.047000
  H     -2.237830  -27.432600  -107.336000
  H     -0.438065  -25.700400  -114.155000
  H     -0.407505  -20.582400  -107.659000

 Total Charge           Charge          ....    0
 Multiplicity           Mult            ....    1
 Number of Electrons    NEL             ....  134
 Basis Dimension        Dim             ....  322

ORBITAL ENERGIES
----------------

  NO   OCC          E(Eh)            E(eV)
   0   2.0000     -88.965461     -2420.8733
   1   2.0000     -88.958321     -2420.6790
   2   2.0000     -10.328876      -281.0630
   3   2.0000     -10.326038      -280.9858
   4   2.0000     -10.313716      -280.6505
   5   2.0000     -10.312857      -280.6271
   6   2.0000     -10.300450      -280.2895
   7   2.0000     -10.299782      -280.2713
   8   2.0000     -10.293303      -280.0950
   9   2.0000     -10.293244      -280.0934
  10   2.0000     -10.291823      -280.0547
  11   2.0000     -10.290107      -280.0080
  12   2.0000     -10.286092      -279.8988
  13   2.0000     -10.285460      -279.8816
  14   2.0000     -10.282622      -279.8044
  15   2.0000     -10.282155      -279.7917
  16   2.0000      -8.080764      -219.8888
  17   2.0000      -8.072949      -219.6761
  18   2.0000      -6.039222      -164.3356
  19   2.0000      -6.035159      -164.2250
  20   2.0000      -6.031702      -164.1310
  21   2.0000      -6.031564      -164.1272
  22   2.0000      -6.027721      -164.0226
  23   2.0000      -6.023195      -163.8995
  24   2.0000      -1.011594       -27.5269
  25   2.0000      -0.989866       -26.9356
  26   2.0000      -0.911560       -24.8048
  27   2.0000      -0.910289       -24.7702
  28   2.0000      -0.870809       -23.6959
  29   2.0000      -0.854862       -23.2620
  30   2.0000      -0.840533       -22.8721
  31   2.0000      -0.817419       -22.2431
  32   2.0000      -0.781590       -21.2682
  33   2.0000      -0.774032       -21.0625
  34   2.0000      -0.706373       -19.2214
  35   2.0000      -0.696858       -18.9625
  36   2.0000      -0.690145       -18.7798
  37   2.0000      -0.664370       -18.0784
  38   2.0000      -0.650201       -17.6929
  39   2.0000      -0.625521       -17.0213
  40   2.0000      -0.600351       -16.3364
  41   2.0000      -0.580299       -15.7907
  42   2.0000      -0.557042       -15.1579
  43   2.0000      -0.552968       -15.0470
  44   2.0000      -0.529375       -14.4050
  45   2.0000      -0.520415       -14.1612
  46   2.0000      -0.516370       -14.0512
  47   2.0000      -0.512938       -13.9578
  48   2.0000      -0.502615       -13.6768
  49   2.0000      -0.501319       -13.6416
  50   2.0000      -0.498690       -13.5700
  51   2.0000      -0.482344       -13.1252
  52   2.0000      -0.474592       -12.9143
  53   2.0000      -0.465009       -12.6535
  54   2.0000      -0.453909       -12.3515
  55   2.0000      -0.449145       -12.2219
  56   2.0000      -0.441907       -12.0249
  57   2.0000      -0.440113       -11.9761
  58   2.0000      -0.430831       -11.7235
  59   2.0000      -0.425494       -11.5783
  60   2.0000      -0.417463       -11.3597
  61   2.0000      -0.409283       -11.1372
  62   2.0000      -0.403995       -10.9933
  63   2.0000      -0.346500        -9.4287
  64   2.0000      -0.335752        -9.1363
  65   2.0000      -0.325973        -8.8702
  66   2.0000      -0.297317        -8.0904
  67   0.0000       0.035079         0.9545
  68   0.0000       0.060818         1.6549
  69   0.0000       0.106849         2.9075
  70   0.0000       0.126701         3.4477
  71   0.0000       0.130167         3.5420

MULLIKEN ATOMIC CHARGES
-----------------------
   0 S :    0.077492
   1 C :   -0.133851
   2 C :   -0.032095
   3 C :    0.065430
   4 C :   -0.120317
   5 H :   -0.038852
   6 C :    0.066158
   7 H :    0.021815
   8 H :    0.016060
   9 C :   -0.087296
  10 H :    0.035104
  11 H :    0.036952
  12 C :   -0.065903
  13 H :    0.030467
  14 H :    0.020910
  15 H :    0.048772
  16 S :    0.106515
  17 C :   -0.066375
  18 C :   -0.071240
  19 C :   -0.054601
  20 C :   -0.150931
  21 H :    0.039174
  22 C :    0.102148
  23 H :    0.010254
  24 H :    0.016436
  25 C :   -0.068340
  26 H :    0.030228
  27 H :    0.040209
  28 C :   -0.088703
  29 H :    0.046295
  30 H :    0.047712
  31 H :    0.025438
  32 H :    0.044323
  33 H :    0.050610
Sum of atomic charges:   -0.0000000

LOEWDIN ATOMIC CHARGES
----------------------
   0 S :    0.357783
   1 C :   -0.167110
   2 C :   -0.061329
   3 C :   -0.049652
   4 C :   -0.179192
   5 H :    0.010217
   6 C :   -0.031801
   7 H :    0.026976
   8 H :    0.028314
   9 C :   -0.033540
  10 H :    0.025439
  11 H :    0.022990
  12 C :   -0.077007
  13 H :    0.029693
  14 H :    0.023760
  15 H :    0.030109
  16 S :    0.421547
  17 C :   -0.194973
  18 C :   -0.082145
  19 C :   -0.058308
  20 C :   -0.188799
  21 H :    0.043871
  22 C :   -0.028109
  23 H :    0.027664
  24 H :    0.031358
  25 C :   -0.053261
  26 H :    0.030401
  27 H :    0.027884
  28 C :   -0.074125
  29 H :    0.032257
  30 H :    0.026392
  31 H :    0.026281
  32 H :    0.026964
  33 H :    0.029451

  Mayer bond orders larger than 0.100000
B(  0-S ,  1-C ) :   1.1129 B(  0-S ,  4-C ) :   1.1124 B(  1-C ,  2-C ) :   1.6554
B(  1-C , 32-H ) :   0.9747 B(  2-C ,  3-C ) :   1.1632 B(  2-C ,  6-C ) :   1.0338
B(  3-C ,  4-C ) :   1.6431 B(  3-C ,  5-H ) :   1.0209 B(  4-C , 20-C ) :   0.9882
B(  6-C ,  7-H ) :   0.9425 B(  6-C ,  8-H ) :   0.9459 B(  6-C ,  9-C ) :   1.0515
B(  9-C , 10-H ) :   0.9582 B(  9-C , 11-H ) :   0.9609 B(  9-C , 12-C ) :   1.0766
B( 12-C , 13-H ) :   0.9727 B( 12-C , 14-H ) :   0.9726 B( 12-C , 15-H ) :   0.9747
B( 16-S , 17-C ) :   1.1691 B( 16-S , 20-C ) :   1.1486 B( 17-C , 18-C ) :   1.5936
B( 17-C , 20-C ) :   0.1070 B( 17-C , 33-H ) :   0.9641 B( 18-C , 19-C ) :   1.2763
B( 18-C , 21-H ) :   0.9751 B( 19-C , 20-C ) :   1.6233 B( 19-C , 22-C ) :   1.0366
B( 22-C , 23-H ) :   0.9381 B( 22-C , 24-H ) :   0.9223 B( 22-C , 25-C ) :   1.0475
B( 25-C , 26-H ) :   0.9495 B( 25-C , 27-H ) :   0.9623 B( 25-C , 28-C ) :   1.0804
B( 28-C , 29-H ) :   0.9713 B( 28-C , 30-H ) :   0.9749 B( 28-C , 31-H ) :   0.9726

Dispersion correction           -0.013812458
FINAL SINGLE POINT ENERGY     -1339.861077283016

DIPOLE MOMENT
-------------
                                X             Y             Z
Electronic contribution:     17.79429      18.46540       1.86566
Nuclear contribution   :    -18.36632     -18.77047      -1.77032
                        -----------------------------------------
Total Dipole Moment    :     -0.57204      -0.30507       0.09535
                        -----------------------------------------
Magnitude (a.u.)       :      0.65528
Magnitude (Debye)      :      1.66558

Rotational constants in cm-1:     0.018049     0.008082     0.006964
Rotational constants in MHz :   541.098632   242.292882   208.786663

                             ****ORCA TERMINATED NORMALLY****
TOTAL RUN TIME: 0 days 0 hours 0 minutes 21 seconds 429 msec
