                         Program Version 4.2.1 -  RELEASE  -
|  1> ! wB97X-D3 SP def2-SVP
|  2> %pal
|  3> nprocs 24
|  4> end
|  5>
|  6> * xyz 0 1
|  7> S 	 -95.6516 	 53.8978 	 -98.1008
|  8> C 	 -94.343 	 54.7564 	 -97.3959
|  9> C 	 -93.1837 	 54.0153 	 -97.4625
| 10> C 	 -93.4162 	 52.7805 	 -98.137
| 11> C 	 -94.7027 	 52.6754 	 -98.7483
| 12> H 	 -92.6985 	 51.9972 	 -98.3545
| 13> C 	 -91.8659 	 54.3573 	 -96.889
| 14> H 	 -91.6937 	 53.7663 	 -95.9559
| 15> H 	 -91.9209 	 55.3897 	 -96.4986
| 16> C 	 -90.6882 	 54.3698 	 -97.8629
| 17> H 	 -90.5227 	 53.4436 	 -98.2969
| 18> H 	 -90.8043 	 55.0005 	 -98.7229
| 19> C 	 -89.3713 	 54.9057 	 -97.287
| 20> H 	 -89.4036 	 55.9673 	 -97.2133
| 21> H 	 -89.2186 	 54.5434 	 -96.2583
| 22> H 	 -88.5053 	 54.5445 	 -97.853
| 23> S 	 -94.1961 	 51.5735 	 -101.21
| 24> C 	 -95.1682 	 50.1297 	 -101.649
| 25> C 	 -96.2359 	 49.8979 	 -100.775
| 26> C 	 -96.228 	 50.8276 	 -99.6926
| 27> C 	 -95.1291 	 51.7232 	 -99.7306
| 28> H 	 -97.0037 	 49.1203 	 -100.881
| 29> C 	 -97.2133 	 50.7775 	 -98.5103
| 30> H 	 -96.827 	 51.4394 	 -97.7752
| 31> H 	 -97.2354 	 49.816 	 -98.0102
| 32> C 	 -98.6913 	 51.1136 	 -98.7572
| 33> H 	 -99.045 	 50.8986 	 -99.7406
| 34> H 	 -98.813 	 52.1622 	 -98.7839
| 35> C 	 -99.6545 	 50.4901 	 -97.759
| 36> H 	 -99.6697 	 49.3608 	 -97.6484
| 37> H 	 -100.708 	 50.8237 	 -97.8975
| 38> H 	 -99.4671 	 50.8685 	 -96.7878
| 39> H 	 -94.5648 	 55.7513 	 -97.0754
| 40> H 	 -94.9646 	 49.5274 	 -102.503
| 41> *
| 42>
| 43>                          ****END OF INPUT****

CARTESIAN COORDINATES (ANGSTROEM)
---------------------------------
  S    -95.651600   53.897800  -98.100800
  C    -94.343000   54.756400  -97.395900
  C    -93.183700   54.015300  -97.462500
  C    -93.416200   52.780500  -98.137000
  C    -94.702700   52.675400  -98.748300
  H    -92.698500   51.997200  -98.354500
  C    -91.865900   54.357300  -96.889000
  H    -91.693700   53.766300  -95.955900
  H    -91.920900   55.389700  -96.498600
  C    -90.688200   54.369800  -97.862900
  H    -90.522700   53.443600  -98.296900
  H    -90.804300   55.000500  -98.722900
  C    -89.371300   54.905700  -97.287000
  H    -89.403600   55.967300  -97.213300
  H    -89.218600   54.543400  -96.258300
  H    -88.505300   54.544500  -97.853000
  S    -94.196100   51.573500  -101.210000
  C    -95.168200   50.129700  -101.649000
  C    -96.235900   49.897900  -100.775000
  C    -96.228000   50.827600  -99.692600
  C    -95.129100   51.723200  -99.730600
  H    -97.003700   49.120300  -100.881000
  C    -97.213300   50.777500  -98.510300
  H    -96.827000   51.439400  -97.775200
  H    -97.235400   49.816000  -98.010200
  C    -98.691300   51.113600  -98.757200
  H    -99.045000   50.898600  -99.740600
  H    -98.813000   52.162200  -98.783900
  C    -99.654500   50.490100  -97.759000
  H    -99.669700   49.360800  -97.648400
  H    -100.708000   50.823700  -97.897500
  H    -99.467100   50.868500  -96.787800
  H    -94.564800   55.751300  -97.075400
  H    -94.964600   49.527400  -102.503000

 Total Charge           Charge          ....    0
 Multiplicity           Mult            ....    1
 Number of Electrons    NEL             ....  134
 Basis Dimension        Dim             ....  322

ORBITAL ENERGIES
----------------

  NO   OCC          E(Eh)            E(eV)
   0   2.0000     -88.971672     -2421.0423
   1   2.0000     -88.963028     -2420.8071
   2   2.0000     -10.328255      -281.0461
   3   2.0000     -10.324198      -280.9357
   4   2.0000     -10.322083      -280.8781
   5   2.0000     -10.310448      -280.5615
   6   2.0000     -10.306443      -280.4526
   7   2.0000     -10.301396      -280.3152
   8   2.0000     -10.300653      -280.2950
   9   2.0000     -10.294245      -280.1206
  10   2.0000     -10.293483      -280.0999
  11   2.0000     -10.286020      -279.8968
  12   2.0000     -10.279162      -279.7102
  13   2.0000     -10.277531      -279.6658
  14   2.0000     -10.276702      -279.6433
  15   2.0000     -10.275309      -279.6054
  16   2.0000      -8.085229      -220.0103
  17   2.0000      -8.079618      -219.8576
  18   2.0000      -6.043754      -164.4589
  19   2.0000      -6.039969      -164.3559
  20   2.0000      -6.037816      -164.2973
  21   2.0000      -6.035978      -164.2473
  22   2.0000      -6.033682      -164.1848
  23   2.0000      -6.030780      -164.1059
  24   2.0000      -1.012264       -27.5451
  25   2.0000      -0.982161       -26.7260
  26   2.0000      -0.916197       -24.9310
  27   2.0000      -0.906143       -24.6574
  28   2.0000      -0.872793       -23.7499
  29   2.0000      -0.853725       -23.2310
  30   2.0000      -0.846114       -23.0239
  31   2.0000      -0.811177       -22.0733
  32   2.0000      -0.783261       -21.3136
  33   2.0000      -0.770139       -20.9565
  34   2.0000      -0.711734       -19.3673
  35   2.0000      -0.705495       -19.1975
  36   2.0000      -0.694221       -18.8907
  37   2.0000      -0.666185       -18.1278
  38   2.0000      -0.646494       -17.5920
  39   2.0000      -0.616218       -16.7681
  40   2.0000      -0.598898       -16.2968
  41   2.0000      -0.569974       -15.5098
  42   2.0000      -0.563003       -15.3201
  43   2.0000      -0.560279       -15.2460
  44   2.0000      -0.531197       -14.4546
  45   2.0000      -0.520176       -14.1547
  46   2.0000      -0.515204       -14.0194
  47   2.0000      -0.511300       -13.9132
  48   2.0000      -0.509031       -13.8514
  49   2.0000      -0.505246       -13.7484
  50   2.0000      -0.491008       -13.3610
  51   2.0000      -0.479131       -13.0378
  52   2.0000      -0.468830       -12.7575
  53   2.0000      -0.461797       -12.5661
  54   2.0000      -0.459520       -12.5042
  55   2.0000      -0.457700       -12.4547
  56   2.0000      -0.444368       -12.0919
  57   2.0000      -0.436172       -11.8688
  58   2.0000      -0.432140       -11.7591
  59   2.0000      -0.428928       -11.6717
  60   2.0000      -0.423648       -11.5280
  61   2.0000      -0.412261       -11.2182
  62   2.0000      -0.409929       -11.1547
  63   2.0000      -0.341764        -9.2999
  64   2.0000      -0.334632        -9.1058
  65   2.0000      -0.327420        -8.9096
  66   2.0000      -0.288622        -7.8538
  67   0.0000       0.026614         0.7242
  68   0.0000       0.066271         1.8033
  69   0.0000       0.106018         2.8849
  70   0.0000       0.109843         2.9890
  71   0.0000       0.136668         3.7189

MULLIKEN ATOMIC CHARGES
-----------------------
   0 S :    0.119212
   1 C :   -0.132466
   2 C :   -0.055680
   3 C :    0.021318
   4 C :   -0.205328
   5 H :    0.013761
   6 C :    0.070748
   7 H :    0.050124
   8 H :    0.008423
   9 C :   -0.051104
  10 H :    0.009112
  11 H :    0.023104
  12 C :   -0.049526
  13 H :    0.028934
  14 H :    0.018335
  15 H :    0.037954
  16 S :    0.123788
  17 C :   -0.093995
  18 C :   -0.017292
  19 C :   -0.031743
  20 C :   -0.144487
  21 H :    0.030944
  22 C :    0.079177
  23 H :    0.009554
  24 H :    0.023641
  25 C :   -0.018498
  26 H :    0.011279
  27 H :    0.010479
  28 C :   -0.078807
  29 H :    0.042848
  30 H :    0.032690
  31 H :    0.017589
  32 H :    0.045407
  33 H :    0.050508
Sum of atomic charges:   -0.0000000

LOEWDIN ATOMIC CHARGES
----------------------
   0 S :    0.459082
   1 C :   -0.202985
   2 C :   -0.066332
   3 C :   -0.064439
   4 C :   -0.225181
   5 H :    0.027277
   6 C :   -0.035761
   7 H :    0.042069
   8 H :    0.031452
   9 C :   -0.038293
  10 H :    0.011558
  11 H :    0.027728
  12 C :   -0.060671
  13 H :    0.019234
  14 H :    0.022177
  15 H :    0.030520
  16 S :    0.400471
  17 C :   -0.168614
  18 C :   -0.063733
  19 C :   -0.050862
  20 C :   -0.202156
  21 H :    0.038355
  22 C :   -0.031104
  23 H :    0.016773
  24 H :    0.031079
  25 C :   -0.039485
  26 H :    0.018544
  27 H :    0.021446
  28 C :   -0.072560
  29 H :    0.030411
  30 H :    0.031982
  31 H :    0.017794
  32 H :    0.022691
  33 H :    0.021534

  Mayer bond orders larger than 0.100000
B(  0-S ,  1-C ) :   1.1696 B(  0-S ,  4-C ) :   1.1932 B(  1-C ,  2-C ) :   1.5401
B(  1-C ,  4-C ) :   0.1019 B(  1-C , 32-H ) :   0.9813 B(  2-C ,  3-C ) :   1.2664
B(  2-C ,  6-C ) :   1.0428 B(  3-C ,  4-C ) :   1.5097 B(  3-C ,  5-H ) :   0.9976
B(  4-C , 20-C ) :   1.0511 B(  6-C ,  7-H ) :   0.9299 B(  6-C ,  8-H ) :   0.9387
B(  6-C ,  9-C ) :   1.0566 B(  9-C , 10-H ) :   0.9569 B(  9-C , 11-H ) :   0.9552
B(  9-C , 12-C ) :   1.0861 B( 12-C , 13-H ) :   0.9787 B( 12-C , 14-H ) :   0.9739
B( 12-C , 15-H ) :   0.9745 B( 16-S , 17-C ) :   1.1446 B( 16-S , 20-C ) :   1.1445
B( 17-C , 18-C ) :   1.5942 B( 17-C , 20-C ) :   0.1043 B( 17-C , 33-H ) :   0.9717
B( 18-C , 19-C ) :   1.2589 B( 18-C , 21-H ) :   0.9851 B( 19-C , 20-C ) :   1.5654
B( 19-C , 22-C ) :   1.0478 B( 22-C , 23-H ) :   0.9220 B( 22-C , 24-H ) :   0.9447
B( 22-C , 25-C ) :   1.0408 B( 25-C , 26-H ) :   0.9621 B( 25-C , 27-H ) :   0.9446
B( 25-C , 28-C ) :   1.0855 B( 28-C , 29-H ) :   0.9745 B( 28-C , 30-H ) :   0.9711
B( 28-C , 31-H ) :   0.9743

Dispersion correction           -0.013674935
FINAL SINGLE POINT ENERGY     -1339.871764652440

DIPOLE MOMENT
-------------
                                X             Y             Z
Electronic contribution:     -2.30611      -0.28415     -12.07279
Nuclear contribution   :      2.38660       0.22635      12.25253
                        -----------------------------------------
Total Dipole Moment    :      0.08049      -0.05781       0.17973
                        -----------------------------------------
Magnitude (a.u.)       :      0.20524
Magnitude (Debye)      :      0.52168

Rotational constants in cm-1:     0.022312     0.007475     0.005965
Rotational constants in MHz :   668.887495   224.100497   178.831084

                             ****ORCA TERMINATED NORMALLY****
TOTAL RUN TIME: 0 days 0 hours 0 minutes 20 seconds 760 msec
