                         Program Version 4.2.1 -  RELEASE  -
|  1> ! wB97X-D3 SP def2-SVP
|  2> %pal
|  3> nprocs 24
|  4> end
|  5>
|  6> * xyz 0 1
|  7> S 	 -50.126 	 7.29992 	 -18.7276
|  8> C 	 -48.9645 	 8.48994 	 -19.3356
|  9> C 	 -49.1669 	 9.73048 	 -18.7888
| 10> C 	 -50.3556 	 9.79764 	 -18.0029
| 11> C 	 -51.0306 	 8.61764 	 -18.0546
| 12> H 	 -50.824 	 10.6135 	 -17.5195
| 13> C 	 -48.4257 	 11.062 	 -19.1942
| 14> H 	 -49.2243 	 11.8594 	 -19.3963
| 15> H 	 -47.938 	 10.9476 	 -20.1272
| 16> C 	 -47.4153 	 11.6035 	 -18.2177
| 17> H 	 -46.964 	 12.489 	 -18.5909
| 18> H 	 -48.03 	 11.9292 	 -17.2787
| 19> C 	 -46.4237 	 10.5365 	 -17.8636
| 20> H 	 -45.5419 	 10.8498 	 -17.4258
| 21> H 	 -46.8467 	 9.87053 	 -17.0766
| 22> H 	 -46.1088 	 10.0629 	 -18.813
| 23> S 	 -52.8107 	 7.85203 	 -16.1012
| 24> C 	 -54.4904 	 7.8138 	 -16.4794
| 25> C 	 -54.7179 	 7.89348 	 -17.8249
| 26> C 	 -53.4915 	 8.28609 	 -18.5191
| 27> C 	 -52.4168 	 8.5301 	 -17.6936
| 28> H 	 -55.6858 	 7.67627 	 -18.2161
| 29> C 	 -53.4717 	 8.29561 	 -20.0141
| 30> H 	 -52.5462 	 8.76645 	 -20.3066
| 31> H 	 -54.3214 	 8.91559 	 -20.3966
| 32> C 	 -53.6622 	 6.89573 	 -20.8019
| 33> H 	 -54.5453 	 6.23558 	 -20.6821
| 34> H 	 -52.9238 	 6.24198 	 -20.3662
| 35> C 	 -53.4677 	 7.19351 	 -22.2159
| 36> H 	 -54.2584 	 7.91277 	 -22.4604
| 37> H 	 -53.6327 	 6.29504 	 -22.9349
| 38> H 	 -52.4806 	 7.59984 	 -22.4635
| 39> H 	 -48.1548 	 8.25957 	 -20.0378
| 40> H 	 -55.2148 	 7.47224 	 -15.7971
| 41> *
| 42>
| 43>                          ****END OF INPUT****

CARTESIAN COORDINATES (ANGSTROEM)
---------------------------------
  S    -50.126000    7.299920  -18.727600
  C    -48.964500    8.489940  -19.335600
  C    -49.166900    9.730480  -18.788800
  C    -50.355600    9.797640  -18.002900
  C    -51.030600    8.617640  -18.054600
  H    -50.824000   10.613500  -17.519500
  C    -48.425700   11.062000  -19.194200
  H    -49.224300   11.859400  -19.396300
  H    -47.938000   10.947600  -20.127200
  C    -47.415300   11.603500  -18.217700
  H    -46.964000   12.489000  -18.590900
  H    -48.030000   11.929200  -17.278700
  C    -46.423700   10.536500  -17.863600
  H    -45.541900   10.849800  -17.425800
  H    -46.846700    9.870530  -17.076600
  H    -46.108800   10.062900  -18.813000
  S    -52.810700    7.852030  -16.101200
  C    -54.490400    7.813800  -16.479400
  C    -54.717900    7.893480  -17.824900
  C    -53.491500    8.286090  -18.519100
  C    -52.416800    8.530100  -17.693600
  H    -55.685800    7.676270  -18.216100
  C    -53.471700    8.295610  -20.014100
  H    -52.546200    8.766450  -20.306600
  H    -54.321400    8.915590  -20.396600
  C    -53.662200    6.895730  -20.801900
  H    -54.545300    6.235580  -20.682100
  H    -52.923800    6.241980  -20.366200
  C    -53.467700    7.193510  -22.215900
  H    -54.258400    7.912770  -22.460400
  H    -53.632700    6.295040  -22.934900
  H    -52.480600    7.599840  -22.463500
  H    -48.154800    8.259570  -20.037800
  H    -55.214800    7.472240  -15.797100

 Total Charge           Charge          ....    0
 Multiplicity           Mult            ....    1
 Number of Electrons    NEL             ....  134
 Basis Dimension        Dim             ....  322

ORBITAL ENERGIES
----------------

  NO   OCC          E(Eh)            E(eV)
   0   2.0000     -88.967964     -2420.9414
   1   2.0000     -88.957376     -2420.6533
   2   2.0000     -10.320082      -280.8237
   3   2.0000     -10.318032      -280.7679
   4   2.0000     -10.316752      -280.7331
   5   2.0000     -10.311037      -280.5776
   6   2.0000     -10.304467      -280.3988
   7   2.0000     -10.304143      -280.3900
   8   2.0000     -10.295453      -280.1535
   9   2.0000     -10.293618      -280.1036
  10   2.0000     -10.291007      -280.0325
  11   2.0000     -10.289108      -279.9808
  12   2.0000     -10.286006      -279.8965
  13   2.0000     -10.285258      -279.8761
  14   2.0000     -10.279113      -279.7089
  15   2.0000     -10.270552      -279.4759
  16   2.0000      -8.082630      -219.9396
  17   2.0000      -8.072829      -219.6728
  18   2.0000      -6.041080      -164.3861
  19   2.0000      -6.037393      -164.2858
  20   2.0000      -6.033197      -164.1716
  21   2.0000      -6.031316      -164.1204
  22   2.0000      -6.027555      -164.0181
  23   2.0000      -6.023238      -163.9006
  24   2.0000      -1.010418       -27.4949
  25   2.0000      -0.985136       -26.8069
  26   2.0000      -0.914842       -24.8941
  27   2.0000      -0.907493       -24.6942
  28   2.0000      -0.873427       -23.7672
  29   2.0000      -0.851352       -23.1665
  30   2.0000      -0.849752       -23.1229
  31   2.0000      -0.813606       -22.1393
  32   2.0000      -0.782801       -21.3011
  33   2.0000      -0.764618       -20.8063
  34   2.0000      -0.702886       -19.1265
  35   2.0000      -0.696934       -18.9645
  36   2.0000      -0.691033       -18.8040
  37   2.0000      -0.660514       -17.9735
  38   2.0000      -0.644462       -17.5367
  39   2.0000      -0.618361       -16.8265
  40   2.0000      -0.595114       -16.1939
  41   2.0000      -0.570137       -15.5142
  42   2.0000      -0.563420       -15.3314
  43   2.0000      -0.554995       -15.1022
  44   2.0000      -0.548016       -14.9123
  45   2.0000      -0.524303       -14.2670
  46   2.0000      -0.518706       -14.1147
  47   2.0000      -0.511750       -13.9254
  48   2.0000      -0.501483       -13.6460
  49   2.0000      -0.498072       -13.5532
  50   2.0000      -0.487688       -13.2707
  51   2.0000      -0.474475       -12.9111
  52   2.0000      -0.469673       -12.7804
  53   2.0000      -0.463653       -12.6166
  54   2.0000      -0.455817       -12.4034
  55   2.0000      -0.447615       -12.1802
  56   2.0000      -0.444868       -12.1055
  57   2.0000      -0.436876       -11.8880
  58   2.0000      -0.433849       -11.8056
  59   2.0000      -0.420098       -11.4315
  60   2.0000      -0.418493       -11.3878
  61   2.0000      -0.412545       -11.2259
  62   2.0000      -0.404611       -11.0100
  63   2.0000      -0.336836        -9.1658
  64   2.0000      -0.325370        -8.8538
  65   2.0000      -0.315234        -8.5780
  66   2.0000      -0.313007        -8.5173
  67   0.0000       0.038648         1.0517
  68   0.0000       0.052364         1.4249
  69   0.0000       0.102183         2.7805
  70   0.0000       0.117713         3.2031
  71   0.0000       0.124481         3.3873

MULLIKEN ATOMIC CHARGES
-----------------------
   0 S :    0.130689
   1 C :   -0.142170
   2 C :   -0.043257
   3 C :    0.047057
   4 C :   -0.176968
   5 H :    0.007009
   6 C :    0.023408
   7 H :    0.041788
   8 H :    0.012412
   9 C :   -0.069637
  10 H :    0.025489
  11 H :    0.032465
  12 C :   -0.021376
  13 H :    0.008601
  14 H :    0.052458
  15 H :    0.020901
  16 S :    0.082382
  17 C :   -0.063376
  18 C :   -0.010993
  19 C :   -0.040990
  20 C :   -0.147691
  21 H :    0.010897
  22 C :    0.024223
  23 H :    0.030469
  24 H :    0.033496
  25 C :   -0.053794
  26 H :    0.032287
  27 H :    0.015770
  28 C :   -0.059584
  29 H :    0.024871
  30 H :    0.041166
  31 H :    0.036738
  32 H :    0.052957
  33 H :    0.042305
Sum of atomic charges:   -0.0000000

LOEWDIN ATOMIC CHARGES
----------------------
   0 S :    0.399014
   1 C :   -0.188980
   2 C :   -0.059446
   3 C :   -0.045844
   4 C :   -0.201691
   5 H :    0.030884
   6 C :   -0.029646
   7 H :    0.037756
   8 H :    0.018247
   9 C :   -0.046213
  10 H :    0.018607
  11 H :    0.029659
  12 C :   -0.064882
  13 H :    0.012903
  14 H :    0.038789
  15 H :    0.026711
  16 S :    0.393392
  17 C :   -0.173480
  18 C :   -0.066986
  19 C :   -0.045014
  20 C :   -0.206473
  21 H :    0.028559
  22 C :   -0.030276
  23 H :    0.029658
  24 H :    0.033741
  25 C :   -0.047128
  26 H :    0.029881
  27 H :    0.015945
  28 C :   -0.072041
  29 H :    0.025210
  30 H :    0.033571
  31 H :    0.025518
  32 H :    0.030464
  33 H :    0.019591

  Mayer bond orders larger than 0.100000
B(  0-S ,  1-C ) :   1.1198 B(  0-S ,  4-C ) :   1.1357 B(  1-C ,  2-C ) :   1.6526
B(  1-C , 32-H ) :   0.9649 B(  2-C ,  3-C ) :   1.1899 B(  2-C ,  6-C ) :   1.0034
B(  3-C ,  4-C ) :   1.6100 B(  3-C ,  5-H ) :   1.0031 B(  4-C , 20-C ) :   1.0356
B(  6-C ,  7-H ) :   0.9514 B(  6-C ,  8-H ) :   0.9466 B(  6-C ,  9-C ) :   1.0770
B(  9-C , 10-H ) :   0.9557 B(  9-C , 11-H ) :   0.9544 B(  9-C , 12-C ) :   1.0782
B( 12-C , 13-H ) :   0.9710 B( 12-C , 14-H ) :   0.9669 B( 12-C , 15-H ) :   0.9740
B( 16-S , 17-C ) :   1.1695 B( 16-S , 20-C ) :   1.1103 B( 17-C , 18-C ) :   1.6169
B( 17-C , 33-H ) :   0.9696 B( 18-C , 19-C ) :   1.2039 B( 18-C , 21-H ) :   1.0022
B( 19-C , 20-C ) :   1.6104 B( 19-C , 22-C ) :   1.0687 B( 22-C , 23-H ) :   0.9371
B( 22-C , 24-H ) :   0.9367 B( 22-C , 25-C ) :   1.0320 B( 25-C , 26-H ) :   0.9542
B( 25-C , 27-H ) :   0.9490 B( 25-C , 28-C ) :   1.0919 B( 28-C , 29-H ) :   0.9689
B( 28-C , 30-H ) :   0.9698 B( 28-C , 31-H ) :   0.9728

Dispersion correction           -0.014866559
FINAL SINGLE POINT ENERGY     -1339.846902004134

DIPOLE MOMENT
-------------
                                X             Y             Z
Electronic contribution:     -7.28540      -8.79988      15.75962
Nuclear contribution   :      7.27200       8.96950     -16.20804
                        -----------------------------------------
Total Dipole Moment    :     -0.01340       0.16963      -0.44842
                        -----------------------------------------
Magnitude (a.u.)       :      0.47962
Magnitude (Debye)      :      1.21910

Rotational constants in cm-1:     0.020814     0.008377     0.006858
Rotational constants in MHz :   623.974459   251.121406   205.590252

                             ****ORCA TERMINATED NORMALLY****
TOTAL RUN TIME: 0 days 0 hours 0 minutes 21 seconds 848 msec
