                         Program Version 4.2.1 -  RELEASE  -
|  1> ! wB97X-D3 SP def2-SVP
|  2> %pal
|  3> nprocs 24
|  4> end
|  5>
|  6> * xyz 0 1
|  7> S 	 -41.719 	 21.6331 	 22.0767
|  8> C 	 -42.0716 	 20.1545 	 22.9775
|  9> C 	 -40.9371 	 19.5396 	 23.444
| 10> C 	 -39.7606 	 20.2451 	 23.0265
| 11> C 	 -39.9896 	 21.3676 	 22.2848
| 12> H 	 -38.7346 	 20.0062 	 23.3209
| 13> C 	 -40.7393 	 18.4535 	 24.3913
| 14> H 	 -41.8155 	 18.1792 	 24.6879
| 15> H 	 -40.3391 	 18.8549 	 25.3674
| 16> C 	 -39.944 	 17.2569 	 23.9063
| 17> H 	 -40.5441 	 16.725 	 23.2096
| 18> H 	 -39.061 	 17.55 	 23.4099
| 19> C 	 -39.5856 	 16.2091 	 24.9789
| 20> H 	 -39.1031 	 15.3132 	 24.4666
| 21> H 	 -38.9908 	 16.6605 	 25.7769
| 22> H 	 -40.5625 	 15.9259 	 25.4715
| 23> S 	 -39.2338 	 23.9731 	 21.7108
| 24> C 	 -37.7078 	 24.304 	 20.985
| 25> C 	 -37.0679 	 23.1318 	 20.7041
| 26> C 	 -37.7644 	 21.9464 	 21.0348
| 27> C 	 -39.0165 	 22.2111 	 21.5894
| 28> H 	 -36.0964 	 23.0422 	 20.2136
| 29> C 	 -37.0732 	 20.5705 	 20.8716
| 30> H 	 -36.9562 	 20.4847 	 19.7608
| 31> H 	 -37.7626 	 19.8932 	 21.2843
| 32> C 	 -35.7252 	 20.4694 	 21.4993
| 33> H 	 -35.0948 	 21.2092 	 20.9768
| 34> H 	 -35.2524 	 19.5283 	 21.2375
| 35> C 	 -35.5791 	 20.6378 	 22.9845
| 36> H 	 -35.9604 	 21.5655 	 23.3643
| 37> H 	 -34.5119 	 20.6623 	 23.2619
| 38> H 	 -36.0334 	 19.8133 	 23.5717
| 39> H 	 -43.1016 	 19.7467 	 23.1766
| 40> H 	 -37.4986 	 25.2917 	 20.6432
| 41> *
| 42>
| 43>                          ****END OF INPUT****

CARTESIAN COORDINATES (ANGSTROEM)
---------------------------------
  S    -41.719000   21.633100   22.076700
  C    -42.071600   20.154500   22.977500
  C    -40.937100   19.539600   23.444000
  C    -39.760600   20.245100   23.026500
  C    -39.989600   21.367600   22.284800
  H    -38.734600   20.006200   23.320900
  C    -40.739300   18.453500   24.391300
  H    -41.815500   18.179200   24.687900
  H    -40.339100   18.854900   25.367400
  C    -39.944000   17.256900   23.906300
  H    -40.544100   16.725000   23.209600
  H    -39.061000   17.550000   23.409900
  C    -39.585600   16.209100   24.978900
  H    -39.103100   15.313200   24.466600
  H    -38.990800   16.660500   25.776900
  H    -40.562500   15.925900   25.471500
  S    -39.233800   23.973100   21.710800
  C    -37.707800   24.304000   20.985000
  C    -37.067900   23.131800   20.704100
  C    -37.764400   21.946400   21.034800
  C    -39.016500   22.211100   21.589400
  H    -36.096400   23.042200   20.213600
  C    -37.073200   20.570500   20.871600
  H    -36.956200   20.484700   19.760800
  H    -37.762600   19.893200   21.284300
  C    -35.725200   20.469400   21.499300
  H    -35.094800   21.209200   20.976800
  H    -35.252400   19.528300   21.237500
  C    -35.579100   20.637800   22.984500
  H    -35.960400   21.565500   23.364300
  H    -34.511900   20.662300   23.261900
  H    -36.033400   19.813300   23.571700
  H    -43.101600   19.746700   23.176600
  H    -37.498600   25.291700   20.643200

 Total Charge           Charge          ....    0
 Multiplicity           Mult            ....    1
 Number of Electrons    NEL             ....  134
 Basis Dimension        Dim             ....  322

ORBITAL ENERGIES
----------------

  NO   OCC          E(Eh)            E(eV)
   0   2.0000     -88.966105     -2420.8908
   1   2.0000     -88.961655     -2420.7697
   2   2.0000     -10.329431      -281.0781
   3   2.0000     -10.329281      -281.0740
   4   2.0000     -10.320555      -280.8366
   5   2.0000     -10.315756      -280.7060
   6   2.0000     -10.302753      -280.3522
   7   2.0000     -10.298285      -280.2306
   8   2.0000     -10.297718      -280.2151
   9   2.0000     -10.291715      -280.0518
  10   2.0000     -10.291545      -280.0472
  11   2.0000     -10.291045      -280.0336
  12   2.0000     -10.289656      -279.9958
  13   2.0000     -10.286090      -279.8987
  14   2.0000     -10.281843      -279.7832
  15   2.0000     -10.278200      -279.6840
  16   2.0000      -8.080532      -219.8825
  17   2.0000      -8.076887      -219.7833
  18   2.0000      -6.039201      -164.3350
  19   2.0000      -6.035364      -164.2306
  20   2.0000      -6.035172      -164.2254
  21   2.0000      -6.031260      -164.1189
  22   2.0000      -6.031048      -164.1132
  23   2.0000      -6.027720      -164.0226
  24   2.0000      -1.007228       -27.4081
  25   2.0000      -0.987038       -26.8587
  26   2.0000      -0.919134       -25.0109
  27   2.0000      -0.917299       -24.9610
  28   2.0000      -0.871409       -23.7122
  29   2.0000      -0.853673       -23.2296
  30   2.0000      -0.845958       -23.0197
  31   2.0000      -0.814064       -22.1518
  32   2.0000      -0.788410       -21.4537
  33   2.0000      -0.772824       -21.0296
  34   2.0000      -0.709906       -19.3175
  35   2.0000      -0.700142       -19.0518
  36   2.0000      -0.696777       -18.9603
  37   2.0000      -0.658928       -17.9304
  38   2.0000      -0.638982       -17.3876
  39   2.0000      -0.622243       -16.9321
  40   2.0000      -0.602509       -16.3951
  41   2.0000      -0.570966       -15.5368
  42   2.0000      -0.559239       -15.2177
  43   2.0000      -0.556733       -15.1495
  44   2.0000      -0.550015       -14.9667
  45   2.0000      -0.531374       -14.4594
  46   2.0000      -0.525338       -14.2952
  47   2.0000      -0.508844       -13.8463
  48   2.0000      -0.503439       -13.6993
  49   2.0000      -0.501689       -13.6516
  50   2.0000      -0.494056       -13.4439
  51   2.0000      -0.478452       -13.0193
  52   2.0000      -0.471817       -12.8388
  53   2.0000      -0.465542       -12.6681
  54   2.0000      -0.454760       -12.3746
  55   2.0000      -0.446432       -12.1480
  56   2.0000      -0.445649       -12.1267
  57   2.0000      -0.442132       -12.0310
  58   2.0000      -0.439365       -11.9557
  59   2.0000      -0.427379       -11.6296
  60   2.0000      -0.420811       -11.4509
  61   2.0000      -0.416234       -11.3263
  62   2.0000      -0.406767       -11.0687
  63   2.0000      -0.352986        -9.6052
  64   2.0000      -0.331338        -9.0162
  65   2.0000      -0.329852        -8.9757
  66   2.0000      -0.292045        -7.9470
  67   0.0000       0.027286         0.7425
  68   0.0000       0.075386         2.0514
  69   0.0000       0.107146         2.9156
  70   0.0000       0.121158         3.2969
  71   0.0000       0.125531         3.4159

MULLIKEN ATOMIC CHARGES
-----------------------
   0 S :    0.103278
   1 C :   -0.137965
   2 C :   -0.058421
   3 C :   -0.009907
   4 C :   -0.118213
   5 H :    0.012886
   6 C :    0.020638
   7 H :    0.015393
   8 H :    0.046291
   9 C :   -0.043288
  10 H :    0.021486
  11 H :    0.019550
  12 C :   -0.074672
  13 H :    0.056878
  14 H :    0.034908
  15 H :    0.032430
  16 S :    0.084007
  17 C :   -0.069235
  18 C :   -0.040672
  19 C :   -0.091317
  20 C :   -0.141406
  21 H :    0.018290
  22 C :    0.131699
  23 H :    0.044853
  24 H :   -0.000945
  25 C :   -0.077001
  26 H :    0.016653
  27 H :    0.025965
  28 C :   -0.045485
  29 H :    0.034844
  30 H :    0.032348
  31 H :    0.035995
  32 H :    0.062305
  33 H :    0.057830
Sum of atomic charges:   -0.0000000

LOEWDIN ATOMIC CHARGES
----------------------
   0 S :    0.389723
   1 C :   -0.195404
   2 C :   -0.072026
   3 C :   -0.064409
   4 C :   -0.184920
   5 H :    0.030674
   6 C :   -0.041886
   7 H :    0.033937
   8 H :    0.039220
   9 C :   -0.038433
  10 H :    0.024420
  11 H :    0.015087
  12 C :   -0.068415
  13 H :    0.037710
  14 H :    0.021527
  15 H :    0.029159
  16 S :    0.400449
  17 C :   -0.182457
  18 C :   -0.077681
  19 C :   -0.057016
  20 C :   -0.192980
  21 H :    0.030456
  22 C :   -0.022977
  23 H :    0.044716
  24 H :    0.018224
  25 C :   -0.047329
  26 H :    0.023389
  27 H :    0.027000
  28 C :   -0.067306
  29 H :    0.023389
  30 H :    0.032630
  31 H :    0.025499
  32 H :    0.039798
  33 H :    0.026231

  Mayer bond orders larger than 0.100000
B(  0-S ,  1-C ) :   1.1217 B(  0-S ,  4-C ) :   1.1334 B(  1-C ,  2-C ) :   1.6384
B(  1-C , 32-H ) :   0.9561 B(  2-C ,  3-C ) :   1.2065 B(  2-C ,  6-C ) :   1.0387
B(  3-C ,  4-C ) :   1.6222 B(  3-C ,  5-H ) :   0.9843 B(  4-C , 20-C ) :   1.0156
B(  6-C ,  7-H ) :   0.9306 B(  6-C ,  8-H ) :   0.9414 B(  6-C ,  9-C ) :   1.0523
B(  9-C , 10-H ) :   0.9494 B(  9-C , 11-H ) :   0.9599 B(  9-C , 12-C ) :   1.0837
B( 12-C , 13-H ) :   0.9734 B( 12-C , 14-H ) :   0.9760 B( 12-C , 15-H ) :   0.9730
B( 16-S , 17-C ) :   1.1653 B( 16-S , 20-C ) :   1.1428 B( 17-C , 18-C ) :   1.5689
B( 17-C , 20-C ) :   0.1026 B( 17-C , 33-H ) :   0.9738 B( 18-C , 19-C ) :   1.2705
B( 18-C , 21-H ) :   0.9869 B( 19-C , 20-C ) :   1.5904 B( 19-C , 22-C ) :   1.0186
B( 22-C , 23-H ) :   0.9268 B( 22-C , 24-H ) :   0.9334 B( 22-C , 25-C ) :   1.0891
B( 25-C , 26-H ) :   0.9452 B( 25-C , 27-H ) :   0.9484 B( 25-C , 28-C ) :   1.0886
B( 28-C , 29-H ) :   0.9722 B( 28-C , 30-H ) :   0.9687 B( 28-C , 31-H ) :   0.9686

Dispersion correction           -0.014587589
FINAL SINGLE POINT ENERGY     -1339.888454382177

DIPOLE MOMENT
-------------
                                X             Y             Z
Electronic contribution:    -16.15068      25.27741      -9.93770
Nuclear contribution   :     16.68699     -25.79682      10.04623
                        -----------------------------------------
Total Dipole Moment    :      0.53631      -0.51942       0.10853
                        -----------------------------------------
Magnitude (a.u.)       :      0.75445
Magnitude (Debye)      :      1.91767

Rotational constants in cm-1:     0.018076     0.009643     0.006705
Rotational constants in MHz :   541.899527   289.077637   201.016221

                             ****ORCA TERMINATED NORMALLY****
TOTAL RUN TIME: 0 days 0 hours 0 minutes 22 seconds 326 msec
