                         Program Version 4.2.1 -  RELEASE  -
|  1> ! wB97X-D3 SP def2-SVP
|  2> %pal
|  3> nprocs 24
|  4> end
|  5>
|  6> * xyz 0 1
|  7> S 	 -108.948 	 54.912 	 -97.504
|  8> C 	 -108.676 	 54.3392 	 -95.9209
|  9> C 	 -107.46 	 53.6229 	 -95.779
| 10> C 	 -106.674 	 53.7957 	 -96.9605
| 11> C 	 -107.327 	 54.4534 	 -97.9916
| 12> H 	 -105.698 	 53.4169 	 -97.1862
| 13> C 	 -106.861 	 53.0319 	 -94.5187
| 14> H 	 -107.52 	 52.1595 	 -94.4063
| 15> H 	 -106.991 	 53.7863 	 -93.6888
| 16> C 	 -105.453 	 52.4959 	 -94.3537
| 17> H 	 -105.488 	 51.8006 	 -93.5264
| 18> H 	 -105.308 	 51.9612 	 -95.2972
| 19> C 	 -104.442 	 53.5165 	 -94.0467
| 20> H 	 -104.481 	 54.351 	 -94.7338
| 21> H 	 -104.647 	 53.9603 	 -93.0497
| 22> H 	 -103.438 	 53.171 	 -94.0075
| 23> S 	 -105.016 	 55.3041 	 -99.1547
| 24> C 	 -104.936 	 55.6788 	 -100.805
| 25> C 	 -106.154 	 55.41 	 -101.429
| 26> C 	 -107.136 	 54.8895 	 -100.548
| 27> C 	 -106.644 	 54.7456 	 -99.2695
| 28> H 	 -106.191 	 55.6402 	 -102.457
| 29> C 	 -108.57 	 54.5837 	 -100.922
| 30> H 	 -109.099 	 53.8183 	 -100.279
| 31> H 	 -108.588 	 54.031 	 -101.916
| 32> C 	 -109.349 	 55.9006 	 -101.016
| 33> H 	 -108.821 	 56.4494 	 -101.798
| 34> H 	 -109.428 	 56.4194 	 -100.092
| 35> C 	 -110.82 	 55.7416 	 -101.493
| 36> H 	 -111.402 	 55.3936 	 -100.673
| 37> H 	 -111.066 	 54.96 	 -102.202
| 38> H 	 -111.174 	 56.7307 	 -101.756
| 39> H 	 -109.414 	 54.4032 	 -95.1635
| 40> H 	 -104.082 	 55.9934 	 -101.346
| 41> *
| 42>
| 43>                          ****END OF INPUT****

CARTESIAN COORDINATES (ANGSTROEM)
---------------------------------
  S    -108.948000   54.912000  -97.504000
  C    -108.676000   54.339200  -95.920900
  C    -107.460000   53.622900  -95.779000
  C    -106.674000   53.795700  -96.960500
  C    -107.327000   54.453400  -97.991600
  H    -105.698000   53.416900  -97.186200
  C    -106.861000   53.031900  -94.518700
  H    -107.520000   52.159500  -94.406300
  H    -106.991000   53.786300  -93.688800
  C    -105.453000   52.495900  -94.353700
  H    -105.488000   51.800600  -93.526400
  H    -105.308000   51.961200  -95.297200
  C    -104.442000   53.516500  -94.046700
  H    -104.481000   54.351000  -94.733800
  H    -104.647000   53.960300  -93.049700
  H    -103.438000   53.171000  -94.007500
  S    -105.016000   55.304100  -99.154700
  C    -104.936000   55.678800  -100.805000
  C    -106.154000   55.410000  -101.429000
  C    -107.136000   54.889500  -100.548000
  C    -106.644000   54.745600  -99.269500
  H    -106.191000   55.640200  -102.457000
  C    -108.570000   54.583700  -100.922000
  H    -109.099000   53.818300  -100.279000
  H    -108.588000   54.031000  -101.916000
  C    -109.349000   55.900600  -101.016000
  H    -108.821000   56.449400  -101.798000
  H    -109.428000   56.419400  -100.092000
  C    -110.820000   55.741600  -101.493000
  H    -111.402000   55.393600  -100.673000
  H    -111.066000   54.960000  -102.202000
  H    -111.174000   56.730700  -101.756000
  H    -109.414000   54.403200  -95.163500
  H    -104.082000   55.993400  -101.346000

 Total Charge           Charge          ....    0
 Multiplicity           Mult            ....    1
 Number of Electrons    NEL             ....  134
 Basis Dimension        Dim             ....  322

ORBITAL ENERGIES
----------------

  NO   OCC          E(Eh)            E(eV)
   0   2.0000     -88.972667     -2421.0694
   1   2.0000     -88.965139     -2420.8645
   2   2.0000     -10.327930      -281.0373
   3   2.0000     -10.321606      -280.8652
   4   2.0000     -10.311938      -280.6021
   5   2.0000     -10.309742      -280.5423
   6   2.0000     -10.306302      -280.4487
   7   2.0000     -10.299662      -280.2680
   8   2.0000     -10.296860      -280.1918
   9   2.0000     -10.293088      -280.0892
  10   2.0000     -10.289777      -279.9991
  11   2.0000     -10.289091      -279.9804
  12   2.0000     -10.283642      -279.8321
  13   2.0000     -10.282403      -279.7984
  14   2.0000     -10.271537      -279.5027
  15   2.0000     -10.269715      -279.4531
  16   2.0000      -8.087025      -220.0591
  17   2.0000      -8.081048      -219.8965
  18   2.0000      -6.045503      -164.5065
  19   2.0000      -6.041489      -164.3973
  20   2.0000      -6.039386      -164.3401
  21   2.0000      -6.037993      -164.3021
  22   2.0000      -6.035305      -164.2290
  23   2.0000      -6.032011      -164.1394
  24   2.0000      -1.012078       -27.5401
  25   2.0000      -0.989370       -26.9221
  26   2.0000      -0.919954       -25.0332
  27   2.0000      -0.908544       -24.7227
  28   2.0000      -0.871663       -23.7192
  29   2.0000      -0.856179       -23.2978
  30   2.0000      -0.849542       -23.1172
  31   2.0000      -0.813638       -22.1402
  32   2.0000      -0.783530       -21.3209
  33   2.0000      -0.773360       -21.0442
  34   2.0000      -0.705507       -19.1978
  35   2.0000      -0.698018       -18.9940
  36   2.0000      -0.691019       -18.8036
  37   2.0000      -0.667605       -18.1665
  38   2.0000      -0.637594       -17.3498
  39   2.0000      -0.618654       -16.8344
  40   2.0000      -0.597454       -16.2576
  41   2.0000      -0.573804       -15.6140
  42   2.0000      -0.564164       -15.3517
  43   2.0000      -0.560624       -15.2553
  44   2.0000      -0.545833       -14.8529
  45   2.0000      -0.530839       -14.4449
  46   2.0000      -0.519132       -14.1263
  47   2.0000      -0.510789       -13.8993
  48   2.0000      -0.505085       -13.7441
  49   2.0000      -0.500032       -13.6066
  50   2.0000      -0.490179       -13.3385
  51   2.0000      -0.484531       -13.1847
  52   2.0000      -0.474029       -12.8990
  53   2.0000      -0.460111       -12.5203
  54   2.0000      -0.456376       -12.4186
  55   2.0000      -0.449678       -12.2364
  56   2.0000      -0.446552       -12.1513
  57   2.0000      -0.441528       -12.0146
  58   2.0000      -0.437717       -11.9109
  59   2.0000      -0.424598       -11.5539
  60   2.0000      -0.419629       -11.4187
  61   2.0000      -0.410195       -11.1620
  62   2.0000      -0.403119       -10.9694
  63   2.0000      -0.353524        -9.6199
  64   2.0000      -0.331792        -9.0285
  65   2.0000      -0.329054        -8.9540
  66   2.0000      -0.284014        -7.7284
  67   0.0000       0.030011         0.8166
  68   0.0000       0.076159         2.0724
  69   0.0000       0.110763         3.0140
  70   0.0000       0.118923         3.2361
  71   0.0000       0.135500         3.6871

MULLIKEN ATOMIC CHARGES
-----------------------
   0 S :    0.125050
   1 C :   -0.120921
   2 C :   -0.040490
   3 C :   -0.035144
   4 C :   -0.102711
   5 H :    0.009518
   6 C :   -0.003771
   7 H :    0.041144
   8 H :    0.038716
   9 C :   -0.034407
  10 H :    0.028531
  11 H :    0.026270
  12 C :   -0.030980
  13 H :    0.029343
  14 H :    0.022827
  15 H :    0.030458
  16 S :    0.115299
  17 C :   -0.083763
  18 C :   -0.039891
  19 C :   -0.021872
  20 C :   -0.149827
  21 H :    0.001120
  22 C :    0.002009
  23 H :    0.035729
  24 H :    0.033259
  25 C :   -0.070387
  26 H :    0.031024
  27 H :    0.032751
  28 C :   -0.018200
  29 H :    0.012388
  30 H :    0.022688
  31 H :    0.035662
  32 H :    0.034593
  33 H :    0.043985
Sum of atomic charges:   -0.0000000

LOEWDIN ATOMIC CHARGES
----------------------
   0 S :    0.437840
   1 C :   -0.210535
   2 C :   -0.057213
   3 C :   -0.074007
   4 C :   -0.192263
   5 H :    0.022044
   6 C :   -0.041761
   7 H :    0.040387
   8 H :    0.036192
   9 C :   -0.044304
  10 H :    0.030026
  11 H :    0.025202
  12 C :   -0.064016
  13 H :    0.024881
  14 H :    0.029092
  15 H :    0.023211
  16 S :    0.447844
  17 C :   -0.201005
  18 C :   -0.066438
  19 C :   -0.062864
  20 C :   -0.201223
  21 H :    0.024151
  22 C :   -0.045334
  23 H :    0.027710
  24 H :    0.036991
  25 C :   -0.033897
  26 H :    0.025008
  27 H :    0.018123
  28 C :   -0.066898
  29 H :    0.020245
  30 H :    0.023014
  31 H :    0.027123
  32 H :    0.018380
  33 H :    0.024292

  Mayer bond orders larger than 0.100000
B(  0-S ,  1-C ) :   1.1635 B(  0-S ,  4-C ) :   1.1491 B(  1-C ,  2-C ) :   1.5707
B(  1-C , 32-H ) :   0.9751 B(  2-C ,  3-C ) :   1.2556 B(  2-C ,  6-C ) :   1.0018
B(  3-C ,  4-C ) :   1.5413 B(  3-C ,  5-H ) :   0.9899 B(  4-C , 20-C ) :   1.0432
B(  6-C ,  7-H ) :   0.9271 B(  6-C ,  8-H ) :   0.9467 B(  6-C ,  9-C ) :   1.0931
B(  9-C , 10-H ) :   0.9477 B(  9-C , 11-H ) :   0.9430 B(  9-C , 12-C ) :   1.0947
B( 12-C , 13-H ) :   0.9758 B( 12-C , 14-H ) :   0.9650 B( 12-C , 15-H ) :   0.9716
B( 16-S , 17-C ) :   1.1747 B( 16-S , 20-C ) :   1.1595 B( 17-C , 18-C ) :   1.5834
B( 17-C , 33-H ) :   0.9716 B( 18-C , 19-C ) :   1.2458 B( 18-C , 21-H ) :   1.0027
B( 19-C , 20-C ) :   1.5755 B( 19-C , 22-C ) :   1.0437 B( 22-C , 23-H ) :   0.9420
B( 22-C , 24-H ) :   0.9343 B( 22-C , 25-C ) :   1.0547 B( 25-C , 26-H ) :   0.9614
B( 25-C , 27-H ) :   0.9555 B( 25-C , 28-C ) :   1.0783 B( 28-C , 29-H ) :   0.9717
B( 28-C , 30-H ) :   0.9740 B( 28-C , 31-H ) :   0.9750

Dispersion correction           -0.014370293
FINAL SINGLE POINT ENERGY     -1339.874959045587

DIPOLE MOMENT
-------------
                                X             Y             Z
Electronic contribution:      4.02639       4.09738      -4.19116
Nuclear contribution   :     -4.00929      -4.23700       4.27012
                        -----------------------------------------
Total Dipole Moment    :      0.01710      -0.13963       0.07897
                        -----------------------------------------
Magnitude (a.u.)       :      0.16132
Magnitude (Debye)      :      0.41004

Rotational constants in cm-1:     0.021512     0.008749     0.006502
Rotational constants in MHz :   644.912302   262.286577   194.922522

                             ****ORCA TERMINATED NORMALLY****
TOTAL RUN TIME: 0 days 0 hours 0 minutes 20 seconds 440 msec
