                         Program Version 4.2.1 -  RELEASE  -
|  1> ! wB97X-D3 SP def2-SVP
|  2> %pal
|  3> nprocs 24
|  4> end
|  5>
|  6> * xyz 0 1
|  7> S 	 -30.584 	 7.5176 	 5.30965
|  8> C 	 -30.0518 	 9.23235 	 5.38922
|  9> C 	 -30.8539 	 9.88793 	 6.41233
| 10> C 	 -31.7917 	 8.9626 	 7.04447
| 11> C 	 -31.8648 	 7.67931 	 6.50449
| 12> H 	 -32.3995 	 9.17464 	 7.89019
| 13> C 	 -30.6718 	 11.3846 	 6.72323
| 14> H 	 -30.7689 	 11.4104 	 7.76385
| 15> H 	 -31.5354 	 11.9006 	 6.34036
| 16> C 	 -29.4012 	 12.0726 	 6.26032
| 17> H 	 -28.5993 	 11.5706 	 6.8465
| 18> H 	 -29.1926 	 11.9292 	 5.21228
| 19> C 	 -29.3624 	 13.5955 	 6.58319
| 20> H 	 -29.7048 	 13.6366 	 7.56907
| 21> H 	 -28.4057 	 14.055 	 6.43433
| 22> H 	 -29.9569 	 14.1687 	 5.93586
| 23> S 	 -31.7323 	 5.32757 	 7.81233
| 24> C 	 -33.2296 	 4.36561 	 8.11443
| 25> C 	 -34.345 	 5.11835 	 7.74931
| 26> C 	 -34.0606 	 6.35711 	 7.15039
| 27> C 	 -32.6879 	 6.56109 	 7.01132
| 28> H 	 -35.3848 	 4.77567 	 7.91253
| 29> C 	 -35.1551 	 7.31552 	 6.93626
| 30> H 	 -34.8071 	 8.29242 	 6.64905
| 31> H 	 -35.7508 	 7.54821 	 7.90109
| 32> C 	 -36.1851 	 7.02093 	 5.90239
| 33> H 	 -36.8336 	 7.86898 	 5.91251
| 34> H 	 -36.8165 	 6.14985 	 6.16562
| 35> C 	 -35.6134 	 6.80589 	 4.49432
| 36> H 	 -34.9966 	 7.77164 	 4.22118
| 37> H 	 -36.4695 	 6.74126 	 3.83071
| 38> H 	 -35.0038 	 5.94336 	 4.40841
| 39> H 	 -29.1279 	 9.75049 	 4.99412
| 40> H 	 -33.2725 	 3.34819 	 8.36531
| 41> *
| 42>
| 43>                          ****END OF INPUT****

CARTESIAN COORDINATES (ANGSTROEM)
---------------------------------
  S    -30.584000    7.517600    5.309650
  C    -30.051800    9.232350    5.389220
  C    -30.853900    9.887930    6.412330
  C    -31.791700    8.962600    7.044470
  C    -31.864800    7.679310    6.504490
  H    -32.399500    9.174640    7.890190
  C    -30.671800   11.384600    6.723230
  H    -30.768900   11.410400    7.763850
  H    -31.535400   11.900600    6.340360
  C    -29.401200   12.072600    6.260320
  H    -28.599300   11.570600    6.846500
  H    -29.192600   11.929200    5.212280
  C    -29.362400   13.595500    6.583190
  H    -29.704800   13.636600    7.569070
  H    -28.405700   14.055000    6.434330
  H    -29.956900   14.168700    5.935860
  S    -31.732300    5.327570    7.812330
  C    -33.229600    4.365610    8.114430
  C    -34.345000    5.118350    7.749310
  C    -34.060600    6.357110    7.150390
  C    -32.687900    6.561090    7.011320
  H    -35.384800    4.775670    7.912530
  C    -35.155100    7.315520    6.936260
  H    -34.807100    8.292420    6.649050
  H    -35.750800    7.548210    7.901090
  C    -36.185100    7.020930    5.902390
  H    -36.833600    7.868980    5.912510
  H    -36.816500    6.149850    6.165620
  C    -35.613400    6.805890    4.494320
  H    -34.996600    7.771640    4.221180
  H    -36.469500    6.741260    3.830710
  H    -35.003800    5.943360    4.408410
  H    -29.127900    9.750490    4.994120
  H    -33.272500    3.348190    8.365310

 Total Charge           Charge          ....    0
 Multiplicity           Mult            ....    1
 Number of Electrons    NEL             ....  134
 Basis Dimension        Dim             ....  322

ORBITAL ENERGIES
----------------

  NO   OCC          E(Eh)            E(eV)
   0   2.0000     -88.967991     -2420.9421
   1   2.0000     -88.967302     -2420.9234
   2   2.0000     -10.334037      -281.2034
   3   2.0000     -10.332990      -281.1750
   4   2.0000     -10.327289      -281.0198
   5   2.0000     -10.320249      -280.8283
   6   2.0000     -10.314412      -280.6694
   7   2.0000     -10.302204      -280.3372
   8   2.0000     -10.298314      -280.2314
   9   2.0000     -10.296898      -280.1928
  10   2.0000     -10.291605      -280.0488
  11   2.0000     -10.290138      -280.0089
  12   2.0000     -10.289368      -279.9879
  13   2.0000     -10.280431      -279.7448
  14   2.0000     -10.276851      -279.6473
  15   2.0000     -10.272895      -279.5397
  16   2.0000      -8.081775      -219.9163
  17   2.0000      -8.080529      -219.8824
  18   2.0000      -6.040377      -164.3670
  19   2.0000      -6.039196      -164.3349
  20   2.0000      -6.036404      -164.2589
  21   2.0000      -6.035038      -164.2217
  22   2.0000      -6.032487      -164.1523
  23   2.0000      -6.031373      -164.1220
  24   2.0000      -1.000553       -27.2264
  25   2.0000      -0.973358       -26.4864
  26   2.0000      -0.917644       -24.9704
  27   2.0000      -0.913299       -24.8521
  28   2.0000      -0.864457       -23.5231
  29   2.0000      -0.847897       -23.0724
  30   2.0000      -0.843592       -22.9553
  31   2.0000      -0.812221       -22.1017
  32   2.0000      -0.783248       -21.3133
  33   2.0000      -0.772545       -21.0220
  34   2.0000      -0.715148       -19.4602
  35   2.0000      -0.699685       -19.0394
  36   2.0000      -0.690373       -18.7860
  37   2.0000      -0.661298       -17.9948
  38   2.0000      -0.634228       -17.2582
  39   2.0000      -0.610488       -16.6122
  40   2.0000      -0.601024       -16.3547
  41   2.0000      -0.580595       -15.7988
  42   2.0000      -0.564031       -15.3481
  43   2.0000      -0.550987       -14.9931
  44   2.0000      -0.544506       -14.8167
  45   2.0000      -0.528630       -14.3847
  46   2.0000      -0.519736       -14.1427
  47   2.0000      -0.510642       -13.8953
  48   2.0000      -0.505030       -13.7426
  49   2.0000      -0.502703       -13.6793
  50   2.0000      -0.494520       -13.4566
  51   2.0000      -0.478836       -13.0298
  52   2.0000      -0.466425       -12.6921
  53   2.0000      -0.459402       -12.5010
  54   2.0000      -0.452942       -12.3252
  55   2.0000      -0.449781       -12.2392
  56   2.0000      -0.445851       -12.1322
  57   2.0000      -0.437760       -11.9121
  58   2.0000      -0.430702       -11.7200
  59   2.0000      -0.426009       -11.5923
  60   2.0000      -0.424150       -11.5417
  61   2.0000      -0.411189       -11.1890
  62   2.0000      -0.409621       -11.1464
  63   2.0000      -0.340012        -9.2522
  64   2.0000      -0.326726        -8.8907
  65   2.0000      -0.321755        -8.7554
  66   2.0000      -0.299976        -8.1628
  67   0.0000       0.025002         0.6803
  68   0.0000       0.060346         1.6421
  69   0.0000       0.101780         2.7696
  70   0.0000       0.117820         3.2060
  71   0.0000       0.126909         3.4534

MULLIKEN ATOMIC CHARGES
-----------------------
   0 S :    0.109750
   1 C :   -0.142230
   2 C :   -0.141304
   3 C :    0.061039
   4 C :   -0.158949
   5 H :    0.004481
   6 C :    0.104881
   7 H :    0.011964
   8 H :    0.035248
   9 C :   -0.135553
  10 H :    0.038116
  11 H :    0.036139
  12 C :    0.014963
  13 H :    0.019692
  14 H :    0.027967
  15 H :    0.017790
  16 S :    0.108225
  17 C :   -0.078489
  18 C :   -0.048580
  19 C :    0.023177
  20 C :   -0.185150
  21 H :    0.032428
  22 C :    0.034595
  23 H :    0.003823
  24 H :    0.046862
  25 C :   -0.075016
  26 H :    0.019346
  27 H :    0.022903
  28 C :   -0.061524
  29 H :    0.042000
  30 H :    0.034414
  31 H :    0.044573
  32 H :    0.086137
  33 H :    0.046281
Sum of atomic charges:    0.0000000

LOEWDIN ATOMIC CHARGES
----------------------
   0 S :    0.393521
   1 C :   -0.214734
   2 C :   -0.053277
   3 C :   -0.062716
   4 C :   -0.203818
   5 H :    0.025492
   6 C :   -0.031126
   7 H :    0.024551
   8 H :    0.032425
   9 C :   -0.040364
  10 H :    0.029730
  11 H :    0.018297
  12 C :   -0.049353
  13 H :    0.019706
  14 H :    0.027607
  15 H :    0.019171
  16 S :    0.394900
  17 C :   -0.164646
  18 C :   -0.062953
  19 C :   -0.062313
  20 C :   -0.190154
  21 H :    0.037353
  22 C :   -0.041819
  23 H :    0.024927
  24 H :    0.045332
  25 C :   -0.043790
  26 H :    0.022033
  27 H :    0.018726
  28 C :   -0.063667
  29 H :    0.037497
  30 H :    0.025138
  31 H :    0.020503
  32 H :    0.047398
  33 H :    0.020425

  Mayer bond orders larger than 0.100000
B(  0-S ,  1-C ) :   1.1366 B(  0-S ,  4-C ) :   1.1490 B(  1-C ,  2-C ) :   1.5856
B(  1-C ,  4-C ) :   0.1044 B(  1-C , 32-H ) :   0.9495 B(  2-C ,  3-C ) :   1.2560
B(  2-C ,  6-C ) :   1.0078 B(  3-C ,  4-C ) :   1.5642 B(  3-C ,  5-H ) :   0.9944
B(  4-C , 20-C ) :   1.0163 B(  6-C ,  7-H ) :   0.9329 B(  6-C ,  8-H ) :   0.9339
B(  6-C ,  9-C ) :   1.0760 B(  9-C , 10-H ) :   0.9582 B(  9-C , 11-H ) :   0.9497
B(  9-C , 12-C ) :   1.0834 B( 12-C , 13-H ) :   0.9757 B( 12-C , 14-H ) :   0.9725
B( 12-C , 15-H ) :   0.9738 B( 16-S , 17-C ) :   1.1365 B( 16-S , 20-C ) :   1.1623
B( 17-C , 18-C ) :   1.6058 B( 17-C , 20-C ) :   0.1086 B( 17-C , 33-H ) :   0.9750
B( 18-C , 19-C ) :   1.2445 B( 18-C , 21-H ) :   0.9807 B( 19-C , 20-C ) :   1.5771
B( 19-C , 22-C ) :   1.0560 B( 22-C , 23-H ) :   0.9261 B( 22-C , 24-H ) :   0.9350
B( 22-C , 25-C ) :   1.0863 B( 25-C , 26-H ) :   0.9518 B( 25-C , 27-H ) :   0.9507
B( 25-C , 28-C ) :   1.0756 B( 28-C , 29-H ) :   0.9728 B( 28-C , 30-H ) :   0.9737
B( 28-C , 31-H ) :   0.9743

Dispersion correction           -0.013822928
FINAL SINGLE POINT ENERGY     -1339.854653702485

DIPOLE MOMENT
-------------
                                X             Y             Z
Electronic contribution:      8.76649     -21.99911       3.86039
Nuclear contribution   :     -9.14308      22.55051      -3.60013
                        -----------------------------------------
Total Dipole Moment    :     -0.37659       0.55140       0.26026
                        -----------------------------------------
Magnitude (a.u.)       :      0.71666
Magnitude (Debye)      :      1.82160

Rotational constants in cm-1:     0.022313     0.006988     0.006161
Rotational constants in MHz :   668.936566   209.505987   184.691244

                             ****ORCA TERMINATED NORMALLY****
TOTAL RUN TIME: 0 days 0 hours 0 minutes 21 seconds 32 msec
