                         Program Version 4.2.1 -  RELEASE  -
|  1> ! wB97X-D3 SP def2-SVP
|  2> %pal
|  3> nprocs 24
|  4> end
|  5>
|  6> * xyz 0 1
|  7> S 	 3.18113 	 -18.8597 	 -114.447
|  8> C 	 2.07942 	 -17.5128 	 -114.714
|  9> C 	 0.765365 	 -17.918 	 -114.556
| 10> C 	 0.654247 	 -19.2171 	 -113.995
| 11> C 	 1.87316 	 -19.8559 	 -113.758
| 12> H 	 -0.255374 	 -19.7508 	 -113.715
| 13> C 	 -0.407712 	 -16.9619 	 -114.684
| 14> H 	 0.00965934 	 -15.9528 	 -114.715
| 15> H 	 -0.939671 	 -17.0102 	 -113.781
| 16> C 	 -1.45918 	 -17.2146 	 -115.741
| 17> H 	 -2.10979 	 -18.015 	 -115.476
| 18> H 	 -2.0831 	 -16.3375 	 -115.832
| 19> C 	 -0.733647 	 -17.4423 	 -117.106
| 20> H 	 -0.188578 	 -18.3771 	 -117.09
| 21> H 	 -1.37969 	 -17.2762 	 -117.975
| 22> H 	 0.0264084 	 -16.6437 	 -117.208
| 23> S 	 3.11335 	 -20.9785 	 -111.58
| 24> C 	 2.74165 	 -22.6301 	 -111.152
| 25> C 	 2.08566 	 -23.2848 	 -112.153
| 26> C 	 1.65082 	 -22.3709 	 -113.189
| 27> C 	 2.13142 	 -21.1054 	 -113.038
| 28> H 	 1.89099 	 -24.2908 	 -112.094
| 29> C 	 0.645766 	 -22.8664 	 -114.251
| 30> H 	 0.021213 	 -22.0514 	 -114.492
| 31> H 	 -0.0507548 	 -23.4933 	 -113.771
| 32> C 	 1.21264 	 -23.6153 	 -115.464
| 33> H 	 0.40344 	 -23.9709 	 -116.1
| 34> H 	 1.72337 	 -24.5268 	 -115.129
| 35> C 	 2.24466 	 -22.6983 	 -116.257
| 36> H 	 3.16336 	 -22.5405 	 -115.672
| 37> H 	 1.78941 	 -21.7618 	 -116.424
| 38> H 	 2.39452 	 -23.2044 	 -117.233
| 39> H 	 2.3626 	 -16.515 	 -114.99
| 40> H 	 3.14479 	 -23.1288 	 -110.254
| 41> *
| 42>
| 43>                          ****END OF INPUT****

CARTESIAN COORDINATES (ANGSTROEM)
---------------------------------
  S      3.181130  -18.859700  -114.447000
  C      2.079420  -17.512800  -114.714000
  C      0.765365  -17.918000  -114.556000
  C      0.654247  -19.217100  -113.995000
  C      1.873160  -19.855900  -113.758000
  H     -0.255374  -19.750800  -113.715000
  C     -0.407712  -16.961900  -114.684000
  H      0.009659  -15.952800  -114.715000
  H     -0.939671  -17.010200  -113.781000
  C     -1.459180  -17.214600  -115.741000
  H     -2.109790  -18.015000  -115.476000
  H     -2.083100  -16.337500  -115.832000
  C     -0.733647  -17.442300  -117.106000
  H     -0.188578  -18.377100  -117.090000
  H     -1.379690  -17.276200  -117.975000
  H      0.026408  -16.643700  -117.208000
  S      3.113350  -20.978500  -111.580000
  C      2.741650  -22.630100  -111.152000
  C      2.085660  -23.284800  -112.153000
  C      1.650820  -22.370900  -113.189000
  C      2.131420  -21.105400  -113.038000
  H      1.890990  -24.290800  -112.094000
  C      0.645766  -22.866400  -114.251000
  H      0.021213  -22.051400  -114.492000
  H     -0.050755  -23.493300  -113.771000
  C      1.212640  -23.615300  -115.464000
  H      0.403440  -23.970900  -116.100000
  H      1.723370  -24.526800  -115.129000
  C      2.244660  -22.698300  -116.257000
  H      3.163360  -22.540500  -115.672000
  H      1.789410  -21.761800  -116.424000
  H      2.394520  -23.204400  -117.233000
  H      2.362600  -16.515000  -114.990000
  H      3.144790  -23.128800  -110.254000

 Total Charge           Charge          ....    0
 Multiplicity           Mult            ....    1
 Number of Electrons    NEL             ....  134
 Basis Dimension        Dim             ....  322

ORBITAL ENERGIES
----------------

  NO   OCC          E(Eh)            E(eV)
   0   2.0000     -88.965678     -2420.8792
   1   2.0000     -88.963209     -2420.8120
   2   2.0000     -10.334178      -281.2073
   3   2.0000     -10.326578      -281.0005
   4   2.0000     -10.319665      -280.8124
   5   2.0000     -10.314631      -280.6754
   6   2.0000     -10.305574      -280.4289
   7   2.0000     -10.301082      -280.3067
   8   2.0000     -10.297064      -280.1974
   9   2.0000     -10.289521      -279.9921
  10   2.0000     -10.288182      -279.9557
  11   2.0000     -10.285022      -279.8697
  12   2.0000     -10.284290      -279.8497
  13   2.0000     -10.283402      -279.8256
  14   2.0000     -10.275400      -279.6079
  15   2.0000     -10.272741      -279.5355
  16   2.0000      -8.079678      -219.8592
  17   2.0000      -8.078234      -219.8199
  18   2.0000      -6.038267      -164.3096
  19   2.0000      -6.036820      -164.2702
  20   2.0000      -6.034309      -164.2019
  21   2.0000      -6.032735      -164.1591
  22   2.0000      -6.030377      -164.0949
  23   2.0000      -6.028837      -164.0530
  24   2.0000      -1.005196       -27.3528
  25   2.0000      -0.983521       -26.7630
  26   2.0000      -0.913704       -24.8632
  27   2.0000      -0.903423       -24.5834
  28   2.0000      -0.869258       -23.6537
  29   2.0000      -0.844250       -22.9732
  30   2.0000      -0.839840       -22.8532
  31   2.0000      -0.814411       -22.1612
  32   2.0000      -0.783488       -21.3198
  33   2.0000      -0.774915       -21.0865
  34   2.0000      -0.710955       -19.3461
  35   2.0000      -0.698094       -18.9961
  36   2.0000      -0.693680       -18.8760
  37   2.0000      -0.664912       -18.0932
  38   2.0000      -0.640621       -17.4322
  39   2.0000      -0.619142       -16.8477
  40   2.0000      -0.596655       -16.2358
  41   2.0000      -0.568767       -15.4769
  42   2.0000      -0.555021       -15.1029
  43   2.0000      -0.550486       -14.9795
  44   2.0000      -0.546002       -14.8575
  45   2.0000      -0.538525       -14.6540
  46   2.0000      -0.515896       -14.0382
  47   2.0000      -0.507157       -13.8005
  48   2.0000      -0.504849       -13.7376
  49   2.0000      -0.498140       -13.5551
  50   2.0000      -0.489331       -13.3154
  51   2.0000      -0.472297       -12.8519
  52   2.0000      -0.468339       -12.7441
  53   2.0000      -0.465980       -12.6800
  54   2.0000      -0.459243       -12.4966
  55   2.0000      -0.451531       -12.2868
  56   2.0000      -0.444781       -12.1031
  57   2.0000      -0.433226       -11.7887
  58   2.0000      -0.428129       -11.6500
  59   2.0000      -0.425598       -11.5811
  60   2.0000      -0.418684       -11.3930
  61   2.0000      -0.417744       -11.3674
  62   2.0000      -0.412708       -11.2304
  63   2.0000      -0.344489        -9.3740
  64   2.0000      -0.330725        -8.9995
  65   2.0000      -0.328221        -8.9313
  66   2.0000      -0.298970        -8.1354
  67   0.0000       0.031105         0.8464
  68   0.0000       0.065351         1.7783
  69   0.0000       0.113481         3.0880
  70   0.0000       0.123279         3.3546
  71   0.0000       0.125044         3.4026

MULLIKEN ATOMIC CHARGES
-----------------------
   0 S :    0.106333
   1 C :   -0.119858
   2 C :   -0.090383
   3 C :    0.043631
   4 C :   -0.175098
   5 H :    0.019045
   6 C :    0.080905
   7 H :    0.015975
   8 H :    0.014113
   9 C :   -0.050766
  10 H :    0.025279
  11 H :    0.026494
  12 C :   -0.060961
  13 H :    0.051028
  14 H :    0.035145
  15 H :    0.016002
  16 S :    0.105925
  17 C :   -0.098235
  18 C :    0.005300
  19 C :   -0.053386
  20 C :   -0.160122
  21 H :   -0.010398
  22 C :    0.113527
  23 H :   -0.004256
  24 H :    0.003698
  25 C :   -0.072741
  26 H :    0.030625
  27 H :    0.024922
  28 C :   -0.049793
  29 H :    0.052203
  30 H :    0.026186
  31 H :    0.038308
  32 H :    0.043259
  33 H :    0.068095
Sum of atomic charges:   -0.0000000

LOEWDIN ATOMIC CHARGES
----------------------
   0 S :    0.385006
   1 C :   -0.188764
   2 C :   -0.064530
   3 C :   -0.062581
   4 C :   -0.181434
   5 H :    0.032120
   6 C :   -0.028291
   7 H :    0.030222
   8 H :    0.025879
   9 C :   -0.035166
  10 H :    0.017863
  11 H :    0.026251
  12 C :   -0.066337
  13 H :    0.026742
  14 H :    0.023888
  15 H :    0.024421
  16 S :    0.399497
  17 C :   -0.177668
  18 C :   -0.061203
  19 C :   -0.045152
  20 C :   -0.202754
  21 H :    0.018329
  22 C :   -0.028068
  23 H :    0.020952
  24 H :    0.024280
  25 C :   -0.034896
  26 H :    0.023632
  27 H :    0.021414
  28 C :   -0.060886
  29 H :    0.030389
  30 H :    0.016863
  31 H :    0.029231
  32 H :    0.025363
  33 H :    0.035388

  Mayer bond orders larger than 0.100000
B(  0-S ,  1-C ) :   1.1336 B(  0-S ,  4-C ) :   1.1438 B(  1-C ,  2-C ) :   1.6037
B(  1-C ,  4-C ) :   0.1006 B(  1-C , 32-H ) :   0.9686 B(  2-C ,  3-C ) :   1.2259
B(  2-C ,  6-C ) :   1.0241 B(  3-C ,  4-C ) :   1.5913 B(  3-C ,  5-H ) :   0.9892
B(  4-C , 20-C ) :   1.0273 B(  6-C ,  7-H ) :   0.9416 B(  6-C ,  8-H ) :   0.9376
B(  6-C ,  9-C ) :   1.0794 B(  9-C , 10-H ) :   0.9562 B(  9-C , 11-H ) :   0.9533
B(  9-C , 12-C ) :   1.0751 B( 12-C , 13-H ) :   0.9706 B( 12-C , 14-H ) :   0.9763
B( 12-C , 15-H ) :   0.9761 B( 16-S , 17-C ) :   1.1527 B( 16-S , 20-C ) :   1.1233
B( 17-C , 18-C ) :   1.6314 B( 17-C , 33-H ) :   0.9625 B( 18-C , 19-C ) :   1.2064
B( 18-C , 21-H ) :   1.0040 B( 19-C , 20-C ) :   1.6387 B( 19-C , 22-C ) :   1.0277
B( 22-C , 23-H ) :   0.9321 B( 22-C , 24-H ) :   0.9287 B( 22-C , 25-C ) :   1.0784
B( 25-C , 26-H ) :   0.9566 B( 25-C , 27-H ) :   0.9567 B( 25-C , 28-C ) :   1.0659
B( 28-C , 29-H ) :   0.9748 B( 28-C , 30-H ) :   0.9792 B( 28-C , 31-H ) :   0.9761

Dispersion correction           -0.015482490
FINAL SINGLE POINT ENERGY     -1339.882612422660

DIPOLE MOMENT
-------------
                                X             Y             Z
Electronic contribution:     16.97056       0.60779      18.35132
Nuclear contribution   :    -17.60590      -0.78347     -18.39854
                        -----------------------------------------
Total Dipole Moment    :     -0.63534      -0.17568      -0.04722
                        -----------------------------------------
Magnitude (a.u.)       :      0.66087
Magnitude (Debye)      :      1.67980

Rotational constants in cm-1:     0.020368     0.008841     0.007464
Rotational constants in MHz :   610.605665   265.048907   223.777324

                             ****ORCA TERMINATED NORMALLY****
TOTAL RUN TIME: 0 days 0 hours 0 minutes 22 seconds 346 msec
