                         Program Version 4.2.1 -  RELEASE  -
|  1> ! wB97X-D3 SP def2-SVP
|  2> %pal
|  3> nprocs 24
|  4> end
|  5>
|  6> * xyz 0 1
|  7> S 	 -43.9194 	 28.5477 	 29.3964
|  8> C 	 -44.4446 	 27.5479 	 28.0483
|  9> C 	 -45.435 	 26.6523 	 28.4004
| 10> C 	 -45.6627 	 26.7302 	 29.823
| 11> C 	 -44.7403 	 27.5565 	 30.4927
| 12> H 	 -46.4868 	 26.2272 	 30.3362
| 13> C 	 -46.137 	 25.6949 	 27.4358
| 14> H 	 -46.6664 	 26.2796 	 26.7536
| 15> H 	 -46.8241 	 25.2207 	 28.0718
| 16> C 	 -45.2245 	 24.6037 	 26.7945
| 17> H 	 -44.3761 	 25.2139 	 26.2813
| 18> H 	 -44.7609 	 24.0547 	 27.5713
| 19> C 	 -45.9221 	 23.4822 	 26.0528
| 20> H 	 -46.6597 	 22.9758 	 26.6915
| 21> H 	 -46.2548 	 23.8319 	 25.0684
| 22> H 	 -45.1653 	 22.7561 	 25.8018
| 23> S 	 -45.8402 	 29.0023 	 32.623
| 24> C 	 -45.383 	 28.6361 	 34.2544
| 25> C 	 -44.5696 	 27.4778 	 34.2637
| 26> C 	 -44.1591 	 27.07 	 32.9446
| 27> C 	 -44.7412 	 27.8168 	 31.9155
| 28> H 	 -44.2092 	 27.0866 	 35.2161
| 29> C 	 -43.2913 	 25.8155 	 32.7587
| 30> H 	 -43.1218 	 25.6535 	 33.8017
| 31> H 	 -42.3467 	 26.0353 	 32.3582
| 32> C 	 -44.0359 	 24.5409 	 32.1625
| 33> H 	 -44.3628 	 24.6701 	 31.1246
| 34> H 	 -44.8898 	 24.283 	 32.6888
| 35> C 	 -43.1691 	 23.296 	 32.0943
| 36> H 	 -42.8458 	 22.854 	 33.0283
| 37> H 	 -42.3302 	 23.5552 	 31.4504
| 38> H 	 -43.7806 	 22.4981 	 31.565
| 39> H 	 -44.1372 	 27.7451 	 27.034
| 40> H 	 -45.7897 	 29.137 	 35.15
| 41> *
| 42>
| 43>                          ****END OF INPUT****

CARTESIAN COORDINATES (ANGSTROEM)
---------------------------------
  S    -43.919400   28.547700   29.396400
  C    -44.444600   27.547900   28.048300
  C    -45.435000   26.652300   28.400400
  C    -45.662700   26.730200   29.823000
  C    -44.740300   27.556500   30.492700
  H    -46.486800   26.227200   30.336200
  C    -46.137000   25.694900   27.435800
  H    -46.666400   26.279600   26.753600
  H    -46.824100   25.220700   28.071800
  C    -45.224500   24.603700   26.794500
  H    -44.376100   25.213900   26.281300
  H    -44.760900   24.054700   27.571300
  C    -45.922100   23.482200   26.052800
  H    -46.659700   22.975800   26.691500
  H    -46.254800   23.831900   25.068400
  H    -45.165300   22.756100   25.801800
  S    -45.840200   29.002300   32.623000
  C    -45.383000   28.636100   34.254400
  C    -44.569600   27.477800   34.263700
  C    -44.159100   27.070000   32.944600
  C    -44.741200   27.816800   31.915500
  H    -44.209200   27.086600   35.216100
  C    -43.291300   25.815500   32.758700
  H    -43.121800   25.653500   33.801700
  H    -42.346700   26.035300   32.358200
  C    -44.035900   24.540900   32.162500
  H    -44.362800   24.670100   31.124600
  H    -44.889800   24.283000   32.688800
  C    -43.169100   23.296000   32.094300
  H    -42.845800   22.854000   33.028300
  H    -42.330200   23.555200   31.450400
  H    -43.780600   22.498100   31.565000
  H    -44.137200   27.745100   27.034000
  H    -45.789700   29.137000   35.150000

 Total Charge           Charge          ....    0
 Multiplicity           Mult            ....    1
 Number of Electrons    NEL             ....  134
 Basis Dimension        Dim             ....  322

ORBITAL ENERGIES
----------------

  NO   OCC          E(Eh)            E(eV)
   0   2.0000     -88.966589     -2420.9040
   1   2.0000     -88.963795     -2420.8279
   2   2.0000     -10.324139      -280.9341
   3   2.0000     -10.322172      -280.8806
   4   2.0000     -10.321722      -280.8683
   5   2.0000     -10.311064      -280.5783
   6   2.0000     -10.303969      -280.3853
   7   2.0000     -10.301785      -280.3258
   8   2.0000     -10.298075      -280.2249
   9   2.0000     -10.297359      -280.2054
  10   2.0000     -10.292491      -280.0729
  11   2.0000     -10.286585      -279.9122
  12   2.0000     -10.286556      -279.9114
  13   2.0000     -10.282483      -279.8006
  14   2.0000     -10.278832      -279.7012
  15   2.0000     -10.275768      -279.6179
  16   2.0000      -8.082177      -219.9272
  17   2.0000      -8.078433      -219.8253
  18   2.0000      -6.040538      -164.3714
  19   2.0000      -6.036883      -164.2719
  20   2.0000      -6.036591      -164.2640
  21   2.0000      -6.033022      -164.1669
  22   2.0000      -6.032790      -164.1606
  23   2.0000      -6.029437      -164.0693
  24   2.0000      -1.006566       -27.3901
  25   2.0000      -0.981285       -26.7021
  26   2.0000      -0.913319       -24.8527
  27   2.0000      -0.900596       -24.5065
  28   2.0000      -0.868879       -23.6434
  29   2.0000      -0.850538       -23.1443
  30   2.0000      -0.848969       -23.1016
  31   2.0000      -0.808257       -21.9938
  32   2.0000      -0.786505       -21.4019
  33   2.0000      -0.769618       -20.9424
  34   2.0000      -0.703847       -19.1526
  35   2.0000      -0.699961       -19.0469
  36   2.0000      -0.690700       -18.7949
  37   2.0000      -0.657928       -17.9031
  38   2.0000      -0.641988       -17.4694
  39   2.0000      -0.613573       -16.6962
  40   2.0000      -0.590108       -16.0576
  41   2.0000      -0.572412       -15.5761
  42   2.0000      -0.562316       -15.3014
  43   2.0000      -0.559788       -15.2326
  44   2.0000      -0.525509       -14.2998
  45   2.0000      -0.522631       -14.2215
  46   2.0000      -0.518885       -14.1196
  47   2.0000      -0.513723       -13.9791
  48   2.0000      -0.507612       -13.8128
  49   2.0000      -0.504875       -13.7383
  50   2.0000      -0.489459       -13.3189
  51   2.0000      -0.476702       -12.9717
  52   2.0000      -0.469606       -12.7786
  53   2.0000      -0.466871       -12.7042
  54   2.0000      -0.459860       -12.5134
  55   2.0000      -0.453047       -12.3280
  56   2.0000      -0.441054       -12.0017
  57   2.0000      -0.433227       -11.7887
  58   2.0000      -0.432332       -11.7643
  59   2.0000      -0.421340       -11.4652
  60   2.0000      -0.419323       -11.4104
  61   2.0000      -0.418234       -11.3807
  62   2.0000      -0.408737       -11.1223
  63   2.0000      -0.332864        -9.0577
  64   2.0000      -0.326330        -8.8799
  65   2.0000      -0.315808        -8.5936
  66   2.0000      -0.309934        -8.4337
  67   0.0000       0.041196         1.1210
  68   0.0000       0.049368         1.3434
  69   0.0000       0.111437         3.0324
  70   0.0000       0.125140         3.4052
  71   0.0000       0.131487         3.5780

MULLIKEN ATOMIC CHARGES
-----------------------
   0 S :    0.130622
   1 C :   -0.132227
   2 C :   -0.122830
   3 C :    0.035489
   4 C :   -0.185673
   5 H :    0.024217
   6 C :    0.158013
   7 H :    0.023534
   8 H :   -0.011898
   9 C :   -0.113934
  10 H :    0.041466
  11 H :    0.020887
  12 C :   -0.023901
  13 H :    0.043452
  14 H :    0.032454
  15 H :    0.029789
  16 S :    0.114100
  17 C :   -0.113294
  18 C :   -0.045848
  19 C :   -0.068472
  20 C :   -0.162926
  21 H :    0.027702
  22 C :    0.139938
  23 H :   -0.005529
  24 H :    0.022759
  25 C :   -0.049780
  26 H :    0.039537
  27 H :    0.008136
  28 C :   -0.067886
  29 H :    0.031720
  30 H :    0.031679
  31 H :    0.032995
  32 H :    0.041511
  33 H :    0.074195
Sum of atomic charges:    0.0000000

LOEWDIN ATOMIC CHARGES
----------------------
   0 S :    0.439500
   1 C :   -0.195596
   2 C :   -0.061034
   3 C :   -0.054929
   4 C :   -0.224340
   5 H :    0.032098
   6 C :   -0.020688
   7 H :    0.023616
   8 H :    0.020129
   9 C :   -0.043473
  10 H :    0.032470
  11 H :    0.020731
  12 C :   -0.063643
  13 H :    0.032238
  14 H :    0.025189
  15 H :    0.028699
  16 S :    0.412269
  17 C :   -0.197163
  18 C :   -0.080786
  19 C :   -0.050922
  20 C :   -0.211903
  21 H :    0.031413
  22 C :   -0.021374
  23 H :    0.027647
  24 H :    0.025404
  25 C :   -0.032861
  26 H :    0.027439
  27 H :    0.013145
  28 C :   -0.066566
  29 H :    0.017790
  30 H :    0.024020
  31 H :    0.032214
  32 H :    0.021626
  33 H :    0.037643

  Mayer bond orders larger than 0.100000
B(  0-S ,  1-C ) :   1.1570 B(  0-S ,  4-C ) :   1.1850 B(  1-C ,  2-C ) :   1.5830
B(  1-C ,  4-C ) :   0.1003 B(  1-C , 32-H ) :   0.9723 B(  2-C ,  3-C ) :   1.2781
B(  2-C ,  6-C ) :   1.0084 B(  3-C ,  4-C ) :   1.5394 B(  3-C ,  5-H ) :   0.9885
B(  4-C , 20-C ) :   1.0262 B(  6-C ,  7-H ) :   0.9335 B(  6-C ,  8-H ) :   0.9312
B(  6-C ,  9-C ) :   1.0623 B(  9-C , 10-H ) :   0.9570 B(  9-C , 11-H ) :   0.9558
B(  9-C , 12-C ) :   1.0842 B( 12-C , 13-H ) :   0.9699 B( 12-C , 14-H ) :   0.9745
B( 12-C , 15-H ) :   0.9729 B( 16-S , 17-C ) :   1.1830 B( 16-S , 20-C ) :   1.1474
B( 17-C , 18-C ) :   1.5725 B( 17-C , 20-C ) :   0.1048 B( 17-C , 33-H ) :   0.9635
B( 18-C , 19-C ) :   1.2846 B( 18-C , 21-H ) :   0.9813 B( 19-C , 20-C ) :   1.5780
B( 19-C , 22-C ) :   1.0283 B( 22-C , 23-H ) :   0.9279 B( 22-C , 24-H ) :   0.9326
B( 22-C , 25-C ) :   1.0549 B( 25-C , 26-H ) :   0.9529 B( 25-C , 27-H ) :   0.9555
B( 25-C , 28-C ) :   1.0891 B( 28-C , 29-H ) :   0.9770 B( 28-C , 30-H ) :   0.9763
B( 28-C , 31-H ) :   0.9732

Dispersion correction           -0.014414870
FINAL SINGLE POINT ENERGY     -1339.860184206492

DIPOLE MOMENT
-------------
                                X             Y             Z
Electronic contribution:     -1.49481      29.46070      10.31874
Nuclear contribution   :      1.33050     -30.07636     -10.42203
                        -----------------------------------------
Total Dipole Moment    :     -0.16431      -0.61566      -0.10329
                        -----------------------------------------
Magnitude (a.u.)       :      0.64553
Magnitude (Debye)      :      1.64080

Rotational constants in cm-1:     0.019139     0.008511     0.006738
Rotational constants in MHz :   573.781162   255.140582   202.007967

                             ****ORCA TERMINATED NORMALLY****
TOTAL RUN TIME: 0 days 0 hours 0 minutes 20 seconds 636 msec
