                         Program Version 4.2.1 -  RELEASE  -
|  1> ! wB97X-D3 SP def2-SVP
|  2> %pal
|  3> nprocs 24
|  4> end
|  5>
|  6> * xyz 0 1
|  7> S 	 -102.209 	 0.789467 	 -119.182
|  8> C 	 -103.786 	 1.54678 	 -119.307
|  9> C 	 -104.2 	 1.91944 	 -118.071
| 10> C 	 -103.443 	 1.36755 	 -116.981
| 11> C 	 -102.315 	 0.719502 	 -117.431
| 12> H 	 -103.684 	 1.37173 	 -115.901
| 13> C 	 -105.416 	 2.86043 	 -117.802
| 14> H 	 -105.054 	 3.81711 	 -118.272
| 15> H 	 -105.52 	 2.98642 	 -116.677
| 16> C 	 -106.734 	 2.25101 	 -118.296
| 17> H 	 -106.827 	 2.36995 	 -119.351
| 18> H 	 -106.677 	 1.15705 	 -118.02
| 19> C 	 -107.973 	 2.83962 	 -117.628
| 20> H 	 -108.857 	 2.51701 	 -118.05
| 21> H 	 -107.988 	 2.49477 	 -116.597
| 22> H 	 -108.006 	 3.91293 	 -117.707
| 23> S 	 -99.5764 	 0.414688 	 -116.797
| 24> C 	 -99.1002 	 -0.717159 	 -115.576
| 25> C 	 -100.25 	 -1.22828 	 -114.949
| 26> C 	 -101.481 	 -0.822583 	 -115.59
| 27> C 	 -101.277 	 0.0476697 	 -116.647
| 28> H 	 -100.13 	 -1.94684 	 -114.146
| 29> C 	 -102.869 	 -1.3954 	 -115.22
| 30> H 	 -103.443 	 -0.548239 	 -114.775
| 31> H 	 -102.61 	 -1.95957 	 -114.352
| 32> C 	 -103.637 	 -2.25073 	 -116.24
| 33> H 	 -103.853 	 -1.77308 	 -117.211
| 34> H 	 -104.572 	 -2.49199 	 -115.897
| 35> C 	 -103.034 	 -3.67481 	 -116.447
| 36> H 	 -102.902 	 -4.24038 	 -115.487
| 37> H 	 -102.053 	 -3.68875 	 -117.08
| 38> H 	 -103.727 	 -4.2647 	 -117.005
| 39> H 	 -104.371 	 1.64682 	 -120.238
| 40> H 	 -98.1078 	 -0.909994 	 -115.308
| 41> *
| 42>
| 43>                          ****END OF INPUT****

CARTESIAN COORDINATES (ANGSTROEM)
---------------------------------
  S    -102.209000    0.789467  -119.182000
  C    -103.786000    1.546780  -119.307000
  C    -104.200000    1.919440  -118.071000
  C    -103.443000    1.367550  -116.981000
  C    -102.315000    0.719502  -117.431000
  H    -103.684000    1.371730  -115.901000
  C    -105.416000    2.860430  -117.802000
  H    -105.054000    3.817110  -118.272000
  H    -105.520000    2.986420  -116.677000
  C    -106.734000    2.251010  -118.296000
  H    -106.827000    2.369950  -119.351000
  H    -106.677000    1.157050  -118.020000
  C    -107.973000    2.839620  -117.628000
  H    -108.857000    2.517010  -118.050000
  H    -107.988000    2.494770  -116.597000
  H    -108.006000    3.912930  -117.707000
  S    -99.576400    0.414688  -116.797000
  C    -99.100200   -0.717159  -115.576000
  C    -100.250000   -1.228280  -114.949000
  C    -101.481000   -0.822583  -115.590000
  C    -101.277000    0.047670  -116.647000
  H    -100.130000   -1.946840  -114.146000
  C    -102.869000   -1.395400  -115.220000
  H    -103.443000   -0.548239  -114.775000
  H    -102.610000   -1.959570  -114.352000
  C    -103.637000   -2.250730  -116.240000
  H    -103.853000   -1.773080  -117.211000
  H    -104.572000   -2.491990  -115.897000
  C    -103.034000   -3.674810  -116.447000
  H    -102.902000   -4.240380  -115.487000
  H    -102.053000   -3.688750  -117.080000
  H    -103.727000   -4.264700  -117.005000
  H    -104.371000    1.646820  -120.238000
  H    -98.107800   -0.909994  -115.308000

 Total Charge           Charge          ....    0
 Multiplicity           Mult            ....    1
 Number of Electrons    NEL             ....  134
 Basis Dimension        Dim             ....  322

ORBITAL ENERGIES
----------------

  NO   OCC          E(Eh)            E(eV)
   0   2.0000     -88.964707     -2420.8527
   1   2.0000     -88.963245     -2420.8130
   2   2.0000     -10.329772      -281.0874
   3   2.0000     -10.323481      -280.9162
   4   2.0000     -10.315150      -280.6895
   5   2.0000     -10.312901      -280.6283
   6   2.0000     -10.302554      -280.3467
   7   2.0000     -10.301013      -280.3048
   8   2.0000     -10.300636      -280.2945
   9   2.0000     -10.297689      -280.2144
  10   2.0000     -10.297249      -280.2024
  11   2.0000     -10.293822      -280.1091
  12   2.0000     -10.288758      -279.9714
  13   2.0000     -10.282514      -279.8014
  14   2.0000     -10.282128      -279.7909
  15   2.0000     -10.270824      -279.4833
  16   2.0000      -8.079676      -219.8592
  17   2.0000      -8.077999      -219.8135
  18   2.0000      -6.038196      -164.3077
  19   2.0000      -6.036569      -164.2634
  20   2.0000      -6.033983      -164.1930
  21   2.0000      -6.032524      -164.1533
  22   2.0000      -6.030584      -164.1005
  23   2.0000      -6.028662      -164.0482
  24   2.0000      -1.005938       -27.3730
  25   2.0000      -0.983965       -26.7751
  26   2.0000      -0.909485       -24.7484
  27   2.0000      -0.902681       -24.5632
  28   2.0000      -0.868841       -23.6424
  29   2.0000      -0.849012       -23.1028
  30   2.0000      -0.842131       -22.9155
  31   2.0000      -0.813936       -22.1483
  32   2.0000      -0.780722       -21.2445
  33   2.0000      -0.770811       -20.9748
  34   2.0000      -0.708204       -19.2712
  35   2.0000      -0.700439       -19.0599
  36   2.0000      -0.691110       -18.8061
  37   2.0000      -0.662942       -18.0396
  38   2.0000      -0.638404       -17.3719
  39   2.0000      -0.610560       -16.6142
  40   2.0000      -0.583504       -15.8780
  41   2.0000      -0.575131       -15.6501
  42   2.0000      -0.564065       -15.3490
  43   2.0000      -0.549227       -14.9452
  44   2.0000      -0.546368       -14.8674
  45   2.0000      -0.527297       -14.3485
  46   2.0000      -0.515960       -14.0400
  47   2.0000      -0.512145       -13.9362
  48   2.0000      -0.504888       -13.7387
  49   2.0000      -0.495164       -13.4741
  50   2.0000      -0.486125       -13.2281
  51   2.0000      -0.479698       -13.0532
  52   2.0000      -0.468470       -12.7477
  53   2.0000      -0.465187       -12.6584
  54   2.0000      -0.462349       -12.5812
  55   2.0000      -0.444376       -12.0921
  56   2.0000      -0.440140       -11.9768
  57   2.0000      -0.435473       -11.8498
  58   2.0000      -0.433348       -11.7920
  59   2.0000      -0.424225       -11.5438
  60   2.0000      -0.420048       -11.4301
  61   2.0000      -0.411409       -11.1950
  62   2.0000      -0.407986       -11.1019
  63   2.0000      -0.347616        -9.4591
  64   2.0000      -0.329673        -8.9708
  65   2.0000      -0.328843        -8.9483
  66   2.0000      -0.290755        -7.9119
  67   0.0000       0.030403         0.8273
  68   0.0000       0.070407         1.9159
  69   0.0000       0.115044         3.1305
  70   0.0000       0.124354         3.3838
  71   0.0000       0.134407         3.6574

MULLIKEN ATOMIC CHARGES
-----------------------
   0 S :    0.104151
   1 C :   -0.144706
   2 C :   -0.094774
   3 C :    0.027559
   4 C :   -0.173835
   5 H :    0.025013
   6 C :    0.040080
   7 H :    0.057708
   8 H :    0.026330
   9 C :   -0.098628
  10 H :    0.027201
  11 H :    0.045057
  12 C :   -0.003914
  13 H :    0.011100
  14 H :    0.028360
  15 H :    0.026748
  16 S :    0.112785
  17 C :   -0.084785
  18 C :   -0.033677
  19 C :   -0.083007
  20 C :   -0.126104
  21 H :    0.020875
  22 C :    0.093946
  23 H :    0.031387
  24 H :   -0.005488
  25 C :    0.003287
  26 H :    0.045525
  27 H :    0.001875
  28 C :   -0.101699
  29 H :    0.033810
  30 H :    0.056745
  31 H :    0.023584
  32 H :    0.064942
  33 H :    0.042550
Sum of atomic charges:    0.0000000

LOEWDIN ATOMIC CHARGES
----------------------
   0 S :    0.397456
   1 C :   -0.204407
   2 C :   -0.065806
   3 C :   -0.066468
   4 C :   -0.184640
   5 H :    0.038269
   6 C :   -0.034173
   7 H :    0.040056
   8 H :    0.032135
   9 C :   -0.043781
  10 H :    0.016900
  11 H :    0.034255
  12 C :   -0.057922
  13 H :    0.015723
  14 H :    0.026308
  15 H :    0.024465
  16 S :    0.417193
  17 C :   -0.184533
  18 C :   -0.071336
  19 C :   -0.060831
  20 C :   -0.207475
  21 H :    0.030040
  22 C :   -0.031563
  23 H :    0.032846
  24 H :    0.024865
  25 C :   -0.033833
  26 H :    0.033199
  27 H :    0.015576
  28 C :   -0.071962
  29 H :    0.026635
  30 H :    0.036291
  31 H :    0.018720
  32 H :    0.038040
  33 H :    0.019758

  Mayer bond orders larger than 0.100000
B(  0-S ,  1-C ) :   1.1226 B(  0-S ,  4-C ) :   1.1516 B(  1-C ,  2-C ) :   1.6286
B(  1-C , 32-H ) :   0.9720 B(  2-C ,  3-C ) :   1.2262 B(  2-C ,  6-C ) :   0.9997
B(  3-C ,  4-C ) :   1.5838 B(  3-C ,  5-H ) :   0.9898 B(  4-C , 20-C ) :   1.0338
B(  6-C ,  7-H ) :   0.9388 B(  6-C ,  8-H ) :   0.9507 B(  6-C ,  9-C ) :   1.0526
B(  9-C , 10-H ) :   0.9534 B(  9-C , 11-H ) :   0.9613 B(  9-C , 12-C ) :   1.0964
B( 12-C , 13-H ) :   0.9714 B( 12-C , 14-H ) :   0.9741 B( 12-C , 15-H ) :   0.9722
B( 16-S , 17-C ) :   1.1693 B( 16-S , 20-C ) :   1.1498 B( 17-C , 18-C ) :   1.5761
B( 17-C , 20-C ) :   0.1005 B( 17-C , 33-H ) :   0.9774 B( 18-C , 19-C ) :   1.2674
B( 18-C , 21-H ) :   0.9889 B( 19-C , 20-C ) :   1.5788 B( 19-C , 22-C ) :   1.0255
B( 22-C , 23-H ) :   0.9306 B( 22-C , 24-H ) :   0.9275 B( 22-C , 25-C ) :   1.0681
B( 25-C , 26-H ) :   0.9550 B( 25-C , 27-H ) :   0.9472 B( 25-C , 28-C ) :   1.0742
B( 28-C , 29-H ) :   0.9741 B( 28-C , 30-H ) :   0.9766 B( 28-C , 31-H ) :   0.9755

Dispersion correction           -0.014737037
FINAL SINGLE POINT ENERGY     -1339.873253172701

DIPOLE MOMENT
-------------
                                X             Y             Z
Electronic contribution:     26.88844       4.92431      -5.95192
Nuclear contribution   :    -27.58801      -5.03275       6.27348
                        -----------------------------------------
Total Dipole Moment    :     -0.69957      -0.10844       0.32155
                        -----------------------------------------
Magnitude (a.u.)       :      0.77753
Magnitude (Debye)      :      1.97633

Rotational constants in cm-1:     0.021163     0.008049     0.006846
Rotational constants in MHz :   634.452830   241.300796   205.249058

                             ****ORCA TERMINATED NORMALLY****
TOTAL RUN TIME: 0 days 0 hours 0 minutes 20 seconds 760 msec
