                         Program Version 4.2.1 -  RELEASE  -
|  1> ! wB97X-D3 SP def2-SVP
|  2> %pal
|  3> nprocs 24
|  4> end
|  5>
|  6> * xyz 0 1
|  7> S 	 -110.917 	 62.6792 	 -75.4676
|  8> C 	 -110.088 	 61.2024 	 -74.9943
|  9> C 	 -110.911 	 60.3091 	 -74.2516
| 10> C 	 -112.237 	 60.8972 	 -74.1887
| 11> C 	 -112.477 	 61.915 	 -75.0332
| 12> H 	 -113.099 	 60.6515 	 -73.5887
| 13> C 	 -110.549 	 59.1945 	 -73.3572
| 14> H 	 -110.58 	 58.2269 	 -73.8538
| 15> H 	 -111.405 	 59.0871 	 -72.7239
| 16> C 	 -109.218 	 59.1589 	 -72.5008
| 17> H 	 -109.03 	 58.119 	 -72.2237
| 18> H 	 -108.371 	 59.4347 	 -73.1201
| 19> C 	 -109.278 	 60.0638 	 -71.3061
| 20> H 	 -109.645 	 59.5397 	 -70.4055
| 21> H 	 -108.23 	 60.3098 	 -71.0198
| 22> H 	 -109.815 	 60.9615 	 -71.4846
| 23> S 	 -113.842 	 64.2422 	 -74.2278
| 24> C 	 -115.585 	 64.4122 	 -74.6232
| 25> C 	 -116.063 	 63.2636 	 -75.1439
| 26> C 	 -115.047 	 62.3534 	 -75.4979
| 27> C 	 -113.773 	 62.6892 	 -75.1117
| 28> H 	 -117.072 	 63.0682 	 -75.4054
| 29> C 	 -115.398 	 61.0112 	 -76.1384
| 30> H 	 -116.414 	 60.7862 	 -75.9536
| 31> H 	 -114.795 	 60.2916 	 -75.6066
| 32> C 	 -115.137 	 60.9758 	 -77.6518
| 33> H 	 -115.683 	 61.7313 	 -78.1407
| 34> H 	 -115.615 	 59.9576 	 -78.0164
| 35> C 	 -113.582 	 61.0221 	 -77.946
| 36> H 	 -113.116 	 61.9372 	 -77.7076
| 37> H 	 -113.319 	 60.7252 	 -78.9878
| 38> H 	 -113.056 	 60.3455 	 -77.197
| 39> H 	 -108.955 	 61.1515 	 -75.1662
| 40> H 	 -116.157 	 65.1904 	 -74.1305
| 41> *
| 42>
| 43>                          ****END OF INPUT****

CARTESIAN COORDINATES (ANGSTROEM)
---------------------------------
  S    -110.917000   62.679200  -75.467600
  C    -110.088000   61.202400  -74.994300
  C    -110.911000   60.309100  -74.251600
  C    -112.237000   60.897200  -74.188700
  C    -112.477000   61.915000  -75.033200
  H    -113.099000   60.651500  -73.588700
  C    -110.549000   59.194500  -73.357200
  H    -110.580000   58.226900  -73.853800
  H    -111.405000   59.087100  -72.723900
  C    -109.218000   59.158900  -72.500800
  H    -109.030000   58.119000  -72.223700
  H    -108.371000   59.434700  -73.120100
  C    -109.278000   60.063800  -71.306100
  H    -109.645000   59.539700  -70.405500
  H    -108.230000   60.309800  -71.019800
  H    -109.815000   60.961500  -71.484600
  S    -113.842000   64.242200  -74.227800
  C    -115.585000   64.412200  -74.623200
  C    -116.063000   63.263600  -75.143900
  C    -115.047000   62.353400  -75.497900
  C    -113.773000   62.689200  -75.111700
  H    -117.072000   63.068200  -75.405400
  C    -115.398000   61.011200  -76.138400
  H    -116.414000   60.786200  -75.953600
  H    -114.795000   60.291600  -75.606600
  C    -115.137000   60.975800  -77.651800
  H    -115.683000   61.731300  -78.140700
  H    -115.615000   59.957600  -78.016400
  C    -113.582000   61.022100  -77.946000
  H    -113.116000   61.937200  -77.707600
  H    -113.319000   60.725200  -78.987800
  H    -113.056000   60.345500  -77.197000
  H    -108.955000   61.151500  -75.166200
  H    -116.157000   65.190400  -74.130500

 Total Charge           Charge          ....    0
 Multiplicity           Mult            ....    1
 Number of Electrons    NEL             ....  134
 Basis Dimension        Dim             ....  322

ORBITAL ENERGIES
----------------

  NO   OCC          E(Eh)            E(eV)
   0   2.0000     -88.967030     -2420.9160
   1   2.0000     -88.961026     -2420.7526
   2   2.0000     -10.331507      -281.1346
   3   2.0000     -10.330174      -281.0983
   4   2.0000     -10.329903      -281.0910
   5   2.0000     -10.319417      -280.8056
   6   2.0000     -10.312908      -280.6285
   7   2.0000     -10.297944      -280.2213
   8   2.0000     -10.295679      -280.1597
   9   2.0000     -10.291377      -280.0426
  10   2.0000     -10.291256      -280.0393
  11   2.0000     -10.289930      -280.0032
  12   2.0000     -10.289776      -279.9990
  13   2.0000     -10.283604      -279.8311
  14   2.0000     -10.274848      -279.5928
  15   2.0000     -10.273482      -279.5557
  16   2.0000      -8.081056      -219.8967
  17   2.0000      -8.074964      -219.7309
  18   2.0000      -6.039628      -164.3466
  19   2.0000      -6.035983      -164.2475
  20   2.0000      -6.033568      -164.1817
  21   2.0000      -6.031462      -164.1244
  22   2.0000      -6.029696      -164.0764
  23   2.0000      -6.025543      -163.9634
  24   2.0000      -1.003229       -27.2992
  25   2.0000      -0.983178       -26.7536
  26   2.0000      -0.911662       -24.8076
  27   2.0000      -0.901941       -24.5431
  28   2.0000      -0.867135       -23.5959
  29   2.0000      -0.853820       -23.2336
  30   2.0000      -0.836273       -22.7561
  31   2.0000      -0.816157       -22.2088
  32   2.0000      -0.781103       -21.2549
  33   2.0000      -0.769874       -20.9493
  34   2.0000      -0.709287       -19.3007
  35   2.0000      -0.696494       -18.9526
  36   2.0000      -0.689193       -18.7539
  37   2.0000      -0.664633       -18.0856
  38   2.0000      -0.645727       -17.5711
  39   2.0000      -0.609101       -16.5745
  40   2.0000      -0.595386       -16.2013
  41   2.0000      -0.574718       -15.6389
  42   2.0000      -0.552942       -15.0463
  43   2.0000      -0.548703       -14.9310
  44   2.0000      -0.540903       -14.7187
  45   2.0000      -0.528159       -14.3719
  46   2.0000      -0.518460       -14.1080
  47   2.0000      -0.507383       -13.8066
  48   2.0000      -0.499360       -13.5883
  49   2.0000      -0.494587       -13.4584
  50   2.0000      -0.487686       -13.2706
  51   2.0000      -0.477492       -12.9932
  52   2.0000      -0.471652       -12.8343
  53   2.0000      -0.464202       -12.6316
  54   2.0000      -0.455219       -12.3871
  55   2.0000      -0.442821       -12.0498
  56   2.0000      -0.440147       -11.9770
  57   2.0000      -0.434411       -11.8209
  58   2.0000      -0.430746       -11.7212
  59   2.0000      -0.427781       -11.6405
  60   2.0000      -0.423097       -11.5130
  61   2.0000      -0.417210       -11.3529
  62   2.0000      -0.403953       -10.9921
  63   2.0000      -0.345285        -9.3957
  64   2.0000      -0.329313        -8.9611
  65   2.0000      -0.323191        -8.7945
  66   2.0000      -0.299671        -8.1545
  67   0.0000       0.028948         0.7877
  68   0.0000       0.053099         1.4449
  69   0.0000       0.093413         2.5419
  70   0.0000       0.113280         3.0825
  71   0.0000       0.128673         3.5014

MULLIKEN ATOMIC CHARGES
-----------------------
   0 S :    0.097479
   1 C :   -0.154849
   2 C :   -0.047713
   3 C :    0.025836
   4 C :   -0.184372
   5 H :    0.027717
   6 C :    0.058161
   7 H :    0.030867
   8 H :    0.009458
   9 C :   -0.058277
  10 H :    0.026241
  11 H :    0.025936
  12 C :   -0.044462
  13 H :    0.032554
  14 H :    0.027013
  15 H :    0.041062
  16 S :    0.071873
  17 C :   -0.082480
  18 C :    0.003920
  19 C :   -0.090531
  20 C :   -0.147584
  21 H :    0.007332
  22 C :    0.102861
  23 H :    0.000201
  24 H :    0.017068
  25 C :   -0.063994
  26 H :    0.021606
  27 H :    0.039400
  28 C :   -0.056523
  29 H :    0.031607
  30 H :    0.043291
  31 H :    0.038176
  32 H :    0.085785
  33 H :    0.065342
Sum of atomic charges:   -0.0000000

LOEWDIN ATOMIC CHARGES
----------------------
   0 S :    0.382078
   1 C :   -0.195040
   2 C :   -0.064390
   3 C :   -0.055384
   4 C :   -0.185172
   5 H :    0.035210
   6 C :   -0.040797
   7 H :    0.037202
   8 H :    0.030188
   9 C :   -0.036881
  10 H :    0.027157
  11 H :    0.021678
  12 C :   -0.067004
  13 H :    0.028369
  14 H :    0.030017
  15 H :    0.023179
  16 S :    0.362477
  17 C :   -0.160657
  18 C :   -0.066908
  19 C :   -0.059678
  20 C :   -0.187746
  21 H :    0.028655
  22 C :   -0.025495
  23 H :    0.020702
  24 H :    0.026313
  25 C :   -0.032944
  26 H :    0.014065
  27 H :    0.032747
  28 C :   -0.070146
  29 H :    0.014619
  30 H :    0.028726
  31 H :    0.033977
  32 H :    0.041259
  33 H :    0.029623

  Mayer bond orders larger than 0.100000
B(  0-S ,  1-C ) :   1.1539 B(  0-S ,  4-C ) :   1.1208 B(  1-C ,  2-C ) :   1.5870
B(  1-C , 32-H ) :   0.9579 B(  2-C ,  3-C ) :   1.2018 B(  2-C ,  6-C ) :   1.0409
B(  3-C ,  4-C ) :   1.6451 B(  3-C ,  5-H ) :   0.9779 B(  4-C , 20-C ) :   0.9943
B(  6-C ,  7-H ) :   0.9186 B(  6-C ,  8-H ) :   0.9400 B(  6-C ,  9-C ) :   1.0680
B(  9-C , 10-H ) :   0.9538 B(  9-C , 11-H ) :   0.9603 B(  9-C , 12-C ) :   1.0780
B( 12-C , 13-H ) :   0.9742 B( 12-C , 14-H ) :   0.9741 B( 12-C , 15-H ) :   0.9804
B( 16-S , 17-C ) :   1.1430 B( 16-S , 20-C ) :   1.1261 B( 17-C , 18-C ) :   1.6102
B( 17-C , 33-H ) :   0.9643 B( 18-C , 19-C ) :   1.2616 B( 18-C , 21-H ) :   0.9908
B( 19-C , 20-C ) :   1.6435 B( 19-C , 22-C ) :   1.0207 B( 22-C , 23-H ) :   0.9309
B( 22-C , 24-H ) :   0.9363 B( 22-C , 25-C ) :   1.0768 B( 25-C , 26-H ) :   0.9560
B( 25-C , 27-H ) :   0.9580 B( 25-C , 28-C ) :   1.0634 B( 28-C , 29-H ) :   0.9694
B( 28-C , 30-H ) :   0.9745 B( 28-C , 31-H ) :   0.9706

Dispersion correction           -0.015513968
FINAL SINGLE POINT ENERGY     -1339.851122363631

DIPOLE MOMENT
-------------
                                X             Y             Z
Electronic contribution:     -3.69346      19.41676      -1.69989
Nuclear contribution   :      3.53911     -19.99777       2.10004
                        -----------------------------------------
Total Dipole Moment    :     -0.15435      -0.58100       0.40015
                        -----------------------------------------
Magnitude (a.u.)       :      0.72216
Magnitude (Debye)      :      1.83558

Rotational constants in cm-1:     0.021789     0.008229     0.007336
Rotational constants in MHz :   653.214239   246.711072   219.913024

                             ****ORCA TERMINATED NORMALLY****
TOTAL RUN TIME: 0 days 0 hours 0 minutes 22 seconds 350 msec
