                         Program Version 4.2.1 -  RELEASE  -
|  1> ! wB97X-D3 SP def2-SVP
|  2> %pal
|  3> nprocs 24
|  4> end
|  5>
|  6> * xyz 0 1
|  7> S 	 -84.3914 	 -8.3593 	 -56.9433
|  8> C 	 -86.0202 	 -8.92155 	 -56.6417
|  9> C 	 -86.9683 	 -8.41541 	 -57.6207
| 10> C 	 -86.3065 	 -7.55978 	 -58.5047
| 11> C 	 -84.9416 	 -7.48341 	 -58.4302
| 12> H 	 -86.7683 	 -6.84269 	 -59.2359
| 13> C 	 -88.4121 	 -8.79898 	 -57.5844
| 14> H 	 -88.4837 	 -9.85094 	 -57.3454
| 15> H 	 -88.7802 	 -8.82458 	 -58.6496
| 16> C 	 -89.2822 	 -8.05186 	 -56.5857
| 17> H 	 -88.8849 	 -8.42072 	 -55.7136
| 18> H 	 -89.1057 	 -6.96732 	 -56.4742
| 19> C 	 -90.7911 	 -8.36236 	 -56.6632
| 20> H 	 -91.26 	 -8.32134 	 -57.6841
| 21> H 	 -90.9202 	 -9.38782 	 -56.3711
| 22> H 	 -91.2863 	 -7.71002 	 -55.9478
| 23> S 	 -83.3552 	 -5.25448 	 -58.218
| 24> C 	 -82.8965 	 -4.34262 	 -59.6272
| 25> C 	 -83.1767 	 -5.07367 	 -60.7976
| 26> C 	 -83.9175 	 -6.32858 	 -60.5006
| 27> C 	 -84.0808 	 -6.5315 	 -59.1058
| 28> H 	 -82.931 	 -4.75171 	 -61.8151
| 29> C 	 -84.6861 	 -7.14528 	 -61.5329
| 30> H 	 -85.3254 	 -6.4972 	 -62.0808
| 31> H 	 -85.362 	 -7.80253 	 -60.9725
| 32> C 	 -83.8586 	 -7.96278 	 -62.5903
| 33> H 	 -83.0904 	 -8.65148 	 -62.1728
| 34> H 	 -83.2114 	 -7.30733 	 -63.16
| 35> C 	 -84.734 	 -8.66549 	 -63.6448
| 36> H 	 -85.4162 	 -9.499 	 -63.3612
| 37> H 	 -84.0053 	 -9.01578 	 -64.3848
| 38> H 	 -85.2475 	 -7.90023 	 -64.1823
| 39> H 	 -86.4286 	 -9.55042 	 -55.8949
| 40> H 	 -82.343 	 -3.33448 	 -59.6708
| 41> *
| 42>
| 43>                          ****END OF INPUT****

CARTESIAN COORDINATES (ANGSTROEM)
---------------------------------
  S    -84.391400   -8.359300  -56.943300
  C    -86.020200   -8.921550  -56.641700
  C    -86.968300   -8.415410  -57.620700
  C    -86.306500   -7.559780  -58.504700
  C    -84.941600   -7.483410  -58.430200
  H    -86.768300   -6.842690  -59.235900
  C    -88.412100   -8.798980  -57.584400
  H    -88.483700   -9.850940  -57.345400
  H    -88.780200   -8.824580  -58.649600
  C    -89.282200   -8.051860  -56.585700
  H    -88.884900   -8.420720  -55.713600
  H    -89.105700   -6.967320  -56.474200
  C    -90.791100   -8.362360  -56.663200
  H    -91.260000   -8.321340  -57.684100
  H    -90.920200   -9.387820  -56.371100
  H    -91.286300   -7.710020  -55.947800
  S    -83.355200   -5.254480  -58.218000
  C    -82.896500   -4.342620  -59.627200
  C    -83.176700   -5.073670  -60.797600
  C    -83.917500   -6.328580  -60.500600
  C    -84.080800   -6.531500  -59.105800
  H    -82.931000   -4.751710  -61.815100
  C    -84.686100   -7.145280  -61.532900
  H    -85.325400   -6.497200  -62.080800
  H    -85.362000   -7.802530  -60.972500
  C    -83.858600   -7.962780  -62.590300
  H    -83.090400   -8.651480  -62.172800
  H    -83.211400   -7.307330  -63.160000
  C    -84.734000   -8.665490  -63.644800
  H    -85.416200   -9.499000  -63.361200
  H    -84.005300   -9.015780  -64.384800
  H    -85.247500   -7.900230  -64.182300
  H    -86.428600   -9.550420  -55.894900
  H    -82.343000   -3.334480  -59.670800

 Total Charge           Charge          ....    0
 Multiplicity           Mult            ....    1
 Number of Electrons    NEL             ....  134
 Basis Dimension        Dim             ....  322

ORBITAL ENERGIES
----------------

  NO   OCC          E(Eh)            E(eV)
   0   2.0000     -88.972115     -2421.0543
   1   2.0000     -88.967143     -2420.9190
   2   2.0000     -10.330509      -281.1074
   3   2.0000     -10.327506      -281.0257
   4   2.0000     -10.325969      -280.9839
   5   2.0000     -10.319482      -280.8074
   6   2.0000     -10.309944      -280.5478
   7   2.0000     -10.304638      -280.4034
   8   2.0000     -10.303788      -280.3803
   9   2.0000     -10.297296      -280.2037
  10   2.0000     -10.294708      -280.1332
  11   2.0000     -10.289552      -279.9929
  12   2.0000     -10.288351      -279.9603
  13   2.0000     -10.282551      -279.8024
  14   2.0000     -10.282525      -279.8017
  15   2.0000     -10.277435      -279.6632
  16   2.0000      -8.085275      -220.0115
  17   2.0000      -8.082288      -219.9302
  18   2.0000      -6.043758      -164.4590
  19   2.0000      -6.040882      -164.3808
  20   2.0000      -6.039957      -164.3556
  21   2.0000      -6.036548      -164.2628
  22   2.0000      -6.036206      -164.2535
  23   2.0000      -6.033097      -164.1689
  24   2.0000      -1.002997       -27.2929
  25   2.0000      -0.978185       -26.6178
  26   2.0000      -0.915229       -24.9046
  27   2.0000      -0.900889       -24.5144
  28   2.0000      -0.867446       -23.6044
  29   2.0000      -0.852765       -23.2049
  30   2.0000      -0.845250       -23.0004
  31   2.0000      -0.815386       -22.1878
  32   2.0000      -0.780926       -21.2501
  33   2.0000      -0.764660       -20.8075
  34   2.0000      -0.708480       -19.2787
  35   2.0000      -0.701867       -19.0988
  36   2.0000      -0.695212       -18.9177
  37   2.0000      -0.655084       -17.8257
  38   2.0000      -0.642050       -17.4711
  39   2.0000      -0.615805       -16.7569
  40   2.0000      -0.589869       -16.0511
  41   2.0000      -0.566504       -15.4154
  42   2.0000      -0.558882       -15.2080
  43   2.0000      -0.555822       -15.1247
  44   2.0000      -0.532739       -14.4966
  45   2.0000      -0.523106       -14.2344
  46   2.0000      -0.515876       -14.0377
  47   2.0000      -0.514651       -14.0044
  48   2.0000      -0.504016       -13.7150
  49   2.0000      -0.494548       -13.4573
  50   2.0000      -0.488093       -13.2817
  51   2.0000      -0.475576       -12.9411
  52   2.0000      -0.471147       -12.8206
  53   2.0000      -0.464253       -12.6330
  54   2.0000      -0.461354       -12.5541
  55   2.0000      -0.447176       -12.1683
  56   2.0000      -0.445440       -12.1210
  57   2.0000      -0.442890       -12.0516
  58   2.0000      -0.433575       -11.7982
  59   2.0000      -0.423367       -11.5204
  60   2.0000      -0.418573       -11.3900
  61   2.0000      -0.413426       -11.2499
  62   2.0000      -0.411302       -11.1921
  63   2.0000      -0.349373        -9.5069
  64   2.0000      -0.329497        -8.9661
  65   2.0000      -0.322543        -8.7768
  66   2.0000      -0.290920        -7.9163
  67   0.0000       0.028927         0.7871
  68   0.0000       0.059996         1.6326
  69   0.0000       0.111082         3.0227
  70   0.0000       0.114188         3.1072
  71   0.0000       0.125580         3.4172

MULLIKEN ATOMIC CHARGES
-----------------------
   0 S :    0.115204
   1 C :   -0.085452
   2 C :   -0.112031
   3 C :    0.028918
   4 C :   -0.181017
   5 H :    0.040983
   6 C :    0.046399
   7 H :    0.018290
   8 H :    0.026533
   9 C :   -0.039024
  10 H :   -0.006011
  11 H :    0.034994
  12 C :   -0.035572
  13 H :    0.041952
  14 H :    0.018963
  15 H :    0.041191
  16 S :    0.125923
  17 C :   -0.135387
  18 C :   -0.026578
  19 C :   -0.054579
  20 C :   -0.146425
  21 H :    0.028462
  22 C :    0.078432
  23 H :    0.016039
  24 H :    0.025007
  25 C :   -0.092831
  26 H :    0.036172
  27 H :    0.013405
  28 C :   -0.045816
  29 H :    0.053167
  30 H :    0.027409
  31 H :    0.017583
  32 H :    0.032547
  33 H :    0.093148
Sum of atomic charges:    0.0000000

LOEWDIN ATOMIC CHARGES
----------------------
   0 S :    0.392487
   1 C :   -0.191142
   2 C :   -0.062878
   3 C :   -0.060431
   4 C :   -0.186715
   5 H :    0.044095
   6 C :   -0.038240
   7 H :    0.031217
   8 H :    0.032381
   9 C :   -0.038876
  10 H :    0.013877
  11 H :    0.027861
  12 C :   -0.063530
  13 H :    0.031420
  14 H :    0.021384
  15 H :    0.029674
  16 S :    0.430514
  17 C :   -0.211349
  18 C :   -0.073376
  19 C :   -0.050178
  20 C :   -0.222331
  21 H :    0.031772
  22 C :   -0.033307
  23 H :    0.025378
  24 H :    0.031038
  25 C :   -0.041544
  26 H :    0.027320
  27 H :    0.019684
  28 C :   -0.069223
  29 H :    0.030034
  30 H :    0.030660
  31 H :    0.019586
  32 H :    0.020280
  33 H :    0.052460

  Mayer bond orders larger than 0.100000
B(  0-S ,  1-C ) :   1.1645 B(  0-S ,  4-C ) :   1.1230 B(  1-C ,  2-C ) :   1.5590
B(  1-C ,  4-C ) :   0.1126 B(  1-C , 32-H ) :   0.9672 B(  2-C ,  3-C ) :   1.2866
B(  2-C ,  6-C ) :   1.0314 B(  3-C ,  4-C ) :   1.5698 B(  3-C ,  5-H ) :   0.9738
B(  4-C , 20-C ) :   1.0387 B(  6-C ,  7-H ) :   0.9359 B(  6-C ,  8-H ) :   0.9434
B(  6-C ,  9-C ) :   1.0416 B(  9-C , 10-H ) :   0.9468 B(  9-C , 11-H ) :   0.9628
B(  9-C , 12-C ) :   1.0800 B( 12-C , 13-H ) :   0.9781 B( 12-C , 14-H ) :   0.9724
B( 12-C , 15-H ) :   0.9744 B( 16-S , 17-C ) :   1.1630 B( 16-S , 20-C ) :   1.1498
B( 17-C , 18-C ) :   1.5956 B( 17-C , 33-H ) :   0.9568 B( 18-C , 19-C ) :   1.2458
B( 18-C , 21-H ) :   0.9857 B( 19-C , 20-C ) :   1.5720 B( 19-C , 22-C ) :   1.0487
B( 22-C , 23-H ) :   0.9365 B( 22-C , 24-H ) :   0.9329 B( 22-C , 25-C ) :   1.0509
B( 25-C , 26-H ) :   0.9590 B( 25-C , 27-H ) :   0.9555 B( 25-C , 28-C ) :   1.0830
B( 28-C , 29-H ) :   0.9772 B( 28-C , 30-H ) :   0.9723 B( 28-C , 31-H ) :   0.9718

Dispersion correction           -0.013354165
FINAL SINGLE POINT ENERGY     -1339.860405914417

DIPOLE MOMENT
-------------
                                X             Y             Z
Electronic contribution:     21.34656       9.06643      14.17340
Nuclear contribution   :    -21.90224      -9.02741     -14.52439
                        -----------------------------------------
Total Dipole Moment    :     -0.55568       0.03902      -0.35100
                        -----------------------------------------
Magnitude (a.u.)       :      0.65841
Magnitude (Debye)      :      1.67354

Rotational constants in cm-1:     0.017083     0.007700     0.006313
Rotational constants in MHz :   512.145263   230.841068   189.262696

                             ****ORCA TERMINATED NORMALLY****
TOTAL RUN TIME: 0 days 0 hours 0 minutes 19 seconds 614 msec
