                         Program Version 4.2.1 -  RELEASE  -
|  1> ! wB97X-D3 SP def2-SVP
|  2> %pal
|  3> nprocs 24
|  4> end
|  5>
|  6> * xyz 0 1
|  7> S 	 -43.4562 	 16.9619 	 -103.618
|  8> C 	 -42.6365 	 15.4658 	 -104.126
|  9> C 	 -43.506 	 14.3701 	 -104.082
| 10> C 	 -44.812 	 14.694 	 -103.581
| 11> C 	 -44.9124 	 16.0553 	 -103.283
| 12> H 	 -45.6886 	 14.0564 	 -103.365
| 13> C 	 -43.2449 	 12.8755 	 -104.438
| 14> H 	 -42.322 	 12.948 	 -104.902
| 15> H 	 -43.9215 	 12.4922 	 -105.127
| 16> C 	 -43.2708 	 11.8018 	 -103.28
| 17> H 	 -44.2734 	 11.4818 	 -103.08
| 18> H 	 -42.9092 	 10.8472 	 -103.724
| 19> C 	 -42.392 	 12.1591 	 -102.026
| 20> H 	 -42.2149 	 11.2582 	 -101.453
| 21> H 	 -41.3924 	 12.5596 	 -102.283
| 22> H 	 -42.871 	 12.9048 	 -101.422
| 23> S 	 -46.1342 	 16.7311 	 -100.868
| 24> C 	 -47.7418 	 17.4585 	 -100.916
| 25> C 	 -48.2178 	 17.5835 	 -102.21
| 26> C 	 -47.2192 	 17.1418 	 -103.183
| 27> C 	 -46.0683 	 16.6497 	 -102.631
| 28> H 	 -49.1669 	 17.9586 	 -102.374
| 29> C 	 -47.7245 	 17.105 	 -104.602
| 30> H 	 -48.8054 	 16.9076 	 -104.536
| 31> H 	 -47.1636 	 16.3073 	 -105.056
| 32> C 	 -47.4467 	 18.341 	 -105.424
| 33> H 	 -46.376 	 18.4338 	 -105.593
| 34> H 	 -47.695 	 19.2627 	 -104.828
| 35> C 	 -48.332 	 18.2993 	 -106.722
| 36> H 	 -49.4094 	 18.6526 	 -106.577
| 37> H 	 -48.4913 	 17.2709 	 -106.993
| 38> H 	 -47.8756 	 18.8133 	 -107.555
| 39> H 	 -41.6504 	 15.4494 	 -104.43
| 40> H 	 -48.4031 	 17.6131 	 -100.099
| 41> *
| 42>
| 43>                          ****END OF INPUT****

CARTESIAN COORDINATES (ANGSTROEM)
---------------------------------
  S    -43.456200   16.961900  -103.618000
  C    -42.636500   15.465800  -104.126000
  C    -43.506000   14.370100  -104.082000
  C    -44.812000   14.694000  -103.581000
  C    -44.912400   16.055300  -103.283000
  H    -45.688600   14.056400  -103.365000
  C    -43.244900   12.875500  -104.438000
  H    -42.322000   12.948000  -104.902000
  H    -43.921500   12.492200  -105.127000
  C    -43.270800   11.801800  -103.280000
  H    -44.273400   11.481800  -103.080000
  H    -42.909200   10.847200  -103.724000
  C    -42.392000   12.159100  -102.026000
  H    -42.214900   11.258200  -101.453000
  H    -41.392400   12.559600  -102.283000
  H    -42.871000   12.904800  -101.422000
  S    -46.134200   16.731100  -100.868000
  C    -47.741800   17.458500  -100.916000
  C    -48.217800   17.583500  -102.210000
  C    -47.219200   17.141800  -103.183000
  C    -46.068300   16.649700  -102.631000
  H    -49.166900   17.958600  -102.374000
  C    -47.724500   17.105000  -104.602000
  H    -48.805400   16.907600  -104.536000
  H    -47.163600   16.307300  -105.056000
  C    -47.446700   18.341000  -105.424000
  H    -46.376000   18.433800  -105.593000
  H    -47.695000   19.262700  -104.828000
  C    -48.332000   18.299300  -106.722000
  H    -49.409400   18.652600  -106.577000
  H    -48.491300   17.270900  -106.993000
  H    -47.875600   18.813300  -107.555000
  H    -41.650400   15.449400  -104.430000
  H    -48.403100   17.613100  -100.099000

 Total Charge           Charge          ....    0
 Multiplicity           Mult            ....    1
 Number of Electrons    NEL             ....  134
 Basis Dimension        Dim             ....  322

ORBITAL ENERGIES
----------------

  NO   OCC          E(Eh)            E(eV)
   0   2.0000     -88.970622     -2421.0137
   1   2.0000     -88.963119     -2420.8095
   2   2.0000     -10.328507      -281.0530
   3   2.0000     -10.322386      -280.8864
   4   2.0000     -10.317578      -280.7556
   5   2.0000     -10.315294      -280.6934
   6   2.0000     -10.308725      -280.5147
   7   2.0000     -10.299295      -280.2581
   8   2.0000     -10.298004      -280.2229
   9   2.0000     -10.293452      -280.0991
  10   2.0000     -10.288298      -279.9588
  11   2.0000     -10.286757      -279.9169
  12   2.0000     -10.286376      -279.9065
  13   2.0000     -10.284587      -279.8579
  14   2.0000     -10.280460      -279.7456
  15   2.0000     -10.277548      -279.6663
  16   2.0000      -8.084656      -219.9947
  17   2.0000      -8.077445      -219.7984
  18   2.0000      -6.043159      -164.4427
  19   2.0000      -6.039271      -164.3369
  20   2.0000      -6.036132      -164.2515
  21   2.0000      -6.035467      -164.2334
  22   2.0000      -6.032045      -164.1403
  23   2.0000      -6.028007      -164.0304
  24   2.0000      -1.001383       -27.2490
  25   2.0000      -0.977722       -26.6052
  26   2.0000      -0.907789       -24.7022
  27   2.0000      -0.901776       -24.5386
  28   2.0000      -0.866788       -23.5865
  29   2.0000      -0.843960       -22.9653
  30   2.0000      -0.842505       -22.9257
  31   2.0000      -0.812472       -22.1085
  32   2.0000      -0.785231       -21.3672
  33   2.0000      -0.769323       -20.9343
  34   2.0000      -0.709979       -19.3195
  35   2.0000      -0.703153       -19.1338
  36   2.0000      -0.691672       -18.8214
  37   2.0000      -0.666322       -18.1315
  38   2.0000      -0.645411       -17.5625
  39   2.0000      -0.613361       -16.6904
  40   2.0000      -0.590068       -16.0566
  41   2.0000      -0.568805       -15.4780
  42   2.0000      -0.559214       -15.2170
  43   2.0000      -0.549810       -14.9611
  44   2.0000      -0.537377       -14.6228
  45   2.0000      -0.522803       -14.2262
  46   2.0000      -0.517606       -14.0848
  47   2.0000      -0.506347       -13.7784
  48   2.0000      -0.505758       -13.7624
  49   2.0000      -0.498948       -13.5771
  50   2.0000      -0.488639       -13.2965
  51   2.0000      -0.477241       -12.9864
  52   2.0000      -0.468263       -12.7421
  53   2.0000      -0.457367       -12.4456
  54   2.0000      -0.456517       -12.4225
  55   2.0000      -0.452319       -12.3082
  56   2.0000      -0.444994       -12.1089
  57   2.0000      -0.439697       -11.9648
  58   2.0000      -0.436866       -11.8877
  59   2.0000      -0.428520       -11.6606
  60   2.0000      -0.418561       -11.3896
  61   2.0000      -0.410257       -11.1637
  62   2.0000      -0.404839       -11.0162
  63   2.0000      -0.336875        -9.1668
  64   2.0000      -0.326056        -8.8724
  65   2.0000      -0.319608        -8.6970
  66   2.0000      -0.313678        -8.5356
  67   0.0000       0.044372         1.2074
  68   0.0000       0.054138         1.4732
  69   0.0000       0.110711         3.0126
  70   0.0000       0.116112         3.1596
  71   0.0000       0.125617         3.4182

MULLIKEN ATOMIC CHARGES
-----------------------
   0 S :    0.122837
   1 C :   -0.104539
   2 C :   -0.092820
   3 C :    0.035585
   4 C :   -0.195925
   5 H :    0.034949
   6 C :    0.138996
   7 H :   -0.005490
   8 H :    0.017202
   9 C :   -0.089446
  10 H :    0.019884
  11 H :    0.024488
  12 C :   -0.041011
  13 H :    0.034019
  14 H :    0.029874
  15 H :    0.043868
  16 S :    0.106782
  17 C :   -0.074260
  18 C :   -0.021327
  19 C :   -0.021278
  20 C :   -0.181809
  21 H :   -0.005160
  22 C :    0.074461
  23 H :    0.029223
  24 H :    0.020404
  25 C :   -0.079654
  26 H :    0.031390
  27 H :    0.030788
  28 C :   -0.049199
  29 H :    0.041153
  30 H :    0.020699
  31 H :    0.039088
  32 H :    0.020469
  33 H :    0.045759
Sum of atomic charges:    0.0000000

LOEWDIN ATOMIC CHARGES
----------------------
   0 S :    0.403232
   1 C :   -0.180200
   2 C :   -0.054586
   3 C :   -0.058157
   4 C :   -0.199914
   5 H :    0.042067
   6 C :   -0.019008
   7 H :    0.017160
   8 H :    0.025205
   9 C :   -0.038178
  10 H :    0.018241
  11 H :    0.028452
  12 C :   -0.064196
  13 H :    0.025858
  14 H :    0.028215
  15 H :    0.025501
  16 S :    0.388955
  17 C :   -0.171814
  18 C :   -0.061482
  19 C :   -0.048296
  20 C :   -0.209432
  21 H :    0.018811
  22 C :   -0.032875
  23 H :    0.032743
  24 H :    0.028926
  25 C :   -0.040953
  26 H :    0.024729
  27 H :    0.025248
  28 C :   -0.069407
  29 H :    0.034238
  30 H :    0.019930
  31 H :    0.024692
  32 H :    0.011807
  33 H :    0.024484

  Mayer bond orders larger than 0.100000
B(  0-S ,  1-C ) :   1.1316 B(  0-S ,  4-C ) :   1.1571 B(  1-C ,  2-C ) :   1.6151
B(  1-C , 32-H ) :   0.9784 B(  2-C ,  3-C ) :   1.2113 B(  2-C ,  6-C ) :   1.0192
B(  3-C ,  4-C ) :   1.5958 B(  3-C ,  5-H ) :   0.9883 B(  4-C , 20-C ) :   1.0179
B(  6-C ,  7-H ) :   0.9350 B(  6-C ,  8-H ) :   0.9407 B(  6-C ,  9-C ) :   1.0719
B(  9-C , 10-H ) :   0.9567 B(  9-C , 11-H ) :   0.9560 B(  9-C , 12-C ) :   1.0626
B( 12-C , 13-H ) :   0.9769 B( 12-C , 14-H ) :   0.9787 B( 12-C , 15-H ) :   0.9761
B( 16-S , 17-C ) :   1.1452 B( 16-S , 20-C ) :   1.1135 B( 17-C , 18-C ) :   1.6465
B( 17-C , 33-H ) :   0.9659 B( 18-C , 19-C ) :   1.2003 B( 18-C , 21-H ) :   0.9984
B( 19-C , 20-C ) :   1.6498 B( 19-C , 22-C ) :   1.0383 B( 22-C , 23-H ) :   0.9460
B( 22-C , 24-H ) :   0.9148 B( 22-C , 25-C ) :   1.0709 B( 25-C , 26-H ) :   0.9544
B( 25-C , 27-H ) :   0.9618 B( 25-C , 28-C ) :   1.0612 B( 28-C , 29-H ) :   0.9755
B( 28-C , 30-H ) :   0.9744 B( 28-C , 31-H ) :   0.9766

Dispersion correction           -0.014434483
FINAL SINGLE POINT ENERGY     -1339.867882997431

DIPOLE MOMENT
-------------
                                X             Y             Z
Electronic contribution:      3.79932      11.13158      13.02658
Nuclear contribution   :     -4.07276     -11.59458     -13.32528
                        -----------------------------------------
Total Dipole Moment    :     -0.27344      -0.46301      -0.29870
                        -----------------------------------------
Magnitude (a.u.)       :      0.61512
Magnitude (Debye)      :      1.56350

Rotational constants in cm-1:     0.018953     0.008207     0.006958
Rotational constants in MHz :   568.184493   246.039948   208.603943

                             ****ORCA TERMINATED NORMALLY****
TOTAL RUN TIME: 0 days 0 hours 0 minutes 21 seconds 301 msec
