                         Program Version 4.2.1 -  RELEASE  -
|  1> ! wB97X-D3 SP def2-SVP
|  2> %pal
|  3> nprocs 24
|  4> end
|  5>
|  6> * xyz 0 1
|  7> S 	 -48.2589 	 24.4102 	 29.1691
|  8> C 	 -47.1467 	 25.7884 	 29.2201
|  9> C 	 -45.9094 	 25.3405 	 28.8033
| 10> C 	 -45.8095 	 23.9417 	 28.7736
| 11> C 	 -46.9714 	 23.2138 	 29.0526
| 12> H 	 -44.8708 	 23.4139 	 28.473
| 13> C 	 -44.5997 	 26.0952 	 28.4795
| 14> H 	 -43.8015 	 25.3625 	 28.4283
| 15> H 	 -44.3303 	 26.6852 	 29.2987
| 16> C 	 -44.8172 	 26.9743 	 27.2057
| 17> H 	 -45.255 	 26.2111 	 26.4779
| 18> H 	 -45.5907 	 27.7757 	 27.1812
| 19> C 	 -43.452 	 27.5019 	 26.7999
| 20> H 	 -42.68 	 26.69 	 26.7376
| 21> H 	 -43.5139 	 28.0907 	 25.9196
| 22> H 	 -43.0924 	 28.1965 	 27.5488
| 23> S 	 -48.4987 	 21.0791 	 28.3195
| 24> C 	 -48.1414 	 19.4987 	 29.04
| 25> C 	 -47.0243 	 19.5289 	 29.8799
| 26> C 	 -46.4375 	 20.834 	 29.9865
| 27> C 	 -47.138 	 21.7964 	 29.2524
| 28> H 	 -46.7753 	 18.66 	 30.4483
| 29> C 	 -45.2872 	 21.0798 	 30.9371
| 30> H 	 -44.6047 	 21.8822 	 30.5983
| 31> H 	 -44.7336 	 20.15 	 30.8892
| 32> C 	 -45.6703 	 21.3816 	 32.3876
| 33> H 	 -46.1473 	 20.4742 	 32.8208
| 34> H 	 -46.2594 	 22.2535 	 32.4319
| 35> C 	 -44.4717 	 21.6527 	 33.2523
| 36> H 	 -44.0252 	 22.6346 	 33.112
| 37> H 	 -43.7799 	 20.8336 	 33.112
| 38> H 	 -44.6277 	 21.5476 	 34.3541
| 39> H 	 -47.5114 	 26.8035 	 29.2909
| 40> H 	 -48.6938 	 18.5225 	 28.9316
| 41> *
| 42>
| 43>                          ****END OF INPUT****

CARTESIAN COORDINATES (ANGSTROEM)
---------------------------------
  S    -48.258900   24.410200   29.169100
  C    -47.146700   25.788400   29.220100
  C    -45.909400   25.340500   28.803300
  C    -45.809500   23.941700   28.773600
  C    -46.971400   23.213800   29.052600
  H    -44.870800   23.413900   28.473000
  C    -44.599700   26.095200   28.479500
  H    -43.801500   25.362500   28.428300
  H    -44.330300   26.685200   29.298700
  C    -44.817200   26.974300   27.205700
  H    -45.255000   26.211100   26.477900
  H    -45.590700   27.775700   27.181200
  C    -43.452000   27.501900   26.799900
  H    -42.680000   26.690000   26.737600
  H    -43.513900   28.090700   25.919600
  H    -43.092400   28.196500   27.548800
  S    -48.498700   21.079100   28.319500
  C    -48.141400   19.498700   29.040000
  C    -47.024300   19.528900   29.879900
  C    -46.437500   20.834000   29.986500
  C    -47.138000   21.796400   29.252400
  H    -46.775300   18.660000   30.448300
  C    -45.287200   21.079800   30.937100
  H    -44.604700   21.882200   30.598300
  H    -44.733600   20.150000   30.889200
  C    -45.670300   21.381600   32.387600
  H    -46.147300   20.474200   32.820800
  H    -46.259400   22.253500   32.431900
  C    -44.471700   21.652700   33.252300
  H    -44.025200   22.634600   33.112000
  H    -43.779900   20.833600   33.112000
  H    -44.627700   21.547600   34.354100
  H    -47.511400   26.803500   29.290900
  H    -48.693800   18.522500   28.931600

 Total Charge           Charge          ....    0
 Multiplicity           Mult            ....    1
 Number of Electrons    NEL             ....  134
 Basis Dimension        Dim             ....  322

ORBITAL ENERGIES
----------------

  NO   OCC          E(Eh)            E(eV)
   0   2.0000     -88.968745     -2420.9626
   1   2.0000     -88.963455     -2420.8187
   2   2.0000     -10.332197      -281.1534
   3   2.0000     -10.331095      -281.1234
   4   2.0000     -10.325336      -280.9667
   5   2.0000     -10.317683      -280.7584
   6   2.0000     -10.308465      -280.5076
   7   2.0000     -10.299707      -280.2693
   8   2.0000     -10.295749      -280.1616
   9   2.0000     -10.295727      -280.1610
  10   2.0000     -10.293104      -280.0896
  11   2.0000     -10.291804      -280.0542
  12   2.0000     -10.291639      -280.0497
  13   2.0000     -10.281100      -279.7629
  14   2.0000     -10.277401      -279.6623
  15   2.0000     -10.274887      -279.5939
  16   2.0000      -8.082252      -219.9293
  17   2.0000      -8.077774      -219.8074
  18   2.0000      -6.040904      -164.3814
  19   2.0000      -6.036969      -164.2743
  20   2.0000      -6.036415      -164.2592
  21   2.0000      -6.032893      -164.1634
  22   2.0000      -6.032281      -164.1467
  23   2.0000      -6.028471      -164.0430
  24   2.0000      -1.002255       -27.2728
  25   2.0000      -0.979017       -26.6404
  26   2.0000      -0.912911       -24.8416
  27   2.0000      -0.909531       -24.7496
  28   2.0000      -0.869002       -23.6468
  29   2.0000      -0.853404       -23.2223
  30   2.0000      -0.845046       -22.9949
  31   2.0000      -0.809501       -22.0276
  32   2.0000      -0.780248       -21.2316
  33   2.0000      -0.770318       -20.9614
  34   2.0000      -0.708370       -19.2757
  35   2.0000      -0.701217       -19.0811
  36   2.0000      -0.689816       -18.7709
  37   2.0000      -0.663102       -18.0439
  38   2.0000      -0.640524       -17.4295
  39   2.0000      -0.619189       -16.8490
  40   2.0000      -0.590215       -16.0606
  41   2.0000      -0.578092       -15.7307
  42   2.0000      -0.566156       -15.4059
  43   2.0000      -0.557842       -15.1797
  44   2.0000      -0.525598       -14.3023
  45   2.0000      -0.522727       -14.2241
  46   2.0000      -0.517685       -14.0869
  47   2.0000      -0.507836       -13.8189
  48   2.0000      -0.505170       -13.7464
  49   2.0000      -0.498683       -13.5698
  50   2.0000      -0.492626       -13.4050
  51   2.0000      -0.482791       -13.1374
  52   2.0000      -0.470326       -12.7982
  53   2.0000      -0.464635       -12.6434
  54   2.0000      -0.458089       -12.4652
  55   2.0000      -0.453409       -12.3379
  56   2.0000      -0.448356       -12.2004
  57   2.0000      -0.435756       -11.8575
  58   2.0000      -0.430965       -11.7272
  59   2.0000      -0.421221       -11.4620
  60   2.0000      -0.415993       -11.3197
  61   2.0000      -0.415657       -11.3106
  62   2.0000      -0.404934       -11.0188
  63   2.0000      -0.346577        -9.4308
  64   2.0000      -0.333413        -9.0726
  65   2.0000      -0.328608        -8.9419
  66   2.0000      -0.286758        -7.8031
  67   0.0000       0.020671         0.5625
  68   0.0000       0.063560         1.7296
  69   0.0000       0.101285         2.7561
  70   0.0000       0.122912         3.3446
  71   0.0000       0.131772         3.5857

MULLIKEN ATOMIC CHARGES
-----------------------
   0 S :    0.096041
   1 C :   -0.133151
   2 C :   -0.080841
   3 C :   -0.007552
   4 C :   -0.135636
   5 H :    0.030812
   6 C :    0.101005
   7 H :    0.015486
   8 H :    0.017854
   9 C :   -0.126309
  10 H :    0.042306
  11 H :    0.043341
  12 C :   -0.014186
  13 H :    0.035208
  14 H :    0.026535
  15 H :    0.021453
  16 S :    0.100509
  17 C :   -0.100438
  18 C :   -0.048622
  19 C :   -0.010898
  20 C :   -0.159672
  21 H :    0.014922
  22 C :    0.052533
  23 H :    0.022726
  24 H :    0.015282
  25 C :   -0.030699
  26 H :    0.027457
  27 H :    0.031170
  28 C :   -0.058361
  29 H :    0.038402
  30 H :    0.013504
  31 H :    0.032280
  32 H :    0.053148
  33 H :    0.074389
Sum of atomic charges:    0.0000000

LOEWDIN ATOMIC CHARGES
----------------------
   0 S :    0.393254
   1 C :   -0.189149
   2 C :   -0.065364
   3 C :   -0.075831
   4 C :   -0.197820
   5 H :    0.035427
   6 C :   -0.018425
   7 H :    0.029092
   8 H :    0.021104
   9 C :   -0.046450
  10 H :    0.031325
  11 H :    0.029259
  12 C :   -0.066820
  13 H :    0.030511
  14 H :    0.020042
  15 H :    0.024182
  16 S :    0.380410
  17 C :   -0.186353
  18 C :   -0.070388
  19 C :   -0.049245
  20 C :   -0.179991
  21 H :    0.029127
  22 C :   -0.032503
  23 H :    0.031157
  24 H :    0.028822
  25 C :   -0.033912
  26 H :    0.029115
  27 H :    0.022525
  28 C :   -0.071089
  29 H :    0.024152
  30 H :    0.020635
  31 H :    0.031402
  32 H :    0.028382
  33 H :    0.043417

  Mayer bond orders larger than 0.100000
B(  0-S ,  1-C ) :   1.1395 B(  0-S ,  4-C ) :   1.1519 B(  1-C ,  2-C ) :   1.5682
B(  1-C ,  4-C ) :   0.1143 B(  1-C , 32-H ) :   0.9781 B(  2-C ,  3-C ) :   1.2799
B(  2-C ,  6-C ) :   1.0065 B(  3-C ,  4-C ) :   1.5378 B(  3-C ,  5-H ) :   0.9837
B(  4-C , 20-C ) :   1.0664 B(  6-C ,  7-H ) :   0.9511 B(  6-C ,  8-H ) :   0.9373
B(  6-C ,  9-C ) :   1.0330 B(  9-C , 10-H ) :   0.9596 B(  9-C , 11-H ) :   0.9594
B(  9-C , 12-C ) :   1.0825 B( 12-C , 13-H ) :   0.9740 B( 12-C , 14-H ) :   0.9722
B( 12-C , 15-H ) :   0.9699 B( 16-S , 17-C ) :   1.1405 B( 16-S , 20-C ) :   1.1226
B( 17-C , 18-C ) :   1.6382 B( 17-C , 20-C ) :   0.1020 B( 17-C , 33-H ) :   0.9567
B( 18-C , 19-C ) :   1.2219 B( 18-C , 21-H ) :   0.9880 B( 19-C , 20-C ) :   1.6025
B( 19-C , 22-C ) :   1.0501 B( 22-C , 23-H ) :   0.9351 B( 22-C , 24-H ) :   0.9226
B( 22-C , 25-C ) :   1.0773 B( 25-C , 26-H ) :   0.9507 B( 25-C , 27-H ) :   0.9559
B( 25-C , 28-C ) :   1.0912 B( 28-C , 29-H ) :   0.9743 B( 28-C , 30-H ) :   0.9699
B( 28-C , 31-H ) :   0.9722

Dispersion correction           -0.013614665
FINAL SINGLE POINT ENERGY     -1339.866604643925

DIPOLE MOMENT
-------------
                                X             Y             Z
Electronic contribution:    -24.26439      -9.53833      -7.40954
Nuclear contribution   :     24.89419       9.60214       7.64263
                        -----------------------------------------
Total Dipole Moment    :      0.62980       0.06381       0.23310
                        -----------------------------------------
Magnitude (a.u.)       :      0.67458
Magnitude (Debye)      :      1.71464

Rotational constants in cm-1:     0.018339     0.007926     0.006461
Rotational constants in MHz :   549.783720   237.602311   193.692743

                             ****ORCA TERMINATED NORMALLY****
TOTAL RUN TIME: 0 days 0 hours 0 minutes 21 seconds 170 msec
