                         Program Version 4.2.1 -  RELEASE  -
|  1> ! wB97X-D3 SP def2-SVP
|  2> %pal
|  3> nprocs 24
|  4> end
|  5>
|  6> * xyz 0 1
|  7> S 	 0.132952 	 -24.7934 	 -113.222
|  8> C 	 -0.171206 	 -26.0132 	 -114.452
|  9> C 	 -0.680815 	 -25.4864 	 -115.616
| 10> C 	 -0.837847 	 -24.0881 	 -115.525
| 11> C 	 -0.421538 	 -23.5311 	 -114.321
| 12> H 	 -1.20569 	 -23.4722 	 -116.324
| 13> C 	 -0.923403 	 -26.2855 	 -116.942
| 14> H 	 0.0994229 	 -26.4461 	 -117.331
| 15> H 	 -1.37548 	 -25.6727 	 -117.667
| 16> C 	 -1.66812 	 -27.6064 	 -116.696
| 17> H 	 -1.01015 	 -28.2966 	 -116.057
| 18> H 	 -2.55805 	 -27.4557 	 -116.008
| 19> C 	 -1.98737 	 -28.1706 	 -118.016
| 20> H 	 -1.17301 	 -28.4813 	 -118.66
| 21> H 	 -2.65588 	 -29.0356 	 -117.957
| 22> H 	 -2.54861 	 -27.4773 	 -118.572
| 23> S 	 -1.51909 	 -21.0828 	 -114.685
| 24> C 	 -0.899952 	 -19.7139 	 -113.833
| 25> C 	 0.440834 	 -19.9265 	 -113.53
| 26> C 	 0.71051 	 -21.3369 	 -113.491
| 27> C 	 -0.321183 	 -22.1289 	 -114.012
| 28> H 	 1.11182 	 -19.0831 	 -113.188
| 29> C 	 2.004 	 -21.7246 	 -112.956
| 30> H 	 2.68783 	 -20.8884 	 -113.026
| 31> H 	 2.44068 	 -22.5682 	 -113.471
| 32> C 	 1.93713 	 -21.9683 	 -111.408
| 33> H 	 1.50097 	 -23.017 	 -111.376
| 34> H 	 1.23311 	 -21.3091 	 -110.803
| 35> C 	 3.15583 	 -21.8728 	 -110.621
| 36> H 	 3.15596 	 -22.5684 	 -109.761
| 37> H 	 3.32032 	 -20.8626 	 -110.287
| 38> H 	 3.89864 	 -22.0947 	 -111.25
| 39> H 	 0.0869236 	 -27.0083 	 -114.398
| 40> H 	 -1.19436 	 -18.7348 	 -113.854
| 41> *
| 42>
| 43>                          ****END OF INPUT****

CARTESIAN COORDINATES (ANGSTROEM)
---------------------------------
  S      0.132952  -24.793400  -113.222000
  C     -0.171206  -26.013200  -114.452000
  C     -0.680815  -25.486400  -115.616000
  C     -0.837847  -24.088100  -115.525000
  C     -0.421538  -23.531100  -114.321000
  H     -1.205690  -23.472200  -116.324000
  C     -0.923403  -26.285500  -116.942000
  H      0.099423  -26.446100  -117.331000
  H     -1.375480  -25.672700  -117.667000
  C     -1.668120  -27.606400  -116.696000
  H     -1.010150  -28.296600  -116.057000
  H     -2.558050  -27.455700  -116.008000
  C     -1.987370  -28.170600  -118.016000
  H     -1.173010  -28.481300  -118.660000
  H     -2.655880  -29.035600  -117.957000
  H     -2.548610  -27.477300  -118.572000
  S     -1.519090  -21.082800  -114.685000
  C     -0.899952  -19.713900  -113.833000
  C      0.440834  -19.926500  -113.530000
  C      0.710510  -21.336900  -113.491000
  C     -0.321183  -22.128900  -114.012000
  H      1.111820  -19.083100  -113.188000
  C      2.004000  -21.724600  -112.956000
  H      2.687830  -20.888400  -113.026000
  H      2.440680  -22.568200  -113.471000
  C      1.937130  -21.968300  -111.408000
  H      1.500970  -23.017000  -111.376000
  H      1.233110  -21.309100  -110.803000
  C      3.155830  -21.872800  -110.621000
  H      3.155960  -22.568400  -109.761000
  H      3.320320  -20.862600  -110.287000
  H      3.898640  -22.094700  -111.250000
  H      0.086924  -27.008300  -114.398000
  H     -1.194360  -18.734800  -113.854000

 Total Charge           Charge          ....    0
 Multiplicity           Mult            ....    1
 Number of Electrons    NEL             ....  134
 Basis Dimension        Dim             ....  322

ORBITAL ENERGIES
----------------

  NO   OCC          E(Eh)            E(eV)
   0   2.0000     -88.969899     -2420.9940
   1   2.0000     -88.963993     -2420.8333
   2   2.0000     -10.330703      -281.1127
   3   2.0000     -10.324042      -280.9315
   4   2.0000     -10.308737      -280.5150
   5   2.0000     -10.304500      -280.3997
   6   2.0000     -10.300926      -280.3024
   7   2.0000     -10.298180      -280.2277
   8   2.0000     -10.297471      -280.2084
   9   2.0000     -10.295823      -280.1636
  10   2.0000     -10.294256      -280.1209
  11   2.0000     -10.289217      -279.9838
  12   2.0000     -10.285132      -279.8727
  13   2.0000     -10.283106      -279.8175
  14   2.0000     -10.271674      -279.5065
  15   2.0000     -10.260579      -279.2045
  16   2.0000      -8.083467      -219.9623
  17   2.0000      -8.079396      -219.8515
  18   2.0000      -6.042100      -164.4139
  19   2.0000      -6.038129      -164.3059
  20   2.0000      -6.038012      -164.3027
  21   2.0000      -6.034199      -164.1989
  22   2.0000      -6.034017      -164.1939
  23   2.0000      -6.029804      -164.0793
  24   2.0000      -1.010426       -27.4951
  25   2.0000      -0.985720       -26.8228
  26   2.0000      -0.916942       -24.9513
  27   2.0000      -0.916188       -24.9307
  28   2.0000      -0.874063       -23.7845
  29   2.0000      -0.862037       -23.4572
  30   2.0000      -0.850567       -23.1451
  31   2.0000      -0.813403       -22.1338
  32   2.0000      -0.784585       -21.3496
  33   2.0000      -0.770910       -20.9775
  34   2.0000      -0.711825       -19.3697
  35   2.0000      -0.701075       -19.0772
  36   2.0000      -0.685717       -18.6593
  37   2.0000      -0.668840       -18.2001
  38   2.0000      -0.637441       -17.3456
  39   2.0000      -0.613973       -16.7070
  40   2.0000      -0.599206       -16.3052
  41   2.0000      -0.575338       -15.6557
  42   2.0000      -0.564243       -15.3538
  43   2.0000      -0.561682       -15.2841
  44   2.0000      -0.535638       -14.5755
  45   2.0000      -0.526555       -14.3283
  46   2.0000      -0.523000       -14.2316
  47   2.0000      -0.517692       -14.0871
  48   2.0000      -0.513463       -13.9720
  49   2.0000      -0.504015       -13.7149
  50   2.0000      -0.493695       -13.4341
  51   2.0000      -0.480624       -13.0784
  52   2.0000      -0.476892       -12.9769
  53   2.0000      -0.465757       -12.6739
  54   2.0000      -0.458932       -12.4882
  55   2.0000      -0.457935       -12.4611
  56   2.0000      -0.450020       -12.2457
  57   2.0000      -0.437868       -11.9150
  58   2.0000      -0.426152       -11.5962
  59   2.0000      -0.421962       -11.4822
  60   2.0000      -0.415565       -11.3081
  61   2.0000      -0.413191       -11.2435
  62   2.0000      -0.395545       -10.7633
  63   2.0000      -0.354262        -9.6400
  64   2.0000      -0.333490        -9.0747
  65   2.0000      -0.321728        -8.7547
  66   2.0000      -0.281162        -7.6508
  67   0.0000       0.023465         0.6385
  68   0.0000       0.071156         1.9363
  69   0.0000       0.097895         2.6639
  70   0.0000       0.120269         3.2727
  71   0.0000       0.134694         3.6652

MULLIKEN ATOMIC CHARGES
-----------------------
   0 S :    0.110396
   1 C :   -0.097263
   2 C :   -0.076153
   3 C :   -0.000744
   4 C :   -0.134763
   5 H :    0.005297
   6 C :    0.081594
   7 H :    0.046360
   8 H :    0.004042
   9 C :   -0.120925
  10 H :    0.036801
  11 H :    0.051012
  12 C :    0.003981
  13 H :    0.029344
  14 H :    0.024532
  15 H :    0.010846
  16 S :    0.100648
  17 C :   -0.030854
  18 C :   -0.080609
  19 C :   -0.051588
  20 C :   -0.119283
  21 H :    0.048154
  22 C :    0.080602
  23 H :    0.007127
  24 H :    0.032324
  25 C :   -0.150882
  26 H :    0.028035
  27 H :    0.038730
  28 C :    0.040712
  29 H :    0.039397
  30 H :    0.022606
  31 H :   -0.010696
  32 H :    0.009063
  33 H :    0.022159
Sum of atomic charges:    0.0000000

LOEWDIN ATOMIC CHARGES
----------------------
   0 S :    0.410402
   1 C :   -0.192328
   2 C :   -0.055054
   3 C :   -0.073605
   4 C :   -0.183059
   5 H :    0.024085
   6 C :   -0.021706
   7 H :    0.039973
   8 H :    0.018899
   9 C :   -0.049008
  10 H :    0.028186
  11 H :    0.035540
  12 C :   -0.066343
  13 H :    0.028082
  14 H :    0.027544
  15 H :    0.019737
  16 S :    0.427269
  17 C :   -0.179469
  18 C :   -0.066792
  19 C :   -0.052779
  20 C :   -0.208183
  21 H :    0.042709
  22 C :   -0.035346
  23 H :    0.026823
  24 H :    0.027734
  25 C :   -0.050152
  26 H :    0.017640
  27 H :    0.030679
  28 C :   -0.058840
  29 H :    0.037099
  30 H :    0.024121
  31 H :    0.005713
  32 H :    0.008772
  33 H :    0.011658

  Mayer bond orders larger than 0.100000
B(  0-S ,  1-C ) :   1.1244 B(  0-S ,  4-C ) :   1.1482 B(  1-C ,  2-C ) :   1.6174
B(  1-C , 32-H ) :   0.9741 B(  2-C ,  3-C ) :   1.2773 B(  2-C ,  6-C ) :   0.9994
B(  3-C ,  4-C ) :   1.5489 B(  3-C ,  5-H ) :   0.9878 B(  4-C , 20-C ) :   1.0767
B(  6-C ,  7-H ) :   0.9349 B(  6-C ,  8-H ) :   0.9508 B(  6-C ,  9-C ) :   1.0537
B(  9-C , 10-H ) :   0.9471 B(  9-C , 11-H ) :   0.9601 B(  9-C , 12-C ) :   1.0931
B( 12-C , 13-H ) :   0.9689 B( 12-C , 14-H ) :   0.9675 B( 12-C , 15-H ) :   0.9687
B( 16-S , 17-C ) :   1.1655 B( 16-S , 20-C ) :   1.1330 B( 17-C , 18-C ) :   1.6009
B( 17-C , 33-H ) :   0.9728 B( 18-C , 19-C ) :   1.2579 B( 18-C , 21-H ) :   0.9758
B( 19-C , 20-C ) :   1.5332 B( 19-C , 22-C ) :   1.0835 B( 22-C , 23-H ) :   0.9318
B( 22-C , 24-H ) :   0.9206 B( 22-C , 25-C ) :   1.0416 B( 25-C , 26-H ) :   0.9474
B( 25-C , 27-H ) :   0.9665 B( 25-C , 28-C ) :   1.0906 B( 28-C , 29-H ) :   0.9651
B( 28-C , 30-H ) :   0.9729 B( 28-C , 31-H ) :   0.9637

Dispersion correction           -0.013769526
FINAL SINGLE POINT ENERGY     -1339.840330009285

DIPOLE MOMENT
-------------
                                X             Y             Z
Electronic contribution:     -7.44858      11.74053       2.44978
Nuclear contribution   :      7.81585     -11.75086      -2.78364
                        -----------------------------------------
Total Dipole Moment    :      0.36727      -0.01034      -0.33386
                        -----------------------------------------
Magnitude (a.u.)       :      0.49645
Magnitude (Debye)      :      1.26187

Rotational constants in cm-1:     0.024091     0.007190     0.005792
Rotational constants in MHz :   722.218633   215.538989   173.646484

                             ****ORCA TERMINATED NORMALLY****
TOTAL RUN TIME: 0 days 0 hours 0 minutes 22 seconds 196 msec
