                         Program Version 4.2.1 -  RELEASE  -
|  1> ! wB97X-D3 SP def2-SVP
|  2> %pal
|  3> nprocs 24
|  4> end
|  5>
|  6> * xyz 0 1
|  7> S 	 -53.2772 	 23.2759 	 34.0121
|  8> C 	 -51.6212 	 23.5947 	 33.7077
|  9> C 	 -51.0087 	 22.6267 	 32.9049
| 10> C 	 -52.0249 	 21.966 	 32.1836
| 11> C 	 -53.3106 	 22.3031 	 32.5558
| 12> H 	 -52.0244 	 21.2139 	 31.312
| 13> C 	 -49.5013 	 22.4879 	 32.47
| 14> H 	 -49.2691 	 21.4455 	 32.6125
| 15> H 	 -49.0555 	 22.9834 	 33.315
| 16> C 	 -48.9401 	 23.2101 	 31.2289
| 17> H 	 -48.9756 	 24.2955 	 31.3639
| 18> H 	 -47.897 	 22.8791 	 30.9777
| 19> C 	 -49.8134 	 23.0554 	 29.9627
| 20> H 	 -49.1463 	 23.4682 	 29.1025
| 21> H 	 -50.0008 	 21.9896 	 29.7612
| 22> H 	 -50.8001 	 23.5233 	 30.1744
| 23> S 	 -55.3508 	 20.4474 	 33.3645
| 24> C 	 -56.4341 	 19.8022 	 32.2201
| 25> C 	 -56.3095 	 20.4396 	 30.994
| 26> C 	 -55.1788 	 21.3159 	 30.9446
| 27> C 	 -54.4839 	 21.4657 	 32.1595
| 28> H 	 -57.0737 	 20.2409 	 30.2793
| 29> C 	 -54.7433 	 21.8978 	 29.5916
| 30> H 	 -54.8106 	 21.1652 	 28.7787
| 31> H 	 -53.6718 	 22.0584 	 29.5954
| 32> C 	 -55.4675 	 23.2256 	 29.187
| 33> H 	 -55.361 	 23.9791 	 29.85
| 34> H 	 -56.5522 	 22.9755 	 29.2344
| 35> C 	 -54.9282 	 23.5844 	 27.7663
| 36> H 	 -55.4707 	 23.0228 	 27.0021
| 37> H 	 -53.8012 	 23.6767 	 27.6414
| 38> H 	 -55.1064 	 24.6116 	 27.6032
| 39> H 	 -51.0466 	 24.304 	 34.3003
| 40> H 	 -57.2038 	 19.0757 	 32.4442
| 41> *
| 42>
| 43>                          ****END OF INPUT****

CARTESIAN COORDINATES (ANGSTROEM)
---------------------------------
  S    -53.277200   23.275900   34.012100
  C    -51.621200   23.594700   33.707700
  C    -51.008700   22.626700   32.904900
  C    -52.024900   21.966000   32.183600
  C    -53.310600   22.303100   32.555800
  H    -52.024400   21.213900   31.312000
  C    -49.501300   22.487900   32.470000
  H    -49.269100   21.445500   32.612500
  H    -49.055500   22.983400   33.315000
  C    -48.940100   23.210100   31.228900
  H    -48.975600   24.295500   31.363900
  H    -47.897000   22.879100   30.977700
  C    -49.813400   23.055400   29.962700
  H    -49.146300   23.468200   29.102500
  H    -50.000800   21.989600   29.761200
  H    -50.800100   23.523300   30.174400
  S    -55.350800   20.447400   33.364500
  C    -56.434100   19.802200   32.220100
  C    -56.309500   20.439600   30.994000
  C    -55.178800   21.315900   30.944600
  C    -54.483900   21.465700   32.159500
  H    -57.073700   20.240900   30.279300
  C    -54.743300   21.897800   29.591600
  H    -54.810600   21.165200   28.778700
  H    -53.671800   22.058400   29.595400
  C    -55.467500   23.225600   29.187000
  H    -55.361000   23.979100   29.850000
  H    -56.552200   22.975500   29.234400
  C    -54.928200   23.584400   27.766300
  H    -55.470700   23.022800   27.002100
  H    -53.801200   23.676700   27.641400
  H    -55.106400   24.611600   27.603200
  H    -51.046600   24.304000   34.300300
  H    -57.203800   19.075700   32.444200

 Total Charge           Charge          ....    0
 Multiplicity           Mult            ....    1
 Number of Electrons    NEL             ....  134
 Basis Dimension        Dim             ....  322

ORBITAL ENERGIES
----------------

  NO   OCC          E(Eh)            E(eV)
   0   2.0000     -88.971361     -2421.0338
   1   2.0000     -88.961367     -2420.7619
   2   2.0000     -10.331589      -281.1368
   3   2.0000     -10.328273      -281.0466
   4   2.0000     -10.320647      -280.8391
   5   2.0000     -10.312338      -280.6130
   6   2.0000     -10.309293      -280.5301
   7   2.0000     -10.303899      -280.3833
   8   2.0000     -10.299234      -280.2564
   9   2.0000     -10.296174      -280.1731
  10   2.0000     -10.295240      -280.1477
  11   2.0000     -10.288760      -279.9714
  12   2.0000     -10.287345      -279.9329
  13   2.0000     -10.286126      -279.8997
  14   2.0000     -10.281622      -279.7771
  15   2.0000     -10.278678      -279.6970
  16   2.0000      -8.086735      -220.0512
  17   2.0000      -8.076212      -219.7649
  18   2.0000      -6.045007      -164.4930
  19   2.0000      -6.041442      -164.3960
  20   2.0000      -6.037399      -164.2860
  21   2.0000      -6.034641      -164.2109
  22   2.0000      -6.030630      -164.1018
  23   2.0000      -6.027123      -164.0064
  24   2.0000      -1.008588       -27.4451
  25   2.0000      -0.984703       -26.7951
  26   2.0000      -0.907051       -24.6821
  27   2.0000      -0.900738       -24.5103
  28   2.0000      -0.865643       -23.5554
  29   2.0000      -0.850897       -23.1541
  30   2.0000      -0.842961       -22.9381
  31   2.0000      -0.811257       -22.0754
  32   2.0000      -0.782243       -21.2859
  33   2.0000      -0.768089       -20.9008
  34   2.0000      -0.707109       -19.2414
  35   2.0000      -0.695950       -18.9378
  36   2.0000      -0.691006       -18.8032
  37   2.0000      -0.654170       -17.8009
  38   2.0000      -0.642003       -17.4698
  39   2.0000      -0.611517       -16.6402
  40   2.0000      -0.591830       -16.1045
  41   2.0000      -0.574035       -15.6203
  42   2.0000      -0.563423       -15.3315
  43   2.0000      -0.550584       -14.9822
  44   2.0000      -0.541501       -14.7350
  45   2.0000      -0.516633       -14.0583
  46   2.0000      -0.513054       -13.9609
  47   2.0000      -0.506814       -13.7911
  48   2.0000      -0.497137       -13.5278
  49   2.0000      -0.495076       -13.4717
  50   2.0000      -0.485762       -13.2182
  51   2.0000      -0.476937       -12.9781
  52   2.0000      -0.471266       -12.8238
  53   2.0000      -0.466868       -12.7041
  54   2.0000      -0.462120       -12.5749
  55   2.0000      -0.447842       -12.1864
  56   2.0000      -0.443605       -12.0711
  57   2.0000      -0.437894       -11.9157
  58   2.0000      -0.429031       -11.6745
  59   2.0000      -0.421772       -11.4770
  60   2.0000      -0.420196       -11.4341
  61   2.0000      -0.408576       -11.1179
  62   2.0000      -0.403451       -10.9785
  63   2.0000      -0.345872        -9.4117
  64   2.0000      -0.333256        -9.0684
  65   2.0000      -0.325255        -8.8506
  66   2.0000      -0.291948        -7.9443
  67   0.0000       0.032177         0.8756
  68   0.0000       0.055903         1.5212
  69   0.0000       0.107056         2.9131
  70   0.0000       0.121968         3.3189
  71   0.0000       0.128751         3.5035

MULLIKEN ATOMIC CHARGES
-----------------------
   0 S :    0.124536
   1 C :   -0.111571
   2 C :   -0.112178
   3 C :   -0.012596
   4 C :   -0.145134
   5 H :    0.055160
   6 C :    0.086254
   7 H :    0.038564
   8 H :    0.011973
   9 C :   -0.062535
  10 H :    0.033378
  11 H :    0.044717
  12 C :   -0.108255
  13 H :    0.052102
  14 H :    0.028908
  15 H :    0.063365
  16 S :    0.095834
  17 C :   -0.097949
  18 C :   -0.026961
  19 C :   -0.029067
  20 C :   -0.169253
  21 H :    0.012577
  22 C :    0.037224
  23 H :    0.025541
  24 H :    0.002746
  25 C :   -0.032519
  26 H :    0.008314
  27 H :    0.028213
  28 C :   -0.048323
  29 H :    0.045501
  30 H :    0.041100
  31 H :    0.010423
  32 H :    0.050667
  33 H :    0.059244
Sum of atomic charges:    0.0000000

LOEWDIN ATOMIC CHARGES
----------------------
   0 S :    0.424650
   1 C :   -0.194500
   2 C :   -0.068055
   3 C :   -0.062344
   4 C :   -0.206662
   5 H :    0.047976
   6 C :   -0.032478
   7 H :    0.033394
   8 H :    0.029240
   9 C :   -0.043933
  10 H :    0.027821
  11 H :    0.032134
  12 C :   -0.079025
  13 H :    0.038746
  14 H :    0.017485
  15 H :    0.030594
  16 S :    0.398761
  17 C :   -0.197697
  18 C :   -0.076980
  19 C :   -0.059342
  20 C :   -0.190353
  21 H :    0.028305
  22 C :   -0.033390
  23 H :    0.030055
  24 H :    0.021481
  25 C :   -0.023578
  26 H :    0.008103
  27 H :    0.029285
  28 C :   -0.072922
  29 H :    0.029464
  30 H :    0.037906
  31 H :    0.018859
  32 H :    0.026189
  33 H :    0.030813

  Mayer bond orders larger than 0.100000
B(  0-S ,  1-C ) :   1.1770 B(  0-S ,  4-C ) :   1.1406 B(  1-C ,  2-C ) :   1.5780
B(  1-C , 32-H ) :   0.9674 B(  2-C ,  3-C ) :   1.2424 B(  2-C ,  6-C ) :   1.0144
B(  3-C ,  4-C ) :   1.5842 B(  3-C ,  5-H ) :   0.9748 B(  4-C , 20-C ) :   1.0308
B(  6-C ,  7-H ) :   0.9429 B(  6-C ,  8-H ) :   0.9362 B(  6-C ,  9-C ) :   1.0626
B(  9-C , 10-H ) :   0.9567 B(  9-C , 11-H ) :   0.9542 B(  9-C , 12-C ) :   1.0831
B( 12-C , 13-H ) :   0.9722 B( 12-C , 14-H ) :   0.9760 B( 12-C , 15-H ) :   0.9673
B( 16-S , 17-C ) :   1.1776 B( 16-S , 20-C ) :   1.1296 B( 17-C , 18-C ) :   1.5930
B( 17-C , 33-H ) :   0.9658 B( 18-C , 19-C ) :   1.2450 B( 18-C , 21-H ) :   0.9998
B( 19-C , 20-C ) :   1.6013 B( 19-C , 22-C ) :   1.0313 B( 22-C , 23-H ) :   0.9500
B( 22-C , 24-H ) :   0.9379 B( 22-C , 25-C ) :   1.0505 B( 25-C , 26-H ) :   0.9601
B( 25-C , 27-H ) :   0.9585 B( 25-C , 28-C ) :   1.0764 B( 28-C , 29-H ) :   0.9761
B( 28-C , 30-H ) :   0.9715 B( 28-C , 31-H ) :   0.9711

Dispersion correction           -0.014501081
FINAL SINGLE POINT ENERGY     -1339.837881779113

DIPOLE MOMENT
-------------
                                X             Y             Z
Electronic contribution:    -12.68077      -7.61578      25.48003
Nuclear contribution   :     13.02424       7.69774     -25.88180
                        -----------------------------------------
Total Dipole Moment    :      0.34347       0.08196      -0.40177
                        -----------------------------------------
Magnitude (a.u.)       :      0.53489
Magnitude (Debye)      :      1.35958

Rotational constants in cm-1:     0.016281     0.009685     0.007078
Rotational constants in MHz :   488.101109   290.341598   212.197364

                             ****ORCA TERMINATED NORMALLY****
TOTAL RUN TIME: 0 days 0 hours 0 minutes 21 seconds 753 msec
