                         Program Version 4.2.1 -  RELEASE  -
|  1> ! wB97X-D3 SP def2-SVP
|  2> %pal
|  3> nprocs 24
|  4> end
|  5>
|  6> * xyz 0 1
|  7> S 	 -66.0947 	 11.112 	 -69.9814
|  8> C 	 -65.8477 	 12.4721 	 -71.0406
|  9> C 	 -66.9865 	 13.2698 	 -71.1841
| 10> C 	 -68.0728 	 12.4682 	 -70.7295
| 11> C 	 -67.7783 	 11.2579 	 -70.14
| 12> H 	 -69.1021 	 12.6411 	 -70.8975
| 13> C 	 -67.186 	 14.563 	 -72.0028
| 14> H 	 -68.0848 	 14.4529 	 -72.6408
| 15> H 	 -66.3011 	 14.5768 	 -72.5919
| 16> C 	 -67.3332 	 15.8263 	 -71.1598
| 17> H 	 -66.4634 	 16.0503 	 -70.4477
| 18> H 	 -67.3688 	 16.6363 	 -71.8387
| 19> C 	 -68.6615 	 15.9606 	 -70.4405
| 20> H 	 -68.7532 	 15.3409 	 -69.5148
| 21> H 	 -68.7932 	 16.9574 	 -70.0145
| 22> H 	 -69.4753 	 15.7937 	 -71.1357
| 23> S 	 -68.2742 	 9.34863 	 -68.1689
| 24> C 	 -69.6816 	 8.39414 	 -68.3265
| 25> C 	 -70.4617 	 8.71213 	 -69.4616
| 26> C 	 -69.8629 	 9.73592 	 -70.2243
| 27> C 	 -68.6424 	 10.2131 	 -69.6766
| 28> H 	 -71.3993 	 8.18535 	 -69.6587
| 29> C 	 -70.5581 	 10.2344 	 -71.5208
| 30> H 	 -71.0241 	 9.32975 	 -71.9318
| 31> H 	 -69.6915 	 10.5251 	 -72.1995
| 32> C 	 -71.5144 	 11.4779 	 -71.3226
| 33> H 	 -71.9416 	 11.6069 	 -72.3048
| 34> H 	 -71.0035 	 12.4245 	 -71.0888
| 35> C 	 -72.67 	 11.1333 	 -70.2612
| 36> H 	 -73.2011 	 12.0999 	 -70.0662
| 37> H 	 -72.146 	 10.9519 	 -69.3143
| 38> H 	 -73.4067 	 10.3467 	 -70.5566
| 39> H 	 -64.9162 	 12.7064 	 -71.5073
| 40> H 	 -69.9245 	 7.5461 	 -67.8064
| 41> *
| 42>
| 43>                          ****END OF INPUT****

CARTESIAN COORDINATES (ANGSTROEM)
---------------------------------
  S    -66.094700   11.112000  -69.981400
  C    -65.847700   12.472100  -71.040600
  C    -66.986500   13.269800  -71.184100
  C    -68.072800   12.468200  -70.729500
  C    -67.778300   11.257900  -70.140000
  H    -69.102100   12.641100  -70.897500
  C    -67.186000   14.563000  -72.002800
  H    -68.084800   14.452900  -72.640800
  H    -66.301100   14.576800  -72.591900
  C    -67.333200   15.826300  -71.159800
  H    -66.463400   16.050300  -70.447700
  H    -67.368800   16.636300  -71.838700
  C    -68.661500   15.960600  -70.440500
  H    -68.753200   15.340900  -69.514800
  H    -68.793200   16.957400  -70.014500
  H    -69.475300   15.793700  -71.135700
  S    -68.274200    9.348630  -68.168900
  C    -69.681600    8.394140  -68.326500
  C    -70.461700    8.712130  -69.461600
  C    -69.862900    9.735920  -70.224300
  C    -68.642400   10.213100  -69.676600
  H    -71.399300    8.185350  -69.658700
  C    -70.558100   10.234400  -71.520800
  H    -71.024100    9.329750  -71.931800
  H    -69.691500   10.525100  -72.199500
  C    -71.514400   11.477900  -71.322600
  H    -71.941600   11.606900  -72.304800
  H    -71.003500   12.424500  -71.088800
  C    -72.670000   11.133300  -70.261200
  H    -73.201100   12.099900  -70.066200
  H    -72.146000   10.951900  -69.314300
  H    -73.406700   10.346700  -70.556600
  H    -64.916200   12.706400  -71.507300
  H    -69.924500    7.546100  -67.806400

 Total Charge           Charge          ....    0
 Multiplicity           Mult            ....    1
 Number of Electrons    NEL             ....  134
 Basis Dimension        Dim             ....  322

ORBITAL ENERGIES
----------------

  NO   OCC          E(Eh)            E(eV)
   0   2.0000     -88.969880     -2420.9935
   1   2.0000     -88.963396     -2420.8171
   2   2.0000     -10.327158      -281.0163
   3   2.0000     -10.319387      -280.8048
   4   2.0000     -10.314097      -280.6608
   5   2.0000     -10.308701      -280.5140
   6   2.0000     -10.304122      -280.3894
   7   2.0000     -10.302147      -280.3357
   8   2.0000     -10.300315      -280.2858
   9   2.0000     -10.299246      -280.2567
  10   2.0000     -10.297441      -280.2076
  11   2.0000     -10.292970      -280.0859
  12   2.0000     -10.289639      -279.9953
  13   2.0000     -10.287023      -279.9241
  14   2.0000     -10.285837      -279.8918
  15   2.0000     -10.278929      -279.7039
  16   2.0000      -8.084482      -219.9899
  17   2.0000      -8.079571      -219.8563
  18   2.0000      -6.042852      -164.4344
  19   2.0000      -6.038991      -164.3293
  20   2.0000      -6.037946      -164.3009
  21   2.0000      -6.035453      -164.2330
  22   2.0000      -6.034016      -164.1939
  23   2.0000      -6.030246      -164.0913
  24   2.0000      -1.011154       -27.5149
  25   2.0000      -0.984206       -26.7816
  26   2.0000      -0.916030       -24.9264
  27   2.0000      -0.897445       -24.4207
  28   2.0000      -0.870801       -23.6957
  29   2.0000      -0.847903       -23.0726
  30   2.0000      -0.841814       -22.9069
  31   2.0000      -0.810656       -22.0591
  32   2.0000      -0.786021       -21.3887
  33   2.0000      -0.770794       -20.9744
  34   2.0000      -0.708948       -19.2915
  35   2.0000      -0.700109       -19.0509
  36   2.0000      -0.691813       -18.8252
  37   2.0000      -0.662407       -18.0250
  38   2.0000      -0.643047       -17.4982
  39   2.0000      -0.615921       -16.7601
  40   2.0000      -0.584241       -15.8980
  41   2.0000      -0.576065       -15.6755
  42   2.0000      -0.554403       -15.0861
  43   2.0000      -0.546669       -14.8756
  44   2.0000      -0.544698       -14.8220
  45   2.0000      -0.534741       -14.5510
  46   2.0000      -0.517291       -14.0762
  47   2.0000      -0.514175       -13.9914
  48   2.0000      -0.503635       -13.7046
  49   2.0000      -0.493849       -13.4383
  50   2.0000      -0.487007       -13.2521
  51   2.0000      -0.477209       -12.9855
  52   2.0000      -0.467191       -12.7129
  53   2.0000      -0.463879       -12.6228
  54   2.0000      -0.462989       -12.5986
  55   2.0000      -0.454883       -12.3780
  56   2.0000      -0.442135       -12.0311
  57   2.0000      -0.437311       -11.8999
  58   2.0000      -0.435364       -11.8469
  59   2.0000      -0.427023       -11.6199
  60   2.0000      -0.416915       -11.3448
  61   2.0000      -0.414046       -11.2668
  62   2.0000      -0.411155       -11.1881
  63   2.0000      -0.349092        -9.4993
  64   2.0000      -0.334013        -9.0889
  65   2.0000      -0.330847        -9.0028
  66   2.0000      -0.277740        -7.5577
  67   0.0000       0.024820         0.6754
  68   0.0000       0.069442         1.8896
  69   0.0000       0.108106         2.9417
  70   0.0000       0.120668         3.2835
  71   0.0000       0.131365         3.5746

MULLIKEN ATOMIC CHARGES
-----------------------
   0 S :    0.113572
   1 C :   -0.129225
   2 C :   -0.058332
   3 C :    0.045318
   4 C :   -0.140865
   5 H :   -0.075505
   6 C :    0.083335
   7 H :    0.037368
   8 H :    0.013728
   9 C :   -0.057935
  10 H :    0.044119
  11 H :    0.019161
  12 C :   -0.068667
  13 H :    0.045360
  14 H :    0.029506
  15 H :    0.024915
  16 S :    0.122287
  17 C :   -0.056966
  18 C :   -0.060955
  19 C :   -0.060754
  20 C :   -0.134369
  21 H :    0.024574
  22 C :    0.025502
  23 H :    0.033257
  24 H :    0.047306
  25 C :   -0.063092
  26 H :    0.030656
  27 H :    0.056395
  28 C :   -0.098451
  29 H :    0.036487
  30 H :    0.057903
  31 H :    0.053472
  32 H :    0.036721
  33 H :    0.024172
Sum of atomic charges:   -0.0000000

LOEWDIN ATOMIC CHARGES
----------------------
   0 S :    0.424384
   1 C :   -0.189387
   2 C :   -0.057310
   3 C :   -0.062974
   4 C :   -0.212307
   5 H :    0.014908
   6 C :   -0.021893
   7 H :    0.036314
   8 H :    0.027799
   9 C :   -0.043527
  10 H :    0.035255
  11 H :    0.019953
  12 C :   -0.070738
  13 H :    0.029845
  14 H :    0.027803
  15 H :    0.021191
  16 S :    0.419104
  17 C :   -0.192632
  18 C :   -0.073104
  19 C :   -0.060136
  20 C :   -0.198174
  21 H :    0.034403
  22 C :   -0.036779
  23 H :    0.031975
  24 H :    0.038076
  25 C :   -0.034957
  26 H :    0.021701
  27 H :    0.025411
  28 C :   -0.076363
  29 H :    0.029780
  30 H :    0.030580
  31 H :    0.030867
  32 H :    0.019355
  33 H :    0.011578

  Mayer bond orders larger than 0.100000
B(  0-S ,  1-C ) :   1.1638 B(  0-S ,  4-C ) :   1.1382 B(  1-C ,  2-C ) :   1.5931
B(  1-C , 32-H ) :   0.9705 B(  2-C ,  3-C ) :   1.2230 B(  2-C ,  6-C ) :   1.0081
B(  3-C ,  4-C ) :   1.5755 B(  3-C ,  5-H ) :   1.0044 B(  4-C , 20-C ) :   1.0691
B(  6-C ,  7-H ) :   0.9472 B(  6-C ,  8-H ) :   0.9352 B(  6-C ,  9-C ) :   1.0807
B(  9-C , 10-H ) :   0.9516 B(  9-C , 11-H ) :   0.9521 B(  9-C , 12-C ) :   1.0834
B( 12-C , 13-H ) :   0.9726 B( 12-C , 14-H ) :   0.9713 B( 12-C , 15-H ) :   0.9727
B( 16-S , 17-C ) :   1.1768 B( 16-S , 20-C ) :   1.1401 B( 17-C , 18-C ) :   1.5705
B( 17-C , 20-C ) :   0.1126 B( 17-C , 33-H ) :   0.9722 B( 18-C , 19-C ) :   1.2825
B( 18-C , 21-H ) :   0.9877 B( 19-C , 20-C ) :   1.5516 B( 19-C , 22-C ) :   1.0249
B( 22-C , 23-H ) :   0.9438 B( 22-C , 24-H ) :   0.9352 B( 22-C , 25-C ) :   1.0573
B( 25-C , 26-H ) :   0.9552 B( 25-C , 27-H ) :   0.9511 B( 25-C , 28-C ) :   1.0640
B( 28-C , 29-H ) :   0.9746 B( 28-C , 30-H ) :   0.9726 B( 28-C , 31-H ) :   0.9769

Dispersion correction           -0.015111045
FINAL SINGLE POINT ENERGY     -1339.865672671893

DIPOLE MOMENT
-------------
                                X             Y             Z
Electronic contribution:     17.68810     -19.76278      11.01364
Nuclear contribution   :    -18.09993      20.16464     -11.49791
                        -----------------------------------------
Total Dipole Moment    :     -0.41184       0.40186      -0.48427
                        -----------------------------------------
Magnitude (a.u.)       :      0.75208
Magnitude (Debye)      :      1.91164

Rotational constants in cm-1:     0.018514     0.009690     0.007177
Rotational constants in MHz :   555.042638   290.502628   215.167201

                             ****ORCA TERMINATED NORMALLY****
TOTAL RUN TIME: 0 days 0 hours 0 minutes 22 seconds 510 msec
