                         Program Version 4.2.1 -  RELEASE  -
|  1> ! wB97X-D3 SP def2-SVP
|  2> %pal
|  3> nprocs 24
|  4> end
|  5>
|  6> * xyz 0 1
|  7> S 	 -113.549 	 21.4029 	 -113.36
|  8> C 	 -115.201 	 21.9188 	 -113.645
|  9> C 	 -116.052 	 21.4306 	 -112.678
| 10> C 	 -115.336 	 20.9409 	 -111.553
| 11> C 	 -113.964 	 20.8789 	 -111.788
| 12> H 	 -115.696 	 20.5601 	 -110.656
| 13> C 	 -117.549 	 21.5543 	 -112.649
| 14> H 	 -117.927 	 20.9977 	 -111.775
| 15> H 	 -117.877 	 20.9376 	 -113.527
| 16> C 	 -118.267 	 22.9232 	 -112.676
| 17> H 	 -117.973 	 23.5012 	 -111.814
| 18> H 	 -118.07 	 23.4729 	 -113.575
| 19> C 	 -119.801 	 22.851 	 -112.613
| 20> H 	 -120.071 	 22.0184 	 -112.043
| 21> H 	 -120.462 	 23.6426 	 -112.224
| 22> H 	 -120.293 	 22.7581 	 -113.604
| 23> S 	 -111.988 	 21.9055 	 -110.243
| 24> C 	 -111.064 	 20.8751 	 -109.165
| 25> C 	 -111.607 	 19.5796 	 -109.134
| 26> C 	 -112.642 	 19.4121 	 -110.174
| 27> C 	 -112.959 	 20.5343 	 -110.81
| 28> H 	 -111.137 	 18.8237 	 -108.499
| 29> C 	 -113.342 	 18.1365 	 -110.453
| 30> H 	 -113.889 	 18.3451 	 -111.398
| 31> H 	 -113.991 	 17.7552 	 -109.606
| 32> C 	 -112.363 	 17.0184 	 -110.691
| 33> H 	 -112.936 	 16.252 	 -111.034
| 34> H 	 -111.872 	 16.5431 	 -109.776
| 35> C 	 -111.225 	 17.267 	 -111.615
| 36> H 	 -111.619 	 17.9118 	 -112.444
| 37> H 	 -110.702 	 16.3882 	 -111.889
| 38> H 	 -110.577 	 17.8206 	 -110.954
| 39> H 	 -115.561 	 22.1963 	 -114.637
| 40> H 	 -110.308 	 21.3274 	 -108.573
| 41> *
| 42>
| 43>                          ****END OF INPUT****

CARTESIAN COORDINATES (ANGSTROEM)
---------------------------------
  S    -113.549000   21.402900  -113.360000
  C    -115.201000   21.918800  -113.645000
  C    -116.052000   21.430600  -112.678000
  C    -115.336000   20.940900  -111.553000
  C    -113.964000   20.878900  -111.788000
  H    -115.696000   20.560100  -110.656000
  C    -117.549000   21.554300  -112.649000
  H    -117.927000   20.997700  -111.775000
  H    -117.877000   20.937600  -113.527000
  C    -118.267000   22.923200  -112.676000
  H    -117.973000   23.501200  -111.814000
  H    -118.070000   23.472900  -113.575000
  C    -119.801000   22.851000  -112.613000
  H    -120.071000   22.018400  -112.043000
  H    -120.462000   23.642600  -112.224000
  H    -120.293000   22.758100  -113.604000
  S    -111.988000   21.905500  -110.243000
  C    -111.064000   20.875100  -109.165000
  C    -111.607000   19.579600  -109.134000
  C    -112.642000   19.412100  -110.174000
  C    -112.959000   20.534300  -110.810000
  H    -111.137000   18.823700  -108.499000
  C    -113.342000   18.136500  -110.453000
  H    -113.889000   18.345100  -111.398000
  H    -113.991000   17.755200  -109.606000
  C    -112.363000   17.018400  -110.691000
  H    -112.936000   16.252000  -111.034000
  H    -111.872000   16.543100  -109.776000
  C    -111.225000   17.267000  -111.615000
  H    -111.619000   17.911800  -112.444000
  H    -110.702000   16.388200  -111.889000
  H    -110.577000   17.820600  -110.954000
  H    -115.561000   22.196300  -114.637000
  H    -110.308000   21.327400  -108.573000

 Total Charge           Charge          ....    0
 Multiplicity           Mult            ....    1
 Number of Electrons    NEL             ....  134
 Basis Dimension        Dim             ....  322

ORBITAL ENERGIES
----------------

  NO   OCC          E(Eh)            E(eV)
   0   2.0000     -88.969095     -2420.9722
   1   2.0000     -88.956662     -2420.6338
   2   2.0000     -10.325014      -280.9579
   3   2.0000     -10.321261      -280.8558
   4   2.0000     -10.317737      -280.7599
   5   2.0000     -10.313583      -280.6469
   6   2.0000     -10.302868      -280.3553
   7   2.0000     -10.302815      -280.3538
   8   2.0000     -10.299117      -280.2532
   9   2.0000     -10.299019      -280.2506
  10   2.0000     -10.292218      -280.0655
  11   2.0000     -10.290552      -280.0201
  12   2.0000     -10.288746      -279.9710
  13   2.0000     -10.275942      -279.6226
  14   2.0000     -10.270878      -279.4848
  15   2.0000     -10.265381      -279.3352
  16   2.0000      -8.084389      -219.9874
  17   2.0000      -8.071816      -219.6453
  18   2.0000      -6.042688      -164.4299
  19   2.0000      -6.038802      -164.3242
  20   2.0000      -6.035349      -164.2302
  21   2.0000      -6.030343      -164.0940
  22   2.0000      -6.026292      -163.9837
  23   2.0000      -6.022491      -163.8803
  24   2.0000      -1.012299       -27.5461
  25   2.0000      -0.985335       -26.8123
  26   2.0000      -0.919569       -25.0227
  27   2.0000      -0.911952       -24.8155
  28   2.0000      -0.872698       -23.7473
  29   2.0000      -0.856965       -23.3192
  30   2.0000      -0.844785       -22.9878
  31   2.0000      -0.813450       -22.1351
  32   2.0000      -0.785040       -21.3620
  33   2.0000      -0.776150       -21.1201
  34   2.0000      -0.710750       -19.3405
  35   2.0000      -0.702235       -19.1088
  36   2.0000      -0.693352       -18.8671
  37   2.0000      -0.661321       -17.9954
  38   2.0000      -0.648227       -17.6391
  39   2.0000      -0.613638       -16.6979
  40   2.0000      -0.594851       -16.1867
  41   2.0000      -0.576873       -15.6975
  42   2.0000      -0.564203       -15.3527
  43   2.0000      -0.559590       -15.2272
  44   2.0000      -0.544346       -14.8124
  45   2.0000      -0.528500       -14.3812
  46   2.0000      -0.520351       -14.1595
  47   2.0000      -0.517194       -14.0736
  48   2.0000      -0.505839       -13.7646
  49   2.0000      -0.500908       -13.6304
  50   2.0000      -0.485976       -13.2241
  51   2.0000      -0.482385       -13.1264
  52   2.0000      -0.471233       -12.8229
  53   2.0000      -0.463539       -12.6135
  54   2.0000      -0.458455       -12.4752
  55   2.0000      -0.449667       -12.2361
  56   2.0000      -0.440006       -11.9732
  57   2.0000      -0.438204       -11.9241
  58   2.0000      -0.433945       -11.8082
  59   2.0000      -0.424176       -11.5424
  60   2.0000      -0.415745       -11.3130
  61   2.0000      -0.414305       -11.2738
  62   2.0000      -0.402347       -10.9484
  63   2.0000      -0.338299        -9.2056
  64   2.0000      -0.333053        -9.0628
  65   2.0000      -0.322779        -8.7833
  66   2.0000      -0.306703        -8.3458
  67   0.0000       0.036388         0.9902
  68   0.0000       0.062718         1.7066
  69   0.0000       0.107563         2.9269
  70   0.0000       0.116365         3.1664
  71   0.0000       0.133642         3.6366

MULLIKEN ATOMIC CHARGES
-----------------------
   0 S :    0.133647
   1 C :   -0.124714
   2 C :   -0.067588
   3 C :    0.072465
   4 C :   -0.205477
   5 H :   -0.014807
   6 C :    0.031693
   7 H :    0.020025
   8 H :    0.039127
   9 C :   -0.014851
  10 H :    0.035780
  11 H :    0.027365
  12 C :   -0.071670
  13 H :    0.010330
  14 H :    0.034321
  15 H :    0.026376
  16 S :    0.088398
  17 C :   -0.089651
  18 C :   -0.023853
  19 C :   -0.051905
  20 C :   -0.159790
  21 H :    0.032282
  22 C :    0.078696
  23 H :    0.038609
  24 H :    0.052921
  25 C :   -0.103355
  26 H :   -0.004324
  27 H :    0.018735
  28 C :    0.005158
  29 H :    0.031957
  30 H :    0.028645
  31 H :    0.017861
  32 H :    0.052243
  33 H :    0.055352
Sum of atomic charges:    0.0000000

LOEWDIN ATOMIC CHARGES
----------------------
   0 S :    0.432228
   1 C :   -0.199765
   2 C :   -0.061767
   3 C :   -0.047277
   4 C :   -0.212889
   5 H :    0.021579
   6 C :   -0.037526
   7 H :    0.030945
   8 H :    0.039230
   9 C :   -0.033427
  10 H :    0.027651
  11 H :    0.022773
  12 C :   -0.075816
  13 H :    0.014010
  14 H :    0.032423
  15 H :    0.027468
  16 S :    0.382903
  17 C :   -0.164717
  18 C :   -0.072192
  19 C :   -0.060777
  20 C :   -0.196112
  21 H :    0.033615
  22 C :   -0.032551
  23 H :    0.037660
  24 H :    0.045750
  25 C :   -0.050716
  26 H :    0.006126
  27 H :    0.025067
  28 C :   -0.059883
  29 H :    0.030477
  30 H :    0.022017
  31 H :    0.024513
  32 H :    0.027661
  33 H :    0.021319

  Mayer bond orders larger than 0.100000
B(  0-S ,  1-C ) :   1.1422 B(  0-S ,  4-C ) :   1.1859 B(  1-C ,  2-C ) :   1.5972
B(  1-C , 32-H ) :   0.9651 B(  2-C ,  3-C ) :   1.2439 B(  2-C ,  6-C ) :   1.0299
B(  3-C ,  4-C ) :   1.5510 B(  3-C ,  5-H ) :   1.0050 B(  4-C , 20-C ) :   1.0086
B(  6-C ,  7-H ) :   0.9399 B(  6-C ,  8-H ) :   0.9293 B(  6-C ,  9-C ) :   1.0705
B(  9-C , 10-H ) :   0.9578 B(  9-C , 11-H ) :   0.9571 B(  9-C , 12-C ) :   1.0652
B( 12-C , 13-H ) :   0.9763 B( 12-C , 14-H ) :   0.9764 B( 12-C , 15-H ) :   0.9764
B( 16-S , 17-C ) :   1.1561 B( 16-S , 20-C ) :   1.1150 B( 17-C , 18-C ) :   1.6208
B( 17-C , 33-H ) :   0.9752 B( 18-C , 19-C ) :   1.1647 B( 18-C , 21-H ) :   0.9884
B( 19-C , 20-C ) :   1.6858 B( 19-C , 22-C ) :   1.0581 B( 22-C , 23-H ) :   0.9220
B( 22-C , 24-H ) :   0.9299 B( 22-C , 25-C ) :   1.0787 B( 25-C , 26-H ) :   0.9493
B( 25-C , 27-H ) :   0.9470 B( 25-C , 28-C ) :   1.0841 B( 28-C , 29-H ) :   0.9710
B( 28-C , 30-H ) :   0.9696 B( 28-C , 31-H ) :   0.9654

Dispersion correction           -0.014410782
FINAL SINGLE POINT ENERGY     -1339.856730401365

DIPOLE MOMENT
-------------
                                X             Y             Z
Electronic contribution:     17.09116      10.04694       0.83048
Nuclear contribution   :    -17.54608     -10.42907      -0.67269
                        -----------------------------------------
Total Dipole Moment    :     -0.45493      -0.38213       0.15779
                        -----------------------------------------
Magnitude (a.u.)       :      0.61472
Magnitude (Debye)      :      1.56248

Rotational constants in cm-1:     0.024199     0.006973     0.006530
Rotational constants in MHz :   725.478956   209.030383   195.763562

                             ****ORCA TERMINATED NORMALLY****
TOTAL RUN TIME: 0 days 0 hours 0 minutes 21 seconds 491 msec
