                         Program Version 4.2.1 -  RELEASE  -
|  1> ! wB97X-D3 SP def2-SVP
|  2> %pal
|  3> nprocs 24
|  4> end
|  5>
|  6> * xyz 0 1
|  7> S 	 -3.32195 	 -24.8538 	 -109.444
|  8> C 	 -3.2673 	 -23.1501 	 -110.101
|  9> C 	 -2.36737 	 -22.3907 	 -109.379
| 10> C 	 -1.81439 	 -23.0745 	 -108.263
| 11> C 	 -2.09318 	 -24.4471 	 -108.237
| 12> H 	 -1.0614 	 -22.6321 	 -107.64
| 13> C 	 -2.15585 	 -20.9442 	 -109.475
| 14> H 	 -2.27705 	 -20.5566 	 -110.47
| 15> H 	 -1.18923 	 -20.6825 	 -109.252
| 16> C 	 -3.0913 	 -20.1566 	 -108.525
| 17> H 	 -2.67088 	 -20.0669 	 -107.497
| 18> H 	 -3.31669 	 -19.1644 	 -108.844
| 19> C 	 -4.59793 	 -20.6649 	 -108.483
| 20> H 	 -4.64635 	 -21.4046 	 -107.642
| 21> H 	 -5.29865 	 -19.9538 	 -108.154
| 22> H 	 -5.03402 	 -21.246 	 -109.385
| 23> S 	 0.076809 	 -25.8198 	 -107.048
| 24> C 	 -0.223655 	 -27.0851 	 -105.914
| 25> C 	 -1.62514 	 -27.2119 	 -105.751
| 26> C 	 -2.42146 	 -26.3074 	 -106.551
| 27> C 	 -1.64076 	 -25.4588 	 -107.313
| 28> H 	 -1.92596 	 -28.0131 	 -105.052
| 29> C 	 -3.9517 	 -26.2326 	 -106.491
| 30> H 	 -4.42649 	 -25.2853 	 -106.813
| 31> H 	 -3.99018 	 -26.0285 	 -105.394
| 32> C 	 -4.65854 	 -27.4608 	 -107.067
| 33> H 	 -4.40441 	 -28.3834 	 -106.541
| 34> H 	 -4.2603 	 -27.5767 	 -108.125
| 35> C 	 -6.20491 	 -27.2464 	 -107.014
| 36> H 	 -6.46095 	 -26.3039 	 -107.525
| 37> H 	 -6.5091 	 -27.1164 	 -105.991
| 38> H 	 -6.70542 	 -28.0245 	 -107.561
| 39> H 	 -3.88414 	 -22.8454 	 -110.982
| 40> H 	 0.444905 	 -27.731 	 -105.363
| 41> *
| 42>
| 43>                          ****END OF INPUT****

CARTESIAN COORDINATES (ANGSTROEM)
---------------------------------
  S     -3.321950  -24.853800  -109.444000
  C     -3.267300  -23.150100  -110.101000
  C     -2.367370  -22.390700  -109.379000
  C     -1.814390  -23.074500  -108.263000
  C     -2.093180  -24.447100  -108.237000
  H     -1.061400  -22.632100  -107.640000
  C     -2.155850  -20.944200  -109.475000
  H     -2.277050  -20.556600  -110.470000
  H     -1.189230  -20.682500  -109.252000
  C     -3.091300  -20.156600  -108.525000
  H     -2.670880  -20.066900  -107.497000
  H     -3.316690  -19.164400  -108.844000
  C     -4.597930  -20.664900  -108.483000
  H     -4.646350  -21.404600  -107.642000
  H     -5.298650  -19.953800  -108.154000
  H     -5.034020  -21.246000  -109.385000
  S      0.076809  -25.819800  -107.048000
  C     -0.223655  -27.085100  -105.914000
  C     -1.625140  -27.211900  -105.751000
  C     -2.421460  -26.307400  -106.551000
  C     -1.640760  -25.458800  -107.313000
  H     -1.925960  -28.013100  -105.052000
  C     -3.951700  -26.232600  -106.491000
  H     -4.426490  -25.285300  -106.813000
  H     -3.990180  -26.028500  -105.394000
  C     -4.658540  -27.460800  -107.067000
  H     -4.404410  -28.383400  -106.541000
  H     -4.260300  -27.576700  -108.125000
  C     -6.204910  -27.246400  -107.014000
  H     -6.460950  -26.303900  -107.525000
  H     -6.509100  -27.116400  -105.991000
  H     -6.705420  -28.024500  -107.561000
  H     -3.884140  -22.845400  -110.982000
  H      0.444905  -27.731000  -105.363000

 Total Charge           Charge          ....    0
 Multiplicity           Mult            ....    1
 Number of Electrons    NEL             ....  134
 Basis Dimension        Dim             ....  322

ORBITAL ENERGIES
----------------

  NO   OCC          E(Eh)            E(eV)
   0   2.0000     -88.966841     -2420.9108
   1   2.0000     -88.966717     -2420.9074
   2   2.0000     -10.333728      -281.1950
   3   2.0000     -10.324904      -280.9549
   4   2.0000     -10.323193      -280.9084
   5   2.0000     -10.320721      -280.8411
   6   2.0000     -10.306665      -280.4586
   7   2.0000     -10.299698      -280.2690
   8   2.0000     -10.298785      -280.2442
   9   2.0000     -10.293732      -280.1067
  10   2.0000     -10.293043      -280.0879
  11   2.0000     -10.291530      -280.0468
  12   2.0000     -10.291459      -280.0448
  13   2.0000     -10.283715      -279.8341
  14   2.0000     -10.279989      -279.7327
  15   2.0000     -10.275595      -279.6132
  16   2.0000      -8.081028      -219.8960
  17   2.0000      -8.079701      -219.8598
  18   2.0000      -6.039560      -164.3448
  19   2.0000      -6.038326      -164.3112
  20   2.0000      -6.035464      -164.2333
  21   2.0000      -6.034537      -164.2081
  22   2.0000      -6.031894      -164.1362
  23   2.0000      -6.030389      -164.0952
  24   2.0000      -1.001551       -27.2536
  25   2.0000      -0.978740       -26.6329
  26   2.0000      -0.913928       -24.8692
  27   2.0000      -0.903906       -24.5965
  28   2.0000      -0.863171       -23.4881
  29   2.0000      -0.845155       -22.9978
  30   2.0000      -0.840004       -22.8577
  31   2.0000      -0.808033       -21.9877
  32   2.0000      -0.785603       -21.3773
  33   2.0000      -0.772409       -21.0183
  34   2.0000      -0.707826       -19.2609
  35   2.0000      -0.699323       -19.0296
  36   2.0000      -0.695296       -18.9200
  37   2.0000      -0.658509       -17.9189
  38   2.0000      -0.634806       -17.2739
  39   2.0000      -0.620367       -16.8811
  40   2.0000      -0.592895       -16.1335
  41   2.0000      -0.569423       -15.4948
  42   2.0000      -0.556279       -15.1371
  43   2.0000      -0.551437       -15.0054
  44   2.0000      -0.545433       -14.8420
  45   2.0000      -0.530301       -14.4302
  46   2.0000      -0.517227       -14.0745
  47   2.0000      -0.508891       -13.8476
  48   2.0000      -0.502724       -13.6798
  49   2.0000      -0.495839       -13.4925
  50   2.0000      -0.488459       -13.2916
  51   2.0000      -0.470350       -12.7989
  52   2.0000      -0.465137       -12.6570
  53   2.0000      -0.457201       -12.4411
  54   2.0000      -0.454393       -12.3647
  55   2.0000      -0.446480       -12.1493
  56   2.0000      -0.445355       -12.1187
  57   2.0000      -0.439975       -11.9723
  58   2.0000      -0.435915       -11.8618
  59   2.0000      -0.422595       -11.4994
  60   2.0000      -0.420694       -11.4477
  61   2.0000      -0.402299       -10.9471
  62   2.0000      -0.401163       -10.9162
  63   2.0000      -0.342427        -9.3179
  64   2.0000      -0.330751        -9.0002
  65   2.0000      -0.327357        -8.9078
  66   2.0000      -0.292995        -7.9728
  67   0.0000       0.026995         0.7346
  68   0.0000       0.067574         1.8388
  69   0.0000       0.100412         2.7323
  70   0.0000       0.118748         3.2313
  71   0.0000       0.129349         3.5198

MULLIKEN ATOMIC CHARGES
-----------------------
   0 S :    0.087500
   1 C :   -0.155785
   2 C :   -0.070043
   3 C :    0.031610
   4 C :   -0.165667
   5 H :    0.010090
   6 C :    0.147900
   7 H :    0.013386
   8 H :   -0.000053
   9 C :   -0.088558
  10 H :    0.040831
  11 H :    0.027090
  12 C :   -0.092108
  13 H :    0.028775
  14 H :    0.024749
  15 H :    0.046798
  16 S :    0.117942
  17 C :   -0.097047
  18 C :   -0.066743
  19 C :   -0.021002
  20 C :   -0.135419
  21 H :    0.029463
  22 C :    0.011801
  23 H :    0.034967
  24 H :    0.036280
  25 C :   -0.078457
  26 H :    0.033951
  27 H :    0.041647
  28 C :   -0.019196
  29 H :    0.025431
  30 H :    0.029850
  31 H :    0.036828
  32 H :    0.073182
  33 H :    0.060008
Sum of atomic charges:    0.0000000

LOEWDIN ATOMIC CHARGES
----------------------
   0 S :    0.379646
   1 C :   -0.178116
   2 C :   -0.062082
   3 C :   -0.057961
   4 C :   -0.172800
   5 H :    0.029204
   6 C :   -0.025293
   7 H :    0.030956
   8 H :    0.021717
   9 C :   -0.034607
  10 H :    0.028593
  11 H :    0.021384
  12 C :   -0.081796
  13 H :    0.028869
  14 H :    0.015089
  15 H :    0.035799
  16 S :    0.409458
  17 C :   -0.198133
  18 C :   -0.079321
  19 C :   -0.053982
  20 C :   -0.206244
  21 H :    0.034259
  22 C :   -0.051435
  23 H :    0.028968
  24 H :    0.039904
  25 C :   -0.040381
  26 H :    0.023181
  27 H :    0.029031
  28 C :   -0.060852
  29 H :    0.026567
  30 H :    0.024061
  31 H :    0.024169
  32 H :    0.036781
  33 H :    0.035368

  Mayer bond orders larger than 0.100000
B(  0-S ,  1-C ) :   1.1178 B(  0-S ,  4-C ) :   1.1439 B(  1-C ,  2-C ) :   1.6034
B(  1-C ,  4-C ) :   0.1004 B(  1-C , 32-H ) :   0.9612 B(  2-C ,  3-C ) :   1.2273
B(  2-C ,  6-C ) :   1.0649 B(  3-C ,  4-C ) :   1.5763 B(  3-C ,  5-H ) :   0.9924
B(  4-C , 20-C ) :   1.0533 B(  6-C ,  7-H ) :   0.9337 B(  6-C ,  8-H ) :   0.9282
B(  6-C ,  9-C ) :   1.0593 B(  9-C , 10-H ) :   0.9592 B(  9-C , 11-H ) :   0.9661
B(  9-C , 12-C ) :   1.0556 B( 12-C , 13-H ) :   0.9737 B( 12-C , 14-H ) :   0.9791
B( 12-C , 15-H ) :   0.9722 B( 16-S , 17-C ) :   1.1640 B( 16-S , 20-C ) :   1.1284
B( 17-C , 18-C ) :   1.6033 B( 17-C , 33-H ) :   0.9678 B( 18-C , 19-C ) :   1.2417
B( 18-C , 21-H ) :   0.9864 B( 19-C , 20-C ) :   1.5722 B( 19-C , 22-C ) :   1.0198
B( 22-C , 23-H ) :   0.9422 B( 22-C , 24-H ) :   0.9310 B( 22-C , 25-C ) :   1.0422
B( 25-C , 26-H ) :   0.9572 B( 25-C , 27-H ) :   0.9537 B( 25-C , 28-C ) :   1.0795
B( 28-C , 29-H ) :   0.9738 B( 28-C , 30-H ) :   0.9749 B( 28-C , 31-H ) :   0.9757

Dispersion correction           -0.015231639
FINAL SINGLE POINT ENERGY     -1339.861010485011

DIPOLE MOMENT
-------------
                                X             Y             Z
Electronic contribution:     19.12943      -9.39610      -3.06710
Nuclear contribution   :    -19.39022       9.66116       3.32231
                        -----------------------------------------
Total Dipole Moment    :     -0.26079       0.26506       0.25520
                        -----------------------------------------
Magnitude (a.u.)       :      0.45099
Magnitude (Debye)      :      1.14633

Rotational constants in cm-1:     0.018686     0.009301     0.007155
Rotational constants in MHz :   560.184375   278.838015   214.499366

                             ****ORCA TERMINATED NORMALLY****
TOTAL RUN TIME: 0 days 0 hours 0 minutes 20 seconds 704 msec
