                         Program Version 4.2.1 -  RELEASE  -
|  1> ! wB97X-D3 SP def2-SVP
|  2> %pal
|  3> nprocs 24
|  4> end
|  5>
|  6> * xyz 0 1
|  7> S 	 -133.814 	 67.7503 	 -62.6229
|  8> C 	 -135.493 	 68.03 	 -62.8503
|  9> C 	 -136.129 	 67.6889 	 -61.6666
| 10> C 	 -135.253 	 67.2523 	 -60.6044
| 11> C 	 -133.911 	 67.3047 	 -60.9454
| 12> H 	 -135.505 	 66.8902 	 -59.6398
| 13> C 	 -137.631 	 67.6828 	 -61.5482
| 14> H 	 -138.004 	 66.8249 	 -61.0262
| 15> H 	 -138.046 	 67.5231 	 -62.5169
| 16> C 	 -138.205 	 68.8694 	 -60.7288
| 17> H 	 -138.14 	 69.8496 	 -61.3026
| 18> H 	 -139.289 	 68.8126 	 -60.5713
| 19> C 	 -137.622 	 68.9728 	 -59.3217
| 20> H 	 -138.216 	 69.6815 	 -58.6631
| 21> H 	 -137.528 	 67.9213 	 -58.8857
| 22> H 	 -136.593 	 69.2876 	 -59.2966
| 23> S 	 -131.668 	 65.9015 	 -61.1831
| 24> C 	 -130.737 	 65.4576 	 -59.7748
| 25> C 	 -131.124 	 66.0855 	 -58.6497
| 26> C 	 -132.373 	 66.7945 	 -58.8684
| 27> C 	 -132.801 	 66.7444 	 -60.2116
| 28> H 	 -130.62 	 66.0319 	 -57.6524
| 29> C 	 -133.083 	 67.5833 	 -57.788
| 30> H 	 -134.006 	 67.9398 	 -58.2246
| 31> H 	 -132.491 	 68.4668 	 -57.4668
| 32> C 	 -133.351 	 66.7339 	 -56.5254
| 33> H 	 -134.005 	 67.2845 	 -55.8412
| 34> H 	 -132.392 	 66.5278 	 -55.9472
| 35> C 	 -134.093 	 65.4497 	 -56.6618
| 36> H 	 -134.974 	 65.5892 	 -57.3374
| 37> H 	 -134.391 	 65.0392 	 -55.7752
| 38> H 	 -133.464 	 64.7817 	 -57.2343
| 39> H 	 -136.04 	 68.3259 	 -63.758
| 40> H 	 -129.809 	 64.8491 	 -59.8887
| 41> *
| 42>
| 43>                          ****END OF INPUT****

CARTESIAN COORDINATES (ANGSTROEM)
---------------------------------
  S    -133.814000   67.750300  -62.622900
  C    -135.493000   68.030000  -62.850300
  C    -136.129000   67.688900  -61.666600
  C    -135.253000   67.252300  -60.604400
  C    -133.911000   67.304700  -60.945400
  H    -135.505000   66.890200  -59.639800
  C    -137.631000   67.682800  -61.548200
  H    -138.004000   66.824900  -61.026200
  H    -138.046000   67.523100  -62.516900
  C    -138.205000   68.869400  -60.728800
  H    -138.140000   69.849600  -61.302600
  H    -139.289000   68.812600  -60.571300
  C    -137.622000   68.972800  -59.321700
  H    -138.216000   69.681500  -58.663100
  H    -137.528000   67.921300  -58.885700
  H    -136.593000   69.287600  -59.296600
  S    -131.668000   65.901500  -61.183100
  C    -130.737000   65.457600  -59.774800
  C    -131.124000   66.085500  -58.649700
  C    -132.373000   66.794500  -58.868400
  C    -132.801000   66.744400  -60.211600
  H    -130.620000   66.031900  -57.652400
  C    -133.083000   67.583300  -57.788000
  H    -134.006000   67.939800  -58.224600
  H    -132.491000   68.466800  -57.466800
  C    -133.351000   66.733900  -56.525400
  H    -134.005000   67.284500  -55.841200
  H    -132.392000   66.527800  -55.947200
  C    -134.093000   65.449700  -56.661800
  H    -134.974000   65.589200  -57.337400
  H    -134.391000   65.039200  -55.775200
  H    -133.464000   64.781700  -57.234300
  H    -136.040000   68.325900  -63.758000
  H    -129.809000   64.849100  -59.888700

 Total Charge           Charge          ....    0
 Multiplicity           Mult            ....    1
 Number of Electrons    NEL             ....  134
 Basis Dimension        Dim             ....  322

ORBITAL ENERGIES
----------------

  NO   OCC          E(Eh)            E(eV)
   0   2.0000     -88.966088     -2420.8903
   1   2.0000     -88.964619     -2420.8504
   2   2.0000     -10.330655      -281.1114
   3   2.0000     -10.327928      -281.0372
   4   2.0000     -10.318686      -280.7857
   5   2.0000     -10.316886      -280.7367
   6   2.0000     -10.307895      -280.4921
   7   2.0000     -10.302861      -280.3551
   8   2.0000     -10.300017      -280.2777
   9   2.0000     -10.294939      -280.1395
  10   2.0000     -10.293829      -280.1093
  11   2.0000     -10.291538      -280.0470
  12   2.0000     -10.288150      -279.9548
  13   2.0000     -10.287690      -279.9423
  14   2.0000     -10.284758      -279.8625
  15   2.0000     -10.267556      -279.3944
  16   2.0000      -8.081469      -219.9079
  17   2.0000      -8.080521      -219.8822
  18   2.0000      -6.040040      -164.3579
  19   2.0000      -6.039010      -164.3298
  20   2.0000      -6.035752      -164.2412
  21   2.0000      -6.034920      -164.2185
  22   2.0000      -6.032222      -164.1451
  23   2.0000      -6.031160      -164.1162
  24   2.0000      -1.015273       -27.6270
  25   2.0000      -0.990355       -26.9489
  26   2.0000      -0.914033       -24.8721
  27   2.0000      -0.910823       -24.7848
  28   2.0000      -0.877209       -23.8701
  29   2.0000      -0.853140       -23.2151
  30   2.0000      -0.840436       -22.8694
  31   2.0000      -0.823400       -22.4059
  32   2.0000      -0.785067       -21.3628
  33   2.0000      -0.772270       -21.0145
  34   2.0000      -0.705719       -19.2036
  35   2.0000      -0.697696       -18.9853
  36   2.0000      -0.690503       -18.7895
  37   2.0000      -0.660442       -17.9715
  38   2.0000      -0.643244       -17.5036
  39   2.0000      -0.617876       -16.8133
  40   2.0000      -0.596403       -16.2289
  41   2.0000      -0.573131       -15.5957
  42   2.0000      -0.560620       -15.2553
  43   2.0000      -0.552579       -15.0364
  44   2.0000      -0.548919       -14.9369
  45   2.0000      -0.539948       -14.6927
  46   2.0000      -0.515178       -14.0187
  47   2.0000      -0.513562       -13.9747
  48   2.0000      -0.507621       -13.8131
  49   2.0000      -0.501915       -13.6578
  50   2.0000      -0.497138       -13.5278
  51   2.0000      -0.477067       -12.9817
  52   2.0000      -0.471158       -12.8209
  53   2.0000      -0.465491       -12.6666
  54   2.0000      -0.460182       -12.5222
  55   2.0000      -0.450739       -12.2652
  56   2.0000      -0.445916       -12.1340
  57   2.0000      -0.443124       -12.0580
  58   2.0000      -0.429484       -11.6869
  59   2.0000      -0.424873       -11.5614
  60   2.0000      -0.417241       -11.3537
  61   2.0000      -0.407495       -11.0885
  62   2.0000      -0.403996       -10.9933
  63   2.0000      -0.363349        -9.8872
  64   2.0000      -0.333588        -9.0774
  65   2.0000      -0.325034        -8.8446
  66   2.0000      -0.288742        -7.8571
  67   0.0000       0.026598         0.7238
  68   0.0000       0.076165         2.0725
  69   0.0000       0.111381         3.0308
  70   0.0000       0.115008         3.1295
  71   0.0000       0.128346         3.4925

MULLIKEN ATOMIC CHARGES
-----------------------
   0 S :    0.099741
   1 C :   -0.109853
   2 C :   -0.098082
   3 C :    0.031615
   4 C :   -0.123130
   5 H :   -0.012387
   6 C :    0.090677
   7 H :    0.018796
   8 H :    0.008557
   9 C :   -0.079017
  10 H :    0.032871
  11 H :    0.029277
  12 C :   -0.087214
  13 H :    0.049853
  14 H :    0.026885
  15 H :    0.044320
  16 S :    0.100665
  17 C :   -0.101839
  18 C :   -0.021450
  19 C :   -0.095445
  20 C :   -0.141584
  21 H :    0.041614
  22 C :    0.114776
  23 H :    0.006714
  24 H :    0.048395
  25 C :   -0.136710
  26 H :    0.026033
  27 H :    0.034366
  28 C :    0.000608
  29 H :    0.018604
  30 H :    0.021470
  31 H :    0.026437
  32 H :    0.062969
  33 H :    0.071468
Sum of atomic charges:   -0.0000000

LOEWDIN ATOMIC CHARGES
----------------------
   0 S :    0.421059
   1 C :   -0.212077
   2 C :   -0.061825
   3 C :   -0.063312
   4 C :   -0.197143
   5 H :    0.020277
   6 C :   -0.033022
   7 H :    0.029268
   8 H :    0.025921
   9 C :   -0.046970
  10 H :    0.026627
  11 H :    0.023776
  12 C :   -0.074503
  13 H :    0.034729
  14 H :    0.027117
  15 H :    0.019926
  16 S :    0.418968
  17 C :   -0.186694
  18 C :   -0.074814
  19 C :   -0.057594
  20 C :   -0.206397
  21 H :    0.043826
  22 C :   -0.029381
  23 H :    0.026204
  24 H :    0.042018
  25 C :   -0.050560
  26 H :    0.023751
  27 H :    0.025538
  28 C :   -0.058000
  29 H :    0.026902
  30 H :    0.014343
  31 H :    0.023496
  32 H :    0.042328
  33 H :    0.036219

  Mayer bond orders larger than 0.100000
B(  0-S ,  1-C ) :   1.1372 B(  0-S ,  4-C ) :   1.1605 B(  1-C ,  2-C ) :   1.5914
B(  1-C , 32-H ) :   0.9691 B(  2-C ,  3-C ) :   1.2464 B(  2-C ,  6-C ) :   1.0328
B(  3-C ,  4-C ) :   1.5403 B(  3-C ,  5-H ) :   1.0004 B(  4-C , 20-C ) :   1.0635
B(  6-C ,  7-H ) :   0.9415 B(  6-C ,  8-H ) :   0.9406 B(  6-C ,  9-C ) :   1.0621
B(  9-C , 10-H ) :   0.9540 B(  9-C , 11-H ) :   0.9587 B(  9-C , 12-C ) :   1.0778
B( 12-C , 13-H ) :   0.9710 B( 12-C , 14-H ) :   0.9684 B( 12-C , 15-H ) :   0.9679
B( 16-S , 17-C ) :   1.1537 B( 16-S , 20-C ) :   1.1450 B( 17-C , 18-C ) :   1.6185
B( 17-C , 33-H ) :   0.9615 B( 18-C , 19-C ) :   1.2280 B( 18-C , 21-H ) :   0.9842
B( 19-C , 20-C ) :   1.5803 B( 19-C , 22-C ) :   1.0501 B( 22-C , 23-H ) :   0.9304
B( 22-C , 24-H ) :   0.9333 B( 22-C , 25-C ) :   1.0692 B( 25-C , 26-H ) :   0.9574
B( 25-C , 27-H ) :   0.9510 B( 25-C , 28-C ) :   1.0861 B( 28-C , 29-H ) :   0.9687
B( 28-C , 30-H ) :   0.9713 B( 28-C , 31-H ) :   0.9657

Dispersion correction           -0.015312810
FINAL SINGLE POINT ENERGY     -1339.879961251479

DIPOLE MOMENT
-------------
                                X             Y             Z
Electronic contribution:     19.22770      -3.54473     -21.25495
Nuclear contribution   :    -19.53720       3.51907      21.71274
                        -----------------------------------------
Total Dipole Moment    :     -0.30950      -0.02566       0.45779
                        -----------------------------------------
Magnitude (a.u.)       :      0.55319
Magnitude (Debye)      :      1.40609

Rotational constants in cm-1:     0.018801     0.010188     0.007079
Rotational constants in MHz :   563.645637   305.419906   212.209638

                             ****ORCA TERMINATED NORMALLY****
TOTAL RUN TIME: 0 days 0 hours 0 minutes 22 seconds 732 msec
