                         Program Version 4.2.1 -  RELEASE  -
|  1> ! wB97X-D3 SP def2-SVP
|  2> %pal
|  3> nprocs 24
|  4> end
|  5>
|  6> * xyz 0 1
|  7> S 	 -105.487 	 48.5061 	 -99.3921
|  8> C 	 -106.251 	 49.8829 	 -100.126
|  9> C 	 -105.394 	 50.504 	 -101.075
| 10> C 	 -104.153 	 49.7748 	 -101.2
| 11> C 	 -104.008 	 48.7633 	 -100.289
| 12> H 	 -103.317 	 50.0075 	 -101.87
| 13> C 	 -105.814 	 51.7155 	 -101.94
| 14> H 	 -106.78 	 52.0673 	 -101.62
| 15> H 	 -106.124 	 51.3655 	 -102.943
| 16> C 	 -104.85 	 52.8903 	 -102.112
| 17> H 	 -103.88 	 52.5075 	 -102.287
| 18> H 	 -105.093 	 53.6299 	 -102.899
| 19> C 	 -104.711 	 53.7298 	 -100.775
| 20> H 	 -104.299 	 54.7794 	 -100.999
| 21> H 	 -105.64 	 53.8043 	 -100.168
| 22> H 	 -103.999 	 53.1213 	 -100.158
| 23> S 	 -103.123 	 46.2847 	 -99.4752
| 24> C 	 -101.511 	 45.7877 	 -99.7156
| 25> C 	 -100.721 	 46.803 	 -100.273
| 26> C 	 -101.474 	 48.0303 	 -100.429
| 27> C 	 -102.791 	 47.9489 	 -100.028
| 28> H 	 -99.6914 	 46.6298 	 -100.59
| 29> C 	 -100.763 	 49.2224 	 -101.027
| 30> H 	 -101.348 	 49.6245 	 -101.874
| 31> H 	 -99.8761 	 48.8273 	 -101.53
| 32> C 	 -100.246 	 50.4013 	 -100.149
| 33> H 	 -99.4882 	 51.0827 	 -100.558
| 34> H 	 -99.7027 	 49.9805 	 -99.2609
| 35> C 	 -101.426 	 51.2383 	 -99.5432
| 36> H 	 -101.129 	 52.1909 	 -99.1436
| 37> H 	 -101.914 	 50.7133 	 -98.6977
| 38> H 	 -102.067 	 51.4266 	 -100.432
| 39> H 	 -107.212 	 50.2459 	 -99.9199
| 40> H 	 -101.083 	 44.7798 	 -99.5065
| 41> *
| 42>
| 43>                          ****END OF INPUT****

CARTESIAN COORDINATES (ANGSTROEM)
---------------------------------
  S    -105.487000   48.506100  -99.392100
  C    -106.251000   49.882900  -100.126000
  C    -105.394000   50.504000  -101.075000
  C    -104.153000   49.774800  -101.200000
  C    -104.008000   48.763300  -100.289000
  H    -103.317000   50.007500  -101.870000
  C    -105.814000   51.715500  -101.940000
  H    -106.780000   52.067300  -101.620000
  H    -106.124000   51.365500  -102.943000
  C    -104.850000   52.890300  -102.112000
  H    -103.880000   52.507500  -102.287000
  H    -105.093000   53.629900  -102.899000
  C    -104.711000   53.729800  -100.775000
  H    -104.299000   54.779400  -100.999000
  H    -105.640000   53.804300  -100.168000
  H    -103.999000   53.121300  -100.158000
  S    -103.123000   46.284700  -99.475200
  C    -101.511000   45.787700  -99.715600
  C    -100.721000   46.803000  -100.273000
  C    -101.474000   48.030300  -100.429000
  C    -102.791000   47.948900  -100.028000
  H    -99.691400   46.629800  -100.590000
  C    -100.763000   49.222400  -101.027000
  H    -101.348000   49.624500  -101.874000
  H    -99.876100   48.827300  -101.530000
  C    -100.246000   50.401300  -100.149000
  H    -99.488200   51.082700  -100.558000
  H    -99.702700   49.980500  -99.260900
  C    -101.426000   51.238300  -99.543200
  H    -101.129000   52.190900  -99.143600
  H    -101.914000   50.713300  -98.697700
  H    -102.067000   51.426600  -100.432000
  H    -107.212000   50.245900  -99.919900
  H    -101.083000   44.779800  -99.506500

 Total Charge           Charge          ....    0
 Multiplicity           Mult            ....    1
 Number of Electrons    NEL             ....  134
 Basis Dimension        Dim             ....  322

ORBITAL ENERGIES
----------------

  NO   OCC          E(Eh)            E(eV)
   0   2.0000     -88.969649     -2420.9872
   1   2.0000     -88.968073     -2420.9443
   2   2.0000     -10.334455      -281.2148
   3   2.0000     -10.333764      -281.1960
   4   2.0000     -10.323325      -280.9120
   5   2.0000     -10.315361      -280.6952
   6   2.0000     -10.311930      -280.6019
   7   2.0000     -10.310575      -280.5650
   8   2.0000     -10.300081      -280.2794
   9   2.0000     -10.298369      -280.2329
  10   2.0000     -10.296393      -280.1791
  11   2.0000     -10.296337      -280.1776
  12   2.0000     -10.293514      -280.1008
  13   2.0000     -10.289002      -279.9780
  14   2.0000     -10.285701      -279.8882
  15   2.0000     -10.275545      -279.6118
  16   2.0000      -8.084335      -219.9860
  17   2.0000      -8.083188      -219.9547
  18   2.0000      -6.042925      -164.4364
  19   2.0000      -6.041759      -164.4046
  20   2.0000      -6.038812      -164.3244
  21   2.0000      -6.037532      -164.2896
  22   2.0000      -6.035068      -164.2226
  23   2.0000      -6.033980      -164.1929
  24   2.0000      -1.007612       -27.4185
  25   2.0000      -0.984722       -26.7956
  26   2.0000      -0.906081       -24.6557
  27   2.0000      -0.904717       -24.6186
  28   2.0000      -0.865854       -23.5611
  29   2.0000      -0.850020       -23.1302
  30   2.0000      -0.841653       -22.9025
  31   2.0000      -0.813138       -22.1266
  32   2.0000      -0.780180       -21.2298
  33   2.0000      -0.771215       -20.9858
  34   2.0000      -0.706663       -19.2293
  35   2.0000      -0.694559       -18.8999
  36   2.0000      -0.689762       -18.7694
  37   2.0000      -0.663979       -18.0678
  38   2.0000      -0.642351       -17.4793
  39   2.0000      -0.624936       -17.0054
  40   2.0000      -0.593231       -16.1426
  41   2.0000      -0.568009       -15.4563
  42   2.0000      -0.549008       -14.9393
  43   2.0000      -0.546799       -14.8792
  44   2.0000      -0.540542       -14.7089
  45   2.0000      -0.532953       -14.5024
  46   2.0000      -0.515874       -14.0377
  47   2.0000      -0.506861       -13.7924
  48   2.0000      -0.505824       -13.7642
  49   2.0000      -0.499068       -13.5803
  50   2.0000      -0.489184       -13.3114
  51   2.0000      -0.475928       -12.9507
  52   2.0000      -0.473562       -12.8863
  53   2.0000      -0.465014       -12.6537
  54   2.0000      -0.459752       -12.5105
  55   2.0000      -0.450080       -12.2473
  56   2.0000      -0.440236       -11.9794
  57   2.0000      -0.435345       -11.8463
  58   2.0000      -0.429713       -11.6931
  59   2.0000      -0.425721       -11.5845
  60   2.0000      -0.415552       -11.3077
  61   2.0000      -0.411520       -11.1980
  62   2.0000      -0.406720       -11.0674
  63   2.0000      -0.359901        -9.7934
  64   2.0000      -0.335387        -9.1263
  65   2.0000      -0.328963        -8.9515
  66   2.0000      -0.285461        -7.7678
  67   0.0000       0.020863         0.5677
  68   0.0000       0.078784         2.1438
  69   0.0000       0.096111         2.6153
  70   0.0000       0.111666         3.0386
  71   0.0000       0.129115         3.5134

MULLIKEN ATOMIC CHARGES
-----------------------
   0 S :    0.109613
   1 C :   -0.085297
   2 C :   -0.102902
   3 C :    0.004062
   4 C :   -0.115272
   5 H :    0.007320
   6 C :    0.074878
   7 H :    0.000869
   8 H :    0.039069
   9 C :   -0.054252
  10 H :    0.020053
  11 H :    0.038226
  12 C :   -0.121075
  13 H :    0.050724
  14 H :    0.039010
  15 H :    0.048465
  16 S :    0.092309
  17 C :   -0.092706
  18 C :   -0.042842
  19 C :   -0.082461
  20 C :   -0.080874
  21 H :    0.028177
  22 C :    0.037916
  23 H :    0.034214
  24 H :    0.013700
  25 C :   -0.066614
  26 H :    0.037649
  27 H :    0.026706
  28 C :   -0.074361
  29 H :    0.025599
  30 H :    0.057511
  31 H :    0.029521
  32 H :    0.028264
  33 H :    0.074803
Sum of atomic charges:   -0.0000000

LOEWDIN ATOMIC CHARGES
----------------------
   0 S :    0.410020
   1 C :   -0.194286
   2 C :   -0.053423
   3 C :   -0.070176
   4 C :   -0.188057
   5 H :    0.029123
   6 C :   -0.035091
   7 H :    0.024464
   8 H :    0.037849
   9 C :   -0.040365
  10 H :    0.015033
  11 H :    0.029275
  12 C :   -0.079288
  13 H :    0.032712
  14 H :    0.024143
  15 H :    0.029982
  16 S :    0.411311
  17 C :   -0.201409
  18 C :   -0.074993
  19 C :   -0.057391
  20 C :   -0.183691
  21 H :    0.034723
  22 C :   -0.037181
  23 H :    0.027679
  24 H :    0.032857
  25 C :   -0.043463
  26 H :    0.027170
  27 H :    0.026688
  28 C :   -0.070710
  29 H :    0.019745
  30 H :    0.034202
  31 H :    0.022890
  32 H :    0.018029
  33 H :    0.041629

  Mayer bond orders larger than 0.100000
B(  0-S ,  1-C ) :   1.1420 B(  0-S ,  4-C ) :   1.1468 B(  1-C ,  2-C ) :   1.6020
B(  1-C , 32-H ) :   0.9733 B(  2-C ,  3-C ) :   1.2394 B(  2-C ,  6-C ) :   1.0211
B(  3-C ,  4-C ) :   1.5999 B(  3-C ,  5-H ) :   0.9788 B(  4-C , 20-C ) :   1.0330
B(  6-C ,  7-H ) :   0.9402 B(  6-C ,  8-H ) :   0.9374 B(  6-C ,  9-C ) :   1.0665
B(  9-C , 10-H ) :   0.9628 B(  9-C , 11-H ) :   0.9594 B(  9-C , 12-C ) :   1.0524
B( 12-C , 13-H ) :   0.9772 B( 12-C , 14-H ) :   0.9782 B( 12-C , 15-H ) :   0.9789
B( 16-S , 17-C ) :   1.1811 B( 16-S , 20-C ) :   1.1189 B( 17-C , 18-C ) :   1.5913
B( 17-C , 33-H ) :   0.9597 B( 18-C , 19-C ) :   1.2595 B( 18-C , 21-H ) :   0.9880
B( 19-C , 20-C ) :   1.6084 B( 19-C , 22-C ) :   1.0322 B( 22-C , 23-H ) :   0.9388
B( 22-C , 24-H ) :   0.9249 B( 22-C , 25-C ) :   1.0643 B( 25-C , 26-H ) :   0.9594
B( 25-C , 27-H ) :   0.9533 B( 25-C , 28-C ) :   1.0704 B( 28-C , 29-H ) :   0.9733
B( 28-C , 30-H ) :   0.9769 B( 28-C , 31-H ) :   0.9699

Dispersion correction           -0.016003295
FINAL SINGLE POINT ENERGY     -1339.876773210901

DIPOLE MOMENT
-------------
                                X             Y             Z
Electronic contribution:     -8.20559     -28.31348       7.64343
Nuclear contribution   :      8.58546      28.65363      -8.04889
                        -----------------------------------------
Total Dipole Moment    :      0.37987       0.34014      -0.40546
                        -----------------------------------------
Magnitude (a.u.)       :      0.65146
Magnitude (Debye)      :      1.65587

Rotational constants in cm-1:     0.020337     0.009851     0.007273
Rotational constants in MHz :   609.676009   295.338528   218.044753

                             ****ORCA TERMINATED NORMALLY****
TOTAL RUN TIME: 0 days 0 hours 0 minutes 21 seconds 856 msec
