                         Program Version 4.2.1 -  RELEASE  -
|  1> ! wB97X-D3 SP def2-SVP
|  2> %pal
|  3> nprocs 24
|  4> end
|  5>
|  6> * xyz 0 1
|  7> S 	 -36.6513 	 -7.48288 	 11.5096
|  8> C 	 -35.7254 	 -6.89939 	 12.8766
|  9> C 	 -36.4043 	 -5.87183 	 13.5253
| 10> C 	 -37.7301 	 -5.61809 	 13.0545
| 11> C 	 -38.0879 	 -6.44877 	 12.0204
| 12> H 	 -38.5113 	 -5.02041 	 13.4115
| 13> C 	 -35.82 	 -5.02116 	 14.662
| 14> H 	 -35.3848 	 -5.63115 	 15.431
| 15> H 	 -36.7804 	 -4.58099 	 15.0646
| 16> C 	 -34.891 	 -3.83683 	 14.2597
| 17> H 	 -34.5426 	 -3.29869 	 15.1563
| 18> H 	 -33.9881 	 -4.27253 	 13.8639
| 19> C 	 -35.3821 	 -2.88035 	 13.2448
| 20> H 	 -35.7054 	 -3.36667 	 12.3422
| 21> H 	 -36.2867 	 -2.3314 	 13.6235
| 22> H 	 -34.5918 	 -2.10697 	 13.1234
| 23> S 	 -40.4812 	 -7.92656 	 11.9129
| 24> C 	 -41.8996 	 -7.19464 	 11.2952
| 25> C 	 -41.6432 	 -5.95234 	 10.7395
| 26> C 	 -40.266 	 -5.6166 	 11.0047
| 27> C 	 -39.4629 	 -6.55907 	 11.558
| 28> H 	 -42.4542 	 -5.4999 	 10.1683
| 29> C 	 -39.7848 	 -4.24618 	 10.5636
| 30> H 	 -38.8213 	 -4.1292 	 10.9402
| 31> H 	 -40.3955 	 -3.40728 	 10.9727
| 32> C 	 -39.6562 	 -3.98166 	 9.11971
| 33> H 	 -40.585 	 -4.06334 	 8.53824
| 34> H 	 -38.9319 	 -4.65556 	 8.70302
| 35> C 	 -39.1691 	 -2.5879 	 8.7248
| 36> H 	 -38.9521 	 -2.52665 	 7.66119
| 37> H 	 -38.1829 	 -2.47735 	 9.27517
| 38> H 	 -39.8293 	 -1.66669 	 8.90401
| 39> H 	 -34.7046 	 -7.22714 	 13.1412
| 40> H 	 -42.8938 	 -7.62123 	 11.4065
| 41> *
| 42>
| 43>                          ****END OF INPUT****

CARTESIAN COORDINATES (ANGSTROEM)
---------------------------------
  S    -36.651300   -7.482880   11.509600
  C    -35.725400   -6.899390   12.876600
  C    -36.404300   -5.871830   13.525300
  C    -37.730100   -5.618090   13.054500
  C    -38.087900   -6.448770   12.020400
  H    -38.511300   -5.020410   13.411500
  C    -35.820000   -5.021160   14.662000
  H    -35.384800   -5.631150   15.431000
  H    -36.780400   -4.580990   15.064600
  C    -34.891000   -3.836830   14.259700
  H    -34.542600   -3.298690   15.156300
  H    -33.988100   -4.272530   13.863900
  C    -35.382100   -2.880350   13.244800
  H    -35.705400   -3.366670   12.342200
  H    -36.286700   -2.331400   13.623500
  H    -34.591800   -2.106970   13.123400
  S    -40.481200   -7.926560   11.912900
  C    -41.899600   -7.194640   11.295200
  C    -41.643200   -5.952340   10.739500
  C    -40.266000   -5.616600   11.004700
  C    -39.462900   -6.559070   11.558000
  H    -42.454200   -5.499900   10.168300
  C    -39.784800   -4.246180   10.563600
  H    -38.821300   -4.129200   10.940200
  H    -40.395500   -3.407280   10.972700
  C    -39.656200   -3.981660    9.119710
  H    -40.585000   -4.063340    8.538240
  H    -38.931900   -4.655560    8.703020
  C    -39.169100   -2.587900    8.724800
  H    -38.952100   -2.526650    7.661190
  H    -38.182900   -2.477350    9.275170
  H    -39.829300   -1.666690    8.904010
  H    -34.704600   -7.227140   13.141200
  H    -42.893800   -7.621230   11.406500

 Total Charge           Charge          ....    0
 Multiplicity           Mult            ....    1
 Number of Electrons    NEL             ....  134
 Basis Dimension        Dim             ....  322

ORBITAL ENERGIES
----------------

  NO   OCC          E(Eh)            E(eV)
   0   2.0000     -88.969972     -2420.9960
   1   2.0000     -88.962563     -2420.7944
   2   2.0000     -10.336335      -281.2660
   3   2.0000     -10.324284      -280.9381
   4   2.0000     -10.322192      -280.8811
   5   2.0000     -10.318076      -280.7691
   6   2.0000     -10.305527      -280.4276
   7   2.0000     -10.303206      -280.3645
   8   2.0000     -10.296031      -280.1692
   9   2.0000     -10.295079      -280.1434
  10   2.0000     -10.294505      -280.1277
  11   2.0000     -10.283698      -279.8336
  12   2.0000     -10.283546      -279.8295
  13   2.0000     -10.278774      -279.6997
  14   2.0000     -10.277174      -279.6561
  15   2.0000     -10.277010      -279.6517
  16   2.0000      -8.083160      -219.9540
  17   2.0000      -8.078505      -219.8273
  18   2.0000      -6.041853      -164.4072
  19   2.0000      -6.037906      -164.2998
  20   2.0000      -6.036939      -164.2735
  21   2.0000      -6.033787      -164.1877
  22   2.0000      -6.032772      -164.1601
  23   2.0000      -6.029305      -164.0657
  24   2.0000      -1.010382       -27.4939
  25   2.0000      -0.983629       -26.7659
  26   2.0000      -0.915951       -24.9243
  27   2.0000      -0.908486       -24.7212
  28   2.0000      -0.876961       -23.8633
  29   2.0000      -0.851032       -23.1578
  30   2.0000      -0.847502       -23.0617
  31   2.0000      -0.819425       -22.2977
  32   2.0000      -0.780225       -21.2310
  33   2.0000      -0.769494       -20.9390
  34   2.0000      -0.705261       -19.1911
  35   2.0000      -0.696477       -18.9521
  36   2.0000      -0.689578       -18.7644
  37   2.0000      -0.660351       -17.9691
  38   2.0000      -0.647247       -17.6125
  39   2.0000      -0.615496       -16.7485
  40   2.0000      -0.597312       -16.2537
  41   2.0000      -0.572674       -15.5833
  42   2.0000      -0.569632       -15.5005
  43   2.0000      -0.553708       -15.0672
  44   2.0000      -0.549470       -14.9518
  45   2.0000      -0.522069       -14.2062
  46   2.0000      -0.521032       -14.1780
  47   2.0000      -0.513858       -13.9828
  48   2.0000      -0.508935       -13.8488
  49   2.0000      -0.501528       -13.6473
  50   2.0000      -0.489074       -13.3084
  51   2.0000      -0.476525       -12.9669
  52   2.0000      -0.472707       -12.8630
  53   2.0000      -0.463469       -12.6116
  54   2.0000      -0.455049       -12.3825
  55   2.0000      -0.449732       -12.2378
  56   2.0000      -0.443080       -12.0568
  57   2.0000      -0.436776       -11.8853
  58   2.0000      -0.426637       -11.6094
  59   2.0000      -0.424808       -11.5596
  60   2.0000      -0.417574       -11.3628
  61   2.0000      -0.404670       -11.0116
  62   2.0000      -0.404432       -11.0052
  63   2.0000      -0.349123        -9.5001
  64   2.0000      -0.329425        -8.9641
  65   2.0000      -0.328125        -8.9287
  66   2.0000      -0.302189        -8.2230
  67   0.0000       0.031859         0.8669
  68   0.0000       0.059767         1.6263
  69   0.0000       0.108790         2.9603
  70   0.0000       0.121579         3.3083
  71   0.0000       0.125797         3.4231

MULLIKEN ATOMIC CHARGES
-----------------------
   0 S :    0.104306
   1 C :   -0.116620
   2 C :   -0.104528
   3 C :    0.071312
   4 C :   -0.189060
   5 H :    0.008785
   6 C :    0.058375
   7 H :    0.031829
   8 H :    0.021273
   9 C :   -0.048463
  10 H :    0.029367
  11 H :    0.013040
  12 C :   -0.062702
  13 H :    0.047424
  14 H :    0.023806
  15 H :    0.042545
  16 S :    0.109553
  17 C :   -0.104837
  18 C :   -0.025930
  19 C :   -0.063441
  20 C :   -0.128814
  21 H :    0.033820
  22 C :    0.115729
  23 H :   -0.014930
  24 H :    0.025375
  25 C :   -0.061162
  26 H :    0.021616
  27 H :    0.023684
  28 C :   -0.097984
  29 H :    0.035113
  30 H :    0.030869
  31 H :    0.044027
  32 H :    0.062399
  33 H :    0.064225
Sum of atomic charges:   -0.0000000

LOEWDIN ATOMIC CHARGES
----------------------
   0 S :    0.367661
   1 C :   -0.193955
   2 C :   -0.069075
   3 C :   -0.046062
   4 C :   -0.164982
   5 H :    0.030072
   6 C :   -0.032109
   7 H :    0.028128
   8 H :    0.032238
   9 C :   -0.045000
  10 H :    0.027118
  11 H :    0.018621
  12 C :   -0.067794
  13 H :    0.024342
  14 H :    0.025532
  15 H :    0.034681
  16 S :    0.423363
  17 C :   -0.186420
  18 C :   -0.076456
  19 C :   -0.050637
  20 C :   -0.213405
  21 H :    0.039584
  22 C :   -0.035069
  23 H :    0.016775
  24 H :    0.034116
  25 C :   -0.043615
  26 H :    0.020345
  27 H :    0.025266
  28 C :   -0.075478
  29 H :    0.025408
  30 H :    0.027279
  31 H :    0.029720
  32 H :    0.037556
  33 H :    0.032250

  Mayer bond orders larger than 0.100000
B(  0-S ,  1-C ) :   1.1307 B(  0-S ,  4-C ) :   1.1171 B(  1-C ,  2-C ) :   1.6212
B(  1-C , 32-H ) :   0.9666 B(  2-C ,  3-C ) :   1.2131 B(  2-C ,  6-C ) :   1.0105
B(  3-C ,  4-C ) :   1.6033 B(  3-C ,  5-H ) :   0.9952 B(  4-C , 20-C ) :   1.0437
B(  6-C ,  7-H ) :   0.9452 B(  6-C ,  8-H ) :   0.9439 B(  6-C ,  9-C ) :   1.0661
B(  9-C , 10-H ) :   0.9537 B(  9-C , 11-H ) :   0.9514 B(  9-C , 12-C ) :   1.0908
B( 12-C , 13-H ) :   0.9712 B( 12-C , 14-H ) :   0.9729 B( 12-C , 15-H ) :   0.9690
B( 16-S , 17-C ) :   1.1895 B( 16-S , 20-C ) :   1.1132 B( 17-C , 18-C ) :   1.5938
B( 17-C , 33-H ) :   0.9647 B( 18-C , 19-C ) :   1.2159 B( 18-C , 21-H ) :   0.9990
B( 19-C , 20-C ) :   1.6218 B( 19-C , 22-C ) :   1.0526 B( 22-C , 23-H ) :   0.9146
B( 22-C , 24-H ) :   0.9319 B( 22-C , 25-C ) :   1.0848 B( 25-C , 26-H ) :   0.9508
B( 25-C , 27-H ) :   0.9469 B( 25-C , 28-C ) :   1.0863 B( 28-C , 29-H ) :   0.9734
B( 28-C , 30-H ) :   0.9735 B( 28-C , 31-H ) :   0.9731

Dispersion correction           -0.014568858
FINAL SINGLE POINT ENERGY     -1339.867502782470

DIPOLE MOMENT
-------------
                                X             Y             Z
Electronic contribution:     -7.81971     -27.51119       1.52896
Nuclear contribution   :      7.77895      28.03173      -1.36776
                        -----------------------------------------
Total Dipole Moment    :     -0.04076       0.52055       0.16120
                        -----------------------------------------
Magnitude (a.u.)       :      0.54646
Magnitude (Debye)      :      1.38898

Rotational constants in cm-1:     0.017076     0.009345     0.007125
Rotational constants in MHz :   511.921855   280.143131   213.588648

                             ****ORCA TERMINATED NORMALLY****
TOTAL RUN TIME: 0 days 0 hours 0 minutes 21 seconds 872 msec
