                         Program Version 4.2.1 -  RELEASE  -
|  1> ! wB97X-D3 SP def2-SVP
|  2> %pal
|  3> nprocs 24
|  4> end
|  5>
|  6> * xyz 0 1
|  7> S 	 -57.5867 	 5.3263 	 -21.2771
|  8> C 	 -57.2428 	 3.78351 	 -20.489
|  9> C 	 -55.8649 	 3.51059 	 -20.5254
| 10> C 	 -55.1051 	 4.56529 	 -21.1418
| 11> C 	 -55.8917 	 5.63552 	 -21.5683
| 12> H 	 -54.057 	 4.61443 	 -21.3683
| 13> C 	 -55.1964 	 2.27583 	 -20.0146
| 14> H 	 -56.0534 	 1.50565 	 -20.1185
| 15> H 	 -54.8442 	 2.4754 	 -19.0017
| 16> C 	 -54.2 	 1.60532 	 -20.9728
| 17> H 	 -54.5678 	 1.41748 	 -21.9689
| 18> H 	 -53.3492 	 2.25308 	 -21.1697
| 19> C 	 -53.8175 	 0.243461 	 -20.4457
| 20> H 	 -53.394 	 0.253827 	 -19.4597
| 21> H 	 -54.6438 	 -0.421283 	 -20.3441
| 22> H 	 -53.2188 	 -0.218173 	 -21.2316
| 23> S 	 -53.6779 	 7.08946 	 -22.1857
| 24> C 	 -53.8279 	 8.44186 	 -23.3464
| 25> C 	 -55.1664 	 8.7987 	 -23.5212
| 26> C 	 -56.0119 	 7.94355 	 -22.8139
| 27> C 	 -55.393 	 6.8331 	 -22.2173
| 28> H 	 -55.3714 	 9.65311 	 -24.1597
| 29> C 	 -57.5586 	 8.20852 	 -23.0452
| 30> H 	 -57.612 	 9.25329 	 -23.2649
| 31> H 	 -58.1442 	 8.04502 	 -22.0982
| 32> C 	 -58.3249 	 7.41203 	 -24.1102
| 33> H 	 -57.9522 	 6.44742 	 -24.1381
| 34> H 	 -58.1065 	 7.85137 	 -25.1204
| 35> C 	 -59.864 	 7.39161 	 -23.8097
| 36> H 	 -60.1168 	 6.59061 	 -23.1183
| 37> H 	 -60.5191 	 7.31054 	 -24.703
| 38> H 	 -60.1788 	 8.30997 	 -23.3347
| 39> H 	 -57.9882 	 3.17155 	 -20.0737
| 40> H 	 -53.0923 	 8.95144 	 -23.9059
| 41> *
| 42>
| 43>                          ****END OF INPUT****

CARTESIAN COORDINATES (ANGSTROEM)
---------------------------------
  S    -57.586700    5.326300  -21.277100
  C    -57.242800    3.783510  -20.489000
  C    -55.864900    3.510590  -20.525400
  C    -55.105100    4.565290  -21.141800
  C    -55.891700    5.635520  -21.568300
  H    -54.057000    4.614430  -21.368300
  C    -55.196400    2.275830  -20.014600
  H    -56.053400    1.505650  -20.118500
  H    -54.844200    2.475400  -19.001700
  C    -54.200000    1.605320  -20.972800
  H    -54.567800    1.417480  -21.968900
  H    -53.349200    2.253080  -21.169700
  C    -53.817500    0.243461  -20.445700
  H    -53.394000    0.253827  -19.459700
  H    -54.643800   -0.421283  -20.344100
  H    -53.218800   -0.218173  -21.231600
  S    -53.677900    7.089460  -22.185700
  C    -53.827900    8.441860  -23.346400
  C    -55.166400    8.798700  -23.521200
  C    -56.011900    7.943550  -22.813900
  C    -55.393000    6.833100  -22.217300
  H    -55.371400    9.653110  -24.159700
  C    -57.558600    8.208520  -23.045200
  H    -57.612000    9.253290  -23.264900
  H    -58.144200    8.045020  -22.098200
  C    -58.324900    7.412030  -24.110200
  H    -57.952200    6.447420  -24.138100
  H    -58.106500    7.851370  -25.120400
  C    -59.864000    7.391610  -23.809700
  H    -60.116800    6.590610  -23.118300
  H    -60.519100    7.310540  -24.703000
  H    -60.178800    8.309970  -23.334700
  H    -57.988200    3.171550  -20.073700
  H    -53.092300    8.951440  -23.905900

 Total Charge           Charge          ....    0
 Multiplicity           Mult            ....    1
 Number of Electrons    NEL             ....  134
 Basis Dimension        Dim             ....  322

ORBITAL ENERGIES
----------------

  NO   OCC          E(Eh)            E(eV)
   0   2.0000     -88.970764     -2421.0176
   1   2.0000     -88.969832     -2420.9922
   2   2.0000     -10.334002      -281.2025
   3   2.0000     -10.331612      -281.1374
   4   2.0000     -10.317353      -280.7495
   5   2.0000     -10.314640      -280.6756
   6   2.0000     -10.306137      -280.4443
   7   2.0000     -10.305500      -280.4269
   8   2.0000     -10.297387      -280.2061
   9   2.0000     -10.294776      -280.1351
  10   2.0000     -10.293368      -280.0968
  11   2.0000     -10.292677      -280.0780
  12   2.0000     -10.284987      -279.8687
  13   2.0000     -10.281906      -279.7849
  14   2.0000     -10.277040      -279.6525
  15   2.0000     -10.272344      -279.5247
  16   2.0000      -8.084707      -219.9961
  17   2.0000      -8.083491      -219.9630
  18   2.0000      -6.043320      -164.4471
  19   2.0000      -6.042083      -164.4134
  20   2.0000      -6.039379      -164.3398
  21   2.0000      -6.038109      -164.3053
  22   2.0000      -6.035368      -164.2307
  23   2.0000      -6.034301      -164.2017
  24   2.0000      -1.007062       -27.4035
  25   2.0000      -0.982071       -26.7235
  26   2.0000      -0.916715       -24.9451
  27   2.0000      -0.900434       -24.5021
  28   2.0000      -0.875117       -23.8131
  29   2.0000      -0.854902       -23.2631
  30   2.0000      -0.840784       -22.8789
  31   2.0000      -0.814265       -22.1573
  32   2.0000      -0.779447       -21.2098
  33   2.0000      -0.767519       -20.8852
  34   2.0000      -0.714575       -19.4446
  35   2.0000      -0.700885       -19.0721
  36   2.0000      -0.692666       -18.8484
  37   2.0000      -0.672735       -18.3061
  38   2.0000      -0.636893       -17.3307
  39   2.0000      -0.616104       -16.7650
  40   2.0000      -0.591858       -16.1053
  41   2.0000      -0.576595       -15.6899
  42   2.0000      -0.567181       -15.4338
  43   2.0000      -0.559782       -15.2324
  44   2.0000      -0.536587       -14.6013
  45   2.0000      -0.523137       -14.2353
  46   2.0000      -0.513842       -13.9824
  47   2.0000      -0.510865       -13.9013
  48   2.0000      -0.502786       -13.6815
  49   2.0000      -0.499526       -13.5928
  50   2.0000      -0.484509       -13.1842
  51   2.0000      -0.482665       -13.1340
  52   2.0000      -0.475532       -12.9399
  53   2.0000      -0.473708       -12.8902
  54   2.0000      -0.461415       -12.5557
  55   2.0000      -0.451501       -12.2860
  56   2.0000      -0.441602       -12.0166
  57   2.0000      -0.434256       -11.8167
  58   2.0000      -0.432182       -11.7603
  59   2.0000      -0.423079       -11.5126
  60   2.0000      -0.415076       -11.2948
  61   2.0000      -0.412329       -11.2201
  62   2.0000      -0.405256       -11.0276
  63   2.0000      -0.362099        -9.8532
  64   2.0000      -0.335697        -9.1348
  65   2.0000      -0.331463        -9.0196
  66   2.0000      -0.277463        -7.5502
  67   0.0000       0.011284         0.3070
  68   0.0000       0.084168         2.2903
  69   0.0000       0.105471         2.8700
  70   0.0000       0.119990         3.2651
  71   0.0000       0.129145         3.5142

MULLIKEN ATOMIC CHARGES
-----------------------
   0 S :    0.095421
   1 C :   -0.103672
   2 C :   -0.057439
   3 C :   -0.033051
   4 C :   -0.091700
   5 H :    0.018537
   6 C :    0.026084
   7 H :    0.034498
   8 H :    0.059319
   9 C :   -0.083932
  10 H :    0.025967
  11 H :    0.028543
  12 C :   -0.014824
  13 H :    0.026875
  14 H :    0.012807
  15 H :    0.032823
  16 S :    0.090886
  17 C :   -0.068773
  18 C :   -0.049551
  19 C :   -0.047437
  20 C :   -0.113176
  21 H :    0.028208
  22 C :    0.000479
  23 H :    0.018513
  24 H :    0.037703
  25 C :   -0.013223
  26 H :    0.013305
  27 H :    0.027387
  28 C :   -0.067409
  29 H :    0.036321
  30 H :    0.037337
  31 H :    0.025117
  32 H :    0.030913
  33 H :    0.037143
Sum of atomic charges:    0.0000000

LOEWDIN ATOMIC CHARGES
----------------------
   0 S :    0.413442
   1 C :   -0.192747
   2 C :   -0.056446
   3 C :   -0.077675
   4 C :   -0.182217
   5 H :    0.020263
   6 C :   -0.038371
   7 H :    0.043892
   8 H :    0.037719
   9 C :   -0.041423
  10 H :    0.027673
  11 H :    0.018860
  12 C :   -0.059826
  13 H :    0.022594
  14 H :    0.019976
  15 H :    0.030558
  16 S :    0.408754
  17 C :   -0.170831
  18 C :   -0.066463
  19 C :   -0.063680
  20 C :   -0.192907
  21 H :    0.037822
  22 C :   -0.037183
  23 H :    0.024777
  24 H :    0.026176
  25 C :   -0.037356
  26 H :    0.009397
  27 H :    0.026741
  28 C :   -0.067416
  29 H :    0.024537
  30 H :    0.029830
  31 H :    0.021024
  32 H :    0.018515
  33 H :    0.021991

  Mayer bond orders larger than 0.100000
B(  0-S ,  1-C ) :   1.1240 B(  0-S ,  4-C ) :   1.1439 B(  1-C ,  2-C ) :   1.6010
B(  1-C , 32-H ) :   0.9783 B(  2-C ,  3-C ) :   1.2379 B(  2-C ,  6-C ) :   1.0149
B(  3-C ,  4-C ) :   1.5427 B(  3-C ,  5-H ) :   0.9823 B(  4-C , 20-C ) :   1.1144
B(  6-C ,  7-H ) :   0.9524 B(  6-C ,  8-H ) :   0.9369 B(  6-C ,  9-C ) :   1.0614
B(  9-C , 10-H ) :   0.9570 B(  9-C , 11-H ) :   0.9476 B(  9-C , 12-C ) :   1.0940
B( 12-C , 13-H ) :   0.9725 B( 12-C , 14-H ) :   0.9707 B( 12-C , 15-H ) :   0.9720
B( 16-S , 17-C ) :   1.1414 B( 16-S , 20-C ) :   1.1424 B( 17-C , 18-C ) :   1.6131
B( 17-C , 20-C ) :   0.1055 B( 17-C , 33-H ) :   0.9697 B( 18-C , 19-C ) :   1.2599
B( 18-C , 21-H ) :   0.9898 B( 19-C , 20-C ) :   1.5335 B( 19-C , 22-C ) :   1.0358
B( 22-C , 23-H ) :   0.9328 B( 22-C , 24-H ) :   0.9445 B( 22-C , 25-C ) :   1.0512
B( 25-C , 26-H ) :   0.9595 B( 25-C , 27-H ) :   0.9569 B( 25-C , 28-C ) :   1.0667
B( 28-C , 29-H ) :   0.9747 B( 28-C , 30-H ) :   0.9759 B( 28-C , 31-H ) :   0.9784

Dispersion correction           -0.013898739
FINAL SINGLE POINT ENERGY     -1339.864069783084

DIPOLE MOMENT
-------------
                                X             Y             Z
Electronic contribution:      6.57306      12.64844       3.20523
Nuclear contribution   :     -6.57224     -12.84864      -3.40084
                        -----------------------------------------
Total Dipole Moment    :      0.00082      -0.20019      -0.19561
                        -----------------------------------------
Magnitude (a.u.)       :      0.27990
Magnitude (Debye)      :      0.71144

Rotational constants in cm-1:     0.020095     0.008323     0.006273
Rotational constants in MHz :   602.418913   249.526186   188.073053

                             ****ORCA TERMINATED NORMALLY****
TOTAL RUN TIME: 0 days 0 hours 0 minutes 20 seconds 165 msec
