                         Program Version 4.2.1 -  RELEASE  -
|  1> ! wB97X-D3 SP def2-SVP
|  2> %pal
|  3> nprocs 24
|  4> end
|  5>
|  6> * xyz 0 1
|  7> S 	 -59.3933 	 15.008 	 -90.5902
|  8> C 	 -58.0424 	 16.0027 	 -90.0822
|  9> C 	 -56.8828 	 15.4335 	 -90.4329
| 10> C 	 -57.0294 	 14.2155 	 -91.2012
| 11> C 	 -58.3493 	 13.6967 	 -91.1126
| 12> H 	 -56.2859 	 13.6179 	 -91.7325
| 13> C 	 -55.5156 	 16.0529 	 -90.1746
| 14> H 	 -54.7897 	 15.2716 	 -89.9153
| 15> H 	 -55.601 	 16.7226 	 -89.2437
| 16> C 	 -54.8507 	 16.8376 	 -91.3327
| 17> H 	 -55.579 	 17.6287 	 -91.4789
| 18> H 	 -53.9243 	 17.3027 	 -90.9516
| 19> C 	 -54.5416 	 16.0223 	 -92.5943
| 20> H 	 -55.3612 	 15.4767 	 -93.0213
| 21> H 	 -54.0632 	 16.5511 	 -93.42
| 22> H 	 -53.7846 	 15.348 	 -92.2191
| 23> S 	 -59.924 	 12.552 	 -92.9366
| 24> C 	 -60.0714 	 10.7611 	 -93.0616
| 25> C 	 -59.0992 	 10.1801 	 -92.2102
| 26> C 	 -58.4054 	 11.1806 	 -91.4004
| 27> C 	 -58.8972 	 12.4405 	 -91.5738
| 28> H 	 -58.902 	 9.15277 	 -92.084
| 29> C 	 -57.206 	 10.8493 	 -90.5416
| 30> H 	 -57.4214 	 10.1289 	 -89.7862
| 31> H 	 -57.0485 	 11.6644 	 -89.8538
| 32> C 	 -55.911 	 10.4941 	 -91.3081
| 33> H 	 -55.5893 	 11.398 	 -91.8287
| 34> H 	 -56.0265 	 9.69095 	 -92.0168
| 35> C 	 -54.7602 	 10.1722 	 -90.348
| 36> H 	 -54.836 	 9.14331 	 -89.9734
| 37> H 	 -54.6754 	 10.9234 	 -89.5112
| 38> H 	 -53.8343 	 10.2633 	 -90.8267
| 39> H 	 -58.1776 	 16.9072 	 -89.5402
| 40> H 	 -60.5798 	 10.2142 	 -93.8956
| 41> *
| 42>
| 43>                          ****END OF INPUT****

CARTESIAN COORDINATES (ANGSTROEM)
---------------------------------
  S    -59.393300   15.008000  -90.590200
  C    -58.042400   16.002700  -90.082200
  C    -56.882800   15.433500  -90.432900
  C    -57.029400   14.215500  -91.201200
  C    -58.349300   13.696700  -91.112600
  H    -56.285900   13.617900  -91.732500
  C    -55.515600   16.052900  -90.174600
  H    -54.789700   15.271600  -89.915300
  H    -55.601000   16.722600  -89.243700
  C    -54.850700   16.837600  -91.332700
  H    -55.579000   17.628700  -91.478900
  H    -53.924300   17.302700  -90.951600
  C    -54.541600   16.022300  -92.594300
  H    -55.361200   15.476700  -93.021300
  H    -54.063200   16.551100  -93.420000
  H    -53.784600   15.348000  -92.219100
  S    -59.924000   12.552000  -92.936600
  C    -60.071400   10.761100  -93.061600
  C    -59.099200   10.180100  -92.210200
  C    -58.405400   11.180600  -91.400400
  C    -58.897200   12.440500  -91.573800
  H    -58.902000    9.152770  -92.084000
  C    -57.206000   10.849300  -90.541600
  H    -57.421400   10.128900  -89.786200
  H    -57.048500   11.664400  -89.853800
  C    -55.911000   10.494100  -91.308100
  H    -55.589300   11.398000  -91.828700
  H    -56.026500    9.690950  -92.016800
  C    -54.760200   10.172200  -90.348000
  H    -54.836000    9.143310  -89.973400
  H    -54.675400   10.923400  -89.511200
  H    -53.834300   10.263300  -90.826700
  H    -58.177600   16.907200  -89.540200
  H    -60.579800   10.214200  -93.895600

 Total Charge           Charge          ....    0
 Multiplicity           Mult            ....    1
 Number of Electrons    NEL             ....  134
 Basis Dimension        Dim             ....  322

ORBITAL ENERGIES
----------------

  NO   OCC          E(Eh)            E(eV)
   0   2.0000     -88.965410     -2420.8719
   1   2.0000     -88.961417     -2420.7632
   2   2.0000     -10.332901      -281.1725
   3   2.0000     -10.330898      -281.1180
   4   2.0000     -10.321526      -280.8630
   5   2.0000     -10.310013      -280.5497
   6   2.0000     -10.303290      -280.3668
   7   2.0000     -10.301799      -280.3262
   8   2.0000     -10.301491      -280.3178
   9   2.0000     -10.301238      -280.3109
  10   2.0000     -10.298731      -280.2427
  11   2.0000     -10.289432      -279.9897
  12   2.0000     -10.288966      -279.9770
  13   2.0000     -10.285715      -279.8885
  14   2.0000     -10.278895      -279.7030
  15   2.0000     -10.276562      -279.6395
  16   2.0000      -8.080172      -219.8727
  17   2.0000      -8.076469      -219.7719
  18   2.0000      -6.038800      -164.3241
  19   2.0000      -6.035018      -164.2212
  20   2.0000      -6.034751      -164.2139
  21   2.0000      -6.030958      -164.1107
  22   2.0000      -6.030687      -164.1033
  23   2.0000      -6.027127      -164.0065
  24   2.0000      -1.008919       -27.4541
  25   2.0000      -0.983484       -26.7620
  26   2.0000      -0.910183       -24.7673
  27   2.0000      -0.907987       -24.7076
  28   2.0000      -0.871974       -23.7276
  29   2.0000      -0.851269       -23.1642
  30   2.0000      -0.840362       -22.8674
  31   2.0000      -0.815307       -22.1856
  32   2.0000      -0.783432       -21.3183
  33   2.0000      -0.773425       -21.0460
  34   2.0000      -0.705776       -19.2051
  35   2.0000      -0.699220       -19.0268
  36   2.0000      -0.698133       -18.9972
  37   2.0000      -0.669552       -18.2194
  38   2.0000      -0.645086       -17.5537
  39   2.0000      -0.610001       -16.5990
  40   2.0000      -0.595476       -16.2037
  41   2.0000      -0.576386       -15.6843
  42   2.0000      -0.567920       -15.4539
  43   2.0000      -0.547021       -14.8852
  44   2.0000      -0.538832       -14.6624
  45   2.0000      -0.528022       -14.3682
  46   2.0000      -0.520505       -14.1637
  47   2.0000      -0.513185       -13.9645
  48   2.0000      -0.511773       -13.9260
  49   2.0000      -0.500351       -13.6152
  50   2.0000      -0.490163       -13.3380
  51   2.0000      -0.479212       -13.0400
  52   2.0000      -0.471297       -12.8246
  53   2.0000      -0.464118       -12.6293
  54   2.0000      -0.459631       -12.5072
  55   2.0000      -0.450878       -12.2690
  56   2.0000      -0.440611       -11.9896
  57   2.0000      -0.436777       -11.8853
  58   2.0000      -0.431721       -11.7477
  59   2.0000      -0.423698       -11.5294
  60   2.0000      -0.419876       -11.4254
  61   2.0000      -0.418065       -11.3761
  62   2.0000      -0.413007       -11.2385
  63   2.0000      -0.345833        -9.4106
  64   2.0000      -0.327835        -8.9208
  65   2.0000      -0.323540        -8.8040
  66   2.0000      -0.298761        -8.1297
  67   0.0000       0.027020         0.7352
  68   0.0000       0.063487         1.7276
  69   0.0000       0.102053         2.7770
  70   0.0000       0.120699         3.2844
  71   0.0000       0.124566         3.3896

MULLIKEN ATOMIC CHARGES
-----------------------
   0 S :    0.096938
   1 C :   -0.105946
   2 C :   -0.065028
   3 C :    0.035396
   4 C :   -0.193706
   5 H :    0.020852
   6 C :    0.012288
   7 H :    0.020705
   8 H :    0.037916
   9 C :   -0.048449
  10 H :    0.019552
  11 H :    0.035496
  12 C :   -0.049975
  13 H :    0.044734
  14 H :    0.038131
  15 H :    0.018256
  16 S :    0.099318
  17 C :   -0.106783
  18 C :   -0.008090
  19 C :   -0.060319
  20 C :   -0.108459
  21 H :    0.009506
  22 C :    0.068718
  23 H :    0.010278
  24 H :    0.014179
  25 C :   -0.058168
  26 H :    0.021448
  27 H :    0.031093
  28 C :   -0.044417
  29 H :    0.037531
  30 H :    0.032730
  31 H :    0.019482
  32 H :    0.040039
  33 H :    0.084749
Sum of atomic charges:   -0.0000000

LOEWDIN ATOMIC CHARGES
----------------------
   0 S :    0.396032
   1 C :   -0.184799
   2 C :   -0.069676
   3 C :   -0.060852
   4 C :   -0.189193
   5 H :    0.029623
   6 C :   -0.036436
   7 H :    0.023734
   8 H :    0.038658
   9 C :   -0.037989
  10 H :    0.017586
  11 H :    0.027884
  12 C :   -0.067730
  13 H :    0.024565
  14 H :    0.030124
  15 H :    0.024760
  16 S :    0.406785
  17 C :   -0.181407
  18 C :   -0.055803
  19 C :   -0.052293
  20 C :   -0.218064
  21 H :    0.023694
  22 C :   -0.037771
  23 H :    0.025814
  24 H :    0.031061
  25 C :   -0.031690
  26 H :    0.021653
  27 H :    0.022429
  28 C :   -0.063596
  29 H :    0.026273
  30 H :    0.031192
  31 H :    0.017716
  32 H :    0.025457
  33 H :    0.042259

  Mayer bond orders larger than 0.100000
B(  0-S ,  1-C ) :   1.1238 B(  0-S ,  4-C ) :   1.1574 B(  1-C ,  2-C ) :   1.6350
B(  1-C , 32-H ) :   0.9757 B(  2-C ,  3-C ) :   1.2072 B(  2-C ,  6-C ) :   1.0252
B(  3-C ,  4-C ) :   1.5623 B(  3-C ,  5-H ) :   0.9867 B(  4-C , 20-C ) :   1.0222
B(  6-C ,  7-H ) :   0.9401 B(  6-C ,  8-H ) :   0.9451 B(  6-C ,  9-C ) :   1.0641
B(  9-C , 10-H ) :   0.9547 B(  9-C , 11-H ) :   0.9564 B(  9-C , 12-C ) :   1.0731
B( 12-C , 13-H ) :   0.9717 B( 12-C , 14-H ) :   0.9724 B( 12-C , 15-H ) :   0.9742
B( 16-S , 17-C ) :   1.1416 B( 16-S , 20-C ) :   1.1494 B( 17-C , 18-C ) :   1.5941
B( 17-C , 33-H ) :   0.9634 B( 18-C , 19-C ) :   1.2347 B( 18-C , 21-H ) :   0.9942
B( 19-C , 20-C ) :   1.6197 B( 19-C , 22-C ) :   1.0580 B( 22-C , 23-H ) :   0.9313
B( 22-C , 24-H ) :   0.9217 B( 22-C , 25-C ) :   1.0554 B( 25-C , 26-H ) :   0.9521
B( 25-C , 27-H ) :   0.9566 B( 25-C , 28-C ) :   1.0890 B( 28-C , 29-H ) :   0.9751
B( 28-C , 30-H ) :   0.9726 B( 28-C , 31-H ) :   0.9743

Dispersion correction           -0.014825530
FINAL SINGLE POINT ENERGY     -1339.868487636070

DIPOLE MOMENT
-------------
                                X             Y             Z
Electronic contribution:    -29.05853       2.09420      -3.20473
Nuclear contribution   :     29.86264      -2.32996       3.18590
                        -----------------------------------------
Total Dipole Moment    :      0.80411      -0.23576      -0.01883
                        -----------------------------------------
Magnitude (a.u.)       :      0.83817
Magnitude (Debye)      :      2.13046

Rotational constants in cm-1:     0.016826     0.009882     0.007365
Rotational constants in MHz :   504.426716   296.262879   220.791422

                             ****ORCA TERMINATED NORMALLY****
TOTAL RUN TIME: 0 days 0 hours 0 minutes 22 seconds 300 msec
