                         Program Version 4.2.1 -  RELEASE  -
|  1> ! wB97X-D3 SP def2-SVP
|  2> %pal
|  3> nprocs 24
|  4> end
|  5>
|  6> * xyz 0 1
|  7> S 	 -31.8067 	 -5.06223 	 -4.20724
|  8> C 	 -30.4357 	 -5.99727 	 -4.58317
|  9> C 	 -30.0558 	 -5.74697 	 -5.86792
| 10> C 	 -30.8906 	 -4.81548 	 -6.57198
| 11> C 	 -32.0202 	 -4.41857 	 -5.82002
| 12> H 	 -30.7533 	 -4.41401 	 -7.54894
| 13> C 	 -28.8157 	 -6.3203 	 -6.46986
| 14> H 	 -28.0387 	 -6.3615 	 -5.72794
| 15> H 	 -28.4287 	 -5.55153 	 -7.20784
| 16> C 	 -29.0168 	 -7.61805 	 -7.32808
| 17> H 	 -29.6252 	 -8.30105 	 -6.74155
| 18> H 	 -29.6826 	 -7.50412 	 -8.1748
| 19> C 	 -27.6753 	 -8.1645 	 -7.72174
| 20> H 	 -27.7113 	 -9.15307 	 -8.10195
| 21> H 	 -27.1465 	 -7.50364 	 -8.37499
| 22> H 	 -27.0701 	 -8.30365 	 -6.82554
| 23> S 	 -34.2764 	 -3.23884 	 -4.95696
| 24> C 	 -35.0754 	 -2.00788 	 -5.93626
| 25> C 	 -34.5373 	 -2.1347 	 -7.19756
| 26> C 	 -33.4782 	 -3.06492 	 -7.43599
| 27> C 	 -33.1767 	 -3.66017 	 -6.17568
| 28> H 	 -35.0548 	 -1.60112 	 -8.05738
| 29> C 	 -32.8039 	 -3.20735 	 -8.73534
| 30> H 	 -33.5419 	 -2.99105 	 -9.42342
| 31> H 	 -32.5697 	 -4.24843 	 -8.9128
| 32> C 	 -31.4932 	 -2.47962 	 -9.03448
| 33> H 	 -30.7124 	 -2.61923 	 -8.26447
| 34> H 	 -31.7277 	 -1.42284 	 -9.06162
| 35> C 	 -30.8865 	 -3.0485 	 -10.3703
| 36> H 	 -30.1751 	 -2.32183 	 -10.7554
| 37> H 	 -31.7537 	 -3.04171 	 -11.0666
| 38> H 	 -30.4626 	 -4.03781 	 -10.3377
| 39> H 	 -29.8572 	 -6.75361 	 -4.007
| 40> H 	 -35.8986 	 -1.51359 	 -5.54764
| 41> *
| 42>
| 43>                          ****END OF INPUT****

CARTESIAN COORDINATES (ANGSTROEM)
---------------------------------
  S    -31.806700   -5.062230   -4.207240
  C    -30.435700   -5.997270   -4.583170
  C    -30.055800   -5.746970   -5.867920
  C    -30.890600   -4.815480   -6.571980
  C    -32.020200   -4.418570   -5.820020
  H    -30.753300   -4.414010   -7.548940
  C    -28.815700   -6.320300   -6.469860
  H    -28.038700   -6.361500   -5.727940
  H    -28.428700   -5.551530   -7.207840
  C    -29.016800   -7.618050   -7.328080
  H    -29.625200   -8.301050   -6.741550
  H    -29.682600   -7.504120   -8.174800
  C    -27.675300   -8.164500   -7.721740
  H    -27.711300   -9.153070   -8.101950
  H    -27.146500   -7.503640   -8.374990
  H    -27.070100   -8.303650   -6.825540
  S    -34.276400   -3.238840   -4.956960
  C    -35.075400   -2.007880   -5.936260
  C    -34.537300   -2.134700   -7.197560
  C    -33.478200   -3.064920   -7.435990
  C    -33.176700   -3.660170   -6.175680
  H    -35.054800   -1.601120   -8.057380
  C    -32.803900   -3.207350   -8.735340
  H    -33.541900   -2.991050   -9.423420
  H    -32.569700   -4.248430   -8.912800
  C    -31.493200   -2.479620   -9.034480
  H    -30.712400   -2.619230   -8.264470
  H    -31.727700   -1.422840   -9.061620
  C    -30.886500   -3.048500  -10.370300
  H    -30.175100   -2.321830  -10.755400
  H    -31.753700   -3.041710  -11.066600
  H    -30.462600   -4.037810  -10.337700
  H    -29.857200   -6.753610   -4.007000
  H    -35.898600   -1.513590   -5.547640

 Total Charge           Charge          ....    0
 Multiplicity           Mult            ....    1
 Number of Electrons    NEL             ....  134
 Basis Dimension        Dim             ....  322

ORBITAL ENERGIES
----------------

  NO   OCC          E(Eh)            E(eV)
   0   2.0000     -88.964424     -2420.8450
   1   2.0000     -88.963691     -2420.8251
   2   2.0000     -10.330711      -281.1129
   3   2.0000     -10.328541      -281.0539
   4   2.0000     -10.316091      -280.7151
   5   2.0000     -10.309268      -280.5295
   6   2.0000     -10.304822      -280.4085
   7   2.0000     -10.301222      -280.3105
   8   2.0000     -10.293981      -280.1135
   9   2.0000     -10.293388      -280.0973
  10   2.0000     -10.293209      -280.0925
  11   2.0000     -10.291770      -280.0533
  12   2.0000     -10.286199      -279.9017
  13   2.0000     -10.286088      -279.8987
  14   2.0000     -10.284902      -279.8664
  15   2.0000     -10.271574      -279.5037
  16   2.0000      -8.080325      -219.8768
  17   2.0000      -8.079108      -219.8437
  18   2.0000      -6.038743      -164.3225
  19   2.0000      -6.037659      -164.2931
  20   2.0000      -6.034569      -164.2090
  21   2.0000      -6.033408      -164.1774
  22   2.0000      -6.031202      -164.1173
  23   2.0000      -6.029879      -164.0813
  24   2.0000      -1.014480       -27.6054
  25   2.0000      -0.989555       -26.9272
  26   2.0000      -0.919549       -25.0222
  27   2.0000      -0.912073       -24.8188
  28   2.0000      -0.876555       -23.8523
  29   2.0000      -0.855764       -23.2865
  30   2.0000      -0.847763       -23.0688
  31   2.0000      -0.817490       -22.2450
  32   2.0000      -0.783357       -21.3162
  33   2.0000      -0.770316       -20.9614
  34   2.0000      -0.714311       -19.4374
  35   2.0000      -0.707736       -19.2585
  36   2.0000      -0.702344       -19.1117
  37   2.0000      -0.669552       -18.2194
  38   2.0000      -0.635152       -17.2834
  39   2.0000      -0.621467       -16.9110
  40   2.0000      -0.606081       -16.4923
  41   2.0000      -0.575338       -15.6558
  42   2.0000      -0.567077       -15.4310
  43   2.0000      -0.553561       -15.0632
  44   2.0000      -0.531871       -14.4730
  45   2.0000      -0.527159       -14.3447
  46   2.0000      -0.524374       -14.2689
  47   2.0000      -0.520384       -14.1604
  48   2.0000      -0.509895       -13.8749
  49   2.0000      -0.504575       -13.7302
  50   2.0000      -0.494605       -13.4589
  51   2.0000      -0.490760       -13.3543
  52   2.0000      -0.477247       -12.9865
  53   2.0000      -0.466007       -12.6807
  54   2.0000      -0.460836       -12.5400
  55   2.0000      -0.449001       -12.2179
  56   2.0000      -0.446165       -12.1408
  57   2.0000      -0.439636       -11.9631
  58   2.0000      -0.432066       -11.7571
  59   2.0000      -0.429773       -11.6947
  60   2.0000      -0.421017       -11.4565
  61   2.0000      -0.415276       -11.3002
  62   2.0000      -0.404466       -11.0061
  63   2.0000      -0.367233        -9.9929
  64   2.0000      -0.333015        -9.0618
  65   2.0000      -0.323818        -8.8115
  66   2.0000      -0.277601        -7.5539
  67   0.0000       0.011932         0.3247
  68   0.0000       0.096752         2.6328
  69   0.0000       0.100546         2.7360
  70   0.0000       0.114839         3.1249
  71   0.0000       0.133832         3.6418

MULLIKEN ATOMIC CHARGES
-----------------------
   0 S :    0.102554
   1 C :   -0.100137
   2 C :   -0.093799
   3 C :    0.035727
   4 C :   -0.123934
   5 H :   -0.036080
   6 C :    0.016493
   7 H :    0.021176
   8 H :    0.024557
   9 C :   -0.051838
  10 H :    0.014734
  11 H :    0.021745
  12 C :    0.001352
  13 H :    0.024343
  14 H :    0.026900
  15 H :    0.016288
  16 S :    0.091071
  17 C :   -0.075844
  18 C :   -0.042410
  19 C :   -0.057031
  20 C :   -0.101320
  21 H :    0.035155
  22 C :    0.074017
  23 H :    0.001053
  24 H :    0.018775
  25 C :   -0.073566
  26 H :    0.043735
  27 H :    0.028276
  28 C :   -0.055360
  29 H :    0.039947
  30 H :    0.028900
  31 H :    0.046540
  32 H :    0.057429
  33 H :    0.040551
Sum of atomic charges:   -0.0000000

LOEWDIN ATOMIC CHARGES
----------------------
   0 S :    0.420539
   1 C :   -0.221854
   2 C :   -0.072574
   3 C :   -0.065932
   4 C :   -0.184139
   5 H :    0.021680
   6 C :   -0.034030
   7 H :    0.025304
   8 H :    0.035268
   9 C :   -0.039272
  10 H :    0.020363
  11 H :    0.023269
  12 C :   -0.060555
  13 H :    0.022944
  14 H :    0.022976
  15 H :    0.026364
  16 S :    0.423674
  17 C :   -0.177347
  18 C :   -0.071733
  19 C :   -0.059179
  20 C :   -0.204951
  21 H :    0.037240
  22 C :   -0.038466
  23 H :    0.024914
  24 H :    0.032198
  25 C :   -0.035077
  26 H :    0.024938
  27 H :    0.024726
  28 C :   -0.063575
  29 H :    0.028618
  30 H :    0.027996
  31 H :    0.023930
  32 H :    0.044717
  33 H :    0.017027

  Mayer bond orders larger than 0.100000
B(  0-S ,  1-C ) :   1.1346 B(  0-S ,  4-C ) :   1.1530 B(  1-C ,  2-C ) :   1.6033
B(  1-C , 32-H ) :   0.9615 B(  2-C ,  3-C ) :   1.2653 B(  2-C ,  6-C ) :   1.0294
B(  3-C ,  4-C ) :   1.5121 B(  3-C ,  5-H ) :   0.9917 B(  4-C , 20-C ) :   1.1268
B(  6-C ,  7-H ) :   0.9513 B(  6-C ,  8-H ) :   0.9409 B(  6-C ,  9-C ) :   1.0447
B(  9-C , 10-H ) :   0.9556 B(  9-C , 11-H ) :   0.9531 B(  9-C , 12-C ) :   1.0848
B( 12-C , 13-H ) :   0.9700 B( 12-C , 14-H ) :   0.9739 B( 12-C , 15-H ) :   0.9714
B( 16-S , 17-C ) :   1.1401 B( 16-S , 20-C ) :   1.1719 B( 17-C , 18-C ) :   1.5565
B( 17-C , 20-C ) :   0.1003 B( 17-C , 33-H ) :   0.9902 B( 18-C , 19-C ) :   1.2944
B( 18-C , 21-H ) :   0.9714 B( 19-C , 20-C ) :   1.4851 B( 19-C , 22-C ) :   1.0632
B( 22-C , 23-H ) :   0.9106 B( 22-C , 24-H ) :   0.9260 B( 22-C , 25-C ) :   1.0545
B( 25-C , 26-H ) :   0.9550 B( 25-C , 27-H ) :   0.9493 B( 25-C , 28-C ) :   1.0671
B( 28-C , 29-H ) :   0.9737 B( 28-C , 30-H ) :   0.9742 B( 28-C , 31-H ) :   0.9754

Dispersion correction           -0.014079450
FINAL SINGLE POINT ENERGY     -1339.868301309160

DIPOLE MOMENT
-------------
                                X             Y             Z
Electronic contribution:    -20.56171       7.54060      24.67584
Nuclear contribution   :     20.83100      -7.56397     -25.33901
                        -----------------------------------------
Total Dipole Moment    :      0.26928      -0.02337      -0.66317
                        -----------------------------------------
Magnitude (a.u.)       :      0.71614
Magnitude (Debye)      :      1.82029

Rotational constants in cm-1:     0.018935     0.009134     0.006408
Rotational constants in MHz :   567.647219   273.828062   192.114901

                             ****ORCA TERMINATED NORMALLY****
TOTAL RUN TIME: 0 days 0 hours 0 minutes 20 seconds 972 msec
