                         Program Version 4.2.1 -  RELEASE  -
|  1> ! wB97X-D3 SP def2-SVP
|  2> %pal
|  3> nprocs 24
|  4> end
|  5>
|  6> * xyz 0 1
|  7> S 	 45.5629 	 -14.4733 	 -107.323
|  8> C 	 46.0239 	 -14.9784 	 -108.959
|  9> C 	 45.058 	 -14.577 	 -109.865
| 10> C 	 44.0955 	 -13.7851 	 -109.22
| 11> C 	 44.285 	 -13.4513 	 -107.933
| 12> H 	 43.268 	 -13.3124 	 -109.789
| 13> C 	 45.0704 	 -14.7865 	 -111.353
| 14> H 	 44.1537 	 -15.3019 	 -111.582
| 15> H 	 45.8746 	 -15.4774 	 -111.707
| 16> C 	 45.297 	 -13.5539 	 -112.367
| 17> H 	 44.8848 	 -12.5665 	 -112.158
| 18> H 	 46.3734 	 -13.3529 	 -112.561
| 19> C 	 44.7613 	 -14.0059 	 -113.803
| 20> H 	 44.7287 	 -13.1445 	 -114.452
| 21> H 	 45.4912 	 -14.5974 	 -114.411
| 22> H 	 43.8005 	 -14.5129 	 -113.783
| 23> S 	 41.996 	 -13.3381 	 -106.32
| 24> C 	 41.503 	 -11.7608 	 -105.596
| 25> C 	 42.5247 	 -10.8909 	 -105.789
| 26> C 	 43.6783 	 -11.356 	 -106.556
| 27> C 	 43.4815 	 -12.6425 	 -107.026
| 28> H 	 42.4203 	 -9.85089 	 -105.373
| 29> C 	 44.9108 	 -10.527 	 -106.871
| 30> H 	 45.4139 	 -11.1302 	 -107.623
| 31> H 	 45.5388 	 -10.4892 	 -105.969
| 32> C 	 44.7137 	 -9.10635 	 -107.429
| 33> H 	 45.7147 	 -8.66364 	 -107.517
| 34> H 	 44.1628 	 -8.5201 	 -106.719
| 35> C 	 43.9452 	 -9.07217 	 -108.74
| 36> H 	 44.0294 	 -8.09466 	 -109.096
| 37> H 	 42.8819 	 -9.11849 	 -108.44
| 38> H 	 44.2804 	 -9.76215 	 -109.532
| 39> H 	 46.9095 	 -15.5959 	 -109.179
| 40> H 	 40.6474 	 -11.3896 	 -105.047
| 41> *
| 42>
| 43>                          ****END OF INPUT****

CARTESIAN COORDINATES (ANGSTROEM)
---------------------------------
  S     45.562900  -14.473300  -107.323000
  C     46.023900  -14.978400  -108.959000
  C     45.058000  -14.577000  -109.865000
  C     44.095500  -13.785100  -109.220000
  C     44.285000  -13.451300  -107.933000
  H     43.268000  -13.312400  -109.789000
  C     45.070400  -14.786500  -111.353000
  H     44.153700  -15.301900  -111.582000
  H     45.874600  -15.477400  -111.707000
  C     45.297000  -13.553900  -112.367000
  H     44.884800  -12.566500  -112.158000
  H     46.373400  -13.352900  -112.561000
  C     44.761300  -14.005900  -113.803000
  H     44.728700  -13.144500  -114.452000
  H     45.491200  -14.597400  -114.411000
  H     43.800500  -14.512900  -113.783000
  S     41.996000  -13.338100  -106.320000
  C     41.503000  -11.760800  -105.596000
  C     42.524700  -10.890900  -105.789000
  C     43.678300  -11.356000  -106.556000
  C     43.481500  -12.642500  -107.026000
  H     42.420300   -9.850890  -105.373000
  C     44.910800  -10.527000  -106.871000
  H     45.413900  -11.130200  -107.623000
  H     45.538800  -10.489200  -105.969000
  C     44.713700   -9.106350  -107.429000
  H     45.714700   -8.663640  -107.517000
  H     44.162800   -8.520100  -106.719000
  C     43.945200   -9.072170  -108.740000
  H     44.029400   -8.094660  -109.096000
  H     42.881900   -9.118490  -108.440000
  H     44.280400   -9.762150  -109.532000
  H     46.909500  -15.595900  -109.179000
  H     40.647400  -11.389600  -105.047000

 Total Charge           Charge          ....    0
 Multiplicity           Mult            ....    1
 Number of Electrons    NEL             ....  134
 Basis Dimension        Dim             ....  322

ORBITAL ENERGIES
----------------

  NO   OCC          E(Eh)            E(eV)
   0   2.0000     -88.963330     -2420.8153
   1   2.0000     -88.961759     -2420.7725
   2   2.0000     -10.328863      -281.0626
   3   2.0000     -10.325433      -280.9693
   4   2.0000     -10.319650      -280.8120
   5   2.0000     -10.319478      -280.8073
   6   2.0000     -10.306063      -280.4422
   7   2.0000     -10.302384      -280.3421
   8   2.0000     -10.301594      -280.3206
   9   2.0000     -10.300564      -280.2926
  10   2.0000     -10.296357      -280.1781
  11   2.0000     -10.291262      -280.0395
  12   2.0000     -10.288592      -279.9668
  13   2.0000     -10.283813      -279.8368
  14   2.0000     -10.283448      -279.8268
  15   2.0000     -10.271654      -279.5059
  16   2.0000      -8.076580      -219.7749
  17   2.0000      -8.076522      -219.7733
  18   2.0000      -6.035463      -164.2333
  19   2.0000      -6.035011      -164.2210
  20   2.0000      -6.031327      -164.1208
  21   2.0000      -6.031060      -164.1135
  22   2.0000      -6.027246      -164.0097
  23   2.0000      -6.026946      -164.0015
  24   2.0000      -1.007081       -27.4041
  25   2.0000      -0.980206       -26.6728
  26   2.0000      -0.907394       -24.6914
  27   2.0000      -0.902281       -24.5523
  28   2.0000      -0.869132       -23.6503
  29   2.0000      -0.844904       -22.9910
  30   2.0000      -0.842193       -22.9172
  31   2.0000      -0.818133       -22.2625
  32   2.0000      -0.781271       -21.2595
  33   2.0000      -0.771130       -20.9835
  34   2.0000      -0.710154       -19.3243
  35   2.0000      -0.702027       -19.1031
  36   2.0000      -0.694497       -18.8982
  37   2.0000      -0.653633       -17.7863
  38   2.0000      -0.638271       -17.3682
  39   2.0000      -0.620106       -16.8740
  40   2.0000      -0.591067       -16.0837
  41   2.0000      -0.568324       -15.4649
  42   2.0000      -0.553733       -15.0678
  43   2.0000      -0.552195       -15.0260
  44   2.0000      -0.541284       -14.7291
  45   2.0000      -0.527771       -14.3614
  46   2.0000      -0.519620       -14.1396
  47   2.0000      -0.511961       -13.9312
  48   2.0000      -0.506190       -13.7741
  49   2.0000      -0.497392       -13.5347
  50   2.0000      -0.485311       -13.2060
  51   2.0000      -0.474976       -12.9248
  52   2.0000      -0.467816       -12.7299
  53   2.0000      -0.461156       -12.5487
  54   2.0000      -0.456449       -12.4206
  55   2.0000      -0.444279       -12.0894
  56   2.0000      -0.444083       -12.0841
  57   2.0000      -0.433967       -11.8088
  58   2.0000      -0.431351       -11.7377
  59   2.0000      -0.424883       -11.5617
  60   2.0000      -0.423395       -11.5212
  61   2.0000      -0.410740       -11.1768
  62   2.0000      -0.410226       -11.1628
  63   2.0000      -0.334271        -9.0960
  64   2.0000      -0.328366        -8.9353
  65   2.0000      -0.320814        -8.7298
  66   2.0000      -0.315576        -8.5873
  67   0.0000       0.039229         1.0675
  68   0.0000       0.056748         1.5442
  69   0.0000       0.113736         3.0949
  70   0.0000       0.119037         3.2392
  71   0.0000       0.132316         3.6005

MULLIKEN ATOMIC CHARGES
-----------------------
   0 S :    0.100337
   1 C :   -0.136206
   2 C :   -0.048573
   3 C :    0.029088
   4 C :   -0.182987
   5 H :    0.020117
   6 C :    0.046203
   7 H :    0.036630
   8 H :    0.030278
   9 C :   -0.078205
  10 H :    0.039445
  11 H :    0.039342
  12 C :   -0.093836
  13 H :    0.024781
  14 H :    0.034238
  15 H :    0.043357
  16 S :    0.102261
  17 C :   -0.076382
  18 C :   -0.068236
  19 C :   -0.022273
  20 C :   -0.170861
  21 H :    0.033743
  22 C :    0.078846
  23 H :    0.027358
  24 H :    0.044398
  25 C :   -0.085578
  26 H :    0.031603
  27 H :    0.019332
  28 C :   -0.025653
  29 H :    0.012841
  30 H :    0.037429
  31 H :    0.045142
  32 H :    0.057679
  33 H :    0.054342
Sum of atomic charges:   -0.0000000

LOEWDIN ATOMIC CHARGES
----------------------
   0 S :    0.394340
   1 C :   -0.180832
   2 C :   -0.075640
   3 C :   -0.058543
   4 C :   -0.202541
   5 H :    0.037028
   6 C :   -0.033222
   7 H :    0.031843
   8 H :    0.039079
   9 C :   -0.037313
  10 H :    0.021084
  11 H :    0.029854
  12 C :   -0.075327
  13 H :    0.024104
  14 H :    0.028369
  15 H :    0.022647
  16 S :    0.366705
  17 C :   -0.174530
  18 C :   -0.082046
  19 C :   -0.049771
  20 C :   -0.192241
  21 H :    0.036019
  22 C :   -0.032480
  23 H :    0.030506
  24 H :    0.037587
  25 C :   -0.039228
  26 H :    0.025521
  27 H :    0.018188
  28 C :   -0.064336
  29 H :    0.018458
  30 H :    0.033954
  31 H :    0.029560
  32 H :    0.033592
  33 H :    0.039612

  Mayer bond orders larger than 0.100000
B(  0-S ,  1-C ) :   1.1481 B(  0-S ,  4-C ) :   1.1342 B(  1-C ,  2-C ) :   1.5938
B(  1-C ,  4-C ) :   0.1014 B(  1-C , 32-H ) :   0.9676 B(  2-C ,  3-C ) :   1.2443
B(  2-C ,  6-C ) :   1.0298 B(  3-C ,  4-C ) :   1.6118 B(  3-C ,  5-H ) :   0.9921
B(  4-C , 20-C ) :   1.0120 B(  6-C ,  7-H ) :   0.9459 B(  6-C ,  8-H ) :   0.9464
B(  6-C ,  9-C ) :   1.0309 B(  9-C , 10-H ) :   0.9697 B(  9-C , 11-H ) :   0.9623
B(  9-C , 12-C ) :   1.0604 B( 12-C , 13-H ) :   0.9741 B( 12-C , 14-H ) :   0.9796
B( 12-C , 15-H ) :   0.9807 B( 16-S , 17-C ) :   1.1115 B( 16-S , 20-C ) :   1.1210
B( 17-C , 18-C ) :   1.6838 B( 17-C , 33-H ) :   0.9631 B( 18-C , 19-C ) :   1.1956
B( 18-C , 21-H ) :   0.9730 B( 19-C , 20-C ) :   1.6332 B( 19-C , 22-C ) :   1.0372
B( 22-C , 23-H ) :   0.9301 B( 22-C , 24-H ) :   0.9301 B( 22-C , 25-C ) :   1.0796
B( 25-C , 26-H ) :   0.9553 B( 25-C , 27-H ) :   0.9537 B( 25-C , 28-C ) :   1.0803
B( 28-C , 29-H ) :   0.9691 B( 28-C , 30-H ) :   0.9701 B( 28-C , 31-H ) :   0.9764

Dispersion correction           -0.014276212
FINAL SINGLE POINT ENERGY     -1339.866335775451

DIPOLE MOMENT
-------------
                                X             Y             Z
Electronic contribution:     -5.56058     -14.00797      23.87537
Nuclear contribution   :      5.72352      14.53836     -24.40206
                        -----------------------------------------
Total Dipole Moment    :      0.16294       0.53039      -0.52670
                        -----------------------------------------
Magnitude (a.u.)       :      0.76503
Magnitude (Debye)      :      1.94455

Rotational constants in cm-1:     0.018002     0.008255     0.007039
Rotational constants in MHz :   539.686936   247.479649   211.022114

                             ****ORCA TERMINATED NORMALLY****
TOTAL RUN TIME: 0 days 0 hours 0 minutes 20 seconds 190 msec
