                         Program Version 4.2.1 -  RELEASE  -
|  1> ! wB97X-D3 SP def2-SVP
|  2> %pal
|  3> nprocs 24
|  4> end
|  5>
|  6> * xyz 0 1
|  7> S 	 -56.6815 	 15.886 	 21.646
|  8> C 	 -57.2194 	 14.2193 	 21.3416
|  9> C 	 -56.1662 	 13.3893 	 21.536
| 10> C 	 -55.0144 	 14.0721 	 22.089
| 11> C 	 -55.1244 	 15.4352 	 22.2661
| 12> H 	 -54.1371 	 13.4744 	 22.3478
| 13> C 	 -56.1943 	 11.9121 	 21.2592
| 14> H 	 -56.8079 	 11.716 	 20.3938
| 15> H 	 -56.7968 	 11.3691 	 21.9864
| 16> C 	 -54.8492 	 11.1522 	 21.02
| 17> H 	 -54.3 	 11.7641 	 20.2578
| 18> H 	 -54.2954 	 11.1465 	 22.0352
| 19> C 	 -54.9158 	 9.66823 	 20.5401
| 20> H 	 -53.9214 	 9.30223 	 20.3639
| 21> H 	 -55.2194 	 8.94979 	 21.2967
| 22> H 	 -55.5115 	 9.51274 	 19.6161
| 23> S 	 -54.7645 	 17.153 	 24.3842
| 24> C 	 -53.1682 	 17.752 	 24.691
| 25> C 	 -52.2941 	 17.4192 	 23.7573
| 26> C 	 -52.8792 	 16.543 	 22.7391
| 27> C 	 -54.2118 	 16.2975 	 22.9561
| 28> H 	 -51.2799 	 17.7341 	 23.8543
| 29> C 	 -52.0822 	 16.0385 	 21.5935
| 30> H 	 -52.3533 	 14.9879 	 21.5348
| 31> H 	 -50.9979 	 15.9577 	 21.6754
| 32> C 	 -52.3912 	 16.8228 	 20.2908
| 33> H 	 -53.4084 	 17.0514 	 20.1247
| 34> H 	 -52.0648 	 16.298 	 19.3964
| 35> C 	 -51.6554 	 18.1967 	 20.2594
| 36> H 	 -52.0906 	 18.7315 	 21.0331
| 37> H 	 -51.8827 	 18.7041 	 19.3662
| 38> H 	 -50.6121 	 17.9707 	 20.2801
| 39> H 	 -58.1994 	 13.9225 	 20.9306
| 40> H 	 -52.8279 	 18.2599 	 25.5415
| 41> *
| 42>
| 43>                          ****END OF INPUT****

CARTESIAN COORDINATES (ANGSTROEM)
---------------------------------
  S    -56.681500   15.886000   21.646000
  C    -57.219400   14.219300   21.341600
  C    -56.166200   13.389300   21.536000
  C    -55.014400   14.072100   22.089000
  C    -55.124400   15.435200   22.266100
  H    -54.137100   13.474400   22.347800
  C    -56.194300   11.912100   21.259200
  H    -56.807900   11.716000   20.393800
  H    -56.796800   11.369100   21.986400
  C    -54.849200   11.152200   21.020000
  H    -54.300000   11.764100   20.257800
  H    -54.295400   11.146500   22.035200
  C    -54.915800    9.668230   20.540100
  H    -53.921400    9.302230   20.363900
  H    -55.219400    8.949790   21.296700
  H    -55.511500    9.512740   19.616100
  S    -54.764500   17.153000   24.384200
  C    -53.168200   17.752000   24.691000
  C    -52.294100   17.419200   23.757300
  C    -52.879200   16.543000   22.739100
  C    -54.211800   16.297500   22.956100
  H    -51.279900   17.734100   23.854300
  C    -52.082200   16.038500   21.593500
  H    -52.353300   14.987900   21.534800
  H    -50.997900   15.957700   21.675400
  C    -52.391200   16.822800   20.290800
  H    -53.408400   17.051400   20.124700
  H    -52.064800   16.298000   19.396400
  C    -51.655400   18.196700   20.259400
  H    -52.090600   18.731500   21.033100
  H    -51.882700   18.704100   19.366200
  H    -50.612100   17.970700   20.280100
  H    -58.199400   13.922500   20.930600
  H    -52.827900   18.259900   25.541500

 Total Charge           Charge          ....    0
 Multiplicity           Mult            ....    1
 Number of Electrons    NEL             ....  134
 Basis Dimension        Dim             ....  322

ORBITAL ENERGIES
----------------

  NO   OCC          E(Eh)            E(eV)
   0   2.0000     -88.962967     -2420.8054
   1   2.0000     -88.962585     -2420.7950
   2   2.0000     -10.329231      -281.0727
   3   2.0000     -10.324553      -280.9454
   4   2.0000     -10.315885      -280.7095
   5   2.0000     -10.306332      -280.4495
   6   2.0000     -10.304568      -280.4016
   7   2.0000     -10.303887      -280.3830
   8   2.0000     -10.300394      -280.2880
   9   2.0000     -10.293903      -280.1113
  10   2.0000     -10.291401      -280.0433
  11   2.0000     -10.287840      -279.9464
  12   2.0000     -10.286442      -279.9083
  13   2.0000     -10.285025      -279.8698
  14   2.0000     -10.276650      -279.6419
  15   2.0000     -10.260885      -279.2129
  16   2.0000      -8.077920      -219.8114
  17   2.0000      -8.077557      -219.8015
  18   2.0000      -6.036538      -164.2626
  19   2.0000      -6.036236      -164.2543
  20   2.0000      -6.032387      -164.1496
  21   2.0000      -6.031974      -164.1384
  22   2.0000      -6.028462      -164.0428
  23   2.0000      -6.028231      -164.0365
  24   2.0000      -1.011066       -27.5125
  25   2.0000      -0.987923       -26.8828
  26   2.0000      -0.909976       -24.7617
  27   2.0000      -0.907464       -24.6933
  28   2.0000      -0.876168       -23.8417
  29   2.0000      -0.848151       -23.0794
  30   2.0000      -0.841924       -22.9099
  31   2.0000      -0.820749       -22.3337
  32   2.0000      -0.785854       -21.3842
  33   2.0000      -0.775454       -21.1012
  34   2.0000      -0.718160       -19.5421
  35   2.0000      -0.695992       -18.9389
  36   2.0000      -0.688602       -18.7378
  37   2.0000      -0.661408       -17.9978
  38   2.0000      -0.638911       -17.3857
  39   2.0000      -0.623036       -16.9537
  40   2.0000      -0.601863       -16.3775
  41   2.0000      -0.572898       -15.5894
  42   2.0000      -0.563869       -15.3437
  43   2.0000      -0.552601       -15.0370
  44   2.0000      -0.550383       -14.9767
  45   2.0000      -0.523072       -14.2335
  46   2.0000      -0.516754       -14.0616
  47   2.0000      -0.512346       -13.9416
  48   2.0000      -0.506364       -13.7789
  49   2.0000      -0.501131       -13.6365
  50   2.0000      -0.492279       -13.3956
  51   2.0000      -0.485714       -13.2170
  52   2.0000      -0.470357       -12.7991
  53   2.0000      -0.462340       -12.5809
  54   2.0000      -0.460343       -12.5266
  55   2.0000      -0.452386       -12.3100
  56   2.0000      -0.444382       -12.0922
  57   2.0000      -0.440101       -11.9758
  58   2.0000      -0.427989       -11.6462
  59   2.0000      -0.423130       -11.5140
  60   2.0000      -0.416559       -11.3351
  61   2.0000      -0.415245       -11.2994
  62   2.0000      -0.403434       -10.9780
  63   2.0000      -0.349563        -9.5121
  64   2.0000      -0.328749        -8.9457
  65   2.0000      -0.325351        -8.8533
  66   2.0000      -0.299578        -8.1519
  67   0.0000       0.034154         0.9294
  68   0.0000       0.070587         1.9208
  69   0.0000       0.116635         3.1738
  70   0.0000       0.126523         3.4429
  71   0.0000       0.135625         3.6906

MULLIKEN ATOMIC CHARGES
-----------------------
   0 S :    0.099870
   1 C :   -0.146816
   2 C :   -0.064190
   3 C :    0.025752
   4 C :   -0.148087
   5 H :    0.016650
   6 C :    0.073782
   7 H :    0.007943
   8 H :    0.031824
   9 C :   -0.149645
  10 H :    0.048620
  11 H :    0.052344
  12 C :   -0.034228
  13 H :    0.026329
  14 H :    0.030725
  15 H :    0.041297
  16 S :    0.113809
  17 C :   -0.051715
  18 C :   -0.022392
  19 C :   -0.048340
  20 C :   -0.150135
  21 H :    0.008977
  22 C :    0.093600
  23 H :    0.014166
  24 H :    0.017274
  25 C :   -0.077215
  26 H :    0.021933
  27 H :    0.020102
  28 C :   -0.009498
  29 H :    0.025123
  30 H :    0.019857
  31 H :    0.023201
  32 H :    0.058398
  33 H :    0.030682
Sum of atomic charges:    0.0000000

LOEWDIN ATOMIC CHARGES
----------------------
   0 S :    0.396418
   1 C :   -0.188414
   2 C :   -0.067011
   3 C :   -0.063352
   4 C :   -0.200655
   5 H :    0.028665
   6 C :   -0.043120
   7 H :    0.027626
   8 H :    0.033183
   9 C :   -0.047806
  10 H :    0.029787
  11 H :    0.032466
  12 C :   -0.070808
  13 H :    0.027574
  14 H :    0.026321
  15 H :    0.028966
  16 S :    0.406493
  17 C :   -0.174997
  18 C :   -0.070367
  19 C :   -0.044367
  20 C :   -0.199910
  21 H :    0.030246
  22 C :   -0.036853
  23 H :    0.032191
  24 H :    0.030464
  25 C :   -0.026908
  26 H :    0.016839
  27 H :    0.019316
  28 C :   -0.050236
  29 H :    0.017134
  30 H :    0.020398
  31 H :    0.019983
  32 H :    0.037353
  33 H :    0.023384

  Mayer bond orders larger than 0.100000
B(  0-S ,  1-C ) :   1.1255 B(  0-S ,  4-C ) :   1.1446 B(  1-C ,  2-C ) :   1.6167
B(  1-C , 32-H ) :   0.9702 B(  2-C ,  3-C ) :   1.2571 B(  2-C ,  6-C ) :   1.0188
B(  3-C ,  4-C ) :   1.5632 B(  3-C ,  5-H ) :   0.9840 B(  4-C , 20-C ) :   1.0480
B(  6-C ,  7-H ) :   0.9359 B(  6-C ,  8-H ) :   0.9320 B(  6-C ,  9-C ) :   1.0617
B(  9-C , 10-H ) :   0.9606 B(  9-C , 11-H ) :   0.9462 B(  9-C , 12-C ) :   1.0849
B( 12-C , 13-H ) :   0.9711 B( 12-C , 14-H ) :   0.9732 B( 12-C , 15-H ) :   0.9742
B( 16-S , 17-C ) :   1.1380 B( 16-S , 20-C ) :   1.1200 B( 17-C , 18-C ) :   1.6641
B( 17-C , 33-H ) :   0.9654 B( 18-C , 19-C ) :   1.1926 B( 18-C , 21-H ) :   0.9964
B( 19-C , 20-C ) :   1.6322 B( 19-C , 22-C ) :   1.0530 B( 22-C , 23-H ) :   0.9179
B( 22-C , 24-H ) :   0.9403 B( 22-C , 25-C ) :   1.0624 B( 25-C , 26-H ) :   0.9634
B( 25-C , 27-H ) :   0.9587 B( 25-C , 28-C ) :   1.0742 B( 28-C , 29-H ) :   0.9793
B( 28-C , 30-H ) :   0.9722 B( 28-C , 31-H ) :   0.9780

Dispersion correction           -0.014352915
FINAL SINGLE POINT ENERGY     -1339.871637792560

DIPOLE MOMENT
-------------
                                X             Y             Z
Electronic contribution:    -13.42812      16.61656      15.04280
Nuclear contribution   :     13.88032     -17.20637     -15.24820
                        -----------------------------------------
Total Dipole Moment    :      0.45220      -0.58981      -0.20540
                        -----------------------------------------
Magnitude (a.u.)       :      0.77107
Magnitude (Debye)      :      1.95990

Rotational constants in cm-1:     0.019238     0.008027     0.007010
Rotational constants in MHz :   576.732514   240.642605   210.159227

                             ****ORCA TERMINATED NORMALLY****
TOTAL RUN TIME: 0 days 0 hours 0 minutes 21 seconds 758 msec
