                         Program Version 4.2.1 -  RELEASE  -
|  1> ! wB97X-D3 SP def2-SVP
|  2> %pal
|  3> nprocs 24
|  4> end
|  5>
|  6> * xyz 0 1
|  7> S 	 -90.6423 	 -12.5443 	 -116.199
|  8> C 	 -88.9189 	 -12.7342 	 -115.986
|  9> C 	 -88.3101 	 -11.513 	 -115.998
| 10> C 	 -89.2114 	 -10.4231 	 -116.314
| 11> C 	 -90.5035 	 -10.8744 	 -116.523
| 12> H 	 -89.0052 	 -9.47306 	 -116.697
| 13> C 	 -86.76 	 -11.3778 	 -115.903
| 14> H 	 -86.4078 	 -12.2259 	 -115.417
| 15> H 	 -86.5352 	 -10.54 	 -115.205
| 16> C 	 -85.8483 	 -11.1804 	 -117.126
| 17> H 	 -86.1057 	 -10.2405 	 -117.533
| 18> H 	 -84.8115 	 -11.0217 	 -116.824
| 19> C 	 -85.8412 	 -12.2409 	 -118.229
| 20> H 	 -86.7689 	 -12.8336 	 -118.196
| 21> H 	 -85.7036 	 -11.9864 	 -119.272
| 22> H 	 -85.0073 	 -12.9272 	 -118.063
| 23> S 	 -92.7075 	 -9.42228 	 -115.538
| 24> C 	 -93.8287 	 -8.7552 	 -116.655
| 25> C 	 -93.4208 	 -8.88572 	 -117.963
| 26> C 	 -92.2922 	 -9.68229 	 -118.088
| 27> C 	 -91.6926 	 -10.0815 	 -116.874
| 28> H 	 -93.991 	 -8.4486 	 -118.745
| 29> C 	 -91.685 	 -10.1265 	 -119.391
| 30> H 	 -92.4616 	 -10.3215 	 -120.147
| 31> H 	 -91.3421 	 -11.1366 	 -119.23
| 32> C 	 -90.5245 	 -9.298 	 -120.045
| 33> H 	 -90.4949 	 -8.33442 	 -119.462
| 34> H 	 -90.8292 	 -9.16571 	 -121.077
| 35> C 	 -89.1581 	 -10.0257 	 -120.069
| 36> H 	 -88.8968 	 -10.2518 	 -119
| 37> H 	 -88.2946 	 -9.45994 	 -120.48
| 38> H 	 -89.1013 	 -11.0061 	 -120.588
| 39> H 	 -88.5402 	 -13.706 	 -115.887
| 40> H 	 -94.6791 	 -8.15475 	 -116.489
| 41> *
| 42>
| 43>                          ****END OF INPUT****

CARTESIAN COORDINATES (ANGSTROEM)
---------------------------------
  S    -90.642300  -12.544300  -116.199000
  C    -88.918900  -12.734200  -115.986000
  C    -88.310100  -11.513000  -115.998000
  C    -89.211400  -10.423100  -116.314000
  C    -90.503500  -10.874400  -116.523000
  H    -89.005200   -9.473060  -116.697000
  C    -86.760000  -11.377800  -115.903000
  H    -86.407800  -12.225900  -115.417000
  H    -86.535200  -10.540000  -115.205000
  C    -85.848300  -11.180400  -117.126000
  H    -86.105700  -10.240500  -117.533000
  H    -84.811500  -11.021700  -116.824000
  C    -85.841200  -12.240900  -118.229000
  H    -86.768900  -12.833600  -118.196000
  H    -85.703600  -11.986400  -119.272000
  H    -85.007300  -12.927200  -118.063000
  S    -92.707500   -9.422280  -115.538000
  C    -93.828700   -8.755200  -116.655000
  C    -93.420800   -8.885720  -117.963000
  C    -92.292200   -9.682290  -118.088000
  C    -91.692600  -10.081500  -116.874000
  H    -93.991000   -8.448600  -118.745000
  C    -91.685000  -10.126500  -119.391000
  H    -92.461600  -10.321500  -120.147000
  H    -91.342100  -11.136600  -119.230000
  C    -90.524500   -9.298000  -120.045000
  H    -90.494900   -8.334420  -119.462000
  H    -90.829200   -9.165710  -121.077000
  C    -89.158100  -10.025700  -120.069000
  H    -88.896800  -10.251800  -119.000000
  H    -88.294600   -9.459940  -120.480000
  H    -89.101300  -11.006100  -120.588000
  H    -88.540200  -13.706000  -115.887000
  H    -94.679100   -8.154750  -116.489000

 Total Charge           Charge          ....    0
 Multiplicity           Mult            ....    1
 Number of Electrons    NEL             ....  134
 Basis Dimension        Dim             ....  322

ORBITAL ENERGIES
----------------

  NO   OCC          E(Eh)            E(eV)
   0   2.0000     -88.967161     -2420.9195
   1   2.0000     -88.964143     -2420.8374
   2   2.0000     -10.329702      -281.0855
   3   2.0000     -10.329432      -281.0781
   4   2.0000     -10.313989      -280.6579
   5   2.0000     -10.312380      -280.6141
   6   2.0000     -10.309661      -280.5401
   7   2.0000     -10.302965      -280.3579
   8   2.0000     -10.295138      -280.1449
   9   2.0000     -10.292449      -280.0718
  10   2.0000     -10.291328      -280.0413
  11   2.0000     -10.285873      -279.8928
  12   2.0000     -10.285045      -279.8703
  13   2.0000     -10.284063      -279.8436
  14   2.0000     -10.280997      -279.7601
  15   2.0000     -10.274995      -279.5968
  16   2.0000      -8.081414      -219.9065
  17   2.0000      -8.080098      -219.8706
  18   2.0000      -6.039797      -164.3512
  19   2.0000      -6.038414      -164.3136
  20   2.0000      -6.035876      -164.2445
  21   2.0000      -6.034301      -164.2017
  22   2.0000      -6.032446      -164.1512
  23   2.0000      -6.031099      -164.1145
  24   2.0000      -1.009458       -27.4688
  25   2.0000      -0.988378       -26.8951
  26   2.0000      -0.908261       -24.7150
  27   2.0000      -0.901217       -24.5234
  28   2.0000      -0.870641       -23.6913
  29   2.0000      -0.848283       -23.0830
  30   2.0000      -0.846749       -23.0412
  31   2.0000      -0.818917       -22.2839
  32   2.0000      -0.786475       -21.4011
  33   2.0000      -0.770523       -20.9670
  34   2.0000      -0.711706       -19.3665
  35   2.0000      -0.698677       -19.0120
  36   2.0000      -0.692964       -18.8565
  37   2.0000      -0.659742       -17.9525
  38   2.0000      -0.656374       -17.8608
  39   2.0000      -0.617055       -16.7909
  40   2.0000      -0.595946       -16.2165
  41   2.0000      -0.572417       -15.5763
  42   2.0000      -0.553876       -15.0717
  43   2.0000      -0.549238       -14.9455
  44   2.0000      -0.545264       -14.8374
  45   2.0000      -0.526048       -14.3145
  46   2.0000      -0.519850       -14.1458
  47   2.0000      -0.508844       -13.8464
  48   2.0000      -0.504830       -13.7371
  49   2.0000      -0.497337       -13.5332
  50   2.0000      -0.490498       -13.3471
  51   2.0000      -0.479555       -13.0494
  52   2.0000      -0.473356       -12.8807
  53   2.0000      -0.465230       -12.6595
  54   2.0000      -0.462184       -12.5767
  55   2.0000      -0.449900       -12.2424
  56   2.0000      -0.442197       -12.0328
  57   2.0000      -0.435536       -11.8515
  58   2.0000      -0.429392       -11.6844
  59   2.0000      -0.423714       -11.5298
  60   2.0000      -0.415366       -11.3027
  61   2.0000      -0.410714       -11.1761
  62   2.0000      -0.405716       -11.0401
  63   2.0000      -0.337872        -9.1940
  64   2.0000      -0.330196        -8.9851
  65   2.0000      -0.324520        -8.8306
  66   2.0000      -0.313328        -8.5261
  67   0.0000       0.045397         1.2353
  68   0.0000       0.045957         1.2505
  69   0.0000       0.113527         3.0892
  70   0.0000       0.126002         3.4287
  71   0.0000       0.130056         3.5390

MULLIKEN ATOMIC CHARGES
-----------------------
   0 S :    0.117561
   1 C :   -0.112409
   2 C :   -0.080817
   3 C :    0.098956
   4 C :   -0.211732
   5 H :    0.005433
   6 C :    0.075386
   7 H :    0.000665
   8 H :    0.034696
   9 C :   -0.031565
  10 H :    0.008092
  11 H :    0.026427
  12 C :   -0.061865
  13 H :    0.032052
  14 H :    0.031701
  15 H :    0.022803
  16 S :    0.121637
  17 C :   -0.059756
  18 C :   -0.043176
  19 C :   -0.012758
  20 C :   -0.181454
  21 H :    0.005570
  22 C :    0.055615
  23 H :    0.018842
  24 H :    0.015930
  25 C :   -0.040756
  26 H :    0.046316
  27 H :    0.030072
  28 C :   -0.093767
  29 H :    0.030716
  30 H :    0.037677
  31 H :    0.038194
  32 H :    0.037331
  33 H :    0.038382
Sum of atomic charges:   -0.0000000

LOEWDIN ATOMIC CHARGES
----------------------
   0 S :    0.428073
   1 C :   -0.180736
   2 C :   -0.059377
   3 C :   -0.053857
   4 C :   -0.209961
   5 H :    0.024145
   6 C :   -0.025791
   7 H :    0.017262
   8 H :    0.039609
   9 C :   -0.040460
  10 H :    0.015082
  11 H :    0.029227
  12 C :   -0.075157
  13 H :    0.027098
  14 H :    0.026793
  15 H :    0.025039
  16 S :    0.410163
  17 C :   -0.183390
  18 C :   -0.075356
  19 C :   -0.052031
  20 C :   -0.197858
  21 H :    0.029317
  22 C :   -0.039076
  23 H :    0.031482
  24 H :    0.028822
  25 C :   -0.038990
  26 H :    0.032483
  27 H :    0.023384
  28 C :   -0.081616
  29 H :    0.027667
  30 H :    0.027082
  31 H :    0.028049
  32 H :    0.018369
  33 H :    0.024510

  Mayer bond orders larger than 0.100000
B(  0-S ,  1-C ) :   1.1450 B(  0-S ,  4-C ) :   1.1790 B(  1-C ,  2-C ) :   1.6022
B(  1-C , 32-H ) :   0.9847 B(  2-C ,  3-C ) :   1.2143 B(  2-C ,  6-C ) :   1.0235
B(  3-C ,  4-C ) :   1.5887 B(  3-C ,  5-H ) :   0.9933 B(  4-C , 20-C ) :   1.0046
B(  6-C ,  7-H ) :   0.9415 B(  6-C ,  8-H ) :   0.9375 B(  6-C ,  9-C ) :   1.0761
B(  9-C , 10-H ) :   0.9569 B(  9-C , 11-H ) :   0.9555 B(  9-C , 12-C ) :   1.0582
B( 12-C , 13-H ) :   0.9802 B( 12-C , 14-H ) :   0.9772 B( 12-C , 15-H ) :   0.9768
B( 16-S , 17-C ) :   1.1819 B( 16-S , 20-C ) :   1.1397 B( 17-C , 18-C ) :   1.5836
B( 17-C , 20-C ) :   0.1099 B( 17-C , 33-H ) :   0.9647 B( 18-C , 19-C ) :   1.2751
B( 18-C , 21-H ) :   0.9970 B( 19-C , 20-C ) :   1.5672 B( 19-C , 22-C ) :   1.0567
B( 22-C , 23-H ) :   0.9372 B( 22-C , 24-H ) :   0.9304 B( 22-C , 25-C ) :   1.0288
B( 25-C , 26-H ) :   0.9633 B( 25-C , 27-H ) :   0.9594 B( 25-C , 28-C ) :   1.0784
B( 28-C , 29-H ) :   0.9737 B( 28-C , 30-H ) :   0.9733 B( 28-C , 31-H ) :   0.9726

Dispersion correction           -0.016226523
FINAL SINGLE POINT ENERGY     -1339.868960155886

DIPOLE MOMENT
-------------
                                X             Y             Z
Electronic contribution:    -23.64368      -0.24710      18.13972
Nuclear contribution   :     23.99622       0.32660     -18.57971
                        -----------------------------------------
Total Dipole Moment    :      0.35254       0.07950      -0.43998
                        -----------------------------------------
Magnitude (a.u.)       :      0.56938
Magnitude (Debye)      :      1.44724

Rotational constants in cm-1:     0.021467     0.009111     0.007364
Rotational constants in MHz :   643.575920   273.127453   220.752844

                             ****ORCA TERMINATED NORMALLY****
TOTAL RUN TIME: 0 days 0 hours 0 minutes 22 seconds 756 msec
