                         Program Version 4.2.1 -  RELEASE  -
|  1> ! wB97X-D3 SP def2-SVP
|  2> %pal
|  3> nprocs 24
|  4> end
|  5>
|  6> * xyz 0 1
|  7> S 	 37.4414 	 -7.62684 	 -115.388
|  8> C 	 38.8508 	 -6.70643 	 -115.913
|  9> C 	 38.9221 	 -5.53859 	 -115.193
| 10> C 	 37.9753 	 -5.45421 	 -114.134
| 11> C 	 37.0884 	 -6.49267 	 -114.038
| 12> H 	 37.8187 	 -4.65972 	 -113.406
| 13> C 	 39.9707 	 -4.47627 	 -115.397
| 14> H 	 40.8435 	 -4.95341 	 -115.748
| 15> H 	 40.362 	 -4.00598 	 -114.503
| 16> C 	 39.4338 	 -3.49298 	 -116.422
| 17> H 	 39.0507 	 -4.00229 	 -117.317
| 18> H 	 38.5083 	 -3.11771 	 -115.974
| 19> C 	 40.3669 	 -2.37138 	 -116.883
| 20> H 	 40.7917 	 -1.92404 	 -115.974
| 21> H 	 41.1964 	 -2.76188 	 -117.463
| 22> H 	 39.8345 	 -1.55907 	 -117.447
| 23> S 	 34.674 	 -7.62278 	 -113.674
| 24> C 	 33.9013 	 -7.73128 	 -112.134
| 25> C 	 34.5727 	 -6.92678 	 -111.218
| 26> C 	 35.7939 	 -6.32964 	 -111.747
| 27> C 	 36.0076 	 -6.6638 	 -113.095
| 28> H 	 34.2016 	 -6.82811 	 -110.226
| 29> C 	 36.8356 	 -5.55823 	 -110.834
| 30> H 	 36.4089 	 -5.0255 	 -110.027
| 31> H 	 37.2939 	 -4.79287 	 -111.44
| 32> C 	 37.9094 	 -6.3791 	 -110.21
| 33> H 	 38.6462 	 -5.65976 	 -109.873
| 34> H 	 38.2919 	 -6.96529 	 -111.057
| 35> C 	 37.6062 	 -7.40041 	 -109.095
| 36> H 	 38.5389 	 -7.39287 	 -108.526
| 37> H 	 37.6375 	 -8.40841 	 -109.444
| 38> H 	 36.7197 	 -7.25867 	 -108.433
| 39> H 	 39.443 	 -6.87664 	 -116.743
| 40> H 	 32.9907 	 -8.27606 	 -111.903
| 41> *
| 42>
| 43>                          ****END OF INPUT****

CARTESIAN COORDINATES (ANGSTROEM)
---------------------------------
  S     37.441400   -7.626840  -115.388000
  C     38.850800   -6.706430  -115.913000
  C     38.922100   -5.538590  -115.193000
  C     37.975300   -5.454210  -114.134000
  C     37.088400   -6.492670  -114.038000
  H     37.818700   -4.659720  -113.406000
  C     39.970700   -4.476270  -115.397000
  H     40.843500   -4.953410  -115.748000
  H     40.362000   -4.005980  -114.503000
  C     39.433800   -3.492980  -116.422000
  H     39.050700   -4.002290  -117.317000
  H     38.508300   -3.117710  -115.974000
  C     40.366900   -2.371380  -116.883000
  H     40.791700   -1.924040  -115.974000
  H     41.196400   -2.761880  -117.463000
  H     39.834500   -1.559070  -117.447000
  S     34.674000   -7.622780  -113.674000
  C     33.901300   -7.731280  -112.134000
  C     34.572700   -6.926780  -111.218000
  C     35.793900   -6.329640  -111.747000
  C     36.007600   -6.663800  -113.095000
  H     34.201600   -6.828110  -110.226000
  C     36.835600   -5.558230  -110.834000
  H     36.408900   -5.025500  -110.027000
  H     37.293900   -4.792870  -111.440000
  C     37.909400   -6.379100  -110.210000
  H     38.646200   -5.659760  -109.873000
  H     38.291900   -6.965290  -111.057000
  C     37.606200   -7.400410  -109.095000
  H     38.538900   -7.392870  -108.526000
  H     37.637500   -8.408410  -109.444000
  H     36.719700   -7.258670  -108.433000
  H     39.443000   -6.876640  -116.743000
  H     32.990700   -8.276060  -111.903000

 Total Charge           Charge          ....    0
 Multiplicity           Mult            ....    1
 Number of Electrons    NEL             ....  134
 Basis Dimension        Dim             ....  322

ORBITAL ENERGIES
----------------

  NO   OCC          E(Eh)            E(eV)
   0   2.0000     -88.965853     -2420.8839
   1   2.0000     -88.965587     -2420.8767
   2   2.0000     -10.333830      -281.1978
   3   2.0000     -10.331863      -281.1443
   4   2.0000     -10.319311      -280.8027
   5   2.0000     -10.314319      -280.6669
   6   2.0000     -10.311904      -280.6012
   7   2.0000     -10.301148      -280.3085
   8   2.0000     -10.297652      -280.2133
   9   2.0000     -10.292565      -280.0749
  10   2.0000     -10.289653      -279.9957
  11   2.0000     -10.285954      -279.8950
  12   2.0000     -10.283882      -279.8387
  13   2.0000     -10.281561      -279.7755
  14   2.0000     -10.281304      -279.7685
  15   2.0000     -10.275866      -279.6205
  16   2.0000      -8.080956      -219.8940
  17   2.0000      -8.079533      -219.8553
  18   2.0000      -6.039466      -164.3422
  19   2.0000      -6.038286      -164.3101
  20   2.0000      -6.035232      -164.2270
  21   2.0000      -6.034182      -164.1985
  22   2.0000      -6.031802      -164.1337
  23   2.0000      -6.030066      -164.0864
  24   2.0000      -1.007331       -27.4109
  25   2.0000      -0.984185       -26.7810
  26   2.0000      -0.915336       -24.9076
  27   2.0000      -0.910985       -24.7892
  28   2.0000      -0.873595       -23.7717
  29   2.0000      -0.848633       -23.0925
  30   2.0000      -0.839797       -22.8520
  31   2.0000      -0.819531       -22.3006
  32   2.0000      -0.790632       -21.5142
  33   2.0000      -0.775554       -21.1039
  34   2.0000      -0.711410       -19.3584
  35   2.0000      -0.700434       -19.0598
  36   2.0000      -0.686246       -18.6737
  37   2.0000      -0.667604       -18.1664
  38   2.0000      -0.645547       -17.5662
  39   2.0000      -0.620776       -16.8922
  40   2.0000      -0.597021       -16.2458
  41   2.0000      -0.572962       -15.5911
  42   2.0000      -0.560786       -15.2598
  43   2.0000      -0.553421       -15.0593
  44   2.0000      -0.545233       -14.8366
  45   2.0000      -0.526322       -14.3220
  46   2.0000      -0.519706       -14.1419
  47   2.0000      -0.515683       -14.0324
  48   2.0000      -0.511007       -13.9052
  49   2.0000      -0.504923       -13.7396
  50   2.0000      -0.490894       -13.3579
  51   2.0000      -0.483743       -13.1633
  52   2.0000      -0.477168       -12.9844
  53   2.0000      -0.467172       -12.7124
  54   2.0000      -0.461261       -12.5515
  55   2.0000      -0.447548       -12.1784
  56   2.0000      -0.437303       -11.8996
  57   2.0000      -0.436531       -11.8786
  58   2.0000      -0.432922       -11.7804
  59   2.0000      -0.418769       -11.3953
  60   2.0000      -0.414574       -11.2811
  61   2.0000      -0.413047       -11.2396
  62   2.0000      -0.405264       -11.0278
  63   2.0000      -0.361541        -9.8380
  64   2.0000      -0.332908        -9.0589
  65   2.0000      -0.328904        -8.9499
  66   2.0000      -0.286604        -7.7989
  67   0.0000       0.018706         0.5090
  68   0.0000       0.079932         2.1750
  69   0.0000       0.104696         2.8489
  70   0.0000       0.119968         3.2645
  71   0.0000       0.139700         3.8014

MULLIKEN ATOMIC CHARGES
-----------------------
   0 S :    0.096987
   1 C :   -0.070008
   2 C :   -0.104500
   3 C :   -0.000339
   4 C :   -0.099157
   5 H :    0.008929
   6 C :    0.109567
   7 H :   -0.002021
   8 H :    0.019384
   9 C :   -0.097155
  10 H :    0.025302
  11 H :    0.019135
  12 C :   -0.024688
  13 H :    0.021662
  14 H :    0.033457
  15 H :    0.048270
  16 S :    0.101056
  17 C :   -0.090500
  18 C :   -0.028150
  19 C :   -0.052519
  20 C :   -0.157989
  21 H :    0.010352
  22 C :    0.100095
  23 H :    0.003155
  24 H :    0.006834
  25 C :   -0.084568
  26 H :    0.031139
  27 H :    0.032826
  28 C :   -0.033742
  29 H :    0.023654
  30 H :    0.027866
  31 H :    0.040868
  32 H :    0.020446
  33 H :    0.064351
Sum of atomic charges:   -0.0000000

LOEWDIN ATOMIC CHARGES
----------------------
   0 S :    0.376844
   1 C :   -0.176784
   2 C :   -0.055157
   3 C :   -0.068974
   4 C :   -0.176493
   5 H :    0.030819
   6 C :   -0.029092
   7 H :    0.021067
   8 H :    0.029089
   9 C :   -0.045630
  10 H :    0.024601
  11 H :    0.023842
  12 C :   -0.068824
  13 H :    0.023485
  14 H :    0.023679
  15 H :    0.034682
  16 S :    0.421322
  17 C :   -0.194004
  18 C :   -0.067785
  19 C :   -0.051925
  20 C :   -0.198546
  21 H :    0.026086
  22 C :   -0.027259
  23 H :    0.021893
  24 H :    0.025412
  25 C :   -0.043400
  26 H :    0.024884
  27 H :    0.031747
  28 C :   -0.074113
  29 H :    0.033010
  30 H :    0.025932
  31 H :    0.027406
  32 H :    0.017578
  33 H :    0.034608

  Mayer bond orders larger than 0.100000
B(  0-S ,  1-C ) :   1.1209 B(  0-S ,  4-C ) :   1.1232 B(  1-C ,  2-C ) :   1.6234
B(  1-C , 32-H ) :   0.9732 B(  2-C ,  3-C ) :   1.2289 B(  2-C ,  6-C ) :   1.0282
B(  3-C ,  4-C ) :   1.5844 B(  3-C ,  5-H ) :   0.9944 B(  4-C , 20-C ) :   1.0893
B(  6-C ,  7-H ) :   0.9340 B(  6-C ,  8-H ) :   0.9419 B(  6-C ,  9-C ) :   1.0481
B(  9-C , 10-H ) :   0.9568 B(  9-C , 11-H ) :   0.9553 B(  9-C , 12-C ) :   1.0782
B( 12-C , 13-H ) :   0.9714 B( 12-C , 14-H ) :   0.9744 B( 12-C , 15-H ) :   0.9737
B( 16-S , 17-C ) :   1.1613 B( 16-S , 20-C ) :   1.1465 B( 17-C , 18-C ) :   1.5909
B( 17-C , 33-H ) :   0.9694 B( 18-C , 19-C ) :   1.2560 B( 18-C , 21-H ) :   0.9957
B( 19-C , 20-C ) :   1.5630 B( 19-C , 22-C ) :   1.0298 B( 22-C , 23-H ) :   0.9284
B( 22-C , 24-H ) :   0.9375 B( 22-C , 25-C ) :   1.0881 B( 25-C , 26-H ) :   0.9610
B( 25-C , 27-H ) :   0.9515 B( 25-C , 28-C ) :   1.0643 B( 28-C , 29-H ) :   0.9716
B( 28-C , 30-H ) :   0.9759 B( 28-C , 31-H ) :   0.9775

Dispersion correction           -0.014066803
FINAL SINGLE POINT ENERGY     -1339.872345763954

DIPOLE MOMENT
-------------
                                X             Y             Z
Electronic contribution:    -17.59204     -16.46740      -8.46973
Nuclear contribution   :     17.92801      16.87371       8.85828
                        -----------------------------------------
Total Dipole Moment    :      0.33597       0.40630       0.38855
                        -----------------------------------------
Magnitude (a.u.)       :      0.65493
Magnitude (Debye)      :      1.66470

Rotational constants in cm-1:     0.020484     0.007794     0.006487
Rotational constants in MHz :   614.086267   233.657412   194.478845

                             ****ORCA TERMINATED NORMALLY****
TOTAL RUN TIME: 0 days 0 hours 0 minutes 21 seconds 414 msec
