                         Program Version 4.2.1 -  RELEASE  -
|  1> ! wB97X-D3 SP def2-SVP
|  2> %pal
|  3> nprocs 24
|  4> end
|  5>
|  6> * xyz 0 1
|  7> S 	 -36.652 	 15.5464 	 14.5466
|  8> C 	 -36.9963 	 14.448 	 15.8897
|  9> C 	 -37.6218 	 15.1064 	 16.9407
| 10> C 	 -37.8942 	 16.4856 	 16.6125
| 11> C 	 -37.3696 	 16.9283 	 15.4223
| 12> H 	 -38.4404 	 17.2396 	 17.1952
| 13> C 	 -38.1974 	 14.4846 	 18.2059
| 14> H 	 -37.7918 	 15.0064 	 19.055
| 15> H 	 -37.7671 	 13.5148 	 18.3321
| 16> C 	 -39.7415 	 14.4579 	 18.1463
| 17> H 	 -40.1556 	 15.4193 	 18.2365
| 18> H 	 -40.0249 	 14.0383 	 17.1819
| 19> C 	 -40.4615 	 13.5149 	 19.0775
| 20> H 	 -40.0872 	 12.5099 	 18.9075
| 21> H 	 -40.4399 	 13.8104 	 20.1404
| 22> H 	 -41.517 	 13.3681 	 18.8666
| 23> S 	 -38.8662 	 18.1006 	 13.5695
| 24> C 	 -38.9137 	 19.8604 	 13.4245
| 25> C 	 -37.9966 	 20.47 	 14.3047
| 26> C 	 -37.2816 	 19.505 	 15.1328
| 27> C 	 -37.6619 	 18.1767 	 14.8671
| 28> H 	 -37.8015 	 21.5003 	 14.3304
| 29> C 	 -36.2496 	 19.7815 	 16.2731
| 30> H 	 -35.3194 	 20.2223 	 15.8944
| 31> H 	 -35.928 	 18.7523 	 16.6198
| 32> C 	 -36.7888 	 20.6297 	 17.3652
| 33> H 	 -36.9568 	 21.6948 	 17.1015
| 34> H 	 -35.9518 	 20.7903 	 18.0703
| 35> C 	 -38.0197 	 20.0413 	 18.095
| 36> H 	 -38.0859 	 20.4237 	 19.124
| 37> H 	 -37.8323 	 18.9959 	 18.2005
| 38> H 	 -38.9731 	 20.1048 	 17.6456
| 39> H 	 -36.9782 	 13.376 	 15.7753
| 40> H 	 -39.3648 	 20.4362 	 12.6506
| 41> *
| 42>
| 43>                          ****END OF INPUT****

CARTESIAN COORDINATES (ANGSTROEM)
---------------------------------
  S    -36.652000   15.546400   14.546600
  C    -36.996300   14.448000   15.889700
  C    -37.621800   15.106400   16.940700
  C    -37.894200   16.485600   16.612500
  C    -37.369600   16.928300   15.422300
  H    -38.440400   17.239600   17.195200
  C    -38.197400   14.484600   18.205900
  H    -37.791800   15.006400   19.055000
  H    -37.767100   13.514800   18.332100
  C    -39.741500   14.457900   18.146300
  H    -40.155600   15.419300   18.236500
  H    -40.024900   14.038300   17.181900
  C    -40.461500   13.514900   19.077500
  H    -40.087200   12.509900   18.907500
  H    -40.439900   13.810400   20.140400
  H    -41.517000   13.368100   18.866600
  S    -38.866200   18.100600   13.569500
  C    -38.913700   19.860400   13.424500
  C    -37.996600   20.470000   14.304700
  C    -37.281600   19.505000   15.132800
  C    -37.661900   18.176700   14.867100
  H    -37.801500   21.500300   14.330400
  C    -36.249600   19.781500   16.273100
  H    -35.319400   20.222300   15.894400
  H    -35.928000   18.752300   16.619800
  C    -36.788800   20.629700   17.365200
  H    -36.956800   21.694800   17.101500
  H    -35.951800   20.790300   18.070300
  C    -38.019700   20.041300   18.095000
  H    -38.085900   20.423700   19.124000
  H    -37.832300   18.995900   18.200500
  H    -38.973100   20.104800   17.645600
  H    -36.978200   13.376000   15.775300
  H    -39.364800   20.436200   12.650600

 Total Charge           Charge          ....    0
 Multiplicity           Mult            ....    1
 Number of Electrons    NEL             ....  134
 Basis Dimension        Dim             ....  322

ORBITAL ENERGIES
----------------

  NO   OCC          E(Eh)            E(eV)
   0   2.0000     -88.965141     -2420.8646
   1   2.0000     -88.964126     -2420.8369
   2   2.0000     -10.324878      -280.9542
   3   2.0000     -10.323579      -280.9189
   4   2.0000     -10.320934      -280.8469
   5   2.0000     -10.318339      -280.7763
   6   2.0000     -10.310303      -280.5576
   7   2.0000     -10.305511      -280.4272
   8   2.0000     -10.298336      -280.2320
   9   2.0000     -10.296149      -280.1725
  10   2.0000     -10.295498      -280.1548
  11   2.0000     -10.291608      -280.0489
  12   2.0000     -10.288550      -279.9657
  13   2.0000     -10.282940      -279.8130
  14   2.0000     -10.276523      -279.6384
  15   2.0000     -10.271987      -279.5150
  16   2.0000      -8.079123      -219.8441
  17   2.0000      -8.078313      -219.8221
  18   2.0000      -6.037725      -164.2948
  19   2.0000      -6.036913      -164.2727
  20   2.0000      -6.033802      -164.1881
  21   2.0000      -6.032784      -164.1604
  22   2.0000      -6.029741      -164.0776
  23   2.0000      -6.029103      -164.0602
  24   2.0000      -1.002909       -27.2905
  25   2.0000      -0.974126       -26.5073
  26   2.0000      -0.913174       -24.8487
  27   2.0000      -0.908944       -24.7336
  28   2.0000      -0.875462       -23.8225
  29   2.0000      -0.847937       -23.0735
  30   2.0000      -0.840340       -22.8668
  31   2.0000      -0.813732       -22.1428
  32   2.0000      -0.784809       -21.3557
  33   2.0000      -0.773954       -21.0604
  34   2.0000      -0.712336       -19.3837
  35   2.0000      -0.701005       -19.0753
  36   2.0000      -0.696978       -18.9657
  37   2.0000      -0.658458       -17.9175
  38   2.0000      -0.646649       -17.5962
  39   2.0000      -0.615589       -16.7510
  40   2.0000      -0.589487       -16.0407
  41   2.0000      -0.573973       -15.6186
  42   2.0000      -0.559691       -15.2300
  43   2.0000      -0.554483       -15.0883
  44   2.0000      -0.543415       -14.7871
  45   2.0000      -0.524181       -14.2637
  46   2.0000      -0.515859       -14.0372
  47   2.0000      -0.513540       -13.9741
  48   2.0000      -0.509068       -13.8524
  49   2.0000      -0.503330       -13.6963
  50   2.0000      -0.493670       -13.4335
  51   2.0000      -0.473363       -12.8809
  52   2.0000      -0.468500       -12.7485
  53   2.0000      -0.461787       -12.5659
  54   2.0000      -0.459218       -12.4959
  55   2.0000      -0.447099       -12.1662
  56   2.0000      -0.445631       -12.1262
  57   2.0000      -0.440687       -11.9917
  58   2.0000      -0.431138       -11.7319
  59   2.0000      -0.426300       -11.6002
  60   2.0000      -0.419189       -11.4067
  61   2.0000      -0.416475       -11.3329
  62   2.0000      -0.405959       -11.0467
  63   2.0000      -0.338585        -9.2134
  64   2.0000      -0.327083        -8.9004
  65   2.0000      -0.323904        -8.8139
  66   2.0000      -0.302310        -8.2263
  67   0.0000       0.030081         0.8185
  68   0.0000       0.058041         1.5794
  69   0.0000       0.117046         3.1850
  70   0.0000       0.119916         3.2631
  71   0.0000       0.126862         3.4521

MULLIKEN ATOMIC CHARGES
-----------------------
   0 S :    0.101382
   1 C :   -0.121555
   2 C :   -0.097065
   3 C :    0.027676
   4 C :   -0.174682
   5 H :    0.026817
   6 C :    0.123803
   7 H :    0.026641
   8 H :   -0.002216
   9 C :   -0.058277
  10 H :    0.026138
  11 H :    0.028261
  12 C :   -0.051335
  13 H :    0.020809
  14 H :    0.033536
  15 H :    0.028174
  16 S :    0.108851
  17 C :   -0.075049
  18 C :   -0.026679
  19 C :   -0.021213
  20 C :   -0.192706
  21 H :    0.003544
  22 C :    0.056987
  23 H :    0.032655
  24 H :    0.042959
  25 C :   -0.085411
  26 H :    0.029225
  27 H :    0.025929
  28 C :   -0.023631
  29 H :    0.030740
  30 H :    0.006826
  31 H :    0.039967
  32 H :    0.054533
  33 H :    0.054364
Sum of atomic charges:    0.0000000

LOEWDIN ATOMIC CHARGES
----------------------
   0 S :    0.379311
   1 C :   -0.188747
   2 C :   -0.059311
   3 C :   -0.051624
   4 C :   -0.201986
   5 H :    0.033787
   6 C :   -0.025294
   7 H :    0.030586
   8 H :    0.024315
   9 C :   -0.035679
  10 H :    0.018087
  11 H :    0.030818
  12 C :   -0.068780
  13 H :    0.023475
  14 H :    0.023721
  15 H :    0.027514
  16 S :    0.398140
  17 C :   -0.178152
  18 C :   -0.063688
  19 C :   -0.045722
  20 C :   -0.198101
  21 H :    0.022311
  22 C :   -0.034128
  23 H :    0.033246
  24 H :    0.038716
  25 C :   -0.050467
  26 H :    0.024669
  27 H :    0.029473
  28 C :   -0.063342
  29 H :    0.031179
  30 H :    0.018132
  31 H :    0.022592
  32 H :    0.028690
  33 H :    0.026258

  Mayer bond orders larger than 0.100000
B(  0-S ,  1-C ) :   1.1347 B(  0-S ,  4-C ) :   1.1163 B(  1-C ,  2-C ) :   1.6253
B(  1-C , 32-H ) :   0.9651 B(  2-C ,  3-C ) :   1.2128 B(  2-C ,  6-C ) :   1.0387
B(  3-C ,  4-C ) :   1.6029 B(  3-C ,  5-H ) :   0.9778 B(  4-C , 20-C ) :   1.0709
B(  6-C ,  7-H ) :   0.9314 B(  6-C ,  8-H ) :   0.9354 B(  6-C ,  9-C ) :   1.0516
B(  9-C , 10-H ) :   0.9556 B(  9-C , 11-H ) :   0.9567 B(  9-C , 12-C ) :   1.0968
B( 12-C , 13-H ) :   0.9727 B( 12-C , 14-H ) :   0.9736 B( 12-C , 15-H ) :   0.9731
B( 16-S , 17-C ) :   1.1511 B( 16-S , 20-C ) :   1.1344 B( 17-C , 18-C ) :   1.6071
B( 17-C , 20-C ) :   0.1053 B( 17-C , 33-H ) :   0.9689 B( 18-C , 19-C ) :   1.2337
B( 18-C , 21-H ) :   0.9944 B( 19-C , 20-C ) :   1.5887 B( 19-C , 22-C ) :   1.0288
B( 22-C , 23-H ) :   0.9337 B( 22-C , 24-H ) :   0.9347 B( 22-C , 25-C ) :   1.0898
B( 25-C , 26-H ) :   0.9521 B( 25-C , 27-H ) :   0.9502 B( 25-C , 28-C ) :   1.0626
B( 28-C , 29-H ) :   0.9686 B( 28-C , 30-H ) :   0.9687 B( 28-C , 31-H ) :   0.9767

Dispersion correction           -0.015108832
FINAL SINGLE POINT ENERGY     -1339.873666611581

DIPOLE MOMENT
-------------
                                X             Y             Z
Electronic contribution:      6.24426      -0.40057     -25.34274
Nuclear contribution   :     -6.41647       0.54538      25.87936
                        -----------------------------------------
Total Dipole Moment    :     -0.17221       0.14481       0.53662
                        -----------------------------------------
Magnitude (a.u.)       :      0.58188
Magnitude (Debye)      :      1.47903

Rotational constants in cm-1:     0.018444     0.008735     0.007489
Rotational constants in MHz :   552.932115   261.856298   224.527826

                             ****ORCA TERMINATED NORMALLY****
TOTAL RUN TIME: 0 days 0 hours 0 minutes 24 seconds 133 msec
