                         Program Version 4.2.1 -  RELEASE  -
|  1> ! wB97X-D3 SP def2-SVP
|  2> %pal
|  3> nprocs 24
|  4> end
|  5>
|  6> * xyz 0 1
|  7> S 	 31.0815 	 -30.7896 	 -131.458
|  8> C 	 31.2045 	 -29.1163 	 -132.072
|  9> C 	 32.4266 	 -28.5268 	 -131.771
| 10> C 	 33.2213 	 -29.3889 	 -130.948
| 11> C 	 32.5661 	 -30.5702 	 -130.621
| 12> H 	 34.1782 	 -29.2667 	 -130.489
| 13> C 	 32.8603 	 -27.0263 	 -131.875
| 14> H 	 33.5379 	 -26.9253 	 -131.086
| 15> H 	 31.9431 	 -26.4768 	 -131.786
| 16> C 	 33.4131 	 -26.5599 	 -133.238
| 17> H 	 34.3426 	 -27.0913 	 -133.31
| 18> H 	 32.7832 	 -26.9418 	 -133.99
| 19> C 	 33.5633 	 -25.0445 	 -133.468
| 20> H 	 32.6003 	 -24.5897 	 -133.525
| 21> H 	 34.1601 	 -24.5291 	 -132.657
| 22> H 	 34.119 	 -24.8163 	 -134.425
| 23> S 	 32.4416 	 -33.3466 	 -130.328
| 24> C 	 33.4526 	 -34.1092 	 -129.137
| 25> C 	 34.2706 	 -33.1837 	 -128.516
| 26> C 	 34.0981 	 -31.8254 	 -128.898
| 27> C 	 33.0292 	 -31.7291 	 -129.843
| 28> H 	 34.8711 	 -33.6322 	 -127.747
| 29> C 	 34.8726 	 -30.6746 	 -128.277
| 30> H 	 34.8272 	 -30.8301 	 -127.26
| 31> H 	 34.3226 	 -29.7581 	 -128.501
| 32> C 	 36.3395 	 -30.5574 	 -128.714
| 33> H 	 36.3752 	 -30.5011 	 -129.872
| 34> H 	 36.8919 	 -31.435 	 -128.429
| 35> C 	 36.9915 	 -29.291 	 -128.102
| 36> H 	 37.988 	 -29.0721 	 -128.636
| 37> H 	 37.158 	 -29.4357 	 -127.039
| 38> H 	 36.3871 	 -28.3329 	 -128.236
| 39> H 	 30.5416 	 -28.6963 	 -132.798
| 40> H 	 33.58 	 -35.1936 	 -128.89
| 41> *
| 42>
| 43>                          ****END OF INPUT****

CARTESIAN COORDINATES (ANGSTROEM)
---------------------------------
  S     31.081500  -30.789600  -131.458000
  C     31.204500  -29.116300  -132.072000
  C     32.426600  -28.526800  -131.771000
  C     33.221300  -29.388900  -130.948000
  C     32.566100  -30.570200  -130.621000
  H     34.178200  -29.266700  -130.489000
  C     32.860300  -27.026300  -131.875000
  H     33.537900  -26.925300  -131.086000
  H     31.943100  -26.476800  -131.786000
  C     33.413100  -26.559900  -133.238000
  H     34.342600  -27.091300  -133.310000
  H     32.783200  -26.941800  -133.990000
  C     33.563300  -25.044500  -133.468000
  H     32.600300  -24.589700  -133.525000
  H     34.160100  -24.529100  -132.657000
  H     34.119000  -24.816300  -134.425000
  S     32.441600  -33.346600  -130.328000
  C     33.452600  -34.109200  -129.137000
  C     34.270600  -33.183700  -128.516000
  C     34.098100  -31.825400  -128.898000
  C     33.029200  -31.729100  -129.843000
  H     34.871100  -33.632200  -127.747000
  C     34.872600  -30.674600  -128.277000
  H     34.827200  -30.830100  -127.260000
  H     34.322600  -29.758100  -128.501000
  C     36.339500  -30.557400  -128.714000
  H     36.375200  -30.501100  -129.872000
  H     36.891900  -31.435000  -128.429000
  C     36.991500  -29.291000  -128.102000
  H     37.988000  -29.072100  -128.636000
  H     37.158000  -29.435700  -127.039000
  H     36.387100  -28.332900  -128.236000
  H     30.541600  -28.696300  -132.798000
  H     33.580000  -35.193600  -128.890000

 Total Charge           Charge          ....    0
 Multiplicity           Mult            ....    1
 Number of Electrons    NEL             ....  134
 Basis Dimension        Dim             ....  322

ORBITAL ENERGIES
----------------

  NO   OCC          E(Eh)            E(eV)
   0   2.0000     -88.969606     -2420.9861
   1   2.0000     -88.967184     -2420.9201
   2   2.0000     -10.333982      -281.2019
   3   2.0000     -10.328526      -281.0535
   4   2.0000     -10.318538      -280.7817
   5   2.0000     -10.314235      -280.6646
   6   2.0000     -10.309054      -280.5236
   7   2.0000     -10.306903      -280.4651
   8   2.0000     -10.298102      -280.2256
   9   2.0000     -10.293514      -280.1008
  10   2.0000     -10.291993      -280.0594
  11   2.0000     -10.291149      -280.0364
  12   2.0000     -10.290950      -280.0310
  13   2.0000     -10.289865      -280.0015
  14   2.0000     -10.286544      -279.9111
  15   2.0000     -10.281169      -279.7648
  16   2.0000      -8.083588      -219.9656
  17   2.0000      -8.082021      -219.9230
  18   2.0000      -6.042180      -164.4161
  19   2.0000      -6.040477      -164.3697
  20   2.0000      -6.038209      -164.3080
  21   2.0000      -6.036694      -164.2668
  22   2.0000      -6.034300      -164.2017
  23   2.0000      -6.032667      -164.1572
  24   2.0000      -1.005124       -27.3508
  25   2.0000      -0.979791       -26.6615
  26   2.0000      -0.912793       -24.8384
  27   2.0000      -0.909876       -24.7590
  28   2.0000      -0.867087       -23.5946
  29   2.0000      -0.852935       -23.2095
  30   2.0000      -0.843455       -22.9516
  31   2.0000      -0.811519       -22.0826
  32   2.0000      -0.785607       -21.3775
  33   2.0000      -0.772890       -21.0314
  34   2.0000      -0.704159       -19.1611
  35   2.0000      -0.703762       -19.1503
  36   2.0000      -0.694739       -18.9048
  37   2.0000      -0.660281       -17.9672
  38   2.0000      -0.636818       -17.3287
  39   2.0000      -0.620473       -16.8839
  40   2.0000      -0.591597       -16.0982
  41   2.0000      -0.577961       -15.7271
  42   2.0000      -0.569390       -15.4939
  43   2.0000      -0.555959       -15.1284
  44   2.0000      -0.523415       -14.2428
  45   2.0000      -0.518380       -14.1058
  46   2.0000      -0.516713       -14.0605
  47   2.0000      -0.507423       -13.8077
  48   2.0000      -0.504034       -13.7154
  49   2.0000      -0.501655       -13.6507
  50   2.0000      -0.493459       -13.4277
  51   2.0000      -0.484043       -13.1715
  52   2.0000      -0.477151       -12.9839
  53   2.0000      -0.463972       -12.6253
  54   2.0000      -0.463106       -12.6018
  55   2.0000      -0.450744       -12.2654
  56   2.0000      -0.439480       -11.9589
  57   2.0000      -0.437554       -11.9064
  58   2.0000      -0.434681       -11.8283
  59   2.0000      -0.430126       -11.7043
  60   2.0000      -0.423918       -11.5354
  61   2.0000      -0.419878       -11.4254
  62   2.0000      -0.415941       -11.3183
  63   2.0000      -0.354149        -9.6369
  64   2.0000      -0.336693        -9.1619
  65   2.0000      -0.329534        -8.9671
  66   2.0000      -0.280040        -7.6203
  67   0.0000       0.018015         0.4902
  68   0.0000       0.077541         2.1100
  69   0.0000       0.091542         2.4910
  70   0.0000       0.117873         3.2075
  71   0.0000       0.127348         3.4653

MULLIKEN ATOMIC CHARGES
-----------------------
   0 S :    0.092062
   1 C :   -0.105025
   2 C :   -0.076368
   3 C :    0.011063
   4 C :   -0.138168
   5 H :   -0.013101
   6 C :    0.090091
   7 H :    0.014911
   8 H :    0.020708
   9 C :   -0.053188
  10 H :    0.019199
  11 H :    0.017778
  12 C :   -0.064352
  13 H :    0.030689
  14 H :    0.037684
  15 H :    0.046930
  16 S :    0.099238
  17 C :   -0.107370
  18 C :   -0.047099
  19 C :   -0.033598
  20 C :   -0.118245
  21 H :    0.010156
  22 C :    0.085661
  23 H :    0.010143
  24 H :    0.021352
  25 C :   -0.092484
  26 H :    0.046493
  27 H :    0.032885
  28 C :   -0.081523
  29 H :    0.050266
  30 H :    0.040024
  31 H :    0.040296
  32 H :    0.040422
  33 H :    0.072472
Sum of atomic charges:   -0.0000000

LOEWDIN ATOMIC CHARGES
----------------------
   0 S :    0.402167
   1 C :   -0.189917
   2 C :   -0.050950
   3 C :   -0.073387
   4 C :   -0.188349
   5 H :    0.025267
   6 C :   -0.013360
   7 H :    0.021217
   8 H :    0.029764
   9 C :   -0.039533
  10 H :    0.020361
  11 H :    0.018587
  12 C :   -0.069927
  13 H :    0.019806
  14 H :    0.029731
  15 H :    0.036025
  16 S :    0.393384
  17 C :   -0.201748
  18 C :   -0.076716
  19 C :   -0.050369
  20 C :   -0.187778
  21 H :    0.028715
  22 C :   -0.028048
  23 H :    0.022356
  24 H :    0.029524
  25 C :   -0.041699
  26 H :    0.032190
  27 H :    0.022887
  28 C :   -0.076427
  29 H :    0.036235
  30 H :    0.023839
  31 H :    0.030007
  32 H :    0.021876
  33 H :    0.044269

  Mayer bond orders larger than 0.100000
B(  0-S ,  1-C ) :   1.1245 B(  0-S ,  4-C ) :   1.1550 B(  1-C ,  2-C ) :   1.6351
B(  1-C , 32-H ) :   0.9671 B(  2-C ,  3-C ) :   1.2219 B(  2-C ,  6-C ) :   1.0048
B(  3-C ,  4-C ) :   1.5792 B(  3-C ,  5-H ) :   0.9855 B(  4-C , 20-C ) :   1.0606
B(  6-C ,  7-H ) :   0.9488 B(  6-C ,  8-H ) :   0.9446 B(  6-C ,  9-C ) :   1.0585
B(  9-C , 10-H ) :   0.9554 B(  9-C , 11-H ) :   0.9585 B(  9-C , 12-C ) :   1.0814
B( 12-C , 13-H ) :   0.9745 B( 12-C , 14-H ) :   0.9760 B( 12-C , 15-H ) :   0.9738
B( 16-S , 17-C ) :   1.1429 B( 16-S , 20-C ) :   1.1409 B( 17-C , 18-C ) :   1.6311
B( 17-C , 20-C ) :   0.1013 B( 17-C , 33-H ) :   0.9584 B( 18-C , 19-C ) :   1.2388
B( 18-C , 21-H ) :   0.9903 B( 19-C , 20-C ) :   1.5692 B( 19-C , 22-C ) :   1.0362
B( 22-C , 23-H ) :   0.9271 B( 22-C , 24-H ) :   0.9358 B( 22-C , 25-C ) :   1.0604
B( 25-C , 26-H ) :   0.9562 B( 25-C , 27-H ) :   0.9528 B( 25-C , 28-C ) :   1.0743
B( 28-C , 29-H ) :   0.9747 B( 28-C , 30-H ) :   0.9746 B( 28-C , 31-H ) :   0.9749

Dispersion correction           -0.013556670
FINAL SINGLE POINT ENERGY     -1339.867649623767

DIPOLE MOMENT
-------------
                                X             Y             Z
Electronic contribution:    -19.67187     -26.29718      -0.57351
Nuclear contribution   :     20.24649      26.66071       0.77134
                        -----------------------------------------
Total Dipole Moment    :      0.57462       0.36353       0.19783
                        -----------------------------------------
Magnitude (a.u.)       :      0.70815
Magnitude (Debye)      :      1.79998

Rotational constants in cm-1:     0.017618     0.008539     0.005964
Rotational constants in MHz :   528.177659   256.002956   178.793070

                             ****ORCA TERMINATED NORMALLY****
TOTAL RUN TIME: 0 days 0 hours 0 minutes 19 seconds 854 msec
