                         Program Version 4.2.1 -  RELEASE  -
|  1> ! wB97X-D3 SP def2-SVP
|  2> %pal
|  3> nprocs 24
|  4> end
|  5>
|  6> * xyz 0 1
|  7> S 	 21.8721 	 -2.26545 	 -111.321
|  8> C 	 20.1826 	 -2.48794 	 -111.462
|  9> C 	 19.4632 	 -1.30943 	 -111.336
| 10> C 	 20.3567 	 -0.227668 	 -111.147
| 11> C 	 21.6996 	 -0.573389 	 -111.035
| 12> H 	 20.163 	 0.818669 	 -111.242
| 13> C 	 18.0395 	 -1.14746 	 -111.732
| 14> H 	 17.8323 	 -1.90131 	 -112.518
| 15> H 	 17.9659 	 -0.149621 	 -112.136
| 16> C 	 16.9436 	 -1.44107 	 -110.677
| 17> H 	 15.9575 	 -1.49464 	 -111.119
| 18> H 	 17.1761 	 -2.4157 	 -110.26
| 19> C 	 16.9594 	 -0.406371 	 -109.515
| 20> H 	 16.9437 	 0.662691 	 -109.847
| 21> H 	 16.1177 	 -0.542226 	 -108.84
| 22> H 	 17.8145 	 -0.575273 	 -108.9
| 23> S 	 23.7856 	 0.2753 	 -112.625
| 24> C 	 24.6336 	 1.68369 	 -112.151
| 25> C 	 24.217 	 2.19063 	 -110.916
| 26> C 	 23.1506 	 1.46966 	 -110.284
| 27> C 	 22.7808 	 0.338559 	 -111.142
| 28> H 	 24.5856 	 3.15517 	 -110.544
| 29> C 	 22.5142 	 1.75339 	 -108.871
| 30> H 	 21.5002 	 1.39042 	 -108.946
| 31> H 	 22.4209 	 2.80439 	 -108.571
| 32> C 	 23.1821 	 1.01769 	 -107.655
| 33> H 	 22.9974 	 1.53074 	 -106.678
| 34> H 	 24.3278 	 1.01618 	 -107.719
| 35> C 	 22.842 	 -0.454907 	 -107.329
| 36> H 	 21.76 	 -0.653345 	 -107.146
| 37> H 	 23.2315 	 -0.818922 	 -106.404
| 38> H 	 23.1516 	 -0.991878 	 -108.161
| 39> H 	 19.6498 	 -3.39049 	 -111.698
| 40> H 	 25.3634 	 2.1607 	 -112.767
| 41> *
| 42>
| 43>                          ****END OF INPUT****

CARTESIAN COORDINATES (ANGSTROEM)
---------------------------------
  S     21.872100   -2.265450  -111.321000
  C     20.182600   -2.487940  -111.462000
  C     19.463200   -1.309430  -111.336000
  C     20.356700   -0.227668  -111.147000
  C     21.699600   -0.573389  -111.035000
  H     20.163000    0.818669  -111.242000
  C     18.039500   -1.147460  -111.732000
  H     17.832300   -1.901310  -112.518000
  H     17.965900   -0.149621  -112.136000
  C     16.943600   -1.441070  -110.677000
  H     15.957500   -1.494640  -111.119000
  H     17.176100   -2.415700  -110.260000
  C     16.959400   -0.406371  -109.515000
  H     16.943700    0.662691  -109.847000
  H     16.117700   -0.542226  -108.840000
  H     17.814500   -0.575273  -108.900000
  S     23.785600    0.275300  -112.625000
  C     24.633600    1.683690  -112.151000
  C     24.217000    2.190630  -110.916000
  C     23.150600    1.469660  -110.284000
  C     22.780800    0.338559  -111.142000
  H     24.585600    3.155170  -110.544000
  C     22.514200    1.753390  -108.871000
  H     21.500200    1.390420  -108.946000
  H     22.420900    2.804390  -108.571000
  C     23.182100    1.017690  -107.655000
  H     22.997400    1.530740  -106.678000
  H     24.327800    1.016180  -107.719000
  C     22.842000   -0.454907  -107.329000
  H     21.760000   -0.653345  -107.146000
  H     23.231500   -0.818922  -106.404000
  H     23.151600   -0.991878  -108.161000
  H     19.649800   -3.390490  -111.698000
  H     25.363400    2.160700  -112.767000

 Total Charge           Charge          ....    0
 Multiplicity           Mult            ....    1
 Number of Electrons    NEL             ....  134
 Basis Dimension        Dim             ....  322

ORBITAL ENERGIES
----------------

  NO   OCC          E(Eh)            E(eV)
   0   2.0000     -88.971326     -2421.0329
   1   2.0000     -88.969561     -2420.9848
   2   2.0000     -10.333320      -281.1839
   3   2.0000     -10.321504      -280.8624
   4   2.0000     -10.318562      -280.7823
   5   2.0000     -10.315559      -280.7006
   6   2.0000     -10.310367      -280.5593
   7   2.0000     -10.302223      -280.3377
   8   2.0000     -10.297607      -280.2121
   9   2.0000     -10.297223      -280.2017
  10   2.0000     -10.292626      -280.0766
  11   2.0000     -10.291598      -280.0486
  12   2.0000     -10.290764      -280.0259
  13   2.0000     -10.288034      -279.9516
  14   2.0000     -10.275604      -279.6134
  15   2.0000     -10.264571      -279.3132
  16   2.0000      -8.085765      -220.0249
  17   2.0000      -8.085060      -220.0057
  18   2.0000      -6.044095      -164.4682
  19   2.0000      -6.043403      -164.4494
  20   2.0000      -6.040226      -164.3629
  21   2.0000      -6.039354      -164.3392
  22   2.0000      -6.036818      -164.2702
  23   2.0000      -6.036053      -164.2494
  24   2.0000      -1.011112       -27.5137
  25   2.0000      -0.981291       -26.7023
  26   2.0000      -0.913367       -24.8540
  27   2.0000      -0.895424       -24.3657
  28   2.0000      -0.870133       -23.6775
  29   2.0000      -0.851500       -23.1705
  30   2.0000      -0.845083       -22.9959
  31   2.0000      -0.809298       -22.0221
  32   2.0000      -0.786880       -21.4121
  33   2.0000      -0.771056       -20.9815
  34   2.0000      -0.706001       -19.2113
  35   2.0000      -0.704580       -19.1726
  36   2.0000      -0.687598       -18.7105
  37   2.0000      -0.654014       -17.7966
  38   2.0000      -0.642174       -17.4745
  39   2.0000      -0.612953       -16.6793
  40   2.0000      -0.593694       -16.1552
  41   2.0000      -0.574364       -15.6293
  42   2.0000      -0.552628       -15.0378
  43   2.0000      -0.546430       -14.8691
  44   2.0000      -0.543488       -14.7891
  45   2.0000      -0.528246       -14.3743
  46   2.0000      -0.510133       -13.8814
  47   2.0000      -0.507268       -13.8035
  48   2.0000      -0.501041       -13.6340
  49   2.0000      -0.500318       -13.6143
  50   2.0000      -0.491351       -13.3703
  51   2.0000      -0.480932       -13.0868
  52   2.0000      -0.472931       -12.8691
  53   2.0000      -0.462413       -12.5829
  54   2.0000      -0.460345       -12.5266
  55   2.0000      -0.447933       -12.1889
  56   2.0000      -0.440640       -11.9904
  57   2.0000      -0.437434       -11.9032
  58   2.0000      -0.433175       -11.7873
  59   2.0000      -0.425205       -11.5704
  60   2.0000      -0.423995       -11.5375
  61   2.0000      -0.412234       -11.2175
  62   2.0000      -0.406987       -11.0747
  63   2.0000      -0.344363        -9.3706
  64   2.0000      -0.335150        -9.1199
  65   2.0000      -0.328658        -8.9432
  66   2.0000      -0.286549        -7.7974
  67   0.0000       0.025995         0.7073
  68   0.0000       0.061278         1.6675
  69   0.0000       0.113248         3.0816
  70   0.0000       0.116209         3.1622
  71   0.0000       0.125802         3.4232

MULLIKEN ATOMIC CHARGES
-----------------------
   0 S :    0.128952
   1 C :   -0.107257
   2 C :   -0.078519
   3 C :    0.040089
   4 C :   -0.183699
   5 H :    0.010115
   6 C :    0.046999
   7 H :    0.031017
   8 H :    0.024758
   9 C :   -0.047651
  10 H :    0.032514
  11 H :    0.020549
  12 C :   -0.064653
  13 H :    0.034034
  14 H :    0.029167
  15 H :    0.033382
  16 S :    0.129125
  17 C :   -0.089121
  18 C :   -0.038740
  19 C :   -0.032636
  20 C :   -0.183389
  21 H :    0.023247
  22 C :    0.110664
  23 H :    0.018968
  24 H :    0.035892
  25 C :   -0.130180
  26 H :    0.029074
  27 H :    0.039658
  28 C :   -0.026315
  29 H :    0.023317
  30 H :    0.024476
  31 H :    0.025310
  32 H :    0.038219
  33 H :    0.052635
Sum of atomic charges:   -0.0000000

LOEWDIN ATOMIC CHARGES
----------------------
   0 S :    0.441078
   1 C :   -0.204493
   2 C :   -0.070435
   3 C :   -0.051335
   4 C :   -0.222616
   5 H :    0.027594
   6 C :   -0.029786
   7 H :    0.036402
   8 H :    0.029153
   9 C :   -0.034095
  10 H :    0.022102
  11 H :    0.022914
  12 C :   -0.070608
  13 H :    0.027082
  14 H :    0.024403
  15 H :    0.022529
  16 S :    0.419642
  17 C :   -0.199822
  18 C :   -0.075752
  19 C :   -0.045030
  20 C :   -0.195889
  21 H :    0.033063
  22 C :   -0.029362
  23 H :    0.030523
  24 H :    0.037007
  25 C :   -0.050101
  26 H :    0.024474
  27 H :    0.031403
  28 C :   -0.064737
  29 H :    0.026114
  30 H :    0.023636
  31 H :    0.013978
  32 H :    0.025749
  33 H :    0.025216

  Mayer bond orders larger than 0.100000
B(  0-S ,  1-C ) :   1.1689 B(  0-S ,  4-C ) :   1.1541 B(  1-C ,  2-C ) :   1.5790
B(  1-C , 32-H ) :   0.9630 B(  2-C ,  3-C ) :   1.2685 B(  2-C ,  6-C ) :   1.0184
B(  3-C ,  4-C ) :   1.5460 B(  3-C ,  5-H ) :   0.9906 B(  4-C , 20-C ) :   1.0765
B(  6-C ,  7-H ) :   0.9437 B(  6-C ,  8-H ) :   0.9477 B(  6-C ,  9-C ) :   1.0673
B(  9-C , 10-H ) :   0.9602 B(  9-C , 11-H ) :   0.9551 B(  9-C , 12-C ) :   1.0732
B( 12-C , 13-H ) :   0.9780 B( 12-C , 14-H ) :   0.9754 B( 12-C , 15-H ) :   0.9758
B( 16-S , 17-C ) :   1.1685 B( 16-S , 20-C ) :   1.1613 B( 17-C , 18-C ) :   1.5763
B( 17-C , 20-C ) :   0.1107 B( 17-C , 33-H ) :   0.9708 B( 18-C , 19-C ) :   1.2842
B( 18-C , 21-H ) :   0.9843 B( 19-C , 20-C ) :   1.5213 B( 19-C , 22-C ) :   1.0323
B( 22-C , 23-H ) :   0.9327 B( 22-C , 24-H ) :   0.9438 B( 22-C , 25-C ) :   1.0460
B( 25-C , 26-H ) :   0.9611 B( 25-C , 27-H ) :   0.9597 B( 25-C , 28-C ) :   1.0820
B( 28-C , 29-H ) :   0.9724 B( 28-C , 30-H ) :   0.9728 B( 28-C , 31-H ) :   0.9781

Dispersion correction           -0.014823518
FINAL SINGLE POINT ENERGY     -1339.871799048861

DIPOLE MOMENT
-------------
                                X             Y             Z
Electronic contribution:     17.81075      -4.26610     -18.48307
Nuclear contribution   :    -18.24965       4.54543      18.51692
                        -----------------------------------------
Total Dipole Moment    :     -0.43890       0.27933       0.03385
                        -----------------------------------------
Magnitude (a.u.)       :      0.52135
Magnitude (Debye)      :      1.32516

Rotational constants in cm-1:     0.018801     0.008919     0.007496
Rotational constants in MHz :   563.627855   267.379335   224.728480

                             ****ORCA TERMINATED NORMALLY****
TOTAL RUN TIME: 0 days 0 hours 0 minutes 20 seconds 945 msec
