                         Program Version 4.2.1 -  RELEASE  -
|  1> ! wB97X-D3 SP def2-SVP
|  2> %pal
|  3> nprocs 24
|  4> end
|  5>
|  6> * xyz 0 1
|  7> S 	 -114.361 	 36.5567 	 -117.01
|  8> C 	 -112.66 	 36.2358 	 -117.465
|  9> C 	 -111.929 	 36.0555 	 -116.36
| 10> C 	 -112.607 	 36.3517 	 -115.102
| 11> C 	 -113.957 	 36.5569 	 -115.295
| 12> H 	 -112.093 	 36.4415 	 -114.195
| 13> C 	 -110.547 	 35.4838 	 -116.396
| 14> H 	 -110.249 	 35.1626 	 -117.433
| 15> H 	 -110.516 	 34.5937 	 -115.784
| 16> C 	 -109.608 	 36.5921 	 -115.953
| 17> H 	 -110.052 	 37.5503 	 -116.14
| 18> H 	 -109.692 	 36.5206 	 -114.914
| 19> C 	 -108.184 	 36.4565 	 -116.499
| 20> H 	 -107.698 	 35.4353 	 -116.385
| 21> H 	 -108.124 	 36.5932 	 -117.571
| 22> H 	 -107.555 	 37.1835 	 -116.062
| 23> S 	 -115.866 	 38.4738 	 -114.591
| 24> C 	 -116.707 	 38.4114 	 -113.13
| 25> C 	 -116.347 	 37.2928 	 -112.393
| 26> C 	 -115.289 	 36.529 	 -113.03
| 27> C 	 -114.904 	 37.015 	 -114.294
| 28> H 	 -116.931 	 37.0136 	 -111.523
| 29> C 	 -114.887 	 35.2154 	 -112.414
| 30> H 	 -114.071 	 34.8121 	 -112.972
| 31> H 	 -115.76 	 34.5335 	 -112.327
| 32> C 	 -114.418 	 35.3611 	 -110.977
| 33> H 	 -115.115 	 35.8178 	 -110.375
| 34> H 	 -113.471 	 35.8952 	 -110.974
| 35> C 	 -114.052 	 34.0543 	 -110.289
| 36> H 	 -113.601 	 34.2089 	 -109.31
| 37> H 	 -113.407 	 33.4498 	 -110.837
| 38> H 	 -114.998 	 33.5183 	 -110.197
| 39> H 	 -112.298 	 35.8349 	 -118.491
| 40> H 	 -117.596 	 38.983 	 -112.974
| 41> *
| 42>
| 43>                          ****END OF INPUT****

CARTESIAN COORDINATES (ANGSTROEM)
---------------------------------
  S    -114.361000   36.556700  -117.010000
  C    -112.660000   36.235800  -117.465000
  C    -111.929000   36.055500  -116.360000
  C    -112.607000   36.351700  -115.102000
  C    -113.957000   36.556900  -115.295000
  H    -112.093000   36.441500  -114.195000
  C    -110.547000   35.483800  -116.396000
  H    -110.249000   35.162600  -117.433000
  H    -110.516000   34.593700  -115.784000
  C    -109.608000   36.592100  -115.953000
  H    -110.052000   37.550300  -116.140000
  H    -109.692000   36.520600  -114.914000
  C    -108.184000   36.456500  -116.499000
  H    -107.698000   35.435300  -116.385000
  H    -108.124000   36.593200  -117.571000
  H    -107.555000   37.183500  -116.062000
  S    -115.866000   38.473800  -114.591000
  C    -116.707000   38.411400  -113.130000
  C    -116.347000   37.292800  -112.393000
  C    -115.289000   36.529000  -113.030000
  C    -114.904000   37.015000  -114.294000
  H    -116.931000   37.013600  -111.523000
  C    -114.887000   35.215400  -112.414000
  H    -114.071000   34.812100  -112.972000
  H    -115.760000   34.533500  -112.327000
  C    -114.418000   35.361100  -110.977000
  H    -115.115000   35.817800  -110.375000
  H    -113.471000   35.895200  -110.974000
  C    -114.052000   34.054300  -110.289000
  H    -113.601000   34.208900  -109.310000
  H    -113.407000   33.449800  -110.837000
  H    -114.998000   33.518300  -110.197000
  H    -112.298000   35.834900  -118.491000
  H    -117.596000   38.983000  -112.974000

 Total Charge           Charge          ....    0
 Multiplicity           Mult            ....    1
 Number of Electrons    NEL             ....  134
 Basis Dimension        Dim             ....  322

ORBITAL ENERGIES
----------------

  NO   OCC          E(Eh)            E(eV)
   0   2.0000     -88.964706     -2420.8527
   1   2.0000     -88.962324     -2420.7879
   2   2.0000     -10.336655      -281.2747
   3   2.0000     -10.330699      -281.1126
   4   2.0000     -10.317256      -280.7468
   5   2.0000     -10.313755      -280.6516
   6   2.0000     -10.307962      -280.4939
   7   2.0000     -10.297554      -280.2107
   8   2.0000     -10.296524      -280.1827
   9   2.0000     -10.295599      -280.1575
  10   2.0000     -10.290053      -280.0066
  11   2.0000     -10.288119      -279.9540
  12   2.0000     -10.280388      -279.7436
  13   2.0000     -10.279132      -279.7094
  14   2.0000     -10.273833      -279.5652
  15   2.0000     -10.269657      -279.4516
  16   2.0000      -8.078820      -219.8359
  17   2.0000      -8.078045      -219.8148
  18   2.0000      -6.037642      -164.2926
  19   2.0000      -6.036436      -164.2598
  20   2.0000      -6.033501      -164.1799
  21   2.0000      -6.032261      -164.1462
  22   2.0000      -6.029160      -164.0618
  23   2.0000      -6.028991      -164.0572
  24   2.0000      -1.006837       -27.3974
  25   2.0000      -0.986159       -26.8347
  26   2.0000      -0.919928       -25.0325
  27   2.0000      -0.917326       -24.9617
  28   2.0000      -0.873069       -23.7574
  29   2.0000      -0.853154       -23.2155
  30   2.0000      -0.842184       -22.9170
  31   2.0000      -0.817039       -22.2328
  32   2.0000      -0.783557       -21.3217
  33   2.0000      -0.774574       -21.0772
  34   2.0000      -0.714437       -19.4408
  35   2.0000      -0.700084       -19.0502
  36   2.0000      -0.696228       -18.9453
  37   2.0000      -0.657964       -17.9041
  38   2.0000      -0.635549       -17.2942
  39   2.0000      -0.626264       -17.0415
  40   2.0000      -0.601726       -16.3738
  41   2.0000      -0.579935       -15.7808
  42   2.0000      -0.575063       -15.6483
  43   2.0000      -0.560421       -15.2498
  44   2.0000      -0.531380       -14.4596
  45   2.0000      -0.525222       -14.2920
  46   2.0000      -0.517331       -14.0773
  47   2.0000      -0.513670       -13.9777
  48   2.0000      -0.510075       -13.8799
  49   2.0000      -0.500967       -13.6320
  50   2.0000      -0.496540       -13.5115
  51   2.0000      -0.479951       -13.0601
  52   2.0000      -0.474010       -12.8985
  53   2.0000      -0.470365       -12.7993
  54   2.0000      -0.459666       -12.5081
  55   2.0000      -0.451753       -12.2928
  56   2.0000      -0.445465       -12.1217
  57   2.0000      -0.441472       -12.0131
  58   2.0000      -0.434369       -11.8198
  59   2.0000      -0.426715       -11.6115
  60   2.0000      -0.421713       -11.4754
  61   2.0000      -0.411432       -11.1956
  62   2.0000      -0.405740       -11.0408
  63   2.0000      -0.351795        -9.5728
  64   2.0000      -0.327984        -8.9249
  65   2.0000      -0.324274        -8.8239
  66   2.0000      -0.297852        -8.1050
  67   0.0000       0.027734         0.7547
  68   0.0000       0.073395         1.9972
  69   0.0000       0.106818         2.9067
  70   0.0000       0.117420         3.1952
  71   0.0000       0.129300         3.5184

MULLIKEN ATOMIC CHARGES
-----------------------
   0 S :    0.090605
   1 C :   -0.144189
   2 C :   -0.122570
   3 C :    0.054633
   4 C :   -0.137895
   5 H :    0.000307
   6 C :    0.062489
   7 H :    0.014297
   8 H :    0.038348
   9 C :   -0.060684
  10 H :    0.036508
  11 H :    0.011989
  12 C :   -0.036663
  13 H :    0.034845
  14 H :    0.030003
  15 H :    0.028314
  16 S :    0.106362
  17 C :   -0.081219
  18 C :   -0.049590
  19 C :   -0.034266
  20 C :   -0.140254
  21 H :    0.028423
  22 C :    0.088028
  23 H :    0.009271
  24 H :    0.036249
  25 C :   -0.087681
  26 H :    0.013186
  27 H :    0.019885
  28 C :   -0.015075
  29 H :    0.036283
  30 H :    0.009915
  31 H :    0.016847
  32 H :    0.082509
  33 H :    0.060790
Sum of atomic charges:    0.0000000

LOEWDIN ATOMIC CHARGES
----------------------
   0 S :    0.376054
   1 C :   -0.202782
   2 C :   -0.063048
   3 C :   -0.053525
   4 C :   -0.177827
   5 H :    0.022491
   6 C :   -0.026340
   7 H :    0.026847
   8 H :    0.029486
   9 C :   -0.038154
  10 H :    0.027099
  11 H :    0.016698
  12 C :   -0.065384
  13 H :    0.033178
  14 H :    0.024593
  15 H :    0.021248
  16 S :    0.425387
  17 C :   -0.199276
  18 C :   -0.075439
  19 C :   -0.050579
  20 C :   -0.201079
  21 H :    0.031938
  22 C :   -0.027555
  23 H :    0.024370
  24 H :    0.036427
  25 C :   -0.034133
  26 H :    0.009455
  27 H :    0.022464
  28 C :   -0.056451
  29 H :    0.028552
  30 H :    0.012508
  31 H :    0.022378
  32 H :    0.051845
  33 H :    0.028553

  Mayer bond orders larger than 0.100000
B(  0-S ,  1-C ) :   1.0894 B(  0-S ,  4-C ) :   1.1436 B(  1-C ,  2-C ) :   1.6953
B(  1-C , 32-H ) :   0.9476 B(  2-C ,  3-C ) :   1.1826 B(  2-C ,  6-C ) :   1.0295
B(  3-C ,  4-C ) :   1.5925 B(  3-C ,  5-H ) :   1.0003 B(  4-C , 20-C ) :   1.0462
B(  6-C ,  7-H ) :   0.9509 B(  6-C ,  8-H ) :   0.9419 B(  6-C ,  9-C ) :   1.0261
B(  9-C , 10-H ) :   0.9620 B(  9-C , 11-H ) :   0.9525 B(  9-C , 12-C ) :   1.0848
B( 12-C , 13-H ) :   0.9725 B( 12-C , 14-H ) :   0.9745 B( 12-C , 15-H ) :   0.9737
B( 16-S , 17-C ) :   1.1882 B( 16-S , 20-C ) :   1.1375 B( 17-C , 18-C ) :   1.5830
B( 17-C , 33-H ) :   0.9657 B( 18-C , 19-C ) :   1.2469 B( 18-C , 21-H ) :   0.9895
B( 19-C , 20-C ) :   1.5705 B( 19-C , 22-C ) :   1.0641 B( 22-C , 23-H ) :   0.9271
B( 22-C , 24-H ) :   0.9371 B( 22-C , 25-C ) :   1.0685 B( 25-C , 26-H ) :   0.9583
B( 25-C , 27-H ) :   0.9524 B( 25-C , 28-C ) :   1.0926 B( 28-C , 29-H ) :   0.9735
B( 28-C , 30-H ) :   0.9727 B( 28-C , 31-H ) :   0.9722

Dispersion correction           -0.013346522
FINAL SINGLE POINT ENERGY     -1339.866414731584

DIPOLE MOMENT
-------------
                                X             Y             Z
Electronic contribution:    -21.54017      13.02441     -13.45603
Nuclear contribution   :     21.91326     -13.40757      13.84424
                        -----------------------------------------
Total Dipole Moment    :      0.37309      -0.38317       0.38821
                        -----------------------------------------
Magnitude (a.u.)       :      0.66085
Magnitude (Debye)      :      1.67974

Rotational constants in cm-1:     0.017352     0.008171     0.006233
Rotational constants in MHz :   520.195195   244.960039   186.856587

                             ****ORCA TERMINATED NORMALLY****
TOTAL RUN TIME: 0 days 0 hours 0 minutes 21 seconds 6 msec
