                         Program Version 4.2.1 -  RELEASE  -
|  1> ! wB97X-D3 SP def2-SVP
|  2> %pal
|  3> nprocs 24
|  4> end
|  5>
|  6> * xyz 0 1
|  7> S 	 -94.2525 	 6.09677 	 -0.921952
|  8> C 	 -92.8883 	 5.43327 	 -0.0498595
|  9> C 	 -92.9285 	 5.64303 	 1.33306
| 10> C 	 -94.0717 	 6.41921 	 1.59334
| 11> C 	 -94.8576 	 6.80566 	 0.560876
| 12> H 	 -94.4024 	 6.74347 	 2.58205
| 13> C 	 -91.9548 	 5.03539 	 2.3073
| 14> H 	 -91.4549 	 4.23339 	 1.76891
| 15> H 	 -92.4647 	 4.5928 	 3.15247
| 16> C 	 -90.8934 	 5.99765 	 2.8009
| 17> H 	 -90.2589 	 6.38401 	 1.97892
| 18> H 	 -91.3241 	 6.9701 	 3.09974
| 19> C 	 -90.1032 	 5.53422 	 3.96564
| 20> H 	 -89.0789 	 5.13809 	 3.70203
| 21> H 	 -89.9694 	 6.36174 	 4.67226
| 22> H 	 -90.6424 	 4.82078 	 4.60906
| 23> S 	 -97.5313 	 6.8825 	 0.969109
| 24> C 	 -98.3648 	 8.4599 	 1.05051
| 25> C 	 -97.4664 	 9.46894 	 1.24961
| 26> C 	 -96.1431 	 9.03062 	 0.980056
| 27> C 	 -96.0275 	 7.67574 	 0.647141
| 28> H 	 -97.8007 	 10.4778 	 1.50941
| 29> C 	 -94.9973 	 10.0097 	 1.16341
| 30> H 	 -95.1807 	 10.9628 	 0.624882
| 31> H 	 -94.127 	 9.52947 	 0.618015
| 32> C 	 -94.7433 	 10.4469 	 2.61506
| 33> H 	 -95.7163 	 10.5571 	 3.10151
| 34> H 	 -94.1299 	 11.3315 	 2.69452
| 35> C 	 -94.0701 	 9.31591 	 3.40958
| 36> H 	 -93.3473 	 8.7896 	 2.79103
| 37> H 	 -94.8297 	 8.63825 	 3.75971
| 38> H 	 -93.6517 	 9.80564 	 4.33816
| 39> H 	 -92.0754 	 4.80125 	 -0.511708
| 40> H 	 -99.4124 	 8.74793 	 1.12941
| 41> *
| 42>
| 43>                          ****END OF INPUT****

CARTESIAN COORDINATES (ANGSTROEM)
---------------------------------
  S    -94.252500    6.096770   -0.921952
  C    -92.888300    5.433270   -0.049860
  C    -92.928500    5.643030    1.333060
  C    -94.071700    6.419210    1.593340
  C    -94.857600    6.805660    0.560876
  H    -94.402400    6.743470    2.582050
  C    -91.954800    5.035390    2.307300
  H    -91.454900    4.233390    1.768910
  H    -92.464700    4.592800    3.152470
  C    -90.893400    5.997650    2.800900
  H    -90.258900    6.384010    1.978920
  H    -91.324100    6.970100    3.099740
  C    -90.103200    5.534220    3.965640
  H    -89.078900    5.138090    3.702030
  H    -89.969400    6.361740    4.672260
  H    -90.642400    4.820780    4.609060
  S    -97.531300    6.882500    0.969109
  C    -98.364800    8.459900    1.050510
  C    -97.466400    9.468940    1.249610
  C    -96.143100    9.030620    0.980056
  C    -96.027500    7.675740    0.647141
  H    -97.800700   10.477800    1.509410
  C    -94.997300   10.009700    1.163410
  H    -95.180700   10.962800    0.624882
  H    -94.127000    9.529470    0.618015
  C    -94.743300   10.446900    2.615060
  H    -95.716300   10.557100    3.101510
  H    -94.129900   11.331500    2.694520
  C    -94.070100    9.315910    3.409580
  H    -93.347300    8.789600    2.791030
  H    -94.829700    8.638250    3.759710
  H    -93.651700    9.805640    4.338160
  H    -92.075400    4.801250   -0.511708
  H    -99.412400    8.747930    1.129410

 Total Charge           Charge          ....    0
 Multiplicity           Mult            ....    1
 Number of Electrons    NEL             ....  134
 Basis Dimension        Dim             ....  322

ORBITAL ENERGIES
----------------

  NO   OCC          E(Eh)            E(eV)
   0   2.0000     -88.967357     -2420.9249
   1   2.0000     -88.965805     -2420.8826
   2   2.0000     -10.324696      -280.9493
   3   2.0000     -10.323057      -280.9047
   4   2.0000     -10.319901      -280.8188
   5   2.0000     -10.318191      -280.7723
   6   2.0000     -10.303746      -280.3792
   7   2.0000     -10.300212      -280.2830
   8   2.0000     -10.293509      -280.1006
   9   2.0000     -10.292001      -280.0596
  10   2.0000     -10.291887      -280.0565
  11   2.0000     -10.289064      -279.9797
  12   2.0000     -10.285101      -279.8718
  13   2.0000     -10.284116      -279.8450
  14   2.0000     -10.280689      -279.7518
  15   2.0000     -10.274837      -279.5925
  16   2.0000      -8.081952      -219.9211
  17   2.0000      -8.080228      -219.8742
  18   2.0000      -6.040323      -164.3656
  19   2.0000      -6.038907      -164.3270
  20   2.0000      -6.036525      -164.2622
  21   2.0000      -6.034967      -164.2198
  22   2.0000      -6.032813      -164.1612
  23   2.0000      -6.030613      -164.1013
  24   2.0000      -1.009085       -27.4586
  25   2.0000      -0.986804       -26.8523
  26   2.0000      -0.918581       -24.9959
  27   2.0000      -0.907473       -24.6936
  28   2.0000      -0.873740       -23.7757
  29   2.0000      -0.852805       -23.2060
  30   2.0000      -0.843514       -22.9532
  31   2.0000      -0.818253       -22.2658
  32   2.0000      -0.782772       -21.3003
  33   2.0000      -0.765834       -20.8394
  34   2.0000      -0.705581       -19.1998
  35   2.0000      -0.695620       -18.9288
  36   2.0000      -0.689691       -18.7674
  37   2.0000      -0.656418       -17.8620
  38   2.0000      -0.643942       -17.5226
  39   2.0000      -0.620844       -16.8940
  40   2.0000      -0.592689       -16.1279
  41   2.0000      -0.576773       -15.6948
  42   2.0000      -0.559630       -15.2283
  43   2.0000      -0.550269       -14.9736
  44   2.0000      -0.542320       -14.7573
  45   2.0000      -0.526926       -14.3384
  46   2.0000      -0.521251       -14.1840
  47   2.0000      -0.513971       -13.9859
  48   2.0000      -0.500633       -13.6229
  49   2.0000      -0.497216       -13.5299
  50   2.0000      -0.495417       -13.4810
  51   2.0000      -0.479521       -13.0484
  52   2.0000      -0.465921       -12.6784
  53   2.0000      -0.461326       -12.5533
  54   2.0000      -0.453109       -12.3297
  55   2.0000      -0.450919       -12.2701
  56   2.0000      -0.443392       -12.0653
  57   2.0000      -0.438207       -11.9242
  58   2.0000      -0.431000       -11.7281
  59   2.0000      -0.428644       -11.6640
  60   2.0000      -0.421051       -11.4574
  61   2.0000      -0.410641       -11.1741
  62   2.0000      -0.404030       -10.9942
  63   2.0000      -0.338885        -9.2215
  64   2.0000      -0.332471        -9.0470
  65   2.0000      -0.315637        -8.5889
  66   2.0000      -0.309995        -8.4354
  67   0.0000       0.038564         1.0494
  68   0.0000       0.054803         1.4913
  69   0.0000       0.104138         2.8337
  70   0.0000       0.117783         3.2050
  71   0.0000       0.132329         3.6008

MULLIKEN ATOMIC CHARGES
-----------------------
   0 S :    0.125824
   1 C :   -0.142886
   2 C :   -0.093475
   3 C :    0.052360
   4 C :   -0.202193
   5 H :   -0.004335
   6 C :    0.124780
   7 H :    0.016082
   8 H :    0.026068
   9 C :   -0.099657
  10 H :    0.026292
  11 H :    0.026262
  12 C :   -0.046266
  13 H :    0.047952
  14 H :    0.027044
  15 H :    0.025620
  16 S :    0.109934
  17 C :   -0.074490
  18 C :   -0.054068
  19 C :   -0.035031
  20 C :   -0.149201
  21 H :    0.029457
  22 C :    0.027075
  23 H :    0.030042
  24 H :    0.044180
  25 C :   -0.060785
  26 H :    0.027539
  27 H :    0.035923
  28 C :   -0.083580
  29 H :    0.051709
  30 H :    0.041137
  31 H :    0.035701
  32 H :    0.062665
  33 H :    0.052322
Sum of atomic charges:    0.0000000

LOEWDIN ATOMIC CHARGES
----------------------
   0 S :    0.409875
   1 C :   -0.197009
   2 C :   -0.068312
   3 C :   -0.055086
   4 C :   -0.215255
   5 H :    0.030159
   6 C :   -0.023678
   7 H :    0.031898
   8 H :    0.031499
   9 C :   -0.056435
  10 H :    0.029766
  11 H :    0.025997
  12 C :   -0.074415
  13 H :    0.032182
  14 H :    0.030041
  15 H :    0.026445
  16 S :    0.405245
  17 C :   -0.173314
  18 C :   -0.074327
  19 C :   -0.053221
  20 C :   -0.212539
  21 H :    0.035932
  22 C :   -0.040973
  23 H :    0.031620
  24 H :    0.035581
  25 C :   -0.037281
  26 H :    0.026436
  27 H :    0.022636
  28 C :   -0.066521
  29 H :    0.020751
  30 H :    0.020509
  31 H :    0.031186
  32 H :    0.036549
  33 H :    0.034059

  Mayer bond orders larger than 0.100000
B(  0-S ,  1-C ) :   1.1663 B(  0-S ,  4-C ) :   1.1299 B(  1-C ,  2-C ) :   1.5985
B(  1-C , 32-H ) :   0.9531 B(  2-C ,  3-C ) :   1.2469 B(  2-C ,  6-C ) :   1.0275
B(  3-C ,  4-C ) :   1.6049 B(  3-C ,  5-H ) :   0.9917 B(  4-C , 20-C ) :   1.0014
B(  6-C ,  7-H ) :   0.9307 B(  6-C ,  8-H ) :   0.9369 B(  6-C ,  9-C ) :   1.0657
B(  9-C , 10-H ) :   0.9470 B(  9-C , 11-H ) :   0.9626 B(  9-C , 12-C ) :   1.0771
B( 12-C , 13-H ) :   0.9748 B( 12-C , 14-H ) :   0.9755 B( 12-C , 15-H ) :   0.9711
B( 16-S , 17-C ) :   1.1439 B( 16-S , 20-C ) :   1.1448 B( 17-C , 18-C ) :   1.6292
B( 17-C , 33-H ) :   0.9640 B( 18-C , 19-C ) :   1.2376 B( 18-C , 21-H ) :   0.9864
B( 19-C , 20-C ) :   1.5941 B( 19-C , 22-C ) :   1.0473 B( 22-C , 23-H ) :   0.9369
B( 22-C , 24-H ) :   0.9391 B( 22-C , 25-C ) :   1.0656 B( 25-C , 26-H ) :   0.9566
B( 25-C , 27-H ) :   0.9605 B( 25-C , 28-C ) :   1.0694 B( 28-C , 29-H ) :   0.9720
B( 28-C , 30-H ) :   0.9725 B( 28-C , 31-H ) :   0.9704

Dispersion correction           -0.015681572
FINAL SINGLE POINT ENERGY     -1339.868566956662

DIPOLE MOMENT
-------------
                                X             Y             Z
Electronic contribution:    -21.34414      -7.23000     -19.93662
Nuclear contribution   :     21.65646       7.57170      20.53524
                        -----------------------------------------
Total Dipole Moment    :      0.31232       0.34169       0.59862
                        -----------------------------------------
Magnitude (a.u.)       :      0.75673
Magnitude (Debye)      :      1.92346

Rotational constants in cm-1:     0.019888     0.009085     0.007215
Rotational constants in MHz :   596.232273   272.348313   216.298645

                             ****ORCA TERMINATED NORMALLY****
TOTAL RUN TIME: 0 days 0 hours 0 minutes 22 seconds 834 msec
