                         Program Version 4.2.1 -  RELEASE  -
|  1> ! wB97X-D3 SP def2-SVP
|  2> %pal
|  3> nprocs 24
|  4> end
|  5>
|  6> * xyz 0 1
|  7> S 	 -56.6784 	 8.92325 	 -86.8377
|  8> C 	 -57.3809 	 9.5469 	 -88.2835
|  9> C 	 -58.6495 	 10.0176 	 -88.1229
| 10> C 	 -59.1522 	 9.65501 	 -86.8151
| 11> C 	 -58.2247 	 9.07488 	 -86.0252
| 12> H 	 -60.0764 	 9.81717 	 -86.2932
| 13> C 	 -59.4839 	 10.6973 	 -89.1873
| 14> H 	 -60.5169 	 10.4956 	 -88.8289
| 15> H 	 -59.3772 	 10.2176 	 -90.1851
| 16> C 	 -59.3502 	 12.2003 	 -89.321
| 17> H 	 -58.4557 	 12.5599 	 -89.8273
| 18> H 	 -60.0164 	 12.5399 	 -90.0934
| 19> C 	 -59.6175 	 12.9871 	 -88.0763
| 20> H 	 -58.7099 	 12.9966 	 -87.4357
| 21> H 	 -59.8339 	 14.035 	 -88.1866
| 22> H 	 -60.4029 	 12.5273 	 -87.5719
| 23> S 	 -57.3779 	 9.37567 	 -83.4344
| 24> C 	 -58.3125 	 8.60482 	 -82.1715
| 25> C 	 -59.3684 	 7.86755 	 -82.5775
| 26> C 	 -59.486 	 7.93504 	 -84.068
| 27> C 	 -58.4462 	 8.67123 	 -84.633
| 28> H 	 -60.044 	 7.29835 	 -81.9434
| 29> C 	 -60.6262 	 7.28808 	 -84.7894
| 30> H 	 -60.7684 	 6.20391 	 -84.6096
| 31> H 	 -60.3849 	 7.37981 	 -85.8457
| 32> C 	 -62.008 	 8.06857 	 -84.8274
| 33> H 	 -62.7943 	 7.49365 	 -85.3303
| 34> H 	 -61.9913 	 8.96915 	 -85.4536
| 35> C 	 -62.3839 	 8.53479 	 -83.4782
| 36> H 	 -63.302 	 9.13978 	 -83.5254
| 37> H 	 -61.672 	 9.19049 	 -83.0315
| 38> H 	 -62.5028 	 7.69009 	 -82.7972
| 39> H 	 -56.9071 	 9.51295 	 -89.2667
| 40> H 	 -58.1385 	 8.7026 	 -81.1466
| 41> *
| 42>
| 43>                          ****END OF INPUT****

CARTESIAN COORDINATES (ANGSTROEM)
---------------------------------
  S    -56.678400    8.923250  -86.837700
  C    -57.380900    9.546900  -88.283500
  C    -58.649500   10.017600  -88.122900
  C    -59.152200    9.655010  -86.815100
  C    -58.224700    9.074880  -86.025200
  H    -60.076400    9.817170  -86.293200
  C    -59.483900   10.697300  -89.187300
  H    -60.516900   10.495600  -88.828900
  H    -59.377200   10.217600  -90.185100
  C    -59.350200   12.200300  -89.321000
  H    -58.455700   12.559900  -89.827300
  H    -60.016400   12.539900  -90.093400
  C    -59.617500   12.987100  -88.076300
  H    -58.709900   12.996600  -87.435700
  H    -59.833900   14.035000  -88.186600
  H    -60.402900   12.527300  -87.571900
  S    -57.377900    9.375670  -83.434400
  C    -58.312500    8.604820  -82.171500
  C    -59.368400    7.867550  -82.577500
  C    -59.486000    7.935040  -84.068000
  C    -58.446200    8.671230  -84.633000
  H    -60.044000    7.298350  -81.943400
  C    -60.626200    7.288080  -84.789400
  H    -60.768400    6.203910  -84.609600
  H    -60.384900    7.379810  -85.845700
  C    -62.008000    8.068570  -84.827400
  H    -62.794300    7.493650  -85.330300
  H    -61.991300    8.969150  -85.453600
  C    -62.383900    8.534790  -83.478200
  H    -63.302000    9.139780  -83.525400
  H    -61.672000    9.190490  -83.031500
  H    -62.502800    7.690090  -82.797200
  H    -56.907100    9.512950  -89.266700
  H    -58.138500    8.702600  -81.146600

 Total Charge           Charge          ....    0
 Multiplicity           Mult            ....    1
 Number of Electrons    NEL             ....  134
 Basis Dimension        Dim             ....  322

ORBITAL ENERGIES
----------------

  NO   OCC          E(Eh)            E(eV)
   0   2.0000     -88.966289     -2420.8958
   1   2.0000     -88.965051     -2420.8621
   2   2.0000     -10.328222      -281.0452
   3   2.0000     -10.323639      -280.9205
   4   2.0000     -10.311195      -280.5819
   5   2.0000     -10.310734      -280.5693
   6   2.0000     -10.308090      -280.4974
   7   2.0000     -10.301079      -280.3066
   8   2.0000     -10.297523      -280.2099
   9   2.0000     -10.296585      -280.1843
  10   2.0000     -10.291612      -280.0490
  11   2.0000     -10.290782      -280.0264
  12   2.0000     -10.287936      -279.9490
  13   2.0000     -10.279508      -279.7196
  14   2.0000     -10.268100      -279.4092
  15   2.0000     -10.267685      -279.3979
  16   2.0000      -8.081190      -219.9004
  17   2.0000      -8.080476      -219.8809
  18   2.0000      -6.039899      -164.3540
  19   2.0000      -6.038943      -164.3280
  20   2.0000      -6.035804      -164.2426
  21   2.0000      -6.035043      -164.2219
  22   2.0000      -6.031621      -164.1287
  23   2.0000      -6.031085      -164.1142
  24   2.0000      -1.009311       -27.4647
  25   2.0000      -0.984564       -26.7913
  26   2.0000      -0.916176       -24.9304
  27   2.0000      -0.910240       -24.7689
  28   2.0000      -0.874312       -23.7912
  29   2.0000      -0.852994       -23.2111
  30   2.0000      -0.846128       -23.0243
  31   2.0000      -0.821282       -22.3482
  32   2.0000      -0.785468       -21.3737
  33   2.0000      -0.772592       -21.0233
  34   2.0000      -0.707671       -19.2567
  35   2.0000      -0.706140       -19.2150
  36   2.0000      -0.688216       -18.7273
  37   2.0000      -0.664484       -18.0815
  38   2.0000      -0.645642       -17.5688
  39   2.0000      -0.608738       -16.5646
  40   2.0000      -0.590953       -16.0806
  41   2.0000      -0.571124       -15.5411
  42   2.0000      -0.560018       -15.2389
  43   2.0000      -0.555599       -15.1186
  44   2.0000      -0.546002       -14.8575
  45   2.0000      -0.542589       -14.7646
  46   2.0000      -0.519416       -14.1340
  47   2.0000      -0.514664       -14.0047
  48   2.0000      -0.498519       -13.5654
  49   2.0000      -0.493835       -13.4379
  50   2.0000      -0.490498       -13.3471
  51   2.0000      -0.480499       -13.0750
  52   2.0000      -0.474415       -12.9095
  53   2.0000      -0.470938       -12.8149
  54   2.0000      -0.456581       -12.4242
  55   2.0000      -0.449607       -12.2344
  56   2.0000      -0.447086       -12.1658
  57   2.0000      -0.438035       -11.9195
  58   2.0000      -0.434112       -11.8128
  59   2.0000      -0.429116       -11.6768
  60   2.0000      -0.422466       -11.4959
  61   2.0000      -0.404165       -10.9979
  62   2.0000      -0.401875       -10.9356
  63   2.0000      -0.352406        -9.5895
  64   2.0000      -0.331789        -9.0284
  65   2.0000      -0.328159        -8.9297
  66   2.0000      -0.295727        -8.0471
  67   0.0000       0.039391         1.0719
  68   0.0000       0.069322         1.8864
  69   0.0000       0.112078         3.0498
  70   0.0000       0.119045         3.2394
  71   0.0000       0.122231         3.3261

MULLIKEN ATOMIC CHARGES
-----------------------
   0 S :    0.115706
   1 C :   -0.121153
   2 C :   -0.065697
   3 C :    0.036641
   4 C :   -0.163676
   5 H :   -0.009541
   6 C :    0.053302
   7 H :    0.023922
   8 H :    0.038217
   9 C :   -0.046057
  10 H :    0.013374
  11 H :    0.011879
  12 C :   -0.025567
  13 H :    0.042435
  14 H :    0.028352
  15 H :    0.007893
  16 S :    0.106994
  17 C :   -0.050602
  18 C :   -0.024417
  19 C :   -0.070294
  20 C :   -0.140475
  21 H :    0.024708
  22 C :    0.037479
  23 H :    0.050067
  24 H :    0.025034
  25 C :   -0.069473
  26 H :    0.029973
  27 H :    0.017945
  28 C :   -0.047937
  29 H :    0.027504
  30 H :    0.040826
  31 H :    0.022290
  32 H :    0.049555
  33 H :    0.030794
Sum of atomic charges:    0.0000000

LOEWDIN ATOMIC CHARGES
----------------------
   0 S :    0.405039
   1 C :   -0.196747
   2 C :   -0.066187
   3 C :   -0.061996
   4 C :   -0.193362
   5 H :    0.029321
   6 C :   -0.031503
   7 H :    0.033470
   8 H :    0.037715
   9 C :   -0.048466
  10 H :    0.022255
  11 H :    0.023012
  12 C :   -0.060631
  13 H :    0.033674
  14 H :    0.026348
  15 H :    0.013835
  16 S :    0.396646
  17 C :   -0.174235
  18 C :   -0.062484
  19 C :   -0.053946
  20 C :   -0.192385
  21 H :    0.034022
  22 C :   -0.043811
  23 H :    0.037453
  24 H :    0.034017
  25 C :   -0.038547
  26 H :    0.026794
  27 H :    0.019568
  28 C :   -0.068948
  29 H :    0.026831
  30 H :    0.023052
  31 H :    0.020316
  32 H :    0.032065
  33 H :    0.017814

  Mayer bond orders larger than 0.100000
B(  0-S ,  1-C ) :   1.1355 B(  0-S ,  4-C ) :   1.1341 B(  1-C ,  2-C ) :   1.6455
B(  1-C , 32-H ) :   0.9653 B(  2-C ,  3-C ) :   1.1871 B(  2-C ,  6-C ) :   1.0111
B(  3-C ,  4-C ) :   1.6292 B(  3-C ,  5-H ) :   0.9937 B(  4-C , 20-C ) :   1.0108
B(  6-C ,  7-H ) :   0.9397 B(  6-C ,  8-H ) :   0.9420 B(  6-C ,  9-C ) :   1.0863
B(  9-C , 10-H ) :   0.9495 B(  9-C , 11-H ) :   0.9480 B(  9-C , 12-C ) :   1.0795
B( 12-C , 13-H ) :   0.9705 B( 12-C , 14-H ) :   0.9713 B( 12-C , 15-H ) :   0.9756
B( 16-S , 17-C ) :   1.1266 B( 16-S , 20-C ) :   1.1269 B( 17-C , 18-C ) :   1.6683
B( 17-C , 33-H ) :   0.9677 B( 18-C , 19-C ) :   1.1743 B( 18-C , 21-H ) :   0.9879
B( 19-C , 20-C ) :   1.6519 B( 19-C , 22-C ) :   1.0597 B( 22-C , 23-H ) :   0.9416
B( 22-C , 24-H ) :   0.9255 B( 22-C , 25-C ) :   1.0553 B( 25-C , 26-H ) :   0.9521
B( 25-C , 27-H ) :   0.9501 B( 25-C , 28-C ) :   1.1008 B( 28-C , 29-H ) :   0.9682
B( 28-C , 30-H ) :   0.9628 B( 28-C , 31-H ) :   0.9725

Dispersion correction           -0.015255440
FINAL SINGLE POINT ENERGY     -1339.875914586880

DIPOLE MOMENT
-------------
                                X             Y             Z
Electronic contribution:     23.54235      -7.93699       7.78743
Nuclear contribution   :    -24.17109       8.04709      -8.01876
                        -----------------------------------------
Total Dipole Moment    :     -0.62874       0.11010      -0.23134
                        -----------------------------------------
Magnitude (a.u.)       :      0.67894
Magnitude (Debye)      :      1.72573

Rotational constants in cm-1:     0.019001     0.009194     0.007471
Rotational constants in MHz :   569.645805   275.633667   223.978841

                             ****ORCA TERMINATED NORMALLY****
TOTAL RUN TIME: 0 days 0 hours 0 minutes 22 seconds 499 msec
