                         Program Version 4.2.1 -  RELEASE  -
|  1> ! wB97X-D3 SP def2-SVP
|  2> %pal
|  3> nprocs 24
|  4> end
|  5>
|  6> * xyz 0 1
|  7> S 	 -101.718 	 -2.97698 	 -104.691
|  8> C 	 -100.879 	 -4.58932 	 -104.699
|  9> C 	 -101.52 	 -5.49562 	 -105.523
| 10> C 	 -102.795 	 -5.05094 	 -105.947
| 11> C 	 -103.08 	 -3.70471 	 -105.551
| 12> H 	 -103.488 	 -5.56469 	 -106.536
| 13> C 	 -100.982 	 -6.84932 	 -105.949
| 14> H 	 -99.9328 	 -6.87696 	 -105.844
| 15> H 	 -101.203 	 -7.03373 	 -107.033
| 16> C 	 -101.652 	 -8.10031 	 -105.292
| 17> H 	 -102.694 	 -8.10613 	 -105.237
| 18> H 	 -101.423 	 -8.97136 	 -105.905
| 19> C 	 -101.177 	 -8.34626 	 -103.801
| 20> H 	 -101.72 	 -9.01061 	 -103.21
| 21> H 	 -100.11 	 -8.6901 	 -103.83
| 22> H 	 -101.284 	 -7.38352 	 -103.324
| 23> S 	 -103.888 	 -1.28336 	 -106.474
| 24> C 	 -105.58 	 -0.996633 	 -106.738
| 25> C 	 -106.377 	 -2.12194 	 -106.538
| 26> C 	 -105.607 	 -3.1837 	 -106.026
| 27> C 	 -104.247 	 -2.93537 	 -106.009
| 28> H 	 -107.51 	 -2.14327 	 -106.654
| 29> C 	 -106.276 	 -4.51938 	 -105.726
| 30> H 	 -107.173 	 -4.36335 	 -105.067
| 31> H 	 -105.523 	 -5.07336 	 -105.122
| 32> C 	 -106.721 	 -5.29702 	 -106.92
| 33> H 	 -105.949 	 -5.22687 	 -107.73
| 34> H 	 -107.611 	 -4.94478 	 -107.4
| 35> C 	 -107.021 	 -6.82386 	 -106.628
| 36> H 	 -106.016 	 -7.37771 	 -106.53
| 37> H 	 -107.679 	 -7.24058 	 -107.335
| 38> H 	 -107.56 	 -7.08813 	 -105.704
| 39> H 	 -99.8468 	 -4.73358 	 -104.407
| 40> H 	 -106.161 	 -0.0466632 	 -106.897
| 41> *
| 42>
| 43>                          ****END OF INPUT****

CARTESIAN COORDINATES (ANGSTROEM)
---------------------------------
  S    -101.718000   -2.976980  -104.691000
  C    -100.879000   -4.589320  -104.699000
  C    -101.520000   -5.495620  -105.523000
  C    -102.795000   -5.050940  -105.947000
  C    -103.080000   -3.704710  -105.551000
  H    -103.488000   -5.564690  -106.536000
  C    -100.982000   -6.849320  -105.949000
  H    -99.932800   -6.876960  -105.844000
  H    -101.203000   -7.033730  -107.033000
  C    -101.652000   -8.100310  -105.292000
  H    -102.694000   -8.106130  -105.237000
  H    -101.423000   -8.971360  -105.905000
  C    -101.177000   -8.346260  -103.801000
  H    -101.720000   -9.010610  -103.210000
  H    -100.110000   -8.690100  -103.830000
  H    -101.284000   -7.383520  -103.324000
  S    -103.888000   -1.283360  -106.474000
  C    -105.580000   -0.996633  -106.738000
  C    -106.377000   -2.121940  -106.538000
  C    -105.607000   -3.183700  -106.026000
  C    -104.247000   -2.935370  -106.009000
  H    -107.510000   -2.143270  -106.654000
  C    -106.276000   -4.519380  -105.726000
  H    -107.173000   -4.363350  -105.067000
  H    -105.523000   -5.073360  -105.122000
  C    -106.721000   -5.297020  -106.920000
  H    -105.949000   -5.226870  -107.730000
  H    -107.611000   -4.944780  -107.400000
  C    -107.021000   -6.823860  -106.628000
  H    -106.016000   -7.377710  -106.530000
  H    -107.679000   -7.240580  -107.335000
  H    -107.560000   -7.088130  -105.704000
  H    -99.846800   -4.733580  -104.407000
  H    -106.161000   -0.046663  -106.897000

 Total Charge           Charge          ....    0
 Multiplicity           Mult            ....    1
 Number of Electrons    NEL             ....  134
 Basis Dimension        Dim             ....  322

ORBITAL ENERGIES
----------------

  NO   OCC          E(Eh)            E(eV)
   0   2.0000     -88.973370     -2421.0885
   1   2.0000     -88.970898     -2421.0212
   2   2.0000     -10.339270      -281.3458
   3   2.0000     -10.328120      -281.0424
   4   2.0000     -10.320910      -280.8462
   5   2.0000     -10.319297      -280.8023
   6   2.0000     -10.305547      -280.4282
   7   2.0000     -10.300943      -280.3029
   8   2.0000     -10.298325      -280.2317
   9   2.0000     -10.297590      -280.2117
  10   2.0000     -10.295254      -280.1481
  11   2.0000     -10.294703      -280.1331
  12   2.0000     -10.291278      -280.0399
  13   2.0000     -10.287425      -279.9351
  14   2.0000     -10.285391      -279.8797
  15   2.0000     -10.273348      -279.5520
  16   2.0000      -8.086382      -220.0416
  17   2.0000      -8.085645      -220.0216
  18   2.0000      -6.045009      -164.4931
  19   2.0000      -6.044147      -164.4696
  20   2.0000      -6.041299      -164.3921
  21   2.0000      -6.040207      -164.3624
  22   2.0000      -6.036940      -164.2735
  23   2.0000      -6.036347      -164.2574
  24   2.0000      -1.006306       -27.3830
  25   2.0000      -0.980147       -26.6712
  26   2.0000      -0.910755       -24.7829
  27   2.0000      -0.906787       -24.6749
  28   2.0000      -0.865044       -23.5391
  29   2.0000      -0.850967       -23.1560
  30   2.0000      -0.843812       -22.9613
  31   2.0000      -0.809580       -22.0298
  32   2.0000      -0.783946       -21.3323
  33   2.0000      -0.774141       -21.0655
  34   2.0000      -0.710263       -19.3273
  35   2.0000      -0.701470       -19.0880
  36   2.0000      -0.695131       -18.9155
  37   2.0000      -0.661502       -18.0004
  38   2.0000      -0.640354       -17.4249
  39   2.0000      -0.621398       -16.9091
  40   2.0000      -0.591868       -16.1056
  41   2.0000      -0.566115       -15.4048
  42   2.0000      -0.563685       -15.3386
  43   2.0000      -0.546283       -14.8651
  44   2.0000      -0.535973       -14.5846
  45   2.0000      -0.521796       -14.1988
  46   2.0000      -0.519294       -14.1307
  47   2.0000      -0.510852       -13.9010
  48   2.0000      -0.502838       -13.6829
  49   2.0000      -0.496279       -13.5044
  50   2.0000      -0.489115       -13.3095
  51   2.0000      -0.476669       -12.9708
  52   2.0000      -0.469381       -12.7725
  53   2.0000      -0.462698       -12.5906
  54   2.0000      -0.460076       -12.5193
  55   2.0000      -0.456974       -12.4349
  56   2.0000      -0.448639       -12.2081
  57   2.0000      -0.441664       -12.0183
  58   2.0000      -0.434958       -11.8358
  59   2.0000      -0.424535       -11.5522
  60   2.0000      -0.421499       -11.4696
  61   2.0000      -0.415977       -11.3193
  62   2.0000      -0.409274       -11.1369
  63   2.0000      -0.347348        -9.4518
  64   2.0000      -0.336857        -9.1664
  65   2.0000      -0.334586        -9.1045
  66   2.0000      -0.286780        -7.8037
  67   0.0000       0.019452         0.5293
  68   0.0000       0.066803         1.8178
  69   0.0000       0.096991         2.6393
  70   0.0000       0.119583         3.2540
  71   0.0000       0.123567         3.3624

MULLIKEN ATOMIC CHARGES
-----------------------
   0 S :    0.101789
   1 C :   -0.117331
   2 C :   -0.069446
   3 C :    0.040553
   4 C :   -0.127368
   5 H :   -0.016403
   6 C :    0.069943
   7 H :    0.013737
   8 H :    0.041495
   9 C :   -0.063763
  10 H :    0.016871
  11 H :    0.026402
  12 C :   -0.057076
  13 H :    0.023149
  14 H :    0.034748
  15 H :    0.031948
  16 S :    0.114262
  17 C :   -0.096895
  18 C :   -0.066552
  19 C :   -0.048342
  20 C :   -0.155705
  21 H :    0.046791
  22 C :    0.052066
  23 H :    0.034601
  24 H :    0.030614
  25 C :   -0.068559
  26 H :    0.038403
  27 H :    0.021113
  28 C :   -0.070858
  29 H :    0.043620
  30 H :    0.026461
  31 H :    0.028426
  32 H :    0.049996
  33 H :    0.071309
Sum of atomic charges:    0.0000000

LOEWDIN ATOMIC CHARGES
----------------------
   0 S :    0.376553
   1 C :   -0.185736
   2 C :   -0.057574
   3 C :   -0.053134
   4 C :   -0.180383
   5 H :    0.019481
   6 C :   -0.024489
   7 H :    0.023230
   8 H :    0.042739
   9 C :   -0.032286
  10 H :    0.014381
  11 H :    0.022153
  12 C :   -0.065222
  13 H :    0.014539
  14 H :    0.028127
  15 H :    0.025108
  16 S :    0.414488
  17 C :   -0.201523
  18 C :   -0.079609
  19 C :   -0.060766
  20 C :   -0.198543
  21 H :    0.045431
  22 C :   -0.038296
  23 H :    0.036609
  24 H :    0.032035
  25 C :   -0.043154
  26 H :    0.028555
  27 H :    0.019787
  28 C :   -0.071652
  29 H :    0.032512
  30 H :    0.018805
  31 H :    0.026562
  32 H :    0.027447
  33 H :    0.043828

  Mayer bond orders larger than 0.100000
B(  0-S ,  1-C ) :   1.1106 B(  0-S ,  4-C ) :   1.1523 B(  1-C ,  2-C ) :   1.6149
B(  1-C , 32-H ) :   0.9625 B(  2-C ,  3-C ) :   1.2375 B(  2-C ,  6-C ) :   1.0360
B(  3-C ,  4-C ) :   1.5362 B(  3-C ,  5-H ) :   1.0043 B(  4-C , 20-C ) :   1.0590
B(  6-C ,  7-H ) :   0.9437 B(  6-C ,  8-H ) :   0.9408 B(  6-C ,  9-C ) :   1.0551
B(  9-C , 10-H ) :   0.9620 B(  9-C , 11-H ) :   0.9603 B(  9-C , 12-C ) :   1.0648
B( 12-C , 13-H ) :   0.9789 B( 12-C , 14-H ) :   0.9789 B( 12-C , 15-H ) :   0.9778
B( 16-S , 17-C ) :   1.1592 B( 16-S , 20-C ) :   1.1260 B( 17-C , 18-C ) :   1.6071
B( 17-C , 33-H ) :   0.9559 B( 18-C , 19-C ) :   1.2581 B( 18-C , 21-H ) :   0.9762
B( 19-C , 20-C ) :   1.5945 B( 19-C , 22-C ) :   1.0511 B( 22-C , 23-H ) :   0.9259
B( 22-C , 24-H ) :   0.9372 B( 22-C , 25-C ) :   1.0604 B( 25-C , 26-H ) :   0.9568
B( 25-C , 27-H ) :   0.9531 B( 25-C , 28-C ) :   1.0716 B( 28-C , 29-H ) :   0.9775
B( 28-C , 30-H ) :   0.9770 B( 28-C , 31-H ) :   0.9755

Dispersion correction           -0.014445267
FINAL SINGLE POINT ENERGY     -1339.864350316373

DIPOLE MOMENT
-------------
                                X             Y             Z
Electronic contribution:      7.31746      30.89490       0.05786
Nuclear contribution   :     -7.68031     -31.43574      -0.27845
                        -----------------------------------------
Total Dipole Moment    :     -0.36284      -0.54084      -0.22059
                        -----------------------------------------
Magnitude (a.u.)       :      0.68762
Magnitude (Debye)      :      1.74780

Rotational constants in cm-1:     0.017522     0.009528     0.006549
Rotational constants in MHz :   525.302163   285.652009   196.332687

                             ****ORCA TERMINATED NORMALLY****
TOTAL RUN TIME: 0 days 0 hours 0 minutes 21 seconds 728 msec
