                         Program Version 4.2.1 -  RELEASE  -
|  1> ! wB97X-D3 SP def2-SVP
|  2> %pal
|  3> nprocs 24
|  4> end
|  5>
|  6> * xyz 0 1
|  7> S 	 -134.811 	 7.69441 	 -17.1608
|  8> C 	 -135.49 	 8.74857 	 -15.9678
|  9> C 	 -134.699 	 8.74208 	 -14.8193
| 10> C 	 -133.639 	 7.81065 	 -14.9114
| 11> C 	 -133.627 	 7.05059 	 -16.0973
| 12> H 	 -132.943 	 7.59505 	 -14.1975
| 13> C 	 -135.003 	 9.54919 	 -13.5502
| 14> H 	 -135.138 	 10.589 	 -13.8163
| 15> H 	 -133.981 	 9.50333 	 -13.0045
| 16> C 	 -136.153 	 9.13728 	 -12.6725
| 17> H 	 -137.031 	 9.07692 	 -13.3685
| 18> H 	 -135.968 	 8.09064 	 -12.3762
| 19> C 	 -136.363 	 10.1646 	 -11.5273
| 20> H 	 -137.292 	 9.9544 	 -10.9411
| 21> H 	 -135.561 	 10.0211 	 -10.8233
| 22> H 	 -136.348 	 11.1869 	 -11.8559
| 23> S 	 -132.159 	 6.00565 	 -18.1403
| 24> C 	 -131.449 	 4.39159 	 -17.9771
| 25> C 	 -131.696 	 3.83248 	 -16.7323
| 26> C 	 -132.475 	 4.67268 	 -15.9299
| 27> C 	 -132.836 	 5.8884 	 -16.5406
| 28> H 	 -131.35 	 2.80636 	 -16.5417
| 29> C 	 -132.883 	 4.24979 	 -14.5724
| 30> H 	 -132.956 	 3.19096 	 -14.5565
| 31> H 	 -133.894 	 4.64715 	 -14.5402
| 32> C 	 -132.067 	 4.78587 	 -13.367
| 33> H 	 -132.101 	 5.87556 	 -13.3863
| 34> H 	 -131.034 	 4.41163 	 -13.5639
| 35> C 	 -132.568 	 4.25128 	 -11.9812
| 36> H 	 -132.677 	 3.12916 	 -12.019
| 37> H 	 -133.525 	 4.69692 	 -11.7257
| 38> H 	 -131.904 	 4.58365 	 -11.1527
| 39> H 	 -136.224 	 9.53374 	 -16.1244
| 40> H 	 -130.903 	 3.86396 	 -18.7553
| 41> *
| 42>
| 43>                          ****END OF INPUT****

CARTESIAN COORDINATES (ANGSTROEM)
---------------------------------
  S    -134.811000    7.694410  -17.160800
  C    -135.490000    8.748570  -15.967800
  C    -134.699000    8.742080  -14.819300
  C    -133.639000    7.810650  -14.911400
  C    -133.627000    7.050590  -16.097300
  H    -132.943000    7.595050  -14.197500
  C    -135.003000    9.549190  -13.550200
  H    -135.138000   10.589000  -13.816300
  H    -133.981000    9.503330  -13.004500
  C    -136.153000    9.137280  -12.672500
  H    -137.031000    9.076920  -13.368500
  H    -135.968000    8.090640  -12.376200
  C    -136.363000   10.164600  -11.527300
  H    -137.292000    9.954400  -10.941100
  H    -135.561000   10.021100  -10.823300
  H    -136.348000   11.186900  -11.855900
  S    -132.159000    6.005650  -18.140300
  C    -131.449000    4.391590  -17.977100
  C    -131.696000    3.832480  -16.732300
  C    -132.475000    4.672680  -15.929900
  C    -132.836000    5.888400  -16.540600
  H    -131.350000    2.806360  -16.541700
  C    -132.883000    4.249790  -14.572400
  H    -132.956000    3.190960  -14.556500
  H    -133.894000    4.647150  -14.540200
  C    -132.067000    4.785870  -13.367000
  H    -132.101000    5.875560  -13.386300
  H    -131.034000    4.411630  -13.563900
  C    -132.568000    4.251280  -11.981200
  H    -132.677000    3.129160  -12.019000
  H    -133.525000    4.696920  -11.725700
  H    -131.904000    4.583650  -11.152700
  H    -136.224000    9.533740  -16.124400
  H    -130.903000    3.863960  -18.755300

 Total Charge           Charge          ....    0
 Multiplicity           Mult            ....    1
 Number of Electrons    NEL             ....  134
 Basis Dimension        Dim             ....  322

ORBITAL ENERGIES
----------------

  NO   OCC          E(Eh)            E(eV)
   0   2.0000     -88.968728     -2420.9622
   1   2.0000     -88.967298     -2420.9233
   2   2.0000     -10.331950      -281.1467
   3   2.0000     -10.329486      -281.0796
   4   2.0000     -10.319270      -280.8016
   5   2.0000     -10.312955      -280.6298
   6   2.0000     -10.301899      -280.3289
   7   2.0000     -10.301222      -280.3105
   8   2.0000     -10.296111      -280.1714
   9   2.0000     -10.294577      -280.1297
  10   2.0000     -10.293817      -280.1090
  11   2.0000     -10.292798      -280.0813
  12   2.0000     -10.290554      -280.0202
  13   2.0000     -10.287742      -279.9437
  14   2.0000     -10.283723      -279.8343
  15   2.0000     -10.282621      -279.8043
  16   2.0000      -8.083164      -219.9541
  17   2.0000      -8.082690      -219.9412
  18   2.0000      -6.041583      -164.3998
  19   2.0000      -6.041022      -164.3846
  20   2.0000      -6.037713      -164.2945
  21   2.0000      -6.036908      -164.2726
  22   2.0000      -6.034041      -164.1946
  23   2.0000      -6.033776      -164.1874
  24   2.0000      -1.010304       -27.4918
  25   2.0000      -0.987352       -26.8672
  26   2.0000      -0.913729       -24.8638
  27   2.0000      -0.907579       -24.6965
  28   2.0000      -0.870328       -23.6828
  29   2.0000      -0.849745       -23.1227
  30   2.0000      -0.848559       -23.0905
  31   2.0000      -0.815926       -22.2025
  32   2.0000      -0.781765       -21.2729
  33   2.0000      -0.768911       -20.9231
  34   2.0000      -0.706139       -19.2150
  35   2.0000      -0.702405       -19.1134
  36   2.0000      -0.693182       -18.8624
  37   2.0000      -0.666536       -18.1374
  38   2.0000      -0.645717       -17.5709
  39   2.0000      -0.622063       -16.9272
  40   2.0000      -0.590422       -16.0662
  41   2.0000      -0.571816       -15.5599
  42   2.0000      -0.566777       -15.4228
  43   2.0000      -0.559914       -15.2360
  44   2.0000      -0.524910       -14.2835
  45   2.0000      -0.520131       -14.1535
  46   2.0000      -0.515139       -14.0176
  47   2.0000      -0.508960       -13.8495
  48   2.0000      -0.506043       -13.7701
  49   2.0000      -0.504626       -13.7316
  50   2.0000      -0.499576       -13.5942
  51   2.0000      -0.478408       -13.0181
  52   2.0000      -0.473873       -12.8947
  53   2.0000      -0.465598       -12.6696
  54   2.0000      -0.461874       -12.5682
  55   2.0000      -0.449216       -12.2238
  56   2.0000      -0.442533       -12.0419
  57   2.0000      -0.440830       -11.9956
  58   2.0000      -0.435643       -11.8544
  59   2.0000      -0.428218       -11.6524
  60   2.0000      -0.424858       -11.5610
  61   2.0000      -0.418115       -11.3775
  62   2.0000      -0.407663       -11.0931
  63   2.0000      -0.347983        -9.4691
  64   2.0000      -0.333768        -9.0823
  65   2.0000      -0.331303        -9.0152
  66   2.0000      -0.289457        -7.8765
  67   0.0000       0.024558         0.6683
  68   0.0000       0.068426         1.8620
  69   0.0000       0.106533         2.8989
  70   0.0000       0.127015         3.4563
  71   0.0000       0.130579         3.5532

MULLIKEN ATOMIC CHARGES
-----------------------
   0 S :    0.121427
   1 C :   -0.108605
   2 C :   -0.096497
   3 C :    0.078238
   4 C :   -0.157070
   5 H :   -0.048133
   6 C :    0.011242
   7 H :    0.020970
   8 H :    0.030018
   9 C :   -0.059154
  10 H :    0.028812
  11 H :    0.031501
  12 C :   -0.031983
  13 H :    0.044386
  14 H :    0.027533
  15 H :    0.033131
  16 S :    0.109618
  17 C :   -0.099035
  18 C :   -0.046105
  19 C :   -0.031109
  20 C :   -0.154204
  21 H :    0.029361
  22 C :    0.076521
  23 H :    0.004646
  24 H :    0.025872
  25 C :   -0.065795
  26 H :    0.025130
  27 H :    0.032669
  28 C :   -0.059210
  29 H :    0.043055
  30 H :    0.029181
  31 H :    0.044347
  32 H :    0.052136
  33 H :    0.057104
Sum of atomic charges:    0.0000000

LOEWDIN ATOMIC CHARGES
----------------------
   0 S :    0.438655
   1 C :   -0.210791
   2 C :   -0.064721
   3 C :   -0.058973
   4 C :   -0.203636
   5 H :    0.009518
   6 C :   -0.039567
   7 H :    0.024552
   8 H :    0.034739
   9 C :   -0.043980
  10 H :    0.026116
  11 H :    0.027198
  12 C :   -0.062323
  13 H :    0.033656
  14 H :    0.025130
  15 H :    0.024065
  16 S :    0.408941
  17 C :   -0.179178
  18 C :   -0.073315
  19 C :   -0.056477
  20 C :   -0.207135
  21 H :    0.039583
  22 C :   -0.034463
  23 H :    0.022972
  24 H :    0.033620
  25 C :   -0.035414
  26 H :    0.019430
  27 H :    0.026915
  28 C :   -0.070680
  29 H :    0.030999
  30 H :    0.022835
  31 H :    0.031179
  32 H :    0.031166
  33 H :    0.029385

  Mayer bond orders larger than 0.100000
B(  0-S ,  1-C ) :   1.1595 B(  0-S ,  4-C ) :   1.1881 B(  1-C ,  2-C ) :   1.5663
B(  1-C ,  4-C ) :   0.1104 B(  1-C , 32-H ) :   0.9671 B(  2-C ,  3-C ) :   1.2861
B(  2-C ,  6-C ) :   1.0133 B(  3-C ,  4-C ) :   1.5148 B(  3-C ,  5-H ) :   1.0179
B(  4-C , 20-C ) :   1.0225 B(  6-C ,  7-H ) :   0.9375 B(  6-C ,  8-H ) :   0.9444
B(  6-C ,  9-C ) :   1.0642 B(  9-C , 10-H ) :   0.9540 B(  9-C , 11-H ) :   0.9545
B(  9-C , 12-C ) :   1.0645 B( 12-C , 13-H ) :   0.9747 B( 12-C , 14-H ) :   0.9760
B( 12-C , 15-H ) :   0.9757 B( 16-S , 17-C ) :   1.1599 B( 16-S , 20-C ) :   1.1521
B( 17-C , 18-C ) :   1.5927 B( 17-C , 20-C ) :   0.1095 B( 17-C , 33-H ) :   0.9654
B( 18-C , 19-C ) :   1.2631 B( 18-C , 21-H ) :   0.9888 B( 19-C , 20-C ) :   1.5619
B( 19-C , 22-C ) :   1.0516 B( 22-C , 23-H ) :   0.9313 B( 22-C , 24-H ) :   0.9219
B( 22-C , 25-C ) :   1.0622 B( 25-C , 26-H ) :   0.9537 B( 25-C , 27-H ) :   0.9539
B( 25-C , 28-C ) :   1.0795 B( 28-C , 29-H ) :   0.9751 B( 28-C , 30-H ) :   0.9750
B( 28-C , 31-H ) :   0.9745

Dispersion correction           -0.013996580
FINAL SINGLE POINT ENERGY     -1339.884918911314

DIPOLE MOMENT
-------------
                                X             Y             Z
Electronic contribution:      5.30178      -1.74955     -31.99360
Nuclear contribution   :     -5.30859       1.64558      32.58823
                        -----------------------------------------
Total Dipole Moment    :     -0.00681      -0.10398       0.59464
                        -----------------------------------------
Magnitude (a.u.)       :      0.60370
Magnitude (Debye)      :      1.53448

Rotational constants in cm-1:     0.018867     0.008675     0.006219
Rotational constants in MHz :   565.616201   260.062308   186.448270

                             ****ORCA TERMINATED NORMALLY****
TOTAL RUN TIME: 0 days 0 hours 0 minutes 21 seconds 486 msec
