                         Program Version 4.2.1 -  RELEASE  -
|  1> ! wB97X-D3 SP def2-SVP
|  2> %pal
|  3> nprocs 24
|  4> end
|  5>
|  6> * xyz 0 1
|  7> S 	 -57.5813 	 15.3728 	 -99.9491
|  8> C 	 -56.4651 	 16.7075 	 -100.127
|  9> C 	 -55.2465 	 16.3594 	 -100.597
| 10> C 	 -55.1864 	 14.9875 	 -100.93
| 11> C 	 -56.3962 	 14.352 	 -100.82
| 12> H 	 -54.3432 	 14.4709 	 -101.313
| 13> C 	 -54.046 	 17.2932 	 -100.63
| 14> H 	 -54.4497 	 18.3016 	 -100.278
| 15> H 	 -53.7583 	 17.3698 	 -101.655
| 16> C 	 -52.7628 	 16.7699 	 -99.8645
| 17> H 	 -52.3849 	 15.8768 	 -100.36
| 18> H 	 -52.1018 	 17.589 	 -99.8025
| 19> C 	 -52.905 	 16.3152 	 -98.3922
| 20> H 	 -51.9908 	 16.1269 	 -97.8844
| 21> H 	 -53.2565 	 17.0929 	 -97.7403
| 22> H 	 -53.4109 	 15.3758 	 -98.29
| 23> S 	 -57.3364 	 11.9186 	 -99.7607
| 24> C 	 -57.496 	 10.544 	 -100.836
| 25> C 	 -57.1423 	 10.7969 	 -102.117
| 26> C 	 -56.6622 	 12.2048 	 -102.26
| 27> C 	 -56.6756 	 12.9337 	 -101.101
| 28> H 	 -57.2276 	 9.94633 	 -102.861
| 29> C 	 -56.5231 	 12.8681 	 -103.612
| 30> H 	 -56.3401 	 13.9584 	 -103.453
| 31> H 	 -57.5111 	 12.7164 	 -104.087
| 32> C 	 -55.3408 	 12.3595 	 -104.501
| 33> H 	 -55.6863 	 11.3261 	 -104.67
| 34> H 	 -54.4308 	 12.2623 	 -103.932
| 35> C 	 -55.1743 	 13.197 	 -105.697
| 36> H 	 -54.3346 	 12.6674 	 -106.229
| 37> H 	 -54.6521 	 14.1481 	 -105.359
| 38> H 	 -56.1482 	 13.2336 	 -106.317
| 39> H 	 -56.6761 	 17.7585 	 -99.8549
| 40> H 	 -57.7997 	 9.55064 	 -100.527
| 41> *
| 42>
| 43>                          ****END OF INPUT****

CARTESIAN COORDINATES (ANGSTROEM)
---------------------------------
  S    -57.581300   15.372800  -99.949100
  C    -56.465100   16.707500  -100.127000
  C    -55.246500   16.359400  -100.597000
  C    -55.186400   14.987500  -100.930000
  C    -56.396200   14.352000  -100.820000
  H    -54.343200   14.470900  -101.313000
  C    -54.046000   17.293200  -100.630000
  H    -54.449700   18.301600  -100.278000
  H    -53.758300   17.369800  -101.655000
  C    -52.762800   16.769900  -99.864500
  H    -52.384900   15.876800  -100.360000
  H    -52.101800   17.589000  -99.802500
  C    -52.905000   16.315200  -98.392200
  H    -51.990800   16.126900  -97.884400
  H    -53.256500   17.092900  -97.740300
  H    -53.410900   15.375800  -98.290000
  S    -57.336400   11.918600  -99.760700
  C    -57.496000   10.544000  -100.836000
  C    -57.142300   10.796900  -102.117000
  C    -56.662200   12.204800  -102.260000
  C    -56.675600   12.933700  -101.101000
  H    -57.227600    9.946330  -102.861000
  C    -56.523100   12.868100  -103.612000
  H    -56.340100   13.958400  -103.453000
  H    -57.511100   12.716400  -104.087000
  C    -55.340800   12.359500  -104.501000
  H    -55.686300   11.326100  -104.670000
  H    -54.430800   12.262300  -103.932000
  C    -55.174300   13.197000  -105.697000
  H    -54.334600   12.667400  -106.229000
  H    -54.652100   14.148100  -105.359000
  H    -56.148200   13.233600  -106.317000
  H    -56.676100   17.758500  -99.854900
  H    -57.799700    9.550640  -100.527000

 Total Charge           Charge          ....    0
 Multiplicity           Mult            ....    1
 Number of Electrons    NEL             ....  134
 Basis Dimension        Dim             ....  322

ORBITAL ENERGIES
----------------

  NO   OCC          E(Eh)            E(eV)
   0   2.0000     -88.966733     -2420.9079
   1   2.0000     -88.959608     -2420.7140
   2   2.0000     -10.332381      -281.1584
   3   2.0000     -10.328061      -281.0408
   4   2.0000     -10.316445      -280.7247
   5   2.0000     -10.311364      -280.5865
   6   2.0000     -10.306863      -280.4640
   7   2.0000     -10.301373      -280.3146
   8   2.0000     -10.300290      -280.2851
   9   2.0000     -10.294246      -280.1207
  10   2.0000     -10.291715      -280.0518
  11   2.0000     -10.291454      -280.0447
  12   2.0000     -10.290152      -280.0093
  13   2.0000     -10.288601      -279.9671
  14   2.0000     -10.281071      -279.7622
  15   2.0000     -10.267848      -279.4023
  16   2.0000      -8.080967      -219.8943
  17   2.0000      -8.073966      -219.7038
  18   2.0000      -6.039544      -164.3443
  19   2.0000      -6.035780      -164.2419
  20   2.0000      -6.032727      -164.1588
  21   2.0000      -6.031445      -164.1240
  22   2.0000      -6.028640      -164.0476
  23   2.0000      -6.024373      -163.9315
  24   2.0000      -1.003190       -27.2982
  25   2.0000      -0.980479       -26.6802
  26   2.0000      -0.909521       -24.7493
  27   2.0000      -0.905563       -24.6416
  28   2.0000      -0.869961       -23.6728
  29   2.0000      -0.851547       -23.1718
  30   2.0000      -0.844157       -22.9707
  31   2.0000      -0.819708       -22.3054
  32   2.0000      -0.783311       -21.3150
  33   2.0000      -0.765880       -20.8406
  34   2.0000      -0.708426       -19.2773
  35   2.0000      -0.694139       -18.8885
  36   2.0000      -0.687445       -18.7063
  37   2.0000      -0.652420       -17.7533
  38   2.0000      -0.638426       -17.3725
  39   2.0000      -0.621257       -16.9053
  40   2.0000      -0.588309       -16.0087
  41   2.0000      -0.571787       -15.5591
  42   2.0000      -0.565800       -15.3962
  43   2.0000      -0.557615       -15.1735
  44   2.0000      -0.539811       -14.6890
  45   2.0000      -0.524076       -14.2608
  46   2.0000      -0.514314       -13.9952
  47   2.0000      -0.508885       -13.8475
  48   2.0000      -0.500978       -13.6323
  49   2.0000      -0.490918       -13.3586
  50   2.0000      -0.484959       -13.1964
  51   2.0000      -0.478078       -13.0092
  52   2.0000      -0.470330       -12.7983
  53   2.0000      -0.465554       -12.6684
  54   2.0000      -0.459789       -12.5115
  55   2.0000      -0.450538       -12.2598
  56   2.0000      -0.442862       -12.0509
  57   2.0000      -0.440349       -11.9825
  58   2.0000      -0.432663       -11.7734
  59   2.0000      -0.430759       -11.7216
  60   2.0000      -0.419035       -11.4025
  61   2.0000      -0.409247       -11.1362
  62   2.0000      -0.396587       -10.7917
  63   2.0000      -0.347484        -9.4555
  64   2.0000      -0.332472        -9.0470
  65   2.0000      -0.324679        -8.8350
  66   2.0000      -0.296236        -8.0610
  67   0.0000       0.035221         0.9584
  68   0.0000       0.066528         1.8103
  69   0.0000       0.108774         2.9599
  70   0.0000       0.119314         3.2467
  71   0.0000       0.130870         3.5612

MULLIKEN ATOMIC CHARGES
-----------------------
   0 S :    0.111201
   1 C :   -0.129928
   2 C :   -0.084481
   3 C :    0.041428
   4 C :   -0.161595
   5 H :   -0.000037
   6 C :    0.096352
   7 H :    0.024009
   8 H :    0.030599
   9 C :   -0.073555
  10 H :    0.037252
  11 H :    0.030371
  12 C :   -0.038262
  13 H :    0.012653
  14 H :    0.020387
  15 H :    0.036321
  16 S :    0.077574
  17 C :   -0.083861
  18 C :   -0.048420
  19 C :   -0.029318
  20 C :   -0.144003
  21 H :    0.049060
  22 C :    0.003421
  23 H :    0.031632
  24 H :    0.045831
  25 C :   -0.096079
  26 H :    0.019529
  27 H :    0.024022
  28 C :   -0.047185
  29 H :    0.037231
  30 H :    0.045180
  31 H :    0.060637
  32 H :    0.048447
  33 H :    0.053588
Sum of atomic charges:   -0.0000000

LOEWDIN ATOMIC CHARGES
----------------------
   0 S :    0.385533
   1 C :   -0.195028
   2 C :   -0.072977
   3 C :   -0.052687
   4 C :   -0.173852
   5 H :    0.026895
   6 C :   -0.024922
   7 H :    0.034731
   8 H :    0.029028
   9 C :   -0.031300
  10 H :    0.026628
  11 H :    0.022840
  12 C :   -0.068917
  13 H :    0.023977
  14 H :    0.023051
  15 H :    0.024666
  16 S :    0.359232
  17 C :   -0.174273
  18 C :   -0.085243
  19 C :   -0.053211
  20 C :   -0.181873
  21 H :    0.045579
  22 C :   -0.037171
  23 H :    0.028304
  24 H :    0.035728
  25 C :   -0.051763
  26 H :    0.019925
  27 H :    0.021408
  28 C :   -0.077862
  29 H :    0.033329
  30 H :    0.036345
  31 H :    0.041650
  32 H :    0.032135
  33 H :    0.030095

  Mayer bond orders larger than 0.100000
B(  0-S ,  1-C ) :   1.1229 B(  0-S ,  4-C ) :   1.1329 B(  1-C ,  2-C ) :   1.6596
B(  1-C , 32-H ) :   0.9540 B(  2-C ,  3-C ) :   1.2099 B(  2-C ,  6-C ) :   1.0182
B(  3-C ,  4-C ) :   1.6004 B(  3-C ,  5-H ) :   1.0008 B(  4-C , 20-C ) :   1.0346
B(  6-C ,  7-H ) :   0.9416 B(  6-C ,  8-H ) :   0.9340 B(  6-C ,  9-C ) :   1.0654
B(  9-C , 10-H ) :   0.9548 B(  9-C , 11-H ) :   0.9594 B(  9-C , 12-C ) :   1.0855
B( 12-C , 13-H ) :   0.9693 B( 12-C , 14-H ) :   0.9738 B( 12-C , 15-H ) :   0.9736
B( 16-S , 17-C ) :   1.1322 B( 16-S , 20-C ) :   1.0893 B( 17-C , 18-C ) :   1.6942
B( 17-C , 33-H ) :   0.9605 B( 18-C , 19-C ) :   1.1541 B( 18-C , 21-H ) :   0.9782
B( 19-C , 20-C ) :   1.6791 B( 19-C , 22-C ) :   1.0479 B( 22-C , 23-H ) :   0.9384
B( 22-C , 24-H ) :   0.9411 B( 22-C , 25-C ) :   1.0401 B( 25-C , 26-H ) :   0.9547
B( 25-C , 27-H ) :   0.9570 B( 25-C , 28-C ) :   1.0947 B( 28-C , 29-H ) :   0.9701
B( 28-C , 30-H ) :   0.9667 B( 28-C , 31-H ) :   0.9661

Dispersion correction           -0.014175363
FINAL SINGLE POINT ENERGY     -1339.863586659157

DIPOLE MOMENT
-------------
                                X             Y             Z
Electronic contribution:    -19.73321      -6.90419      13.03302
Nuclear contribution   :     20.25770       6.94869     -13.41971
                        -----------------------------------------
Total Dipole Moment    :      0.52449       0.04450      -0.38670
                        -----------------------------------------
Magnitude (a.u.)       :      0.65315
Magnitude (Debye)      :      1.66017

Rotational constants in cm-1:     0.016880     0.008982     0.007114
Rotational constants in MHz :   506.047664   269.275780   213.279530

                             ****ORCA TERMINATED NORMALLY****
TOTAL RUN TIME: 0 days 0 hours 0 minutes 21 seconds 525 msec
