                         Program Version 4.2.1 -  RELEASE  -
|  1> ! wB97X-D3 SP def2-SVP
|  2> %pal
|  3> nprocs 24
|  4> end
|  5>
|  6> * xyz 0 1
|  7> S 	 -46.6042 	 16.7724 	 21.1491
|  8> C 	 -48.265 	 17.207 	 21.3045
|  9> C 	 -49.0328 	 16.1727 	 20.8601
| 10> C 	 -48.3362 	 15.1271 	 20.2265
| 11> C 	 -46.9497 	 15.2355 	 20.295
| 12> H 	 -48.6661 	 14.2169 	 19.7029
| 13> C 	 -50.5585 	 16.2221 	 20.8723
| 14> H 	 -50.952 	 15.4923 	 20.1434
| 15> H 	 -50.8255 	 17.3267 	 20.5991
| 16> C 	 -51.2323 	 15.879 	 22.1971
| 17> H 	 -50.8265 	 16.4527 	 23.0293
| 18> H 	 -52.2674 	 16.2031 	 22.1821
| 19> C 	 -51.1626 	 14.4169 	 22.5645
| 20> H 	 -50.1011 	 14.057 	 22.52
| 21> H 	 -51.5116 	 14.3205 	 23.6072
| 22> H 	 -51.8746 	 13.8713 	 21.9685
| 23> S 	 -45.0934 	 13.3748 	 21.3054
| 24> C 	 -44.2271 	 12.3703 	 20.218
| 25> C 	 -44.3869 	 12.6921 	 18.8942
| 26> C 	 -45.3534 	 13.7985 	 18.8115
| 27> C 	 -45.905 	 14.2311 	 20.0202
| 28> H 	 -43.8131 	 12.248 	 18.1154
| 29> C 	 -45.5476 	 14.5101 	 17.4897
| 30> H 	 -46.4908 	 15.0503 	 17.5607
| 31> H 	 -45.694 	 13.7589 	 16.7104
| 32> C 	 -44.3679 	 15.4225 	 16.956
| 33> H 	 -44.7765 	 15.782 	 15.9605
| 34> H 	 -43.4873 	 14.858 	 16.7003
| 35> C 	 -44.0085 	 16.5537 	 17.932
| 36> H 	 -43.4083 	 17.2475 	 17.4468
| 37> H 	 -43.5618 	 16.1521 	 18.8281
| 38> H 	 -44.9049 	 17.066 	 18.3503
| 39> H 	 -48.7138 	 18.0678 	 21.741
| 40> H 	 -43.6441 	 11.5603 	 20.5323
| 41> *
| 42>
| 43>                          ****END OF INPUT****

CARTESIAN COORDINATES (ANGSTROEM)
---------------------------------
  S    -46.604200   16.772400   21.149100
  C    -48.265000   17.207000   21.304500
  C    -49.032800   16.172700   20.860100
  C    -48.336200   15.127100   20.226500
  C    -46.949700   15.235500   20.295000
  H    -48.666100   14.216900   19.702900
  C    -50.558500   16.222100   20.872300
  H    -50.952000   15.492300   20.143400
  H    -50.825500   17.326700   20.599100
  C    -51.232300   15.879000   22.197100
  H    -50.826500   16.452700   23.029300
  H    -52.267400   16.203100   22.182100
  C    -51.162600   14.416900   22.564500
  H    -50.101100   14.057000   22.520000
  H    -51.511600   14.320500   23.607200
  H    -51.874600   13.871300   21.968500
  S    -45.093400   13.374800   21.305400
  C    -44.227100   12.370300   20.218000
  C    -44.386900   12.692100   18.894200
  C    -45.353400   13.798500   18.811500
  C    -45.905000   14.231100   20.020200
  H    -43.813100   12.248000   18.115400
  C    -45.547600   14.510100   17.489700
  H    -46.490800   15.050300   17.560700
  H    -45.694000   13.758900   16.710400
  C    -44.367900   15.422500   16.956000
  H    -44.776500   15.782000   15.960500
  H    -43.487300   14.858000   16.700300
  C    -44.008500   16.553700   17.932000
  H    -43.408300   17.247500   17.446800
  H    -43.561800   16.152100   18.828100
  H    -44.904900   17.066000   18.350300
  H    -48.713800   18.067800   21.741000
  H    -43.644100   11.560300   20.532300

 Total Charge           Charge          ....    0
 Multiplicity           Mult            ....    1
 Number of Electrons    NEL             ....  134
 Basis Dimension        Dim             ....  322

ORBITAL ENERGIES
----------------

  NO   OCC          E(Eh)            E(eV)
   0   2.0000     -88.966427     -2420.8996
   1   2.0000     -88.964973     -2420.8600
   2   2.0000     -10.335727      -281.2494
   3   2.0000     -10.329287      -281.0742
   4   2.0000     -10.314614      -280.6749
   5   2.0000     -10.312258      -280.6108
   6   2.0000     -10.307132      -280.4713
   7   2.0000     -10.298678      -280.2413
   8   2.0000     -10.298456      -280.2352
   9   2.0000     -10.298014      -280.2232
  10   2.0000     -10.295397      -280.1520
  11   2.0000     -10.290059      -280.0068
  12   2.0000     -10.286908      -279.9210
  13   2.0000     -10.280151      -279.7371
  14   2.0000     -10.276000      -279.6242
  15   2.0000     -10.265051      -279.3262
  16   2.0000      -8.080653      -219.8858
  17   2.0000      -8.080601      -219.8843
  18   2.0000      -6.039119      -164.3328
  19   2.0000      -6.039033      -164.3304
  20   2.0000      -6.035040      -164.2218
  21   2.0000      -6.034968      -164.2198
  22   2.0000      -6.031642      -164.1293
  23   2.0000      -6.031395      -164.1226
  24   2.0000      -1.007240       -27.4084
  25   2.0000      -0.989384       -26.9225
  26   2.0000      -0.911082       -24.7918
  27   2.0000      -0.899287       -24.4708
  28   2.0000      -0.872882       -23.7523
  29   2.0000      -0.847370       -23.0581
  30   2.0000      -0.843089       -22.9416
  31   2.0000      -0.821190       -22.3457
  32   2.0000      -0.779716       -21.2171
  33   2.0000      -0.768600       -20.9147
  34   2.0000      -0.707954       -19.2644
  35   2.0000      -0.696234       -18.9455
  36   2.0000      -0.692760       -18.8509
  37   2.0000      -0.659649       -17.9500
  38   2.0000      -0.644985       -17.5509
  39   2.0000      -0.610830       -16.6215
  40   2.0000      -0.591084       -16.0842
  41   2.0000      -0.579421       -15.7669
  42   2.0000      -0.552354       -15.0303
  43   2.0000      -0.547205       -14.8902
  44   2.0000      -0.546042       -14.8586
  45   2.0000      -0.533965       -14.5299
  46   2.0000      -0.516371       -14.0512
  47   2.0000      -0.512727       -13.9520
  48   2.0000      -0.507699       -13.8152
  49   2.0000      -0.500163       -13.6101
  50   2.0000      -0.488602       -13.2955
  51   2.0000      -0.482592       -13.1320
  52   2.0000      -0.473036       -12.8720
  53   2.0000      -0.465781       -12.6745
  54   2.0000      -0.452915       -12.3244
  55   2.0000      -0.446787       -12.1577
  56   2.0000      -0.436712       -11.8835
  57   2.0000      -0.427824       -11.6417
  58   2.0000      -0.426556       -11.6072
  59   2.0000      -0.424847       -11.5607
  60   2.0000      -0.422668       -11.5014
  61   2.0000      -0.410452       -11.1690
  62   2.0000      -0.408264       -11.1094
  63   2.0000      -0.343685        -9.3522
  64   2.0000      -0.329162        -8.9570
  65   2.0000      -0.325550        -8.8587
  66   2.0000      -0.303665        -8.2631
  67   0.0000       0.038328         1.0430
  68   0.0000       0.053207         1.4478
  69   0.0000       0.116389         3.1671
  70   0.0000       0.120690         3.2842
  71   0.0000       0.131561         3.5800

MULLIKEN ATOMIC CHARGES
-----------------------
   0 S :    0.107258
   1 C :   -0.085508
   2 C :   -0.089523
   3 C :    0.052926
   4 C :   -0.198380
   5 H :    0.024080
   6 C :    0.027008
   7 H :    0.026041
   8 H :    0.044251
   9 C :   -0.058270
  10 H :    0.015493
  11 H :    0.022323
  12 C :   -0.061939
  13 H :    0.054216
  14 H :    0.032049
  15 H :    0.028934
  16 S :    0.119237
  17 C :   -0.069408
  18 C :   -0.008100
  19 C :   -0.070836
  20 C :   -0.149409
  21 H :    0.016755
  22 C :    0.050132
  23 H :    0.027783
  24 H :    0.018574
  25 C :   -0.076435
  26 H :    0.034966
  27 H :    0.024151
  28 C :   -0.021533
  29 H :    0.024489
  30 H :    0.035984
  31 H :    0.025360
  32 H :    0.036836
  33 H :    0.040498
Sum of atomic charges:   -0.0000000

LOEWDIN ATOMIC CHARGES
----------------------
   0 S :    0.405468
   1 C :   -0.194372
   2 C :   -0.077310
   3 C :   -0.061179
   4 C :   -0.186044
   5 H :    0.040223
   6 C :   -0.034530
   7 H :    0.030309
   8 H :    0.041419
   9 C :   -0.049719
  10 H :    0.019378
  11 H :    0.022570
  12 C :   -0.067542
  13 H :    0.034221
  14 H :    0.029814
  15 H :    0.020953
  16 S :    0.421990
  17 C :   -0.175580
  18 C :   -0.068596
  19 C :   -0.048469
  20 C :   -0.220988
  21 H :    0.030871
  22 C :   -0.037526
  23 H :    0.028369
  24 H :    0.027685
  25 C :   -0.033891
  26 H :    0.029929
  27 H :    0.017932
  28 C :   -0.063346
  29 H :    0.016108
  30 H :    0.026646
  31 H :    0.026793
  32 H :    0.029392
  33 H :    0.019026

  Mayer bond orders larger than 0.100000
B(  0-S ,  1-C ) :   1.1483 B(  0-S ,  4-C ) :   1.1500 B(  1-C ,  2-C ) :   1.6004
B(  1-C ,  4-C ) :   0.1059 B(  1-C , 32-H ) :   0.9706 B(  2-C ,  3-C ) :   1.2419
B(  2-C ,  6-C ) :   1.0138 B(  3-C ,  4-C ) :   1.5786 B(  3-C ,  5-H ) :   0.9921
B(  4-C , 20-C ) :   1.0220 B(  6-C ,  7-H ) :   0.9451 B(  6-C ,  8-H ) :   0.9439
B(  6-C ,  9-C ) :   1.0704 B(  9-C , 10-H ) :   0.9554 B(  9-C , 11-H ) :   0.9525
B(  9-C , 12-C ) :   1.0814 B( 12-C , 13-H ) :   0.9751 B( 12-C , 14-H ) :   0.9709
B( 12-C , 15-H ) :   0.9749 B( 16-S , 17-C ) :   1.1787 B( 16-S , 20-C ) :   1.1241
B( 17-C , 18-C ) :   1.6003 B( 17-C , 33-H ) :   0.9698 B( 18-C , 19-C ) :   1.2228
B( 18-C , 21-H ) :   1.0003 B( 19-C , 20-C ) :   1.6018 B( 19-C , 22-C ) :   1.0603
B( 22-C , 23-H ) :   0.9339 B( 22-C , 24-H ) :   0.9320 B( 22-C , 25-C ) :   1.0684
B( 25-C , 26-H ) :   0.9562 B( 25-C , 27-H ) :   0.9556 B( 25-C , 28-C ) :   1.0691
B( 28-C , 29-H ) :   0.9747 B( 28-C , 30-H ) :   0.9724 B( 28-C , 31-H ) :   0.9734

Dispersion correction           -0.015258604
FINAL SINGLE POINT ENERGY     -1339.881897305009

DIPOLE MOMENT
-------------
                                X             Y             Z
Electronic contribution:     11.97779      -3.19317       7.74192
Nuclear contribution   :    -12.23698       3.05680      -8.00733
                        -----------------------------------------
Total Dipole Moment    :     -0.25919      -0.13637      -0.26541
                        -----------------------------------------
Magnitude (a.u.)       :      0.39525
Magnitude (Debye)      :      1.00463

Rotational constants in cm-1:     0.022365     0.008082     0.007128
Rotational constants in MHz :   670.476303   242.291887   213.685546

                             ****ORCA TERMINATED NORMALLY****
TOTAL RUN TIME: 0 days 0 hours 0 minutes 21 seconds 716 msec
