                         Program Version 4.2.1 -  RELEASE  -
|  1> ! wB97X-D3 SP def2-SVP
|  2> %pal
|  3> nprocs 24
|  4> end
|  5>
|  6> * xyz 0 1
|  7> S 	 29.0522 	 -30.7987 	 -132.682
|  8> C 	 28.5611 	 -29.136 	 -132.824
|  9> C 	 29.5559 	 -28.2401 	 -132.349
| 10> C 	 30.5859 	 -28.9623 	 -131.627
| 11> C 	 30.4926 	 -30.318 	 -131.808
| 12> H 	 31.4805 	 -28.6203 	 -131.168
| 13> C 	 29.4497 	 -26.7143 	 -132.324
| 14> H 	 28.651 	 -26.4841 	 -133.083
| 15> H 	 30.4037 	 -26.3113 	 -132.667
| 16> C 	 29.2407 	 -26.0424 	 -130.947
| 17> H 	 28.1637 	 -26.2155 	 -130.678
| 18> H 	 30.0403 	 -26.5307 	 -130.375
| 19> C 	 29.3881 	 -24.5464 	 -130.864
| 20> H 	 30.4665 	 -24.3913 	 -130.824
| 21> H 	 28.8535 	 -24.0656 	 -131.712
| 22> H 	 28.964 	 -24.2174 	 -129.923
| 23> S 	 32.6475 	 -31.9121 	 -132.575
| 24> C 	 33.7576 	 -32.4986 	 -131.361
| 25> C 	 33.1933 	 -32.2859 	 -130.115
| 26> C 	 31.9657 	 -31.6187 	 -130.127
| 27> C 	 31.4768 	 -31.3196 	 -131.373
| 28> H 	 33.7807 	 -32.6174 	 -129.228
| 29> C 	 31.3228 	 -31.1717 	 -128.802
| 30> H 	 30.8258 	 -32.0511 	 -128.488
| 31> H 	 30.4921 	 -30.466 	 -128.956
| 32> C 	 32.4331 	 -30.741 	 -127.778
| 33> H 	 33.0541 	 -30.0389 	 -128.262
| 34> H 	 33.063 	 -31.5696 	 -127.558
| 35> C 	 31.8522 	 -30.3832 	 -126.423
| 36> H 	 32.5488 	 -29.788 	 -125.814
| 37> H 	 31.6497 	 -31.2255 	 -125.83
| 38> H 	 30.8133 	 -29.9366 	 -126.503
| 39> H 	 27.6977 	 -28.8707 	 -133.422
| 40> H 	 34.7572 	 -32.8186 	 -131.58
| 41> *
| 42>
| 43>                          ****END OF INPUT****

CARTESIAN COORDINATES (ANGSTROEM)
---------------------------------
  S     29.052200  -30.798700  -132.682000
  C     28.561100  -29.136000  -132.824000
  C     29.555900  -28.240100  -132.349000
  C     30.585900  -28.962300  -131.627000
  C     30.492600  -30.318000  -131.808000
  H     31.480500  -28.620300  -131.168000
  C     29.449700  -26.714300  -132.324000
  H     28.651000  -26.484100  -133.083000
  H     30.403700  -26.311300  -132.667000
  C     29.240700  -26.042400  -130.947000
  H     28.163700  -26.215500  -130.678000
  H     30.040300  -26.530700  -130.375000
  C     29.388100  -24.546400  -130.864000
  H     30.466500  -24.391300  -130.824000
  H     28.853500  -24.065600  -131.712000
  H     28.964000  -24.217400  -129.923000
  S     32.647500  -31.912100  -132.575000
  C     33.757600  -32.498600  -131.361000
  C     33.193300  -32.285900  -130.115000
  C     31.965700  -31.618700  -130.127000
  C     31.476800  -31.319600  -131.373000
  H     33.780700  -32.617400  -129.228000
  C     31.322800  -31.171700  -128.802000
  H     30.825800  -32.051100  -128.488000
  H     30.492100  -30.466000  -128.956000
  C     32.433100  -30.741000  -127.778000
  H     33.054100  -30.038900  -128.262000
  H     33.063000  -31.569600  -127.558000
  C     31.852200  -30.383200  -126.423000
  H     32.548800  -29.788000  -125.814000
  H     31.649700  -31.225500  -125.830000
  H     30.813300  -29.936600  -126.503000
  H     27.697700  -28.870700  -133.422000
  H     34.757200  -32.818600  -131.580000

 Total Charge           Charge          ....    0
 Multiplicity           Mult            ....    1
 Number of Electrons    NEL             ....  134
 Basis Dimension        Dim             ....  322

ORBITAL ENERGIES
----------------

  NO   OCC          E(Eh)            E(eV)
   0   2.0000     -88.965839     -2420.8836
   1   2.0000     -88.960196     -2420.7300
   2   2.0000     -10.327827      -281.0345
   3   2.0000     -10.322672      -280.8942
   4   2.0000     -10.318870      -280.7907
   5   2.0000     -10.317599      -280.7561
   6   2.0000     -10.309674      -280.5405
   7   2.0000     -10.300423      -280.2888
   8   2.0000     -10.295796      -280.1629
   9   2.0000     -10.293842      -280.1097
  10   2.0000     -10.293172      -280.0915
  11   2.0000     -10.289907      -280.0026
  12   2.0000     -10.288378      -279.9610
  13   2.0000     -10.283168      -279.8192
  14   2.0000     -10.279762      -279.7266
  15   2.0000     -10.278155      -279.6828
  16   2.0000      -8.080815      -219.8901
  17   2.0000      -8.074890      -219.7289
  18   2.0000      -6.039167      -164.3341
  19   2.0000      -6.035290      -164.2286
  20   2.0000      -6.033367      -164.1763
  21   2.0000      -6.031736      -164.1319
  22   2.0000      -6.029263      -164.0646
  23   2.0000      -6.025797      -163.9703
  24   2.0000      -1.004909       -27.3450
  25   2.0000      -0.982983       -26.7483
  26   2.0000      -0.911186       -24.7946
  27   2.0000      -0.907989       -24.7076
  28   2.0000      -0.869010       -23.6470
  29   2.0000      -0.852627       -23.2012
  30   2.0000      -0.848210       -23.0810
  31   2.0000      -0.814446       -22.1622
  32   2.0000      -0.780417       -21.2362
  33   2.0000      -0.769850       -20.9487
  34   2.0000      -0.711855       -19.3705
  35   2.0000      -0.698700       -19.0126
  36   2.0000      -0.685044       -18.6410
  37   2.0000      -0.653536       -17.7836
  38   2.0000      -0.647602       -17.6221
  39   2.0000      -0.615773       -16.7560
  40   2.0000      -0.597136       -16.2489
  41   2.0000      -0.579536       -15.7700
  42   2.0000      -0.564353       -15.3568
  43   2.0000      -0.561479       -15.2786
  44   2.0000      -0.533769       -14.5246
  45   2.0000      -0.524015       -14.2592
  46   2.0000      -0.516043       -14.0422
  47   2.0000      -0.510839       -13.9006
  48   2.0000      -0.508523       -13.8376
  49   2.0000      -0.497043       -13.5252
  50   2.0000      -0.490070       -13.3355
  51   2.0000      -0.481654       -13.1065
  52   2.0000      -0.471670       -12.8348
  53   2.0000      -0.466811       -12.7026
  54   2.0000      -0.457194       -12.4409
  55   2.0000      -0.451866       -12.2959
  56   2.0000      -0.447376       -12.1737
  57   2.0000      -0.437064       -11.8931
  58   2.0000      -0.430968       -11.7272
  59   2.0000      -0.425554       -11.5799
  60   2.0000      -0.417194       -11.3524
  61   2.0000      -0.409669       -11.1477
  62   2.0000      -0.405543       -11.0354
  63   2.0000      -0.340588        -9.2679
  64   2.0000      -0.328241        -8.9319
  65   2.0000      -0.325495        -8.8572
  66   2.0000      -0.301409        -8.2018
  67   0.0000       0.042546         1.1577
  68   0.0000       0.054002         1.4695
  69   0.0000       0.114277         3.1096
  70   0.0000       0.123171         3.3517
  71   0.0000       0.131637         3.5820

MULLIKEN ATOMIC CHARGES
-----------------------
   0 S :    0.116033
   1 C :   -0.120588
   2 C :   -0.085654
   3 C :    0.051495
   4 C :   -0.190787
   5 H :    0.008939
   6 C :    0.051910
   7 H :    0.024966
   8 H :    0.018992
   9 C :   -0.104812
  10 H :    0.035986
  11 H :    0.032933
  12 C :   -0.026832
  13 H :    0.028546
  14 H :    0.042780
  15 H :    0.037145
  16 S :    0.091351
  17 C :   -0.096451
  18 C :   -0.062323
  19 C :   -0.035209
  20 C :   -0.151974
  21 H :    0.035044
  22 C :    0.095184
  23 H :    0.021688
  24 H :    0.034837
  25 C :   -0.075732
  26 H :    0.028472
  27 H :    0.025148
  28 C :   -0.029729
  29 H :    0.037180
  30 H :    0.015257
  31 H :    0.032979
  32 H :    0.054612
  33 H :    0.058613
Sum of atomic charges:    0.0000000

LOEWDIN ATOMIC CHARGES
----------------------
   0 S :    0.411422
   1 C :   -0.202190
   2 C :   -0.056394
   3 C :   -0.057349
   4 C :   -0.193431
   5 H :    0.029465
   6 C :   -0.038938
   7 H :    0.030192
   8 H :    0.027354
   9 C :   -0.046261
  10 H :    0.028778
  11 H :    0.026192
  12 C :   -0.064258
  13 H :    0.024921
  14 H :    0.030961
  15 H :    0.028245
  16 S :    0.394652
  17 C :   -0.176507
  18 C :   -0.084953
  19 C :   -0.055932
  20 C :   -0.205786
  21 H :    0.038515
  22 C :   -0.022494
  23 H :    0.029104
  24 H :    0.032145
  25 C :   -0.034855
  26 H :    0.018784
  27 H :    0.021838
  28 C :   -0.067270
  29 H :    0.029636
  30 H :    0.018516
  31 H :    0.031463
  32 H :    0.025627
  33 H :    0.028811

  Mayer bond orders larger than 0.100000
B(  0-S ,  1-C ) :   1.1511 B(  0-S ,  4-C ) :   1.1557 B(  1-C ,  2-C ) :   1.6030
B(  1-C , 32-H ) :   0.9672 B(  2-C ,  3-C ) :   1.2081 B(  2-C ,  6-C ) :   1.0420
B(  3-C ,  4-C ) :   1.6177 B(  3-C ,  5-H ) :   0.9901 B(  4-C , 20-C ) :   0.9929
B(  6-C ,  7-H ) :   0.9397 B(  6-C ,  8-H ) :   0.9345 B(  6-C ,  9-C ) :   1.0558
B(  9-C , 10-H ) :   0.9574 B(  9-C , 11-H ) :   0.9571 B(  9-C , 12-C ) :   1.0847
B( 12-C , 13-H ) :   0.9742 B( 12-C , 14-H ) :   0.9735 B( 12-C , 15-H ) :   0.9740
B( 16-S , 17-C ) :   1.1788 B( 16-S , 20-C ) :   1.1328 B( 17-C , 18-C ) :   1.5777
B( 17-C , 20-C ) :   0.1005 B( 17-C , 33-H ) :   0.9711 B( 18-C , 19-C ) :   1.2582
B( 18-C , 21-H ) :   0.9857 B( 19-C , 20-C ) :   1.6083 B( 19-C , 22-C ) :   1.0196
B( 22-C , 23-H ) :   0.9274 B( 22-C , 24-H ) :   0.9404 B( 22-C , 25-C ) :   1.0612
B( 25-C , 26-H ) :   0.9694 B( 25-C , 27-H ) :   0.9447 B( 25-C , 28-C ) :   1.0782
B( 28-C , 29-H ) :   0.9726 B( 28-C , 30-H ) :   0.9734 B( 28-C , 31-H ) :   0.9741

Dispersion correction           -0.013668859
FINAL SINGLE POINT ENERGY     -1339.866948930443

DIPOLE MOMENT
-------------
                                X             Y             Z
Electronic contribution:      0.99422     -21.32556     -21.38776
Nuclear contribution   :     -0.75660      21.75849      21.93913
                        -----------------------------------------
Total Dipole Moment    :      0.23763       0.43292       0.55138
                        -----------------------------------------
Magnitude (a.u.)       :      0.74021
Magnitude (Debye)      :      1.88146

Rotational constants in cm-1:     0.015935     0.008710     0.006545
Rotational constants in MHz :   477.730371   261.108138   196.226234

                             ****ORCA TERMINATED NORMALLY****
TOTAL RUN TIME: 0 days 0 hours 0 minutes 21 seconds 215 msec
