                         Program Version 4.2.1 -  RELEASE  -
|  1> ! wB97X-D3 SP def2-SVP
|  2> %pal
|  3> nprocs 24
|  4> end
|  5>
|  6> * xyz 0 1
|  7> S 	 -46.3104 	 14.1502 	 -101.167
|  8> C 	 -47.4981 	 15.4037 	 -100.656
|  9> C 	 -47.1354 	 16.7473 	 -100.846
| 10> C 	 -45.7514 	 16.7373 	 -101.22
| 11> C 	 -45.1496 	 15.5222 	 -101.388
| 12> H 	 -45.2056 	 17.606 	 -101.405
| 13> C 	 -48.0537 	 17.9739 	 -100.719
| 14> H 	 -49.0915 	 17.6589 	 -100.831
| 15> H 	 -47.9306 	 18.5542 	 -101.629
| 16> C 	 -47.9223 	 18.9758 	 -99.5032
| 17> H 	 -47.0087 	 19.5673 	 -99.3551
| 18> H 	 -48.6847 	 19.7918 	 -99.6276
| 19> C 	 -48.1807 	 18.3091 	 -98.1244
| 20> H 	 -49.1689 	 17.8918 	 -98.2069
| 21> H 	 -47.3992 	 17.641 	 -97.803
| 22> H 	 -48.4007 	 18.9941 	 -97.3276
| 23> S 	 -42.4941 	 15.6665 	 -100.959
| 24> C 	 -41.3667 	 15.1056 	 -102.162
| 25> C 	 -41.9726 	 14.7008 	 -103.311
| 26> C 	 -43.4176 	 14.7013 	 -103.184
| 27> C 	 -43.837 	 15.2915 	 -102.013
| 28> H 	 -41.4397 	 14.3178 	 -104.133
| 29> C 	 -44.2796 	 14.1446 	 -104.287
| 30> H 	 -45.2476 	 13.8598 	 -103.858
| 31> H 	 -44.0366 	 13.1843 	 -104.676
| 32> C 	 -44.4949 	 15.2147 	 -105.368
| 33> H 	 -45.016 	 14.7539 	 -106.239
| 34> H 	 -43.4352 	 15.5998 	 -105.529
| 35> C 	 -45.2582 	 16.4525 	 -104.886
| 36> H 	 -45.3962 	 17.1111 	 -105.798
| 37> H 	 -44.6382 	 17.1433 	 -104.237
| 38> H 	 -46.187 	 16.2052 	 -104.372
| 39> H 	 -48.5071 	 15.1805 	 -100.556
| 40> H 	 -40.3295 	 15.2402 	 -102.123
| 41> *
| 42>
| 43>                          ****END OF INPUT****

CARTESIAN COORDINATES (ANGSTROEM)
---------------------------------
  S    -46.310400   14.150200  -101.167000
  C    -47.498100   15.403700  -100.656000
  C    -47.135400   16.747300  -100.846000
  C    -45.751400   16.737300  -101.220000
  C    -45.149600   15.522200  -101.388000
  H    -45.205600   17.606000  -101.405000
  C    -48.053700   17.973900  -100.719000
  H    -49.091500   17.658900  -100.831000
  H    -47.930600   18.554200  -101.629000
  C    -47.922300   18.975800  -99.503200
  H    -47.008700   19.567300  -99.355100
  H    -48.684700   19.791800  -99.627600
  C    -48.180700   18.309100  -98.124400
  H    -49.168900   17.891800  -98.206900
  H    -47.399200   17.641000  -97.803000
  H    -48.400700   18.994100  -97.327600
  S    -42.494100   15.666500  -100.959000
  C    -41.366700   15.105600  -102.162000
  C    -41.972600   14.700800  -103.311000
  C    -43.417600   14.701300  -103.184000
  C    -43.837000   15.291500  -102.013000
  H    -41.439700   14.317800  -104.133000
  C    -44.279600   14.144600  -104.287000
  H    -45.247600   13.859800  -103.858000
  H    -44.036600   13.184300  -104.676000
  C    -44.494900   15.214700  -105.368000
  H    -45.016000   14.753900  -106.239000
  H    -43.435200   15.599800  -105.529000
  C    -45.258200   16.452500  -104.886000
  H    -45.396200   17.111100  -105.798000
  H    -44.638200   17.143300  -104.237000
  H    -46.187000   16.205200  -104.372000
  H    -48.507100   15.180500  -100.556000
  H    -40.329500   15.240200  -102.123000

 Total Charge           Charge          ....    0
 Multiplicity           Mult            ....    1
 Number of Electrons    NEL             ....  134
 Basis Dimension        Dim             ....  322

ORBITAL ENERGIES
----------------

  NO   OCC          E(Eh)            E(eV)
   0   2.0000     -88.970560     -2421.0120
   1   2.0000     -88.962234     -2420.7855
   2   2.0000     -10.331330      -281.1298
   3   2.0000     -10.324073      -280.9323
   4   2.0000     -10.316014      -280.7130
   5   2.0000     -10.309941      -280.5478
   6   2.0000     -10.309073      -280.5241
   7   2.0000     -10.306206      -280.4461
   8   2.0000     -10.302201      -280.3371
   9   2.0000     -10.298872      -280.2465
  10   2.0000     -10.292394      -280.0703
  11   2.0000     -10.290671      -280.0234
  12   2.0000     -10.288747      -279.9710
  13   2.0000     -10.283511      -279.8286
  14   2.0000     -10.278827      -279.7011
  15   2.0000     -10.271228      -279.4943
  16   2.0000      -8.083237      -219.9561
  17   2.0000      -8.077396      -219.7971
  18   2.0000      -6.041751      -164.4044
  19   2.0000      -6.038373      -164.3125
  20   2.0000      -6.036004      -164.2480
  21   2.0000      -6.033755      -164.1868
  22   2.0000      -6.031824      -164.1343
  23   2.0000      -6.028042      -164.0314
  24   2.0000      -1.003135       -27.2967
  25   2.0000      -0.977637       -26.6029
  26   2.0000      -0.908218       -24.7139
  27   2.0000      -0.902709       -24.5640
  28   2.0000      -0.867263       -23.5994
  29   2.0000      -0.848455       -23.0876
  30   2.0000      -0.839250       -22.8372
  31   2.0000      -0.816338       -22.2137
  32   2.0000      -0.785696       -21.3799
  33   2.0000      -0.773550       -21.0494
  34   2.0000      -0.705511       -19.1979
  35   2.0000      -0.697847       -18.9894
  36   2.0000      -0.685128       -18.6433
  37   2.0000      -0.664348       -18.0778
  38   2.0000      -0.641263       -17.4496
  39   2.0000      -0.622938       -16.9510
  40   2.0000      -0.605192       -16.4681
  41   2.0000      -0.565685       -15.3931
  42   2.0000      -0.547852       -14.9078
  43   2.0000      -0.544978       -14.8296
  44   2.0000      -0.543812       -14.7979
  45   2.0000      -0.541760       -14.7420
  46   2.0000      -0.513502       -13.9731
  47   2.0000      -0.511815       -13.9272
  48   2.0000      -0.500177       -13.6105
  49   2.0000      -0.493257       -13.4222
  50   2.0000      -0.484632       -13.1875
  51   2.0000      -0.473686       -12.8897
  52   2.0000      -0.466735       -12.7005
  53   2.0000      -0.457425       -12.4472
  54   2.0000      -0.454294       -12.3620
  55   2.0000      -0.449488       -12.2312
  56   2.0000      -0.441042       -12.0014
  57   2.0000      -0.437554       -11.9065
  58   2.0000      -0.430758       -11.7215
  59   2.0000      -0.427502       -11.6329
  60   2.0000      -0.418509       -11.3882
  61   2.0000      -0.413874       -11.2621
  62   2.0000      -0.405571       -11.0362
  63   2.0000      -0.339373        -9.2348
  64   2.0000      -0.334718        -9.1081
  65   2.0000      -0.325747        -8.8640
  66   2.0000      -0.300763        -8.1842
  67   0.0000       0.034201         0.9307
  68   0.0000       0.063844         1.7373
  69   0.0000       0.095442         2.5971
  70   0.0000       0.114820         3.1244
  71   0.0000       0.129977         3.5369

MULLIKEN ATOMIC CHARGES
-----------------------
   0 S :    0.100458
   1 C :   -0.083477
   2 C :   -0.091849
   3 C :    0.056024
   4 C :   -0.127026
   5 H :   -0.012197
   6 C :    0.085460
   7 H :    0.022164
   8 H :    0.032564
   9 C :   -0.095023
  10 H :    0.037020
  11 H :    0.032344
  12 C :   -0.043161
  13 H :    0.011915
  14 H :    0.055533
  15 H :    0.019864
  16 S :    0.106678
  17 C :   -0.055096
  18 C :   -0.021419
  19 C :   -0.062445
  20 C :   -0.183545
  21 H :    0.006411
  22 C :    0.101971
  23 H :   -0.001676
  24 H :    0.016344
  25 C :   -0.084391
  26 H :    0.043188
  27 H :    0.032019
  28 C :   -0.078344
  29 H :    0.037140
  30 H :    0.040755
  31 H :    0.045036
  32 H :    0.020241
  33 H :    0.036518
Sum of atomic charges:   -0.0000000

LOEWDIN ATOMIC CHARGES
----------------------
   0 S :    0.365694
   1 C :   -0.164343
   2 C :   -0.056913
   3 C :   -0.043905
   4 C :   -0.178819
   5 H :    0.020755
   6 C :   -0.029681
   7 H :    0.034110
   8 H :    0.036710
   9 C :   -0.044209
  10 H :    0.024532
  11 H :    0.030620
  12 C :   -0.069720
  13 H :    0.022198
  14 H :    0.027907
  15 H :    0.024506
  16 S :    0.410420
  17 C :   -0.177050
  18 C :   -0.063031
  19 C :   -0.052674
  20 C :   -0.199661
  21 H :    0.025472
  22 C :   -0.041329
  23 H :    0.019026
  24 H :    0.026495
  25 C :   -0.042927
  26 H :    0.027854
  27 H :    0.031891
  28 C :   -0.075175
  29 H :    0.032238
  30 H :    0.029757
  31 H :    0.023139
  32 H :    0.007760
  33 H :    0.018351

  Mayer bond orders larger than 0.100000
B(  0-S ,  1-C ) :   1.1372 B(  0-S ,  4-C ) :   1.1028 B(  1-C ,  2-C ) :   1.6405
B(  1-C , 32-H ) :   0.9622 B(  2-C ,  3-C ) :   1.2122 B(  2-C ,  6-C ) :   1.0213
B(  3-C ,  4-C ) :   1.6287 B(  3-C ,  5-H ) :   0.9957 B(  4-C , 20-C ) :   1.0105
B(  6-C ,  7-H ) :   0.9401 B(  6-C ,  8-H ) :   0.9371 B(  6-C ,  9-C ) :   1.0565
B(  9-C , 10-H ) :   0.9634 B(  9-C , 11-H ) :   0.9546 B(  9-C , 12-C ) :   1.0745
B( 12-C , 13-H ) :   0.9732 B( 12-C , 14-H ) :   0.9779 B( 12-C , 15-H ) :   0.9716
B( 16-S , 17-C ) :   1.1464 B( 16-S , 20-C ) :   1.1438 B( 17-C , 18-C ) :   1.6399
B( 17-C , 33-H ) :   0.9679 B( 18-C , 19-C ) :   1.2125 B( 18-C , 21-H ) :   0.9930
B( 19-C , 20-C ) :   1.6298 B( 19-C , 22-C ) :   1.0432 B( 22-C , 23-H ) :   0.9239
B( 22-C , 24-H ) :   0.9357 B( 22-C , 25-C ) :   1.0638 B( 25-C , 26-H ) :   0.9563
B( 25-C , 27-H ) :   0.9560 B( 25-C , 28-C ) :   1.0786 B( 28-C , 29-H ) :   0.9709
B( 28-C , 30-H ) :   0.9697 B( 28-C , 31-H ) :   0.9745

Dispersion correction           -0.015845815
FINAL SINGLE POINT ENERGY     -1339.862392597146

DIPOLE MOMENT
-------------
                                X             Y             Z
Electronic contribution:     13.73590     -14.06036       5.45666
Nuclear contribution   :    -14.02954      14.44106      -5.84539
                        -----------------------------------------
Total Dipole Moment    :     -0.29365       0.38071      -0.38873
                        -----------------------------------------
Magnitude (a.u.)       :      0.61829
Magnitude (Debye)      :      1.57156

Rotational constants in cm-1:     0.021941     0.008197     0.007391
Rotational constants in MHz :   657.780384   245.736678   221.577147

                             ****ORCA TERMINATED NORMALLY****
TOTAL RUN TIME: 0 days 0 hours 0 minutes 22 seconds 331 msec
