                         Program Version 4.2.1 -  RELEASE  -
|  1> ! wB97X-D3 SP def2-SVP
|  2> %pal
|  3> nprocs 24
|  4> end
|  5>
|  6> * xyz 0 1
|  7> S 	 -31.6227 	 -49.3023 	 -75.6519
|  8> C 	 -30.0719 	 -49.6282 	 -76.3315
|  9> C 	 -29.2377 	 -48.5264 	 -76.2069
| 10> C 	 -29.9039 	 -47.363 	 -75.6764
| 11> C 	 -31.2573 	 -47.5695 	 -75.4912
| 12> H 	 -29.4375 	 -46.4183 	 -75.548
| 13> C 	 -27.7822 	 -48.4358 	 -76.535
| 14> H 	 -27.6013 	 -49.5204 	 -76.4683
| 15> H 	 -27.2751 	 -48.0178 	 -75.619
| 16> C 	 -27.274 	 -47.7086 	 -77.8132
| 17> H 	 -26.2295 	 -47.6765 	 -77.7711
| 18> H 	 -27.5442 	 -48.2968 	 -78.6745
| 19> C 	 -27.7408 	 -46.2503 	 -78.0585
| 20> H 	 -28.8097 	 -46.2339 	 -78.2783
| 21> H 	 -27.525 	 -45.6618 	 -77.1644
| 22> H 	 -27.1966 	 -45.8497 	 -78.9214
| 23> S 	 -33.5475 	 -47.0666 	 -73.9628
| 24> C 	 -33.7995 	 -45.447 	 -73.4519
| 25> C 	 -33.1582 	 -44.5259 	 -74.2253
| 26> C 	 -32.3204 	 -45.2297 	 -75.1837
| 27> C 	 -32.2366 	 -46.6282 	 -75.0459
| 28> H 	 -33.3608 	 -43.429 	 -74.1408
| 29> C 	 -31.4227 	 -44.543 	 -76.1953
| 30> H 	 -31.0371 	 -45.2651 	 -76.927
| 31> H 	 -30.6077 	 -44.4428 	 -75.547
| 32> C 	 -31.892 	 -43.2555 	 -76.8984
| 33> H 	 -31.9627 	 -42.4169 	 -76.1639
| 34> H 	 -32.8092 	 -43.4431 	 -77.4681
| 35> C 	 -30.9762 	 -42.9384 	 -78.0876
| 36> H 	 -31.5662 	 -42.3553 	 -78.8064
| 37> H 	 -30.6935 	 -43.8026 	 -78.61
| 38> H 	 -30.1377 	 -42.3955 	 -77.7639
| 39> H 	 -29.8653 	 -50.5242 	 -76.7969
| 40> H 	 -34.6692 	 -45.3061 	 -72.9114
| 41> *
| 42>
| 43>                          ****END OF INPUT****

CARTESIAN COORDINATES (ANGSTROEM)
---------------------------------
  S    -31.622700  -49.302300  -75.651900
  C    -30.071900  -49.628200  -76.331500
  C    -29.237700  -48.526400  -76.206900
  C    -29.903900  -47.363000  -75.676400
  C    -31.257300  -47.569500  -75.491200
  H    -29.437500  -46.418300  -75.548000
  C    -27.782200  -48.435800  -76.535000
  H    -27.601300  -49.520400  -76.468300
  H    -27.275100  -48.017800  -75.619000
  C    -27.274000  -47.708600  -77.813200
  H    -26.229500  -47.676500  -77.771100
  H    -27.544200  -48.296800  -78.674500
  C    -27.740800  -46.250300  -78.058500
  H    -28.809700  -46.233900  -78.278300
  H    -27.525000  -45.661800  -77.164400
  H    -27.196600  -45.849700  -78.921400
  S    -33.547500  -47.066600  -73.962800
  C    -33.799500  -45.447000  -73.451900
  C    -33.158200  -44.525900  -74.225300
  C    -32.320400  -45.229700  -75.183700
  C    -32.236600  -46.628200  -75.045900
  H    -33.360800  -43.429000  -74.140800
  C    -31.422700  -44.543000  -76.195300
  H    -31.037100  -45.265100  -76.927000
  H    -30.607700  -44.442800  -75.547000
  C    -31.892000  -43.255500  -76.898400
  H    -31.962700  -42.416900  -76.163900
  H    -32.809200  -43.443100  -77.468100
  C    -30.976200  -42.938400  -78.087600
  H    -31.566200  -42.355300  -78.806400
  H    -30.693500  -43.802600  -78.610000
  H    -30.137700  -42.395500  -77.763900
  H    -29.865300  -50.524200  -76.796900
  H    -34.669200  -45.306100  -72.911400

 Total Charge           Charge          ....    0
 Multiplicity           Mult            ....    1
 Number of Electrons    NEL             ....  134
 Basis Dimension        Dim             ....  322

ORBITAL ENERGIES
----------------

  NO   OCC          E(Eh)            E(eV)
   0   2.0000     -88.963356     -2420.8160
   1   2.0000     -88.957695     -2420.6619
   2   2.0000     -10.332103      -281.1508
   3   2.0000     -10.322666      -280.8940
   4   2.0000     -10.310322      -280.5581
   5   2.0000     -10.309880      -280.5461
   6   2.0000     -10.307835      -280.4905
   7   2.0000     -10.301482      -280.3176
   8   2.0000     -10.300304      -280.2855
   9   2.0000     -10.295057      -280.1427
  10   2.0000     -10.291415      -280.0436
  11   2.0000     -10.291222      -280.0384
  12   2.0000     -10.286398      -279.9071
  13   2.0000     -10.283348      -279.8241
  14   2.0000     -10.283247      -279.8214
  15   2.0000     -10.270201      -279.4664
  16   2.0000      -8.078449      -219.8258
  17   2.0000      -8.073639      -219.6949
  18   2.0000      -6.037012      -164.2755
  19   2.0000      -6.033036      -164.1673
  20   2.0000      -6.032057      -164.1406
  21   2.0000      -6.029018      -164.0579
  22   2.0000      -6.028106      -164.0331
  23   2.0000      -6.024295      -163.9294
  24   2.0000      -1.008195       -27.4344
  25   2.0000      -0.986291       -26.8383
  26   2.0000      -0.911179       -24.7944
  27   2.0000      -0.909300       -24.7433
  28   2.0000      -0.876512       -23.8511
  29   2.0000      -0.855346       -23.2751
  30   2.0000      -0.846400       -23.0317
  31   2.0000      -0.821227       -22.3467
  32   2.0000      -0.783806       -21.3284
  33   2.0000      -0.769945       -20.9513
  34   2.0000      -0.709729       -19.3127
  35   2.0000      -0.705681       -19.2026
  36   2.0000      -0.703497       -19.1431
  37   2.0000      -0.655214       -17.8293
  38   2.0000      -0.644215       -17.5300
  39   2.0000      -0.616812       -16.7843
  40   2.0000      -0.596577       -16.2337
  41   2.0000      -0.576051       -15.6751
  42   2.0000      -0.574299       -15.6275
  43   2.0000      -0.550391       -14.9769
  44   2.0000      -0.548704       -14.9310
  45   2.0000      -0.534081       -14.5331
  46   2.0000      -0.518495       -14.1090
  47   2.0000      -0.517152       -14.0724
  48   2.0000      -0.506903       -13.7935
  49   2.0000      -0.498485       -13.5645
  50   2.0000      -0.487101       -13.2547
  51   2.0000      -0.483706       -13.1623
  52   2.0000      -0.473473       -12.8839
  53   2.0000      -0.468931       -12.7603
  54   2.0000      -0.458716       -12.4823
  55   2.0000      -0.452262       -12.3067
  56   2.0000      -0.444743       -12.1021
  57   2.0000      -0.444545       -12.0967
  58   2.0000      -0.433474       -11.7954
  59   2.0000      -0.426897       -11.6165
  60   2.0000      -0.419933       -11.4270
  61   2.0000      -0.412882       -11.2351
  62   2.0000      -0.401576       -10.9274
  63   2.0000      -0.360944        -9.8218
  64   2.0000      -0.329922        -8.9776
  65   2.0000      -0.320420        -8.7191
  66   2.0000      -0.279446        -7.6041
  67   0.0000       0.019259         0.5241
  68   0.0000       0.075563         2.0562
  69   0.0000       0.105126         2.8606
  70   0.0000       0.115321         3.1380
  71   0.0000       0.131367         3.5747

MULLIKEN ATOMIC CHARGES
-----------------------
   0 S :    0.097685
   1 C :   -0.091517
   2 C :   -0.099056
   3 C :    0.015335
   4 C :   -0.118561
   5 H :   -0.005594
   6 C :    0.027410
   7 H :    0.020823
   8 H :    0.037755
   9 C :   -0.016695
  10 H :    0.021284
  11 H :    0.023829
  12 C :   -0.076732
  13 H :    0.049533
  14 H :    0.033564
  15 H :    0.041523
  16 S :    0.081960
  17 C :   -0.059738
  18 C :   -0.037744
  19 C :   -0.076853
  20 C :   -0.118292
  21 H :    0.045679
  22 C :    0.013404
  23 H :    0.028721
  24 H :    0.031085
  25 C :   -0.063502
  26 H :    0.041499
  27 H :    0.036561
  28 C :   -0.016001
  29 H :    0.027291
  30 H :    0.018211
  31 H :    0.024478
  32 H :    0.020339
  33 H :    0.042315
Sum of atomic charges:   -0.0000000

LOEWDIN ATOMIC CHARGES
----------------------
   0 S :    0.396131
   1 C :   -0.191882
   2 C :   -0.063928
   3 C :   -0.057954
   4 C :   -0.173062
   5 H :    0.023906
   6 C :   -0.044348
   7 H :    0.035642
   8 H :    0.038387
   9 C :   -0.031855
  10 H :    0.018722
  11 H :    0.023404
  12 C :   -0.063879
  13 H :    0.024795
  14 H :    0.022410
  15 H :    0.031253
  16 S :    0.404096
  17 C :   -0.173949
  18 C :   -0.080748
  19 C :   -0.042429
  20 C :   -0.209779
  21 H :    0.044796
  22 C :   -0.044066
  23 H :    0.030947
  24 H :    0.026553
  25 C :   -0.038439
  26 H :    0.027841
  27 H :    0.030943
  28 C :   -0.052405
  29 H :    0.028186
  30 H :    0.018167
  31 H :    0.016885
  32 H :    0.012955
  33 H :    0.012706

  Mayer bond orders larger than 0.100000
B(  0-S ,  1-C ) :   1.1346 B(  0-S ,  4-C ) :   1.1354 B(  1-C ,  2-C ) :   1.6079
B(  1-C , 32-H ) :   0.9813 B(  2-C ,  3-C ) :   1.2228 B(  2-C ,  6-C ) :   1.0107
B(  3-C ,  4-C ) :   1.5496 B(  3-C ,  5-H ) :   0.9980 B(  4-C , 20-C ) :   1.1049
B(  6-C ,  7-H ) :   0.9425 B(  6-C ,  8-H ) :   0.9397 B(  6-C ,  9-C ) :   1.0628
B(  9-C , 10-H ) :   0.9538 B(  9-C , 11-H ) :   0.9541 B(  9-C , 12-C ) :   1.0892
B( 12-C , 13-H ) :   0.9716 B( 12-C , 14-H ) :   0.9736 B( 12-C , 15-H ) :   0.9709
B( 16-S , 17-C ) :   1.1881 B( 16-S , 20-C ) :   1.1061 B( 17-C , 18-C ) :   1.5768
B( 17-C , 33-H ) :   0.9693 B( 18-C , 19-C ) :   1.2459 B( 18-C , 21-H ) :   0.9889
B( 19-C , 20-C ) :   1.5651 B( 19-C , 22-C ) :   1.0260 B( 22-C , 23-H ) :   0.9396
B( 22-C , 24-H ) :   0.9258 B( 22-C , 25-C ) :   1.0613 B( 25-C , 26-H ) :   0.9499
B( 25-C , 27-H ) :   0.9629 B( 25-C , 28-C ) :   1.0842 B( 28-C , 29-H ) :   0.9788
B( 28-C , 30-H ) :   0.9726 B( 28-C , 31-H ) :   0.9766

Dispersion correction           -0.014861832
FINAL SINGLE POINT ENERGY     -1339.852512240621

DIPOLE MOMENT
-------------
                                X             Y             Z
Electronic contribution:    -19.57821     -18.30242      17.41953
Nuclear contribution   :     20.06842      18.85285     -17.80081
                        -----------------------------------------
Total Dipole Moment    :      0.49021       0.55043      -0.38128
                        -----------------------------------------
Magnitude (a.u.)       :      0.82985
Magnitude (Debye)      :      2.10932

Rotational constants in cm-1:     0.016039     0.010788     0.006871
Rotational constants in MHz :   480.842182   323.406380   205.997865

                             ****ORCA TERMINATED NORMALLY****
TOTAL RUN TIME: 0 days 0 hours 0 minutes 22 seconds 433 msec
