                         Program Version 4.2.1 -  RELEASE  -
|  1> ! wB97X-D3 SP def2-SVP
|  2> %pal
|  3> nprocs 24
|  4> end
|  5>
|  6> * xyz 0 1
|  7> S 	 -42.4216 	 17.2098 	 23.6865
|  8> C 	 -42.779 	 17.6876 	 25.3097
|  9> C 	 -42.1403 	 16.8166 	 26.2011
| 10> C 	 -41.5475 	 15.7162 	 25.5042
| 11> C 	 -41.5539 	 15.7857 	 24.1467
| 12> H 	 -41.064 	 14.8614 	 26.0297
| 13> C 	 -42.2548 	 16.813 	 27.7665
| 14> H 	 -41.8683 	 17.8034 	 28.0202
| 15> H 	 -41.6358 	 15.9962 	 28.2098
| 16> C 	 -43.742 	 16.6279 	 28.304
| 17> H 	 -44.2236 	 17.5835 	 28.0435
| 18> H 	 -44.2201 	 15.8505 	 27.6886
| 19> C 	 -43.8084 	 16.3922 	 29.8163
| 20> H 	 -44.8374 	 16.201 	 30.0392
| 21> H 	 -43.2296 	 15.5353 	 30.0488
| 22> H 	 -43.4124 	 17.1602 	 30.5083
| 23> S 	 -41.9298 	 14.4045 	 21.8453
| 24> C 	 -40.719 	 13.2394 	 21.2871
| 25> C 	 -39.6411 	 13.2332 	 22.1595
| 26> C 	 -39.6779 	 14.24 	 23.1582
| 27> C 	 -40.9271 	 14.8959 	 23.2124
| 28> H 	 -38.7736 	 12.5627 	 21.8657
| 29> C 	 -38.5335 	 14.543 	 24.0463
| 30> H 	 -38.4193 	 13.5682 	 24.4982
| 31> H 	 -38.703 	 15.2818 	 24.8401
| 32> C 	 -37.219 	 14.9336 	 23.3902
| 33> H 	 -37.3994 	 15.824 	 22.7708
| 34> H 	 -36.9562 	 14.2531 	 22.5593
| 35> C 	 -36.0281 	 15.0953 	 24.3976
| 36> H 	 -35.0421 	 15.1653 	 23.9179
| 37> H 	 -35.9094 	 14.2966 	 25.0475
| 38> H 	 -36.28 	 15.98 	 24.9527
| 39> H 	 -43.1785 	 18.622 	 25.6452
| 40> H 	 -40.8277 	 12.6757 	 20.4346
| 41> *
| 42>
| 43>                          ****END OF INPUT****

CARTESIAN COORDINATES (ANGSTROEM)
---------------------------------
  S    -42.421600   17.209800   23.686500
  C    -42.779000   17.687600   25.309700
  C    -42.140300   16.816600   26.201100
  C    -41.547500   15.716200   25.504200
  C    -41.553900   15.785700   24.146700
  H    -41.064000   14.861400   26.029700
  C    -42.254800   16.813000   27.766500
  H    -41.868300   17.803400   28.020200
  H    -41.635800   15.996200   28.209800
  C    -43.742000   16.627900   28.304000
  H    -44.223600   17.583500   28.043500
  H    -44.220100   15.850500   27.688600
  C    -43.808400   16.392200   29.816300
  H    -44.837400   16.201000   30.039200
  H    -43.229600   15.535300   30.048800
  H    -43.412400   17.160200   30.508300
  S    -41.929800   14.404500   21.845300
  C    -40.719000   13.239400   21.287100
  C    -39.641100   13.233200   22.159500
  C    -39.677900   14.240000   23.158200
  C    -40.927100   14.895900   23.212400
  H    -38.773600   12.562700   21.865700
  C    -38.533500   14.543000   24.046300
  H    -38.419300   13.568200   24.498200
  H    -38.703000   15.281800   24.840100
  C    -37.219000   14.933600   23.390200
  H    -37.399400   15.824000   22.770800
  H    -36.956200   14.253100   22.559300
  C    -36.028100   15.095300   24.397600
  H    -35.042100   15.165300   23.917900
  H    -35.909400   14.296600   25.047500
  H    -36.280000   15.980000   24.952700
  H    -43.178500   18.622000   25.645200
  H    -40.827700   12.675700   20.434600

 Total Charge           Charge          ....    0
 Multiplicity           Mult            ....    1
 Number of Electrons    NEL             ....  134
 Basis Dimension        Dim             ....  322

ORBITAL ENERGIES
----------------

  NO   OCC          E(Eh)            E(eV)
   0   2.0000     -88.965441     -2420.8727
   1   2.0000     -88.962491     -2420.7924
   2   2.0000     -10.328568      -281.0546
   3   2.0000     -10.324496      -280.9438
   4   2.0000     -10.316929      -280.7379
   5   2.0000     -10.313952      -280.6569
   6   2.0000     -10.308095      -280.4975
   7   2.0000     -10.303405      -280.3699
   8   2.0000     -10.301468      -280.3172
   9   2.0000     -10.300502      -280.2909
  10   2.0000     -10.292653      -280.0773
  11   2.0000     -10.291245      -280.0390
  12   2.0000     -10.288224      -279.9568
  13   2.0000     -10.287931      -279.9488
  14   2.0000     -10.277056      -279.6529
  15   2.0000     -10.276311      -279.6326
  16   2.0000      -8.080750      -219.8884
  17   2.0000      -8.077012      -219.7867
  18   2.0000      -6.039260      -164.3366
  19   2.0000      -6.035490      -164.2340
  20   2.0000      -6.035028      -164.2215
  21   2.0000      -6.031601      -164.1282
  22   2.0000      -6.031478      -164.1248
  23   2.0000      -6.027879      -164.0269
  24   2.0000      -1.009499       -27.4699
  25   2.0000      -0.984247       -26.7827
  26   2.0000      -0.911350       -24.7991
  27   2.0000      -0.902058       -24.5462
  28   2.0000      -0.872136       -23.7320
  29   2.0000      -0.851491       -23.1702
  30   2.0000      -0.844392       -22.9771
  31   2.0000      -0.815434       -22.1891
  32   2.0000      -0.781992       -21.2791
  33   2.0000      -0.772268       -21.0145
  34   2.0000      -0.709760       -19.3135
  35   2.0000      -0.704121       -19.1601
  36   2.0000      -0.698542       -19.0083
  37   2.0000      -0.659605       -17.9488
  38   2.0000      -0.639616       -17.4048
  39   2.0000      -0.617395       -16.8002
  40   2.0000      -0.602410       -16.3924
  41   2.0000      -0.566697       -15.4206
  42   2.0000      -0.560087       -15.2408
  43   2.0000      -0.556093       -15.1321
  44   2.0000      -0.529089       -14.3973
  45   2.0000      -0.524252       -14.2656
  46   2.0000      -0.521966       -14.2034
  47   2.0000      -0.512160       -13.9366
  48   2.0000      -0.507713       -13.8156
  49   2.0000      -0.504345       -13.7239
  50   2.0000      -0.493861       -13.4386
  51   2.0000      -0.481321       -13.0974
  52   2.0000      -0.474783       -12.9195
  53   2.0000      -0.470060       -12.7910
  54   2.0000      -0.458418       -12.4742
  55   2.0000      -0.447700       -12.1825
  56   2.0000      -0.443518       -12.0687
  57   2.0000      -0.436980       -11.8908
  58   2.0000      -0.430245       -11.7075
  59   2.0000      -0.421860       -11.4794
  60   2.0000      -0.417007       -11.3473
  61   2.0000      -0.415601       -11.3091
  62   2.0000      -0.411557       -11.1990
  63   2.0000      -0.351410        -9.5624
  64   2.0000      -0.329526        -8.9669
  65   2.0000      -0.327457        -8.9106
  66   2.0000      -0.288139        -7.8407
  67   0.0000       0.026177         0.7123
  68   0.0000       0.071903         1.9566
  69   0.0000       0.112034         3.0486
  70   0.0000       0.121261         3.2997
  71   0.0000       0.138503         3.7688

MULLIKEN ATOMIC CHARGES
-----------------------
   0 S :    0.118901
   1 C :   -0.107625
   2 C :   -0.112804
   3 C :   -0.000943
   4 C :   -0.127711
   5 H :    0.022562
   6 C :    0.034460
   7 H :    0.035564
   8 H :    0.028900
   9 C :   -0.091921
  10 H :    0.027416
  11 H :    0.046867
  12 C :   -0.020924
  13 H :    0.034583
  14 H :    0.017555
  15 H :    0.037617
  16 S :    0.088278
  17 C :   -0.065371
  18 C :   -0.063020
  19 C :   -0.020139
  20 C :   -0.153384
  21 H :    0.048678
  22 C :    0.074021
  23 H :    0.025374
  24 H :    0.029180
  25 C :   -0.107380
  26 H :    0.030153
  27 H :    0.016713
  28 C :   -0.008047
  29 H :    0.037549
  30 H :    0.013572
  31 H :    0.033187
  32 H :    0.046185
  33 H :    0.031951
Sum of atomic charges:    0.0000000

LOEWDIN ATOMIC CHARGES
----------------------
   0 S :    0.426058
   1 C :   -0.207254
   2 C :   -0.064082
   3 C :   -0.073993
   4 C :   -0.209475
   5 H :    0.035465
   6 C :   -0.031641
   7 H :    0.029852
   8 H :    0.028430
   9 C :   -0.038599
  10 H :    0.022266
  11 H :    0.030132
  12 C :   -0.065127
  13 H :    0.027355
  14 H :    0.019255
  15 H :    0.031486
  16 S :    0.390513
  17 C :   -0.161643
  18 C :   -0.077928
  19 C :   -0.052529
  20 C :   -0.192193
  21 H :    0.044620
  22 C :   -0.037349
  23 H :    0.034438
  24 H :    0.032676
  25 C :   -0.044351
  26 H :    0.026767
  27 H :    0.019091
  28 C :   -0.056307
  29 H :    0.032453
  30 H :    0.014984
  31 H :    0.026583
  32 H :    0.026946
  33 H :    0.013100

  Mayer bond orders larger than 0.100000
B(  0-S ,  1-C ) :   1.1490 B(  0-S ,  4-C ) :   1.1564 B(  1-C ,  2-C ) :   1.5819
B(  1-C , 32-H ) :   0.9711 B(  2-C ,  3-C ) :   1.2671 B(  2-C ,  6-C ) :   1.0158
B(  3-C ,  4-C ) :   1.5638 B(  3-C ,  5-H ) :   0.9900 B(  4-C , 20-C ) :   1.0508
B(  6-C ,  7-H ) :   0.9391 B(  6-C ,  8-H ) :   0.9536 B(  6-C ,  9-C ) :   1.0523
B(  9-C , 10-H ) :   0.9544 B(  9-C , 11-H ) :   0.9610 B(  9-C , 12-C ) :   1.0785
B( 12-C , 13-H ) :   0.9733 B( 12-C , 14-H ) :   0.9740 B( 12-C , 15-H ) :   0.9749
B( 16-S , 17-C ) :   1.1540 B( 16-S , 20-C ) :   1.1372 B( 17-C , 18-C ) :   1.6039
B( 17-C , 20-C ) :   0.1101 B( 17-C , 33-H ) :   0.9810 B( 18-C , 19-C ) :   1.2397
B( 18-C , 21-H ) :   0.9759 B( 19-C , 20-C ) :   1.5669 B( 19-C , 22-C ) :   1.0424
B( 22-C , 23-H ) :   0.9203 B( 22-C , 24-H ) :   0.9411 B( 22-C , 25-C ) :   1.0608
B( 25-C , 26-H ) :   0.9542 B( 25-C , 27-H ) :   0.9552 B( 25-C , 28-C ) :   1.0695
B( 28-C , 29-H ) :   0.9749 B( 28-C , 30-H ) :   0.9771 B( 28-C , 31-H ) :   0.9769

Dispersion correction           -0.013378415
FINAL SINGLE POINT ENERGY     -1339.874070152388

DIPOLE MOMENT
-------------
                                X             Y             Z
Electronic contribution:    -12.38083       0.18945     -23.45762
Nuclear contribution   :     12.82924      -0.35769      23.96703
                        -----------------------------------------
Total Dipole Moment    :      0.44841      -0.16824       0.50941
                        -----------------------------------------
Magnitude (a.u.)       :      0.69919
Magnitude (Debye)      :      1.77720

Rotational constants in cm-1:     0.018307     0.007474     0.006108
Rotational constants in MHz :   548.816640   224.078905   183.107346

                             ****ORCA TERMINATED NORMALLY****
TOTAL RUN TIME: 0 days 0 hours 0 minutes 20 seconds 722 msec
