                         Program Version 4.2.1 -  RELEASE  -
|  1> ! wB97X-D3 SP def2-SVP
|  2> %pal
|  3> nprocs 24
|  4> end
|  5>
|  6> * xyz 0 1
|  7> S 	 -105.715 	 59.6722 	 -6.11937
|  8> C 	 -104.837 	 61.1382 	 -6.38577
|  9> C 	 -105.565 	 62.2563 	 -6.2042
| 10> C 	 -106.947 	 61.8629 	 -6.13309
| 11> C 	 -107.225 	 60.474 	 -6.34665
| 12> H 	 -107.742 	 62.621 	 -5.99329
| 13> C 	 -105.139 	 63.6989 	 -6.12406
| 14> H 	 -104.078 	 63.6763 	 -6.03605
| 15> H 	 -105.515 	 64.1285 	 -5.18708
| 16> C 	 -105.603 	 64.6581 	 -7.24673
| 17> H 	 -105.484 	 64.3196 	 -8.28332
| 18> H 	 -106.707 	 64.7698 	 -7.07033
| 19> C 	 -105.049 	 66.1032 	 -7.19323
| 20> H 	 -105.617 	 66.7733 	 -7.71879
| 21> H 	 -105.042 	 66.3672 	 -6.11965
| 22> H 	 -104.008 	 66.1248 	 -7.58205
| 23> S 	 -108.362 	 58.1607 	 -7.5016
| 24> C 	 -110.111 	 57.9531 	 -7.30195
| 25> C 	 -110.748 	 59.087 	 -6.75381
| 26> C 	 -109.798 	 60.0542 	 -6.35034
| 27> C 	 -108.488 	 59.708 	 -6.59986
| 28> H 	 -111.806 	 59.0233 	 -6.71657
| 29> C 	 -110.262 	 61.37 	 -5.75237
| 30> H 	 -109.523 	 61.6261 	 -4.98144
| 31> H 	 -111.236 	 61.0039 	 -5.34392
| 32> C 	 -110.51 	 62.5198 	 -6.72902
| 33> H 	 -111.225 	 62.242 	 -7.46933
| 34> H 	 -109.668 	 62.9682 	 -7.24762
| 35> C 	 -111.144 	 63.7085 	 -5.91054
| 36> H 	 -110.453 	 64.1583 	 -5.25381
| 37> H 	 -112.05 	 63.3991 	 -5.26498
| 38> H 	 -111.459 	 64.4168 	 -6.63082
| 39> H 	 -103.747 	 61.13 	 -6.50367
| 40> H 	 -110.615 	 57.1359 	 -7.67475
| 41> *
| 42>
| 43>                          ****END OF INPUT****

CARTESIAN COORDINATES (ANGSTROEM)
---------------------------------
  S    -105.715000   59.672200   -6.119370
  C    -104.837000   61.138200   -6.385770
  C    -105.565000   62.256300   -6.204200
  C    -106.947000   61.862900   -6.133090
  C    -107.225000   60.474000   -6.346650
  H    -107.742000   62.621000   -5.993290
  C    -105.139000   63.698900   -6.124060
  H    -104.078000   63.676300   -6.036050
  H    -105.515000   64.128500   -5.187080
  C    -105.603000   64.658100   -7.246730
  H    -105.484000   64.319600   -8.283320
  H    -106.707000   64.769800   -7.070330
  C    -105.049000   66.103200   -7.193230
  H    -105.617000   66.773300   -7.718790
  H    -105.042000   66.367200   -6.119650
  H    -104.008000   66.124800   -7.582050
  S    -108.362000   58.160700   -7.501600
  C    -110.111000   57.953100   -7.301950
  C    -110.748000   59.087000   -6.753810
  C    -109.798000   60.054200   -6.350340
  C    -108.488000   59.708000   -6.599860
  H    -111.806000   59.023300   -6.716570
  C    -110.262000   61.370000   -5.752370
  H    -109.523000   61.626100   -4.981440
  H    -111.236000   61.003900   -5.343920
  C    -110.510000   62.519800   -6.729020
  H    -111.225000   62.242000   -7.469330
  H    -109.668000   62.968200   -7.247620
  C    -111.144000   63.708500   -5.910540
  H    -110.453000   64.158300   -5.253810
  H    -112.050000   63.399100   -5.264980
  H    -111.459000   64.416800   -6.630820
  H    -103.747000   61.130000   -6.503670
  H    -110.615000   57.135900   -7.674750

 Total Charge           Charge          ....    0
 Multiplicity           Mult            ....    1
 Number of Electrons    NEL             ....  134
 Basis Dimension        Dim             ....  322

ORBITAL ENERGIES
----------------

  NO   OCC          E(Eh)            E(eV)
   0   2.0000     -88.969110     -2420.9726
   1   2.0000     -88.962738     -2420.7992
   2   2.0000     -10.335840      -281.2525
   3   2.0000     -10.332282      -281.1557
   4   2.0000     -10.317721      -280.7595
   5   2.0000     -10.308567      -280.5104
   6   2.0000     -10.301681      -280.3230
   7   2.0000     -10.298635      -280.2401
   8   2.0000     -10.298264      -280.2300
   9   2.0000     -10.296755      -280.1889
  10   2.0000     -10.296401      -280.1793
  11   2.0000     -10.295935      -280.1666
  12   2.0000     -10.292974      -280.0861
  13   2.0000     -10.288743      -279.9709
  14   2.0000     -10.279085      -279.7081
  15   2.0000     -10.278324      -279.6874
  16   2.0000      -8.082584      -219.9383
  17   2.0000      -8.078514      -219.8275
  18   2.0000      -6.041052      -164.3854
  19   2.0000      -6.037411      -164.2863
  20   2.0000      -6.037016      -164.2756
  21   2.0000      -6.033309      -164.1747
  22   2.0000      -6.033129      -164.1698
  23   2.0000      -6.028970      -164.0566
  24   2.0000      -1.005524       -27.3617
  25   2.0000      -0.983988       -26.7757
  26   2.0000      -0.911949       -24.8154
  27   2.0000      -0.908310       -24.7164
  28   2.0000      -0.867590       -23.6083
  29   2.0000      -0.852828       -23.2066
  30   2.0000      -0.843789       -22.9607
  31   2.0000      -0.809510       -22.0279
  32   2.0000      -0.786342       -21.3974
  33   2.0000      -0.773544       -21.0492
  34   2.0000      -0.708652       -19.2834
  35   2.0000      -0.700695       -19.0669
  36   2.0000      -0.693112       -18.8605
  37   2.0000      -0.668199       -18.1826
  38   2.0000      -0.634361       -17.2618
  39   2.0000      -0.622964       -16.9517
  40   2.0000      -0.592898       -16.1336
  41   2.0000      -0.577268       -15.7083
  42   2.0000      -0.569425       -15.4948
  43   2.0000      -0.557247       -15.1635
  44   2.0000      -0.533214       -14.5095
  45   2.0000      -0.528684       -14.3862
  46   2.0000      -0.513691       -13.9783
  47   2.0000      -0.511459       -13.9175
  48   2.0000      -0.503131       -13.6909
  49   2.0000      -0.501244       -13.6396
  50   2.0000      -0.489083       -13.3086
  51   2.0000      -0.475795       -12.9470
  52   2.0000      -0.471858       -12.8399
  53   2.0000      -0.464222       -12.6321
  54   2.0000      -0.457246       -12.4423
  55   2.0000      -0.453997       -12.3539
  56   2.0000      -0.447865       -12.1870
  57   2.0000      -0.443573       -12.0702
  58   2.0000      -0.434109       -11.8127
  59   2.0000      -0.430927       -11.7261
  60   2.0000      -0.422742       -11.5034
  61   2.0000      -0.415375       -11.3029
  62   2.0000      -0.408670       -11.1205
  63   2.0000      -0.351742        -9.5714
  64   2.0000      -0.334690        -9.1074
  65   2.0000      -0.325597        -8.8599
  66   2.0000      -0.282215        -7.6795
  67   0.0000       0.017310         0.4710
  68   0.0000       0.077521         2.1095
  69   0.0000       0.097497         2.6530
  70   0.0000       0.110356         3.0029
  71   0.0000       0.125843         3.4244

MULLIKEN ATOMIC CHARGES
-----------------------
   0 S :    0.107140
   1 C :   -0.147799
   2 C :   -0.054242
   3 C :   -0.015202
   4 C :   -0.139486
   5 H :    0.004557
   6 C :    0.103115
   7 H :    0.006715
   8 H :    0.031797
   9 C :   -0.115503
  10 H :    0.040358
  11 H :    0.028894
  12 C :   -0.023316
  13 H :    0.022785
  14 H :    0.023447
  15 H :    0.038870
  16 S :    0.104004
  17 C :   -0.073309
  18 C :   -0.032938
  19 C :   -0.038581
  20 C :   -0.112783
  21 H :    0.011889
  22 C :    0.037677
  23 H :    0.040007
  24 H :    0.028098
  25 C :   -0.043936
  26 H :    0.020595
  27 H :    0.038707
  28 C :   -0.050627
  29 H :    0.020943
  30 H :    0.036655
  31 H :    0.028050
  32 H :    0.045180
  33 H :    0.028238
Sum of atomic charges:   -0.0000000

LOEWDIN ATOMIC CHARGES
----------------------
   0 S :    0.415851
   1 C :   -0.198823
   2 C :   -0.067211
   3 C :   -0.072809
   4 C :   -0.193867
   5 H :    0.024135
   6 C :   -0.027517
   7 H :    0.023473
   8 H :    0.038004
   9 C :   -0.043580
  10 H :    0.024932
  11 H :    0.025039
  12 C :   -0.057401
  13 H :    0.013769
  14 H :    0.026361
  15 H :    0.028911
  16 S :    0.382340
  17 C :   -0.157312
  18 C :   -0.066142
  19 C :   -0.057212
  20 C :   -0.187469
  21 H :    0.030224
  22 C :   -0.031719
  23 H :    0.032739
  24 H :    0.038288
  25 C :   -0.032207
  26 H :    0.022075
  27 H :    0.025339
  28 C :   -0.061114
  29 H :    0.014403
  30 H :    0.032067
  31 H :    0.019470
  32 H :    0.027266
  33 H :    0.009695

  Mayer bond orders larger than 0.100000
B(  0-S ,  1-C ) :   1.1417 B(  0-S ,  4-C ) :   1.1624 B(  1-C ,  2-C ) :   1.6129
B(  1-C , 32-H ) :   0.9618 B(  2-C ,  3-C ) :   1.2517 B(  2-C ,  6-C ) :   1.0342
B(  3-C ,  4-C ) :   1.5315 B(  3-C ,  5-H ) :   0.9857 B(  4-C , 20-C ) :   1.0644
B(  6-C ,  7-H ) :   0.9377 B(  6-C ,  8-H ) :   0.9289 B(  6-C ,  9-C ) :   1.0549
B(  9-C , 10-H ) :   0.9624 B(  9-C , 11-H ) :   0.9544 B(  9-C , 12-C ) :   1.0837
B( 12-C , 13-H ) :   0.9753 B( 12-C , 14-H ) :   0.9736 B( 12-C , 15-H ) :   0.9762
B( 16-S , 17-C ) :   1.1581 B( 16-S , 20-C ) :   1.1226 B( 17-C , 18-C ) :   1.6043
B( 17-C , 20-C ) :   0.1014 B( 17-C , 33-H ) :   0.9748 B( 18-C , 19-C ) :   1.2305
B( 18-C , 21-H ) :   0.9989 B( 19-C , 20-C ) :   1.6018 B( 19-C , 22-C ) :   1.0292
B( 22-C , 23-H ) :   0.9310 B( 22-C , 24-H ) :   0.9344 B( 22-C , 25-C ) :   1.0775
B( 25-C , 26-H ) :   0.9513 B( 25-C , 27-H ) :   0.9528 B( 25-C , 28-C ) :   1.0764
B( 28-C , 29-H ) :   0.9781 B( 28-C , 30-H ) :   0.9750 B( 28-C , 31-H ) :   0.9754

Dispersion correction           -0.013878748
FINAL SINGLE POINT ENERGY     -1339.858384168754

DIPOLE MOMENT
-------------
                                X             Y             Z
Electronic contribution:      6.04219     -32.87511      -1.35797
Nuclear contribution   :     -6.38137      33.52463       1.31400
                        -----------------------------------------
Total Dipole Moment    :     -0.33918       0.64952      -0.04397
                        -----------------------------------------
Magnitude (a.u.)       :      0.73407
Magnitude (Debye)      :      1.86585

Rotational constants in cm-1:     0.017349     0.009158     0.006389
Rotational constants in MHz :   520.110229   274.536089   191.526989

                             ****ORCA TERMINATED NORMALLY****
TOTAL RUN TIME: 0 days 0 hours 0 minutes 22 seconds 986 msec
