                         Program Version 4.2.1 -  RELEASE  -
|  1> ! wB97X-D3 SP def2-SVP
|  2> %pal
|  3> nprocs 24
|  4> end
|  5>
|  6> * xyz 0 1
|  7> S 	 -54.4392 	 3.34915 	 -19.7593
|  8> C 	 -56.0239 	 2.59608 	 -19.5115
|  9> C 	 -56.928 	 3.59138 	 -19.0755
| 10> C 	 -56.377 	 4.83612 	 -18.6955
| 11> C 	 -55.008 	 4.82794 	 -18.9724
| 12> H 	 -56.9765 	 5.62682 	 -18.2252
| 13> C 	 -58.416 	 3.2716 	 -18.9817
| 14> H 	 -58.462 	 2.34 	 -19.4349
| 15> H 	 -58.9439 	 3.92188 	 -19.6566
| 16> C 	 -59.0865 	 3.38016 	 -17.6026
| 17> H 	 -58.4708 	 2.87869 	 -16.8734
| 18> H 	 -58.9913 	 4.41022 	 -17.3496
| 19> C 	 -60.577 	 2.8818 	 -17.69
| 20> H 	 -61.1463 	 3.23376 	 -16.7819
| 21> H 	 -61.059 	 3.3688 	 -18.5094
| 22> H 	 -60.6193 	 1.819 	 -17.7696
| 23> S 	 -53.2889 	 5.76902 	 -17.0839
| 24> C 	 -52.8161 	 7.41814 	 -17.1044
| 25> C 	 -53.2876 	 8.04978 	 -18.2237
| 26> C 	 -54.1412 	 7.22906 	 -19.0182
| 27> C 	 -54.1427 	 5.89534 	 -18.6361
| 28> H 	 -52.9994 	 9.06706 	 -18.2871
| 29> C 	 -54.9 	 7.72383 	 -20.2678
| 30> H 	 -55.9256 	 7.28959 	 -19.9916
| 31> H 	 -54.5394 	 7.3045 	 -21.2266
| 32> C 	 -54.8512 	 9.25026 	 -20.6085
| 33> H 	 -53.8807 	 9.6459 	 -20.7146
| 34> H 	 -55.3117 	 9.74741 	 -19.6588
| 35> C 	 -55.7354 	 9.60606 	 -21.8074
| 36> H 	 -56.5862 	 8.88911 	 -22.0225
| 37> H 	 -55.1781 	 9.66105 	 -22.7873
| 38> H 	 -56.1639 	 10.5488 	 -21.6499
| 39> H 	 -56.338 	 1.62386 	 -19.8186
| 40> H 	 -52.502 	 7.99245 	 -16.249
| 41> *
| 42>
| 43>                          ****END OF INPUT****

CARTESIAN COORDINATES (ANGSTROEM)
---------------------------------
  S    -54.439200    3.349150  -19.759300
  C    -56.023900    2.596080  -19.511500
  C    -56.928000    3.591380  -19.075500
  C    -56.377000    4.836120  -18.695500
  C    -55.008000    4.827940  -18.972400
  H    -56.976500    5.626820  -18.225200
  C    -58.416000    3.271600  -18.981700
  H    -58.462000    2.340000  -19.434900
  H    -58.943900    3.921880  -19.656600
  C    -59.086500    3.380160  -17.602600
  H    -58.470800    2.878690  -16.873400
  H    -58.991300    4.410220  -17.349600
  C    -60.577000    2.881800  -17.690000
  H    -61.146300    3.233760  -16.781900
  H    -61.059000    3.368800  -18.509400
  H    -60.619300    1.819000  -17.769600
  S    -53.288900    5.769020  -17.083900
  C    -52.816100    7.418140  -17.104400
  C    -53.287600    8.049780  -18.223700
  C    -54.141200    7.229060  -19.018200
  C    -54.142700    5.895340  -18.636100
  H    -52.999400    9.067060  -18.287100
  C    -54.900000    7.723830  -20.267800
  H    -55.925600    7.289590  -19.991600
  H    -54.539400    7.304500  -21.226600
  C    -54.851200    9.250260  -20.608500
  H    -53.880700    9.645900  -20.714600
  H    -55.311700    9.747410  -19.658800
  C    -55.735400    9.606060  -21.807400
  H    -56.586200    8.889110  -22.022500
  H    -55.178100    9.661050  -22.787300
  H    -56.163900   10.548800  -21.649900
  H    -56.338000    1.623860  -19.818600
  H    -52.502000    7.992450  -16.249000

 Total Charge           Charge          ....    0
 Multiplicity           Mult            ....    1
 Number of Electrons    NEL             ....  134
 Basis Dimension        Dim             ....  322

ORBITAL ENERGIES
----------------

  NO   OCC          E(Eh)            E(eV)
   0   2.0000     -88.969914     -2420.9944
   1   2.0000     -88.960109     -2420.7276
   2   2.0000     -10.330751      -281.1140
   3   2.0000     -10.318834      -280.7897
   4   2.0000     -10.314851      -280.6814
   5   2.0000     -10.310564      -280.5647
   6   2.0000     -10.306840      -280.4634
   7   2.0000     -10.299674      -280.2684
   8   2.0000     -10.299488      -280.2633
   9   2.0000     -10.298061      -280.2245
  10   2.0000     -10.294122      -280.1173
  11   2.0000     -10.287537      -279.9381
  12   2.0000     -10.284983      -279.8686
  13   2.0000     -10.282768      -279.8083
  14   2.0000     -10.281905      -279.7849
  15   2.0000     -10.280035      -279.7340
  16   2.0000      -8.083596      -219.9658
  17   2.0000      -8.075344      -219.7413
  18   2.0000      -6.042096      -164.4138
  19   2.0000      -6.038278      -164.3099
  20   2.0000      -6.034406      -164.2045
  21   2.0000      -6.033720      -164.1859
  22   2.0000      -6.029697      -164.0764
  23   2.0000      -6.026270      -163.9831
  24   2.0000      -1.006514       -27.3886
  25   2.0000      -0.981146       -26.6983
  26   2.0000      -0.909978       -24.7618
  27   2.0000      -0.901619       -24.5343
  28   2.0000      -0.873014       -23.7559
  29   2.0000      -0.848984       -23.1020
  30   2.0000      -0.845616       -23.0104
  31   2.0000      -0.814940       -22.1756
  32   2.0000      -0.779751       -21.2181
  33   2.0000      -0.766610       -20.8605
  34   2.0000      -0.717444       -19.5227
  35   2.0000      -0.700410       -19.0591
  36   2.0000      -0.698059       -18.9951
  37   2.0000      -0.647928       -17.6310
  38   2.0000      -0.638437       -17.3728
  39   2.0000      -0.622297       -16.9336
  40   2.0000      -0.593778       -16.1575
  41   2.0000      -0.573466       -15.6048
  42   2.0000      -0.563811       -15.3421
  43   2.0000      -0.560730       -15.2582
  44   2.0000      -0.529427       -14.4064
  45   2.0000      -0.521563       -14.1924
  46   2.0000      -0.514508       -14.0005
  47   2.0000      -0.507689       -13.8149
  48   2.0000      -0.503813       -13.7095
  49   2.0000      -0.500387       -13.6162
  50   2.0000      -0.493247       -13.4219
  51   2.0000      -0.481481       -13.1018
  52   2.0000      -0.473986       -12.8978
  53   2.0000      -0.470092       -12.7919
  54   2.0000      -0.457599       -12.4519
  55   2.0000      -0.449317       -12.2265
  56   2.0000      -0.442109       -12.0304
  57   2.0000      -0.437002       -11.8914
  58   2.0000      -0.432769       -11.7763
  59   2.0000      -0.426615       -11.6088
  60   2.0000      -0.415886       -11.3168
  61   2.0000      -0.415693       -11.3116
  62   2.0000      -0.403703       -10.9853
  63   2.0000      -0.340080        -9.2541
  64   2.0000      -0.327457        -8.9106
  65   2.0000      -0.321904        -8.7594
  66   2.0000      -0.298507        -8.1228
  67   0.0000       0.035609         0.9690
  68   0.0000       0.050330         1.3696
  69   0.0000       0.108983         2.9656
  70   0.0000       0.129687         3.5290
  71   0.0000       0.132271         3.5993

MULLIKEN ATOMIC CHARGES
-----------------------
   0 S :    0.122343
   1 C :   -0.110247
   2 C :   -0.126147
   3 C :    0.037118
   4 C :   -0.175449
   5 H :    0.037065
   6 C :    0.101624
   7 H :   -0.019216
   8 H :    0.019329
   9 C :   -0.061536
  10 H :    0.029313
  11 H :    0.014893
  12 C :   -0.036614
  13 H :    0.041040
  14 H :    0.024791
  15 H :    0.039976
  16 S :    0.102958
  17 C :   -0.086068
  18 C :   -0.047362
  19 C :   -0.025438
  20 C :   -0.141065
  21 H :    0.007204
  22 C :    0.027857
  23 H :    0.044249
  24 H :    0.049687
  25 C :   -0.101923
  26 H :    0.036339
  27 H :    0.034381
  28 C :   -0.045135
  29 H :    0.039450
  30 H :    0.039948
  31 H :    0.025144
  32 H :    0.040703
  33 H :    0.060788
Sum of atomic charges:   -0.0000000

LOEWDIN ATOMIC CHARGES
----------------------
   0 S :    0.401673
   1 C :   -0.199932
   2 C :   -0.054828
   3 C :   -0.059055
   4 C :   -0.189071
   5 H :    0.040351
   6 C :   -0.029550
   7 H :    0.014771
   8 H :    0.027828
   9 C :   -0.033607
  10 H :    0.022720
  11 H :    0.016862
  12 C :   -0.058192
  13 H :    0.033659
  14 H :    0.021627
  15 H :    0.023652
  16 S :    0.414098
  17 C :   -0.192962
  18 C :   -0.080926
  19 C :   -0.048795
  20 C :   -0.208443
  21 H :    0.027071
  22 C :   -0.040162
  23 H :    0.043256
  24 H :    0.035253
  25 C :   -0.045774
  26 H :    0.018921
  27 H :    0.029811
  28 C :   -0.070699
  29 H :    0.033631
  30 H :    0.031374
  31 H :    0.019691
  32 H :    0.022802
  33 H :    0.032943

  Mayer bond orders larger than 0.100000
B(  0-S ,  1-C ) :   1.1249 B(  0-S ,  4-C ) :   1.1631 B(  1-C ,  2-C ) :   1.5973
B(  1-C ,  4-C ) :   0.1014 B(  1-C , 32-H ) :   0.9690 B(  2-C ,  3-C ) :   1.2575
B(  2-C ,  6-C ) :   1.0310 B(  3-C ,  4-C ) :   1.5456 B(  3-C ,  5-H ) :   0.9862
B(  4-C , 20-C ) :   1.0397 B(  6-C ,  7-H ) :   0.9353 B(  6-C ,  8-H ) :   0.9311
B(  6-C ,  9-C ) :   1.0512 B(  9-C , 10-H ) :   0.9612 B(  9-C , 11-H ) :   0.9546
B(  9-C , 12-C ) :   1.0730 B( 12-C , 13-H ) :   0.9759 B( 12-C , 14-H ) :   0.9747
B( 12-C , 15-H ) :   0.9798 B( 16-S , 17-C ) :   1.1845 B( 16-S , 20-C ) :   1.1334
B( 17-C , 18-C ) :   1.5978 B( 17-C , 33-H ) :   0.9585 B( 18-C , 19-C ) :   1.2431
B( 18-C , 21-H ) :   0.9984 B( 19-C , 20-C ) :   1.5912 B( 19-C , 22-C ) :   1.0116
B( 22-C , 23-H ) :   0.9295 B( 22-C , 24-H ) :   0.9464 B( 22-C , 25-C ) :   1.0716
B( 25-C , 26-H ) :   0.9533 B( 25-C , 27-H ) :   0.9596 B( 25-C , 28-C ) :   1.0696
B( 28-C , 29-H ) :   0.9767 B( 28-C , 30-H ) :   0.9739 B( 28-C , 31-H ) :   0.9747

Dispersion correction           -0.013590093
FINAL SINGLE POINT ENERGY     -1339.853321756495

DIPOLE MOMENT
-------------
                                X             Y             Z
Electronic contribution:     24.06839      -9.78932       6.65036
Nuclear contribution   :    -24.71651      10.26284      -6.72618
                        -----------------------------------------
Total Dipole Moment    :     -0.64812       0.47352      -0.07582
                        -----------------------------------------
Magnitude (a.u.)       :      0.80624
Magnitude (Debye)      :      2.04930

Rotational constants in cm-1:     0.016635     0.007761     0.006633
Rotational constants in MHz :   498.703108   232.667580   198.842106

                             ****ORCA TERMINATED NORMALLY****
TOTAL RUN TIME: 0 days 0 hours 0 minutes 19 seconds 951 msec
