                         Program Version 4.2.1 -  RELEASE  -
|  1> ! wB97X-D3 SP def2-SVP
|  2> %pal
|  3> nprocs 24
|  4> end
|  5>
|  6> * xyz 0 1
|  7> S 	 -54.9593 	 12.9146 	 -94.654
|  8> C 	 -54.5263 	 11.4907 	 -93.7599
|  9> C 	 -54.6261 	 11.7617 	 -92.3329
| 10> C 	 -54.9677 	 13.154 	 -92.0897
| 11> C 	 -55.1564 	 13.8748 	 -93.2325
| 12> H 	 -55.1776 	 13.6338 	 -91.1805
| 13> C 	 -54.4993 	 10.7543 	 -91.2465
| 14> H 	 -55.0701 	 9.84815 	 -91.5339
| 15> H 	 -55.0149 	 11.0725 	 -90.3321
| 16> C 	 -53.026 	 10.4071 	 -90.9778
| 17> H 	 -52.8433 	 9.83483 	 -91.8344
| 18> H 	 -52.4266 	 11.3327 	 -91.1028
| 19> C 	 -52.7588 	 9.61008 	 -89.6532
| 20> H 	 -53.344 	 8.65988 	 -89.6403
| 21> H 	 -51.7056 	 9.40525 	 -89.6885
| 22> H 	 -53.1129 	 10.0717 	 -88.6795
| 23> S 	 -57.6938 	 14.8817 	 -92.7855
| 24> C 	 -57.9832 	 16.5415 	 -93.0209
| 25> C 	 -56.8259 	 17.2709 	 -93.2756
| 26> C 	 -55.6406 	 16.433 	 -93.4798
| 27> C 	 -55.9912 	 15.0989 	 -93.2537
| 28> H 	 -56.8282 	 18.3422 	 -93.3138
| 29> C 	 -54.1783 	 16.883 	 -93.5272
| 30> H 	 -53.7326 	 16.2474 	 -92.7808
| 31> H 	 -54.0593 	 17.868 	 -93.0708
| 32> C 	 -53.5028 	 16.8909 	 -94.904
| 33> H 	 -54.0781 	 17.5966 	 -95.5447
| 34> H 	 -53.5297 	 15.866 	 -95.3907
| 35> C 	 -52.0023 	 17.0959 	 -94.7214
| 36> H 	 -51.6226 	 16.4975 	 -93.8836
| 37> H 	 -51.8247 	 18.2092 	 -94.6604
| 38> H 	 -51.5976 	 16.7622 	 -95.6826
| 39> H 	 -54.4953 	 10.4597 	 -94.1575
| 40> H 	 -58.8828 	 17.1617 	 -92.9403
| 41> *
| 42>
| 43>                          ****END OF INPUT****

CARTESIAN COORDINATES (ANGSTROEM)
---------------------------------
  S    -54.959300   12.914600  -94.654000
  C    -54.526300   11.490700  -93.759900
  C    -54.626100   11.761700  -92.332900
  C    -54.967700   13.154000  -92.089700
  C    -55.156400   13.874800  -93.232500
  H    -55.177600   13.633800  -91.180500
  C    -54.499300   10.754300  -91.246500
  H    -55.070100    9.848150  -91.533900
  H    -55.014900   11.072500  -90.332100
  C    -53.026000   10.407100  -90.977800
  H    -52.843300    9.834830  -91.834400
  H    -52.426600   11.332700  -91.102800
  C    -52.758800    9.610080  -89.653200
  H    -53.344000    8.659880  -89.640300
  H    -51.705600    9.405250  -89.688500
  H    -53.112900   10.071700  -88.679500
  S    -57.693800   14.881700  -92.785500
  C    -57.983200   16.541500  -93.020900
  C    -56.825900   17.270900  -93.275600
  C    -55.640600   16.433000  -93.479800
  C    -55.991200   15.098900  -93.253700
  H    -56.828200   18.342200  -93.313800
  C    -54.178300   16.883000  -93.527200
  H    -53.732600   16.247400  -92.780800
  H    -54.059300   17.868000  -93.070800
  C    -53.502800   16.890900  -94.904000
  H    -54.078100   17.596600  -95.544700
  H    -53.529700   15.866000  -95.390700
  C    -52.002300   17.095900  -94.721400
  H    -51.622600   16.497500  -93.883600
  H    -51.824700   18.209200  -94.660400
  H    -51.597600   16.762200  -95.682600
  H    -54.495300   10.459700  -94.157500
  H    -58.882800   17.161700  -92.940300

 Total Charge           Charge          ....    0
 Multiplicity           Mult            ....    1
 Number of Electrons    NEL             ....  134
 Basis Dimension        Dim             ....  322

ORBITAL ENERGIES
----------------

  NO   OCC          E(Eh)            E(eV)
   0   2.0000     -88.968606     -2420.9588
   1   2.0000     -88.967939     -2420.9407
   2   2.0000     -10.325169      -280.9621
   3   2.0000     -10.322515      -280.8899
   4   2.0000     -10.322119      -280.8791
   5   2.0000     -10.313519      -280.6451
   6   2.0000     -10.310080      -280.5516
   7   2.0000     -10.304547      -280.4010
   8   2.0000     -10.292346      -280.0690
   9   2.0000     -10.291572      -280.0479
  10   2.0000     -10.290164      -280.0096
  11   2.0000     -10.288427      -279.9623
  12   2.0000     -10.288057      -279.9523
  13   2.0000     -10.287844      -279.9465
  14   2.0000     -10.285837      -279.8919
  15   2.0000     -10.279978      -279.7324
  16   2.0000      -8.083359      -219.9594
  17   2.0000      -8.082651      -219.9401
  18   2.0000      -6.041789      -164.4054
  19   2.0000      -6.041151      -164.3881
  20   2.0000      -6.037675      -164.2935
  21   2.0000      -6.037215      -164.2810
  22   2.0000      -6.034369      -164.2035
  23   2.0000      -6.033368      -164.1763
  24   2.0000      -1.004275       -27.3277
  25   2.0000      -0.979938       -26.6655
  26   2.0000      -0.911933       -24.8150
  27   2.0000      -0.907315       -24.6893
  28   2.0000      -0.863240       -23.4900
  29   2.0000      -0.850056       -23.1312
  30   2.0000      -0.846314       -23.0294
  31   2.0000      -0.810450       -22.0535
  32   2.0000      -0.780222       -21.2309
  33   2.0000      -0.764345       -20.7989
  34   2.0000      -0.703856       -19.1529
  35   2.0000      -0.693635       -18.8748
  36   2.0000      -0.684804       -18.6345
  37   2.0000      -0.656763       -17.8714
  38   2.0000      -0.645959       -17.5774
  39   2.0000      -0.613287       -16.6884
  40   2.0000      -0.590453       -16.0670
  41   2.0000      -0.567505       -15.4426
  42   2.0000      -0.562408       -15.3039
  43   2.0000      -0.554404       -15.0861
  44   2.0000      -0.529337       -14.4040
  45   2.0000      -0.527798       -14.3621
  46   2.0000      -0.516947       -14.0668
  47   2.0000      -0.509027       -13.8513
  48   2.0000      -0.497571       -13.5396
  49   2.0000      -0.495451       -13.4819
  50   2.0000      -0.488894       -13.3035
  51   2.0000      -0.476872       -12.9763
  52   2.0000      -0.470868       -12.8130
  53   2.0000      -0.465270       -12.6606
  54   2.0000      -0.451905       -12.2970
  55   2.0000      -0.448582       -12.2065
  56   2.0000      -0.442959       -12.0535
  57   2.0000      -0.439623       -11.9628
  58   2.0000      -0.436861       -11.8876
  59   2.0000      -0.423336       -11.5196
  60   2.0000      -0.416333       -11.3290
  61   2.0000      -0.412627       -11.2282
  62   2.0000      -0.405858       -11.0440
  63   2.0000      -0.336817        -9.1653
  64   2.0000      -0.326882        -8.8949
  65   2.0000      -0.322465        -8.7747
  66   2.0000      -0.300757        -8.1840
  67   0.0000       0.039440         1.0732
  68   0.0000       0.052397         1.4258
  69   0.0000       0.099348         2.7034
  70   0.0000       0.122189         3.3249
  71   0.0000       0.137020         3.7285

MULLIKEN ATOMIC CHARGES
-----------------------
   0 S :    0.129489
   1 C :   -0.125394
   2 C :   -0.129900
   3 C :    0.039800
   4 C :   -0.132117
   5 H :   -0.001357
   6 C :    0.049668
   7 H :    0.030359
   8 H :    0.018871
   9 C :   -0.071588
  10 H :    0.012849
  11 H :    0.043129
  12 C :   -0.051640
  13 H :    0.030183
  14 H :    0.044636
  15 H :    0.045602
  16 S :    0.139390
  17 C :   -0.080863
  18 C :   -0.053410
  19 C :   -0.002470
  20 C :   -0.209170
  21 H :    0.009000
  22 C :    0.044477
  23 H :    0.026698
  24 H :    0.016953
  25 C :   -0.107240
  26 H :    0.041557
  27 H :    0.032943
  28 C :   -0.037484
  29 H :    0.047524
  30 H :    0.038721
  31 H :    0.034252
  32 H :    0.069060
  33 H :    0.057470
Sum of atomic charges:   -0.0000000

LOEWDIN ATOMIC CHARGES
----------------------
   0 S :    0.436633
   1 C :   -0.220749
   2 C :   -0.052270
   3 C :   -0.057029
   4 C :   -0.216052
   5 H :    0.024812
   6 C :   -0.041885
   7 H :    0.032275
   8 H :    0.026234
   9 C :   -0.037453
  10 H :    0.017649
  11 H :    0.029473
  12 C :   -0.071801
  13 H :    0.029165
  14 H :    0.026943
  15 H :    0.032612
  16 S :    0.422326
  17 C :   -0.211827
  18 C :   -0.073199
  19 C :   -0.049076
  20 C :   -0.196527
  21 H :    0.024190
  22 C :   -0.035987
  23 H :    0.029710
  24 H :    0.030026
  25 C :   -0.047518
  26 H :    0.028569
  27 H :    0.025479
  28 C :   -0.066596
  29 H :    0.031140
  30 H :    0.029390
  31 H :    0.027350
  32 H :    0.036134
  33 H :    0.037860

  Mayer bond orders larger than 0.100000
B(  0-S ,  1-C ) :   1.1633 B(  0-S ,  4-C ) :   1.1718 B(  1-C ,  2-C ) :   1.5578
B(  1-C , 32-H ) :   0.9647 B(  2-C ,  3-C ) :   1.2459 B(  2-C ,  6-C ) :   1.0432
B(  3-C ,  4-C ) :   1.5601 B(  3-C ,  5-H ) :   1.0096 B(  4-C , 20-C ) :   1.0030
B(  6-C ,  7-H ) :   0.9395 B(  6-C ,  8-H ) :   0.9474 B(  6-C ,  9-C ) :   1.0336
B(  9-C , 10-H ) :   0.9564 B(  9-C , 11-H ) :   0.9622 B(  9-C , 12-C ) :   1.0707
B( 12-C , 13-H ) :   0.9716 B( 12-C , 14-H ) :   0.9757 B( 12-C , 15-H ) :   0.9771
B( 16-S , 17-C ) :   1.1532 B( 16-S , 20-C ) :   1.1393 B( 17-C , 18-C ) :   1.6265
B( 17-C , 33-H ) :   0.9608 B( 18-C , 19-C ) :   1.2356 B( 18-C , 21-H ) :   0.9877
B( 19-C , 20-C ) :   1.6074 B( 19-C , 22-C ) :   1.0216 B( 22-C , 23-H ) :   0.9372
B( 22-C , 24-H ) :   0.9425 B( 22-C , 25-C ) :   1.0550 B( 25-C , 26-H ) :   0.9558
B( 25-C , 27-H ) :   0.9604 B( 25-C , 28-C ) :   1.0657 B( 28-C , 29-H ) :   0.9728
B( 28-C , 30-H ) :   0.9748 B( 28-C , 31-H ) :   0.9789

Dispersion correction           -0.014036279
FINAL SINGLE POINT ENERGY     -1339.860865340035

DIPOLE MOMENT
-------------
                                X             Y             Z
Electronic contribution:    -20.16466       3.26146      -8.22656
Nuclear contribution   :     20.28803      -3.30281       8.57587
                        -----------------------------------------
Total Dipole Moment    :      0.12337      -0.04136       0.34931
                        -----------------------------------------
Magnitude (a.u.)       :      0.37276
Magnitude (Debye)      :      0.94747

Rotational constants in cm-1:     0.018651     0.007887     0.006605
Rotational constants in MHz :   559.143130   236.432357   198.024699

                             ****ORCA TERMINATED NORMALLY****
TOTAL RUN TIME: 0 days 0 hours 0 minutes 21 seconds 100 msec
