                         Program Version 4.2.1 -  RELEASE  -
|  1> ! wB97X-D3 SP def2-SVP
|  2> %pal
|  3> nprocs 24
|  4> end
|  5>
|  6> * xyz 0 1
|  7> S 	 -122.5 	 59.5704 	 -36.948
|  8> C 	 -123.968 	 60.5807 	 -36.9156
|  9> C 	 -123.753 	 61.8061 	 -36.3388
| 10> C 	 -122.351 	 61.9319 	 -35.9841
| 11> C 	 -121.581 	 60.8373 	 -36.1556
| 12> H 	 -121.898 	 62.83 	 -35.6498
| 13> C 	 -124.749 	 62.9216 	 -36.3903
| 14> H 	 -124.976 	 63.1657 	 -35.3422
| 15> H 	 -125.657 	 62.4587 	 -36.7874
| 16> C 	 -124.376 	 64.1042 	 -37.3371
| 17> H 	 -125.24 	 64.676 	 -37.3766
| 18> H 	 -123.614 	 64.7304 	 -36.842
| 19> C 	 -123.907 	 63.6794 	 -38.7069
| 20> H 	 -122.841 	 63.3494 	 -38.6241
| 21> H 	 -124.563 	 62.8857 	 -38.9857
| 22> H 	 -123.995 	 64.5581 	 -39.4188
| 23> S 	 -119.243 	 60.4899 	 -37.4958
| 24> C 	 -117.779 	 61.0985 	 -36.8476
| 25> C 	 -117.877 	 61.1292 	 -35.477
| 26> C 	 -119.224 	 61.0344 	 -35.0035
| 27> C 	 -120.109 	 60.7938 	 -36.018
| 28> H 	 -116.999 	 61.2706 	 -34.8764
| 29> C 	 -119.638 	 61.3065 	 -33.5687
| 30> H 	 -120.527 	 60.728 	 -33.3812
| 31> H 	 -119.923 	 62.3779 	 -33.3959
| 32> C 	 -118.522 	 60.9166 	 -32.6216
| 33> H 	 -117.563 	 61.4265 	 -32.85
| 34> H 	 -118.175 	 59.8863 	 -32.7743
| 35> C 	 -118.851 	 61.1932 	 -31.1198
| 36> H 	 -117.993 	 60.9465 	 -30.4423
| 37> H 	 -119.715 	 60.511 	 -30.8285
| 38> H 	 -119.023 	 62.257 	 -30.9687
| 39> H 	 -124.939 	 60.3028 	 -37.1919
| 40> H 	 -116.89 	 61.2485 	 -37.3951
| 41> *
| 42>
| 43>                          ****END OF INPUT****

CARTESIAN COORDINATES (ANGSTROEM)
---------------------------------
  S    -122.500000   59.570400  -36.948000
  C    -123.968000   60.580700  -36.915600
  C    -123.753000   61.806100  -36.338800
  C    -122.351000   61.931900  -35.984100
  C    -121.581000   60.837300  -36.155600
  H    -121.898000   62.830000  -35.649800
  C    -124.749000   62.921600  -36.390300
  H    -124.976000   63.165700  -35.342200
  H    -125.657000   62.458700  -36.787400
  C    -124.376000   64.104200  -37.337100
  H    -125.240000   64.676000  -37.376600
  H    -123.614000   64.730400  -36.842000
  C    -123.907000   63.679400  -38.706900
  H    -122.841000   63.349400  -38.624100
  H    -124.563000   62.885700  -38.985700
  H    -123.995000   64.558100  -39.418800
  S    -119.243000   60.489900  -37.495800
  C    -117.779000   61.098500  -36.847600
  C    -117.877000   61.129200  -35.477000
  C    -119.224000   61.034400  -35.003500
  C    -120.109000   60.793800  -36.018000
  H    -116.999000   61.270600  -34.876400
  C    -119.638000   61.306500  -33.568700
  H    -120.527000   60.728000  -33.381200
  H    -119.923000   62.377900  -33.395900
  C    -118.522000   60.916600  -32.621600
  H    -117.563000   61.426500  -32.850000
  H    -118.175000   59.886300  -32.774300
  C    -118.851000   61.193200  -31.119800
  H    -117.993000   60.946500  -30.442300
  H    -119.715000   60.511000  -30.828500
  H    -119.023000   62.257000  -30.968700
  H    -124.939000   60.302800  -37.191900
  H    -116.890000   61.248500  -37.395100

 Total Charge           Charge          ....    0
 Multiplicity           Mult            ....    1
 Number of Electrons    NEL             ....  134
 Basis Dimension        Dim             ....  322

ORBITAL ENERGIES
----------------

  NO   OCC          E(Eh)            E(eV)
   0   2.0000     -88.964490     -2420.8469
   1   2.0000     -88.959336     -2420.7066
   2   2.0000     -10.328702      -281.0583
   3   2.0000     -10.322843      -280.8988
   4   2.0000     -10.312401      -280.6147
   5   2.0000     -10.310534      -280.5639
   6   2.0000     -10.301631      -280.3216
   7   2.0000     -10.297945      -280.2213
   8   2.0000     -10.294248      -280.1207
   9   2.0000     -10.292823      -280.0819
  10   2.0000     -10.291523      -280.0466
  11   2.0000     -10.288476      -279.9637
  12   2.0000     -10.288060      -279.9524
  13   2.0000     -10.287214      -279.9293
  14   2.0000     -10.282793      -279.8090
  15   2.0000     -10.279002      -279.7059
  16   2.0000      -8.078733      -219.8335
  17   2.0000      -8.075516      -219.7460
  18   2.0000      -6.037447      -164.2873
  19   2.0000      -6.033940      -164.1919
  20   2.0000      -6.033407      -164.1774
  21   2.0000      -6.029887      -164.0816
  22   2.0000      -6.029213      -164.0632
  23   2.0000      -6.026193      -163.9811
  24   2.0000      -1.011302       -27.5189
  25   2.0000      -0.987091       -26.8601
  26   2.0000      -0.915331       -24.9074
  27   2.0000      -0.910129       -24.7659
  28   2.0000      -0.870754       -23.6944
  29   2.0000      -0.847740       -23.0682
  30   2.0000      -0.840896       -22.8819
  31   2.0000      -0.819896       -22.3105
  32   2.0000      -0.780728       -21.2447
  33   2.0000      -0.772767       -21.0281
  34   2.0000      -0.707203       -19.2440
  35   2.0000      -0.704189       -19.1620
  36   2.0000      -0.694255       -18.8917
  37   2.0000      -0.653436       -17.7809
  38   2.0000      -0.641367       -17.4525
  39   2.0000      -0.621555       -16.9134
  40   2.0000      -0.602286       -16.3890
  41   2.0000      -0.567039       -15.4299
  42   2.0000      -0.564035       -15.3482
  43   2.0000      -0.557992       -15.1837
  44   2.0000      -0.545159       -14.8345
  45   2.0000      -0.527874       -14.3642
  46   2.0000      -0.517242       -14.0749
  47   2.0000      -0.512297       -13.9403
  48   2.0000      -0.502883       -13.6841
  49   2.0000      -0.500976       -13.6323
  50   2.0000      -0.485257       -13.2045
  51   2.0000      -0.474284       -12.9059
  52   2.0000      -0.468482       -12.7480
  53   2.0000      -0.464198       -12.6315
  54   2.0000      -0.463224       -12.6050
  55   2.0000      -0.452219       -12.3055
  56   2.0000      -0.444422       -12.0933
  57   2.0000      -0.438525       -11.9329
  58   2.0000      -0.434710       -11.8291
  59   2.0000      -0.420504       -11.4425
  60   2.0000      -0.419124       -11.4049
  61   2.0000      -0.416064       -11.3217
  62   2.0000      -0.410554       -11.1718
  63   2.0000      -0.347215        -9.4482
  64   2.0000      -0.328258        -8.9324
  65   2.0000      -0.326400        -8.8818
  66   2.0000      -0.297114        -8.0849
  67   0.0000       0.038197         1.0394
  68   0.0000       0.062876         1.7109
  69   0.0000       0.113147         3.0789
  70   0.0000       0.124841         3.3971
  71   0.0000       0.136930         3.7260

MULLIKEN ATOMIC CHARGES
-----------------------
   0 S :    0.095263
   1 C :   -0.094292
   2 C :   -0.113198
   3 C :    0.031903
   4 C :   -0.135939
   5 H :   -0.004962
   6 C :    0.067522
   7 H :    0.039717
   8 H :    0.007184
   9 C :   -0.062910
  10 H :    0.017571
  11 H :    0.029442
  12 C :   -0.040143
  13 H :    0.056843
  14 H :    0.022254
  15 H :    0.047256
  16 S :    0.104936
  17 C :   -0.072374
  18 C :   -0.044618
  19 C :   -0.043309
  20 C :   -0.156954
  21 H :    0.013198
  22 C :    0.116916
  23 H :    0.028793
  24 H :    0.043335
  25 C :   -0.146370
  26 H :    0.028834
  27 H :    0.029891
  28 C :   -0.052698
  29 H :    0.038249
  30 H :    0.046751
  31 H :    0.035807
  32 H :    0.022702
  33 H :    0.043402
Sum of atomic charges:   -0.0000000

LOEWDIN ATOMIC CHARGES
----------------------
   0 S :    0.378257
   1 C :   -0.176831
   2 C :   -0.063405
   3 C :   -0.059738
   4 C :   -0.189711
   5 H :    0.023709
   6 C :   -0.031281
   7 H :    0.035235
   8 H :    0.026953
   9 C :   -0.036870
  10 H :    0.015382
  11 H :    0.023021
  12 C :   -0.062794
  13 H :    0.037385
  14 H :    0.020314
  15 H :    0.035445
  16 S :    0.418862
  17 C :   -0.180785
  18 C :   -0.072092
  19 C :   -0.058688
  20 C :   -0.198519
  21 H :    0.026885
  22 C :   -0.028819
  23 H :    0.031698
  24 H :    0.037741
  25 C :   -0.052644
  26 H :    0.022034
  27 H :    0.025307
  28 C :   -0.070879
  29 H :    0.030008
  30 H :    0.033096
  31 H :    0.023491
  32 H :    0.015761
  33 H :    0.022471

  Mayer bond orders larger than 0.100000
B(  0-S ,  1-C ) :   1.1179 B(  0-S ,  4-C ) :   1.1247 B(  1-C ,  2-C ) :   1.6513
B(  1-C , 32-H ) :   0.9636 B(  2-C ,  3-C ) :   1.1958 B(  2-C ,  6-C ) :   1.0362
B(  3-C ,  4-C ) :   1.6348 B(  3-C ,  5-H ) :   0.9975 B(  4-C , 20-C ) :   1.0045
B(  6-C ,  7-H ) :   0.9336 B(  6-C ,  8-H ) :   0.9371 B(  6-C ,  9-C ) :   1.0613
B(  9-C , 10-H ) :   0.9564 B(  9-C , 11-H ) :   0.9537 B(  9-C , 12-C ) :   1.0795
B( 12-C , 13-H ) :   0.9675 B( 12-C , 14-H ) :   0.9765 B( 12-C , 15-H ) :   0.9721
B( 16-S , 17-C ) :   1.1709 B( 16-S , 20-C ) :   1.1434 B( 17-C , 18-C ) :   1.5932
B( 17-C , 33-H ) :   0.9739 B( 18-C , 19-C ) :   1.2257 B( 18-C , 21-H ) :   0.9963
B( 19-C , 20-C ) :   1.6245 B( 19-C , 22-C ) :   1.0366 B( 22-C , 23-H ) :   0.9301
B( 22-C , 24-H ) :   0.9299 B( 22-C , 25-C ) :   1.0651 B( 25-C , 26-H ) :   0.9453
B( 25-C , 27-H ) :   0.9588 B( 25-C , 28-C ) :   1.0825 B( 28-C , 29-H ) :   0.9742
B( 28-C , 30-H ) :   0.9751 B( 28-C , 31-H ) :   0.9744

Dispersion correction           -0.014299327
FINAL SINGLE POINT ENERGY     -1339.877919698305

DIPOLE MOMENT
-------------
                                X             Y             Z
Electronic contribution:      4.07410     -14.91551     -13.52045
Nuclear contribution   :     -4.07865      15.51081      13.82668
                        -----------------------------------------
Total Dipole Moment    :     -0.00455       0.59530       0.30623
                        -----------------------------------------
Magnitude (a.u.)       :      0.66946
Magnitude (Debye)      :      1.70164

Rotational constants in cm-1:     0.019408     0.007998     0.006979
Rotational constants in MHz :   581.844323   239.773067   209.222812

                             ****ORCA TERMINATED NORMALLY****
TOTAL RUN TIME: 0 days 0 hours 0 minutes 21 seconds 492 msec
