                         Program Version 4.2.1 -  RELEASE  -
|  1> ! wB97X-D3 SP def2-SVP
|  2> %pal
|  3> nprocs 24
|  4> end
|  5>
|  6> * xyz 0 1
|  7> S 	 -56.8197 	 8.06613 	 23.7259
|  8> C 	 -56.1685 	 7.82879 	 22.108
|  9> C 	 -56.8759 	 6.949 	 21.3437
| 10> C 	 -57.9477 	 6.41084 	 22.116
| 11> C 	 -58.023 	 6.88654 	 23.4052
| 12> H 	 -58.5631 	 5.67097 	 21.7662
| 13> C 	 -56.6989 	 6.64187 	 19.817
| 14> H 	 -55.8657 	 7.19742 	 19.4125
| 15> H 	 -57.5219 	 7.10035 	 19.3267
| 16> C 	 -56.5949 	 5.17557 	 19.3713
| 17> H 	 -55.5455 	 4.933 	 19.6194
| 18> H 	 -57.0978 	 4.46395 	 20.089
| 19> C 	 -56.7504 	 4.79482 	 17.9424
| 20> H 	 -57.7892 	 4.87047 	 17.6006
| 21> H 	 -56.2575 	 5.50392 	 17.3427
| 22> H 	 -56.4295 	 3.77929 	 17.632
| 23> S 	 -60.1279 	 7.50187 	 25.0977
| 24> C 	 -60.8367 	 6.30331 	 26.1405
| 25> C 	 -60.1239 	 5.10372 	 25.9809
| 26> C 	 -59.1338 	 5.10058 	 24.9174
| 27> C 	 -58.8663 	 6.3596 	 24.4787
| 28> H 	 -60.4432 	 4.22249 	 26.4932
| 29> C 	 -58.3252 	 3.84105 	 24.5744
| 30> H 	 -58.1069 	 3.17688 	 25.4218
| 31> H 	 -57.3962 	 4.177 	 24.2631
| 32> C 	 -58.8216 	 2.9945 	 23.3994
| 33> H 	 -57.9321 	 2.39897 	 23.1708
| 34> H 	 -59.1285 	 3.63195 	 22.588
| 35> C 	 -60.0268 	 2.07847 	 23.6578
| 36> H 	 -60 	 1.24366 	 24.4126
| 37> H 	 -60.4564 	 1.64777 	 22.7648
| 38> H 	 -60.8159 	 2.73044 	 24.0597
| 39> H 	 -55.3748 	 8.44323 	 21.6838
| 40> H 	 -61.805 	 6.31613 	 26.6465
| 41> *
| 42>
| 43>                          ****END OF INPUT****

CARTESIAN COORDINATES (ANGSTROEM)
---------------------------------
  S    -56.819700    8.066130   23.725900
  C    -56.168500    7.828790   22.108000
  C    -56.875900    6.949000   21.343700
  C    -57.947700    6.410840   22.116000
  C    -58.023000    6.886540   23.405200
  H    -58.563100    5.670970   21.766200
  C    -56.698900    6.641870   19.817000
  H    -55.865700    7.197420   19.412500
  H    -57.521900    7.100350   19.326700
  C    -56.594900    5.175570   19.371300
  H    -55.545500    4.933000   19.619400
  H    -57.097800    4.463950   20.089000
  C    -56.750400    4.794820   17.942400
  H    -57.789200    4.870470   17.600600
  H    -56.257500    5.503920   17.342700
  H    -56.429500    3.779290   17.632000
  S    -60.127900    7.501870   25.097700
  C    -60.836700    6.303310   26.140500
  C    -60.123900    5.103720   25.980900
  C    -59.133800    5.100580   24.917400
  C    -58.866300    6.359600   24.478700
  H    -60.443200    4.222490   26.493200
  C    -58.325200    3.841050   24.574400
  H    -58.106900    3.176880   25.421800
  H    -57.396200    4.177000   24.263100
  C    -58.821600    2.994500   23.399400
  H    -57.932100    2.398970   23.170800
  H    -59.128500    3.631950   22.588000
  C    -60.026800    2.078470   23.657800
  H    -60.000000    1.243660   24.412600
  H    -60.456400    1.647770   22.764800
  H    -60.815900    2.730440   24.059700
  H    -55.374800    8.443230   21.683800
  H    -61.805000    6.316130   26.646500

 Total Charge           Charge          ....    0
 Multiplicity           Mult            ....    1
 Number of Electrons    NEL             ....  134
 Basis Dimension        Dim             ....  322

ORBITAL ENERGIES
----------------

  NO   OCC          E(Eh)            E(eV)
   0   2.0000     -88.968268     -2420.9496
   1   2.0000     -88.962414     -2420.7903
   2   2.0000     -10.328968      -281.0655
   3   2.0000     -10.327425      -281.0235
   4   2.0000     -10.321301      -280.8569
   5   2.0000     -10.314412      -280.6694
   6   2.0000     -10.306530      -280.4549
   7   2.0000     -10.304823      -280.4085
   8   2.0000     -10.298424      -280.2344
   9   2.0000     -10.294440      -280.1260
  10   2.0000     -10.291438      -280.0443
  11   2.0000     -10.288435      -279.9626
  12   2.0000     -10.288168      -279.9553
  13   2.0000     -10.287840      -279.9464
  14   2.0000     -10.279432      -279.7176
  15   2.0000     -10.278906      -279.7032
  16   2.0000      -8.083617      -219.9664
  17   2.0000      -8.076607      -219.7757
  18   2.0000      -6.042053      -164.4126
  19   2.0000      -6.038116      -164.3055
  20   2.0000      -6.035225      -164.2268
  21   2.0000      -6.034329      -164.2024
  22   2.0000      -6.031129      -164.1154
  23   2.0000      -6.027325      -164.0119
  24   2.0000      -1.008775       -27.4502
  25   2.0000      -0.982543       -26.7363
  26   2.0000      -0.913596       -24.8602
  27   2.0000      -0.909691       -24.7540
  28   2.0000      -0.872128       -23.7318
  29   2.0000      -0.854134       -23.2422
  30   2.0000      -0.843027       -22.9399
  31   2.0000      -0.813717       -22.1424
  32   2.0000      -0.790898       -21.5214
  33   2.0000      -0.782061       -21.2810
  34   2.0000      -0.708969       -19.2920
  35   2.0000      -0.699537       -19.0354
  36   2.0000      -0.689524       -18.7629
  37   2.0000      -0.662975       -18.0405
  38   2.0000      -0.645990       -17.5783
  39   2.0000      -0.627079       -17.0637
  40   2.0000      -0.599227       -16.3058
  41   2.0000      -0.566988       -15.4285
  42   2.0000      -0.558580       -15.1997
  43   2.0000      -0.550845       -14.9893
  44   2.0000      -0.543116       -14.7789
  45   2.0000      -0.532201       -14.4819
  46   2.0000      -0.520234       -14.1563
  47   2.0000      -0.509487       -13.8639
  48   2.0000      -0.505620       -13.7586
  49   2.0000      -0.501967       -13.6592
  50   2.0000      -0.495058       -13.4712
  51   2.0000      -0.482079       -13.1180
  52   2.0000      -0.474993       -12.9252
  53   2.0000      -0.468444       -12.7470
  54   2.0000      -0.459618       -12.5068
  55   2.0000      -0.452834       -12.3223
  56   2.0000      -0.442180       -12.0323
  57   2.0000      -0.438344       -11.9280
  58   2.0000      -0.434079       -11.8119
  59   2.0000      -0.431474       -11.7410
  60   2.0000      -0.420886       -11.4529
  61   2.0000      -0.410058       -11.1582
  62   2.0000      -0.404263       -11.0006
  63   2.0000      -0.342024        -9.3069
  64   2.0000      -0.336293        -9.1510
  65   2.0000      -0.328152        -8.9295
  66   2.0000      -0.300650        -8.1811
  67   0.0000       0.036007         0.9798
  68   0.0000       0.061065         1.6617
  69   0.0000       0.115878         3.1532
  70   0.0000       0.120058         3.2669
  71   0.0000       0.126091         3.4311

MULLIKEN ATOMIC CHARGES
-----------------------
   0 S :    0.125617
   1 C :   -0.132514
   2 C :   -0.078867
   3 C :    0.062103
   4 C :   -0.142404
   5 H :   -0.039945
   6 C :    0.106940
   7 H :    0.012262
   8 H :    0.027096
   9 C :   -0.109561
  10 H :    0.023195
  11 H :    0.033114
  12 C :   -0.020463
  13 H :    0.023829
  14 H :    0.013928
  15 H :    0.043967
  16 S :    0.087097
  17 C :   -0.088747
  18 C :   -0.036624
  19 C :   -0.032725
  20 C :   -0.146756
  21 H :    0.010900
  22 C :    0.082879
  23 H :    0.030658
  24 H :    0.008510
  25 C :   -0.059379
  26 H :    0.035906
  27 H :    0.028035
  28 C :   -0.071295
  29 H :    0.033030
  30 H :    0.032069
  31 H :    0.021448
  32 H :    0.044053
  33 H :    0.072644
Sum of atomic charges:   -0.0000000

LOEWDIN ATOMIC CHARGES
----------------------
   0 S :    0.421065
   1 C :   -0.191687
   2 C :   -0.057295
   3 C :   -0.048910
   4 C :   -0.207447
   5 H :    0.011745
   6 C :   -0.022764
   7 H :    0.028021
   8 H :    0.027152
   9 C :   -0.056750
  10 H :    0.028638
  11 H :    0.027214
  12 C :   -0.064984
  13 H :    0.024531
  14 H :    0.019525
  15 H :    0.035695
  16 S :    0.382199
  17 C :   -0.192289
  18 C :   -0.071951
  19 C :   -0.051825
  20 C :   -0.180028
  21 H :    0.022841
  22 C :   -0.023952
  23 H :    0.035193
  24 H :    0.024318
  25 C :   -0.033274
  26 H :    0.027744
  27 H :    0.022698
  28 C :   -0.079335
  29 H :    0.026835
  30 H :    0.024163
  31 H :    0.025803
  32 H :    0.027336
  33 H :    0.039775

  Mayer bond orders larger than 0.100000
B(  0-S ,  1-C ) :   1.1380 B(  0-S ,  4-C ) :   1.1598 B(  1-C ,  2-C ) :   1.6434
B(  1-C , 32-H ) :   0.9613 B(  2-C ,  3-C ) :   1.2345 B(  2-C ,  6-C ) :   1.0093
B(  3-C ,  4-C ) :   1.5783 B(  3-C ,  5-H ) :   1.0169 B(  4-C , 20-C ) :   0.9886
B(  6-C ,  7-H ) :   0.9379 B(  6-C ,  8-H ) :   0.9456 B(  6-C ,  9-C ) :   1.0405
B(  9-C , 10-H ) :   0.9507 B(  9-C , 11-H ) :   0.9611 B(  9-C , 12-C ) :   1.0883
B( 12-C , 13-H ) :   0.9712 B( 12-C , 14-H ) :   0.9692 B( 12-C , 15-H ) :   0.9725
B( 16-S , 17-C ) :   1.1528 B( 16-S , 20-C ) :   1.1231 B( 17-C , 18-C ) :   1.6130
B( 17-C , 33-H ) :   0.9647 B( 18-C , 19-C ) :   1.2180 B( 18-C , 21-H ) :   0.9868
B( 19-C , 20-C ) :   1.6440 B( 19-C , 22-C ) :   1.0344 B( 22-C , 23-H ) :   0.9457
B( 22-C , 24-H ) :   0.9282 B( 22-C , 25-C ) :   1.0739 B( 25-C , 26-H ) :   0.9565
B( 25-C , 27-H ) :   0.9502 B( 25-C , 28-C ) :   1.0742 B( 28-C , 29-H ) :   0.9764
B( 28-C , 30-H ) :   0.9750 B( 28-C , 31-H ) :   0.9719

Dispersion correction           -0.014587997
FINAL SINGLE POINT ENERGY     -1339.868141198430

DIPOLE MOMENT
-------------
                                X             Y             Z
Electronic contribution:     -2.40903      24.18407      20.56065
Nuclear contribution   :      2.44548     -24.77121     -21.10111
                        -----------------------------------------
Total Dipole Moment    :      0.03644      -0.58715      -0.54046
                        -----------------------------------------
Magnitude (a.u.)       :      0.79886
Magnitude (Debye)      :      2.03053

Rotational constants in cm-1:     0.017291     0.009227     0.006652
Rotational constants in MHz :   518.372651   276.622414   199.425530

                             ****ORCA TERMINATED NORMALLY****
TOTAL RUN TIME: 0 days 0 hours 0 minutes 21 seconds 815 msec
