                         Program Version 4.2.1 -  RELEASE  -
|  1> ! wB97X-D3 SP def2-SVP
|  2> %pal
|  3> nprocs 24
|  4> end
|  5>
|  6> * xyz 0 1
|  7> S 	 -87.9525 	 -29.6539 	 -61.5913
|  8> C 	 -88.0176 	 -27.9678 	 -61.7788
|  9> C 	 -88.18 	 -27.3256 	 -60.5695
| 10> C 	 -88.0886 	 -28.1703 	 -59.4337
| 11> C 	 -88.0793 	 -29.5064 	 -59.8298
| 12> H 	 -88.1754 	 -27.9278 	 -58.4278
| 13> C 	 -88.2626 	 -25.8474 	 -60.3735
| 14> H 	 -87.3715 	 -25.4691 	 -60.9033
| 15> H 	 -88.0784 	 -25.603 	 -59.2964
| 16> C 	 -89.592 	 -25.2964 	 -60.8375
| 17> H 	 -89.6959 	 -24.1761 	 -60.6669
| 18> H 	 -89.5485 	 -25.5787 	 -61.8327
| 19> C 	 -90.8499 	 -25.8897 	 -60.1682
| 20> H 	 -90.9024 	 -27.0313 	 -60.5168
| 21> H 	 -91.0427 	 -25.7017 	 -59.1467
| 22> H 	 -91.7837 	 -25.6415 	 -60.6067
| 23> S 	 -89.3216 	 -31.9209 	 -59.4284
| 24> C 	 -88.7744 	 -33.056 	 -58.1475
| 25> C 	 -87.7584 	 -32.4781 	 -57.41
| 26> C 	 -87.4615 	 -31.1377 	 -57.8137
| 27> C 	 -88.1117 	 -30.7155 	 -59.0154
| 28> H 	 -87.2494 	 -33.0325 	 -56.6122
| 29> C 	 -86.3802 	 -30.3143 	 -57.0686
| 30> H 	 -85.9013 	 -29.6378 	 -57.8313
| 31> H 	 -85.5398 	 -30.8743 	 -56.5716
| 32> C 	 -86.9828 	 -29.4458 	 -55.9281
| 33> H 	 -87.6449 	 -29.9398 	 -55.2311
| 34> H 	 -87.5361 	 -28.673 	 -56.454
| 35> C 	 -85.847 	 -28.7909 	 -55.1232
| 36> H 	 -85.1778 	 -28.2873 	 -55.7857
| 37> H 	 -85.3445 	 -29.5012 	 -54.4479
| 38> H 	 -86.2002 	 -28.0079 	 -54.4703
| 39> H 	 -88.0194 	 -27.3384 	 -62.7267
| 40> H 	 -89.1156 	 -34.0551 	 -57.9223
| 41> *
| 42>
| 43>                          ****END OF INPUT****

CARTESIAN COORDINATES (ANGSTROEM)
---------------------------------
  S    -87.952500  -29.653900  -61.591300
  C    -88.017600  -27.967800  -61.778800
  C    -88.180000  -27.325600  -60.569500
  C    -88.088600  -28.170300  -59.433700
  C    -88.079300  -29.506400  -59.829800
  H    -88.175400  -27.927800  -58.427800
  C    -88.262600  -25.847400  -60.373500
  H    -87.371500  -25.469100  -60.903300
  H    -88.078400  -25.603000  -59.296400
  C    -89.592000  -25.296400  -60.837500
  H    -89.695900  -24.176100  -60.666900
  H    -89.548500  -25.578700  -61.832700
  C    -90.849900  -25.889700  -60.168200
  H    -90.902400  -27.031300  -60.516800
  H    -91.042700  -25.701700  -59.146700
  H    -91.783700  -25.641500  -60.606700
  S    -89.321600  -31.920900  -59.428400
  C    -88.774400  -33.056000  -58.147500
  C    -87.758400  -32.478100  -57.410000
  C    -87.461500  -31.137700  -57.813700
  C    -88.111700  -30.715500  -59.015400
  H    -87.249400  -33.032500  -56.612200
  C    -86.380200  -30.314300  -57.068600
  H    -85.901300  -29.637800  -57.831300
  H    -85.539800  -30.874300  -56.571600
  C    -86.982800  -29.445800  -55.928100
  H    -87.644900  -29.939800  -55.231100
  H    -87.536100  -28.673000  -56.454000
  C    -85.847000  -28.790900  -55.123200
  H    -85.177800  -28.287300  -55.785700
  H    -85.344500  -29.501200  -54.447900
  H    -86.200200  -28.007900  -54.470300
  H    -88.019400  -27.338400  -62.726700
  H    -89.115600  -34.055100  -57.922300

 Total Charge           Charge          ....    0
 Multiplicity           Mult            ....    1
 Number of Electrons    NEL             ....  134
 Basis Dimension        Dim             ....  322

ORBITAL ENERGIES
----------------

  NO   OCC          E(Eh)            E(eV)
   0   2.0000     -88.971472     -2421.0368
   1   2.0000     -88.966366     -2420.8979
   2   2.0000     -10.334268      -281.2097
   3   2.0000     -10.333563      -281.1905
   4   2.0000     -10.320200      -280.8269
   5   2.0000     -10.315891      -280.7097
   6   2.0000     -10.310285      -280.5571
   7   2.0000     -10.299187      -280.2551
   8   2.0000     -10.296629      -280.1855
   9   2.0000     -10.296506      -280.1822
  10   2.0000     -10.292964      -280.0858
  11   2.0000     -10.291048      -280.0337
  12   2.0000     -10.288165      -279.9552
  13   2.0000     -10.285396      -279.8799
  14   2.0000     -10.278623      -279.6955
  15   2.0000     -10.275051      -279.5984
  16   2.0000      -8.086396      -220.0420
  17   2.0000      -8.080050      -219.8693
  18   2.0000      -6.044873      -164.4893
  19   2.0000      -6.040821      -164.3791
  20   2.0000      -6.038701      -164.3214
  21   2.0000      -6.037216      -164.2810
  22   2.0000      -6.034630      -164.2106
  23   2.0000      -6.030765      -164.1055
  24   2.0000      -1.007998       -27.4290
  25   2.0000      -0.981065       -26.6961
  26   2.0000      -0.917502       -24.9665
  27   2.0000      -0.903196       -24.5772
  28   2.0000      -0.869683       -23.6653
  29   2.0000      -0.853305       -23.2196
  30   2.0000      -0.842307       -22.9203
  31   2.0000      -0.815849       -22.2004
  32   2.0000      -0.781223       -21.2582
  33   2.0000      -0.765373       -20.8268
  34   2.0000      -0.706742       -19.2314
  35   2.0000      -0.703182       -19.1345
  36   2.0000      -0.691720       -18.8227
  37   2.0000      -0.662380       -18.0243
  38   2.0000      -0.640535       -17.4298
  39   2.0000      -0.613595       -16.6968
  40   2.0000      -0.591312       -16.0904
  41   2.0000      -0.581343       -15.8192
  42   2.0000      -0.567464       -15.4415
  43   2.0000      -0.548883       -14.9359
  44   2.0000      -0.545437       -14.8421
  45   2.0000      -0.519860       -14.1461
  46   2.0000      -0.513926       -13.9846
  47   2.0000      -0.511253       -13.9119
  48   2.0000      -0.505332       -13.7508
  49   2.0000      -0.499852       -13.6017
  50   2.0000      -0.488214       -13.2850
  51   2.0000      -0.480306       -13.0698
  52   2.0000      -0.474993       -12.9252
  53   2.0000      -0.463207       -12.6045
  54   2.0000      -0.456191       -12.4136
  55   2.0000      -0.448051       -12.1921
  56   2.0000      -0.443333       -12.0637
  57   2.0000      -0.441477       -12.0132
  58   2.0000      -0.434626       -11.8268
  59   2.0000      -0.423376       -11.5206
  60   2.0000      -0.418167       -11.3789
  61   2.0000      -0.411340       -11.1931
  62   2.0000      -0.397318       -10.8116
  63   2.0000      -0.353052        -9.6070
  64   2.0000      -0.333448        -9.0736
  65   2.0000      -0.328044        -8.9265
  66   2.0000      -0.287960        -7.8358
  67   0.0000       0.024444         0.6652
  68   0.0000       0.068261         1.8575
  69   0.0000       0.115351         3.1389
  70   0.0000       0.116998         3.1837
  71   0.0000       0.125390         3.4120

MULLIKEN ATOMIC CHARGES
-----------------------
   0 S :    0.134981
   1 C :   -0.129061
   2 C :   -0.133750
   3 C :    0.073003
   4 C :   -0.156322
   5 H :   -0.022445
   6 C :    0.067839
   7 H :    0.042372
   8 H :    0.018275
   9 C :   -0.039386
  10 H :    0.045061
  11 H :    0.004634
  12 C :   -0.072948
  13 H :    0.047945
  14 H :    0.033294
  15 H :    0.016950
  16 S :    0.096970
  17 C :   -0.087873
  18 C :   -0.034436
  19 C :   -0.012566
  20 C :   -0.146469
  21 H :    0.029806
  22 C :   -0.008420
  23 H :    0.042687
  24 H :    0.033429
  25 C :   -0.063730
  26 H :    0.034014
  27 H :    0.016972
  28 C :   -0.039784
  29 H :    0.021750
  30 H :    0.037420
  31 H :    0.024236
  32 H :    0.071020
  33 H :    0.054529
Sum of atomic charges:   -0.0000000

LOEWDIN ATOMIC CHARGES
----------------------
   0 S :    0.431299
   1 C :   -0.233402
   2 C :   -0.068022
   3 C :   -0.046932
   4 C :   -0.185331
   5 H :    0.019920
   6 C :   -0.035785
   7 H :    0.037038
   8 H :    0.028034
   9 C :   -0.038524
  10 H :    0.031884
  11 H :    0.014058
  12 C :   -0.077145
  13 H :    0.044877
  14 H :    0.019247
  15 H :    0.021951
  16 S :    0.389769
  17 C :   -0.177139
  18 C :   -0.070792
  19 C :   -0.056383
  20 C :   -0.201175
  21 H :    0.037345
  22 C :   -0.038215
  23 H :    0.035685
  24 H :    0.031160
  25 C :   -0.037599
  26 H :    0.022782
  27 H :    0.017762
  28 C :   -0.065528
  29 H :    0.020850
  30 H :    0.026794
  31 H :    0.024119
  32 H :    0.046043
  33 H :    0.031356

  Mayer bond orders larger than 0.100000
B(  0-S ,  1-C ) :   1.1449 B(  0-S ,  4-C ) :   1.1647 B(  1-C ,  2-C ) :   1.6011
B(  1-C , 32-H ) :   0.9512 B(  2-C ,  3-C ) :   1.2543 B(  2-C ,  6-C ) :   1.0039
B(  3-C ,  4-C ) :   1.5437 B(  3-C ,  5-H ) :   1.0075 B(  4-C , 20-C ) :   1.0439
B(  6-C ,  7-H ) :   0.9461 B(  6-C ,  8-H ) :   0.9450 B(  6-C ,  9-C ) :   1.0528
B(  9-C , 10-H ) :   0.9575 B(  9-C , 11-H ) :   0.9563 B(  9-C , 12-C ) :   1.0857
B( 12-C , 13-H ) :   0.9639 B( 12-C , 14-H ) :   0.9775 B( 12-C , 15-H ) :   0.9701
B( 16-S , 17-C ) :   1.1382 B( 16-S , 20-C ) :   1.1428 B( 17-C , 18-C ) :   1.6095
B( 17-C , 20-C ) :   0.1079 B( 17-C , 33-H ) :   0.9674 B( 18-C , 19-C ) :   1.2568
B( 18-C , 21-H ) :   0.9857 B( 19-C , 20-C ) :   1.5614 B( 19-C , 22-C ) :   1.0366
B( 22-C , 23-H ) :   0.9377 B( 22-C , 24-H ) :   0.9546 B( 22-C , 25-C ) :   1.0470
B( 25-C , 26-H ) :   0.9588 B( 25-C , 27-H ) :   0.9532 B( 25-C , 28-C ) :   1.0902
B( 28-C , 29-H ) :   0.9715 B( 28-C , 30-H ) :   0.9747 B( 28-C , 31-H ) :   0.9724

Dispersion correction           -0.014532574
FINAL SINGLE POINT ENERGY     -1339.860169613356

DIPOLE MOMENT
-------------
                                X             Y             Z
Electronic contribution:     -2.68620     -20.84966     -15.08770
Nuclear contribution   :      2.80855      21.27098      15.49721
                        -----------------------------------------
Total Dipole Moment    :      0.12235       0.42132       0.40951
                        -----------------------------------------
Magnitude (a.u.)       :      0.60014
Magnitude (Debye)      :      1.52545

Rotational constants in cm-1:     0.017477     0.009157     0.007058
Rotational constants in MHz :   523.944485   274.515169   211.589312

                             ****ORCA TERMINATED NORMALLY****
TOTAL RUN TIME: 0 days 0 hours 0 minutes 21 seconds 933 msec
