                         Program Version 4.2.1 -  RELEASE  -
|  1> ! wB97X-D3 SP def2-SVP
|  2> %pal
|  3> nprocs 24
|  4> end
|  5>
|  6> * xyz 0 1
|  7> S 	 22.2582 	 -23.9525 	 -120.968
|  8> C 	 23.5231 	 -25.1489 	 -121.103
|  9> C 	 23.9102 	 -25.6452 	 -119.906
| 10> C 	 23.2873 	 -24.908 	 -118.879
| 11> C 	 22.4467 	 -23.923 	 -119.277
| 12> H 	 23.3105 	 -24.9409 	 -117.777
| 13> C 	 24.8598 	 -26.749 	 -119.557
| 14> H 	 24.6535 	 -27.6084 	 -120.285
| 15> H 	 24.5542 	 -27.0873 	 -118.598
| 16> C 	 26.324 	 -26.4199 	 -119.463
| 17> H 	 26.7484 	 -26.3082 	 -120.48
| 18> H 	 26.5136 	 -25.4684 	 -119.028
| 19> C 	 27.1858 	 -27.5165 	 -118.687
| 20> H 	 27.0483 	 -28.5329 	 -118.957
| 21> H 	 28.2218 	 -27.3149 	 -118.952
| 22> H 	 27.1164 	 -27.5252 	 -117.609
| 23> S 	 20.8267 	 -23.8822 	 -117.097
| 24> C 	 20.1975 	 -22.3592 	 -116.527
| 25> C 	 20.6314 	 -21.2435 	 -117.252
| 26> C 	 21.3935 	 -21.6548 	 -118.407
| 27> C 	 21.7196 	 -23.0031 	 -118.4
| 28> H 	 20.2391 	 -20.2811 	 -116.929
| 29> C 	 21.9554 	 -20.6766 	 -119.497
| 30> H 	 22.895 	 -20.9818 	 -119.877
| 31> H 	 22.04 	 -19.7007 	 -118.987
| 32> C 	 21.0195 	 -20.4593 	 -120.7
| 33> H 	 20.0298 	 -20.1929 	 -120.456
| 34> H 	 20.9317 	 -21.4913 	 -121.112
| 35> C 	 21.5805 	 -19.4939 	 -121.659
| 36> H 	 21.5458 	 -18.5305 	 -121.103
| 37> H 	 20.9265 	 -19.4628 	 -122.499
| 38> H 	 22.6302 	 -19.5898 	 -122.05
| 39> H 	 24.014 	 -25.5967 	 -122.023
| 40> H 	 19.4286 	 -22.3316 	 -115.779
| 41> *
| 42>
| 43>                          ****END OF INPUT****

CARTESIAN COORDINATES (ANGSTROEM)
---------------------------------
  S     22.258200  -23.952500  -120.968000
  C     23.523100  -25.148900  -121.103000
  C     23.910200  -25.645200  -119.906000
  C     23.287300  -24.908000  -118.879000
  C     22.446700  -23.923000  -119.277000
  H     23.310500  -24.940900  -117.777000
  C     24.859800  -26.749000  -119.557000
  H     24.653500  -27.608400  -120.285000
  H     24.554200  -27.087300  -118.598000
  C     26.324000  -26.419900  -119.463000
  H     26.748400  -26.308200  -120.480000
  H     26.513600  -25.468400  -119.028000
  C     27.185800  -27.516500  -118.687000
  H     27.048300  -28.532900  -118.957000
  H     28.221800  -27.314900  -118.952000
  H     27.116400  -27.525200  -117.609000
  S     20.826700  -23.882200  -117.097000
  C     20.197500  -22.359200  -116.527000
  C     20.631400  -21.243500  -117.252000
  C     21.393500  -21.654800  -118.407000
  C     21.719600  -23.003100  -118.400000
  H     20.239100  -20.281100  -116.929000
  C     21.955400  -20.676600  -119.497000
  H     22.895000  -20.981800  -119.877000
  H     22.040000  -19.700700  -118.987000
  C     21.019500  -20.459300  -120.700000
  H     20.029800  -20.192900  -120.456000
  H     20.931700  -21.491300  -121.112000
  C     21.580500  -19.493900  -121.659000
  H     21.545800  -18.530500  -121.103000
  H     20.926500  -19.462800  -122.499000
  H     22.630200  -19.589800  -122.050000
  H     24.014000  -25.596700  -122.023000
  H     19.428600  -22.331600  -115.779000

 Total Charge           Charge          ....    0
 Multiplicity           Mult            ....    1
 Number of Electrons    NEL             ....  134
 Basis Dimension        Dim             ....  322

ORBITAL ENERGIES
----------------

  NO   OCC          E(Eh)            E(eV)
   0   2.0000     -88.967492     -2420.9285
   1   2.0000     -88.965099     -2420.8634
   2   2.0000     -10.330097      -281.0962
   3   2.0000     -10.320251      -280.8283
   4   2.0000     -10.319561      -280.8095
   5   2.0000     -10.312927      -280.6290
   6   2.0000     -10.312724      -280.6235
   7   2.0000     -10.301965      -280.3307
   8   2.0000     -10.294695      -280.1329
   9   2.0000     -10.291420      -280.0438
  10   2.0000     -10.291213      -280.0381
  11   2.0000     -10.289686      -279.9966
  12   2.0000     -10.284369      -279.8519
  13   2.0000     -10.277534      -279.6659
  14   2.0000     -10.277527      -279.6657
  15   2.0000     -10.275351      -279.6065
  16   2.0000      -8.082525      -219.9367
  17   2.0000      -8.079241      -219.8473
  18   2.0000      -6.041001      -164.3840
  19   2.0000      -6.037631      -164.2923
  20   2.0000      -6.037060      -164.2768
  21   2.0000      -6.033902      -164.1908
  22   2.0000      -6.033239      -164.1728
  23   2.0000      -6.030093      -164.0872
  24   2.0000      -1.013748       -27.5855
  25   2.0000      -0.982969       -26.7479
  26   2.0000      -0.913860       -24.8674
  27   2.0000      -0.911727       -24.8094
  28   2.0000      -0.869110       -23.6497
  29   2.0000      -0.854002       -23.2386
  30   2.0000      -0.847206       -23.0536
  31   2.0000      -0.810838       -22.0640
  32   2.0000      -0.786418       -21.3995
  33   2.0000      -0.773697       -21.0534
  34   2.0000      -0.710627       -19.3371
  35   2.0000      -0.700235       -19.0544
  36   2.0000      -0.690132       -18.7794
  37   2.0000      -0.666852       -18.1460
  38   2.0000      -0.635135       -17.2829
  39   2.0000      -0.614435       -16.7196
  40   2.0000      -0.595862       -16.2142
  41   2.0000      -0.571468       -15.5504
  42   2.0000      -0.569525       -15.4976
  43   2.0000      -0.554356       -15.0848
  44   2.0000      -0.527054       -14.3419
  45   2.0000      -0.524084       -14.2610
  46   2.0000      -0.517637       -14.0856
  47   2.0000      -0.511012       -13.9053
  48   2.0000      -0.503888       -13.7115
  49   2.0000      -0.498765       -13.5721
  50   2.0000      -0.492953       -13.4139
  51   2.0000      -0.474261       -12.9053
  52   2.0000      -0.469898       -12.7866
  53   2.0000      -0.468465       -12.7476
  54   2.0000      -0.459324       -12.4988
  55   2.0000      -0.450969       -12.2715
  56   2.0000      -0.447486       -12.1767
  57   2.0000      -0.442858       -12.0508
  58   2.0000      -0.434151       -11.8138
  59   2.0000      -0.426492       -11.6054
  60   2.0000      -0.416416       -11.3312
  61   2.0000      -0.416023       -11.3206
  62   2.0000      -0.404005       -10.9935
  63   2.0000      -0.346205        -9.4207
  64   2.0000      -0.334975        -9.1151
  65   2.0000      -0.331419        -9.0184
  66   2.0000      -0.291832        -7.9411
  67   0.0000       0.031928         0.8688
  68   0.0000       0.071618         1.9488
  69   0.0000       0.103488         2.8161
  70   0.0000       0.114830         3.1247
  71   0.0000       0.123736         3.3670

MULLIKEN ATOMIC CHARGES
-----------------------
   0 S :    0.117739
   1 C :   -0.138017
   2 C :   -0.067916
   3 C :   -0.014329
   4 C :   -0.130084
   5 H :    0.011212
   6 C :    0.089737
   7 H :    0.038167
   8 H :    0.008669
   9 C :   -0.048434
  10 H :    0.025214
  11 H :    0.024948
  12 C :   -0.051420
  13 H :    0.020656
  14 H :    0.028446
  15 H :    0.035169
  16 S :    0.089432
  17 C :   -0.091090
  18 C :   -0.033029
  19 C :   -0.029649
  20 C :   -0.156864
  21 H :    0.025560
  22 C :    0.056613
  23 H :    0.024304
  24 H :    0.016010
  25 C :   -0.057344
  26 H :    0.014849
  27 H :    0.017824
  28 C :   -0.032791
  29 H :    0.024760
  30 H :    0.030801
  31 H :    0.041365
  32 H :    0.056069
  33 H :    0.053424
Sum of atomic charges:   -0.0000000

LOEWDIN ATOMIC CHARGES
----------------------
   0 S :    0.434405
   1 C :   -0.209057
   2 C :   -0.068844
   3 C :   -0.077357
   4 C :   -0.214196
   5 H :    0.029442
   6 C :   -0.033554
   7 H :    0.039939
   8 H :    0.026780
   9 C :   -0.032690
  10 H :    0.026337
  11 H :    0.022871
  12 C :   -0.065736
  13 H :    0.019298
  14 H :    0.028865
  15 H :    0.023794
  16 S :    0.387909
  17 C :   -0.176192
  18 C :   -0.073124
  19 C :   -0.048519
  20 C :   -0.177210
  21 H :    0.035965
  22 C :   -0.021410
  23 H :    0.023103
  24 H :    0.027562
  25 C :   -0.043568
  26 H :    0.018711
  27 H :    0.012626
  28 C :   -0.066031
  29 H :    0.028794
  30 H :    0.024071
  31 H :    0.031583
  32 H :    0.042608
  33 H :    0.022825

  Mayer bond orders larger than 0.100000
B(  0-S ,  1-C ) :   1.1301 B(  0-S ,  4-C ) :   1.1439 B(  1-C ,  2-C ) :   1.6403
B(  1-C , 32-H ) :   0.9552 B(  2-C ,  3-C ) :   1.2152 B(  2-C ,  6-C ) :   1.0199
B(  3-C ,  4-C ) :   1.6010 B(  3-C ,  5-H ) :   0.9905 B(  4-C , 20-C ) :   1.0266
B(  6-C ,  7-H ) :   0.9318 B(  6-C ,  8-H ) :   0.9359 B(  6-C ,  9-C ) :   1.0717
B(  9-C , 10-H ) :   0.9551 B(  9-C , 11-H ) :   0.9556 B(  9-C , 12-C ) :   1.0700
B( 12-C , 13-H ) :   0.9782 B( 12-C , 14-H ) :   0.9762 B( 12-C , 15-H ) :   0.9784
B( 16-S , 17-C ) :   1.1629 B( 16-S , 20-C ) :   1.1202 B( 17-C , 18-C ) :   1.6212
B( 17-C , 33-H ) :   0.9667 B( 18-C , 19-C ) :   1.2073 B( 18-C , 21-H ) :   0.9921
B( 19-C , 20-C ) :   1.6230 B( 19-C , 22-C ) :   1.0330 B( 22-C , 23-H ) :   0.9434
B( 22-C , 24-H ) :   0.9382 B( 22-C , 25-C ) :   1.0640 B( 25-C , 26-H ) :   0.9502
B( 25-C , 27-H ) :   0.9436 B( 25-C , 28-C ) :   1.0914 B( 28-C , 29-H ) :   0.9698
B( 28-C , 30-H ) :   0.9704 B( 28-C , 31-H ) :   0.9724

Dispersion correction           -0.013811075
FINAL SINGLE POINT ENERGY     -1339.867354791634

DIPOLE MOMENT
-------------
                                X             Y             Z
Electronic contribution:    -15.48625      -1.92016       6.33111
Nuclear contribution   :     15.65300       2.03229      -6.32345
                        -----------------------------------------
Total Dipole Moment    :      0.16675       0.11213       0.00766
                        -----------------------------------------
Magnitude (a.u.)       :      0.20109
Magnitude (Debye)      :      0.51113

Rotational constants in cm-1:     0.020068     0.007826     0.006283
Rotational constants in MHz :   601.614296   234.605165   188.348214

                             ****ORCA TERMINATED NORMALLY****
TOTAL RUN TIME: 0 days 0 hours 0 minutes 21 seconds 22 msec
