                         Program Version 4.2.1 -  RELEASE  -
|  1> ! wB97X-D3 SP def2-SVP
|  2> %pal
|  3> nprocs 24
|  4> end
|  5>
|  6> * xyz 0 1
|  7> S 	 -104.217 	 21.8777 	 -120.987
|  8> C 	 -102.56 	 22.2923 	 -121.119
|  9> C 	 -101.816 	 21.3378 	 -121.794
| 10> C 	 -102.553 	 20.1213 	 -122.007
| 11> C 	 -103.813 	 20.2113 	 -121.462
| 12> H 	 -102.118 	 19.1905 	 -122.47
| 13> C 	 -100.346 	 21.4986 	 -122.195
| 14> H 	 -100.222 	 22.6133 	 -122.303
| 15> H 	 -100.378 	 20.9832 	 -123.178
| 16> C 	 -99.2242 	 20.9389 	 -121.309
| 17> H 	 -99.0651 	 19.9481 	 -121.512
| 18> H 	 -98.2761 	 21.4346 	 -121.482
| 19> C 	 -99.4522 	 20.9513 	 -119.801
| 20> H 	 -100.159 	 20.2256 	 -119.507
| 21> H 	 -98.5397 	 20.5133 	 -119.351
| 22> H 	 -99.713 	 22.0218 	 -119.439
| 23> S 	 -106.532 	 19.6101 	 -121.818
| 24> C 	 -107.076 	 17.972 	 -121.471
| 25> C 	 -105.997 	 17.1423 	 -121.096
| 26> C 	 -104.76 	 17.8697 	 -121.011
| 27> C 	 -104.839 	 19.1867 	 -121.418
| 28> H 	 -106.188 	 16.105 	 -120.9
| 29> C 	 -103.596 	 17.3095 	 -120.209
| 30> H 	 -102.624 	 17.5433 	 -120.539
| 31> H 	 -103.687 	 16.2123 	 -120.236
| 32> C 	 -103.718 	 17.6732 	 -118.725
| 33> H 	 -104.657 	 17.3359 	 -118.252
| 34> H 	 -103.682 	 18.7021 	 -118.787
| 35> C 	 -102.477 	 17.2557 	 -117.978
| 36> H 	 -102.485 	 17.5604 	 -116.906
| 37> H 	 -101.634 	 17.8355 	 -118.284
| 38> H 	 -102.174 	 16.1487 	 -118.008
| 39> H 	 -102.096 	 23.0928 	 -120.556
| 40> H 	 -108.131 	 17.6697 	 -121.62
| 41> *
| 42>
| 43>                          ****END OF INPUT****

CARTESIAN COORDINATES (ANGSTROEM)
---------------------------------
  S    -104.217000   21.877700  -120.987000
  C    -102.560000   22.292300  -121.119000
  C    -101.816000   21.337800  -121.794000
  C    -102.553000   20.121300  -122.007000
  C    -103.813000   20.211300  -121.462000
  H    -102.118000   19.190500  -122.470000
  C    -100.346000   21.498600  -122.195000
  H    -100.222000   22.613300  -122.303000
  H    -100.378000   20.983200  -123.178000
  C    -99.224200   20.938900  -121.309000
  H    -99.065100   19.948100  -121.512000
  H    -98.276100   21.434600  -121.482000
  C    -99.452200   20.951300  -119.801000
  H    -100.159000   20.225600  -119.507000
  H    -98.539700   20.513300  -119.351000
  H    -99.713000   22.021800  -119.439000
  S    -106.532000   19.610100  -121.818000
  C    -107.076000   17.972000  -121.471000
  C    -105.997000   17.142300  -121.096000
  C    -104.760000   17.869700  -121.011000
  C    -104.839000   19.186700  -121.418000
  H    -106.188000   16.105000  -120.900000
  C    -103.596000   17.309500  -120.209000
  H    -102.624000   17.543300  -120.539000
  H    -103.687000   16.212300  -120.236000
  C    -103.718000   17.673200  -118.725000
  H    -104.657000   17.335900  -118.252000
  H    -103.682000   18.702100  -118.787000
  C    -102.477000   17.255700  -117.978000
  H    -102.485000   17.560400  -116.906000
  H    -101.634000   17.835500  -118.284000
  H    -102.174000   16.148700  -118.008000
  H    -102.096000   23.092800  -120.556000
  H    -108.131000   17.669700  -121.620000

 Total Charge           Charge          ....    0
 Multiplicity           Mult            ....    1
 Number of Electrons    NEL             ....  134
 Basis Dimension        Dim             ....  322

ORBITAL ENERGIES
----------------

  NO   OCC          E(Eh)            E(eV)
   0   2.0000     -88.967067     -2420.9170
   1   2.0000     -88.965246     -2420.8674
   2   2.0000     -10.333209      -281.1809
   3   2.0000     -10.327341      -281.0212
   4   2.0000     -10.325140      -280.9614
   5   2.0000     -10.310576      -280.5650
   6   2.0000     -10.303506      -280.3726
   7   2.0000     -10.303103      -280.3617
   8   2.0000     -10.302538      -280.3463
   9   2.0000     -10.299098      -280.2527
  10   2.0000     -10.299058      -280.2516
  11   2.0000     -10.286416      -279.9076
  12   2.0000     -10.282722      -279.8071
  13   2.0000     -10.280332      -279.7421
  14   2.0000     -10.279725      -279.7255
  15   2.0000     -10.276739      -279.6443
  16   2.0000      -8.082268      -219.9297
  17   2.0000      -8.079295      -219.8488
  18   2.0000      -6.040785      -164.3781
  19   2.0000      -6.037904      -164.2997
  20   2.0000      -6.036914      -164.2728
  21   2.0000      -6.033892      -164.1906
  22   2.0000      -6.032787      -164.1605
  23   2.0000      -6.030018      -164.0851
  24   2.0000      -1.006184       -27.3797
  25   2.0000      -0.981038       -26.6954
  26   2.0000      -0.913402       -24.8549
  27   2.0000      -0.911195       -24.7949
  28   2.0000      -0.868883       -23.6435
  29   2.0000      -0.855086       -23.2681
  30   2.0000      -0.846168       -23.0254
  31   2.0000      -0.812637       -22.1130
  32   2.0000      -0.781297       -21.2602
  33   2.0000      -0.769911       -20.9503
  34   2.0000      -0.706720       -19.2308
  35   2.0000      -0.698877       -19.0174
  36   2.0000      -0.692755       -18.8508
  37   2.0000      -0.663587       -18.0571
  38   2.0000      -0.635819       -17.3015
  39   2.0000      -0.619251       -16.8507
  40   2.0000      -0.595542       -16.2055
  41   2.0000      -0.572442       -15.5769
  42   2.0000      -0.565862       -15.3979
  43   2.0000      -0.555446       -15.1145
  44   2.0000      -0.545064       -14.8319
  45   2.0000      -0.523477       -14.2445
  46   2.0000      -0.512316       -13.9408
  47   2.0000      -0.510061       -13.8795
  48   2.0000      -0.506852       -13.7921
  49   2.0000      -0.498530       -13.5657
  50   2.0000      -0.491347       -13.3702
  51   2.0000      -0.481200       -13.0941
  52   2.0000      -0.465916       -12.6782
  53   2.0000      -0.462565       -12.5870
  54   2.0000      -0.457753       -12.4561
  55   2.0000      -0.451260       -12.2794
  56   2.0000      -0.444671       -12.1001
  57   2.0000      -0.437252       -11.8982
  58   2.0000      -0.433599       -11.7988
  59   2.0000      -0.422172       -11.4879
  60   2.0000      -0.419013       -11.4019
  61   2.0000      -0.417238       -11.3536
  62   2.0000      -0.411290       -11.1918
  63   2.0000      -0.354139        -9.6366
  64   2.0000      -0.332735        -9.0542
  65   2.0000      -0.329372        -8.9627
  66   2.0000      -0.282785        -7.6950
  67   0.0000       0.022057         0.6002
  68   0.0000       0.063233         1.7207
  69   0.0000       0.099533         2.7084
  70   0.0000       0.118036         3.2119
  71   0.0000       0.118277         3.2185

MULLIKEN ATOMIC CHARGES
-----------------------
   0 S :    0.112194
   1 C :   -0.118613
   2 C :   -0.125651
   3 C :    0.012823
   4 C :   -0.150975
   5 H :    0.044371
   6 C :    0.049326
   7 H :    0.037342
   8 H :    0.040372
   9 C :   -0.020607
  10 H :   -0.002000
  11 H :    0.030411
  12 C :   -0.065967
  13 H :    0.026107
  14 H :    0.030692
  15 H :    0.044851
  16 S :    0.090204
  17 C :   -0.116615
  18 C :   -0.031081
  19 C :   -0.030443
  20 C :   -0.137521
  21 H :    0.021585
  22 C :    0.064734
  23 H :   -0.002125
  24 H :    0.013775
  25 C :   -0.016626
  26 H :    0.037162
  27 H :    0.012205
  28 C :   -0.070361
  29 H :    0.032266
  30 H :    0.016853
  31 H :    0.041474
  32 H :    0.054270
  33 H :    0.075569
Sum of atomic charges:    0.0000000

LOEWDIN ATOMIC CHARGES
----------------------
   0 S :    0.402729
   1 C :   -0.210458
   2 C :   -0.064241
   3 C :   -0.066275
   4 C :   -0.177981
   5 H :    0.044889
   6 C :   -0.036474
   7 H :    0.037428
   8 H :    0.040280
   9 C :   -0.041047
  10 H :    0.012111
  11 H :    0.027785
  12 C :   -0.066454
  13 H :    0.016853
  14 H :    0.031269
  15 H :    0.031839
  16 S :    0.377283
  17 C :   -0.183138
  18 C :   -0.067779
  19 C :   -0.059105
  20 C :   -0.187693
  21 H :    0.031211
  22 C :   -0.022927
  23 H :    0.016887
  24 H :    0.027369
  25 C :   -0.031364
  26 H :    0.028565
  27 H :    0.018697
  28 C :   -0.076182
  29 H :    0.031011
  30 H :    0.020111
  31 H :    0.030294
  32 H :    0.028551
  33 H :    0.035957

  Mayer bond orders larger than 0.100000
B(  0-S ,  1-C ) :   1.1367 B(  0-S ,  4-C ) :   1.1375 B(  1-C ,  2-C ) :   1.6218
B(  1-C , 32-H ) :   0.9641 B(  2-C ,  3-C ) :   1.2207 B(  2-C ,  6-C ) :   1.0157
B(  3-C ,  4-C ) :   1.5831 B(  3-C ,  5-H ) :   0.9843 B(  4-C , 20-C ) :   1.0631
B(  6-C ,  7-H ) :   0.9428 B(  6-C ,  8-H ) :   0.9419 B(  6-C ,  9-C ) :   1.0620
B(  9-C , 10-H ) :   0.9468 B(  9-C , 11-H ) :   0.9579 B(  9-C , 12-C ) :   1.1005
B( 12-C , 13-H ) :   0.9680 B( 12-C , 14-H ) :   0.9699 B( 12-C , 15-H ) :   0.9746
B( 16-S , 17-C ) :   1.1546 B( 16-S , 20-C ) :   1.1180 B( 17-C , 18-C ) :   1.6029
B( 17-C , 33-H ) :   0.9643 B( 18-C , 19-C ) :   1.2281 B( 18-C , 21-H ) :   0.9946
B( 19-C , 20-C ) :   1.6045 B( 19-C , 22-C ) :   1.0621 B( 22-C , 23-H ) :   0.9351
B( 22-C , 24-H ) :   0.9312 B( 22-C , 25-C ) :   1.0599 B( 25-C , 26-H ) :   0.9552
B( 25-C , 27-H ) :   0.9502 B( 25-C , 28-C ) :   1.0917 B( 28-C , 29-H ) :   0.9681
B( 28-C , 30-H ) :   0.9702 B( 28-C , 31-H ) :   0.9734

Dispersion correction           -0.015222595
FINAL SINGLE POINT ENERGY     -1339.863083617186

DIPOLE MOMENT
-------------
                                X             Y             Z
Electronic contribution:    -25.78519       9.15941     -12.37938
Nuclear contribution   :     26.36990      -9.53589      12.58570
                        -----------------------------------------
Total Dipole Moment    :      0.58471      -0.37648       0.20632
                        -----------------------------------------
Magnitude (a.u.)       :      0.72539
Magnitude (Debye)      :      1.84381

Rotational constants in cm-1:     0.019251     0.009681     0.007328
Rotational constants in MHz :   577.131434   290.225212   219.683015

                             ****ORCA TERMINATED NORMALLY****
TOTAL RUN TIME: 0 days 0 hours 0 minutes 22 seconds 634 msec
