                         Program Version 4.2.1 -  RELEASE  -
|  1> ! wB97X-D3 SP def2-SVP
|  2> %pal
|  3> nprocs 24
|  4> end
|  5>
|  6> * xyz 0 1
|  7> S 	 -54.3487 	 -50.3406 	 -85.9927
|  8> C 	 -54.8668 	 -49.6731 	 -87.5181
|  9> C 	 -56.239 	 -49.3102 	 -87.5393
| 10> C 	 -56.8035 	 -49.4344 	 -86.2318
| 11> C 	 -55.9341 	 -50.0245 	 -85.2893
| 12> H 	 -57.8129 	 -49.1627 	 -85.9178
| 13> C 	 -56.9561 	 -48.7571 	 -88.7592
| 14> H 	 -57.6045 	 -49.5375 	 -89.101
| 15> H 	 -56.1287 	 -48.6032 	 -89.4865
| 16> C 	 -57.7083 	 -47.4195 	 -88.6072
| 17> H 	 -58.4918 	 -47.6711 	 -87.8687
| 18> H 	 -56.9653 	 -46.6419 	 -88.2562
| 19> C 	 -58.4846 	 -46.8419 	 -89.8512
| 20> H 	 -59.3181 	 -47.5206 	 -90.1477
| 21> H 	 -58.9744 	 -45.9403 	 -89.5518
| 22> H 	 -57.7948 	 -46.6556 	 -90.7377
| 23> S 	 -55.0139 	 -50.0336 	 -82.7536
| 24> C 	 -56.0276 	 -50.7365 	 -81.5189
| 25> C 	 -57.1543 	 -51.3269 	 -82.0574
| 26> C 	 -57.3422 	 -51.0362 	 -83.4256
| 27> C 	 -56.2234 	 -50.4045 	 -83.9189
| 28> H 	 -57.8072 	 -51.9009 	 -81.446
| 29> C 	 -58.5899 	 -51.5511 	 -84.2103
| 30> H 	 -58.5402 	 -51.2652 	 -85.2484
| 31> H 	 -59.5645 	 -51.1042 	 -83.8427
| 32> C 	 -58.9856 	 -53.0602 	 -84.1179
| 33> H 	 -59.9861 	 -53.2087 	 -84.5581
| 34> H 	 -59.1338 	 -53.4776 	 -83.0363
| 35> C 	 -58.0934 	 -54.087 	 -84.8443
| 36> H 	 -58.0771 	 -53.627 	 -85.8267
| 37> H 	 -58.5381 	 -55.1401 	 -84.8011
| 38> H 	 -57.0829 	 -54.153 	 -84.4614
| 39> H 	 -54.2106 	 -49.5169 	 -88.3649
| 40> H 	 -55.8517 	 -51.0476 	 -80.4725
| 41> *
| 42>
| 43>                          ****END OF INPUT****

CARTESIAN COORDINATES (ANGSTROEM)
---------------------------------
  S    -54.348700  -50.340600  -85.992700
  C    -54.866800  -49.673100  -87.518100
  C    -56.239000  -49.310200  -87.539300
  C    -56.803500  -49.434400  -86.231800
  C    -55.934100  -50.024500  -85.289300
  H    -57.812900  -49.162700  -85.917800
  C    -56.956100  -48.757100  -88.759200
  H    -57.604500  -49.537500  -89.101000
  H    -56.128700  -48.603200  -89.486500
  C    -57.708300  -47.419500  -88.607200
  H    -58.491800  -47.671100  -87.868700
  H    -56.965300  -46.641900  -88.256200
  C    -58.484600  -46.841900  -89.851200
  H    -59.318100  -47.520600  -90.147700
  H    -58.974400  -45.940300  -89.551800
  H    -57.794800  -46.655600  -90.737700
  S    -55.013900  -50.033600  -82.753600
  C    -56.027600  -50.736500  -81.518900
  C    -57.154300  -51.326900  -82.057400
  C    -57.342200  -51.036200  -83.425600
  C    -56.223400  -50.404500  -83.918900
  H    -57.807200  -51.900900  -81.446000
  C    -58.589900  -51.551100  -84.210300
  H    -58.540200  -51.265200  -85.248400
  H    -59.564500  -51.104200  -83.842700
  C    -58.985600  -53.060200  -84.117900
  H    -59.986100  -53.208700  -84.558100
  H    -59.133800  -53.477600  -83.036300
  C    -58.093400  -54.087000  -84.844300
  H    -58.077100  -53.627000  -85.826700
  H    -58.538100  -55.140100  -84.801100
  H    -57.082900  -54.153000  -84.461400
  H    -54.210600  -49.516900  -88.364900
  H    -55.851700  -51.047600  -80.472500

 Total Charge           Charge          ....    0
 Multiplicity           Mult            ....    1
 Number of Electrons    NEL             ....  134
 Basis Dimension        Dim             ....  322

ORBITAL ENERGIES
----------------

  NO   OCC          E(Eh)            E(eV)
   0   2.0000     -88.972292     -2421.0592
   1   2.0000     -88.970243     -2421.0034
   2   2.0000     -10.330706      -281.1128
   3   2.0000     -10.325107      -280.9605
   4   2.0000     -10.316016      -280.7131
   5   2.0000     -10.315021      -280.6860
   6   2.0000     -10.306479      -280.4535
   7   2.0000     -10.305139      -280.4171
   8   2.0000     -10.304069      -280.3880
   9   2.0000     -10.297807      -280.2176
  10   2.0000     -10.297721      -280.2152
  11   2.0000     -10.297095      -280.1982
  12   2.0000     -10.294375      -280.1242
  13   2.0000     -10.289403      -279.9889
  14   2.0000     -10.288921      -279.9758
  15   2.0000     -10.276589      -279.6402
  16   2.0000      -8.087278      -220.0660
  17   2.0000      -8.084532      -219.9913
  18   2.0000      -6.045839      -164.5156
  19   2.0000      -6.042994      -164.4382
  20   2.0000      -6.041832      -164.4066
  21   2.0000      -6.039061      -164.3312
  22   2.0000      -6.037874      -164.2989
  23   2.0000      -6.035441      -164.2327
  24   2.0000      -1.011194       -27.5160
  25   2.0000      -0.982106       -26.7245
  26   2.0000      -0.907112       -24.6838
  27   2.0000      -0.901028       -24.5182
  28   2.0000      -0.867806       -23.6142
  29   2.0000      -0.853005       -23.2114
  30   2.0000      -0.844963       -22.9926
  31   2.0000      -0.811952       -22.0943
  32   2.0000      -0.784437       -21.3456
  33   2.0000      -0.771604       -20.9964
  34   2.0000      -0.706894       -19.2356
  35   2.0000      -0.688958       -18.7475
  36   2.0000      -0.686333       -18.6761
  37   2.0000      -0.659086       -17.9346
  38   2.0000      -0.637744       -17.3539
  39   2.0000      -0.619394       -16.8546
  40   2.0000      -0.592914       -16.1340
  41   2.0000      -0.572766       -15.5858
  42   2.0000      -0.557565       -15.1721
  43   2.0000      -0.545673       -14.8485
  44   2.0000      -0.536377       -14.5956
  45   2.0000      -0.521013       -14.1775
  46   2.0000      -0.512575       -13.9479
  47   2.0000      -0.509018       -13.8511
  48   2.0000      -0.501944       -13.6586
  49   2.0000      -0.497540       -13.5388
  50   2.0000      -0.495316       -13.4782
  51   2.0000      -0.479733       -13.0542
  52   2.0000      -0.469144       -12.7661
  53   2.0000      -0.460986       -12.5441
  54   2.0000      -0.456632       -12.4256
  55   2.0000      -0.454384       -12.3644
  56   2.0000      -0.449455       -12.2303
  57   2.0000      -0.435208       -11.8426
  58   2.0000      -0.432574       -11.7709
  59   2.0000      -0.426492       -11.6054
  60   2.0000      -0.421871       -11.4797
  61   2.0000      -0.411984       -11.2107
  62   2.0000      -0.407188       -11.0801
  63   2.0000      -0.348165        -9.4740
  64   2.0000      -0.335804        -9.1377
  65   2.0000      -0.333099        -9.0641
  66   2.0000      -0.286216        -7.7883
  67   0.0000       0.025715         0.6997
  68   0.0000       0.073334         1.9955
  69   0.0000       0.108490         2.9522
  70   0.0000       0.119485         3.2514
  71   0.0000       0.129054         3.5117

MULLIKEN ATOMIC CHARGES
-----------------------
   0 S :    0.118074
   1 C :   -0.124665
   2 C :   -0.100374
   3 C :    0.016792
   4 C :   -0.160187
   5 H :    0.021590
   6 C :    0.089075
   7 H :    0.035066
   8 H :    0.015528
   9 C :   -0.127326
  10 H :    0.036390
  11 H :    0.052408
  12 C :   -0.057999
  13 H :    0.034384
  14 H :    0.036813
  15 H :    0.047695
  16 S :    0.132331
  17 C :   -0.081804
  18 C :   -0.053764
  19 C :    0.005703
  20 C :   -0.168904
  21 H :    0.005429
  22 C :    0.071291
  23 H :    0.014798
  24 H :    0.044465
  25 C :   -0.138315
  26 H :    0.031713
  27 H :    0.033506
  28 C :   -0.056622
  29 H :    0.028824
  30 H :    0.047979
  31 H :    0.041614
  32 H :    0.047909
  33 H :    0.060583
Sum of atomic charges:    0.0000000

LOEWDIN ATOMIC CHARGES
----------------------
   0 S :    0.407133
   1 C :   -0.206423
   2 C :   -0.058987
   3 C :   -0.067961
   4 C :   -0.189208
   5 H :    0.030874
   6 C :   -0.034888
   7 H :    0.030047
   8 H :    0.030352
   9 C :   -0.046714
  10 H :    0.024843
  11 H :    0.034339
  12 C :   -0.070245
  13 H :    0.027907
  14 H :    0.024612
  15 H :    0.031783
  16 S :    0.427931
  17 C :   -0.204149
  18 C :   -0.059514
  19 C :   -0.057008
  20 C :   -0.207192
  21 H :    0.024958
  22 C :   -0.032344
  23 H :    0.024110
  24 H :    0.044327
  25 C :   -0.053499
  26 H :    0.026267
  27 H :    0.024617
  28 C :   -0.073666
  29 H :    0.024319
  30 H :    0.035327
  31 H :    0.022795
  32 H :    0.025462
  33 H :    0.039799

  Mayer bond orders larger than 0.100000
B(  0-S ,  1-C ) :   1.1454 B(  0-S ,  4-C ) :   1.1589 B(  1-C ,  2-C ) :   1.5915
B(  1-C ,  4-C ) :   0.1055 B(  1-C , 32-H ) :   0.9641 B(  2-C ,  3-C ) :   1.2512
B(  2-C ,  6-C ) :   1.0241 B(  3-C ,  4-C ) :   1.5558 B(  3-C ,  5-H ) :   0.9865
B(  4-C , 20-C ) :   1.0444 B(  6-C ,  7-H ) :   0.9315 B(  6-C ,  8-H ) :   0.9386
B(  6-C ,  9-C ) :   1.0625 B(  9-C , 10-H ) :   0.9528 B(  9-C , 11-H ) :   0.9590
B(  9-C , 12-C ) :   1.0829 B( 12-C , 13-H ) :   0.9739 B( 12-C , 14-H ) :   0.9744
B( 12-C , 15-H ) :   0.9757 B( 16-S , 17-C ) :   1.1345 B( 16-S , 20-C ) :   1.1522
B( 17-C , 18-C ) :   1.6376 B( 17-C , 33-H ) :   0.9574 B( 18-C , 19-C ) :   1.2419
B( 18-C , 21-H ) :   0.9881 B( 19-C , 20-C ) :   1.5849 B( 19-C , 22-C ) :   1.0341
B( 22-C , 23-H ) :   0.9338 B( 22-C , 24-H ) :   0.9335 B( 22-C , 25-C ) :   1.0682
B( 25-C , 26-H ) :   0.9555 B( 25-C , 27-H ) :   0.9537 B( 25-C , 28-C ) :   1.0632
B( 28-C , 29-H ) :   0.9756 B( 28-C , 30-H ) :   0.9735 B( 28-C , 31-H ) :   0.9787

Dispersion correction           -0.013806504
FINAL SINGLE POINT ENERGY     -1339.874364375708

DIPOLE MOMENT
-------------
                                X             Y             Z
Electronic contribution:     22.20662       1.52071      16.26114
Nuclear contribution   :    -22.81358      -1.60023     -16.49842
                        -----------------------------------------
Total Dipole Moment    :     -0.60696      -0.07952      -0.23729
                        -----------------------------------------
Magnitude (a.u.)       :      0.65653
Magnitude (Debye)      :      1.66877

Rotational constants in cm-1:     0.018431     0.007966     0.006757
Rotational constants in MHz :   552.559271   238.828034   202.565829

                             ****ORCA TERMINATED NORMALLY****
TOTAL RUN TIME: 0 days 0 hours 0 minutes 20 seconds 198 msec
