                         Program Version 4.2.1 -  RELEASE  -
|  1> ! wB97X-D3 SP def2-SVP
|  2> %pal
|  3> nprocs 24
|  4> end
|  5>
|  6> * xyz 0 1
|  7> S 	 -86.6408 	 -31.6545 	 -58.1408
|  8> C 	 -85.3053 	 -32.6508 	 -57.8344
|  9> C 	 -84.178 	 -32.0016 	 -57.39
| 10> C 	 -84.4583 	 -30.641 	 -57.2024
| 11> C 	 -85.7978 	 -30.2924 	 -57.4678
| 12> H 	 -83.8585 	 -29.8632 	 -56.8614
| 13> C 	 -82.8859 	 -32.6959 	 -56.9961
| 14> H 	 -82.9922 	 -33.4189 	 -56.1895
| 15> H 	 -82.2573 	 -31.9472 	 -56.474
| 16> C 	 -82.157 	 -33.3592 	 -58.1461
| 17> H 	 -81.2862 	 -33.8751 	 -57.6935
| 18> H 	 -82.8115 	 -34.1435 	 -58.4186
| 19> C 	 -81.7924 	 -32.4907 	 -59.35
| 20> H 	 -81.1833 	 -32.9381 	 -60.1503
| 21> H 	 -82.6632 	 -32.1883 	 -59.948
| 22> H 	 -81.2066 	 -31.6326 	 -59.0562
| 23> S 	 -85.9454 	 -27.8819 	 -58.8783
| 24> C 	 -86.7531 	 -26.4854 	 -58.1353
| 25> C 	 -86.9637 	 -26.7859 	 -56.8022
| 26> C 	 -86.8684 	 -28.1671 	 -56.5201
| 27> C 	 -86.3215 	 -28.9593 	 -57.5435
| 28> H 	 -87.1929 	 -25.8948 	 -56.1439
| 29> C 	 -87.1311 	 -28.7142 	 -55.1162
| 30> H 	 -86.7359 	 -29.7716 	 -55.0459
| 31> H 	 -88.1721 	 -28.8476 	 -54.8722
| 32> C 	 -86.4062 	 -27.8724 	 -54.0209
| 33> H 	 -86.905 	 -26.8803 	 -53.8693
| 34> H 	 -85.4187 	 -27.7376 	 -54.4116
| 35> C 	 -86.1625 	 -28.5372 	 -52.7335
| 36> H 	 -87.0215 	 -28.6768 	 -52.1548
| 37> H 	 -85.322 	 -28.2068 	 -52.1344
| 38> H 	 -85.8444 	 -29.5727 	 -52.9131
| 39> H 	 -85.4204 	 -33.7304 	 -57.927
| 40> H 	 -86.719 	 -25.5212 	 -58.6673
| 41> *
| 42>
| 43>                          ****END OF INPUT****

CARTESIAN COORDINATES (ANGSTROEM)
---------------------------------
  S    -86.640800  -31.654500  -58.140800
  C    -85.305300  -32.650800  -57.834400
  C    -84.178000  -32.001600  -57.390000
  C    -84.458300  -30.641000  -57.202400
  C    -85.797800  -30.292400  -57.467800
  H    -83.858500  -29.863200  -56.861400
  C    -82.885900  -32.695900  -56.996100
  H    -82.992200  -33.418900  -56.189500
  H    -82.257300  -31.947200  -56.474000
  C    -82.157000  -33.359200  -58.146100
  H    -81.286200  -33.875100  -57.693500
  H    -82.811500  -34.143500  -58.418600
  C    -81.792400  -32.490700  -59.350000
  H    -81.183300  -32.938100  -60.150300
  H    -82.663200  -32.188300  -59.948000
  H    -81.206600  -31.632600  -59.056200
  S    -85.945400  -27.881900  -58.878300
  C    -86.753100  -26.485400  -58.135300
  C    -86.963700  -26.785900  -56.802200
  C    -86.868400  -28.167100  -56.520100
  C    -86.321500  -28.959300  -57.543500
  H    -87.192900  -25.894800  -56.143900
  C    -87.131100  -28.714200  -55.116200
  H    -86.735900  -29.771600  -55.045900
  H    -88.172100  -28.847600  -54.872200
  C    -86.406200  -27.872400  -54.020900
  H    -86.905000  -26.880300  -53.869300
  H    -85.418700  -27.737600  -54.411600
  C    -86.162500  -28.537200  -52.733500
  H    -87.021500  -28.676800  -52.154800
  H    -85.322000  -28.206800  -52.134400
  H    -85.844400  -29.572700  -52.913100
  H    -85.420400  -33.730400  -57.927000
  H    -86.719000  -25.521200  -58.667300

 Total Charge           Charge          ....    0
 Multiplicity           Mult            ....    1
 Number of Electrons    NEL             ....  134
 Basis Dimension        Dim             ....  322

ORBITAL ENERGIES
----------------

  NO   OCC          E(Eh)            E(eV)
   0   2.0000     -88.967320     -2420.9238
   1   2.0000     -88.959307     -2420.7058
   2   2.0000     -10.323780      -280.9243
   3   2.0000     -10.323530      -280.9175
   4   2.0000     -10.321833      -280.8714
   5   2.0000     -10.310279      -280.5570
   6   2.0000     -10.304417      -280.3974
   7   2.0000     -10.299320      -280.2588
   8   2.0000     -10.298677      -280.2412
   9   2.0000     -10.293177      -280.0916
  10   2.0000     -10.291898      -280.0568
  11   2.0000     -10.289751      -279.9984
  12   2.0000     -10.284948      -279.8677
  13   2.0000     -10.281690      -279.7790
  14   2.0000     -10.276023      -279.6248
  15   2.0000     -10.266286      -279.3599
  16   2.0000      -8.083293      -219.9576
  17   2.0000      -8.073882      -219.7015
  18   2.0000      -6.041367      -164.3940
  19   2.0000      -6.037605      -164.2916
  20   2.0000      -6.034456      -164.2059
  21   2.0000      -6.032294      -164.1471
  22   2.0000      -6.028453      -164.0426
  23   2.0000      -6.024686      -163.9400
  24   2.0000      -1.010576       -27.4992
  25   2.0000      -0.986299       -26.8386
  26   2.0000      -0.914677       -24.8896
  27   2.0000      -0.907841       -24.7036
  28   2.0000      -0.871251       -23.7079
  29   2.0000      -0.853146       -23.2153
  30   2.0000      -0.848228       -23.0814
  31   2.0000      -0.811678       -22.0869
  32   2.0000      -0.786370       -21.3982
  33   2.0000      -0.768975       -20.9249
  34   2.0000      -0.705073       -19.1860
  35   2.0000      -0.700746       -19.0683
  36   2.0000      -0.697242       -18.9729
  37   2.0000      -0.654223       -17.8023
  38   2.0000      -0.648260       -17.6400
  39   2.0000      -0.612040       -16.6545
  40   2.0000      -0.596474       -16.2309
  41   2.0000      -0.576981       -15.7005
  42   2.0000      -0.568981       -15.4828
  43   2.0000      -0.550226       -14.9724
  44   2.0000      -0.541174       -14.7261
  45   2.0000      -0.524304       -14.2670
  46   2.0000      -0.520584       -14.1658
  47   2.0000      -0.512551       -13.9472
  48   2.0000      -0.504704       -13.7337
  49   2.0000      -0.491634       -13.3781
  50   2.0000      -0.487900       -13.2764
  51   2.0000      -0.477645       -12.9974
  52   2.0000      -0.475629       -12.9425
  53   2.0000      -0.465431       -12.6650
  54   2.0000      -0.459896       -12.5144
  55   2.0000      -0.448375       -12.2009
  56   2.0000      -0.443519       -12.0688
  57   2.0000      -0.440138       -11.9768
  58   2.0000      -0.421791       -11.4775
  59   2.0000      -0.419458       -11.4140
  60   2.0000      -0.417607       -11.3637
  61   2.0000      -0.415348       -11.3022
  62   2.0000      -0.409910       -11.1542
  63   2.0000      -0.339720        -9.2442
  64   2.0000      -0.326767        -8.8918
  65   2.0000      -0.314596        -8.5606
  66   2.0000      -0.311575        -8.4784
  67   0.0000       0.042455         1.1553
  68   0.0000       0.045961         1.2506
  69   0.0000       0.113460         3.0874
  70   0.0000       0.124271         3.3816
  71   0.0000       0.128142         3.4869

MULLIKEN ATOMIC CHARGES
-----------------------
   0 S :    0.137991
   1 C :   -0.137661
   2 C :   -0.044445
   3 C :    0.050682
   4 C :   -0.215649
   5 H :   -0.013652
   6 C :    0.062355
   7 H :    0.033591
   8 H :    0.012337
   9 C :   -0.049403
  10 H :    0.028745
  11 H :    0.013900
  12 C :   -0.052285
  13 H :    0.030182
  14 H :    0.042611
  15 H :    0.027859
  16 S :    0.091255
  17 C :   -0.119445
  18 C :   -0.048209
  19 C :   -0.030219
  20 C :   -0.137134
  21 H :    0.050354
  22 C :    0.061176
  23 H :    0.031077
  24 H :    0.032007
  25 C :   -0.092102
  26 H :    0.040237
  27 H :    0.023631
  28 C :   -0.013192
  29 H :    0.014644
  30 H :    0.033201
  31 H :    0.006356
  32 H :    0.052889
  33 H :    0.076317
Sum of atomic charges:    0.0000000

LOEWDIN ATOMIC CHARGES
----------------------
   0 S :    0.448877
   1 C :   -0.205635
   2 C :   -0.069865
   3 C :   -0.040411
   4 C :   -0.213468
   5 H :    0.021986
   6 C :   -0.031945
   7 H :    0.034495
   8 H :    0.027670
   9 C :   -0.040373
  10 H :    0.028372
  11 H :    0.017259
  12 C :   -0.072884
  13 H :    0.030182
  14 H :    0.032079
  15 H :    0.023715
  16 S :    0.390565
  17 C :   -0.177844
  18 C :   -0.081082
  19 C :   -0.054883
  20 C :   -0.212339
  21 H :    0.046036
  22 C :   -0.031415
  23 H :    0.034299
  24 H :    0.025956
  25 C :   -0.044990
  26 H :    0.026211
  27 H :    0.024714
  28 C :   -0.067587
  29 H :    0.015330
  30 H :    0.029420
  31 H :    0.027329
  32 H :    0.025660
  33 H :    0.034566

  Mayer bond orders larger than 0.100000
B(  0-S ,  1-C ) :   1.1925 B(  0-S ,  4-C ) :   1.1655 B(  1-C ,  2-C ) :   1.5537
B(  1-C ,  4-C ) :   0.1050 B(  1-C , 32-H ) :   0.9666 B(  2-C ,  3-C ) :   1.2711
B(  2-C ,  6-C ) :   1.0080 B(  3-C ,  4-C ) :   1.5442 B(  3-C ,  5-H ) :   1.0126
B(  4-C , 20-C ) :   1.0367 B(  6-C ,  7-H ) :   0.9427 B(  6-C ,  8-H ) :   0.9403
B(  6-C ,  9-C ) :   1.0754 B(  9-C , 10-H ) :   0.9528 B(  9-C , 11-H ) :   0.9561
B(  9-C , 12-C ) :   1.0742 B( 12-C , 13-H ) :   0.9737 B( 12-C , 14-H ) :   0.9697
B( 12-C , 15-H ) :   0.9773 B( 16-S , 17-C ) :   1.1691 B( 16-S , 20-C ) :   1.1441
B( 17-C , 18-C ) :   1.5800 B( 17-C , 20-C ) :   0.1062 B( 17-C , 33-H ) :   0.9655
B( 18-C , 19-C ) :   1.2581 B( 18-C , 21-H ) :   0.9830 B( 19-C , 20-C ) :   1.5683
B( 19-C , 22-C ) :   1.0469 B( 22-C , 23-H ) :   0.9327 B( 22-C , 24-H ) :   0.9339
B( 22-C , 25-C ) :   1.0611 B( 25-C , 26-H ) :   0.9462 B( 25-C , 27-H ) :   0.9566
B( 25-C , 28-C ) :   1.1037 B( 28-C , 29-H ) :   0.9700 B( 28-C , 30-H ) :   0.9719
B( 28-C , 31-H ) :   0.9621

Dispersion correction           -0.014429539
FINAL SINGLE POINT ENERGY     -1339.869583020057

DIPOLE MOMENT
-------------
                                X             Y             Z
Electronic contribution:    -13.88900       5.44167     -15.30092
Nuclear contribution   :     14.29863      -5.51104      15.75508
                        -----------------------------------------
Total Dipole Moment    :      0.40963      -0.06937       0.45416
                        -----------------------------------------
Magnitude (a.u.)       :      0.61553
Magnitude (Debye)      :      1.56454

Rotational constants in cm-1:     0.019191     0.008198     0.006982
Rotational constants in MHz :   575.331273   245.780985   209.305040

                             ****ORCA TERMINATED NORMALLY****
TOTAL RUN TIME: 0 days 0 hours 0 minutes 22 seconds 899 msec
