                         Program Version 4.2.1 -  RELEASE  -
|  1> ! wB97X-D3 SP def2-SVP
|  2> %pal
|  3> nprocs 24
|  4> end
|  5>
|  6> * xyz 0 1
|  7> S 	 -96.4077 	 6.2626 	 -1.88466
|  8> C 	 -97.3364 	 7.54412 	 -2.72839
|  9> C 	 -96.5261 	 8.31036 	 -3.56954
| 10> C 	 -95.1038 	 7.94264 	 -3.36619
| 11> C 	 -94.9022 	 6.93572 	 -2.45437
| 12> H 	 -94.21 	 8.3398 	 -3.88664
| 13> C 	 -96.9063 	 9.40634 	 -4.59837
| 14> H 	 -97.9601 	 9.48034 	 -4.57171
| 15> H 	 -96.613 	 9.16933 	 -5.62681
| 16> C 	 -96.3172 	 10.8227 	 -4.30299
| 17> H 	 -96.5612 	 11.0648 	 -3.29015
| 18> H 	 -95.2276 	 10.8329 	 -4.42382
| 19> C 	 -97.0069 	 11.8767 	 -5.181
| 20> H 	 -96.9086 	 11.6779 	 -6.23539
| 21> H 	 -98.0856 	 11.8563 	 -4.99759
| 22> H 	 -96.6248 	 12.9137 	 -4.83095
| 23> S 	 -93.5428 	 4.65656 	 -1.6898
| 24> C 	 -91.8118 	 4.55524 	 -1.93774
| 25> C 	 -91.2979 	 5.8518 	 -2.0233
| 26> C 	 -92.324 	 6.87517 	 -2.09609
| 27> C 	 -93.5963 	 6.35231 	 -2.06485
| 28> H 	 -90.2205 	 5.96549 	 -2.18612
| 29> C 	 -91.8699 	 8.31609 	 -2.42545
| 30> H 	 -92.0981 	 8.54978 	 -3.44536
| 31> H 	 -90.8084 	 8.29973 	 -2.38168
| 32> C 	 -92.3673 	 9.35461 	 -1.3901
| 33> H 	 -92.019 	 9.07873 	 -0.457121
| 34> H 	 -93.4739 	 9.24687 	 -1.37043
| 35> C 	 -92.0184 	 10.7902 	 -1.76822
| 36> H 	 -92.2442 	 10.9739 	 -2.82793
| 37> H 	 -90.9347 	 10.8568 	 -1.66634
| 38> H 	 -92.4546 	 11.5457 	 -1.11407
| 39> H 	 -98.4361 	 7.45839 	 -2.82795
| 40> H 	 -91.1952 	 3.71689 	 -1.67647
| 41> *
| 42>
| 43>                          ****END OF INPUT****

CARTESIAN COORDINATES (ANGSTROEM)
---------------------------------
  S    -96.407700    6.262600   -1.884660
  C    -97.336400    7.544120   -2.728390
  C    -96.526100    8.310360   -3.569540
  C    -95.103800    7.942640   -3.366190
  C    -94.902200    6.935720   -2.454370
  H    -94.210000    8.339800   -3.886640
  C    -96.906300    9.406340   -4.598370
  H    -97.960100    9.480340   -4.571710
  H    -96.613000    9.169330   -5.626810
  C    -96.317200   10.822700   -4.302990
  H    -96.561200   11.064800   -3.290150
  H    -95.227600   10.832900   -4.423820
  C    -97.006900   11.876700   -5.181000
  H    -96.908600   11.677900   -6.235390
  H    -98.085600   11.856300   -4.997590
  H    -96.624800   12.913700   -4.830950
  S    -93.542800    4.656560   -1.689800
  C    -91.811800    4.555240   -1.937740
  C    -91.297900    5.851800   -2.023300
  C    -92.324000    6.875170   -2.096090
  C    -93.596300    6.352310   -2.064850
  H    -90.220500    5.965490   -2.186120
  C    -91.869900    8.316090   -2.425450
  H    -92.098100    8.549780   -3.445360
  H    -90.808400    8.299730   -2.381680
  C    -92.367300    9.354610   -1.390100
  H    -92.019000    9.078730   -0.457121
  H    -93.473900    9.246870   -1.370430
  C    -92.018400   10.790200   -1.768220
  H    -92.244200   10.973900   -2.827930
  H    -90.934700   10.856800   -1.666340
  H    -92.454600   11.545700   -1.114070
  H    -98.436100    7.458390   -2.827950
  H    -91.195200    3.716890   -1.676470

 Total Charge           Charge          ....    0
 Multiplicity           Mult            ....    1
 Number of Electrons    NEL             ....  134
 Basis Dimension        Dim             ....  322

ORBITAL ENERGIES
----------------

  NO   OCC          E(Eh)            E(eV)
   0   2.0000     -88.966373     -2420.8981
   1   2.0000     -88.964858     -2420.8569
   2   2.0000     -10.333650      -281.1929
   3   2.0000     -10.330414      -281.1049
   4   2.0000     -10.323804      -280.9250
   5   2.0000     -10.318591      -280.7831
   6   2.0000     -10.315633      -280.7027
   7   2.0000     -10.307009      -280.4680
   8   2.0000     -10.299872      -280.2738
   9   2.0000     -10.299241      -280.2566
  10   2.0000     -10.297209      -280.2013
  11   2.0000     -10.290924      -280.0303
  12   2.0000     -10.288506      -279.9645
  13   2.0000     -10.286916      -279.9212
  14   2.0000     -10.278381      -279.6890
  15   2.0000     -10.277613      -279.6681
  16   2.0000      -8.080684      -219.8866
  17   2.0000      -8.080026      -219.8687
  18   2.0000      -6.039424      -164.3411
  19   2.0000      -6.038598      -164.3186
  20   2.0000      -6.035404      -164.2317
  21   2.0000      -6.034493      -164.2069
  22   2.0000      -6.031077      -164.1139
  23   2.0000      -6.030672      -164.1029
  24   2.0000      -1.005837       -27.3702
  25   2.0000      -0.979159       -26.6443
  26   2.0000      -0.910059       -24.7640
  27   2.0000      -0.908648       -24.7256
  28   2.0000      -0.867812       -23.6144
  29   2.0000      -0.851285       -23.1646
  30   2.0000      -0.840625       -22.8746
  31   2.0000      -0.813884       -22.1469
  32   2.0000      -0.780028       -21.2256
  33   2.0000      -0.773591       -21.0505
  34   2.0000      -0.707248       -19.2452
  35   2.0000      -0.701009       -19.0754
  36   2.0000      -0.688761       -18.7421
  37   2.0000      -0.665770       -18.1165
  38   2.0000      -0.639478       -17.4011
  39   2.0000      -0.617130       -16.7930
  40   2.0000      -0.591910       -16.1067
  41   2.0000      -0.575998       -15.6737
  42   2.0000      -0.566266       -15.4089
  43   2.0000      -0.557385       -15.1672
  44   2.0000      -0.525861       -14.3094
  45   2.0000      -0.521999       -14.2043
  46   2.0000      -0.513091       -13.9619
  47   2.0000      -0.509039       -13.8516
  48   2.0000      -0.506045       -13.7702
  49   2.0000      -0.501991       -13.6599
  50   2.0000      -0.493560       -13.4304
  51   2.0000      -0.487207       -13.2576
  52   2.0000      -0.470832       -12.8120
  53   2.0000      -0.467040       -12.7088
  54   2.0000      -0.458078       -12.4649
  55   2.0000      -0.447603       -12.1799
  56   2.0000      -0.443421       -12.0661
  57   2.0000      -0.437632       -11.9086
  58   2.0000      -0.433580       -11.7983
  59   2.0000      -0.431266       -11.7353
  60   2.0000      -0.421592       -11.4721
  61   2.0000      -0.417621       -11.3640
  62   2.0000      -0.410090       -11.1591
  63   2.0000      -0.356541        -9.7020
  64   2.0000      -0.333436        -9.0732
  65   2.0000      -0.325365        -8.8536
  66   2.0000      -0.291505        -7.9322
  67   0.0000       0.021253         0.5783
  68   0.0000       0.074853         2.0369
  69   0.0000       0.095666         2.6032
  70   0.0000       0.113958         3.1009
  71   0.0000       0.124480         3.3873

MULLIKEN ATOMIC CHARGES
-----------------------
   0 S :    0.088487
   1 C :   -0.130643
   2 C :   -0.077273
   3 C :   -0.012747
   4 C :   -0.108153
   5 H :    0.015287
   6 C :    0.075355
   7 H :    0.001473
   8 H :    0.038833
   9 C :   -0.082049
  10 H :    0.028654
  11 H :    0.039660
  12 C :   -0.067473
  13 H :    0.032469
  14 H :    0.028634
  15 H :    0.052153
  16 S :    0.092041
  17 C :   -0.087475
  18 C :   -0.057993
  19 C :   -0.078603
  20 C :   -0.107729
  21 H :    0.033912
  22 C :    0.072519
  23 H :    0.029411
  24 H :   -0.001394
  25 C :   -0.064729
  26 H :    0.012743
  27 H :    0.041136
  28 C :   -0.025329
  29 H :    0.026590
  30 H :    0.020176
  31 H :    0.042701
  32 H :    0.066782
  33 H :    0.062575
Sum of atomic charges:    0.0000000

LOEWDIN ATOMIC CHARGES
----------------------
   0 S :    0.379583
   1 C :   -0.193334
   2 C :   -0.050186
   3 C :   -0.071210
   4 C :   -0.184711
   5 H :    0.034484
   6 C :   -0.026627
   7 H :    0.020938
   8 H :    0.033761
   9 C :   -0.037148
  10 H :    0.022619
  11 H :    0.022416
  12 C :   -0.068867
  13 H :    0.020637
  14 H :    0.024375
  15 H :    0.039177
  16 S :    0.405368
  17 C :   -0.186597
  18 C :   -0.071237
  19 C :   -0.058106
  20 C :   -0.195543
  21 H :    0.034375
  22 C :   -0.022412
  23 H :    0.022415
  24 H :    0.022252
  25 C :   -0.034539
  26 H :    0.014514
  27 H :    0.027000
  28 C :   -0.063564
  29 H :    0.024720
  30 H :    0.023151
  31 H :    0.028525
  32 H :    0.034210
  33 H :    0.029558

  Mayer bond orders larger than 0.100000
B(  0-S ,  1-C ) :   1.1143 B(  0-S ,  4-C ) :   1.1327 B(  1-C ,  2-C ) :   1.6557
B(  1-C , 32-H ) :   0.9590 B(  2-C ,  3-C ) :   1.1870 B(  2-C ,  6-C ) :   1.0297
B(  3-C ,  4-C ) :   1.6205 B(  3-C ,  5-H ) :   0.9816 B(  4-C , 20-C ) :   1.0425
B(  6-C ,  7-H ) :   0.9413 B(  6-C ,  8-H ) :   0.9414 B(  6-C ,  9-C ) :   1.0588
B(  9-C , 10-H ) :   0.9566 B(  9-C , 11-H ) :   0.9559 B(  9-C , 12-C ) :   1.0838
B( 12-C , 13-H ) :   0.9753 B( 12-C , 14-H ) :   0.9742 B( 12-C , 15-H ) :   0.9735
B( 16-S , 17-C ) :   1.1544 B( 16-S , 20-C ) :   1.1367 B( 17-C , 18-C ) :   1.6136
B( 17-C , 33-H ) :   0.9649 B( 18-C , 19-C ) :   1.2531 B( 18-C , 21-H ) :   0.9833
B( 19-C , 20-C ) :   1.5955 B( 19-C , 22-C ) :   1.0327 B( 22-C , 23-H ) :   0.9365
B( 22-C , 24-H ) :   0.9274 B( 22-C , 25-C ) :   1.0549 B( 25-C , 26-H ) :   0.9540
B( 25-C , 27-H ) :   0.9583 B( 25-C , 28-C ) :   1.0831 B( 28-C , 29-H ) :   0.9736
B( 28-C , 30-H ) :   0.9735 B( 28-C , 31-H ) :   0.9734

Dispersion correction           -0.014276016
FINAL SINGLE POINT ENERGY     -1339.879751971712

DIPOLE MOMENT
-------------
                                X             Y             Z
Electronic contribution:     -3.15339     -31.70058       9.90850
Nuclear contribution   :      3.44340      32.25140     -10.30807
                        -----------------------------------------
Total Dipole Moment    :      0.29000       0.55082      -0.39957
                        -----------------------------------------
Magnitude (a.u.)       :      0.73970
Magnitude (Debye)      :      1.88017

Rotational constants in cm-1:     0.018290     0.009166     0.006617
Rotational constants in MHz :   548.328631   274.776416   198.373728

                             ****ORCA TERMINATED NORMALLY****
TOTAL RUN TIME: 0 days 0 hours 0 minutes 20 seconds 687 msec
