                         Program Version 4.2.1 -  RELEASE  -
|  1> ! wB97X-D3 SP def2-SVP
|  2> %pal
|  3> nprocs 24
|  4> end
|  5>
|  6> * xyz 0 1
|  7> S 	 -108.993 	 53.3392 	 -72.387
|  8> C 	 -109.254 	 53.9107 	 -74.0178
|  9> C 	 -108.136 	 53.7935 	 -74.8209
| 10> C 	 -106.996 	 53.3127 	 -74.0482
| 11> C 	 -107.289 	 53.2005 	 -72.7208
| 12> H 	 -105.967 	 53.1445 	 -74.407
| 13> C 	 -107.964 	 54.1833 	 -76.2722
| 14> H 	 -106.966 	 54.401 	 -76.5469
| 15> H 	 -108.574 	 55.028 	 -76.4044
| 16> C 	 -108.44 	 53.1299 	 -77.2576
| 17> H 	 -107.75 	 52.2749 	 -76.9726
| 18> H 	 -109.46 	 52.8605 	 -77.1546
| 19> C 	 -108.245 	 53.5195 	 -78.6863
| 20> H 	 -107.274 	 53.9325 	 -78.953
| 21> H 	 -108.178 	 52.5965 	 -79.2202
| 22> H 	 -109.042 	 54.2129 	 -79.105
| 23> S 	 -106.054 	 51.1988 	 -71.4297
| 24> C 	 -104.699 	 51.5887 	 -70.3862
| 25> C 	 -104.432 	 52.9194 	 -70.2715
| 26> C 	 -105.318 	 53.7227 	 -71.0846
| 27> C 	 -106.265 	 52.9298 	 -71.7463
| 28> H 	 -103.632 	 53.1706 	 -69.6483
| 29> C 	 -105.131 	 55.2597 	 -71.1969
| 30> H 	 -105.085 	 55.4965 	 -72.2495
| 31> H 	 -104.132 	 55.4684 	 -70.9114
| 32> C 	 -105.986 	 56.1487 	 -70.2641
| 33> H 	 -105.613 	 56.1065 	 -69.2809
| 34> H 	 -106.908 	 55.5878 	 -70.1415
| 35> C 	 -106.135 	 57.6177 	 -70.7327
| 36> H 	 -105.279 	 58.3553 	 -70.5629
| 37> H 	 -106.942 	 57.9993 	 -70.1843
| 38> H 	 -106.451 	 57.7745 	 -71.8631
| 39> H 	 -110.257 	 54.2161 	 -74.3679
| 40> H 	 -104.072 	 50.8493 	 -69.9345
| 41> *
| 42>
| 43>                          ****END OF INPUT****

CARTESIAN COORDINATES (ANGSTROEM)
---------------------------------
  S    -108.993000   53.339200  -72.387000
  C    -109.254000   53.910700  -74.017800
  C    -108.136000   53.793500  -74.820900
  C    -106.996000   53.312700  -74.048200
  C    -107.289000   53.200500  -72.720800
  H    -105.967000   53.144500  -74.407000
  C    -107.964000   54.183300  -76.272200
  H    -106.966000   54.401000  -76.546900
  H    -108.574000   55.028000  -76.404400
  C    -108.440000   53.129900  -77.257600
  H    -107.750000   52.274900  -76.972600
  H    -109.460000   52.860500  -77.154600
  C    -108.245000   53.519500  -78.686300
  H    -107.274000   53.932500  -78.953000
  H    -108.178000   52.596500  -79.220200
  H    -109.042000   54.212900  -79.105000
  S    -106.054000   51.198800  -71.429700
  C    -104.699000   51.588700  -70.386200
  C    -104.432000   52.919400  -70.271500
  C    -105.318000   53.722700  -71.084600
  C    -106.265000   52.929800  -71.746300
  H    -103.632000   53.170600  -69.648300
  C    -105.131000   55.259700  -71.196900
  H    -105.085000   55.496500  -72.249500
  H    -104.132000   55.468400  -70.911400
  C    -105.986000   56.148700  -70.264100
  H    -105.613000   56.106500  -69.280900
  H    -106.908000   55.587800  -70.141500
  C    -106.135000   57.617700  -70.732700
  H    -105.279000   58.355300  -70.562900
  H    -106.942000   57.999300  -70.184300
  H    -106.451000   57.774500  -71.863100
  H    -110.257000   54.216100  -74.367900
  H    -104.072000   50.849300  -69.934500

 Total Charge           Charge          ....    0
 Multiplicity           Mult            ....    1
 Number of Electrons    NEL             ....  134
 Basis Dimension        Dim             ....  322

ORBITAL ENERGIES
----------------

  NO   OCC          E(Eh)            E(eV)
   0   2.0000     -88.965787     -2420.8821
   1   2.0000     -88.962009     -2420.7793
   2   2.0000     -10.323750      -280.9235
   3   2.0000     -10.320403      -280.8325
   4   2.0000     -10.315456      -280.6978
   5   2.0000     -10.310432      -280.5611
   6   2.0000     -10.308885      -280.5190
   7   2.0000     -10.301916      -280.3294
   8   2.0000     -10.293061      -280.0884
   9   2.0000     -10.287762      -279.9442
  10   2.0000     -10.287306      -279.9318
  11   2.0000     -10.284995      -279.8690
  12   2.0000     -10.283086      -279.8170
  13   2.0000     -10.282612      -279.8041
  14   2.0000     -10.281097      -279.7629
  15   2.0000     -10.276961      -279.6503
  16   2.0000      -8.080728      -219.8878
  17   2.0000      -8.076704      -219.7783
  18   2.0000      -6.039191      -164.3348
  19   2.0000      -6.035393      -164.2314
  20   2.0000      -6.035091      -164.2232
  21   2.0000      -6.031352      -164.1214
  22   2.0000      -6.031339      -164.1211
  23   2.0000      -6.027464      -164.0156
  24   2.0000      -1.004466       -27.3329
  25   2.0000      -0.979487       -26.6532
  26   2.0000      -0.918729       -24.9999
  27   2.0000      -0.900238       -24.4967
  28   2.0000      -0.871963       -23.7273
  29   2.0000      -0.850561       -23.1449
  30   2.0000      -0.843791       -22.9607
  31   2.0000      -0.812562       -22.1109
  32   2.0000      -0.783864       -21.3300
  33   2.0000      -0.770174       -20.9575
  34   2.0000      -0.706721       -19.2309
  35   2.0000      -0.696116       -18.9423
  36   2.0000      -0.693092       -18.8600
  37   2.0000      -0.659206       -17.9379
  38   2.0000      -0.643861       -17.5204
  39   2.0000      -0.615881       -16.7590
  40   2.0000      -0.591114       -16.0850
  41   2.0000      -0.582030       -15.8378
  42   2.0000      -0.563643       -15.3375
  43   2.0000      -0.548835       -14.9346
  44   2.0000      -0.522692       -14.2232
  45   2.0000      -0.521090       -14.1796
  46   2.0000      -0.515928       -14.0391
  47   2.0000      -0.507997       -13.8233
  48   2.0000      -0.504399       -13.7254
  49   2.0000      -0.499610       -13.5951
  50   2.0000      -0.493078       -13.4173
  51   2.0000      -0.478624       -13.0240
  52   2.0000      -0.468077       -12.7370
  53   2.0000      -0.464250       -12.6329
  54   2.0000      -0.457463       -12.4482
  55   2.0000      -0.449742       -12.2381
  56   2.0000      -0.444576       -12.0975
  57   2.0000      -0.437289       -11.8992
  58   2.0000      -0.435173       -11.8417
  59   2.0000      -0.422898       -11.5076
  60   2.0000      -0.422221       -11.4892
  61   2.0000      -0.413074       -11.2403
  62   2.0000      -0.402400       -10.9499
  63   2.0000      -0.336849        -9.1661
  64   2.0000      -0.326983        -8.8977
  65   2.0000      -0.317042        -8.6272
  66   2.0000      -0.308745        -8.4014
  67   0.0000       0.050428         1.3722
  68   0.0000       0.052120         1.4183
  69   0.0000       0.115242         3.1359
  70   0.0000       0.119287         3.2460
  71   0.0000       0.130183         3.5425

MULLIKEN ATOMIC CHARGES
-----------------------
   0 S :    0.124087
   1 C :   -0.139184
   2 C :   -0.076844
   3 C :    0.034215
   4 C :   -0.163861
   5 H :    0.026245
   6 C :    0.128525
   7 H :    0.006314
   8 H :    0.004426
   9 C :   -0.094919
  10 H :    0.029866
  11 H :    0.025250
  12 C :   -0.032280
  13 H :    0.014412
  14 H :    0.025635
  15 H :    0.048357
  16 S :    0.103745
  17 C :   -0.081379
  18 C :   -0.020047
  19 C :   -0.035423
  20 C :   -0.207908
  21 H :   -0.001035
  22 C :    0.114102
  23 H :    0.024071
  24 H :   -0.006580
  25 C :   -0.024306
  26 H :    0.013923
  27 H :    0.027037
  28 C :   -0.085049
  29 H :    0.047817
  30 H :    0.026095
  31 H :    0.048807
  32 H :    0.051949
  33 H :    0.043936
Sum of atomic charges:   -0.0000000

LOEWDIN ATOMIC CHARGES
----------------------
   0 S :    0.405969
   1 C :   -0.201041
   2 C :   -0.056605
   3 C :   -0.056341
   4 C :   -0.211929
   5 H :    0.037374
   6 C :   -0.025137
   7 H :    0.024220
   8 H :    0.022498
   9 C :   -0.038658
  10 H :    0.030781
  11 H :    0.020154
  12 C :   -0.072852
  13 H :    0.021617
  14 H :    0.028062
  15 H :    0.034047
  16 S :    0.392587
  17 C :   -0.175877
  18 C :   -0.069036
  19 C :   -0.045240
  20 C :   -0.193068
  21 H :    0.025357
  22 C :   -0.029304
  23 H :    0.030738
  24 H :    0.023103
  25 C :   -0.035742
  26 H :    0.021098
  27 H :    0.026181
  28 C :   -0.077107
  29 H :    0.032926
  30 H :    0.019426
  31 H :    0.038857
  32 H :    0.030366
  33 H :    0.022577

  Mayer bond orders larger than 0.100000
B(  0-S ,  1-C ) :   1.1296 B(  0-S ,  4-C ) :   1.1396 B(  1-C ,  2-C ) :   1.6362
B(  1-C , 32-H ) :   0.9650 B(  2-C ,  3-C ) :   1.2055 B(  2-C ,  6-C ) :   1.0263
B(  3-C ,  4-C ) :   1.6153 B(  3-C ,  5-H ) :   0.9889 B(  4-C , 20-C ) :   1.0191
B(  6-C ,  7-H ) :   0.9414 B(  6-C ,  8-H ) :   0.9301 B(  6-C ,  9-C ) :   1.0684
B(  9-C , 10-H ) :   0.9562 B(  9-C , 11-H ) :   0.9549 B(  9-C , 12-C ) :   1.0922
B( 12-C , 13-H ) :   0.9674 B( 12-C , 14-H ) :   0.9690 B( 12-C , 15-H ) :   0.9720
B( 16-S , 17-C ) :   1.1426 B( 16-S , 20-C ) :   1.1445 B( 17-C , 18-C ) :   1.6583
B( 17-C , 33-H ) :   0.9643 B( 18-C , 19-C ) :   1.1992 B( 18-C , 21-H ) :   0.9984
B( 19-C , 20-C ) :   1.6302 B( 19-C , 22-C ) :   1.0384 B( 22-C , 23-H ) :   0.9404
B( 22-C , 24-H ) :   0.9251 B( 22-C , 25-C ) :   1.0487 B( 25-C , 26-H ) :   0.9490
B( 25-C , 27-H ) :   0.9625 B( 25-C , 28-C ) :   1.0675 B( 28-C , 29-H ) :   0.9761
B( 28-C , 30-H ) :   0.9735 B( 28-C , 31-H ) :   0.9768

Dispersion correction           -0.013800188
FINAL SINGLE POINT ENERGY     -1339.858815547590

DIPOLE MOMENT
-------------
                                X             Y             Z
Electronic contribution:     -2.81887     -17.80154      15.33982
Nuclear contribution   :      3.13704      18.16376     -15.65759
                        -----------------------------------------
Total Dipole Moment    :      0.31817       0.36223      -0.31777
                        -----------------------------------------
Magnitude (a.u.)       :      0.57742
Magnitude (Debye)      :      1.46769

Rotational constants in cm-1:     0.018117     0.007867     0.006664
Rotational constants in MHz :   543.144195   235.837353   199.788120

                             ****ORCA TERMINATED NORMALLY****
TOTAL RUN TIME: 0 days 0 hours 0 minutes 21 seconds 284 msec
