                         Program Version 4.2.1 -  RELEASE  -
|  1> ! wB97X-D3 SP def2-SVP
|  2> %pal
|  3> nprocs 24
|  4> end
|  5>
|  6> * xyz 0 1
|  7> S 	 -117.789 	 16.9028 	 -113.062
|  8> C 	 -119.45 	 17.2533 	 -113.485
|  9> C 	 -119.73 	 16.9641 	 -114.779
| 10> C 	 -118.623 	 16.489 	 -115.537
| 11> C 	 -117.457 	 16.39 	 -114.781
| 12> H 	 -118.527 	 16.0641 	 -116.487
| 13> C 	 -121.1 	 16.9852 	 -115.377
| 14> H 	 -121.875 	 17.0737 	 -114.597
| 15> H 	 -121.279 	 16.0664 	 -115.9
| 16> C 	 -121.246 	 18.166 	 -116.415
| 17> H 	 -122.273 	 18.5187 	 -116.375
| 18> H 	 -120.693 	 19.0781 	 -115.976
| 19> C 	 -120.726 	 17.8385 	 -117.8
| 20> H 	 -119.671 	 17.9632 	 -117.722
| 21> H 	 -121.02 	 16.8091 	 -118.067
| 22> H 	 -121.2 	 18.4532 	 -118.567
| 23> S 	 -115.747 	 14.2348 	 -114.394
| 24> C 	 -114.137 	 14.3303 	 -115.023
| 25> C 	 -114.08 	 15.2987 	 -116.052
| 26> C 	 -115.169 	 16.1997 	 -115.987
| 27> C 	 -116.156 	 15.7754 	 -115.13
| 28> H 	 -113.168 	 15.495 	 -116.634
| 29> C 	 -115.313 	 17.3873 	 -116.905
| 30> H 	 -114.408 	 18.0016 	 -117.022
| 31> H 	 -115.99 	 18.0704 	 -116.328
| 32> C 	 -115.885 	 17.1055 	 -118.3
| 33> H 	 -116.738 	 16.4255 	 -118.271
| 34> H 	 -115.139 	 16.4447 	 -118.716
| 35> C 	 -116.354 	 18.2883 	 -119.135
| 36> H 	 -115.551 	 19.0781 	 -119.348
| 37> H 	 -117.183 	 18.7926 	 -118.599
| 38> H 	 -116.721 	 17.9306 	 -120.073
| 39> H 	 -120.196 	 17.5462 	 -112.83
| 40> H 	 -113.417 	 13.4937 	 -114.874
| 41> *
| 42>
| 43>                          ****END OF INPUT****

CARTESIAN COORDINATES (ANGSTROEM)
---------------------------------
  S    -117.789000   16.902800  -113.062000
  C    -119.450000   17.253300  -113.485000
  C    -119.730000   16.964100  -114.779000
  C    -118.623000   16.489000  -115.537000
  C    -117.457000   16.390000  -114.781000
  H    -118.527000   16.064100  -116.487000
  C    -121.100000   16.985200  -115.377000
  H    -121.875000   17.073700  -114.597000
  H    -121.279000   16.066400  -115.900000
  C    -121.246000   18.166000  -116.415000
  H    -122.273000   18.518700  -116.375000
  H    -120.693000   19.078100  -115.976000
  C    -120.726000   17.838500  -117.800000
  H    -119.671000   17.963200  -117.722000
  H    -121.020000   16.809100  -118.067000
  H    -121.200000   18.453200  -118.567000
  S    -115.747000   14.234800  -114.394000
  C    -114.137000   14.330300  -115.023000
  C    -114.080000   15.298700  -116.052000
  C    -115.169000   16.199700  -115.987000
  C    -116.156000   15.775400  -115.130000
  H    -113.168000   15.495000  -116.634000
  C    -115.313000   17.387300  -116.905000
  H    -114.408000   18.001600  -117.022000
  H    -115.990000   18.070400  -116.328000
  C    -115.885000   17.105500  -118.300000
  H    -116.738000   16.425500  -118.271000
  H    -115.139000   16.444700  -118.716000
  C    -116.354000   18.288300  -119.135000
  H    -115.551000   19.078100  -119.348000
  H    -117.183000   18.792600  -118.599000
  H    -116.721000   17.930600  -120.073000
  H    -120.196000   17.546200  -112.830000
  H    -113.417000   13.493700  -114.874000

 Total Charge           Charge          ....    0
 Multiplicity           Mult            ....    1
 Number of Electrons    NEL             ....  134
 Basis Dimension        Dim             ....  322

ORBITAL ENERGIES
----------------

  NO   OCC          E(Eh)            E(eV)
   0   2.0000     -88.966889     -2420.9121
   1   2.0000     -88.963532     -2420.8208
   2   2.0000     -10.335473      -281.2425
   3   2.0000     -10.325475      -280.9705
   4   2.0000     -10.323672      -280.9214
   5   2.0000     -10.307400      -280.4786
   6   2.0000     -10.301635      -280.3217
   7   2.0000     -10.298266      -280.2301
   8   2.0000     -10.296750      -280.1888
   9   2.0000     -10.294338      -280.1232
  10   2.0000     -10.291755      -280.0529
  11   2.0000     -10.290913      -280.0300
  12   2.0000     -10.289925      -280.0031
  13   2.0000     -10.285925      -279.8943
  14   2.0000     -10.285385      -279.8795
  15   2.0000     -10.278611      -279.6952
  16   2.0000      -8.081945      -219.9209
  17   2.0000      -8.077309      -219.7948
  18   2.0000      -6.040294      -164.3647
  19   2.0000      -6.036475      -164.2608
  20   2.0000      -6.035827      -164.2432
  21   2.0000      -6.032778      -164.1602
  22   2.0000      -6.032039      -164.1401
  23   2.0000      -6.028012      -164.0306
  24   2.0000      -1.004905       -27.3449
  25   2.0000      -0.984081       -26.7782
  26   2.0000      -0.909304       -24.7434
  27   2.0000      -0.908443       -24.7200
  28   2.0000      -0.867398       -23.6031
  29   2.0000      -0.854164       -23.2430
  30   2.0000      -0.845573       -23.0092
  31   2.0000      -0.816360       -22.2143
  32   2.0000      -0.782737       -21.2993
  33   2.0000      -0.770588       -20.9688
  34   2.0000      -0.703028       -19.1304
  35   2.0000      -0.697148       -18.9704
  36   2.0000      -0.694919       -18.9097
  37   2.0000      -0.662722       -18.0336
  38   2.0000      -0.651913       -17.7394
  39   2.0000      -0.614469       -16.7206
  40   2.0000      -0.597345       -16.2546
  41   2.0000      -0.570666       -15.5286
  42   2.0000      -0.559198       -15.2165
  43   2.0000      -0.549899       -14.9635
  44   2.0000      -0.536499       -14.5989
  45   2.0000      -0.524621       -14.2757
  46   2.0000      -0.514966       -14.0129
  47   2.0000      -0.513231       -13.9657
  48   2.0000      -0.510397       -13.8886
  49   2.0000      -0.499325       -13.5873
  50   2.0000      -0.489850       -13.3295
  51   2.0000      -0.487202       -13.2575
  52   2.0000      -0.469955       -12.7881
  53   2.0000      -0.464998       -12.6532
  54   2.0000      -0.460449       -12.5294
  55   2.0000      -0.447006       -12.1637
  56   2.0000      -0.441578       -12.0160
  57   2.0000      -0.434847       -11.8328
  58   2.0000      -0.432232       -11.7616
  59   2.0000      -0.428156       -11.6507
  60   2.0000      -0.421748       -11.4764
  61   2.0000      -0.413406       -11.2493
  62   2.0000      -0.407398       -11.0859
  63   2.0000      -0.339849        -9.2477
  64   2.0000      -0.332894        -9.0585
  65   2.0000      -0.323674        -8.8076
  66   2.0000      -0.302386        -8.2283
  67   0.0000       0.029504         0.8028
  68   0.0000       0.059429         1.6171
  69   0.0000       0.110123         2.9966
  70   0.0000       0.120522         3.2796
  71   0.0000       0.124293         3.3822

MULLIKEN ATOMIC CHARGES
-----------------------
   0 S :    0.101717
   1 C :   -0.085219
   2 C :   -0.066759
   3 C :    0.071314
   4 C :   -0.185648
   5 H :   -0.005237
   6 C :    0.069618
   7 H :    0.018479
   8 H :    0.025549
   9 C :   -0.120148
  10 H :    0.024395
  11 H :    0.036380
  12 C :   -0.020169
  13 H :    0.043459
  14 H :    0.024553
  15 H :    0.038846
  16 S :    0.122554
  17 C :   -0.116887
  18 C :   -0.037457
  19 C :   -0.025596
  20 C :   -0.181806
  21 H :    0.033242
  22 C :    0.044536
  23 H :    0.025591
  24 H :    0.027610
  25 C :   -0.056985
  26 H :    0.013350
  27 H :    0.013454
  28 C :   -0.044591
  29 H :    0.040605
  30 H :    0.043533
  31 H :    0.033640
  32 H :    0.015696
  33 H :    0.078379
Sum of atomic charges:    0.0000000

LOEWDIN ATOMIC CHARGES
----------------------
   0 S :    0.373115
   1 C :   -0.181473
   2 C :   -0.065687
   3 C :   -0.050789
   4 C :   -0.166499
   5 H :    0.025208
   6 C :   -0.026158
   7 H :    0.029683
   8 H :    0.025998
   9 C :   -0.045826
  10 H :    0.018089
  11 H :    0.031354
  12 C :   -0.065035
  13 H :    0.024049
  14 H :    0.025302
  15 H :    0.030621
  16 S :    0.419817
  17 C :   -0.194589
  18 C :   -0.074621
  19 C :   -0.056233
  20 C :   -0.206937
  21 H :    0.034721
  22 C :   -0.037623
  23 H :    0.029962
  24 H :    0.032626
  25 C :   -0.045867
  26 H :    0.021863
  27 H :    0.021163
  28 C :   -0.064509
  29 H :    0.031261
  30 H :    0.030248
  31 H :    0.024847
  32 H :    0.016084
  33 H :    0.035836

  Mayer bond orders larger than 0.100000
B(  0-S ,  1-C ) :   1.1260 B(  0-S ,  4-C ) :   1.1329 B(  1-C ,  2-C ) :   1.6503
B(  1-C , 32-H ) :   0.9704 B(  2-C ,  3-C ) :   1.1915 B(  2-C ,  6-C ) :   1.0363
B(  3-C ,  4-C ) :   1.6107 B(  3-C ,  5-H ) :   0.9943 B(  4-C , 20-C ) :   1.0181
B(  6-C ,  7-H ) :   0.9411 B(  6-C ,  8-H ) :   0.9454 B(  6-C ,  9-C ) :   1.0504
B(  9-C , 10-H ) :   0.9612 B(  9-C , 11-H ) :   0.9588 B(  9-C , 12-C ) :   1.0681
B( 12-C , 13-H ) :   0.9715 B( 12-C , 14-H ) :   0.9740 B( 12-C , 15-H ) :   0.9708
B( 16-S , 17-C ) :   1.1784 B( 16-S , 20-C ) :   1.1570 B( 17-C , 18-C ) :   1.5684
B( 17-C , 20-C ) :   0.1051 B( 17-C , 33-H ) :   0.9625 B( 18-C , 19-C ) :   1.2692
B( 18-C , 21-H ) :   0.9801 B( 19-C , 20-C ) :   1.5866 B( 19-C , 22-C ) :   1.0570
B( 22-C , 23-H ) :   0.9341 B( 22-C , 24-H ) :   0.9253 B( 22-C , 25-C ) :   1.0553
B( 25-C , 26-H ) :   0.9511 B( 25-C , 27-H ) :   0.9500 B( 25-C , 28-C ) :   1.0798
B( 28-C , 29-H ) :   0.9733 B( 28-C , 30-H ) :   0.9709 B( 28-C , 31-H ) :   0.9725

Dispersion correction           -0.015450050
FINAL SINGLE POINT ENERGY     -1339.877490977998

DIPOLE MOMENT
-------------
                                X             Y             Z
Electronic contribution:     11.33898     -13.67423      24.75858
Nuclear contribution   :    -11.59982      13.71606     -25.35589
                        -----------------------------------------
Total Dipole Moment    :     -0.26084       0.04184      -0.59731
                        -----------------------------------------
Magnitude (a.u.)       :      0.65312
Magnitude (Debye)      :      1.66011

Rotational constants in cm-1:     0.017115     0.010388     0.007231
Rotational constants in MHz :   513.084469   311.422092   216.775728

                             ****ORCA TERMINATED NORMALLY****
TOTAL RUN TIME: 0 days 0 hours 0 minutes 22 seconds 634 msec
