                         Program Version 4.2.1 -  RELEASE  -
|  1> ! wB97X-D3 SP def2-SVP
|  2> %pal
|  3> nprocs 24
|  4> end
|  5>
|  6> * xyz 0 1
|  7> S 	 -119.491 	 20.0128 	 -23.4208
|  8> C 	 -118.036 	 19.1012 	 -23.1133
|  9> C 	 -117.331 	 19.6043 	 -21.9884
| 10> C 	 -117.984 	 20.769 	 -21.5132
| 11> C 	 -119.194 	 21.1231 	 -22.1
| 12> H 	 -117.728 	 21.3503 	 -20.6398
| 13> C 	 -115.95 	 19.1747 	 -21.4328
| 14> H 	 -115.951 	 18.1024 	 -21.309
| 15> H 	 -115.848 	 19.5563 	 -20.4355
| 16> C 	 -114.8 	 19.5872 	 -22.3145
| 17> H 	 -115.032 	 19.1542 	 -23.3254
| 18> H 	 -114.698 	 20.6754 	 -22.307
| 19> C 	 -113.437 	 18.9611 	 -21.9693
| 20> H 	 -113.532 	 17.9332 	 -21.5365
| 21> H 	 -112.893 	 18.7477 	 -22.9178
| 22> H 	 -112.896 	 19.6711 	 -21.3492
| 23> S 	 -121.711 	 21.7691 	 -21.4956
| 24> C 	 -122.116 	 23.3329 	 -20.9808
| 25> C 	 -120.996 	 24.0761 	 -20.6956
| 26> C 	 -119.777 	 23.4379 	 -21.1577
| 27> C 	 -120.024 	 22.189 	 -21.6871
| 28> H 	 -120.957 	 25.0273 	 -20.1488
| 29> C 	 -118.485 	 24.1168 	 -21.1623
| 30> H 	 -118.633 	 25.0053 	 -21.7989
| 31> H 	 -117.76 	 23.5915 	 -21.8401
| 32> C 	 -117.755 	 24.3627 	 -19.8994
| 33> H 	 -117.934 	 23.4557 	 -19.3468
| 34> H 	 -118.164 	 25.2323 	 -19.4488
| 35> C 	 -116.258 	 24.581 	 -19.9363
| 36> H 	 -115.675 	 23.6792 	 -20.2371
| 37> H 	 -115.864 	 24.8562 	 -18.9956
| 38> H 	 -115.94 	 25.3682 	 -20.5802
| 39> H 	 -117.716 	 18.2684 	 -23.6502
| 40> H 	 -123.094 	 23.6199 	 -20.6225
| 41> *
| 42>
| 43>                          ****END OF INPUT****

CARTESIAN COORDINATES (ANGSTROEM)
---------------------------------
  S    -119.491000   20.012800  -23.420800
  C    -118.036000   19.101200  -23.113300
  C    -117.331000   19.604300  -21.988400
  C    -117.984000   20.769000  -21.513200
  C    -119.194000   21.123100  -22.100000
  H    -117.728000   21.350300  -20.639800
  C    -115.950000   19.174700  -21.432800
  H    -115.951000   18.102400  -21.309000
  H    -115.848000   19.556300  -20.435500
  C    -114.800000   19.587200  -22.314500
  H    -115.032000   19.154200  -23.325400
  H    -114.698000   20.675400  -22.307000
  C    -113.437000   18.961100  -21.969300
  H    -113.532000   17.933200  -21.536500
  H    -112.893000   18.747700  -22.917800
  H    -112.896000   19.671100  -21.349200
  S    -121.711000   21.769100  -21.495600
  C    -122.116000   23.332900  -20.980800
  C    -120.996000   24.076100  -20.695600
  C    -119.777000   23.437900  -21.157700
  C    -120.024000   22.189000  -21.687100
  H    -120.957000   25.027300  -20.148800
  C    -118.485000   24.116800  -21.162300
  H    -118.633000   25.005300  -21.798900
  H    -117.760000   23.591500  -21.840100
  C    -117.755000   24.362700  -19.899400
  H    -117.934000   23.455700  -19.346800
  H    -118.164000   25.232300  -19.448800
  C    -116.258000   24.581000  -19.936300
  H    -115.675000   23.679200  -20.237100
  H    -115.864000   24.856200  -18.995600
  H    -115.940000   25.368200  -20.580200
  H    -117.716000   18.268400  -23.650200
  H    -123.094000   23.619900  -20.622500

 Total Charge           Charge          ....    0
 Multiplicity           Mult            ....    1
 Number of Electrons    NEL             ....  134
 Basis Dimension        Dim             ....  322

ORBITAL ENERGIES
----------------

  NO   OCC          E(Eh)            E(eV)
   0   2.0000     -88.970148     -2421.0008
   1   2.0000     -88.961937     -2420.7774
   2   2.0000     -10.324709      -280.9496
   3   2.0000     -10.321902      -280.8732
   4   2.0000     -10.314989      -280.6851
   5   2.0000     -10.313121      -280.6343
   6   2.0000     -10.305666      -280.4314
   7   2.0000     -10.299915      -280.2749
   8   2.0000     -10.294816      -280.1362
   9   2.0000     -10.291586      -280.0483
  10   2.0000     -10.290009      -280.0054
  11   2.0000     -10.288635      -279.9680
  12   2.0000     -10.284198      -279.8473
  13   2.0000     -10.283696      -279.8336
  14   2.0000     -10.280348      -279.7425
  15   2.0000     -10.275626      -279.6140
  16   2.0000      -8.084377      -219.9871
  17   2.0000      -8.078116      -219.8167
  18   2.0000      -6.042825      -164.4336
  19   2.0000      -6.038813      -164.3245
  20   2.0000      -6.036519      -164.2620
  21   2.0000      -6.035374      -164.2309
  22   2.0000      -6.032494      -164.1525
  23   2.0000      -6.028813      -164.0523
  24   2.0000      -1.012825       -27.5604
  25   2.0000      -0.985603       -26.8196
  26   2.0000      -0.922834       -25.1116
  27   2.0000      -0.913635       -24.8613
  28   2.0000      -0.875176       -23.8148
  29   2.0000      -0.858984       -23.3741
  30   2.0000      -0.847124       -23.0514
  31   2.0000      -0.812050       -22.0970
  32   2.0000      -0.787170       -21.4200
  33   2.0000      -0.776182       -21.1210
  34   2.0000      -0.711371       -19.3574
  35   2.0000      -0.699899       -19.0452
  36   2.0000      -0.692563       -18.8456
  37   2.0000      -0.665584       -18.1115
  38   2.0000      -0.644290       -17.5320
  39   2.0000      -0.617757       -16.8100
  40   2.0000      -0.602340       -16.3905
  41   2.0000      -0.579657       -15.7733
  42   2.0000      -0.575487       -15.6598
  43   2.0000      -0.562385       -15.3033
  44   2.0000      -0.529442       -14.4068
  45   2.0000      -0.526468       -14.3259
  46   2.0000      -0.516578       -14.0568
  47   2.0000      -0.514396       -13.9974
  48   2.0000      -0.509220       -13.8566
  49   2.0000      -0.502474       -13.6730
  50   2.0000      -0.496043       -13.4980
  51   2.0000      -0.484631       -13.1875
  52   2.0000      -0.473947       -12.8967
  53   2.0000      -0.469401       -12.7730
  54   2.0000      -0.462038       -12.5727
  55   2.0000      -0.455449       -12.3934
  56   2.0000      -0.440405       -11.9840
  57   2.0000      -0.435323       -11.8457
  58   2.0000      -0.430058       -11.7025
  59   2.0000      -0.425955       -11.5908
  60   2.0000      -0.422478       -11.4962
  61   2.0000      -0.413084       -11.2406
  62   2.0000      -0.406172       -11.0525
  63   2.0000      -0.352911        -9.6032
  64   2.0000      -0.333065        -9.0632
  65   2.0000      -0.327046        -8.8994
  66   2.0000      -0.286856        -7.8057
  67   0.0000       0.025790         0.7018
  68   0.0000       0.074739         2.0337
  69   0.0000       0.109604         2.9825
  70   0.0000       0.119233         3.2445
  71   0.0000       0.126583         3.4445

MULLIKEN ATOMIC CHARGES
-----------------------
   0 S :    0.128572
   1 C :   -0.103090
   2 C :   -0.087517
   3 C :    0.018054
   4 C :   -0.151820
   5 H :   -0.007420
   6 C :    0.100390
   7 H :    0.016053
   8 H :    0.014228
   9 C :   -0.089998
  10 H :    0.030559
  11 H :    0.037047
  12 C :   -0.058319
  13 H :    0.033616
  14 H :    0.039054
  15 H :    0.041850
  16 S :    0.103960
  17 C :   -0.064101
  18 C :   -0.039446
  19 C :   -0.048811
  20 C :   -0.137550
  21 H :    0.024866
  22 C :    0.009106
  23 H :    0.030223
  24 H :    0.018209
  25 C :   -0.026074
  26 H :    0.027709
  27 H :    0.019589
  28 C :   -0.029623
  29 H :    0.026940
  30 H :    0.020394
  31 H :    0.019831
  32 H :    0.026756
  33 H :    0.056761
Sum of atomic charges:   -0.0000000

LOEWDIN ATOMIC CHARGES
----------------------
   0 S :    0.420010
   1 C :   -0.190507
   2 C :   -0.056778
   3 C :   -0.063010
   4 C :   -0.207260
   5 H :    0.025649
   6 C :   -0.028664
   7 H :    0.027226
   8 H :    0.025534
   9 C :   -0.043810
  10 H :    0.029007
  11 H :    0.026688
  12 C :   -0.072586
  13 H :    0.028583
  14 H :    0.032194
  15 H :    0.024638
  16 S :    0.425729
  17 C :   -0.198876
  18 C :   -0.069794
  19 C :   -0.058367
  20 C :   -0.193676
  21 H :    0.034058
  22 C :   -0.050470
  23 H :    0.035252
  24 H :    0.035124
  25 C :   -0.038344
  26 H :    0.025423
  27 H :    0.021470
  28 C :   -0.059910
  29 H :    0.027082
  30 H :    0.022907
  31 H :    0.021075
  32 H :    0.014924
  33 H :    0.029480

  Mayer bond orders larger than 0.100000
B(  0-S ,  1-C ) :   1.1625 B(  0-S ,  4-C ) :   1.1440 B(  1-C ,  2-C ) :   1.5582
B(  1-C ,  4-C ) :   0.1090 B(  1-C , 32-H ) :   0.9773 B(  2-C ,  3-C ) :   1.2824
B(  2-C ,  6-C ) :   1.0269 B(  3-C ,  4-C ) :   1.5457 B(  3-C ,  5-H ) :   0.9892
B(  4-C , 20-C ) :   1.0756 B(  6-C ,  7-H ) :   0.9310 B(  6-C ,  8-H ) :   0.9382
B(  6-C ,  9-C ) :   1.0757 B(  9-C , 10-H ) :   0.9603 B(  9-C , 11-H ) :   0.9585
B(  9-C , 12-C ) :   1.0705 B( 12-C , 13-H ) :   0.9729 B( 12-C , 14-H ) :   0.9787
B( 12-C , 15-H ) :   0.9786 B( 16-S , 17-C ) :   1.1636 B( 16-S , 20-C ) :   1.1390
B( 17-C , 18-C ) :   1.5949 B( 17-C , 33-H ) :   0.9672 B( 18-C , 19-C ) :   1.2379
B( 18-C , 21-H ) :   0.9884 B( 19-C , 20-C ) :   1.5881 B( 19-C , 22-C ) :   1.0690
B( 22-C , 23-H ) :   0.9192 B( 22-C , 24-H ) :   0.9335 B( 22-C , 25-C ) :   1.0507
B( 25-C , 26-H ) :   0.9523 B( 25-C , 27-H ) :   0.9466 B( 25-C , 28-C ) :   1.1076
B( 28-C , 29-H ) :   0.9698 B( 28-C , 30-H ) :   0.9708 B( 28-C , 31-H ) :   0.9711

Dispersion correction           -0.014151975
FINAL SINGLE POINT ENERGY     -1339.874778192881

DIPOLE MOMENT
-------------
                                X             Y             Z
Electronic contribution:    -31.46674      -5.16577      -8.62274
Nuclear contribution   :     32.09040       5.38061       9.00475
                        -----------------------------------------
Total Dipole Moment    :      0.62366       0.21484       0.38201
                        -----------------------------------------
Magnitude (a.u.)       :      0.76226
Magnitude (Debye)      :      1.93752

Rotational constants in cm-1:     0.018361     0.009042     0.006357
Rotational constants in MHz :   550.441128   271.068287   190.574582

                             ****ORCA TERMINATED NORMALLY****
TOTAL RUN TIME: 0 days 0 hours 0 minutes 20 seconds 749 msec
