                         Program Version 4.2.1 -  RELEASE  -
|  1> ! wB97X-D3 SP def2-SVP
|  2> %pal
|  3> nprocs 24
|  4> end
|  5>
|  6> * xyz 0 1
|  7> S 	 -49.565 	 22.1959 	 27.0137
|  8> C 	 -49.8277 	 21.4878 	 25.4565
|  9> C 	 -48.7229 	 20.792 	 25.0275
| 10> C 	 -47.8883 	 20.5495 	 26.1452
| 11> C 	 -48.2129 	 21.1714 	 27.3664
| 12> H 	 -47.0368 	 19.9264 	 26.168
| 13> C 	 -48.5994 	 20.0452 	 23.7227
| 14> H 	 -47.7863 	 19.3537 	 23.9465
| 15> H 	 -48.219 	 20.7778 	 23.054
| 16> C 	 -49.8577 	 19.2495 	 23.2313
| 17> H 	 -50.6932 	 19.9322 	 23.1364
| 18> H 	 -49.5844 	 18.9879 	 22.2269
| 19> C 	 -50.0636 	 17.9568 	 24.0685
| 20> H 	 -50.1997 	 18.2235 	 25.1348
| 21> H 	 -50.9577 	 17.3984 	 23.785
| 22> H 	 -49.2886 	 17.3044 	 23.9899
| 23> S 	 -46.9245 	 22.814 	 29.0697
| 24> C 	 -46.1954 	 22.0949 	 30.5048
| 25> C 	 -46.0218 	 20.7045 	 30.3137
| 26> C 	 -46.8163 	 20.1396 	 29.2749
| 27> C 	 -47.3916 	 21.1932 	 28.5491
| 28> H 	 -45.4112 	 20.058 	 30.8954
| 29> C 	 -46.9792 	 18.6481 	 29.059
| 30> H 	 -46.0113 	 18.1542 	 29.0683
| 31> H 	 -47.4113 	 18.6039 	 28.0402
| 32> C 	 -47.9047 	 17.9256 	 30.097
| 33> H 	 -47.482 	 18.3178 	 31.0347
| 34> H 	 -47.7386 	 16.8864 	 29.9835
| 35> C 	 -49.4671 	 18.2564 	 29.8865
| 36> H 	 -49.4457 	 19.3294 	 29.9708
| 37> H 	 -50.0706 	 17.6466 	 30.6122
| 38> H 	 -49.8713 	 18.1044 	 28.9125
| 39> H 	 -50.5701 	 21.6048 	 24.7171
| 40> H 	 -45.7124 	 22.7161 	 31.2372
| 41> *
| 42>
| 43>                          ****END OF INPUT****

CARTESIAN COORDINATES (ANGSTROEM)
---------------------------------
  S    -49.565000   22.195900   27.013700
  C    -49.827700   21.487800   25.456500
  C    -48.722900   20.792000   25.027500
  C    -47.888300   20.549500   26.145200
  C    -48.212900   21.171400   27.366400
  H    -47.036800   19.926400   26.168000
  C    -48.599400   20.045200   23.722700
  H    -47.786300   19.353700   23.946500
  H    -48.219000   20.777800   23.054000
  C    -49.857700   19.249500   23.231300
  H    -50.693200   19.932200   23.136400
  H    -49.584400   18.987900   22.226900
  C    -50.063600   17.956800   24.068500
  H    -50.199700   18.223500   25.134800
  H    -50.957700   17.398400   23.785000
  H    -49.288600   17.304400   23.989900
  S    -46.924500   22.814000   29.069700
  C    -46.195400   22.094900   30.504800
  C    -46.021800   20.704500   30.313700
  C    -46.816300   20.139600   29.274900
  C    -47.391600   21.193200   28.549100
  H    -45.411200   20.058000   30.895400
  C    -46.979200   18.648100   29.059000
  H    -46.011300   18.154200   29.068300
  H    -47.411300   18.603900   28.040200
  C    -47.904700   17.925600   30.097000
  H    -47.482000   18.317800   31.034700
  H    -47.738600   16.886400   29.983500
  C    -49.467100   18.256400   29.886500
  H    -49.445700   19.329400   29.970800
  H    -50.070600   17.646600   30.612200
  H    -49.871300   18.104400   28.912500
  H    -50.570100   21.604800   24.717100
  H    -45.712400   22.716100   31.237200

 Total Charge           Charge          ....    0
 Multiplicity           Mult            ....    1
 Number of Electrons    NEL             ....  134
 Basis Dimension        Dim             ....  322

ORBITAL ENERGIES
----------------

  NO   OCC          E(Eh)            E(eV)
   0   2.0000     -88.967808     -2420.9371
   1   2.0000     -88.967424     -2420.9267
   2   2.0000     -10.329078      -281.0685
   3   2.0000     -10.324290      -280.9382
   4   2.0000     -10.320577      -280.8372
   5   2.0000     -10.306968      -280.4669
   6   2.0000     -10.303594      -280.3750
   7   2.0000     -10.296519      -280.1825
   8   2.0000     -10.294730      -280.1338
   9   2.0000     -10.294683      -280.1326
  10   2.0000     -10.294068      -280.1158
  11   2.0000     -10.291359      -280.0421
  12   2.0000     -10.289949      -280.0037
  13   2.0000     -10.288116      -279.9539
  14   2.0000     -10.277376      -279.6616
  15   2.0000     -10.276463      -279.6368
  16   2.0000      -8.082226      -219.9286
  17   2.0000      -8.082193      -219.9276
  18   2.0000      -6.040707      -164.3760
  19   2.0000      -6.040615      -164.3735
  20   2.0000      -6.037014      -164.2755
  21   2.0000      -6.036643      -164.2654
  22   2.0000      -6.033009      -164.1665
  23   2.0000      -6.032852      -164.1622
  24   2.0000      -1.008844       -27.4520
  25   2.0000      -0.984021       -26.7766
  26   2.0000      -0.913359       -24.8538
  27   2.0000      -0.902976       -24.5712
  28   2.0000      -0.868287       -23.6273
  29   2.0000      -0.848845       -23.0983
  30   2.0000      -0.843264       -22.9464
  31   2.0000      -0.806885       -21.9564
  32   2.0000      -0.785215       -21.3668
  33   2.0000      -0.775614       -21.1055
  34   2.0000      -0.718643       -19.5553
  35   2.0000      -0.707105       -19.2413
  36   2.0000      -0.695653       -18.9297
  37   2.0000      -0.665509       -18.1094
  38   2.0000      -0.637516       -17.3477
  39   2.0000      -0.607748       -16.5377
  40   2.0000      -0.593311       -16.1448
  41   2.0000      -0.576882       -15.6978
  42   2.0000      -0.559064       -15.2129
  43   2.0000      -0.554502       -15.0888
  44   2.0000      -0.543999       -14.8030
  45   2.0000      -0.533321       -14.5124
  46   2.0000      -0.512480       -13.9453
  47   2.0000      -0.508527       -13.8377
  48   2.0000      -0.499839       -13.6013
  49   2.0000      -0.494523       -13.4567
  50   2.0000      -0.491486       -13.3740
  51   2.0000      -0.475331       -12.9344
  52   2.0000      -0.472919       -12.8688
  53   2.0000      -0.467067       -12.7095
  54   2.0000      -0.464121       -12.6294
  55   2.0000      -0.449126       -12.2213
  56   2.0000      -0.446847       -12.1593
  57   2.0000      -0.441208       -12.0059
  58   2.0000      -0.436013       -11.8645
  59   2.0000      -0.425170       -11.5695
  60   2.0000      -0.422378       -11.4935
  61   2.0000      -0.416116       -11.3231
  62   2.0000      -0.410008       -11.1569
  63   2.0000      -0.342729        -9.3261
  64   2.0000      -0.332746        -9.0545
  65   2.0000      -0.327824        -8.9206
  66   2.0000      -0.285184        -7.7603
  67   0.0000       0.024268         0.6604
  68   0.0000       0.063459         1.7268
  69   0.0000       0.096225         2.6184
  70   0.0000       0.125528         3.4158
  71   0.0000       0.131767         3.5856

MULLIKEN ATOMIC CHARGES
-----------------------
   0 S :    0.128213
   1 C :   -0.081125
   2 C :   -0.118071
   3 C :    0.028616
   4 C :   -0.168705
   5 H :   -0.006861
   6 C :    0.067126
   7 H :    0.014791
   8 H :    0.035733
   9 C :   -0.049588
  10 H :    0.028990
  11 H :    0.023997
  12 C :   -0.023280
  13 H :    0.043875
  14 H :    0.033903
  15 H :    0.012410
  16 S :    0.109201
  17 C :   -0.087493
  18 C :   -0.015115
  19 C :   -0.065914
  20 C :   -0.169142
  21 H :    0.004771
  22 C :    0.055882
  23 H :    0.033159
  24 H :    0.019654
  25 C :   -0.055891
  26 H :    0.031352
  27 H :    0.027543
  28 C :   -0.052135
  29 H :    0.039295
  30 H :    0.051333
  31 H :    0.027478
  32 H :    0.018311
  33 H :    0.057686
Sum of atomic charges:   -0.0000000

LOEWDIN ATOMIC CHARGES
----------------------
   0 S :    0.426293
   1 C :   -0.197783
   2 C :   -0.069865
   3 C :   -0.060020
   4 C :   -0.217805
   5 H :    0.016635
   6 C :   -0.028173
   7 H :    0.030519
   8 H :    0.030907
   9 C :   -0.028815
  10 H :    0.020681
  11 H :    0.023852
  12 C :   -0.055381
  13 H :    0.032853
  14 H :    0.029215
  15 H :    0.011728
  16 S :    0.398277
  17 C :   -0.182705
  18 C :   -0.058050
  19 C :   -0.061709
  20 C :   -0.187075
  21 H :    0.022408
  22 C :   -0.033592
  23 H :    0.033048
  24 H :    0.030341
  25 C :   -0.027990
  26 H :    0.025538
  27 H :    0.014816
  28 C :   -0.064803
  29 H :    0.028692
  30 H :    0.033491
  31 H :    0.020875
  32 H :    0.020694
  33 H :    0.022904

  Mayer bond orders larger than 0.100000
B(  0-S ,  1-C ) :   1.1552 B(  0-S ,  4-C ) :   1.1467 B(  1-C ,  2-C ) :   1.5835
B(  1-C ,  4-C ) :   0.1028 B(  1-C , 32-H ) :   0.9685 B(  2-C ,  3-C ) :   1.2766
B(  2-C ,  6-C ) :   1.0068 B(  3-C ,  4-C ) :   1.5342 B(  3-C ,  5-H ) :   0.9898
B(  4-C , 20-C ) :   1.0682 B(  6-C ,  7-H ) :   0.9491 B(  6-C ,  8-H ) :   0.9240
B(  6-C ,  9-C ) :   1.0750 B(  9-C , 10-H ) :   0.9599 B(  9-C , 11-H ) :   0.9522
B(  9-C , 12-C ) :   1.0653 B( 12-C , 13-H ) :   0.9788 B( 12-C , 14-H ) :   0.9745
B( 12-C , 15-H ) :   0.9748 B( 16-S , 17-C ) :   1.1412 B( 16-S , 20-C ) :   1.1606
B( 17-C , 18-C ) :   1.5834 B( 17-C , 20-C ) :   0.1073 B( 17-C , 33-H ) :   0.9743
B( 18-C , 19-C ) :   1.2501 B( 18-C , 21-H ) :   0.9841 B( 19-C , 20-C ) :   1.5777
B( 19-C , 22-C ) :   1.0448 B( 22-C , 23-H ) :   0.9340 B( 22-C , 24-H ) :   0.9264
B( 22-C , 25-C ) :   1.0622 B( 25-C , 26-H ) :   0.9613 B( 25-C , 27-H ) :   0.9593
B( 25-C , 28-C ) :   1.0561 B( 28-C , 29-H ) :   0.9790 B( 28-C , 30-H ) :   0.9766
B( 28-C , 31-H ) :   0.9778

Dispersion correction           -0.015084293
FINAL SINGLE POINT ENERGY     -1339.849301055073

DIPOLE MOMENT
-------------
                                X             Y             Z
Electronic contribution:      5.84473      25.00250       8.01677
Nuclear contribution   :     -5.61885     -25.62613      -8.42088
                        -----------------------------------------
Total Dipole Moment    :      0.22588      -0.62363      -0.40411
                        -----------------------------------------
Magnitude (a.u.)       :      0.77669
Magnitude (Debye)      :      1.97418

Rotational constants in cm-1:     0.020099     0.009045     0.007232
Rotational constants in MHz :   602.544227   271.148955   216.799659

                             ****ORCA TERMINATED NORMALLY****
TOTAL RUN TIME: 0 days 0 hours 0 minutes 22 seconds 198 msec
