                         Program Version 4.2.1 -  RELEASE  -
|  1> ! wB97X-D3 SP def2-SVP
|  2> %pal
|  3> nprocs 24
|  4> end
|  5>
|  6> * xyz 0 1
|  7> S 	 34.6529 	 -25.8884 	 -119.039
|  8> C 	 36.3247 	 -25.8463 	 -118.462
|  9> C 	 37.072 	 -26.6674 	 -119.248
| 10> C 	 36.4132 	 -27.3866 	 -120.287
| 11> C 	 35.0791 	 -27.1175 	 -120.325
| 12> H 	 36.8506 	 -28.154 	 -120.874
| 13> C 	 38.5027 	 -26.9321 	 -118.92
| 14> H 	 38.8013 	 -26.026 	 -118.352
| 15> H 	 39.1004 	 -27.0246 	 -119.883
| 16> C 	 38.8069 	 -28.2493 	 -118.074
| 17> H 	 38.2717 	 -28.9869 	 -118.629
| 18> H 	 39.8458 	 -28.4815 	 -118.162
| 19> C 	 38.2784 	 -28.1684 	 -116.692
| 20> H 	 38.446 	 -27.2462 	 -116.133
| 21> H 	 37.2623 	 -28.3865 	 -116.691
| 22> H 	 38.6838 	 -28.9647 	 -116.021
| 23> S 	 34.5091 	 -27.693 	 -122.842
| 24> C 	 33.0419 	 -28.6635 	 -123.17
| 25> C 	 32.3519 	 -29.0575 	 -122.058
| 26> C 	 33.022 	 -28.5875 	 -120.902
| 27> C 	 34.1688 	 -27.7984 	 -121.152
| 28> H 	 31.3945 	 -29.5572 	 -122.141
| 29> C 	 32.4488 	 -28.744 	 -119.545
| 30> H 	 31.6124 	 -28.0379 	 -119.499
| 31> H 	 33.1727 	 -28.3728 	 -118.811
| 32> C 	 31.9498 	 -30.1278 	 -119.16
| 33> H 	 31.1567 	 -30.4729 	 -119.809
| 34> H 	 31.5259 	 -29.9845 	 -118.173
| 35> C 	 32.992 	 -31.208 	 -119.075
| 36> H 	 32.5496 	 -32.0987 	 -118.654
| 37> H 	 33.7606 	 -30.9787 	 -118.361
| 38> H 	 33.46 	 -31.3498 	 -120.084
| 39> H 	 36.6942 	 -25.3098 	 -117.611
| 40> H 	 32.7306 	 -28.9072 	 -124.151
| 41> *
| 42>
| 43>                          ****END OF INPUT****

CARTESIAN COORDINATES (ANGSTROEM)
---------------------------------
  S     34.652900  -25.888400  -119.039000
  C     36.324700  -25.846300  -118.462000
  C     37.072000  -26.667400  -119.248000
  C     36.413200  -27.386600  -120.287000
  C     35.079100  -27.117500  -120.325000
  H     36.850600  -28.154000  -120.874000
  C     38.502700  -26.932100  -118.920000
  H     38.801300  -26.026000  -118.352000
  H     39.100400  -27.024600  -119.883000
  C     38.806900  -28.249300  -118.074000
  H     38.271700  -28.986900  -118.629000
  H     39.845800  -28.481500  -118.162000
  C     38.278400  -28.168400  -116.692000
  H     38.446000  -27.246200  -116.133000
  H     37.262300  -28.386500  -116.691000
  H     38.683800  -28.964700  -116.021000
  S     34.509100  -27.693000  -122.842000
  C     33.041900  -28.663500  -123.170000
  C     32.351900  -29.057500  -122.058000
  C     33.022000  -28.587500  -120.902000
  C     34.168800  -27.798400  -121.152000
  H     31.394500  -29.557200  -122.141000
  C     32.448800  -28.744000  -119.545000
  H     31.612400  -28.037900  -119.499000
  H     33.172700  -28.372800  -118.811000
  C     31.949800  -30.127800  -119.160000
  H     31.156700  -30.472900  -119.809000
  H     31.525900  -29.984500  -118.173000
  C     32.992000  -31.208000  -119.075000
  H     32.549600  -32.098700  -118.654000
  H     33.760600  -30.978700  -118.361000
  H     33.460000  -31.349800  -120.084000
  H     36.694200  -25.309800  -117.611000
  H     32.730600  -28.907200  -124.151000

 Total Charge           Charge          ....    0
 Multiplicity           Mult            ....    1
 Number of Electrons    NEL             ....  134
 Basis Dimension        Dim             ....  322

ORBITAL ENERGIES
----------------

  NO   OCC          E(Eh)            E(eV)
   0   2.0000     -88.967627     -2420.9322
   1   2.0000     -88.965321     -2420.8695
   2   2.0000     -10.330628      -281.1107
   3   2.0000     -10.320260      -280.8286
   4   2.0000     -10.316718      -280.7322
   5   2.0000     -10.312696      -280.6227
   6   2.0000     -10.301715      -280.3239
   7   2.0000     -10.295125      -280.1446
   8   2.0000     -10.293909      -280.1115
   9   2.0000     -10.293043      -280.0879
  10   2.0000     -10.290646      -280.0227
  11   2.0000     -10.282386      -279.7979
  12   2.0000     -10.282282      -279.7951
  13   2.0000     -10.279308      -279.7142
  14   2.0000     -10.271218      -279.4941
  15   2.0000     -10.270354      -279.4706
  16   2.0000      -8.082117      -219.9256
  17   2.0000      -8.078317      -219.8222
  18   2.0000      -6.040563      -164.3721
  19   2.0000      -6.037030      -164.2759
  20   2.0000      -6.036727      -164.2677
  21   2.0000      -6.033124      -164.1697
  22   2.0000      -6.032887      -164.1632
  23   2.0000      -6.028884      -164.0543
  24   2.0000      -1.008062       -27.4308
  25   2.0000      -0.982414       -26.7328
  26   2.0000      -0.914055       -24.8727
  27   2.0000      -0.909426       -24.7467
  28   2.0000      -0.880506       -23.9598
  29   2.0000      -0.852050       -23.1855
  30   2.0000      -0.845726       -23.0134
  31   2.0000      -0.821485       -22.3537
  32   2.0000      -0.780350       -21.2344
  33   2.0000      -0.766924       -20.8691
  34   2.0000      -0.717298       -19.5187
  35   2.0000      -0.699812       -19.0429
  36   2.0000      -0.692602       -18.8467
  37   2.0000      -0.663346       -18.0506
  38   2.0000      -0.640674       -17.4336
  39   2.0000      -0.617653       -16.8072
  40   2.0000      -0.599315       -16.3082
  41   2.0000      -0.569063       -15.4850
  42   2.0000      -0.555490       -15.1157
  43   2.0000      -0.546339       -14.8666
  44   2.0000      -0.544984       -14.8298
  45   2.0000      -0.541177       -14.7262
  46   2.0000      -0.526092       -14.3157
  47   2.0000      -0.517761       -14.0890
  48   2.0000      -0.509655       -13.8684
  49   2.0000      -0.494667       -13.4606
  50   2.0000      -0.491446       -13.3729
  51   2.0000      -0.481871       -13.1124
  52   2.0000      -0.467323       -12.7165
  53   2.0000      -0.462749       -12.5920
  54   2.0000      -0.458175       -12.4676
  55   2.0000      -0.451116       -12.2755
  56   2.0000      -0.445547       -12.1239
  57   2.0000      -0.436590       -11.8802
  58   2.0000      -0.430598       -11.7172
  59   2.0000      -0.422459       -11.4957
  60   2.0000      -0.418675       -11.3927
  61   2.0000      -0.412320       -11.2198
  62   2.0000      -0.411567       -11.1993
  63   2.0000      -0.350045        -9.5252
  64   2.0000      -0.337461        -9.1828
  65   2.0000      -0.320742        -8.7278
  66   2.0000      -0.290094        -7.8939
  67   0.0000       0.027479         0.7478
  68   0.0000       0.067427         1.8348
  69   0.0000       0.106791         2.9059
  70   0.0000       0.111372         3.0306
  71   0.0000       0.124651         3.3919

MULLIKEN ATOMIC CHARGES
-----------------------
   0 S :    0.092404
   1 C :   -0.116565
   2 C :   -0.072025
   3 C :    0.032633
   4 C :   -0.128733
   5 H :    0.011518
   6 C :   -0.003008
   7 H :    0.022126
   8 H :    0.036532
   9 C :   -0.012370
  10 H :    0.011997
  11 H :    0.029466
  12 C :   -0.039759
  13 H :    0.025774
  14 H :    0.024707
  15 H :    0.028902
  16 S :    0.112855
  17 C :   -0.074180
  18 C :   -0.031690
  19 C :   -0.028910
  20 C :   -0.179235
  21 H :    0.029823
  22 C :    0.061610
  23 H :    0.039170
  24 H :    0.018666
  25 C :   -0.074592
  26 H :    0.022058
  27 H :    0.021589
  28 C :   -0.034071
  29 H :    0.027478
  30 H :    0.018060
  31 H :    0.047198
  32 H :    0.044283
  33 H :    0.036290
Sum of atomic charges:   -0.0000000

LOEWDIN ATOMIC CHARGES
----------------------
   0 S :    0.362515
   1 C :   -0.186743
   2 C :   -0.071380
   3 C :   -0.055814
   4 C :   -0.166929
   5 H :    0.028927
   6 C :   -0.034863
   7 H :    0.026733
   8 H :    0.034775
   9 C :   -0.032346
  10 H :    0.022023
  11 H :    0.020643
  12 C :   -0.068507
  13 H :    0.023206
  14 H :    0.020764
  15 H :    0.033095
  16 S :    0.410576
  17 C :   -0.158407
  18 C :   -0.067630
  19 C :   -0.052254
  20 C :   -0.212583
  21 H :    0.038842
  22 C :   -0.039210
  23 H :    0.037789
  24 H :    0.024166
  25 C :   -0.043027
  26 H :    0.018950
  27 H :    0.026006
  28 C :   -0.064293
  29 H :    0.025745
  30 H :    0.021162
  31 H :    0.032185
  32 H :    0.029149
  33 H :    0.016734

  Mayer bond orders larger than 0.100000
B(  0-S ,  1-C ) :   1.1081 B(  0-S ,  4-C ) :   1.1048 B(  1-C ,  2-C ) :   1.6378
B(  1-C , 32-H ) :   0.9708 B(  2-C ,  3-C ) :   1.2091 B(  2-C ,  6-C ) :   1.0385
B(  3-C ,  4-C ) :   1.5876 B(  3-C ,  5-H ) :   0.9990 B(  4-C , 20-C ) :   1.0712
B(  6-C ,  7-H ) :   0.9458 B(  6-C ,  8-H ) :   0.9401 B(  6-C ,  9-C ) :   1.0564
B(  9-C , 10-H ) :   0.9530 B(  9-C , 11-H ) :   0.9602 B(  9-C , 12-C ) :   1.0810
B( 12-C , 13-H ) :   0.9763 B( 12-C , 14-H ) :   0.9720 B( 12-C , 15-H ) :   0.9680
B( 16-S , 17-C ) :   1.1530 B( 16-S , 20-C ) :   1.1399 B( 17-C , 18-C ) :   1.6181
B( 17-C , 20-C ) :   0.1015 B( 17-C , 33-H ) :   0.9688 B( 18-C , 19-C ) :   1.2246
B( 18-C , 21-H ) :   0.9924 B( 19-C , 20-C ) :   1.5591 B( 19-C , 22-C ) :   1.0542
B( 22-C , 23-H ) :   0.9285 B( 22-C , 24-H ) :   0.9260 B( 22-C , 25-C ) :   1.0826
B( 25-C , 26-H ) :   0.9520 B( 25-C , 27-H ) :   0.9493 B( 25-C , 28-C ) :   1.0886
B( 28-C , 29-H ) :   0.9710 B( 28-C , 30-H ) :   0.9718 B( 28-C , 31-H ) :   0.9722

Dispersion correction           -0.014921836
FINAL SINGLE POINT ENERGY     -1339.879395183712

DIPOLE MOMENT
-------------
                                X             Y             Z
Electronic contribution:     -6.10181      15.22568     -17.13618
Nuclear contribution   :      6.09471     -15.70121      17.37601
                        -----------------------------------------
Total Dipole Moment    :     -0.00709      -0.47553       0.23982
                        -----------------------------------------
Magnitude (a.u.)       :      0.53263
Magnitude (Debye)      :      1.35383

Rotational constants in cm-1:     0.019332     0.008808     0.007621
Rotational constants in MHz :   579.559860   264.066631   228.457263

                             ****ORCA TERMINATED NORMALLY****
TOTAL RUN TIME: 0 days 0 hours 0 minutes 21 seconds 35 msec
