                         Program Version 4.2.1 -  RELEASE  -
|  1> ! wB97X-D3 SP def2-SVP
|  2> %pal
|  3> nprocs 24
|  4> end
|  5>
|  6> * xyz 0 1
|  7> S 	 -110.869 	 53.0607 	 -86.2363
|  8> C 	 -110.242 	 51.4117 	 -85.9016
|  9> C 	 -111.189 	 50.4348 	 -85.9947
| 10> C 	 -112.415 	 51.0506 	 -86.3461
| 11> C 	 -112.397 	 52.3966 	 -86.7577
| 12> H 	 -113.311 	 50.5247 	 -86.6724
| 13> C 	 -110.988 	 48.9417 	 -85.9246
| 14> H 	 -111.34 	 48.4623 	 -86.8387
| 15> H 	 -111.566 	 48.5183 	 -85.1136
| 16> C 	 -109.576 	 48.3994 	 -85.6041
| 17> H 	 -108.864 	 48.8007 	 -86.2191
| 18> H 	 -109.384 	 48.6867 	 -84.5338
| 19> C 	 -109.438 	 46.8631 	 -85.8226
| 20> H 	 -109.862 	 46.5966 	 -86.7289
| 21> H 	 -108.457 	 46.4636 	 -85.7079
| 22> H 	 -110.056 	 46.2766 	 -85.0789
| 23> S 	 -115.166 	 52.648 	 -86.8162
| 24> C 	 -115.779 	 53.6724 	 -88.0699
| 25> C 	 -114.809 	 54.4686 	 -88.6888
| 26> C 	 -113.474 	 54.1626 	 -88.2882
| 27> C 	 -113.485 	 53.1536 	 -87.3449
| 28> H 	 -114.961 	 55.0872 	 -89.5587
| 29> C 	 -112.203 	 54.9958 	 -88.7882
| 30> H 	 -111.754 	 54.3736 	 -89.5174
| 31> H 	 -111.569 	 54.9761 	 -87.9803
| 32> C 	 -112.579 	 56.3066 	 -89.3288
| 33> H 	 -113.175 	 56.7549 	 -88.5456
| 34> H 	 -113.246 	 56.4591 	 -90.1711
| 35> C 	 -111.311 	 57.1724 	 -89.4798
| 36> H 	 -110.446 	 56.6909 	 -89.7983
| 37> H 	 -111.16 	 57.7256 	 -88.5325
| 38> H 	 -111.551 	 57.9687 	 -90.2193
| 39> H 	 -109.22 	 51.1803 	 -85.6669
| 40> H 	 -116.772 	 53.7989 	 -88.3228
| 41> *
| 42>
| 43>                          ****END OF INPUT****

CARTESIAN COORDINATES (ANGSTROEM)
---------------------------------
  S    -110.869000   53.060700  -86.236300
  C    -110.242000   51.411700  -85.901600
  C    -111.189000   50.434800  -85.994700
  C    -112.415000   51.050600  -86.346100
  C    -112.397000   52.396600  -86.757700
  H    -113.311000   50.524700  -86.672400
  C    -110.988000   48.941700  -85.924600
  H    -111.340000   48.462300  -86.838700
  H    -111.566000   48.518300  -85.113600
  C    -109.576000   48.399400  -85.604100
  H    -108.864000   48.800700  -86.219100
  H    -109.384000   48.686700  -84.533800
  C    -109.438000   46.863100  -85.822600
  H    -109.862000   46.596600  -86.728900
  H    -108.457000   46.463600  -85.707900
  H    -110.056000   46.276600  -85.078900
  S    -115.166000   52.648000  -86.816200
  C    -115.779000   53.672400  -88.069900
  C    -114.809000   54.468600  -88.688800
  C    -113.474000   54.162600  -88.288200
  C    -113.485000   53.153600  -87.344900
  H    -114.961000   55.087200  -89.558700
  C    -112.203000   54.995800  -88.788200
  H    -111.754000   54.373600  -89.517400
  H    -111.569000   54.976100  -87.980300
  C    -112.579000   56.306600  -89.328800
  H    -113.175000   56.754900  -88.545600
  H    -113.246000   56.459100  -90.171100
  C    -111.311000   57.172400  -89.479800
  H    -110.446000   56.690900  -89.798300
  H    -111.160000   57.725600  -88.532500
  H    -111.551000   57.968700  -90.219300
  H    -109.220000   51.180300  -85.666900
  H    -116.772000   53.798900  -88.322800

 Total Charge           Charge          ....    0
 Multiplicity           Mult            ....    1
 Number of Electrons    NEL             ....  134
 Basis Dimension        Dim             ....  322

ORBITAL ENERGIES
----------------

  NO   OCC          E(Eh)            E(eV)
   0   2.0000     -88.970310     -2421.0052
   1   2.0000     -88.965406     -2420.8718
   2   2.0000     -10.329947      -281.0922
   3   2.0000     -10.329515      -281.0804
   4   2.0000     -10.314168      -280.6628
   5   2.0000     -10.311519      -280.5907
   6   2.0000     -10.305457      -280.4257
   7   2.0000     -10.301097      -280.3071
   8   2.0000     -10.295021      -280.1418
   9   2.0000     -10.292828      -280.0821
  10   2.0000     -10.289314      -279.9865
  11   2.0000     -10.289059      -279.9795
  12   2.0000     -10.287746      -279.9438
  13   2.0000     -10.283810      -279.8367
  14   2.0000     -10.278211      -279.6843
  15   2.0000     -10.276918      -279.6492
  16   2.0000      -8.083797      -219.9713
  17   2.0000      -8.079128      -219.8443
  18   2.0000      -6.042331      -164.4202
  19   2.0000      -6.038697      -164.3213
  20   2.0000      -6.037751      -164.2956
  21   2.0000      -6.034389      -164.2041
  22   2.0000      -6.033902      -164.1908
  23   2.0000      -6.029732      -164.0774
  24   2.0000      -1.001137       -27.2423
  25   2.0000      -0.979332       -26.6490
  26   2.0000      -0.919930       -25.0326
  27   2.0000      -0.913045       -24.8452
  28   2.0000      -0.868667       -23.6376
  29   2.0000      -0.851943       -23.1826
  30   2.0000      -0.844258       -22.9734
  31   2.0000      -0.805203       -21.9107
  32   2.0000      -0.789614       -21.4865
  33   2.0000      -0.778089       -21.1729
  34   2.0000      -0.716822       -19.5057
  35   2.0000      -0.710972       -19.3465
  36   2.0000      -0.698565       -19.0089
  37   2.0000      -0.660289       -17.9674
  38   2.0000      -0.630658       -17.1611
  39   2.0000      -0.607142       -16.5212
  40   2.0000      -0.600327       -16.3357
  41   2.0000      -0.577287       -15.7088
  42   2.0000      -0.575847       -15.6696
  43   2.0000      -0.567771       -15.4498
  44   2.0000      -0.541417       -14.7327
  45   2.0000      -0.521118       -14.1803
  46   2.0000      -0.514495       -14.0001
  47   2.0000      -0.510104       -13.8806
  48   2.0000      -0.509771       -13.8716
  49   2.0000      -0.499044       -13.5797
  50   2.0000      -0.487759       -13.2726
  51   2.0000      -0.480674       -13.0798
  52   2.0000      -0.472825       -12.8662
  53   2.0000      -0.464011       -12.6264
  54   2.0000      -0.460762       -12.5380
  55   2.0000      -0.452184       -12.3046
  56   2.0000      -0.448800       -12.2125
  57   2.0000      -0.444208       -12.0875
  58   2.0000      -0.430003       -11.7010
  59   2.0000      -0.428453       -11.6588
  60   2.0000      -0.420221       -11.4348
  61   2.0000      -0.413857       -11.2616
  62   2.0000      -0.411676       -11.2023
  63   2.0000      -0.349949        -9.5226
  64   2.0000      -0.335308        -9.1242
  65   2.0000      -0.330223        -8.9858
  66   2.0000      -0.280677        -7.6376
  67   0.0000       0.019263         0.5242
  68   0.0000       0.081660         2.2221
  69   0.0000       0.093555         2.5458
  70   0.0000       0.113486         3.0881
  71   0.0000       0.132604         3.6083

MULLIKEN ATOMIC CHARGES
-----------------------
   0 S :    0.084426
   1 C :   -0.123950
   2 C :   -0.045827
   3 C :   -0.012589
   4 C :   -0.140755
   5 H :    0.012040
   6 C :    0.056018
   7 H :    0.035138
   8 H :    0.035762
   9 C :   -0.089838
  10 H :    0.018831
  11 H :    0.040974
  12 C :   -0.022209
  13 H :    0.013174
  14 H :    0.034335
  15 H :    0.022628
  16 S :    0.114234
  17 C :   -0.041238
  18 C :   -0.040612
  19 C :   -0.111804
  20 C :   -0.155894
  21 H :    0.015732
  22 C :    0.203799
  23 H :    0.026337
  24 H :   -0.000337
  25 C :   -0.123363
  26 H :    0.026202
  27 H :    0.037329
  28 C :   -0.027028
  29 H :    0.029346
  30 H :    0.040926
  31 H :    0.024792
  32 H :    0.037537
  33 H :    0.025880
Sum of atomic charges:   -0.0000000

LOEWDIN ATOMIC CHARGES
----------------------
   0 S :    0.385569
   1 C :   -0.181359
   2 C :   -0.061117
   3 C :   -0.077720
   4 C :   -0.188785
   5 H :    0.020666
   6 C :   -0.028019
   7 H :    0.032666
   8 H :    0.036720
   9 C :   -0.034223
  10 H :    0.008012
  11 H :    0.030649
  12 C :   -0.056316
  13 H :    0.014252
  14 H :    0.024653
  15 H :    0.029279
  16 S :    0.391604
  17 C :   -0.175264
  18 C :   -0.073436
  19 C :   -0.044183
  20 C :   -0.175776
  21 H :    0.028950
  22 C :   -0.009453
  23 H :    0.032087
  24 H :    0.011236
  25 C :   -0.051073
  26 H :    0.029048
  27 H :    0.025079
  28 C :   -0.056581
  29 H :    0.014829
  30 H :    0.032860
  31 H :    0.030022
  32 H :    0.021879
  33 H :    0.013244

  Mayer bond orders larger than 0.100000
B(  0-S ,  1-C ) :   1.1160 B(  0-S ,  4-C ) :   1.1283 B(  1-C ,  2-C ) :   1.6486
B(  1-C , 32-H ) :   0.9575 B(  2-C ,  3-C ) :   1.2499 B(  2-C ,  6-C ) :   1.0117
B(  3-C ,  4-C ) :   1.5781 B(  3-C ,  5-H ) :   0.9787 B(  4-C , 20-C ) :   1.0959
B(  6-C ,  7-H ) :   0.9427 B(  6-C ,  8-H ) :   0.9350 B(  6-C ,  9-C ) :   1.0724
B(  9-C , 10-H ) :   0.9536 B(  9-C , 11-H ) :   0.9569 B(  9-C , 12-C ) :   1.0832
B( 12-C , 13-H ) :   0.9744 B( 12-C , 14-H ) :   0.9759 B( 12-C , 15-H ) :   0.9744
B( 16-S , 17-C ) :   1.1512 B( 16-S , 20-C ) :   1.1138 B( 17-C , 18-C ) :   1.6057
B( 17-C , 33-H ) :   0.9691 B( 18-C , 19-C ) :   1.2613 B( 18-C , 21-H ) :   0.9777
B( 19-C , 20-C ) :   1.6166 B( 19-C , 22-C ) :   0.9864 B( 22-C , 23-H ) :   0.9065
B( 22-C , 24-H ) :   0.9329 B( 22-C , 25-C ) :   1.0845 B( 25-C , 26-H ) :   0.9548
B( 25-C , 27-H ) :   0.9533 B( 25-C , 28-C ) :   1.0748 B( 28-C , 29-H ) :   0.9784
B( 28-C , 30-H ) :   0.9779 B( 28-C , 31-H ) :   0.9744

Dispersion correction           -0.013097998
FINAL SINGLE POINT ENERGY     -1339.844779489584

DIPOLE MOMENT
-------------
                                X             Y             Z
Electronic contribution:    -13.91855       5.07325       6.15935
Nuclear contribution   :     14.06531      -5.20257      -6.57906
                        -----------------------------------------
Total Dipole Moment    :      0.14676      -0.12932      -0.41971
                        -----------------------------------------
Magnitude (a.u.)       :      0.46305
Magnitude (Debye)      :      1.17699

Rotational constants in cm-1:     0.022629     0.006789     0.005544
Rotational constants in MHz :   678.405567   203.514553   166.195396

                             ****ORCA TERMINATED NORMALLY****
TOTAL RUN TIME: 0 days 0 hours 0 minutes 21 seconds 666 msec
