                         Program Version 4.2.1 -  RELEASE  -
|  1> ! wB97X-D3 SP def2-SVP
|  2> %pal
|  3> nprocs 24
|  4> end
|  5>
|  6> * xyz 0 1
|  7> S 	 -64.3686 	 11.2944 	 -74.9242
|  8> C 	 -66.1265 	 11.3831 	 -74.8835
|  9> C 	 -66.5635 	 12.4204 	 -75.6894
| 10> C 	 -65.5513 	 13.1225 	 -76.3847
| 11> C 	 -64.2632 	 12.5603 	 -76.1162
| 12> H 	 -65.4837 	 14.0442 	 -76.9982
| 13> C 	 -67.9928 	 12.8806 	 -75.9105
| 14> H 	 -68.4837 	 11.8538 	 -76.1744
| 15> H 	 -67.8884 	 13.5343 	 -76.8597
| 16> C 	 -68.5944 	 13.6561 	 -74.6612
| 17> H 	 -69.5879 	 13.8799 	 -74.8397
| 18> H 	 -68.5258 	 12.9436 	 -73.8454
| 19> C 	 -67.8945 	 15.0676 	 -74.4536
| 20> H 	 -67.9731 	 15.2541 	 -73.3509
| 21> H 	 -66.7933 	 15.173 	 -74.4935
| 22> H 	 -68.3794 	 15.8017 	 -75.0854
| 23> S 	 -61.8256 	 13.7729 	 -75.7298
| 24> C 	 -60.7718 	 14.0432 	 -77.0675
| 25> C 	 -61.1949 	 13.4591 	 -78.2122
| 26> C 	 -62.5048 	 12.8545 	 -78.0007
| 27> C 	 -63.0024 	 12.964 	 -76.7281
| 28> H 	 -60.6137 	 13.5348 	 -79.1058
| 29> C 	 -63.2864 	 12.2167 	 -79.1657
| 30> H 	 -63.983 	 11.4011 	 -78.8281
| 31> H 	 -62.7519 	 11.6361 	 -79.9012
| 32> C 	 -64.2095 	 13.2341 	 -79.8666
| 33> H 	 -63.5976 	 14.069 	 -80.297
| 34> H 	 -64.8181 	 13.7884 	 -79.1106
| 35> C 	 -65.2185 	 12.7016 	 -80.8585
| 36> H 	 -64.6214 	 12.1698 	 -81.5356
| 37> H 	 -65.6505 	 13.3642 	 -81.6022
| 38> H 	 -66.0236 	 12.1082 	 -80.4654
| 39> H 	 -66.7134 	 10.6863 	 -74.3067
| 40> H 	 -59.9198 	 14.712 	 -76.9857
| 41> *
| 42>
| 43>                          ****END OF INPUT****

CARTESIAN COORDINATES (ANGSTROEM)
---------------------------------
  S    -64.368600   11.294400  -74.924200
  C    -66.126500   11.383100  -74.883500
  C    -66.563500   12.420400  -75.689400
  C    -65.551300   13.122500  -76.384700
  C    -64.263200   12.560300  -76.116200
  H    -65.483700   14.044200  -76.998200
  C    -67.992800   12.880600  -75.910500
  H    -68.483700   11.853800  -76.174400
  H    -67.888400   13.534300  -76.859700
  C    -68.594400   13.656100  -74.661200
  H    -69.587900   13.879900  -74.839700
  H    -68.525800   12.943600  -73.845400
  C    -67.894500   15.067600  -74.453600
  H    -67.973100   15.254100  -73.350900
  H    -66.793300   15.173000  -74.493500
  H    -68.379400   15.801700  -75.085400
  S    -61.825600   13.772900  -75.729800
  C    -60.771800   14.043200  -77.067500
  C    -61.194900   13.459100  -78.212200
  C    -62.504800   12.854500  -78.000700
  C    -63.002400   12.964000  -76.728100
  H    -60.613700   13.534800  -79.105800
  C    -63.286400   12.216700  -79.165700
  H    -63.983000   11.401100  -78.828100
  H    -62.751900   11.636100  -79.901200
  C    -64.209500   13.234100  -79.866600
  H    -63.597600   14.069000  -80.297000
  H    -64.818100   13.788400  -79.110600
  C    -65.218500   12.701600  -80.858500
  H    -64.621400   12.169800  -81.535600
  H    -65.650500   13.364200  -81.602200
  H    -66.023600   12.108200  -80.465400
  H    -66.713400   10.686300  -74.306700
  H    -59.919800   14.712000  -76.985700

 Total Charge           Charge          ....    0
 Multiplicity           Mult            ....    1
 Number of Electrons    NEL             ....  134
 Basis Dimension        Dim             ....  322

ORBITAL ENERGIES
----------------

  NO   OCC          E(Eh)            E(eV)
   0   2.0000     -88.967634     -2420.9324
   1   2.0000     -88.960686     -2420.7433
   2   2.0000     -10.331128      -281.1243
   3   2.0000     -10.323979      -280.9298
   4   2.0000     -10.315247      -280.6921
   5   2.0000     -10.314250      -280.6650
   6   2.0000     -10.308767      -280.5158
   7   2.0000     -10.304845      -280.4091
   8   2.0000     -10.301191      -280.3097
   9   2.0000     -10.298367      -280.2328
  10   2.0000     -10.293749      -280.1072
  11   2.0000     -10.292370      -280.0696
  12   2.0000     -10.291921      -280.0574
  13   2.0000     -10.286576      -279.9120
  14   2.0000     -10.285102      -279.8718
  15   2.0000     -10.267869      -279.4029
  16   2.0000      -8.082075      -219.9245
  17   2.0000      -8.076655      -219.7770
  18   2.0000      -6.040448      -164.3689
  19   2.0000      -6.036471      -164.2607
  20   2.0000      -6.035107      -164.2236
  21   2.0000      -6.033172      -164.1710
  22   2.0000      -6.030958      -164.1107
  23   2.0000      -6.027425      -164.0146
  24   2.0000      -1.007785       -27.4232
  25   2.0000      -0.984910       -26.8008
  26   2.0000      -0.904557       -24.6142
  27   2.0000      -0.902361       -24.5545
  28   2.0000      -0.868251       -23.6263
  29   2.0000      -0.848716       -23.0947
  30   2.0000      -0.844606       -22.9829
  31   2.0000      -0.813650       -22.1405
  32   2.0000      -0.780165       -21.2294
  33   2.0000      -0.768246       -20.9050
  34   2.0000      -0.708566       -19.2811
  35   2.0000      -0.701621       -19.0921
  36   2.0000      -0.691377       -18.8133
  37   2.0000      -0.662942       -18.0396
  38   2.0000      -0.643305       -17.5052
  39   2.0000      -0.607972       -16.5438
  40   2.0000      -0.594648       -16.1812
  41   2.0000      -0.571655       -15.5555
  42   2.0000      -0.560081       -15.2406
  43   2.0000      -0.547341       -14.8939
  44   2.0000      -0.533361       -14.5135
  45   2.0000      -0.524075       -14.2608
  46   2.0000      -0.515139       -14.0176
  47   2.0000      -0.512401       -13.9431
  48   2.0000      -0.507981       -13.8229
  49   2.0000      -0.499324       -13.5873
  50   2.0000      -0.483716       -13.1626
  51   2.0000      -0.480740       -13.0816
  52   2.0000      -0.475341       -12.9347
  53   2.0000      -0.466090       -12.6830
  54   2.0000      -0.461163       -12.5489
  55   2.0000      -0.448977       -12.2173
  56   2.0000      -0.442866       -12.0510
  57   2.0000      -0.427009       -11.6195
  58   2.0000      -0.420364       -11.4387
  59   2.0000      -0.417787       -11.3686
  60   2.0000      -0.415618       -11.3095
  61   2.0000      -0.414222       -11.2715
  62   2.0000      -0.403588       -10.9822
  63   2.0000      -0.339780        -9.2459
  64   2.0000      -0.331475        -9.0199
  65   2.0000      -0.326791        -8.8924
  66   2.0000      -0.300155        -8.1676
  67   0.0000       0.037922         1.0319
  68   0.0000       0.059432         1.6172
  69   0.0000       0.118597         3.2272
  70   0.0000       0.123822         3.3694
  71   0.0000       0.128444         3.4951

MULLIKEN ATOMIC CHARGES
-----------------------
   0 S :    0.122255
   1 C :   -0.136961
   2 C :   -0.062947
   3 C :    0.022719
   4 C :   -0.183446
   5 H :    0.048181
   6 C :   -0.019405
   7 H :    0.053396
   8 H :    0.040809
   9 C :   -0.003757
  10 H :    0.023567
  11 H :    0.031120
  12 C :   -0.096412
  13 H :    0.037478
  14 H :    0.047843
  15 H :    0.046240
  16 S :    0.104052
  17 C :   -0.092750
  18 C :   -0.013267
  19 C :   -0.010752
  20 C :   -0.180588
  21 H :    0.016291
  22 C :    0.058061
  23 H :    0.028193
  24 H :    0.016672
  25 C :   -0.093697
  26 H :    0.024186
  27 H :    0.009582
  28 C :   -0.006642
  29 H :    0.000698
  30 H :    0.022507
  31 H :    0.038843
  32 H :    0.047634
  33 H :    0.060297
Sum of atomic charges:   -0.0000000

LOEWDIN ATOMIC CHARGES
----------------------
   0 S :    0.416126
   1 C :   -0.202626
   2 C :   -0.070173
   3 C :   -0.069140
   4 C :   -0.199579
   5 H :    0.041976
   6 C :   -0.045106
   7 H :    0.042319
   8 H :    0.036028
   9 C :   -0.024767
  10 H :    0.015827
  11 H :    0.023417
  12 C :   -0.075012
  13 H :    0.036342
  14 H :    0.030756
  15 H :    0.026287
  16 S :    0.411497
  17 C :   -0.183253
  18 C :   -0.070487
  19 C :   -0.045094
  20 C :   -0.210120
  21 H :    0.032626
  22 C :   -0.037093
  23 H :    0.036552
  24 H :    0.025111
  25 C :   -0.047699
  26 H :    0.024714
  27 H :    0.019157
  28 C :   -0.070419
  29 H :    0.018296
  30 H :    0.031256
  31 H :    0.025619
  32 H :    0.026676
  33 H :    0.029985

  Mayer bond orders larger than 0.100000
B(  0-S ,  1-C ) :   1.1410 B(  0-S ,  4-C ) :   1.1858 B(  1-C ,  2-C ) :   1.5781
B(  1-C ,  4-C ) :   0.1113 B(  1-C , 32-H ) :   0.9772 B(  2-C ,  3-C ) :   1.2539
B(  2-C ,  6-C ) :   0.9920 B(  3-C ,  4-C ) :   1.5505 B(  3-C ,  5-H ) :   0.9767
B(  4-C , 20-C ) :   1.0145 B(  6-C ,  7-H ) :   0.9438 B(  6-C ,  8-H ) :   0.9505
B(  6-C ,  9-C ) :   1.0491 B(  9-C , 10-H ) :   0.9603 B(  9-C , 11-H ) :   0.9641
B(  9-C , 12-C ) :   1.0530 B( 12-C , 13-H ) :   0.9734 B( 12-C , 14-H ) :   0.9786
B( 12-C , 15-H ) :   0.9795 B( 16-S , 17-C ) :   1.1641 B( 16-S , 20-C ) :   1.1350
B( 17-C , 18-C ) :   1.6208 B( 17-C , 33-H ) :   0.9645 B( 18-C , 19-C ) :   1.2087
B( 18-C , 21-H ) :   1.0024 B( 19-C , 20-C ) :   1.6410 B( 19-C , 22-C ) :   1.0446
B( 22-C , 23-H ) :   0.9335 B( 22-C , 24-H ) :   0.9419 B( 22-C , 25-C ) :   1.0518
B( 25-C , 26-H ) :   0.9536 B( 25-C , 27-H ) :   0.9526 B( 25-C , 28-C ) :   1.0801
B( 28-C , 29-H ) :   0.9669 B( 28-C , 30-H ) :   0.9679 B( 28-C , 31-H ) :   0.9753

Dispersion correction           -0.015041230
FINAL SINGLE POINT ENERGY     -1339.856391812504

DIPOLE MOMENT
-------------
                                X             Y             Z
Electronic contribution:     20.54429      -6.56499      13.70821
Nuclear contribution   :    -20.86917       6.76448     -14.08416
                        -----------------------------------------
Total Dipole Moment    :     -0.32488       0.19950      -0.37595
                        -----------------------------------------
Magnitude (a.u.)       :      0.53543
Magnitude (Debye)      :      1.36095

Rotational constants in cm-1:     0.017717     0.009160     0.007471
Rotational constants in MHz :   531.129209   274.618949   223.971939

                             ****ORCA TERMINATED NORMALLY****
TOTAL RUN TIME: 0 days 0 hours 0 minutes 21 seconds 963 msec
