                         Program Version 4.2.1 -  RELEASE  -
|  1> ! wB97X-D3 SP def2-SVP
|  2> %pal
|  3> nprocs 24
|  4> end
|  5>
|  6> * xyz 0 1
|  7> S 	 -73.6685 	 1.38904 	 -59.614
|  8> C 	 -74.5084 	 2.82078 	 -60.1117
|  9> C 	 -75.5388 	 2.53397 	 -61.024
| 10> C 	 -75.6543 	 1.10139 	 -61.226
| 11> C 	 -74.7267 	 0.344439 	 -60.5932
| 12> H 	 -76.3638 	 0.623525 	 -61.8455
| 13> C 	 -76.6012 	 3.52178 	 -61.4578
| 14> H 	 -76.8795 	 3.33574 	 -62.5267
| 15> H 	 -76.2856 	 4.5314 	 -61.5874
| 16> C 	 -77.8286 	 3.61769 	 -60.6041
| 17> H 	 -78.1919 	 2.62769 	 -60.5905
| 18> H 	 -77.5468 	 3.87964 	 -59.5815
| 19> C 	 -78.956 	 4.42654 	 -61.1706
| 20> H 	 -79.3916 	 3.92318 	 -62.0612
| 21> H 	 -79.6709 	 4.63417 	 -60.359
| 22> H 	 -78.6708 	 5.31848 	 -61.5538
| 23> S 	 -73.8316 	 -2.0522 	 -61.5752
| 24> C 	 -74.1053 	 -3.53746 	 -60.6809
| 25> C 	 -74.9614 	 -3.33483 	 -59.6439
| 26> C 	 -75.2616 	 -1.94638 	 -59.4235
| 27> C 	 -74.7378 	 -1.12177 	 -60.4272
| 28> H 	 -75.3128 	 -4.17725 	 -59.0881
| 29> C 	 -75.9587 	 -1.48957 	 -58.2265
| 30> H 	 -75.5929 	 -0.455953 	 -58.0531
| 31> H 	 -75.5266 	 -2.04975 	 -57.3988
| 32> C 	 -77.4039 	 -1.77734 	 -58.2209
| 33> H 	 -77.6501 	 -2.90386 	 -58.1947
| 34> H 	 -77.9396 	 -1.33725 	 -59.1402
| 35> C 	 -77.99 	 -1.22981 	 -56.9595
| 36> H 	 -77.8859 	 -0.068501 	 -56.856
| 37> H 	 -77.4688 	 -1.65987 	 -56.1041
| 38> H 	 -79.0596 	 -1.33376 	 -56.9403
| 39> H 	 -74.3906 	 3.80258 	 -59.6181
| 40> H 	 -73.6146 	 -4.51375 	 -60.9513
| 41> *
| 42>
| 43>                          ****END OF INPUT****

CARTESIAN COORDINATES (ANGSTROEM)
---------------------------------
  S    -73.668500    1.389040  -59.614000
  C    -74.508400    2.820780  -60.111700
  C    -75.538800    2.533970  -61.024000
  C    -75.654300    1.101390  -61.226000
  C    -74.726700    0.344439  -60.593200
  H    -76.363800    0.623525  -61.845500
  C    -76.601200    3.521780  -61.457800
  H    -76.879500    3.335740  -62.526700
  H    -76.285600    4.531400  -61.587400
  C    -77.828600    3.617690  -60.604100
  H    -78.191900    2.627690  -60.590500
  H    -77.546800    3.879640  -59.581500
  C    -78.956000    4.426540  -61.170600
  H    -79.391600    3.923180  -62.061200
  H    -79.670900    4.634170  -60.359000
  H    -78.670800    5.318480  -61.553800
  S    -73.831600   -2.052200  -61.575200
  C    -74.105300   -3.537460  -60.680900
  C    -74.961400   -3.334830  -59.643900
  C    -75.261600   -1.946380  -59.423500
  C    -74.737800   -1.121770  -60.427200
  H    -75.312800   -4.177250  -59.088100
  C    -75.958700   -1.489570  -58.226500
  H    -75.592900   -0.455953  -58.053100
  H    -75.526600   -2.049750  -57.398800
  C    -77.403900   -1.777340  -58.220900
  H    -77.650100   -2.903860  -58.194700
  H    -77.939600   -1.337250  -59.140200
  C    -77.990000   -1.229810  -56.959500
  H    -77.885900   -0.068501  -56.856000
  H    -77.468800   -1.659870  -56.104100
  H    -79.059600   -1.333760  -56.940300
  H    -74.390600    3.802580  -59.618100
  H    -73.614600   -4.513750  -60.951300

 Total Charge           Charge          ....    0
 Multiplicity           Mult            ....    1
 Number of Electrons    NEL             ....  134
 Basis Dimension        Dim             ....  322

ORBITAL ENERGIES
----------------

  NO   OCC          E(Eh)            E(eV)
   0   2.0000     -88.966413     -2420.8992
   1   2.0000     -88.960315     -2420.7332
   2   2.0000     -10.328716      -281.0587
   3   2.0000     -10.323881      -280.9271
   4   2.0000     -10.320134      -280.8251
   5   2.0000     -10.319052      -280.7957
   6   2.0000     -10.306650      -280.4582
   7   2.0000     -10.300158      -280.2815
   8   2.0000     -10.293760      -280.1075
   9   2.0000     -10.292643      -280.0771
  10   2.0000     -10.290151      -280.0092
  11   2.0000     -10.288514      -279.9647
  12   2.0000     -10.282198      -279.7928
  13   2.0000     -10.279145      -279.7098
  14   2.0000     -10.276771      -279.6452
  15   2.0000     -10.272883      -279.5394
  16   2.0000      -8.080718      -219.8875
  17   2.0000      -8.075558      -219.7471
  18   2.0000      -6.039253      -164.3364
  19   2.0000      -6.035156      -164.2249
  20   2.0000      -6.034027      -164.1942
  21   2.0000      -6.031586      -164.1278
  22   2.0000      -6.029932      -164.0828
  23   2.0000      -6.026395      -163.9865
  24   2.0000      -1.005328       -27.3564
  25   2.0000      -0.984223       -26.7821
  26   2.0000      -0.922915       -25.1138
  27   2.0000      -0.919592       -25.0234
  28   2.0000      -0.870791       -23.6954
  29   2.0000      -0.852354       -23.1937
  30   2.0000      -0.850198       -23.1351
  31   2.0000      -0.819937       -22.3116
  32   2.0000      -0.782543       -21.2941
  33   2.0000      -0.766257       -20.8509
  34   2.0000      -0.704278       -19.1644
  35   2.0000      -0.696752       -18.9596
  36   2.0000      -0.688195       -18.7267
  37   2.0000      -0.659633       -17.9495
  38   2.0000      -0.648616       -17.6497
  39   2.0000      -0.623674       -16.9710
  40   2.0000      -0.598546       -16.2873
  41   2.0000      -0.574772       -15.6403
  42   2.0000      -0.569641       -15.5007
  43   2.0000      -0.560703       -15.2575
  44   2.0000      -0.534551       -14.5459
  45   2.0000      -0.531309       -14.4577
  46   2.0000      -0.521341       -14.1864
  47   2.0000      -0.512225       -13.9384
  48   2.0000      -0.505704       -13.7609
  49   2.0000      -0.502179       -13.6650
  50   2.0000      -0.491541       -13.3755
  51   2.0000      -0.474471       -12.9110
  52   2.0000      -0.472702       -12.8629
  53   2.0000      -0.459059       -12.4916
  54   2.0000      -0.457380       -12.4459
  55   2.0000      -0.450590       -12.2612
  56   2.0000      -0.443626       -12.0717
  57   2.0000      -0.438488       -11.9319
  58   2.0000      -0.433967       -11.8088
  59   2.0000      -0.425321       -11.5736
  60   2.0000      -0.418226       -11.3805
  61   2.0000      -0.409490       -11.1428
  62   2.0000      -0.408544       -11.1171
  63   2.0000      -0.338322        -9.2062
  64   2.0000      -0.332311        -9.0426
  65   2.0000      -0.314861        -8.5678
  66   2.0000      -0.311704        -8.4819
  67   0.0000       0.045840         1.2474
  68   0.0000       0.055239         1.5031
  69   0.0000       0.115885         3.1534
  70   0.0000       0.124001         3.3742
  71   0.0000       0.126616         3.4454

MULLIKEN ATOMIC CHARGES
-----------------------
   0 S :    0.111726
   1 C :   -0.130181
   2 C :   -0.059658
   3 C :    0.062267
   4 C :   -0.156517
   5 H :    0.000415
   6 C :    0.029224
   7 H :    0.017592
   8 H :    0.003704
   9 C :   -0.039392
  10 H :    0.008965
  11 H :    0.022107
  12 C :   -0.001655
  13 H :    0.029766
  14 H :    0.041716
  15 H :   -0.005459
  16 S :    0.101913
  17 C :   -0.116078
  18 C :   -0.017399
  19 C :   -0.024823
  20 C :   -0.189810
  21 H :    0.011512
  22 C :    0.087697
  23 H :    0.027187
  24 H :    0.013961
  25 C :   -0.111246
  26 H :    0.043679
  27 H :    0.041848
  28 C :   -0.037435
  29 H :    0.032975
  30 H :    0.028109
  31 H :    0.029650
  32 H :    0.066928
  33 H :    0.076713
Sum of atomic charges:    0.0000000

LOEWDIN ATOMIC CHARGES
----------------------
   0 S :    0.400596
   1 C :   -0.199053
   2 C :   -0.062543
   3 C :   -0.046157
   4 C :   -0.193677
   5 H :    0.027520
   6 C :   -0.041767
   7 H :    0.032801
   8 H :    0.022111
   9 C :   -0.040353
  10 H :    0.019060
  11 H :    0.023510
  12 C :   -0.055542
  13 H :    0.032784
  14 H :    0.035552
  15 H :    0.005233
  16 S :    0.406490
  17 C :   -0.185622
  18 C :   -0.072418
  19 C :   -0.048229
  20 C :   -0.215631
  21 H :    0.029435
  22 C :   -0.043720
  23 H :    0.034840
  24 H :    0.033935
  25 C :   -0.049601
  26 H :    0.034777
  27 H :    0.031775
  28 C :   -0.070459
  29 H :    0.032593
  30 H :    0.023621
  31 H :    0.020604
  32 H :    0.036487
  33 H :    0.041046

  Mayer bond orders larger than 0.100000
B(  0-S ,  1-C ) :   1.1564 B(  0-S ,  4-C ) :   1.1242 B(  1-C ,  2-C ) :   1.6048
B(  1-C , 32-H ) :   0.9631 B(  2-C ,  3-C ) :   1.2188 B(  2-C ,  6-C ) :   1.0404
B(  3-C ,  4-C ) :   1.6271 B(  3-C ,  5-H ) :   0.9973 B(  4-C , 20-C ) :   0.9974
B(  6-C ,  7-H ) :   0.9361 B(  6-C ,  8-H ) :   0.9372 B(  6-C ,  9-C ) :   1.0663
B(  9-C , 10-H ) :   0.9521 B(  9-C , 11-H ) :   0.9517 B(  9-C , 12-C ) :   1.0845
B( 12-C , 13-H ) :   0.9703 B( 12-C , 14-H ) :   0.9705 B( 12-C , 15-H ) :   0.9732
B( 16-S , 17-C ) :   1.1593 B( 16-S , 20-C ) :   1.1449 B( 17-C , 18-C ) :   1.6176
B( 17-C , 33-H ) :   0.9602 B( 18-C , 19-C ) :   1.2239 B( 18-C , 21-H ) :   0.9951
B( 19-C , 20-C ) :   1.6007 B( 19-C , 22-C ) :   1.0576 B( 22-C , 23-H ) :   0.9260
B( 22-C , 24-H ) :   0.9161 B( 22-C , 25-C ) :   1.0672 B( 25-C , 26-H ) :   0.9470
B( 25-C , 27-H ) :   0.9494 B( 25-C , 28-C ) :   1.0935 B( 28-C , 29-H ) :   0.9710
B( 28-C , 30-H ) :   0.9678 B( 28-C , 31-H ) :   0.9721

Dispersion correction           -0.014169474
FINAL SINGLE POINT ENERGY     -1339.870531634775

DIPOLE MOMENT
-------------
                                X             Y             Z
Electronic contribution:     25.95203     -10.56888      -8.67651
Nuclear contribution   :    -26.56117      10.61589       8.98236
                        -----------------------------------------
Total Dipole Moment    :     -0.60915       0.04700       0.30585
                        -----------------------------------------
Magnitude (a.u.)       :      0.68324
Magnitude (Debye)      :      1.73665

Rotational constants in cm-1:     0.017902     0.008593     0.006954
Rotational constants in MHz :   536.689700   257.614766   208.485540

                             ****ORCA TERMINATED NORMALLY****
TOTAL RUN TIME: 0 days 0 hours 0 minutes 21 seconds 470 msec
