                         Program Version 4.2.1 -  RELEASE  -
|  1> ! wB97X-D3 SP def2-SVP
|  2> %pal
|  3> nprocs 24
|  4> end
|  5>
|  6> * xyz 0 1
|  7> S 	 39.4569 	 -16.0046 	 -123.568
|  8> C 	 39.0925 	 -14.7187 	 -122.451
|  9> C 	 39.8491 	 -14.9122 	 -121.302
| 10> C 	 40.6139 	 -16.1125 	 -121.251
| 11> C 	 40.5966 	 -16.7758 	 -122.451
| 12> H 	 41.1234 	 -16.5363 	 -120.384
| 13> C 	 39.7604 	 -14.0239 	 -120.077
| 14> H 	 40.038 	 -14.6236 	 -119.167
| 15> H 	 38.7221 	 -13.6686 	 -119.945
| 16> C 	 40.6442 	 -12.7499 	 -120.197
| 17> H 	 40.3966 	 -12.0679 	 -120.981
| 18> H 	 40.6622 	 -12.1685 	 -119.258
| 19> C 	 42.0923 	 -13.1477 	 -120.428
| 20> H 	 42.2379 	 -13.4178 	 -121.479
| 21> H 	 42.7187 	 -12.2654 	 -120.359
| 22> H 	 42.4502 	 -13.8893 	 -119.709
| 23> S 	 40.2347 	 -19.4445 	 -122.912
| 24> C 	 41.5868 	 -20.4935 	 -123.272
| 25> C 	 42.747 	 -19.7715 	 -123.094
| 26> C 	 42.5805 	 -18.3884 	 -122.745
| 27> C 	 41.2572 	 -18.0301 	 -122.709
| 28> H 	 43.6758 	 -20.2328 	 -123.272
| 29> C 	 43.7825 	 -17.4659 	 -122.605
| 30> H 	 44.667 	 -18.174 	 -122.381
| 31> H 	 43.6289 	 -16.7713 	 -121.851
| 32> C 	 44.2541 	 -16.9398 	 -123.986
| 33> H 	 43.4802 	 -16.3166 	 -124.552
| 34> H 	 44.713 	 -17.655 	 -124.618
| 35> C 	 45.4063 	 -15.9122 	 -123.804
| 36> H 	 45.6995 	 -15.5065 	 -124.8
| 37> H 	 46.3141 	 -16.3493 	 -123.39
| 38> H 	 45.1872 	 -15.1277 	 -123.066
| 39> H 	 38.5079 	 -13.7881 	 -122.491
| 40> H 	 41.619 	 -21.5949 	 -123.088
| 41> *
| 42>
| 43>                          ****END OF INPUT****

CARTESIAN COORDINATES (ANGSTROEM)
---------------------------------
  S     39.456900  -16.004600  -123.568000
  C     39.092500  -14.718700  -122.451000
  C     39.849100  -14.912200  -121.302000
  C     40.613900  -16.112500  -121.251000
  C     40.596600  -16.775800  -122.451000
  H     41.123400  -16.536300  -120.384000
  C     39.760400  -14.023900  -120.077000
  H     40.038000  -14.623600  -119.167000
  H     38.722100  -13.668600  -119.945000
  C     40.644200  -12.749900  -120.197000
  H     40.396600  -12.067900  -120.981000
  H     40.662200  -12.168500  -119.258000
  C     42.092300  -13.147700  -120.428000
  H     42.237900  -13.417800  -121.479000
  H     42.718700  -12.265400  -120.359000
  H     42.450200  -13.889300  -119.709000
  S     40.234700  -19.444500  -122.912000
  C     41.586800  -20.493500  -123.272000
  C     42.747000  -19.771500  -123.094000
  C     42.580500  -18.388400  -122.745000
  C     41.257200  -18.030100  -122.709000
  H     43.675800  -20.232800  -123.272000
  C     43.782500  -17.465900  -122.605000
  H     44.667000  -18.174000  -122.381000
  H     43.628900  -16.771300  -121.851000
  C     44.254100  -16.939800  -123.986000
  H     43.480200  -16.316600  -124.552000
  H     44.713000  -17.655000  -124.618000
  C     45.406300  -15.912200  -123.804000
  H     45.699500  -15.506500  -124.800000
  H     46.314100  -16.349300  -123.390000
  H     45.187200  -15.127700  -123.066000
  H     38.507900  -13.788100  -122.491000
  H     41.619000  -21.594900  -123.088000

 Total Charge           Charge          ....    0
 Multiplicity           Mult            ....    1
 Number of Electrons    NEL             ....  134
 Basis Dimension        Dim             ....  322

ORBITAL ENERGIES
----------------

  NO   OCC          E(Eh)            E(eV)
   0   2.0000     -88.970552     -2421.0118
   1   2.0000     -88.961396     -2420.7626
   2   2.0000     -10.329658      -281.0843
   3   2.0000     -10.325138      -280.9613
   4   2.0000     -10.317212      -280.7456
   5   2.0000     -10.316914      -280.7375
   6   2.0000     -10.303007      -280.3591
   7   2.0000     -10.298619      -280.2397
   8   2.0000     -10.297662      -280.2136
   9   2.0000     -10.296294      -280.1764
  10   2.0000     -10.294540      -280.1287
  11   2.0000     -10.290780      -280.0264
  12   2.0000     -10.290678      -280.0236
  13   2.0000     -10.284830      -279.8645
  14   2.0000     -10.277718      -279.6709
  15   2.0000     -10.271818      -279.5104
  16   2.0000      -8.084524      -219.9911
  17   2.0000      -8.076300      -219.7673
  18   2.0000      -6.043190      -164.4436
  19   2.0000      -6.039019      -164.3301
  20   2.0000      -6.035242      -164.2273
  21   2.0000      -6.034906      -164.2181
  22   2.0000      -6.030671      -164.1029
  23   2.0000      -6.027034      -164.0039
  24   2.0000      -1.008672       -27.4474
  25   2.0000      -0.985620       -26.8201
  26   2.0000      -0.911169       -24.7942
  27   2.0000      -0.907008       -24.6809
  28   2.0000      -0.873257       -23.7625
  29   2.0000      -0.849541       -23.1172
  30   2.0000      -0.845258       -23.0006
  31   2.0000      -0.816533       -22.2190
  32   2.0000      -0.778497       -21.1840
  33   2.0000      -0.768315       -20.9069
  34   2.0000      -0.706847       -19.2343
  35   2.0000      -0.697847       -18.9894
  36   2.0000      -0.693089       -18.8599
  37   2.0000      -0.663694       -18.0600
  38   2.0000      -0.638033       -17.3618
  39   2.0000      -0.613589       -16.6966
  40   2.0000      -0.591545       -16.0967
  41   2.0000      -0.575278       -15.6541
  42   2.0000      -0.565562       -15.3897
  43   2.0000      -0.551903       -15.0180
  44   2.0000      -0.545416       -14.8415
  45   2.0000      -0.529483       -14.4080
  46   2.0000      -0.515881       -14.0378
  47   2.0000      -0.511031       -13.9059
  48   2.0000      -0.509634       -13.8678
  49   2.0000      -0.500451       -13.6180
  50   2.0000      -0.485390       -13.2081
  51   2.0000      -0.478648       -13.0247
  52   2.0000      -0.467810       -12.7298
  53   2.0000      -0.465603       -12.6697
  54   2.0000      -0.453975       -12.3533
  55   2.0000      -0.443891       -12.0789
  56   2.0000      -0.442922       -12.0525
  57   2.0000      -0.434758       -11.8304
  58   2.0000      -0.430872       -11.7246
  59   2.0000      -0.425103       -11.5676
  60   2.0000      -0.419031       -11.4024
  61   2.0000      -0.411266       -11.1911
  62   2.0000      -0.410124       -11.1600
  63   2.0000      -0.346329        -9.4241
  64   2.0000      -0.330222        -8.9858
  65   2.0000      -0.326389        -8.8815
  66   2.0000      -0.299316        -8.1448
  67   0.0000       0.032693         0.8896
  68   0.0000       0.058092         1.5808
  69   0.0000       0.112752         3.0681
  70   0.0000       0.118369         3.2210
  71   0.0000       0.130115         3.5406

MULLIKEN ATOMIC CHARGES
-----------------------
   0 S :    0.127182
   1 C :   -0.100829
   2 C :   -0.114059
   3 C :    0.040789
   4 C :   -0.165340
   5 H :    0.026242
   6 C :    0.040661
   7 H :    0.035522
   8 H :    0.032034
   9 C :   -0.066207
  10 H :    0.023920
  11 H :    0.031870
  12 C :   -0.063778
  13 H :    0.041365
  14 H :    0.020902
  15 H :    0.030308
  16 S :    0.098799
  17 C :   -0.091008
  18 C :   -0.054312
  19 C :   -0.011835
  20 C :   -0.182274
  21 H :    0.002282
  22 C :    0.095962
  23 H :    0.029807
  24 H :    0.012253
  25 C :   -0.081344
  26 H :    0.051272
  27 H :    0.030685
  28 C :   -0.065493
  29 H :    0.039661
  30 H :    0.014506
  31 H :    0.030158
  32 H :    0.054006
  33 H :    0.086291
Sum of atomic charges:    0.0000000

LOEWDIN ATOMIC CHARGES
----------------------
   0 S :    0.410738
   1 C :   -0.211854
   2 C :   -0.067463
   3 C :   -0.059503
   4 C :   -0.191718
   5 H :    0.037077
   6 C :   -0.034864
   7 H :    0.035123
   8 H :    0.030301
   9 C :   -0.041175
  10 H :    0.020164
  11 H :    0.025234
  12 C :   -0.069335
  13 H :    0.027117
  14 H :    0.022849
  15 H :    0.021735
  16 S :    0.402636
  17 C :   -0.204520
  18 C :   -0.064896
  19 C :   -0.055731
  20 C :   -0.197067
  21 H :    0.020751
  22 C :   -0.022543
  23 H :    0.044536
  24 H :    0.018609
  25 C :   -0.036527
  26 H :    0.033659
  27 H :    0.021306
  28 C :   -0.072409
  29 H :    0.029028
  30 H :    0.016848
  31 H :    0.022731
  32 H :    0.041831
  33 H :    0.047334

  Mayer bond orders larger than 0.100000
B(  0-S ,  1-C ) :   1.1273 B(  0-S ,  4-C ) :   1.1464 B(  1-C ,  2-C ) :   1.6203
B(  1-C , 32-H ) :   0.9611 B(  2-C ,  3-C ) :   1.2347 B(  2-C ,  6-C ) :   1.0170
B(  3-C ,  4-C ) :   1.5846 B(  3-C ,  5-H ) :   0.9896 B(  4-C , 20-C ) :   1.0318
B(  6-C ,  7-H ) :   0.9492 B(  6-C ,  8-H ) :   0.9460 B(  6-C ,  9-C ) :   1.0663
B(  9-C , 10-H ) :   0.9576 B(  9-C , 11-H ) :   0.9597 B(  9-C , 12-C ) :   1.0845
B( 12-C , 13-H ) :   0.9694 B( 12-C , 14-H ) :   0.9713 B( 12-C , 15-H ) :   0.9765
B( 16-S , 17-C ) :   1.1460 B( 16-S , 20-C ) :   1.1526 B( 17-C , 18-C ) :   1.6180
B( 17-C , 33-H ) :   0.9522 B( 18-C , 19-C ) :   1.2491 B( 18-C , 21-H ) :   0.9883
B( 19-C , 20-C ) :   1.5937 B( 19-C , 22-C ) :   1.0505 B( 22-C , 23-H ) :   0.9310
B( 22-C , 24-H ) :   0.9366 B( 22-C , 25-C ) :   1.0632 B( 25-C , 26-H ) :   0.9592
B( 25-C , 27-H ) :   0.9578 B( 25-C , 28-C ) :   1.0768 B( 28-C , 29-H ) :   0.9754
B( 28-C , 30-H ) :   0.9732 B( 28-C , 31-H ) :   0.9761

Dispersion correction           -0.014779458
FINAL SINGLE POINT ENERGY     -1339.869425863191

DIPOLE MOMENT
-------------
                                X             Y             Z
Electronic contribution:    -20.45190     -18.46525      -7.92879
Nuclear contribution   :     20.99025      18.75384       8.38219
                        -----------------------------------------
Total Dipole Moment    :      0.53835       0.28860       0.45340
                        -----------------------------------------
Magnitude (a.u.)       :      0.76071
Magnitude (Debye)      :      1.93357

Rotational constants in cm-1:     0.017636     0.009750     0.007325
Rotational constants in MHz :   528.726882   292.293271   219.590921

                             ****ORCA TERMINATED NORMALLY****
TOTAL RUN TIME: 0 days 0 hours 0 minutes 22 seconds 114 msec
