                         Program Version 4.2.1 -  RELEASE  -
|  1> ! wB97X-D3 SP def2-SVP
|  2> %pal
|  3> nprocs 24
|  4> end
|  5>
|  6> * xyz 0 1
|  7> S 	 -129.257 	 70.3517 	 -63.1275
|  8> C 	 -128.863 	 71.7219 	 -62.1378
|  9> C 	 -128.646 	 72.8853 	 -62.9105
| 10> C 	 -128.981 	 72.6867 	 -64.3086
| 11> C 	 -129.205 	 71.3291 	 -64.5809
| 12> H 	 -128.945 	 73.3625 	 -65.213
| 13> C 	 -128.218 	 74.2147 	 -62.3986
| 14> H 	 -127.814 	 73.8959 	 -61.4544
| 15> H 	 -129.09 	 74.8393 	 -62.2157
| 16> C 	 -127.184 	 75.0244 	 -63.1423
| 17> H 	 -127.518 	 75.6415 	 -63.9388
| 18> H 	 -126.898 	 75.7673 	 -62.3929
| 19> C 	 -125.978 	 74.1994 	 -63.4072
| 20> H 	 -125.937 	 73.5683 	 -64.247
| 21> H 	 -125.025 	 74.7914 	 -63.3847
| 22> H 	 -125.808 	 73.4867 	 -62.5742
| 23> S 	 -131.268 	 70.3407 	 -66.0164
| 24> C 	 -131.011 	 70.0658 	 -67.7052
| 25> C 	 -129.737 	 70.3218 	 -68.1269
| 26> C 	 -128.931 	 70.8476 	 -67.0773
| 27> C 	 -129.593 	 70.8294 	 -65.8738
| 28> H 	 -129.476 	 70.3239 	 -69.1834
| 29> C 	 -127.493 	 71.1649 	 -67.2523
| 30> H 	 -127.145 	 72.1148 	 -66.7275
| 31> H 	 -127.493 	 71.5157 	 -68.2962
| 32> C 	 -126.51 	 70.0048 	 -67.1584
| 33> H 	 -125.548 	 70.4233 	 -67.0064
| 34> H 	 -126.474 	 69.5078 	 -68.1654
| 35> C 	 -126.709 	 69.0234 	 -65.9858
| 36> H 	 -127.028 	 69.5713 	 -65.0659
| 37> H 	 -125.745 	 68.5342 	 -65.8949
| 38> H 	 -127.305 	 68.1672 	 -66.2134
| 39> H 	 -128.552 	 71.6581 	 -61.1054
| 40> H 	 -131.856 	 69.9037 	 -68.2886
| 41> *
| 42>
| 43>                          ****END OF INPUT****

CARTESIAN COORDINATES (ANGSTROEM)
---------------------------------
  S    -129.257000   70.351700  -63.127500
  C    -128.863000   71.721900  -62.137800
  C    -128.646000   72.885300  -62.910500
  C    -128.981000   72.686700  -64.308600
  C    -129.205000   71.329100  -64.580900
  H    -128.945000   73.362500  -65.213000
  C    -128.218000   74.214700  -62.398600
  H    -127.814000   73.895900  -61.454400
  H    -129.090000   74.839300  -62.215700
  C    -127.184000   75.024400  -63.142300
  H    -127.518000   75.641500  -63.938800
  H    -126.898000   75.767300  -62.392900
  C    -125.978000   74.199400  -63.407200
  H    -125.937000   73.568300  -64.247000
  H    -125.025000   74.791400  -63.384700
  H    -125.808000   73.486700  -62.574200
  S    -131.268000   70.340700  -66.016400
  C    -131.011000   70.065800  -67.705200
  C    -129.737000   70.321800  -68.126900
  C    -128.931000   70.847600  -67.077300
  C    -129.593000   70.829400  -65.873800
  H    -129.476000   70.323900  -69.183400
  C    -127.493000   71.164900  -67.252300
  H    -127.145000   72.114800  -66.727500
  H    -127.493000   71.515700  -68.296200
  C    -126.510000   70.004800  -67.158400
  H    -125.548000   70.423300  -67.006400
  H    -126.474000   69.507800  -68.165400
  C    -126.709000   69.023400  -65.985800
  H    -127.028000   69.571300  -65.065900
  H    -125.745000   68.534200  -65.894900
  H    -127.305000   68.167200  -66.213400
  H    -128.552000   71.658100  -61.105400
  H    -131.856000   69.903700  -68.288600

 Total Charge           Charge          ....    0
 Multiplicity           Mult            ....    1
 Number of Electrons    NEL             ....  134
 Basis Dimension        Dim             ....  322

ORBITAL ENERGIES
----------------

  NO   OCC          E(Eh)            E(eV)
   0   2.0000     -88.968782     -2420.9636
   1   2.0000     -88.961382     -2420.7623
   2   2.0000     -10.325347      -280.9670
   3   2.0000     -10.317228      -280.7460
   4   2.0000     -10.313938      -280.6565
   5   2.0000     -10.309263      -280.5293
   6   2.0000     -10.304213      -280.3919
   7   2.0000     -10.298421      -280.2343
   8   2.0000     -10.297108      -280.1986
   9   2.0000     -10.292010      -280.0598
  10   2.0000     -10.289500      -279.9915
  11   2.0000     -10.285489      -279.8824
  12   2.0000     -10.282686      -279.8061
  13   2.0000     -10.282358      -279.7972
  14   2.0000     -10.273263      -279.5497
  15   2.0000     -10.269071      -279.4356
  16   2.0000      -8.083073      -219.9516
  17   2.0000      -8.077103      -219.7891
  18   2.0000      -6.041558      -164.3991
  19   2.0000      -6.037601      -164.2915
  20   2.0000      -6.035374      -164.2309
  21   2.0000      -6.033935      -164.1917
  22   2.0000      -6.031586      -164.1278
  23   2.0000      -6.027937      -164.0285
  24   2.0000      -1.008241       -27.4356
  25   2.0000      -0.982899       -26.7460
  26   2.0000      -0.922715       -25.1083
  27   2.0000      -0.909012       -24.7355
  28   2.0000      -0.871047       -23.7024
  29   2.0000      -0.850445       -23.1418
  30   2.0000      -0.846115       -23.0240
  31   2.0000      -0.811528       -22.0828
  32   2.0000      -0.785554       -21.3760
  33   2.0000      -0.772444       -21.0193
  34   2.0000      -0.713153       -19.4059
  35   2.0000      -0.699214       -19.0266
  36   2.0000      -0.690233       -18.7822
  37   2.0000      -0.663402       -18.0521
  38   2.0000      -0.637455       -17.3460
  39   2.0000      -0.611936       -16.6516
  40   2.0000      -0.592466       -16.1218
  41   2.0000      -0.566538       -15.4163
  42   2.0000      -0.561132       -15.2692
  43   2.0000      -0.553607       -15.0644
  44   2.0000      -0.547516       -14.8987
  45   2.0000      -0.541109       -14.7243
  46   2.0000      -0.516627       -14.0581
  47   2.0000      -0.506591       -13.7850
  48   2.0000      -0.498985       -13.5781
  49   2.0000      -0.492731       -13.4079
  50   2.0000      -0.490296       -13.3416
  51   2.0000      -0.475275       -12.9329
  52   2.0000      -0.472184       -12.8488
  53   2.0000      -0.459862       -12.5135
  54   2.0000      -0.453967       -12.3531
  55   2.0000      -0.451032       -12.2732
  56   2.0000      -0.447819       -12.1858
  57   2.0000      -0.435799       -11.8587
  58   2.0000      -0.433184       -11.7875
  59   2.0000      -0.425536       -11.5794
  60   2.0000      -0.417856       -11.3704
  61   2.0000      -0.409213       -11.1353
  62   2.0000      -0.403843       -10.9891
  63   2.0000      -0.342445        -9.3184
  64   2.0000      -0.330875        -9.0036
  65   2.0000      -0.324582        -8.8323
  66   2.0000      -0.293568        -7.9884
  67   0.0000       0.039045         1.0625
  68   0.0000       0.061386         1.6704
  69   0.0000       0.114983         3.1289
  70   0.0000       0.116022         3.1571
  71   0.0000       0.126809         3.4506

MULLIKEN ATOMIC CHARGES
-----------------------
   0 S :    0.123493
   1 C :   -0.115137
   2 C :   -0.132152
   3 C :    0.034692
   4 C :   -0.201148
   5 H :    0.043014
   6 C :    0.081709
   7 H :    0.002371
   8 H :    0.043549
   9 C :   -0.028302
  10 H :    0.024859
  11 H :    0.025620
  12 C :   -0.051986
  13 H :    0.027508
  14 H :    0.031086
  15 H :    0.016760
  16 S :    0.111415
  17 C :   -0.071665
  18 C :   -0.025142
  19 C :   -0.032244
  20 C :   -0.166296
  21 H :    0.021378
  22 C :    0.040666
  23 H :    0.035345
  24 H :    0.010828
  25 C :   -0.050889
  26 H :    0.018624
  27 H :    0.030017
  28 C :   -0.032451
  29 H :    0.048574
  30 H :    0.020679
  31 H :    0.028462
  32 H :    0.050974
  33 H :    0.035786
Sum of atomic charges:    0.0000000

LOEWDIN ATOMIC CHARGES
----------------------
   0 S :    0.416919
   1 C :   -0.215194
   2 C :   -0.058427
   3 C :   -0.064431
   4 C :   -0.200875
   5 H :    0.044498
   6 C :   -0.034840
   7 H :    0.027100
   8 H :    0.036694
   9 C :   -0.044640
  10 H :    0.020445
  11 H :    0.035630
  12 C :   -0.068135
  13 H :    0.016984
  14 H :    0.030682
  15 H :    0.029909
  16 S :    0.413630
  17 C :   -0.172500
  18 C :   -0.070062
  19 C :   -0.058460
  20 C :   -0.202335
  21 H :    0.034464
  22 C :   -0.047114
  23 H :    0.035532
  24 H :    0.032889
  25 C :   -0.039105
  26 H :    0.020907
  27 H :    0.028720
  28 C :   -0.068412
  29 H :    0.029852
  30 H :    0.027180
  31 H :    0.022962
  32 H :    0.026832
  33 H :    0.012703

  Mayer bond orders larger than 0.100000
B(  0-S ,  1-C ) :   1.1355 B(  0-S ,  4-C ) :   1.1588 B(  1-C ,  2-C ) :   1.6101
B(  1-C , 32-H ) :   0.9603 B(  2-C ,  3-C ) :   1.2142 B(  2-C ,  6-C ) :   1.0264
B(  3-C ,  4-C ) :   1.5865 B(  3-C ,  5-H ) :   0.9770 B(  4-C , 20-C ) :   1.0208
B(  6-C ,  7-H ) :   0.9320 B(  6-C ,  8-H ) :   0.9285 B(  6-C ,  9-C ) :   1.0947
B(  9-C , 10-H ) :   0.9495 B(  9-C , 11-H ) :   0.9465 B(  9-C , 12-C ) :   1.0794
B( 12-C , 13-H ) :   0.9726 B( 12-C , 14-H ) :   0.9727 B( 12-C , 15-H ) :   0.9697
B( 16-S , 17-C ) :   1.1639 B( 16-S , 20-C ) :   1.1503 B( 17-C , 18-C ) :   1.6031
B( 17-C , 33-H ) :   0.9760 B( 18-C , 19-C ) :   1.2326 B( 18-C , 21-H ) :   0.9889
B( 19-C , 20-C ) :   1.6070 B( 19-C , 22-C ) :   1.0563 B( 22-C , 23-H ) :   0.9321
B( 22-C , 24-H ) :   0.9225 B( 22-C , 25-C ) :   1.0772 B( 25-C , 26-H ) :   0.9558
B( 25-C , 27-H ) :   0.9520 B( 25-C , 28-C ) :   1.0823 B( 28-C , 29-H ) :   0.9700
B( 28-C , 30-H ) :   0.9724 B( 28-C , 31-H ) :   0.9718

Dispersion correction           -0.016030415
FINAL SINGLE POINT ENERGY     -1339.869227126539

DIPOLE MOMENT
-------------
                                X             Y             Z
Electronic contribution:    -22.54796     -10.64001       1.16028
Nuclear contribution   :     22.96699      11.12727      -1.39256
                        -----------------------------------------
Total Dipole Moment    :      0.41904       0.48726      -0.23228
                        -----------------------------------------
Magnitude (a.u.)       :      0.68335
Magnitude (Debye)      :      1.73693

Rotational constants in cm-1:     0.019802     0.009663     0.008345
Rotational constants in MHz :   593.634365   289.700322   250.164544

                             ****ORCA TERMINATED NORMALLY****
TOTAL RUN TIME: 0 days 0 hours 0 minutes 23 seconds 329 msec
