                         Program Version 4.2.1 -  RELEASE  -
|  1> ! wB97X-D3 SP def2-SVP
|  2> %pal
|  3> nprocs 24
|  4> end
|  5>
|  6> * xyz 0 1
|  7> S 	 -74.3857 	 -5.8317 	 4.47052
|  8> C 	 -72.7231 	 -5.58851 	 4.63908
|  9> C 	 -71.9725 	 -6.56491 	 4.03377
| 10> C 	 -72.8091 	 -7.49059 	 3.34575
| 11> C 	 -74.1561 	 -7.18818 	 3.33628
| 12> H 	 -72.4408 	 -8.3599 	 2.90039
| 13> C 	 -70.4453 	 -6.77209 	 4.07663
| 14> H 	 -70.0579 	 -5.77346 	 3.81542
| 15> H 	 -70.1264 	 -7.41251 	 3.2371
| 16> C 	 -69.8937 	 -7.36079 	 5.35536
| 17> H 	 -68.8706 	 -7.04518 	 5.53221
| 18> H 	 -70.2869 	 -6.74509 	 6.17522
| 19> C 	 -70.2017 	 -8.86345 	 5.47455
| 20> H 	 -71.255 	 -9.00383 	 5.46916
| 21> H 	 -69.8058 	 -9.47093 	 4.6672
| 22> H 	 -69.8012 	 -9.2765 	 6.40255
| 23> S 	 -75.5341 	 -8.02565 	 1.06941
| 24> C 	 -77.1805 	 -8.51935 	 1.30633
| 25> C 	 -77.4356 	 -8.7382 	 2.66246
| 26> C 	 -76.3134 	 -8.51312 	 3.50379
| 27> C 	 -75.2873 	 -7.88098 	 2.78869
| 28> H 	 -78.4076 	 -9.02512 	 2.92188
| 29> C 	 -76.3577 	 -8.73155 	 5.00919
| 30> H 	 -77.3738 	 -8.44578 	 5.34039
| 31> H 	 -75.6747 	 -8.01994 	 5.46408
| 32> C 	 -75.9728 	 -10.1057 	 5.53158
| 33> H 	 -74.891 	 -10.0516 	 5.58248
| 34> H 	 -76.0883 	 -10.9172 	 4.87286
| 35> C 	 -76.7306 	 -10.4329 	 6.85894
| 36> H 	 -77.8202 	 -10.2268 	 6.72702
| 37> H 	 -76.3828 	 -9.89288 	 7.67205
| 38> H 	 -76.5791 	 -11.4293 	 7.03277
| 39> H 	 -72.1876 	 -4.77686 	 5.10695
| 40> H 	 -78.0035 	 -8.38334 	 0.542248
| 41> *
| 42>
| 43>                          ****END OF INPUT****

CARTESIAN COORDINATES (ANGSTROEM)
---------------------------------
  S    -74.385700   -5.831700    4.470520
  C    -72.723100   -5.588510    4.639080
  C    -71.972500   -6.564910    4.033770
  C    -72.809100   -7.490590    3.345750
  C    -74.156100   -7.188180    3.336280
  H    -72.440800   -8.359900    2.900390
  C    -70.445300   -6.772090    4.076630
  H    -70.057900   -5.773460    3.815420
  H    -70.126400   -7.412510    3.237100
  C    -69.893700   -7.360790    5.355360
  H    -68.870600   -7.045180    5.532210
  H    -70.286900   -6.745090    6.175220
  C    -70.201700   -8.863450    5.474550
  H    -71.255000   -9.003830    5.469160
  H    -69.805800   -9.470930    4.667200
  H    -69.801200   -9.276500    6.402550
  S    -75.534100   -8.025650    1.069410
  C    -77.180500   -8.519350    1.306330
  C    -77.435600   -8.738200    2.662460
  C    -76.313400   -8.513120    3.503790
  C    -75.287300   -7.880980    2.788690
  H    -78.407600   -9.025120    2.921880
  C    -76.357700   -8.731550    5.009190
  H    -77.373800   -8.445780    5.340390
  H    -75.674700   -8.019940    5.464080
  C    -75.972800  -10.105700    5.531580
  H    -74.891000  -10.051600    5.582480
  H    -76.088300  -10.917200    4.872860
  C    -76.730600  -10.432900    6.858940
  H    -77.820200  -10.226800    6.727020
  H    -76.382800   -9.892880    7.672050
  H    -76.579100  -11.429300    7.032770
  H    -72.187600   -4.776860    5.106950
  H    -78.003500   -8.383340    0.542248

 Total Charge           Charge          ....    0
 Multiplicity           Mult            ....    1
 Number of Electrons    NEL             ....  134
 Basis Dimension        Dim             ....  322

ORBITAL ENERGIES
----------------

  NO   OCC          E(Eh)            E(eV)
   0   2.0000     -88.966939     -2420.9135
   1   2.0000     -88.965379     -2420.8710
   2   2.0000     -10.327301      -281.0201
   3   2.0000     -10.323566      -280.9185
   4   2.0000     -10.318401      -280.7780
   5   2.0000     -10.308913      -280.5198
   6   2.0000     -10.302375      -280.3419
   7   2.0000     -10.295915      -280.1661
   8   2.0000     -10.294449      -280.1262
   9   2.0000     -10.289947      -280.0037
  10   2.0000     -10.287759      -279.9442
  11   2.0000     -10.286674      -279.9146
  12   2.0000     -10.286236      -279.9027
  13   2.0000     -10.278310      -279.6870
  14   2.0000     -10.277570      -279.6669
  15   2.0000     -10.269486      -279.4469
  16   2.0000      -8.081758      -219.9158
  17   2.0000      -8.080497      -219.8815
  18   2.0000      -6.040231      -164.3630
  19   2.0000      -6.038943      -164.3280
  20   2.0000      -6.036213      -164.2537
  21   2.0000      -6.034964      -164.2197
  22   2.0000      -6.032559      -164.1543
  23   2.0000      -6.031291      -164.1198
  24   2.0000      -1.008974       -27.4556
  25   2.0000      -0.987333       -26.8667
  26   2.0000      -0.912221       -24.8228
  27   2.0000      -0.907406       -24.6918
  28   2.0000      -0.871041       -23.7022
  29   2.0000      -0.852098       -23.1868
  30   2.0000      -0.846418       -23.0322
  31   2.0000      -0.813193       -22.1281
  32   2.0000      -0.786025       -21.3888
  33   2.0000      -0.772807       -21.0291
  34   2.0000      -0.710616       -19.3368
  35   2.0000      -0.708772       -19.2867
  36   2.0000      -0.695397       -18.9227
  37   2.0000      -0.659856       -17.9556
  38   2.0000      -0.641917       -17.4674
  39   2.0000      -0.616394       -16.7729
  40   2.0000      -0.594577       -16.1792
  41   2.0000      -0.572785       -15.5863
  42   2.0000      -0.561425       -15.2771
  43   2.0000      -0.557756       -15.1773
  44   2.0000      -0.539353       -14.6766
  45   2.0000      -0.527821       -14.3628
  46   2.0000      -0.516957       -14.0671
  47   2.0000      -0.510764       -13.8986
  48   2.0000      -0.506445       -13.7811
  49   2.0000      -0.497120       -13.5273
  50   2.0000      -0.488267       -13.2864
  51   2.0000      -0.478615       -13.0238
  52   2.0000      -0.471060       -12.8182
  53   2.0000      -0.467838       -12.7305
  54   2.0000      -0.463822       -12.6212
  55   2.0000      -0.451006       -12.2725
  56   2.0000      -0.445188       -12.1142
  57   2.0000      -0.440596       -11.9892
  58   2.0000      -0.434817       -11.8320
  59   2.0000      -0.428579       -11.6622
  60   2.0000      -0.417249       -11.3539
  61   2.0000      -0.412309       -11.2195
  62   2.0000      -0.408053       -11.1037
  63   2.0000      -0.343674        -9.3518
  64   2.0000      -0.331103        -9.0098
  65   2.0000      -0.326259        -8.8780
  66   2.0000      -0.290588        -7.9073
  67   0.0000       0.032744         0.8910
  68   0.0000       0.052769         1.4359
  69   0.0000       0.108662         2.9568
  70   0.0000       0.125019         3.4020
  71   0.0000       0.135817         3.6958

MULLIKEN ATOMIC CHARGES
-----------------------
   0 S :    0.123000
   1 C :   -0.099981
   2 C :   -0.120134
   3 C :    0.063091
   4 C :   -0.174249
   5 H :   -0.017507
   6 C :    0.048469
   7 H :    0.028026
   8 H :    0.022145
   9 C :   -0.032568
  10 H :    0.017667
  11 H :    0.010060
  12 C :   -0.027766
  13 H :    0.032287
  14 H :    0.028741
  15 H :    0.034187
  16 S :    0.123257
  17 C :   -0.125094
  18 C :   -0.023806
  19 C :   -0.024634
  20 C :   -0.168885
  21 H :   -0.001588
  22 C :    0.074884
  23 H :    0.018676
  24 H :    0.018955
  25 C :   -0.056774
  26 H :    0.022019
  27 H :    0.016652
  28 C :   -0.003312
  29 H :    0.035773
  30 H :    0.021976
  31 H :    0.013453
  32 H :    0.037176
  33 H :    0.085806
Sum of atomic charges:    0.0000000

LOEWDIN ATOMIC CHARGES
----------------------
   0 S :    0.432108
   1 C :   -0.214311
   2 C :   -0.070213
   3 C :   -0.054380
   4 C :   -0.185706
   5 H :    0.019154
   6 C :   -0.032603
   7 H :    0.033618
   8 H :    0.029314
   9 C :   -0.047665
  10 H :    0.023766
  11 H :    0.025231
  12 C :   -0.058696
  13 H :    0.024107
  14 H :    0.025367
  15 H :    0.028926
  16 S :    0.416981
  17 C :   -0.206885
  18 C :   -0.061587
  19 C :   -0.051706
  20 C :   -0.210846
  21 H :    0.021356
  22 C :   -0.033331
  23 H :    0.027428
  24 H :    0.020121
  25 C :   -0.035141
  26 H :    0.026501
  27 H :    0.015946
  28 C :   -0.045986
  29 H :    0.031730
  30 H :    0.016775
  31 H :    0.014840
  32 H :    0.030472
  33 H :    0.045317

  Mayer bond orders larger than 0.100000
B(  0-S ,  1-C ) :   1.1587 B(  0-S ,  4-C ) :   1.1391 B(  1-C ,  2-C ) :   1.6092
B(  1-C , 32-H ) :   0.9614 B(  2-C ,  3-C ) :   1.2601 B(  2-C ,  6-C ) :   1.0103
B(  3-C ,  4-C ) :   1.5685 B(  3-C ,  5-H ) :   1.0041 B(  4-C , 20-C ) :   1.0451
B(  6-C ,  7-H ) :   0.9348 B(  6-C ,  8-H ) :   0.9477 B(  6-C ,  9-C ) :   1.0744
B(  9-C , 10-H ) :   0.9525 B(  9-C , 11-H ) :   0.9494 B(  9-C , 12-C ) :   1.0622
B( 12-C , 13-H ) :   0.9762 B( 12-C , 14-H ) :   0.9761 B( 12-C , 15-H ) :   0.9730
B( 16-S , 17-C ) :   1.1562 B( 16-S , 20-C ) :   1.1527 B( 17-C , 18-C ) :   1.6059
B( 17-C , 20-C ) :   0.1029 B( 17-C , 33-H ) :   0.9569 B( 18-C , 19-C ) :   1.2354
B( 18-C , 21-H ) :   1.0004 B( 19-C , 20-C ) :   1.5513 B( 19-C , 22-C ) :   1.0458
B( 22-C , 23-H ) :   0.9472 B( 22-C , 24-H ) :   0.9226 B( 22-C , 25-C ) :   1.0458
B( 25-C , 26-H ) :   0.9512 B( 25-C , 27-H ) :   0.9669 B( 25-C , 28-C ) :   1.0729
B( 28-C , 29-H ) :   0.9776 B( 28-C , 30-H ) :   0.9774 B( 28-C , 31-H ) :   0.9751

Dispersion correction           -0.014603082
FINAL SINGLE POINT ENERGY     -1339.862911993527

DIPOLE MOMENT
-------------
                                X             Y             Z
Electronic contribution:    -10.36332      12.80495     -18.63301
Nuclear contribution   :     10.56241     -13.00026      19.01939
                        -----------------------------------------
Total Dipole Moment    :      0.19909      -0.19530       0.38638
                        -----------------------------------------
Magnitude (a.u.)       :      0.47652
Magnitude (Debye)      :      1.21122

Rotational constants in cm-1:     0.017714     0.008894     0.007266
Rotational constants in MHz :   531.044754   266.632303   217.825613

                             ****ORCA TERMINATED NORMALLY****
TOTAL RUN TIME: 0 days 0 hours 0 minutes 22 seconds 670 msec
