                         Program Version 4.2.1 -  RELEASE  -
|  1> ! wB97X-D3 SP def2-SVP
|  2> %pal
|  3> nprocs 24
|  4> end
|  5>
|  6> * xyz 0 1
|  7> S 	 -89.5422 	 -34.157 	 -64.0892
|  8> C 	 -90.4546 	 -33.8517 	 -65.5749
|  9> C 	 -91.5903 	 -34.6864 	 -65.6127
| 10> C 	 -91.626 	 -35.5703 	 -64.5119
| 11> C 	 -90.666 	 -35.3242 	 -63.5679
| 12> H 	 -92.4044 	 -36.3675 	 -64.518
| 13> C 	 -92.4703 	 -34.8273 	 -66.8127
| 14> H 	 -92.45 	 -34.0556 	 -67.5177
| 15> H 	 -93.4373 	 -34.8275 	 -66.3371
| 16> C 	 -92.4856 	 -36.2361 	 -67.4213
| 17> H 	 -91.5776 	 -36.4739 	 -67.9521
| 18> H 	 -92.427 	 -36.8508 	 -66.554
| 19> C 	 -93.6914 	 -36.5268 	 -68.1919
| 20> H 	 -93.8348 	 -35.7986 	 -68.9399
| 21> H 	 -93.6939 	 -37.5473 	 -68.6717
| 22> H 	 -94.5917 	 -36.5157 	 -67.4914
| 23> S 	 -89.9879 	 -37.7898 	 -62.5614
| 24> C 	 -90.0095 	 -37.901 	 -60.8238
| 25> C 	 -89.9321 	 -36.6959 	 -60.2187
| 26> C 	 -90.1079 	 -35.5935 	 -61.0775
| 27> C 	 -90.3616 	 -36.072 	 -62.4016
| 28> H 	 -89.7421 	 -36.5618 	 -59.18
| 29> C 	 -90.173 	 -34.1794 	 -60.5795
| 30> H 	 -89.7017 	 -33.4875 	 -61.2987
| 31> H 	 -89.5149 	 -34.079 	 -59.7422
| 32> C 	 -91.5411 	 -33.7668 	 -60.0151
| 33> H 	 -91.2506 	 -33.0272 	 -59.3064
| 34> H 	 -91.9746 	 -34.5039 	 -59.3387
| 35> C 	 -92.5146 	 -33.3479 	 -61.097
| 36> H 	 -92.0485 	 -32.5873 	 -61.7274
| 37> H 	 -93.4944 	 -32.998 	 -60.8044
| 38> H 	 -92.7765 	 -34.1412 	 -61.8321
| 39> H 	 -90.0913 	 -33.3607 	 -66.4902
| 40> H 	 -89.9672 	 -38.8152 	 -60.2708
| 41> *
| 42>
| 43>                          ****END OF INPUT****

CARTESIAN COORDINATES (ANGSTROEM)
---------------------------------
  S    -89.542200  -34.157000  -64.089200
  C    -90.454600  -33.851700  -65.574900
  C    -91.590300  -34.686400  -65.612700
  C    -91.626000  -35.570300  -64.511900
  C    -90.666000  -35.324200  -63.567900
  H    -92.404400  -36.367500  -64.518000
  C    -92.470300  -34.827300  -66.812700
  H    -92.450000  -34.055600  -67.517700
  H    -93.437300  -34.827500  -66.337100
  C    -92.485600  -36.236100  -67.421300
  H    -91.577600  -36.473900  -67.952100
  H    -92.427000  -36.850800  -66.554000
  C    -93.691400  -36.526800  -68.191900
  H    -93.834800  -35.798600  -68.939900
  H    -93.693900  -37.547300  -68.671700
  H    -94.591700  -36.515700  -67.491400
  S    -89.987900  -37.789800  -62.561400
  C    -90.009500  -37.901000  -60.823800
  C    -89.932100  -36.695900  -60.218700
  C    -90.107900  -35.593500  -61.077500
  C    -90.361600  -36.072000  -62.401600
  H    -89.742100  -36.561800  -59.180000
  C    -90.173000  -34.179400  -60.579500
  H    -89.701700  -33.487500  -61.298700
  H    -89.514900  -34.079000  -59.742200
  C    -91.541100  -33.766800  -60.015100
  H    -91.250600  -33.027200  -59.306400
  H    -91.974600  -34.503900  -59.338700
  C    -92.514600  -33.347900  -61.097000
  H    -92.048500  -32.587300  -61.727400
  H    -93.494400  -32.998000  -60.804400
  H    -92.776500  -34.141200  -61.832100
  H    -90.091300  -33.360700  -66.490200
  H    -89.967200  -38.815200  -60.270800

 Total Charge           Charge          ....    0
 Multiplicity           Mult            ....    1
 Number of Electrons    NEL             ....  134
 Basis Dimension        Dim             ....  322

ORBITAL ENERGIES
----------------

  NO   OCC          E(Eh)            E(eV)
   0   2.0000     -88.966411     -2420.8991
   1   2.0000     -88.966159     -2420.8923
   2   2.0000     -10.322399      -280.8867
   3   2.0000     -10.321177      -280.8535
   4   2.0000     -10.314442      -280.6702
   5   2.0000     -10.308847      -280.5180
   6   2.0000     -10.299747      -280.2704
   7   2.0000     -10.299439      -280.2620
   8   2.0000     -10.293926      -280.1120
   9   2.0000     -10.288164      -279.9552
  10   2.0000     -10.284322      -279.8506
  11   2.0000     -10.283725      -279.8344
  12   2.0000     -10.281849      -279.7833
  13   2.0000     -10.280302      -279.7412
  14   2.0000     -10.276906      -279.6488
  15   2.0000     -10.269846      -279.4567
  16   2.0000      -8.081319      -219.9039
  17   2.0000      -8.080720      -219.8876
  18   2.0000      -6.039802      -164.3514
  19   2.0000      -6.039169      -164.3342
  20   2.0000      -6.035715      -164.2402
  21   2.0000      -6.035547      -164.2356
  22   2.0000      -6.032172      -164.1438
  23   2.0000      -6.031280      -164.1195
  24   2.0000      -1.011137       -27.5144
  25   2.0000      -0.985259       -26.8103
  26   2.0000      -0.926499       -25.2113
  27   2.0000      -0.910660       -24.7803
  28   2.0000      -0.874115       -23.7859
  29   2.0000      -0.853463       -23.2239
  30   2.0000      -0.844158       -22.9707
  31   2.0000      -0.812837       -22.1184
  32   2.0000      -0.787362       -21.4252
  33   2.0000      -0.769728       -20.9454
  34   2.0000      -0.712815       -19.3967
  35   2.0000      -0.702732       -19.1223
  36   2.0000      -0.691963       -18.8293
  37   2.0000      -0.663345       -18.0505
  38   2.0000      -0.632801       -17.2194
  39   2.0000      -0.627923       -17.0866
  40   2.0000      -0.602318       -16.3899
  41   2.0000      -0.571240       -15.5442
  42   2.0000      -0.563790       -15.3415
  43   2.0000      -0.549639       -14.9564
  44   2.0000      -0.534454       -14.5432
  45   2.0000      -0.528256       -14.3746
  46   2.0000      -0.519711       -14.1421
  47   2.0000      -0.515754       -14.0344
  48   2.0000      -0.503841       -13.7102
  49   2.0000      -0.496251       -13.5037
  50   2.0000      -0.490818       -13.3558
  51   2.0000      -0.479208       -13.0399
  52   2.0000      -0.471205       -12.8221
  53   2.0000      -0.466899       -12.7050
  54   2.0000      -0.459115       -12.4932
  55   2.0000      -0.454614       -12.3707
  56   2.0000      -0.445465       -12.1217
  57   2.0000      -0.438999       -11.9458
  58   2.0000      -0.430256       -11.7079
  59   2.0000      -0.425092       -11.5673
  60   2.0000      -0.421718       -11.4755
  61   2.0000      -0.416505       -11.3337
  62   2.0000      -0.407921       -11.1001
  63   2.0000      -0.335584        -9.1317
  64   2.0000      -0.333353        -9.0710
  65   2.0000      -0.327001        -8.8982
  66   2.0000      -0.287140        -7.8135
  67   0.0000       0.028304         0.7702
  68   0.0000       0.067055         1.8247
  69   0.0000       0.100712         2.7405
  70   0.0000       0.119732         3.2581
  71   0.0000       0.124471         3.3870

MULLIKEN ATOMIC CHARGES
-----------------------
   0 S :    0.120013
   1 C :   -0.136409
   2 C :   -0.099987
   3 C :   -0.014132
   4 C :   -0.141569
   5 H :    0.030663
   6 C :    0.096978
   7 H :    0.006985
   8 H :    0.010291
   9 C :   -0.043548
  10 H :    0.023465
  11 H :    0.000825
  12 C :   -0.050624
  13 H :    0.025117
  14 H :    0.044949
  15 H :    0.032262
  16 S :    0.124327
  17 C :   -0.071987
  18 C :   -0.018995
  19 C :   -0.021970
  20 C :   -0.173610
  21 H :    0.001243
  22 C :    0.060901
  23 H :    0.027083
  24 H :    0.004322
  25 C :   -0.021999
  26 H :    0.013929
  27 H :    0.019581
  28 C :   -0.033423
  29 H :    0.023055
  30 H :    0.026013
  31 H :    0.035479
  32 H :    0.057973
  33 H :    0.042802
Sum of atomic charges:    0.0000000

LOEWDIN ATOMIC CHARGES
----------------------
   0 S :    0.433841
   1 C :   -0.209451
   2 C :   -0.057380
   3 C :   -0.072544
   4 C :   -0.211849
   5 H :    0.036806
   6 C :   -0.023421
   7 H :    0.018872
   8 H :    0.034549
   9 C :   -0.041704
  10 H :    0.021575
  11 H :    0.018670
  12 C :   -0.064318
  13 H :    0.017368
  14 H :    0.035190
  15 H :    0.031000
  16 S :    0.406173
  17 C :   -0.183107
  18 C :   -0.066658
  19 C :   -0.051008
  20 C :   -0.201583
  21 H :    0.026792
  22 C :   -0.034290
  23 H :    0.027545
  24 H :    0.029202
  25 C :   -0.034684
  26 H :    0.021062
  27 H :    0.025932
  28 C :   -0.070911
  29 H :    0.026024
  30 H :    0.021648
  31 H :    0.032679
  32 H :    0.033709
  33 H :    0.024272

  Mayer bond orders larger than 0.100000
B(  0-S ,  1-C ) :   1.1383 B(  0-S ,  4-C ) :   1.1769 B(  1-C ,  2-C ) :   1.5864
B(  1-C , 32-H ) :   0.9654 B(  2-C ,  3-C ) :   1.2641 B(  2-C ,  6-C ) :   1.0357
B(  3-C ,  4-C ) :   1.5306 B(  3-C ,  5-H ) :   0.9885 B(  4-C , 20-C ) :   1.0699
B(  6-C ,  7-H ) :   0.9484 B(  6-C ,  8-H ) :   0.9248 B(  6-C ,  9-C ) :   1.0519
B(  9-C , 10-H ) :   0.9474 B(  9-C , 11-H ) :   0.9483 B(  9-C , 12-C ) :   1.0942
B( 12-C , 13-H ) :   0.9743 B( 12-C , 14-H ) :   0.9689 B( 12-C , 15-H ) :   0.9709
B( 16-S , 17-C ) :   1.1407 B( 16-S , 20-C ) :   1.1503 B( 17-C , 18-C ) :   1.6069
B( 17-C , 20-C ) :   0.1012 B( 17-C , 33-H ) :   0.9690 B( 18-C , 19-C ) :   1.2640
B( 18-C , 21-H ) :   0.9911 B( 19-C , 20-C ) :   1.5290 B( 19-C , 22-C ) :   1.0616
B( 22-C , 23-H ) :   0.9259 B( 22-C , 24-H ) :   0.9234 B( 22-C , 25-C ) :   1.0729
B( 25-C , 26-H ) :   0.9542 B( 25-C , 27-H ) :   0.9516 B( 25-C , 28-C ) :   1.0723
B( 28-C , 29-H ) :   0.9743 B( 28-C , 30-H ) :   0.9738 B( 28-C , 31-H ) :   0.9708

Dispersion correction           -0.015161099
FINAL SINGLE POINT ENERGY     -1339.863714138490

DIPOLE MOMENT
-------------
                                X             Y             Z
Electronic contribution:     17.03766      -6.22195       5.94127
Nuclear contribution   :    -17.24649       6.20756      -5.97409
                        -----------------------------------------
Total Dipole Moment    :     -0.20883      -0.01439      -0.03282
                        -----------------------------------------
Magnitude (a.u.)       :      0.21188
Magnitude (Debye)      :      0.53857

Rotational constants in cm-1:     0.020839     0.008552     0.007375
Rotational constants in MHz :   624.746361   256.388565   221.107148

                             ****ORCA TERMINATED NORMALLY****
TOTAL RUN TIME: 0 days 0 hours 0 minutes 22 seconds 284 msec
