                         Program Version 4.2.1 -  RELEASE  -
|  1> ! wB97X-D3 SP def2-SVP
|  2> %pal
|  3> nprocs 24
|  4> end
|  5>
|  6> * xyz 0 1
|  7> S 	 -115.434 	 17.4867 	 -114.199
|  8> C 	 -113.894 	 17.8227 	 -114.965
|  9> C 	 -113.964 	 17.8046 	 -116.337
| 10> C 	 -115.347 	 17.6323 	 -116.837
| 11> C 	 -116.176 	 17.2357 	 -115.79
| 12> H 	 -115.784 	 17.5202 	 -117.88
| 13> C 	 -112.724 	 18.0918 	 -117.193
| 14> H 	 -112.192 	 17.0831 	 -117.159
| 15> H 	 -112.121 	 18.8615 	 -116.769
| 16> C 	 -112.973 	 18.4229 	 -118.693
| 17> H 	 -113.354 	 17.5384 	 -119.139
| 18> H 	 -113.747 	 19.0872 	 -118.771
| 19> C 	 -111.832 	 18.8659 	 -119.574
| 20> H 	 -111.426 	 19.9173 	 -119.385
| 21> H 	 -110.966 	 18.2462 	 -119.414
| 22> H 	 -112.01 	 18.8135 	 -120.645
| 23> S 	 -117.742 	 15.0609 	 -116.095
| 24> C 	 -119.463 	 15.2558 	 -115.989
| 25> C 	 -119.794 	 16.5843 	 -115.913
| 26> C 	 -118.721 	 17.4857 	 -115.945
| 27> C 	 -117.523 	 16.7834 	 -116.046
| 28> H 	 -120.809 	 16.8989 	 -115.874
| 29> C 	 -118.894 	 18.974 	 -115.714
| 30> H 	 -118.004 	 19.1179 	 -115.21
| 31> H 	 -119.729 	 19.1344 	 -114.993
| 32> C 	 -119.005 	 19.9623 	 -116.897
| 33> H 	 -119.21 	 20.9409 	 -116.538
| 34> H 	 -119.905 	 19.7146 	 -117.469
| 35> C 	 -117.736 	 20.1054 	 -117.721
| 36> H 	 -117.995 	 20.6686 	 -118.584
| 37> H 	 -117.335 	 19.1897 	 -118.129
| 38> H 	 -116.928 	 20.5521 	 -117.131
| 39> H 	 -113.095 	 18.0735 	 -114.23
| 40> H 	 -120.125 	 14.4337 	 -115.855
| 41> *
| 42>
| 43>                          ****END OF INPUT****

CARTESIAN COORDINATES (ANGSTROEM)
---------------------------------
  S    -115.434000   17.486700  -114.199000
  C    -113.894000   17.822700  -114.965000
  C    -113.964000   17.804600  -116.337000
  C    -115.347000   17.632300  -116.837000
  C    -116.176000   17.235700  -115.790000
  H    -115.784000   17.520200  -117.880000
  C    -112.724000   18.091800  -117.193000
  H    -112.192000   17.083100  -117.159000
  H    -112.121000   18.861500  -116.769000
  C    -112.973000   18.422900  -118.693000
  H    -113.354000   17.538400  -119.139000
  H    -113.747000   19.087200  -118.771000
  C    -111.832000   18.865900  -119.574000
  H    -111.426000   19.917300  -119.385000
  H    -110.966000   18.246200  -119.414000
  H    -112.010000   18.813500  -120.645000
  S    -117.742000   15.060900  -116.095000
  C    -119.463000   15.255800  -115.989000
  C    -119.794000   16.584300  -115.913000
  C    -118.721000   17.485700  -115.945000
  C    -117.523000   16.783400  -116.046000
  H    -120.809000   16.898900  -115.874000
  C    -118.894000   18.974000  -115.714000
  H    -118.004000   19.117900  -115.210000
  H    -119.729000   19.134400  -114.993000
  C    -119.005000   19.962300  -116.897000
  H    -119.210000   20.940900  -116.538000
  H    -119.905000   19.714600  -117.469000
  C    -117.736000   20.105400  -117.721000
  H    -117.995000   20.668600  -118.584000
  H    -117.335000   19.189700  -118.129000
  H    -116.928000   20.552100  -117.131000
  H    -113.095000   18.073500  -114.230000
  H    -120.125000   14.433700  -115.855000

 Total Charge           Charge          ....    0
 Multiplicity           Mult            ....    1
 Number of Electrons    NEL             ....  134
 Basis Dimension        Dim             ....  322

ORBITAL ENERGIES
----------------

  NO   OCC          E(Eh)            E(eV)
   0   2.0000     -88.964854     -2420.8568
   1   2.0000     -88.963936     -2420.8318
   2   2.0000     -10.326203      -280.9903
   3   2.0000     -10.317837      -280.7626
   4   2.0000     -10.316992      -280.7396
   5   2.0000     -10.311376      -280.5868
   6   2.0000     -10.311302      -280.5848
   7   2.0000     -10.305470      -280.4261
   8   2.0000     -10.297812      -280.2177
   9   2.0000     -10.297101      -280.1984
  10   2.0000     -10.284636      -279.8592
  11   2.0000     -10.284375      -279.8521
  12   2.0000     -10.282827      -279.8100
  13   2.0000     -10.280811      -279.7551
  14   2.0000     -10.276551      -279.6392
  15   2.0000     -10.268775      -279.4276
  16   2.0000      -8.079297      -219.8488
  17   2.0000      -8.079208      -219.8464
  18   2.0000      -6.037693      -164.2940
  19   2.0000      -6.037621      -164.2920
  20   2.0000      -6.033854      -164.1895
  21   2.0000      -6.033679      -164.1848
  22   2.0000      -6.030250      -164.0914
  23   2.0000      -6.029947      -164.0832
  24   2.0000      -1.006860       -27.3980
  25   2.0000      -0.980961       -26.6933
  26   2.0000      -0.908647       -24.7255
  27   2.0000      -0.907822       -24.7031
  28   2.0000      -0.871836       -23.7239
  29   2.0000      -0.853814       -23.2335
  30   2.0000      -0.845769       -23.0145
  31   2.0000      -0.813354       -22.1325
  32   2.0000      -0.782977       -21.3059
  33   2.0000      -0.769885       -20.9496
  34   2.0000      -0.712690       -19.3933
  35   2.0000      -0.703568       -19.1450
  36   2.0000      -0.687658       -18.7121
  37   2.0000      -0.660502       -17.9732
  38   2.0000      -0.644573       -17.5397
  39   2.0000      -0.607944       -16.5430
  40   2.0000      -0.592413       -16.1204
  41   2.0000      -0.570411       -15.5217
  42   2.0000      -0.559057       -15.2127
  43   2.0000      -0.548209       -14.9175
  44   2.0000      -0.547315       -14.8932
  45   2.0000      -0.524332       -14.2678
  46   2.0000      -0.518230       -14.1017
  47   2.0000      -0.513838       -13.9822
  48   2.0000      -0.502657       -13.6780
  49   2.0000      -0.496018       -13.4973
  50   2.0000      -0.487756       -13.2725
  51   2.0000      -0.480258       -13.0685
  52   2.0000      -0.474831       -12.9208
  53   2.0000      -0.462266       -12.5789
  54   2.0000      -0.455991       -12.4081
  55   2.0000      -0.449875       -12.2417
  56   2.0000      -0.442773       -12.0485
  57   2.0000      -0.433743       -11.8027
  58   2.0000      -0.428376       -11.6567
  59   2.0000      -0.426864       -11.6156
  60   2.0000      -0.420890       -11.4530
  61   2.0000      -0.417612       -11.3638
  62   2.0000      -0.413546       -11.2532
  63   2.0000      -0.335838        -9.1386
  64   2.0000      -0.329775        -8.9736
  65   2.0000      -0.312882        -8.5139
  66   2.0000      -0.311837        -8.4855
  67   0.0000       0.047188         1.2841
  68   0.0000       0.048393         1.3168
  69   0.0000       0.110721         3.0129
  70   0.0000       0.123515         3.3610
  71   0.0000       0.129723         3.5300

MULLIKEN ATOMIC CHARGES
-----------------------
   0 S :    0.113939
   1 C :   -0.162508
   2 C :   -0.059504
   3 C :   -0.001767
   4 C :   -0.171384
   5 H :    0.063191
   6 C :    0.044197
   7 H :    0.052520
   8 H :    0.032239
   9 C :   -0.038102
  10 H :    0.014912
  11 H :    0.009467
  12 C :   -0.049642
  13 H :    0.033770
  14 H :    0.018104
  15 H :    0.036003
  16 S :    0.120838
  17 C :   -0.085044
  18 C :   -0.025423
  19 C :   -0.021880
  20 C :   -0.223337
  21 H :    0.000545
  22 C :    0.096437
  23 H :   -0.005423
  24 H :    0.029389
  25 C :   -0.024751
  26 H :    0.017742
  27 H :    0.020395
  28 C :   -0.027741
  29 H :    0.021893
  30 H :    0.008825
  31 H :    0.041070
  32 H :    0.072517
  33 H :    0.048515
Sum of atomic charges:    0.0000000

LOEWDIN ATOMIC CHARGES
----------------------
   0 S :    0.388413
   1 C :   -0.200209
   2 C :   -0.061250
   3 C :   -0.065758
   4 C :   -0.197225
   5 H :    0.047305
   6 C :   -0.028541
   7 H :    0.045778
   8 H :    0.024751
   9 C :   -0.040968
  10 H :    0.023032
  11 H :    0.011268
  12 C :   -0.068198
  13 H :    0.029603
  14 H :    0.021424
  15 H :    0.029364
  16 S :    0.425721
  17 C :   -0.185082
  18 C :   -0.068759
  19 C :   -0.050196
  20 C :   -0.215336
  21 H :    0.024850
  22 C :   -0.028162
  23 H :    0.017976
  24 H :    0.036734
  25 C :   -0.032521
  26 H :    0.022498
  27 H :    0.022987
  28 C :   -0.060605
  29 H :    0.023794
  30 H :    0.017671
  31 H :    0.030654
  32 H :    0.035453
  33 H :    0.023532

  Mayer bond orders larger than 0.100000
B(  0-S ,  1-C ) :   1.1288 B(  0-S ,  4-C ) :   1.1345 B(  1-C ,  2-C ) :   1.6325
B(  1-C , 32-H ) :   0.9698 B(  2-C ,  3-C ) :   1.1977 B(  2-C ,  6-C ) :   1.0041
B(  3-C ,  4-C ) :   1.6052 B(  3-C ,  5-H ) :   0.9686 B(  4-C , 20-C ) :   1.0305
B(  6-C ,  7-H ) :   0.9333 B(  6-C ,  8-H ) :   0.9555 B(  6-C ,  9-C ) :   1.0798
B(  9-C , 10-H ) :   0.9432 B(  9-C , 11-H ) :   0.9541 B(  9-C , 12-C ) :   1.0910
B( 12-C , 13-H ) :   0.9729 B( 12-C , 14-H ) :   0.9724 B( 12-C , 15-H ) :   0.9729
B( 16-S , 17-C ) :   1.1631 B( 16-S , 20-C ) :   1.1673 B( 17-C , 18-C ) :   1.5810
B( 17-C , 33-H ) :   0.9733 B( 18-C , 19-C ) :   1.2724 B( 18-C , 21-H ) :   0.9953
B( 19-C , 20-C ) :   1.5686 B( 19-C , 22-C ) :   1.0145 B( 22-C , 23-H ) :   0.9157
B( 22-C , 24-H ) :   0.9395 B( 22-C , 25-C ) :   1.0790 B( 25-C , 26-H ) :   0.9498
B( 25-C , 27-H ) :   0.9545 B( 25-C , 28-C ) :   1.0832 B( 28-C , 29-H ) :   0.9668
B( 28-C , 30-H ) :   0.9729 B( 28-C , 31-H ) :   0.9728

Dispersion correction           -0.015198725
FINAL SINGLE POINT ENERGY     -1339.865469131981

DIPOLE MOMENT
-------------
                                X             Y             Z
Electronic contribution:     -8.66539     -18.25970      17.65579
Nuclear contribution   :      8.67572      18.58789     -17.87790
                        -----------------------------------------
Total Dipole Moment    :      0.01033       0.32819      -0.22211
                        -----------------------------------------
Magnitude (a.u.)       :      0.39642
Magnitude (Debye)      :      1.00762

Rotational constants in cm-1:     0.019044     0.008465     0.007487
Rotational constants in MHz :   570.928909   253.762397   224.457761

                             ****ORCA TERMINATED NORMALLY****
TOTAL RUN TIME: 0 days 0 hours 0 minutes 22 seconds 97 msec
