                         Program Version 4.2.1 -  RELEASE  -
|  1> ! wB97X-D3 SP def2-SVP
|  2> %pal
|  3> nprocs 24
|  4> end
|  5>
|  6> * xyz 0 1
|  7> S 	 -117.473 	 46.5143 	 -113.267
|  8> C 	 -118.334 	 44.9945 	 -113.269
|  9> C 	 -117.688 	 44.0439 	 -112.493
| 10> C 	 -116.425 	 44.5016 	 -112.056
| 11> C 	 -116.093 	 45.7635 	 -112.435
| 12> H 	 -115.688 	 44.0926 	 -111.384
| 13> C 	 -118.316 	 42.7051 	 -112.072
| 14> H 	 -118.365 	 42.8629 	 -110.99
| 15> H 	 -117.728 	 41.8607 	 -112.227
| 16> C 	 -119.781 	 42.4145 	 -112.434
| 17> H 	 -120.458 	 43.1066 	 -111.96
| 18> H 	 -119.935 	 42.4412 	 -113.509
| 19> C 	 -120.253 	 41.0858 	 -111.792
| 20> H 	 -119.973 	 41.1386 	 -110.773
| 21> H 	 -121.302 	 40.9752 	 -111.765
| 22> H 	 -119.907 	 40.1898 	 -112.283
| 23> S 	 -115.328 	 48.1881 	 -111.651
| 24> C 	 -113.657 	 48.6349 	 -111.74
| 25> C 	 -112.826 	 47.5214 	 -111.837
| 26> C 	 -113.522 	 46.369 	 -112.118
| 27> C 	 -114.902 	 46.5579 	 -112.158
| 28> H 	 -111.737 	 47.6343 	 -111.626
| 29> C 	 -112.745 	 45.1405 	 -112.363
| 30> H 	 -113.397 	 44.2955 	 -112.464
| 31> H 	 -112.167 	 44.923 	 -111.438
| 32> C 	 -111.896 	 45.2951 	 -113.621
| 33> H 	 -111.043 	 44.5899 	 -113.739
| 34> H 	 -111.317 	 46.2503 	 -113.509
| 35> C 	 -112.695 	 45.2268 	 -115.002
| 36> H 	 -113.753 	 45.4024 	 -114.859
| 37> H 	 -112.575 	 44.2534 	 -115.485
| 38> H 	 -112.453 	 45.9229 	 -115.775
| 39> H 	 -119.305 	 44.7653 	 -113.631
| 40> H 	 -113.239 	 49.5935 	 -111.481
| 41> *
| 42>
| 43>                          ****END OF INPUT****

CARTESIAN COORDINATES (ANGSTROEM)
---------------------------------
  S    -117.473000   46.514300  -113.267000
  C    -118.334000   44.994500  -113.269000
  C    -117.688000   44.043900  -112.493000
  C    -116.425000   44.501600  -112.056000
  C    -116.093000   45.763500  -112.435000
  H    -115.688000   44.092600  -111.384000
  C    -118.316000   42.705100  -112.072000
  H    -118.365000   42.862900  -110.990000
  H    -117.728000   41.860700  -112.227000
  C    -119.781000   42.414500  -112.434000
  H    -120.458000   43.106600  -111.960000
  H    -119.935000   42.441200  -113.509000
  C    -120.253000   41.085800  -111.792000
  H    -119.973000   41.138600  -110.773000
  H    -121.302000   40.975200  -111.765000
  H    -119.907000   40.189800  -112.283000
  S    -115.328000   48.188100  -111.651000
  C    -113.657000   48.634900  -111.740000
  C    -112.826000   47.521400  -111.837000
  C    -113.522000   46.369000  -112.118000
  C    -114.902000   46.557900  -112.158000
  H    -111.737000   47.634300  -111.626000
  C    -112.745000   45.140500  -112.363000
  H    -113.397000   44.295500  -112.464000
  H    -112.167000   44.923000  -111.438000
  C    -111.896000   45.295100  -113.621000
  H    -111.043000   44.589900  -113.739000
  H    -111.317000   46.250300  -113.509000
  C    -112.695000   45.226800  -115.002000
  H    -113.753000   45.402400  -114.859000
  H    -112.575000   44.253400  -115.485000
  H    -112.453000   45.922900  -115.775000
  H    -119.305000   44.765300  -113.631000
  H    -113.239000   49.593500  -111.481000

 Total Charge           Charge          ....    0
 Multiplicity           Mult            ....    1
 Number of Electrons    NEL             ....  134
 Basis Dimension        Dim             ....  322

ORBITAL ENERGIES
----------------

  NO   OCC          E(Eh)            E(eV)
   0   2.0000     -88.966838     -2420.9107
   1   2.0000     -88.963836     -2420.8290
   2   2.0000     -10.327979      -281.0386
   3   2.0000     -10.327814      -281.0341
   4   2.0000     -10.313991      -280.6580
   5   2.0000     -10.309005      -280.5223
   6   2.0000     -10.302911      -280.3564
   7   2.0000     -10.298556      -280.2380
   8   2.0000     -10.293616      -280.1035
   9   2.0000     -10.291491      -280.0457
  10   2.0000     -10.291083      -280.0346
  11   2.0000     -10.290671      -280.0234
  12   2.0000     -10.289016      -279.9784
  13   2.0000     -10.288928      -279.9760
  14   2.0000     -10.273125      -279.5459
  15   2.0000     -10.272345      -279.5247
  16   2.0000      -8.081759      -219.9158
  17   2.0000      -8.078106      -219.8164
  18   2.0000      -6.040159      -164.3611
  19   2.0000      -6.036696      -164.2668
  20   2.0000      -6.036339      -164.2571
  21   2.0000      -6.032781      -164.1603
  22   2.0000      -6.032512      -164.1530
  23   2.0000      -6.028670      -164.0484
  24   2.0000      -1.011419       -27.5221
  25   2.0000      -0.987498       -26.8712
  26   2.0000      -0.915438       -24.9103
  27   2.0000      -0.910517       -24.7764
  28   2.0000      -0.870735       -23.6939
  29   2.0000      -0.850648       -23.1473
  30   2.0000      -0.842510       -22.9259
  31   2.0000      -0.815530       -22.1917
  32   2.0000      -0.784686       -21.3524
  33   2.0000      -0.773722       -21.0540
  34   2.0000      -0.714944       -19.4546
  35   2.0000      -0.706258       -19.2183
  36   2.0000      -0.694548       -18.8996
  37   2.0000      -0.663564       -18.0565
  38   2.0000      -0.643604       -17.5134
  39   2.0000      -0.612259       -16.6604
  40   2.0000      -0.597436       -16.2571
  41   2.0000      -0.579847       -15.7784
  42   2.0000      -0.569062       -15.4850
  43   2.0000      -0.555155       -15.1065
  44   2.0000      -0.534715       -14.5503
  45   2.0000      -0.519630       -14.1399
  46   2.0000      -0.517258       -14.0753
  47   2.0000      -0.511045       -13.9062
  48   2.0000      -0.501917       -13.6579
  49   2.0000      -0.497013       -13.5244
  50   2.0000      -0.490356       -13.3433
  51   2.0000      -0.479776       -13.0554
  52   2.0000      -0.470475       -12.8023
  53   2.0000      -0.462268       -12.5790
  54   2.0000      -0.458445       -12.4749
  55   2.0000      -0.450619       -12.2620
  56   2.0000      -0.446664       -12.1543
  57   2.0000      -0.439474       -11.9587
  58   2.0000      -0.433198       -11.7879
  59   2.0000      -0.431014       -11.7285
  60   2.0000      -0.422482       -11.4963
  61   2.0000      -0.415406       -11.3038
  62   2.0000      -0.411332       -11.1929
  63   2.0000      -0.350480        -9.5370
  64   2.0000      -0.334379        -9.0989
  65   2.0000      -0.328313        -8.9338
  66   2.0000      -0.285421        -7.7667
  67   0.0000       0.025470         0.6931
  68   0.0000       0.072273         1.9666
  69   0.0000       0.098040         2.6678
  70   0.0000       0.131183         3.5697
  71   0.0000       0.137631         3.7451

MULLIKEN ATOMIC CHARGES
-----------------------
   0 S :    0.103287
   1 C :   -0.091291
   2 C :   -0.083335
   3 C :    0.025106
   4 C :   -0.145605
   5 H :    0.006487
   6 C :    0.078008
   7 H :    0.032683
   8 H :    0.026052
   9 C :   -0.110289
  10 H :    0.030812
  11 H :    0.039319
  12 C :   -0.014397
  13 H :    0.015788
  14 H :    0.018041
  15 H :    0.031946
  16 S :    0.104644
  17 C :   -0.075661
  18 C :   -0.084532
  19 C :   -0.019839
  20 C :   -0.159709
  21 H :    0.042288
  22 C :    0.093845
  23 H :    0.005702
  24 H :    0.041152
  25 C :   -0.099666
  26 H :    0.030464
  27 H :    0.029780
  28 C :   -0.045862
  29 H :    0.035064
  30 H :    0.033152
  31 H :    0.027506
  32 H :    0.031791
  33 H :    0.047266
Sum of atomic charges:    0.0000000

LOEWDIN ATOMIC CHARGES
----------------------
   0 S :    0.388438
   1 C :   -0.197174
   2 C :   -0.059035
   3 C :   -0.069787
   4 C :   -0.185047
   5 H :    0.032306
   6 C :   -0.026895
   7 H :    0.040723
   8 H :    0.021763
   9 C :   -0.039494
  10 H :    0.025319
  11 H :    0.019717
  12 C :   -0.054655
  13 H :    0.021547
  14 H :    0.021580
  15 H :    0.023156
  16 S :    0.414878
  17 C :   -0.187864
  18 C :   -0.072681
  19 C :   -0.063603
  20 C :   -0.190762
  21 H :    0.041664
  22 C :   -0.032855
  23 H :    0.022711
  24 H :    0.041732
  25 C :   -0.043791
  26 H :    0.024963
  27 H :    0.025055
  28 C :   -0.068321
  29 H :    0.027447
  30 H :    0.027157
  31 H :    0.025119
  32 H :    0.022237
  33 H :    0.024452

  Mayer bond orders larger than 0.100000
B(  0-S ,  1-C ) :   1.1233 B(  0-S ,  4-C ) :   1.1260 B(  1-C ,  2-C ) :   1.6395
B(  1-C , 32-H ) :   0.9587 B(  2-C ,  3-C ) :   1.2199 B(  2-C ,  6-C ) :   0.9924
B(  3-C ,  4-C ) :   1.6127 B(  3-C ,  5-H ) :   0.9958 B(  4-C , 20-C ) :   1.0393
B(  6-C ,  7-H ) :   0.9355 B(  6-C ,  8-H ) :   0.9496 B(  6-C ,  9-C ) :   1.0778
B(  9-C , 10-H ) :   0.9541 B(  9-C , 11-H ) :   0.9532 B(  9-C , 12-C ) :   1.0828
B( 12-C , 13-H ) :   0.9730 B( 12-C , 14-H ) :   0.9740 B( 12-C , 15-H ) :   0.9755
B( 16-S , 17-C ) :   1.1611 B( 16-S , 20-C ) :   1.1521 B( 17-C , 18-C ) :   1.5939
B( 17-C , 20-C ) :   0.1100 B( 17-C , 33-H ) :   0.9666 B( 18-C , 19-C ) :   1.2608
B( 18-C , 21-H ) :   0.9781 B( 19-C , 20-C ) :   1.5642 B( 19-C , 22-C ) :   1.0502
B( 22-C , 23-H ) :   0.9339 B( 22-C , 24-H ) :   0.9300 B( 22-C , 25-C ) :   1.0654
B( 25-C , 26-H ) :   0.9619 B( 25-C , 27-H ) :   0.9617 B( 25-C , 28-C ) :   1.0425
B( 28-C , 29-H ) :   0.9820 B( 28-C , 30-H ) :   0.9800 B( 28-C , 31-H ) :   0.9771

Dispersion correction           -0.013892241
FINAL SINGLE POINT ENERGY     -1339.862503457441

DIPOLE MOMENT
-------------
                                X             Y             Z
Electronic contribution:     -0.82684      23.60303       3.58307
Nuclear contribution   :      1.00443     -24.14075      -3.25720
                        -----------------------------------------
Total Dipole Moment    :      0.17760      -0.53772       0.32587
                        -----------------------------------------
Magnitude (a.u.)       :      0.65335
Magnitude (Debye)      :      1.66069

Rotational constants in cm-1:     0.023421     0.007190     0.006215
Rotational constants in MHz :   702.147776   215.553413   186.331891

                             ****ORCA TERMINATED NORMALLY****
TOTAL RUN TIME: 0 days 0 hours 0 minutes 21 seconds 354 msec
