                         Program Version 4.2.1 -  RELEASE  -
|  1> ! wB97X-D3 SP def2-SVP
|  2> %pal
|  3> nprocs 24
|  4> end
|  5>
|  6> * xyz 0 1
|  7> S 	 -115.018 	 36.6036 	 -120.834
|  8> C 	 -114.318 	 35.0311 	 -120.708
|  9> C 	 -115.187 	 34.17 	 -120.031
| 10> C 	 -116.286 	 34.8928 	 -119.45
| 11> C 	 -116.416 	 36.1467 	 -119.921
| 12> H 	 -117.129 	 34.4473 	 -118.986
| 13> C 	 -114.988 	 32.6596 	 -119.807
| 14> H 	 -114.642 	 32.4516 	 -118.693
| 15> H 	 -114.183 	 32.295 	 -120.415
| 16> C 	 -116.213 	 31.7896 	 -120.15
| 17> H 	 -116.875 	 31.8371 	 -119.271
| 18> H 	 -116.771 	 32.0941 	 -121.044
| 19> C 	 -115.988 	 30.315 	 -120.345
| 20> H 	 -115.148 	 30.0692 	 -120.979
| 21> H 	 -115.778 	 29.8069 	 -119.366
| 22> H 	 -116.907 	 29.8409 	 -120.752
| 23> S 	 -118.402 	 37.4136 	 -121.282
| 24> C 	 -119.576 	 38.292 	 -120.398
| 25> C 	 -119.345 	 38.2873 	 -119.043
| 26> C 	 -118.203 	 37.5715 	 -118.639
| 27> C 	 -117.492 	 37.1273 	 -119.772
| 28> H 	 -120.018 	 38.6964 	 -118.352
| 29> C 	 -117.87 	 37.3215 	 -117.195
| 30> H 	 -118.011 	 38.3443 	 -116.689
| 31> H 	 -116.827 	 37.023 	 -117.099
| 32> C 	 -118.747 	 36.2685 	 -116.503
| 33> H 	 -118.67 	 35.2136 	 -116.941
| 34> H 	 -119.761 	 36.5105 	 -116.743
| 35> C 	 -118.638 	 36.0668 	 -115.005
| 36> H 	 -119.238 	 35.2556 	 -114.664
| 37> H 	 -119.044 	 37.0049 	 -114.531
| 38> H 	 -117.639 	 35.9518 	 -114.525
| 39> H 	 -113.357 	 34.7894 	 -120.983
| 40> H 	 -120.49 	 38.5227 	 -120.752
| 41> *
| 42>
| 43>                          ****END OF INPUT****

CARTESIAN COORDINATES (ANGSTROEM)
---------------------------------
  S    -115.018000   36.603600  -120.834000
  C    -114.318000   35.031100  -120.708000
  C    -115.187000   34.170000  -120.031000
  C    -116.286000   34.892800  -119.450000
  C    -116.416000   36.146700  -119.921000
  H    -117.129000   34.447300  -118.986000
  C    -114.988000   32.659600  -119.807000
  H    -114.642000   32.451600  -118.693000
  H    -114.183000   32.295000  -120.415000
  C    -116.213000   31.789600  -120.150000
  H    -116.875000   31.837100  -119.271000
  H    -116.771000   32.094100  -121.044000
  C    -115.988000   30.315000  -120.345000
  H    -115.148000   30.069200  -120.979000
  H    -115.778000   29.806900  -119.366000
  H    -116.907000   29.840900  -120.752000
  S    -118.402000   37.413600  -121.282000
  C    -119.576000   38.292000  -120.398000
  C    -119.345000   38.287300  -119.043000
  C    -118.203000   37.571500  -118.639000
  C    -117.492000   37.127300  -119.772000
  H    -120.018000   38.696400  -118.352000
  C    -117.870000   37.321500  -117.195000
  H    -118.011000   38.344300  -116.689000
  H    -116.827000   37.023000  -117.099000
  C    -118.747000   36.268500  -116.503000
  H    -118.670000   35.213600  -116.941000
  H    -119.761000   36.510500  -116.743000
  C    -118.638000   36.066800  -115.005000
  H    -119.238000   35.255600  -114.664000
  H    -119.044000   37.004900  -114.531000
  H    -117.639000   35.951800  -114.525000
  H    -113.357000   34.789400  -120.983000
  H    -120.490000   38.522700  -120.752000

 Total Charge           Charge          ....    0
 Multiplicity           Mult            ....    1
 Number of Electrons    NEL             ....  134
 Basis Dimension        Dim             ....  322

ORBITAL ENERGIES
----------------

  NO   OCC          E(Eh)            E(eV)
   0   2.0000     -88.967709     -2420.9344
   1   2.0000     -88.960538     -2420.7393
   2   2.0000     -10.328422      -281.0506
   3   2.0000     -10.322805      -280.8978
   4   2.0000     -10.307130      -280.4713
   5   2.0000     -10.307039      -280.4688
   6   2.0000     -10.305387      -280.4238
   7   2.0000     -10.304012      -280.3864
   8   2.0000     -10.301670      -280.3227
   9   2.0000     -10.300526      -280.2916
  10   2.0000     -10.292322      -280.0683
  11   2.0000     -10.287119      -279.9267
  12   2.0000     -10.286131      -279.8998
  13   2.0000     -10.285789      -279.8906
  14   2.0000     -10.282853      -279.8107
  15   2.0000     -10.280302      -279.7412
  16   2.0000      -8.082609      -219.9390
  17   2.0000      -8.076339      -219.7683
  18   2.0000      -6.040968      -164.3831
  19   2.0000      -6.037104      -164.2780
  20   2.0000      -6.034734      -164.2135
  21   2.0000      -6.033495      -164.1798
  22   2.0000      -6.030629      -164.1017
  23   2.0000      -6.027216      -164.0089
  24   2.0000      -1.010067       -27.4853
  25   2.0000      -0.987827       -26.8801
  26   2.0000      -0.911938       -24.8151
  27   2.0000      -0.908462       -24.7205
  28   2.0000      -0.871187       -23.7062
  29   2.0000      -0.857840       -23.3430
  30   2.0000      -0.847821       -23.0704
  31   2.0000      -0.817334       -22.2408
  32   2.0000      -0.785759       -21.3816
  33   2.0000      -0.771173       -20.9847
  34   2.0000      -0.706850       -19.2344
  35   2.0000      -0.697723       -18.9860
  36   2.0000      -0.689312       -18.7571
  37   2.0000      -0.663787       -18.0626
  38   2.0000      -0.649947       -17.6860
  39   2.0000      -0.621104       -16.9011
  40   2.0000      -0.603378       -16.4187
  41   2.0000      -0.569142       -15.4872
  42   2.0000      -0.564636       -15.3645
  43   2.0000      -0.557656       -15.1746
  44   2.0000      -0.528972       -14.3941
  45   2.0000      -0.524427       -14.2704
  46   2.0000      -0.521065       -14.1789
  47   2.0000      -0.510529       -13.8922
  48   2.0000      -0.508047       -13.8247
  49   2.0000      -0.503405       -13.6983
  50   2.0000      -0.494154       -13.4466
  51   2.0000      -0.477963       -13.0060
  52   2.0000      -0.471805       -12.8385
  53   2.0000      -0.467275       -12.7152
  54   2.0000      -0.458828       -12.4853
  55   2.0000      -0.452223       -12.3056
  56   2.0000      -0.446671       -12.1545
  57   2.0000      -0.438128       -11.9221
  58   2.0000      -0.434043       -11.8109
  59   2.0000      -0.426821       -11.6144
  60   2.0000      -0.420791       -11.4503
  61   2.0000      -0.411161       -11.1883
  62   2.0000      -0.405817       -11.0428
  63   2.0000      -0.346279        -9.4227
  64   2.0000      -0.333491        -9.0748
  65   2.0000      -0.326548        -8.8858
  66   2.0000      -0.293797        -7.9946
  67   0.0000       0.037338         1.0160
  68   0.0000       0.061354         1.6695
  69   0.0000       0.114744         3.1223
  70   0.0000       0.119125         3.2416
  71   0.0000       0.128312         3.4916

MULLIKEN ATOMIC CHARGES
-----------------------
   0 S :    0.109094
   1 C :   -0.078173
   2 C :   -0.110726
   3 C :    0.060562
   4 C :   -0.173337
   5 H :    0.002102
   6 C :    0.060928
   7 H :    0.053965
   8 H :    0.005613
   9 C :   -0.100780
  10 H :    0.033093
  11 H :    0.043327
  12 C :   -0.064340
  13 H :    0.028300
  14 H :    0.028326
  15 H :    0.041944
  16 S :    0.115672
  17 C :   -0.023224
  18 C :   -0.035310
  19 C :   -0.017204
  20 C :   -0.161763
  21 H :   -0.004931
  22 C :    0.070022
  23 H :    0.041043
  24 H :    0.032250
  25 C :   -0.086534
  26 H :    0.032937
  27 H :    0.012587
  28 C :   -0.044868
  29 H :    0.032912
  30 H :    0.024944
  31 H :    0.039342
  32 H :    0.016482
  33 H :    0.015746
Sum of atomic charges:   -0.0000000

LOEWDIN ATOMIC CHARGES
----------------------
   0 S :    0.420423
   1 C :   -0.193637
   2 C :   -0.057642
   3 C :   -0.066093
   4 C :   -0.200401
   5 H :    0.025511
   6 C :   -0.036502
   7 H :    0.044930
   8 H :    0.020404
   9 C :   -0.052126
  10 H :    0.026439
  11 H :    0.029593
  12 C :   -0.069365
  13 H :    0.018977
  14 H :    0.026169
  15 H :    0.032811
  16 S :    0.420069
  17 C :   -0.177222
  18 C :   -0.063370
  19 C :   -0.048935
  20 C :   -0.194329
  21 H :    0.021449
  22 C :   -0.032083
  23 H :    0.042838
  24 H :    0.032235
  25 C :   -0.048486
  26 H :    0.029639
  27 H :    0.019250
  28 C :   -0.070384
  29 H :    0.024607
  30 H :    0.027607
  31 H :    0.029239
  32 H :    0.011478
  33 H :    0.006906

  Mayer bond orders larger than 0.100000
B(  0-S ,  1-C ) :   1.1423 B(  0-S ,  4-C ) :   1.1619 B(  1-C ,  2-C ) :   1.6094
B(  1-C , 32-H ) :   0.9810 B(  2-C ,  3-C ) :   1.2298 B(  2-C ,  6-C ) :   1.0316
B(  3-C ,  4-C ) :   1.6152 B(  3-C ,  5-H ) :   0.9887 B(  4-C , 20-C ) :   0.9828
B(  6-C ,  7-H ) :   0.9373 B(  6-C ,  8-H ) :   0.9456 B(  6-C ,  9-C ) :   1.0499
B(  9-C , 10-H ) :   0.9504 B(  9-C , 11-H ) :   0.9627 B(  9-C , 12-C ) :   1.0956
B( 12-C , 13-H ) :   0.9736 B( 12-C , 14-H ) :   0.9739 B( 12-C , 15-H ) :   0.9741
B( 16-S , 17-C ) :   1.1691 B( 16-S , 20-C ) :   1.1587 B( 17-C , 18-C ) :   1.5865
B( 17-C , 20-C ) :   0.1018 B( 17-C , 33-H ) :   0.9751 B( 18-C , 19-C ) :   1.2621
B( 18-C , 21-H ) :   0.9941 B( 19-C , 20-C ) :   1.5831 B( 19-C , 22-C ) :   1.0498
B( 22-C , 23-H ) :   0.9347 B( 22-C , 24-H ) :   0.9294 B( 22-C , 25-C ) :   1.0570
B( 25-C , 26-H ) :   0.9508 B( 25-C , 27-H ) :   0.9527 B( 25-C , 28-C ) :   1.0877
B( 28-C , 29-H ) :   0.9727 B( 28-C , 30-H ) :   0.9720 B( 28-C , 31-H ) :   0.9754

Dispersion correction           -0.013843583
FINAL SINGLE POINT ENERGY     -1339.868934070877

DIPOLE MOMENT
-------------
                                X             Y             Z
Electronic contribution:      3.78207      21.63196     -19.04580
Nuclear contribution   :     -4.15024     -22.13623      19.52990
                        -----------------------------------------
Total Dipole Moment    :     -0.36817      -0.50426       0.48410
                        -----------------------------------------
Magnitude (a.u.)       :      0.79005
Magnitude (Debye)      :      2.00815

Rotational constants in cm-1:     0.015973     0.008700     0.006925
Rotational constants in MHz :   478.851129   260.823590   207.598777

                             ****ORCA TERMINATED NORMALLY****
TOTAL RUN TIME: 0 days 0 hours 0 minutes 21 seconds 251 msec
