                         Program Version 4.2.1 -  RELEASE  -
|  1> ! wB97X-D3 SP def2-SVP
|  2> %pal
|  3> nprocs 24
|  4> end
|  5>
|  6> * xyz 0 1
|  7> S 	 -122.608 	 66.6065 	 -38.7837
|  8> C 	 -123.297 	 68.1767 	 -38.7462
|  9> C 	 -123.503 	 68.7688 	 -39.9558
| 10> C 	 -123.139 	 67.9009 	 -40.9871
| 11> C 	 -122.815 	 66.6019 	 -40.5772
| 12> H 	 -123.161 	 68.0694 	 -41.9885
| 13> C 	 -124.017 	 70.1884 	 -40.2174
| 14> H 	 -123.273 	 70.7539 	 -40.8012
| 15> H 	 -124.112 	 70.7891 	 -39.2865
| 16> C 	 -125.405 	 70.2294 	 -40.8957
| 17> H 	 -125.221 	 69.7149 	 -41.7792
| 18> H 	 -126.18 	 69.6457 	 -40.4941
| 19> C 	 -125.94 	 71.6355 	 -41.1865
| 20> H 	 -126.649 	 71.5241 	 -41.9457
| 21> H 	 -126.486 	 72.1632 	 -40.4641
| 22> H 	 -125.101 	 72.2559 	 -41.5963
| 23> S 	 -123.053 	 63.8144 	 -40.9378
| 24> C 	 -122.543 	 63.1072 	 -42.4553
| 25> C 	 -122.24 	 64.0835 	 -43.4046
| 26> C 	 -122.099 	 65.3432 	 -42.7775
| 27> C 	 -122.491 	 65.4632 	 -41.4879
| 28> H 	 -121.981 	 63.8258 	 -44.4223
| 29> C 	 -121.909 	 66.5476 	 -43.7151
| 30> H 	 -121.128 	 66.4065 	 -44.4881
| 31> H 	 -121.646 	 67.4273 	 -43.1711
| 32> C 	 -123.149 	 66.885 	 -44.5344
| 33> H 	 -123.971 	 67.0231 	 -43.8696
| 34> H 	 -123.43 	 66.1191 	 -45.1777
| 35> C 	 -123.019 	 68.2176 	 -45.3827
| 36> H 	 -123.373 	 68.0694 	 -46.3634
| 37> H 	 -121.945 	 68.5209 	 -45.5122
| 38> H 	 -123.583 	 69.0194 	 -45.0027
| 39> H 	 -123.832 	 68.5518 	 -37.8098
| 40> H 	 -122.308 	 62.0717 	 -42.5941
| 41> *
| 42>
| 43>                          ****END OF INPUT****

CARTESIAN COORDINATES (ANGSTROEM)
---------------------------------
  S    -122.608000   66.606500  -38.783700
  C    -123.297000   68.176700  -38.746200
  C    -123.503000   68.768800  -39.955800
  C    -123.139000   67.900900  -40.987100
  C    -122.815000   66.601900  -40.577200
  H    -123.161000   68.069400  -41.988500
  C    -124.017000   70.188400  -40.217400
  H    -123.273000   70.753900  -40.801200
  H    -124.112000   70.789100  -39.286500
  C    -125.405000   70.229400  -40.895700
  H    -125.221000   69.714900  -41.779200
  H    -126.180000   69.645700  -40.494100
  C    -125.940000   71.635500  -41.186500
  H    -126.649000   71.524100  -41.945700
  H    -126.486000   72.163200  -40.464100
  H    -125.101000   72.255900  -41.596300
  S    -123.053000   63.814400  -40.937800
  C    -122.543000   63.107200  -42.455300
  C    -122.240000   64.083500  -43.404600
  C    -122.099000   65.343200  -42.777500
  C    -122.491000   65.463200  -41.487900
  H    -121.981000   63.825800  -44.422300
  C    -121.909000   66.547600  -43.715100
  H    -121.128000   66.406500  -44.488100
  H    -121.646000   67.427300  -43.171100
  C    -123.149000   66.885000  -44.534400
  H    -123.971000   67.023100  -43.869600
  H    -123.430000   66.119100  -45.177700
  C    -123.019000   68.217600  -45.382700
  H    -123.373000   68.069400  -46.363400
  H    -121.945000   68.520900  -45.512200
  H    -123.583000   69.019400  -45.002700
  H    -123.832000   68.551800  -37.809800
  H    -122.308000   62.071700  -42.594100

 Total Charge           Charge          ....    0
 Multiplicity           Mult            ....    1
 Number of Electrons    NEL             ....  134
 Basis Dimension        Dim             ....  322

ORBITAL ENERGIES
----------------

  NO   OCC          E(Eh)            E(eV)
   0   2.0000     -88.969927     -2420.9948
   1   2.0000     -88.962697     -2420.7981
   2   2.0000     -10.338629      -281.3284
   3   2.0000     -10.333719      -281.1948
   4   2.0000     -10.320659      -280.8394
   5   2.0000     -10.315045      -280.6866
   6   2.0000     -10.303116      -280.3621
   7   2.0000     -10.299816      -280.2722
   8   2.0000     -10.299186      -280.2551
   9   2.0000     -10.296007      -280.1686
  10   2.0000     -10.290926      -280.0303
  11   2.0000     -10.289621      -279.9948
  12   2.0000     -10.281265      -279.7674
  13   2.0000     -10.278388      -279.6892
  14   2.0000     -10.277653      -279.6692
  15   2.0000     -10.273655      -279.5604
  16   2.0000      -8.084363      -219.9867
  17   2.0000      -8.076705      -219.7783
  18   2.0000      -6.042886      -164.4353
  19   2.0000      -6.039062      -164.3312
  20   2.0000      -6.035360      -164.2305
  21   2.0000      -6.034966      -164.2198
  22   2.0000      -6.031345      -164.1212
  23   2.0000      -6.027321      -164.0117
  24   2.0000      -1.004925       -27.3454
  25   2.0000      -0.986611       -26.8471
  26   2.0000      -0.911523       -24.8038
  27   2.0000      -0.908911       -24.7327
  28   2.0000      -0.868085       -23.6218
  29   2.0000      -0.857070       -23.3221
  30   2.0000      -0.846476       -23.0338
  31   2.0000      -0.814461       -22.1626
  32   2.0000      -0.785063       -21.3627
  33   2.0000      -0.776278       -21.1236
  34   2.0000      -0.712461       -19.3870
  35   2.0000      -0.705655       -19.2018
  36   2.0000      -0.695497       -18.9254
  37   2.0000      -0.670889       -18.2558
  38   2.0000      -0.643851       -17.5201
  39   2.0000      -0.626109       -17.0373
  40   2.0000      -0.598615       -16.2891
  41   2.0000      -0.574562       -15.6346
  42   2.0000      -0.569922       -15.5084
  43   2.0000      -0.557374       -15.1669
  44   2.0000      -0.529401       -14.4057
  45   2.0000      -0.520698       -14.1689
  46   2.0000      -0.517145       -14.0722
  47   2.0000      -0.514742       -14.0068
  48   2.0000      -0.511276       -13.9125
  49   2.0000      -0.498428       -13.5629
  50   2.0000      -0.488582       -13.2950
  51   2.0000      -0.483064       -13.1448
  52   2.0000      -0.475848       -12.9485
  53   2.0000      -0.465421       -12.6648
  54   2.0000      -0.459704       -12.5092
  55   2.0000      -0.451790       -12.2938
  56   2.0000      -0.445104       -12.1119
  57   2.0000      -0.442251       -12.0343
  58   2.0000      -0.437304       -11.8997
  59   2.0000      -0.432697       -11.7743
  60   2.0000      -0.426557       -11.6072
  61   2.0000      -0.413030       -11.2391
  62   2.0000      -0.407634       -11.0923
  63   2.0000      -0.348929        -9.4948
  64   2.0000      -0.336367        -9.1530
  65   2.0000      -0.331936        -9.0324
  66   2.0000      -0.289631        -7.8813
  67   0.0000       0.016357         0.4451
  68   0.0000       0.073188         1.9915
  69   0.0000       0.095568         2.6005
  70   0.0000       0.112105         3.0505
  71   0.0000       0.126177         3.4335

MULLIKEN ATOMIC CHARGES
-----------------------
   0 S :    0.118909
   1 C :   -0.146632
   2 C :   -0.048562
   3 C :    0.041318
   4 C :   -0.116880
   5 H :   -0.052614
   6 C :    0.056652
   7 H :    0.036981
   8 H :    0.020997
   9 C :   -0.048039
  10 H :    0.000055
  11 H :    0.017828
  12 C :   -0.011036
  13 H :    0.011897
  14 H :    0.028405
  15 H :    0.028037
  16 S :    0.075224
  17 C :   -0.083733
  18 C :   -0.037588
  19 C :   -0.042686
  20 C :   -0.109062
  21 H :    0.025769
  22 C :    0.027977
  23 H :    0.023317
  24 H :    0.018611
  25 C :   -0.052034
  26 H :    0.019556
  27 H :    0.010428
  28 C :   -0.033394
  29 H :    0.019943
  30 H :    0.033132
  31 H :    0.027160
  32 H :    0.077084
  33 H :    0.062981
Sum of atomic charges:    0.0000000

LOEWDIN ATOMIC CHARGES
----------------------
   0 S :    0.399916
   1 C :   -0.211435
   2 C :   -0.067814
   3 C :   -0.046014
   4 C :   -0.171780
   5 H :    0.010746
   6 C :   -0.027250
   7 H :    0.034786
   8 H :    0.029245
   9 C :   -0.036150
  10 H :    0.014620
  11 H :    0.021859
  12 C :   -0.058905
  13 H :    0.022285
  14 H :    0.019081
  15 H :    0.030980
  16 S :    0.367160
  17 C :   -0.168963
  18 C :   -0.068600
  19 C :   -0.060193
  20 C :   -0.169318
  21 H :    0.033093
  22 C :   -0.029887
  23 H :    0.029726
  24 H :    0.020152
  25 C :   -0.031553
  26 H :    0.017931
  27 H :    0.014004
  28 C :   -0.060615
  29 H :    0.021367
  30 H :    0.030700
  31 H :    0.018888
  32 H :    0.043967
  33 H :    0.027971

  Mayer bond orders larger than 0.100000
B(  0-S ,  1-C ) :   1.1524 B(  0-S ,  4-C ) :   1.1370 B(  1-C ,  2-C ) :   1.6237
B(  1-C , 32-H ) :   0.9417 B(  2-C ,  3-C ) :   1.2469 B(  2-C ,  6-C ) :   1.0227
B(  3-C ,  4-C ) :   1.5584 B(  3-C ,  5-H ) :   1.0084 B(  4-C , 20-C ) :   1.0479
B(  6-C ,  7-H ) :   0.9386 B(  6-C ,  8-H ) :   0.9470 B(  6-C ,  9-C ) :   1.0533
B(  9-C , 10-H ) :   0.9541 B(  9-C , 11-H ) :   0.9537 B(  9-C , 12-C ) :   1.0878
B( 12-C , 13-H ) :   0.9691 B( 12-C , 14-H ) :   0.9769 B( 12-C , 15-H ) :   0.9720
B( 16-S , 17-C ) :   1.1659 B( 16-S , 20-C ) :   1.0981 B( 17-C , 18-C ) :   1.5924
B( 17-C , 33-H ) :   0.9677 B( 18-C , 19-C ) :   1.2322 B( 18-C , 21-H ) :   0.9921
B( 19-C , 20-C ) :   1.6298 B( 19-C , 22-C ) :   1.0577 B( 22-C , 23-H ) :   0.9289
B( 22-C , 24-H ) :   0.9418 B( 22-C , 25-C ) :   1.0637 B( 25-C , 26-H ) :   0.9576
B( 25-C , 27-H ) :   0.9560 B( 25-C , 28-C ) :   1.0618 B( 28-C , 29-H ) :   0.9769
B( 28-C , 30-H ) :   0.9774 B( 28-C , 31-H ) :   0.9793

Dispersion correction           -0.014285214
FINAL SINGLE POINT ENERGY     -1339.844383800334

DIPOLE MOMENT
-------------
                                X             Y             Z
Electronic contribution:      9.24432     -25.79957      19.41380
Nuclear contribution   :     -9.50816      26.24772     -20.06721
                        -----------------------------------------
Total Dipole Moment    :     -0.26384       0.44815      -0.65341
                        -----------------------------------------
Magnitude (a.u.)       :      0.83510
Magnitude (Debye)      :      2.12266

Rotational constants in cm-1:     0.017015     0.009502     0.006625
Rotational constants in MHz :   510.092976   284.869897   198.621350

                             ****ORCA TERMINATED NORMALLY****
TOTAL RUN TIME: 0 days 0 hours 0 minutes 22 seconds 138 msec
