                         Program Version 4.2.1 -  RELEASE  -
|  1> ! wB97X-D3 SP def2-SVP
|  2> %pal
|  3> nprocs 24
|  4> end
|  5>
|  6> * xyz 0 1
|  7> S 	 -100.071 	 -3.63366 	 -120.873
|  8> C 	 -101.396 	 -4.64443 	 -121.511
|  9> C 	 -102.489 	 -3.86433 	 -121.873
| 10> C 	 -102.142 	 -2.46109 	 -121.931
| 11> C 	 -100.826 	 -2.20876 	 -121.49
| 12> H 	 -102.729 	 -1.59779 	 -122.229
| 13> C 	 -103.904 	 -4.26535 	 -122.32
| 14> H 	 -103.977 	 -5.33428 	 -122.553
| 15> H 	 -104.098 	 -3.79271 	 -123.286
| 16> C 	 -104.952 	 -3.8263 	 -121.285
| 17> H 	 -104.606 	 -4.16278 	 -120.334
| 18> H 	 -105.067 	 -2.73028 	 -121.292
| 19> C 	 -106.306 	 -4.51483 	 -121.547
| 20> H 	 -106.379 	 -5.59644 	 -121.304
| 21> H 	 -106.925 	 -3.87365 	 -120.983
| 22> H 	 -106.499 	 -4.47129 	 -122.639
| 23> S 	 -99.6859 	 -0.707716 	 -119.63
| 24> C 	 -99.1417 	 0.838581 	 -119.974
| 25> C 	 -99.2584 	 1.14398 	 -121.322
| 26> C 	 -99.9872 	 0.205818 	 -122.084
| 27> C 	 -100.231 	 -0.911631 	 -121.301
| 28> H 	 -99.0895 	 2.23123 	 -121.531
| 29> C 	 -100.142 	 0.200902 	 -123.642
| 30> H 	 -100.617 	 1.1443 	 -123.889
| 31> H 	 -100.827 	 -0.616549 	 -123.719
| 32> C 	 -98.9053 	 -0.0641892 	 -124.399
| 33> H 	 -98.5081 	 -1.05717 	 -124.007
| 34> H 	 -98.255 	 0.778405 	 -124.127
| 35> C 	 -99.0316 	 -0.2993 	 -125.927
| 36> H 	 -99.867 	 -0.982258 	 -126.122
| 37> H 	 -98.0458 	 -0.677486 	 -126.26
| 38> H 	 -99.1459 	 0.683438 	 -126.436
| 39> H 	 -101.448 	 -5.64566 	 -121.374
| 40> H 	 -98.647 	 1.46099 	 -119.223
| 41> *
| 42>
| 43>                          ****END OF INPUT****

CARTESIAN COORDINATES (ANGSTROEM)
---------------------------------
  S    -100.071000   -3.633660  -120.873000
  C    -101.396000   -4.644430  -121.511000
  C    -102.489000   -3.864330  -121.873000
  C    -102.142000   -2.461090  -121.931000
  C    -100.826000   -2.208760  -121.490000
  H    -102.729000   -1.597790  -122.229000
  C    -103.904000   -4.265350  -122.320000
  H    -103.977000   -5.334280  -122.553000
  H    -104.098000   -3.792710  -123.286000
  C    -104.952000   -3.826300  -121.285000
  H    -104.606000   -4.162780  -120.334000
  H    -105.067000   -2.730280  -121.292000
  C    -106.306000   -4.514830  -121.547000
  H    -106.379000   -5.596440  -121.304000
  H    -106.925000   -3.873650  -120.983000
  H    -106.499000   -4.471290  -122.639000
  S    -99.685900   -0.707716  -119.630000
  C    -99.141700    0.838581  -119.974000
  C    -99.258400    1.143980  -121.322000
  C    -99.987200    0.205818  -122.084000
  C    -100.231000   -0.911631  -121.301000
  H    -99.089500    2.231230  -121.531000
  C    -100.142000    0.200902  -123.642000
  H    -100.617000    1.144300  -123.889000
  H    -100.827000   -0.616549  -123.719000
  C    -98.905300   -0.064189  -124.399000
  H    -98.508100   -1.057170  -124.007000
  H    -98.255000    0.778405  -124.127000
  C    -99.031600   -0.299300  -125.927000
  H    -99.867000   -0.982258  -126.122000
  H    -98.045800   -0.677486  -126.260000
  H    -99.145900    0.683438  -126.436000
  H    -101.448000   -5.645660  -121.374000
  H    -98.647000    1.460990  -119.223000

 Total Charge           Charge          ....    0
 Multiplicity           Mult            ....    1
 Number of Electrons    NEL             ....  134
 Basis Dimension        Dim             ....  322

ORBITAL ENERGIES
----------------

  NO   OCC          E(Eh)            E(eV)
   0   2.0000     -88.966991     -2420.9149
   1   2.0000     -88.963604     -2420.8227
   2   2.0000     -10.327833      -281.0346
   3   2.0000     -10.324118      -280.9335
   4   2.0000     -10.311445      -280.5887
   5   2.0000     -10.309432      -280.5339
   6   2.0000     -10.306809      -280.4625
   7   2.0000     -10.304822      -280.4085
   8   2.0000     -10.294820      -280.1363
   9   2.0000     -10.293702      -280.1059
  10   2.0000     -10.292260      -280.0666
  11   2.0000     -10.287016      -279.9239
  12   2.0000     -10.285989      -279.8960
  13   2.0000     -10.285111      -279.8721
  14   2.0000     -10.283460      -279.8272
  15   2.0000     -10.279136      -279.7095
  16   2.0000      -8.081530      -219.9096
  17   2.0000      -8.079885      -219.8648
  18   2.0000      -6.040091      -164.3592
  19   2.0000      -6.038062      -164.3040
  20   2.0000      -6.036173      -164.2526
  21   2.0000      -6.034123      -164.1968
  22   2.0000      -6.032135      -164.1427
  23   2.0000      -6.030937      -164.1101
  24   2.0000      -1.011709       -27.5300
  25   2.0000      -0.982982       -26.7483
  26   2.0000      -0.913318       -24.8527
  27   2.0000      -0.912585       -24.8327
  28   2.0000      -0.870542       -23.6887
  29   2.0000      -0.853923       -23.2364
  30   2.0000      -0.843256       -22.9462
  31   2.0000      -0.807451       -21.9719
  32   2.0000      -0.785072       -21.3629
  33   2.0000      -0.774629       -21.0787
  34   2.0000      -0.703783       -19.1509
  35   2.0000      -0.696782       -18.9604
  36   2.0000      -0.689725       -18.7684
  37   2.0000      -0.657513       -17.8918
  38   2.0000      -0.644541       -17.5389
  39   2.0000      -0.615521       -16.7492
  40   2.0000      -0.592172       -16.1138
  41   2.0000      -0.572365       -15.5748
  42   2.0000      -0.570039       -15.5116
  43   2.0000      -0.557689       -15.1755
  44   2.0000      -0.533999       -14.5309
  45   2.0000      -0.524697       -14.2777
  46   2.0000      -0.515023       -14.0145
  47   2.0000      -0.509382       -13.8610
  48   2.0000      -0.505275       -13.7492
  49   2.0000      -0.499779       -13.5997
  50   2.0000      -0.494839       -13.4653
  51   2.0000      -0.476145       -12.9566
  52   2.0000      -0.472088       -12.8462
  53   2.0000      -0.469690       -12.7809
  54   2.0000      -0.456559       -12.4236
  55   2.0000      -0.449562       -12.2332
  56   2.0000      -0.441741       -12.0204
  57   2.0000      -0.439726       -11.9656
  58   2.0000      -0.427188       -11.6244
  59   2.0000      -0.426457       -11.6045
  60   2.0000      -0.419727       -11.4213
  61   2.0000      -0.412425       -11.2227
  62   2.0000      -0.405538       -11.0352
  63   2.0000      -0.345679        -9.4064
  64   2.0000      -0.335907        -9.1405
  65   2.0000      -0.328150        -8.9294
  66   2.0000      -0.287846        -7.8327
  67   0.0000       0.031523         0.8578
  68   0.0000       0.063440         1.7263
  69   0.0000       0.110284         3.0010
  70   0.0000       0.119903         3.2627
  71   0.0000       0.131937         3.5902

MULLIKEN ATOMIC CHARGES
-----------------------
   0 S :    0.102880
   1 C :   -0.075063
   2 C :   -0.078080
   3 C :    0.025476
   4 C :   -0.153519
   5 H :    0.020702
   6 C :    0.055186
   7 H :    0.017409
   8 H :    0.030708
   9 C :   -0.088952
  10 H :    0.029214
  11 H :    0.041094
  12 C :   -0.036183
  13 H :    0.045975
  14 H :    0.031083
  15 H :    0.026603
  16 S :    0.110955
  17 C :   -0.107135
  18 C :   -0.063040
  19 C :   -0.044961
  20 C :   -0.181299
  21 H :    0.037252
  22 C :    0.112948
  23 H :    0.022250
  24 H :   -0.000467
  25 C :   -0.103542
  26 H :    0.039081
  27 H :    0.031457
  28 C :   -0.037916
  29 H :    0.044438
  30 H :    0.042500
  31 H :    0.033751
  32 H :    0.005245
  33 H :    0.063951
Sum of atomic charges:    0.0000000

LOEWDIN ATOMIC CHARGES
----------------------
   0 S :    0.400393
   1 C :   -0.179837
   2 C :   -0.049714
   3 C :   -0.067063
   4 C :   -0.205135
   5 H :    0.031114
   6 C :   -0.033927
   7 H :    0.027122
   8 H :    0.030602
   9 C :   -0.034180
  10 H :    0.022078
  11 H :    0.027532
  12 C :   -0.063308
  13 H :    0.030092
  14 H :    0.022986
  15 H :    0.025542
  16 S :    0.430649
  17 C :   -0.209728
  18 C :   -0.090295
  19 C :   -0.055261
  20 C :   -0.190061
  21 H :    0.038256
  22 C :   -0.025682
  23 H :    0.026550
  24 H :    0.022193
  25 C :   -0.048862
  26 H :    0.034771
  27 H :    0.025444
  28 C :   -0.064844
  29 H :    0.028775
  30 H :    0.032085
  31 H :    0.026344
  32 H :    0.003884
  33 H :    0.031486

  Mayer bond orders larger than 0.100000
B(  0-S ,  1-C ) :   1.1154 B(  0-S ,  4-C ) :   1.1572 B(  1-C ,  2-C ) :   1.6246
B(  1-C , 32-H ) :   0.9814 B(  2-C ,  3-C ) :   1.2125 B(  2-C ,  6-C ) :   1.0272
B(  3-C ,  4-C ) :   1.5657 B(  3-C ,  5-H ) :   0.9894 B(  4-C , 20-C ) :   1.0409
B(  6-C ,  7-H ) :   0.9484 B(  6-C ,  8-H ) :   0.9377 B(  6-C ,  9-C ) :   1.0569
B(  9-C , 10-H ) :   0.9566 B(  9-C , 11-H ) :   0.9583 B(  9-C , 12-C ) :   1.0769
B( 12-C , 13-H ) :   0.9764 B( 12-C , 14-H ) :   0.9762 B( 12-C , 15-H ) :   0.9737
B( 16-S , 17-C ) :   1.1802 B( 16-S , 20-C ) :   1.1592 B( 17-C , 18-C ) :   1.6049
B( 17-C , 20-C ) :   0.1027 B( 17-C , 33-H ) :   0.9643 B( 18-C , 19-C ) :   1.2403
B( 18-C , 21-H ) :   0.9733 B( 19-C , 20-C ) :   1.5913 B( 19-C , 22-C ) :   1.0323
B( 22-C , 23-H ) :   0.9275 B( 22-C , 24-H ) :   0.9243 B( 22-C , 25-C ) :   1.0807
B( 25-C , 26-H ) :   0.9536 B( 25-C , 27-H ) :   0.9531 B( 25-C , 28-C ) :   1.0776
B( 28-C , 29-H ) :   0.9742 B( 28-C , 30-H ) :   0.9750 B( 28-C , 31-H ) :   0.9744

Dispersion correction           -0.013620747
FINAL SINGLE POINT ENERGY     -1339.862488789771

DIPOLE MOMENT
-------------
                                X             Y             Z
Electronic contribution:     15.24748       0.55932      18.62179
Nuclear contribution   :    -15.65684      -0.40983     -18.85687
                        -----------------------------------------
Total Dipole Moment    :     -0.40936       0.14950      -0.23508
                        -----------------------------------------
Magnitude (a.u.)       :      0.49517
Magnitude (Debye)      :      1.25861

Rotational constants in cm-1:     0.018161     0.007889     0.006749
Rotational constants in MHz :   544.440654   236.498244   202.316043

                             ****ORCA TERMINATED NORMALLY****
TOTAL RUN TIME: 0 days 0 hours 0 minutes 20 seconds 2 msec
