                         Program Version 4.2.1 -  RELEASE  -
|  1> ! wB97X-D3 SP def2-SVP
|  2> %pal
|  3> nprocs 24
|  4> end
|  5>
|  6> * xyz 0 1
|  7> S 	 -95.868 	 -26.4819 	 -63.465
|  8> C 	 -95.8432 	 -25.015 	 -64.4003
|  9> C 	 -96.586 	 -24.0224 	 -63.846
| 10> C 	 -97.1553 	 -24.4641 	 -62.6108
| 11> C 	 -96.8953 	 -25.7528 	 -62.2182
| 12> H 	 -97.7138 	 -23.9132 	 -61.8841
| 13> C 	 -96.7784 	 -22.6392 	 -64.3685
| 14> H 	 -97.7868 	 -22.3593 	 -64.1895
| 15> H 	 -96.6622 	 -22.5908 	 -65.4686
| 16> C 	 -95.7911 	 -21.6267 	 -63.7447
| 17> H 	 -96.0428 	 -21.7078 	 -62.672
| 18> H 	 -94.7408 	 -21.852 	 -63.8606
| 19> C 	 -95.9969 	 -20.1702 	 -64.3012
| 20> H 	 -96.9772 	 -19.8107 	 -63.8687
| 21> H 	 -95.2716 	 -19.4586 	 -63.9688
| 22> H 	 -96.2172 	 -20.1787 	 -65.3396
| 23> S 	 -96.1923 	 -27.0343 	 -59.8695
| 24> C 	 -97.4944 	 -27.806 	 -58.9363
| 25> C 	 -98.6623 	 -27.8008 	 -59.6315
| 26> C 	 -98.6337 	 -27.0528 	 -60.8547
| 27> C 	 -97.3824 	 -26.4743 	 -61.0295
| 28> H 	 -99.4773 	 -28.3114 	 -59.1364
| 29> C 	 -99.8514 	 -26.9778 	 -61.8095
| 30> H 	 -100.296 	 -27.9902 	 -61.9127
| 31> H 	 -99.6112 	 -26.5924 	 -62.8224
| 32> C 	 -101.006 	 -26.1482 	 -61.2815
| 33> H 	 -100.464 	 -25.2291 	 -60.9378
| 34> H 	 -101.491 	 -26.5378 	 -60.3302
| 35> C 	 -102.108 	 -25.7166 	 -62.2416
| 36> H 	 -102.624 	 -26.5864 	 -62.6772
| 37> H 	 -101.824 	 -25.0759 	 -63.0284
| 38> H 	 -102.756 	 -25.1332 	 -61.5813
| 39> H 	 -95.3008 	 -25.021 	 -65.3085
| 40> H 	 -97.3203 	 -28.4396 	 -58.0889
| 41> *
| 42>
| 43>                          ****END OF INPUT****

CARTESIAN COORDINATES (ANGSTROEM)
---------------------------------
  S    -95.868000  -26.481900  -63.465000
  C    -95.843200  -25.015000  -64.400300
  C    -96.586000  -24.022400  -63.846000
  C    -97.155300  -24.464100  -62.610800
  C    -96.895300  -25.752800  -62.218200
  H    -97.713800  -23.913200  -61.884100
  C    -96.778400  -22.639200  -64.368500
  H    -97.786800  -22.359300  -64.189500
  H    -96.662200  -22.590800  -65.468600
  C    -95.791100  -21.626700  -63.744700
  H    -96.042800  -21.707800  -62.672000
  H    -94.740800  -21.852000  -63.860600
  C    -95.996900  -20.170200  -64.301200
  H    -96.977200  -19.810700  -63.868700
  H    -95.271600  -19.458600  -63.968800
  H    -96.217200  -20.178700  -65.339600
  S    -96.192300  -27.034300  -59.869500
  C    -97.494400  -27.806000  -58.936300
  C    -98.662300  -27.800800  -59.631500
  C    -98.633700  -27.052800  -60.854700
  C    -97.382400  -26.474300  -61.029500
  H    -99.477300  -28.311400  -59.136400
  C    -99.851400  -26.977800  -61.809500
  H    -100.296000  -27.990200  -61.912700
  H    -99.611200  -26.592400  -62.822400
  C    -101.006000  -26.148200  -61.281500
  H    -100.464000  -25.229100  -60.937800
  H    -101.491000  -26.537800  -60.330200
  C    -102.108000  -25.716600  -62.241600
  H    -102.624000  -26.586400  -62.677200
  H    -101.824000  -25.075900  -63.028400
  H    -102.756000  -25.133200  -61.581300
  H    -95.300800  -25.021000  -65.308500
  H    -97.320300  -28.439600  -58.088900

 Total Charge           Charge          ....    0
 Multiplicity           Mult            ....    1
 Number of Electrons    NEL             ....  134
 Basis Dimension        Dim             ....  322

ORBITAL ENERGIES
----------------

  NO   OCC          E(Eh)            E(eV)
   0   2.0000     -88.965783     -2420.8820
   1   2.0000     -88.959819     -2420.7197
   2   2.0000     -10.329424      -281.0779
   3   2.0000     -10.326689      -281.0035
   4   2.0000     -10.316913      -280.7375
   5   2.0000     -10.311073      -280.5786
   6   2.0000     -10.309906      -280.5468
   7   2.0000     -10.298783      -280.2441
   8   2.0000     -10.296992      -280.1954
   9   2.0000     -10.294389      -280.1246
  10   2.0000     -10.291378      -280.0426
  11   2.0000     -10.290095      -280.0077
  12   2.0000     -10.289081      -279.9801
  13   2.0000     -10.288935      -279.9761
  14   2.0000     -10.279262      -279.7129
  15   2.0000     -10.276766      -279.6450
  16   2.0000      -8.080253      -219.8749
  17   2.0000      -8.074833      -219.7274
  18   2.0000      -6.038753      -164.3228
  19   2.0000      -6.034972      -164.2199
  20   2.0000      -6.033326      -164.1752
  21   2.0000      -6.030849      -164.1077
  22   2.0000      -6.029252      -164.0643
  23   2.0000      -6.025642      -163.9661
  24   2.0000      -1.005329       -27.3564
  25   2.0000      -0.985485       -26.8164
  26   2.0000      -0.910461       -24.7749
  27   2.0000      -0.907604       -24.6972
  28   2.0000      -0.870112       -23.6770
  29   2.0000      -0.849555       -23.1176
  30   2.0000      -0.844461       -22.9790
  31   2.0000      -0.819097       -22.2888
  32   2.0000      -0.784510       -21.3476
  33   2.0000      -0.773608       -21.0509
  34   2.0000      -0.704584       -19.1727
  35   2.0000      -0.699899       -19.0452
  36   2.0000      -0.686350       -18.6765
  37   2.0000      -0.657327       -17.8868
  38   2.0000      -0.652772       -17.7628
  39   2.0000      -0.619398       -16.8547
  40   2.0000      -0.598133       -16.2760
  41   2.0000      -0.571515       -15.5517
  42   2.0000      -0.565040       -15.3755
  43   2.0000      -0.555438       -15.1142
  44   2.0000      -0.531301       -14.4574
  45   2.0000      -0.526643       -14.3307
  46   2.0000      -0.515940       -14.0394
  47   2.0000      -0.513132       -13.9630
  48   2.0000      -0.506533       -13.7835
  49   2.0000      -0.502977       -13.6867
  50   2.0000      -0.487511       -13.2659
  51   2.0000      -0.480991       -13.0884
  52   2.0000      -0.477140       -12.9836
  53   2.0000      -0.462689       -12.5904
  54   2.0000      -0.459342       -12.4993
  55   2.0000      -0.447124       -12.1669
  56   2.0000      -0.440664       -11.9911
  57   2.0000      -0.436326       -11.8730
  58   2.0000      -0.432258       -11.7624
  59   2.0000      -0.428792       -11.6680
  60   2.0000      -0.422618       -11.5000
  61   2.0000      -0.412038       -11.2121
  62   2.0000      -0.404241       -11.0000
  63   2.0000      -0.339249        -9.2314
  64   2.0000      -0.330233        -8.9861
  65   2.0000      -0.328229        -8.9316
  66   2.0000      -0.306701        -8.3457
  67   0.0000       0.039470         1.0740
  68   0.0000       0.061150         1.6640
  69   0.0000       0.107828         2.9341
  70   0.0000       0.123926         3.3722
  71   0.0000       0.134935         3.6718

MULLIKEN ATOMIC CHARGES
-----------------------
   0 S :    0.098546
   1 C :   -0.126274
   2 C :   -0.041637
   3 C :    0.028494
   4 C :   -0.164494
   5 H :   -0.000741
   6 C :    0.075030
   7 H :    0.016961
   8 H :    0.019920
   9 C :   -0.088362
  10 H :    0.032098
  11 H :    0.034413
  12 C :   -0.029179
  13 H :    0.018514
  14 H :    0.043692
  15 H :    0.025036
  16 S :    0.101425
  17 C :   -0.085979
  18 C :   -0.037077
  19 C :    0.004761
  20 C :   -0.193766
  21 H :    0.022161
  22 C :    0.098040
  23 H :    0.029597
  24 H :    0.037333
  25 C :   -0.153193
  26 H :    0.024842
  27 H :    0.036320
  28 C :   -0.011916
  29 H :    0.034153
  30 H :    0.025873
  31 H :    0.034453
  32 H :    0.037201
  33 H :    0.053755
Sum of atomic charges:   -0.0000000

LOEWDIN ATOMIC CHARGES
----------------------
   0 S :    0.390884
   1 C :   -0.180092
   2 C :   -0.067952
   3 C :   -0.061507
   4 C :   -0.191329
   5 H :    0.026734
   6 C :   -0.028774
   7 H :    0.026381
   8 H :    0.029429
   9 C :   -0.035549
  10 H :    0.026290
  11 H :    0.022167
  12 C :   -0.066369
  13 H :    0.029637
  14 H :    0.024797
  15 H :    0.019448
  16 S :    0.391395
  17 C :   -0.169940
  18 C :   -0.069154
  19 C :   -0.044439
  20 C :   -0.201542
  21 H :    0.033819
  22 C :   -0.033504
  23 H :    0.033534
  24 H :    0.036044
  25 C :   -0.055856
  26 H :    0.024273
  27 H :    0.026880
  28 C :   -0.061633
  29 H :    0.026443
  30 H :    0.018325
  31 H :    0.033456
  32 H :    0.020180
  33 H :    0.027524

  Mayer bond orders larger than 0.100000
B(  0-S ,  1-C ) :   1.1499 B(  0-S ,  4-C ) :   1.1351 B(  1-C ,  2-C ) :   1.6088
B(  1-C , 32-H ) :   0.9772 B(  2-C ,  3-C ) :   1.2110 B(  2-C ,  6-C ) :   1.0332
B(  3-C ,  4-C ) :   1.6247 B(  3-C ,  5-H ) :   0.9969 B(  4-C , 20-C ) :   1.0162
B(  6-C ,  7-H ) :   0.9382 B(  6-C ,  8-H ) :   0.9382 B(  6-C ,  9-C ) :   1.0529
B(  9-C , 10-H ) :   0.9606 B(  9-C , 11-H ) :   0.9624 B(  9-C , 12-C ) :   1.0708
B( 12-C , 13-H ) :   0.9739 B( 12-C , 14-H ) :   0.9771 B( 12-C , 15-H ) :   0.9754
B( 16-S , 17-C ) :   1.1339 B( 16-S , 20-C ) :   1.1433 B( 17-C , 18-C ) :   1.6583
B( 17-C , 33-H ) :   0.9662 B( 18-C , 19-C ) :   1.2054 B( 18-C , 21-H ) :   0.9878
B( 19-C , 20-C ) :   1.6116 B( 19-C , 22-C ) :   1.0486 B( 22-C , 23-H ) :   0.9321
B( 22-C , 24-H ) :   0.9341 B( 22-C , 25-C ) :   1.0512 B( 25-C , 26-H ) :   0.9529
B( 25-C , 27-H ) :   0.9561 B( 25-C , 28-C ) :   1.0899 B( 28-C , 29-H ) :   0.9723
B( 28-C , 30-H ) :   0.9731 B( 28-C , 31-H ) :   0.9727

Dispersion correction           -0.013779153
FINAL SINGLE POINT ENERGY     -1339.882822965443

DIPOLE MOMENT
-------------
                                X             Y             Z
Electronic contribution:     17.02309     -20.28709       8.35677
Nuclear contribution   :    -17.53372      20.52334      -8.45081
                        -----------------------------------------
Total Dipole Moment    :     -0.51064       0.23625      -0.09404
                        -----------------------------------------
Magnitude (a.u.)       :      0.57044
Magnitude (Debye)      :      1.44995

Rotational constants in cm-1:     0.017385     0.008037     0.006524
Rotational constants in MHz :   521.177679   240.938913   195.592335

                             ****ORCA TERMINATED NORMALLY****
TOTAL RUN TIME: 0 days 0 hours 0 minutes 21 seconds 129 msec
