                         Program Version 4.2.1 -  RELEASE  -
|  1> ! wB97X-D3 SP def2-SVP
|  2> %pal
|  3> nprocs 24
|  4> end
|  5>
|  6> * xyz 0 1
|  7> S 	 -104.655 	 58.0907 	 -106.568
|  8> C 	 -104.1 	 56.4805 	 -106.898
|  9> C 	 -105.177 	 55.7659 	 -107.477
| 10> C 	 -106.429 	 56.4537 	 -107.474
| 11> C 	 -106.298 	 57.7575 	 -107.03
| 12> H 	 -107.378 	 56.0683 	 -107.817
| 13> C 	 -105.059 	 54.2724 	 -107.993
| 14> H 	 -105.748 	 53.6579 	 -107.455
| 15> H 	 -104.102 	 53.9346 	 -107.52
| 16> C 	 -105.151 	 53.9866 	 -109.452
| 17> H 	 -104.349 	 54.4801 	 -109.957
| 18> H 	 -105.011 	 52.8894 	 -109.643
| 19> C 	 -106.589 	 54.1179 	 -109.966
| 20> H 	 -106.834 	 55.2005 	 -109.93
| 21> H 	 -106.808 	 53.6864 	 -110.983
| 22> H 	 -107.276 	 53.6655 	 -109.241
| 23> S 	 -106.972 	 60.3517 	 -107.772
| 24> C 	 -108.542 	 61.0532 	 -107.308
| 25> C 	 -109.341 	 60.064 	 -106.769
| 26> C 	 -108.752 	 58.7344 	 -106.632
| 27> C 	 -107.383 	 58.7965 	 -107.057
| 28> H 	 -110.354 	 60.396 	 -106.494
| 29> C 	 -109.51 	 57.5832 	 -105.922
| 30> H 	 -109.349 	 56.6907 	 -106.352
| 31> H 	 -110.613 	 57.7178 	 -106.073
| 32> C 	 -109.157 	 57.5067 	 -104.43
| 33> H 	 -109.386 	 58.4262 	 -103.985
| 34> H 	 -108.069 	 57.3203 	 -104.438
| 35> C 	 -109.941 	 56.4691 	 -103.635
| 36> H 	 -109.911 	 56.6593 	 -102.536
| 37> H 	 -109.418 	 55.4975 	 -103.645
| 38> H 	 -110.923 	 56.1944 	 -104.083
| 39> H 	 -103.045 	 56.1824 	 -106.985
| 40> H 	 -108.844 	 62.0085 	 -107.46
| 41> *
| 42>
| 43>                          ****END OF INPUT****

CARTESIAN COORDINATES (ANGSTROEM)
---------------------------------
  S    -104.655000   58.090700  -106.568000
  C    -104.100000   56.480500  -106.898000
  C    -105.177000   55.765900  -107.477000
  C    -106.429000   56.453700  -107.474000
  C    -106.298000   57.757500  -107.030000
  H    -107.378000   56.068300  -107.817000
  C    -105.059000   54.272400  -107.993000
  H    -105.748000   53.657900  -107.455000
  H    -104.102000   53.934600  -107.520000
  C    -105.151000   53.986600  -109.452000
  H    -104.349000   54.480100  -109.957000
  H    -105.011000   52.889400  -109.643000
  C    -106.589000   54.117900  -109.966000
  H    -106.834000   55.200500  -109.930000
  H    -106.808000   53.686400  -110.983000
  H    -107.276000   53.665500  -109.241000
  S    -106.972000   60.351700  -107.772000
  C    -108.542000   61.053200  -107.308000
  C    -109.341000   60.064000  -106.769000
  C    -108.752000   58.734400  -106.632000
  C    -107.383000   58.796500  -107.057000
  H    -110.354000   60.396000  -106.494000
  C    -109.510000   57.583200  -105.922000
  H    -109.349000   56.690700  -106.352000
  H    -110.613000   57.717800  -106.073000
  C    -109.157000   57.506700  -104.430000
  H    -109.386000   58.426200  -103.985000
  H    -108.069000   57.320300  -104.438000
  C    -109.941000   56.469100  -103.635000
  H    -109.911000   56.659300  -102.536000
  H    -109.418000   55.497500  -103.645000
  H    -110.923000   56.194400  -104.083000
  H    -103.045000   56.182400  -106.985000
  H    -108.844000   62.008500  -107.460000

 Total Charge           Charge          ....    0
 Multiplicity           Mult            ....    1
 Number of Electrons    NEL             ....  134
 Basis Dimension        Dim             ....  322

ORBITAL ENERGIES
----------------

  NO   OCC          E(Eh)            E(eV)
   0   2.0000     -88.970365     -2421.0067
   1   2.0000     -88.967680     -2420.9336
   2   2.0000     -10.339782      -281.3598
   3   2.0000     -10.335282      -281.2373
   4   2.0000     -10.320687      -280.8402
   5   2.0000     -10.316748      -280.7330
   6   2.0000     -10.313526      -280.6453
   7   2.0000     -10.309791      -280.5437
   8   2.0000     -10.300107      -280.2801
   9   2.0000     -10.295902      -280.1657
  10   2.0000     -10.293064      -280.0885
  11   2.0000     -10.291297      -280.0404
  12   2.0000     -10.285867      -279.8927
  13   2.0000     -10.284101      -279.8446
  14   2.0000     -10.281742      -279.7804
  15   2.0000     -10.280354      -279.7426
  16   2.0000      -8.085149      -220.0081
  17   2.0000      -8.081573      -219.9108
  18   2.0000      -6.043681      -164.4569
  19   2.0000      -6.040217      -164.3627
  20   2.0000      -6.039430      -164.3413
  21   2.0000      -6.036099      -164.2506
  22   2.0000      -6.036088      -164.2503
  23   2.0000      -6.032350      -164.1486
  24   2.0000      -1.003298       -27.3011
  25   2.0000      -0.978593       -26.6289
  26   2.0000      -0.912730       -24.8366
  27   2.0000      -0.909023       -24.7358
  28   2.0000      -0.866062       -23.5667
  29   2.0000      -0.848523       -23.0895
  30   2.0000      -0.841627       -22.9018
  31   2.0000      -0.815895       -22.2016
  32   2.0000      -0.782209       -21.2850
  33   2.0000      -0.771925       -21.0052
  34   2.0000      -0.704017       -19.1573
  35   2.0000      -0.698097       -18.9962
  36   2.0000      -0.695200       -18.9174
  37   2.0000      -0.658698       -17.9241
  38   2.0000      -0.642016       -17.4701
  39   2.0000      -0.619015       -16.8443
  40   2.0000      -0.598748       -16.2928
  41   2.0000      -0.574159       -15.6237
  42   2.0000      -0.565206       -15.3800
  43   2.0000      -0.548401       -14.9227
  44   2.0000      -0.542468       -14.7613
  45   2.0000      -0.527105       -14.3433
  46   2.0000      -0.515631       -14.0310
  47   2.0000      -0.507680       -13.8147
  48   2.0000      -0.504514       -13.7285
  49   2.0000      -0.497206       -13.5297
  50   2.0000      -0.493100       -13.4179
  51   2.0000      -0.483473       -13.1560
  52   2.0000      -0.468763       -12.7557
  53   2.0000      -0.464481       -12.6392
  54   2.0000      -0.455359       -12.3909
  55   2.0000      -0.446927       -12.1615
  56   2.0000      -0.444028       -12.0826
  57   2.0000      -0.437917       -11.9163
  58   2.0000      -0.434386       -11.8202
  59   2.0000      -0.428075       -11.6485
  60   2.0000      -0.420175       -11.4336
  61   2.0000      -0.413823       -11.2607
  62   2.0000      -0.396770       -10.7967
  63   2.0000      -0.350134        -9.5276
  64   2.0000      -0.332599        -9.0505
  65   2.0000      -0.330991        -9.0067
  66   2.0000      -0.292967        -7.9720
  67   0.0000       0.023422         0.6374
  68   0.0000       0.070750         1.9252
  69   0.0000       0.109692         2.9849
  70   0.0000       0.120362         3.2752
  71   0.0000       0.129750         3.5307

MULLIKEN ATOMIC CHARGES
-----------------------
   0 S :    0.118883
   1 C :   -0.122437
   2 C :   -0.121022
   3 C :    0.035285
   4 C :   -0.142543
   5 H :    0.014965
   6 C :    0.043589
   7 H :    0.018268
   8 H :    0.015191
   9 C :   -0.029483
  10 H :    0.029438
  11 H :    0.030829
  12 C :   -0.086671
  13 H :    0.041219
  14 H :    0.051858
  15 H :    0.024720
  16 S :    0.101253
  17 C :   -0.055361
  18 C :   -0.051200
  19 C :   -0.030312
  20 C :   -0.165969
  21 H :    0.027815
  22 C :    0.102239
  23 H :   -0.016853
  24 H :    0.022653
  25 C :   -0.050734
  26 H :    0.018710
  27 H :    0.046299
  28 C :   -0.060775
  29 H :    0.045203
  30 H :    0.020605
  31 H :    0.036970
  32 H :    0.070756
  33 H :    0.016612
Sum of atomic charges:    0.0000000

LOEWDIN ATOMIC CHARGES
----------------------
   0 S :    0.426331
   1 C :   -0.218801
   2 C :   -0.057380
   3 C :   -0.068640
   4 C :   -0.200071
   5 H :    0.030838
   6 C :   -0.034200
   7 H :    0.024339
   8 H :    0.032171
   9 C :   -0.045101
  10 H :    0.022055
  11 H :    0.032790
  12 C :   -0.072163
  13 H :    0.025483
  14 H :    0.032560
  15 H :    0.023575
  16 S :    0.391171
  17 C :   -0.166580
  18 C :   -0.067060
  19 C :   -0.050410
  20 C :   -0.189919
  21 H :    0.034641
  22 C :   -0.021667
  23 H :    0.007201
  24 H :    0.034567
  25 C :   -0.034917
  26 H :    0.016996
  27 H :    0.033785
  28 C :   -0.079622
  29 H :    0.034893
  30 H :    0.026332
  31 H :    0.029151
  32 H :    0.038339
  33 H :    0.009313

  Mayer bond orders larger than 0.100000
B(  0-S ,  1-C ) :   1.1458 B(  0-S ,  4-C ) :   1.1758 B(  1-C ,  2-C ) :   1.5905
B(  1-C ,  4-C ) :   0.1008 B(  1-C , 32-H ) :   0.9624 B(  2-C ,  3-C ) :   1.2683
B(  2-C ,  6-C ) :   1.0040 B(  3-C ,  4-C ) :   1.5394 B(  3-C ,  5-H ) :   0.9907
B(  4-C , 20-C ) :   1.0276 B(  6-C ,  7-H ) :   0.9443 B(  6-C ,  8-H ) :   0.9412
B(  6-C ,  9-C ) :   1.0830 B(  9-C , 10-H ) :   0.9566 B(  9-C , 11-H ) :   0.9504
B(  9-C , 12-C ) :   1.0628 B( 12-C , 13-H ) :   0.9730 B( 12-C , 14-H ) :   0.9730
B( 12-C , 15-H ) :   0.9705 B( 16-S , 17-C ) :   1.1269 B( 16-S , 20-C ) :   1.1613
B( 17-C , 18-C ) :   1.6374 B( 17-C , 33-H ) :   0.9816 B( 18-C , 19-C ) :   1.2271
B( 18-C , 21-H ) :   0.9815 B( 19-C , 20-C ) :   1.5686 B( 19-C , 22-C ) :   1.0461
B( 22-C , 23-H ) :   0.9286 B( 22-C , 24-H ) :   0.9313 B( 22-C , 25-C ) :   1.0656
B( 25-C , 26-H ) :   0.9608 B( 25-C , 27-H ) :   0.9561 B( 25-C , 28-C ) :   1.0743
B( 28-C , 29-H ) :   0.9744 B( 28-C , 30-H ) :   0.9715 B( 28-C , 31-H ) :   0.9731

Dispersion correction           -0.014159776
FINAL SINGLE POINT ENERGY     -1339.860715126005

DIPOLE MOMENT
-------------
                                X             Y             Z
Electronic contribution:     12.00944      23.39656      -2.01716
Nuclear contribution   :    -12.35226     -23.87961       1.99833
                        -----------------------------------------
Total Dipole Moment    :     -0.34283      -0.48305      -0.01883
                        -----------------------------------------
Magnitude (a.u.)       :      0.59264
Magnitude (Debye)      :      1.50637

Rotational constants in cm-1:     0.016427     0.008846     0.007390
Rotational constants in MHz :   492.476424   265.190964   221.552503

                             ****ORCA TERMINATED NORMALLY****
TOTAL RUN TIME: 0 days 0 hours 0 minutes 21 seconds 456 msec
