                         Program Version 4.2.1 -  RELEASE  -
|  1> ! wB97X-D3 SP def2-SVP
|  2> %pal
|  3> nprocs 24
|  4> end
|  5>
|  6> * xyz 0 1
|  7> S 	 -98.8453 	 -29.4693 	 -64.2677
|  8> C 	 -98.5741 	 -27.9098 	 -64.8739
|  9> C 	 -98.3862 	 -26.9706 	 -63.8727
| 10> C 	 -98.4931 	 -27.5329 	 -62.5618
| 11> C 	 -98.6956 	 -28.8633 	 -62.6257
| 12> H 	 -98.4414 	 -26.9278 	 -61.697
| 13> C 	 -98.0029 	 -25.5301 	 -64.014
| 14> H 	 -97.3466 	 -25.5221 	 -64.8703
| 15> H 	 -97.3349 	 -25.2386 	 -63.2422
| 16> C 	 -99.1853 	 -24.5939 	 -64.2833
| 17> H 	 -99.9363 	 -25.0313 	 -64.9882
| 18> H 	 -99.7794 	 -24.2427 	 -63.4577
| 19> C 	 -98.645 	 -23.2601 	 -64.8629
| 20> H 	 -99.4498 	 -22.6428 	 -65.3471
| 21> H 	 -98.1954 	 -22.7862 	 -64.0199
| 22> H 	 -97.87 	 -23.3572 	 -65.6382
| 23> S 	 -98.7915 	 -31.4846 	 -61.7184
| 24> C 	 -99.2733 	 -31.8487 	 -60.0894
| 25> C 	 -99.278 	 -30.7128 	 -59.3285
| 26> C 	 -99.1567 	 -29.4889 	 -60.0938
| 27> C 	 -98.9224 	 -29.7298 	 -61.4742
| 28> H 	 -99.3851 	 -30.7593 	 -58.2418
| 29> C 	 -99.1949 	 -28.2268 	 -59.3272
| 30> H 	 -99.8897 	 -28.3262 	 -58.4741
| 31> H 	 -99.6648 	 -27.5491 	 -60.0218
| 32> C 	 -97.7978 	 -27.751 	 -58.8835
| 33> H 	 -97.0162 	 -27.7411 	 -59.6385
| 34> H 	 -97.5261 	 -28.4464 	 -58.0968
| 35> C 	 -97.8541 	 -26.308 	 -58.3585
| 36> H 	 -98.7189 	 -26.0111 	 -57.6756
| 37> H 	 -97.89 	 -25.5165 	 -59.1977
| 38> H 	 -96.9567 	 -26.1231 	 -57.8259
| 39> H 	 -98.5535 	 -27.7287 	 -65.9652
| 40> H 	 -99.4638 	 -32.7401 	 -59.7093
| 41> *
| 42>
| 43>                          ****END OF INPUT****

CARTESIAN COORDINATES (ANGSTROEM)
---------------------------------
  S    -98.845300  -29.469300  -64.267700
  C    -98.574100  -27.909800  -64.873900
  C    -98.386200  -26.970600  -63.872700
  C    -98.493100  -27.532900  -62.561800
  C    -98.695600  -28.863300  -62.625700
  H    -98.441400  -26.927800  -61.697000
  C    -98.002900  -25.530100  -64.014000
  H    -97.346600  -25.522100  -64.870300
  H    -97.334900  -25.238600  -63.242200
  C    -99.185300  -24.593900  -64.283300
  H    -99.936300  -25.031300  -64.988200
  H    -99.779400  -24.242700  -63.457700
  C    -98.645000  -23.260100  -64.862900
  H    -99.449800  -22.642800  -65.347100
  H    -98.195400  -22.786200  -64.019900
  H    -97.870000  -23.357200  -65.638200
  S    -98.791500  -31.484600  -61.718400
  C    -99.273300  -31.848700  -60.089400
  C    -99.278000  -30.712800  -59.328500
  C    -99.156700  -29.488900  -60.093800
  C    -98.922400  -29.729800  -61.474200
  H    -99.385100  -30.759300  -58.241800
  C    -99.194900  -28.226800  -59.327200
  H    -99.889700  -28.326200  -58.474100
  H    -99.664800  -27.549100  -60.021800
  C    -97.797800  -27.751000  -58.883500
  H    -97.016200  -27.741100  -59.638500
  H    -97.526100  -28.446400  -58.096800
  C    -97.854100  -26.308000  -58.358500
  H    -98.718900  -26.011100  -57.675600
  H    -97.890000  -25.516500  -59.197700
  H    -96.956700  -26.123100  -57.825900
  H    -98.553500  -27.728700  -65.965200
  H    -99.463800  -32.740100  -59.709300

 Total Charge           Charge          ....    0
 Multiplicity           Mult            ....    1
 Number of Electrons    NEL             ....  134
 Basis Dimension        Dim             ....  322

ORBITAL ENERGIES
----------------

  NO   OCC          E(Eh)            E(eV)
   0   2.0000     -88.967553     -2420.9302
   1   2.0000     -88.961331     -2420.7609
   2   2.0000     -10.330467      -281.1063
   3   2.0000     -10.327455      -281.0243
   4   2.0000     -10.312412      -280.6150
   5   2.0000     -10.304600      -280.4024
   6   2.0000     -10.301933      -280.3298
   7   2.0000     -10.296652      -280.1862
   8   2.0000     -10.291580      -280.0481
   9   2.0000     -10.290352      -280.0147
  10   2.0000     -10.289679      -279.9964
  11   2.0000     -10.289150      -279.9820
  12   2.0000     -10.288146      -279.9547
  13   2.0000     -10.287907      -279.9482
  14   2.0000     -10.286504      -279.9100
  15   2.0000     -10.278836      -279.7013
  16   2.0000      -8.083185      -219.9546
  17   2.0000      -8.075993      -219.7589
  18   2.0000      -6.041753      -164.4045
  19   2.0000      -6.037628      -164.2922
  20   2.0000      -6.034612      -164.2101
  21   2.0000      -6.033782      -164.1876
  22   2.0000      -6.030562      -164.0999
  23   2.0000      -6.026619      -163.9926
  24   2.0000      -1.010567       -27.4989
  25   2.0000      -0.984561       -26.7913
  26   2.0000      -0.915059       -24.9000
  27   2.0000      -0.912730       -24.8367
  28   2.0000      -0.871571       -23.7166
  29   2.0000      -0.857835       -23.3429
  30   2.0000      -0.847719       -23.0676
  31   2.0000      -0.817154       -22.2359
  32   2.0000      -0.778567       -21.1859
  33   2.0000      -0.767480       -20.8842
  34   2.0000      -0.707235       -19.2449
  35   2.0000      -0.703619       -19.1464
  36   2.0000      -0.697967       -18.9927
  37   2.0000      -0.668953       -18.2031
  38   2.0000      -0.641345       -17.4519
  39   2.0000      -0.629285       -17.1237
  40   2.0000      -0.596048       -16.2193
  41   2.0000      -0.574716       -15.6388
  42   2.0000      -0.568299       -15.4642
  43   2.0000      -0.554191       -15.0803
  44   2.0000      -0.532959       -14.5025
  45   2.0000      -0.526712       -14.3326
  46   2.0000      -0.516488       -14.0544
  47   2.0000      -0.515035       -14.0148
  48   2.0000      -0.510311       -13.8863
  49   2.0000      -0.501089       -13.6353
  50   2.0000      -0.494110       -13.4454
  51   2.0000      -0.480006       -13.0616
  52   2.0000      -0.473583       -12.8869
  53   2.0000      -0.463675       -12.6172
  54   2.0000      -0.458890       -12.4870
  55   2.0000      -0.451679       -12.2908
  56   2.0000      -0.446426       -12.1479
  57   2.0000      -0.442258       -12.0345
  58   2.0000      -0.434079       -11.8119
  59   2.0000      -0.423834       -11.5331
  60   2.0000      -0.420536       -11.4434
  61   2.0000      -0.414836       -11.2883
  62   2.0000      -0.409917       -11.1544
  63   2.0000      -0.363958        -9.9038
  64   2.0000      -0.333794        -9.0830
  65   2.0000      -0.322875        -8.7859
  66   2.0000      -0.279068        -7.5938
  67   0.0000       0.022680         0.6172
  68   0.0000       0.088117         2.3978
  69   0.0000       0.098133         2.6703
  70   0.0000       0.121162         3.2970
  71   0.0000       0.129475         3.5232

MULLIKEN ATOMIC CHARGES
-----------------------
   0 S :    0.120591
   1 C :   -0.135161
   2 C :   -0.081420
   3 C :   -0.028242
   4 C :   -0.057988
   5 H :   -0.016589
   6 C :    0.089513
   7 H :    0.012880
   8 H :    0.014904
   9 C :   -0.065398
  10 H :    0.036546
  11 H :    0.028952
  12 C :   -0.070551
  13 H :    0.043655
  14 H :    0.025823
  15 H :    0.026965
  16 S :    0.079478
  17 C :   -0.010076
  18 C :   -0.043397
  19 C :   -0.075955
  20 C :   -0.115351
  21 H :    0.021442
  22 C :    0.043149
  23 H :    0.030022
  24 H :    0.019011
  25 C :   -0.040453
  26 H :    0.040581
  27 H :    0.026095
  28 C :   -0.076930
  29 H :    0.040099
  30 H :    0.036800
  31 H :    0.029546
  32 H :    0.058082
  33 H :   -0.006625
Sum of atomic charges:    0.0000000

LOEWDIN ATOMIC CHARGES
----------------------
   0 S :    0.423028
   1 C :   -0.217710
   2 C :   -0.059117
   3 C :   -0.060262
   4 C :   -0.183224
   5 H :    0.025824
   6 C :   -0.031243
   7 H :    0.032673
   8 H :    0.027278
   9 C :   -0.038620
  10 H :    0.028093
  11 H :    0.023338
  12 C :   -0.068845
  13 H :    0.030957
  14 H :    0.020093
  15 H :    0.019888
  16 S :    0.389041
  17 C :   -0.163808
  18 C :   -0.069259
  19 C :   -0.057275
  20 C :   -0.184701
  21 H :    0.031933
  22 C :   -0.037971
  23 H :    0.035343
  24 H :    0.025255
  25 C :   -0.033599
  26 H :    0.029283
  27 H :    0.026171
  28 C :   -0.075160
  29 H :    0.030365
  30 H :    0.029157
  31 H :    0.019599
  32 H :    0.033398
  33 H :    0.000078

  Mayer bond orders larger than 0.100000
B(  0-S ,  1-C ) :   1.1424 B(  0-S ,  4-C ) :   1.1429 B(  1-C ,  2-C ) :   1.6053
B(  1-C , 32-H ) :   0.9649 B(  2-C ,  3-C ) :   1.2474 B(  2-C ,  6-C ) :   1.0224
B(  3-C ,  4-C ) :   1.5541 B(  3-C ,  5-H ) :   1.0087 B(  4-C , 20-C ) :   1.0844
B(  6-C ,  7-H ) :   0.9411 B(  6-C ,  8-H ) :   0.9403 B(  6-C ,  9-C ) :   1.0474
B(  9-C , 10-H ) :   0.9632 B(  9-C , 11-H ) :   0.9579 B(  9-C , 12-C ) :   1.0667
B( 12-C , 13-H ) :   0.9755 B( 12-C , 14-H ) :   0.9779 B( 12-C , 15-H ) :   0.9795
B( 16-S , 17-C ) :   1.1459 B( 16-S , 20-C ) :   1.1270 B( 17-C , 18-C ) :   1.6071
B( 17-C , 33-H ) :   0.9844 B( 18-C , 19-C ) :   1.2482 B( 18-C , 21-H ) :   0.9845
B( 19-C , 20-C ) :   1.5671 B( 19-C , 22-C ) :   1.0562 B( 22-C , 23-H ) :   0.9275
B( 22-C , 24-H ) :   0.9317 B( 22-C , 25-C ) :   1.0580 B( 25-C , 26-H ) :   0.9572
B( 25-C , 27-H ) :   0.9519 B( 25-C , 28-C ) :   1.0757 B( 28-C , 29-H ) :   0.9732
B( 28-C , 30-H ) :   0.9756 B( 28-C , 31-H ) :   0.9730

Dispersion correction           -0.013968759
FINAL SINGLE POINT ENERGY     -1339.870402391618

DIPOLE MOMENT
-------------
                                X             Y             Z
Electronic contribution:     -2.91303     -31.32216      -8.12898
Nuclear contribution   :      3.01133      31.94610       8.50220
                        -----------------------------------------
Total Dipole Moment    :      0.09829       0.62395       0.37322
                        -----------------------------------------
Magnitude (a.u.)       :      0.73366
Magnitude (Debye)      :      1.86483

Rotational constants in cm-1:     0.018612     0.008886     0.006242
Rotational constants in MHz :   557.964216   266.396431   187.124667

                             ****ORCA TERMINATED NORMALLY****
TOTAL RUN TIME: 0 days 0 hours 0 minutes 22 seconds 4 msec
