                         Program Version 4.2.1 -  RELEASE  -
|  1> ! wB97X-D3 SP def2-SVP
|  2> %pal
|  3> nprocs 24
|  4> end
|  5>
|  6> * xyz 0 1
|  7> S 	 -103.979 	 25.0222 	 -112.783
|  8> C 	 -104.683 	 23.4399 	 -113.088
|  9> C 	 -105.866 	 23.2639 	 -112.407
| 10> C 	 -106.216 	 24.4709 	 -111.719
| 11> C 	 -105.302 	 25.5191 	 -111.771
| 12> H 	 -107.039 	 24.6029 	 -110.996
| 13> C 	 -106.725 	 21.993 	 -112.395
| 14> H 	 -106.678 	 21.6299 	 -113.407
| 15> H 	 -107.656 	 22.2526 	 -112.034
| 16> C 	 -106.24 	 20.9164 	 -111.454
| 17> H 	 -106.627 	 19.8684 	 -111.573
| 18> H 	 -105.197 	 20.7822 	 -111.627
| 19> C 	 -106.438 	 21.2764 	 -109.964
| 20> H 	 -105.811 	 20.6821 	 -109.304
| 21> H 	 -106.196 	 22.2957 	 -109.774
| 22> H 	 -107.462 	 21.189 	 -109.543
| 23> S 	 -104.035 	 27.4432 	 -110.09
| 24> C 	 -104.991 	 28.2825 	 -108.898
| 25> C 	 -106.325 	 28.2849 	 -109.357
| 26> C 	 -106.62 	 27.3544 	 -110.435
| 27> C 	 -105.425 	 26.7212 	 -110.918
| 28> H 	 -107.07 	 28.8339 	 -108.834
| 29> C 	 -108.069 	 27.2288 	 -110.91
| 30> H 	 -108.746 	 27.9038 	 -110.484
| 31> H 	 -108.376 	 26.1879 	 -110.778
| 32> C 	 -108.206 	 27.466 	 -112.458
| 33> H 	 -107.482 	 26.8074 	 -112.916
| 34> H 	 -107.904 	 28.4332 	 -112.783
| 35> C 	 -109.652 	 27.3299 	 -113.021
| 36> H 	 -110.083 	 26.3983 	 -112.661
| 37> H 	 -109.69 	 27.2905 	 -114.126
| 38> H 	 -110.358 	 28.1101 	 -112.794
| 39> H 	 -104.299 	 22.6987 	 -113.736
| 40> H 	 -104.65 	 28.9731 	 -108.088
| 41> *
| 42>
| 43>                          ****END OF INPUT****

CARTESIAN COORDINATES (ANGSTROEM)
---------------------------------
  S    -103.979000   25.022200  -112.783000
  C    -104.683000   23.439900  -113.088000
  C    -105.866000   23.263900  -112.407000
  C    -106.216000   24.470900  -111.719000
  C    -105.302000   25.519100  -111.771000
  H    -107.039000   24.602900  -110.996000
  C    -106.725000   21.993000  -112.395000
  H    -106.678000   21.629900  -113.407000
  H    -107.656000   22.252600  -112.034000
  C    -106.240000   20.916400  -111.454000
  H    -106.627000   19.868400  -111.573000
  H    -105.197000   20.782200  -111.627000
  C    -106.438000   21.276400  -109.964000
  H    -105.811000   20.682100  -109.304000
  H    -106.196000   22.295700  -109.774000
  H    -107.462000   21.189000  -109.543000
  S    -104.035000   27.443200  -110.090000
  C    -104.991000   28.282500  -108.898000
  C    -106.325000   28.284900  -109.357000
  C    -106.620000   27.354400  -110.435000
  C    -105.425000   26.721200  -110.918000
  H    -107.070000   28.833900  -108.834000
  C    -108.069000   27.228800  -110.910000
  H    -108.746000   27.903800  -110.484000
  H    -108.376000   26.187900  -110.778000
  C    -108.206000   27.466000  -112.458000
  H    -107.482000   26.807400  -112.916000
  H    -107.904000   28.433200  -112.783000
  C    -109.652000   27.329900  -113.021000
  H    -110.083000   26.398300  -112.661000
  H    -109.690000   27.290500  -114.126000
  H    -110.358000   28.110100  -112.794000
  H    -104.299000   22.698700  -113.736000
  H    -104.650000   28.973100  -108.088000

 Total Charge           Charge          ....    0
 Multiplicity           Mult            ....    1
 Number of Electrons    NEL             ....  134
 Basis Dimension        Dim             ....  322

ORBITAL ENERGIES
----------------

  NO   OCC          E(Eh)            E(eV)
   0   2.0000     -88.971734     -2421.0440
   1   2.0000     -88.969705     -2420.9888
   2   2.0000     -10.341355      -281.4026
   3   2.0000     -10.336310      -281.2653
   4   2.0000     -10.326272      -280.9921
   5   2.0000     -10.315004      -280.6855
   6   2.0000     -10.314853      -280.6814
   7   2.0000     -10.305058      -280.4149
   8   2.0000     -10.297762      -280.2164
   9   2.0000     -10.296884      -280.1925
  10   2.0000     -10.294702      -280.1331
  11   2.0000     -10.289636      -279.9952
  12   2.0000     -10.286587      -279.9123
  13   2.0000     -10.280425      -279.7446
  14   2.0000     -10.277025      -279.6521
  15   2.0000     -10.273322      -279.5513
  16   2.0000      -8.086085      -220.0336
  17   2.0000      -8.083868      -219.9732
  18   2.0000      -6.044700      -164.4846
  19   2.0000      -6.042556      -164.4263
  20   2.0000      -6.040562      -164.3721
  21   2.0000      -6.038336      -164.3115
  22   2.0000      -6.036839      -164.2707
  23   2.0000      -6.034577      -164.2092
  24   2.0000      -1.005049       -27.3488
  25   2.0000      -0.982316       -26.7302
  26   2.0000      -0.917417       -24.9642
  27   2.0000      -0.903937       -24.5974
  28   2.0000      -0.867975       -23.6188
  29   2.0000      -0.847717       -23.0675
  30   2.0000      -0.842075       -22.9140
  31   2.0000      -0.812352       -22.1052
  32   2.0000      -0.786583       -21.4040
  33   2.0000      -0.775250       -21.0956
  34   2.0000      -0.710994       -19.3471
  35   2.0000      -0.705121       -19.1873
  36   2.0000      -0.691509       -18.8169
  37   2.0000      -0.662828       -18.0365
  38   2.0000      -0.639740       -17.4082
  39   2.0000      -0.616208       -16.7679
  40   2.0000      -0.592024       -16.1098
  41   2.0000      -0.578971       -15.7546
  42   2.0000      -0.568534       -15.4706
  43   2.0000      -0.556733       -15.1495
  44   2.0000      -0.544266       -14.8102
  45   2.0000      -0.520066       -14.1517
  46   2.0000      -0.513282       -13.9671
  47   2.0000      -0.510428       -13.8894
  48   2.0000      -0.506003       -13.7690
  49   2.0000      -0.498521       -13.5654
  50   2.0000      -0.491030       -13.3616
  51   2.0000      -0.478903       -13.0316
  52   2.0000      -0.476400       -12.9635
  53   2.0000      -0.465435       -12.6651
  54   2.0000      -0.458936       -12.4883
  55   2.0000      -0.451315       -12.2809
  56   2.0000      -0.445608       -12.1256
  57   2.0000      -0.437677       -11.9098
  58   2.0000      -0.434872       -11.8335
  59   2.0000      -0.426917       -11.6170
  60   2.0000      -0.419692       -11.4204
  61   2.0000      -0.410483       -11.1698
  62   2.0000      -0.409991       -11.1564
  63   2.0000      -0.357257        -9.7215
  64   2.0000      -0.335013        -9.1162
  65   2.0000      -0.327009        -8.8984
  66   2.0000      -0.285450        -7.7675
  67   0.0000       0.017059         0.4642
  68   0.0000       0.070285         1.9126
  69   0.0000       0.107721         2.9312
  70   0.0000       0.120993         3.2924
  71   0.0000       0.130269         3.5448

MULLIKEN ATOMIC CHARGES
-----------------------
   0 S :    0.117084
   1 C :   -0.109304
   2 C :   -0.114567
   3 C :   -0.013297
   4 C :   -0.133317
   5 H :    0.020310
   6 C :    0.160150
   7 H :    0.028896
   8 H :   -0.000051
   9 C :   -0.060141
  10 H :    0.038080
  11 H :    0.012205
  12 C :   -0.070333
  13 H :    0.029995
  14 H :    0.023324
  15 H :    0.029718
  16 S :    0.108798
  17 C :   -0.113643
  18 C :   -0.031510
  19 C :   -0.062560
  20 C :   -0.135730
  21 H :    0.011931
  22 C :    0.100946
  23 H :    0.012909
  24 H :    0.026762
  25 C :   -0.077288
  26 H :    0.037628
  27 H :    0.019093
  28 C :   -0.055350
  29 H :    0.018460
  30 H :    0.035966
  31 H :    0.029900
  32 H :    0.031350
  33 H :    0.083587
Sum of atomic charges:    0.0000000

LOEWDIN ATOMIC CHARGES
----------------------
   0 S :    0.411634
   1 C :   -0.187667
   2 C :   -0.057921
   3 C :   -0.071995
   4 C :   -0.200759
   5 H :    0.030523
   6 C :   -0.014858
   7 H :    0.034779
   8 H :    0.020008
   9 C :   -0.041119
  10 H :    0.030821
  11 H :    0.018013
  12 C :   -0.070089
  13 H :    0.026910
  14 H :    0.019773
  15 H :    0.026034
  16 S :    0.406966
  17 C :   -0.201301
  18 C :   -0.068721
  19 C :   -0.049067
  20 C :   -0.194538
  21 H :    0.023448
  22 C :   -0.021904
  23 H :    0.022431
  24 H :    0.030026
  25 C :   -0.034550
  26 H :    0.023655
  27 H :    0.018175
  28 C :   -0.069971
  29 H :    0.019630
  30 H :    0.031940
  31 H :    0.021807
  32 H :    0.021991
  33 H :    0.045899

  Mayer bond orders larger than 0.100000
B(  0-S ,  1-C ) :   1.1394 B(  0-S ,  4-C ) :   1.1460 B(  1-C ,  2-C ) :   1.6045
B(  1-C , 32-H ) :   0.9703 B(  2-C ,  3-C ) :   1.2658 B(  2-C ,  6-C ) :   1.0172
B(  3-C ,  4-C ) :   1.5584 B(  3-C ,  5-H ) :   0.9760 B(  4-C , 20-C ) :   1.0702
B(  6-C ,  7-H ) :   0.9346 B(  6-C ,  8-H ) :   0.9383 B(  6-C ,  9-C ) :   1.0707
B(  9-C , 10-H ) :   0.9572 B(  9-C , 11-H ) :   0.9551 B(  9-C , 12-C ) :   1.0716
B( 12-C , 13-H ) :   0.9730 B( 12-C , 14-H ) :   0.9773 B( 12-C , 15-H ) :   0.9752
B( 16-S , 17-C ) :   1.1642 B( 16-S , 20-C ) :   1.1389 B( 17-C , 18-C ) :   1.5738
B( 17-C , 20-C ) :   0.1054 B( 17-C , 33-H ) :   0.9614 B( 18-C , 19-C ) :   1.2830
B( 18-C , 21-H ) :   0.9894 B( 19-C , 20-C ) :   1.5276 B( 19-C , 22-C ) :   1.0461
B( 22-C , 23-H ) :   0.9426 B( 22-C , 24-H ) :   0.9275 B( 22-C , 25-C ) :   1.0541
B( 25-C , 26-H ) :   0.9570 B( 25-C , 27-H ) :   0.9582 B( 25-C , 28-C ) :   1.0768
B( 28-C , 29-H ) :   0.9759 B( 28-C , 30-H ) :   0.9739 B( 28-C , 31-H ) :   0.9770

Dispersion correction           -0.014554011
FINAL SINGLE POINT ENERGY     -1339.864131092670

DIPOLE MOMENT
-------------
                                X             Y             Z
Electronic contribution:     22.97609      12.44230       0.84702
Nuclear contribution   :    -23.55054     -12.65131      -0.71497
                        -----------------------------------------
Total Dipole Moment    :     -0.57444      -0.20901       0.13206
                        -----------------------------------------
Magnitude (a.u.)       :      0.62539
Magnitude (Debye)      :      1.58961

Rotational constants in cm-1:     0.016325     0.009156     0.007679
Rotational constants in MHz :   489.397430   274.480694   230.221772

                             ****ORCA TERMINATED NORMALLY****
TOTAL RUN TIME: 0 days 0 hours 0 minutes 21 seconds 989 msec
