                         Program Version 4.2.1 -  RELEASE  -
|  1> ! wB97X-D3 SP def2-SVP
|  2> %pal
|  3> nprocs 24
|  4> end
|  5>
|  6> * xyz 0 1
|  7> S 	 -78.4727 	 -4.33872 	 5.89516
|  8> C 	 -77.9782 	 -3.30443 	 4.63704
|  9> C 	 -77.8902 	 -3.95584 	 3.4556
| 10> C 	 -78.5068 	 -5.28117 	 3.49706
| 11> C 	 -78.9328 	 -5.60623 	 4.77662
| 12> H 	 -78.6306 	 -5.89444 	 2.67768
| 13> C 	 -77.5159 	 -3.26816 	 2.18278
| 14> H 	 -78.035 	 -2.33706 	 2.20207
| 15> H 	 -77.8314 	 -3.84155 	 1.30163
| 16> C 	 -76.0715 	 -2.76088 	 2.05719
| 17> H 	 -75.9057 	 -2.18855 	 1.1459
| 18> H 	 -75.9116 	 -1.94453 	 2.77819
| 19> C 	 -74.9266 	 -3.71127 	 2.19905
| 20> H 	 -74.9554 	 -4.39234 	 1.32319
| 21> H 	 -73.9711 	 -3.18941 	 2.2118
| 22> H 	 -75.1272 	 -4.49696 	 3.0222
| 23> S 	 -81.3463 	 -6.58256 	 5.45157
| 24> C 	 -81.3226 	 -8.32034 	 5.92609
| 25> C 	 -80.1738 	 -8.95481 	 5.61969
| 26> C 	 -79.1078 	 -8.07919 	 5.28449
| 27> C 	 -79.565 	 -6.75832 	 5.22081
| 28> H 	 -80.2232 	 -10.0115 	 5.73495
| 29> C 	 -77.6914 	 -8.55294 	 5.10801
| 30> H 	 -77.4755 	 -9.33381 	 5.82872
| 31> H 	 -76.9889 	 -7.7833 	 5.36118
| 32> C 	 -77.3734 	 -8.95548 	 3.65143
| 33> H 	 -77.638 	 -8.04605 	 3.09097
| 34> H 	 -77.9312 	 -9.80494 	 3.30013
| 35> C 	 -75.8686 	 -9.12337 	 3.27954
| 36> H 	 -75.1843 	 -8.26163 	 3.44314
| 37> H 	 -75.6899 	 -9.29877 	 2.19227
| 38> H 	 -75.4339 	 -10.0071 	 3.73206
| 39> H 	 -77.5722 	 -2.29354 	 4.76051
| 40> H 	 -82.2628 	 -8.81577 	 6.16481
| 41> *
| 42>
| 43>                          ****END OF INPUT****

CARTESIAN COORDINATES (ANGSTROEM)
---------------------------------
  S    -78.472700   -4.338720    5.895160
  C    -77.978200   -3.304430    4.637040
  C    -77.890200   -3.955840    3.455600
  C    -78.506800   -5.281170    3.497060
  C    -78.932800   -5.606230    4.776620
  H    -78.630600   -5.894440    2.677680
  C    -77.515900   -3.268160    2.182780
  H    -78.035000   -2.337060    2.202070
  H    -77.831400   -3.841550    1.301630
  C    -76.071500   -2.760880    2.057190
  H    -75.905700   -2.188550    1.145900
  H    -75.911600   -1.944530    2.778190
  C    -74.926600   -3.711270    2.199050
  H    -74.955400   -4.392340    1.323190
  H    -73.971100   -3.189410    2.211800
  H    -75.127200   -4.496960    3.022200
  S    -81.346300   -6.582560    5.451570
  C    -81.322600   -8.320340    5.926090
  C    -80.173800   -8.954810    5.619690
  C    -79.107800   -8.079190    5.284490
  C    -79.565000   -6.758320    5.220810
  H    -80.223200  -10.011500    5.734950
  C    -77.691400   -8.552940    5.108010
  H    -77.475500   -9.333810    5.828720
  H    -76.988900   -7.783300    5.361180
  C    -77.373400   -8.955480    3.651430
  H    -77.638000   -8.046050    3.090970
  H    -77.931200   -9.804940    3.300130
  C    -75.868600   -9.123370    3.279540
  H    -75.184300   -8.261630    3.443140
  H    -75.689900   -9.298770    2.192270
  H    -75.433900  -10.007100    3.732060
  H    -77.572200   -2.293540    4.760510
  H    -82.262800   -8.815770    6.164810

 Total Charge           Charge          ....    0
 Multiplicity           Mult            ....    1
 Number of Electrons    NEL             ....  134
 Basis Dimension        Dim             ....  322

ORBITAL ENERGIES
----------------

  NO   OCC          E(Eh)            E(eV)
   0   2.0000     -88.962508     -2420.7929
   1   2.0000     -88.961329     -2420.7608
   2   2.0000     -10.322784      -280.8972
   3   2.0000     -10.320859      -280.8449
   4   2.0000     -10.316788      -280.7341
   5   2.0000     -10.307835      -280.4905
   6   2.0000     -10.306524      -280.4548
   7   2.0000     -10.295741      -280.1614
   8   2.0000     -10.292631      -280.0767
   9   2.0000     -10.290385      -280.0156
  10   2.0000     -10.290204      -280.0107
  11   2.0000     -10.290010      -280.0054
  12   2.0000     -10.288440      -279.9627
  13   2.0000     -10.283535      -279.8292
  14   2.0000     -10.282425      -279.7990
  15   2.0000     -10.279848      -279.7289
  16   2.0000      -8.077203      -219.7919
  17   2.0000      -8.076256      -219.7661
  18   2.0000      -6.035666      -164.2388
  19   2.0000      -6.034697      -164.2125
  20   2.0000      -6.031524      -164.1261
  21   2.0000      -6.031326      -164.1207
  22   2.0000      -6.027947      -164.0288
  23   2.0000      -6.026710      -163.9951
  24   2.0000      -1.009227       -27.4625
  25   2.0000      -0.982614       -26.7383
  26   2.0000      -0.915642       -24.9159
  27   2.0000      -0.905757       -24.6469
  28   2.0000      -0.877982       -23.8911
  29   2.0000      -0.849406       -23.1135
  30   2.0000      -0.846279       -23.0284
  31   2.0000      -0.817128       -22.2352
  32   2.0000      -0.786293       -21.3961
  33   2.0000      -0.770631       -20.9699
  34   2.0000      -0.711401       -19.3582
  35   2.0000      -0.697492       -18.9797
  36   2.0000      -0.696445       -18.9512
  37   2.0000      -0.660742       -17.9797
  38   2.0000      -0.644626       -17.5412
  39   2.0000      -0.612965       -16.6796
  40   2.0000      -0.597213       -16.2510
  41   2.0000      -0.574617       -15.6361
  42   2.0000      -0.567995       -15.4559
  43   2.0000      -0.556515       -15.1435
  44   2.0000      -0.539847       -14.6900
  45   2.0000      -0.520937       -14.1754
  46   2.0000      -0.518119       -14.0987
  47   2.0000      -0.510818       -13.9001
  48   2.0000      -0.507617       -13.8130
  49   2.0000      -0.495767       -13.4905
  50   2.0000      -0.489693       -13.3252
  51   2.0000      -0.481378       -13.0990
  52   2.0000      -0.473742       -12.8912
  53   2.0000      -0.463432       -12.6106
  54   2.0000      -0.461241       -12.5510
  55   2.0000      -0.447084       -12.1658
  56   2.0000      -0.439434       -11.9576
  57   2.0000      -0.435475       -11.8499
  58   2.0000      -0.432166       -11.7598
  59   2.0000      -0.427684       -11.6379
  60   2.0000      -0.426195       -11.5973
  61   2.0000      -0.415134       -11.2964
  62   2.0000      -0.401635       -10.9290
  63   2.0000      -0.338919        -9.2225
  64   2.0000      -0.326447        -8.8831
  65   2.0000      -0.320209        -8.7133
  66   2.0000      -0.305441        -8.3115
  67   0.0000       0.032728         0.8906
  68   0.0000       0.058929         1.6035
  69   0.0000       0.100331         2.7301
  70   0.0000       0.117498         3.1973
  71   0.0000       0.126984         3.4554

MULLIKEN ATOMIC CHARGES
-----------------------
   0 S :    0.125406
   1 C :   -0.121030
   2 C :   -0.096449
   3 C :    0.078061
   4 C :   -0.186195
   5 H :   -0.011600
   6 C :    0.090955
   7 H :    0.028565
   8 H :    0.025284
   9 C :   -0.093838
  10 H :    0.020171
  11 H :    0.010645
  12 C :   -0.058659
  13 H :    0.017061
  14 H :    0.045095
  15 H :    0.045997
  16 S :    0.091390
  17 C :   -0.089201
  18 C :   -0.029150
  19 C :    0.013171
  20 C :   -0.187752
  21 H :    0.011237
  22 C :    0.112103
  23 H :    0.023333
  24 H :    0.014222
  25 C :   -0.070007
  26 H :    0.024450
  27 H :    0.032993
  28 C :   -0.072992
  29 H :    0.038916
  30 H :    0.031108
  31 H :    0.026674
  32 H :    0.054705
  33 H :    0.055331
Sum of atomic charges:   -0.0000000

LOEWDIN ATOMIC CHARGES
----------------------
   0 S :    0.424914
   1 C :   -0.209090
   2 C :   -0.070314
   3 C :   -0.042873
   4 C :   -0.205038
   5 H :    0.016066
   6 C :   -0.030833
   7 H :    0.037828
   8 H :    0.029894
   9 C :   -0.052265
  10 H :    0.024748
  11 H :    0.018604
  12 C :   -0.076677
  13 H :    0.022422
  14 H :    0.029049
  15 H :    0.035206
  16 S :    0.358580
  17 C :   -0.156931
  18 C :   -0.068076
  19 C :   -0.038550
  20 C :   -0.187380
  21 H :    0.031992
  22 C :   -0.027687
  23 H :    0.029051
  24 H :    0.031601
  25 C :   -0.035857
  26 H :    0.028059
  27 H :    0.022282
  28 C :   -0.077171
  29 H :    0.029015
  30 H :    0.030812
  31 H :    0.019255
  32 H :    0.033295
  33 H :    0.026068

  Mayer bond orders larger than 0.100000
B(  0-S ,  1-C ) :   1.1452 B(  0-S ,  4-C ) :   1.1494 B(  1-C ,  2-C ) :   1.6212
B(  1-C , 32-H ) :   0.9623 B(  2-C ,  3-C ) :   1.2145 B(  2-C ,  6-C ) :   1.0242
B(  3-C ,  4-C ) :   1.5696 B(  3-C ,  5-H ) :   1.0085 B(  4-C , 20-C ) :   1.0692
B(  6-C ,  7-H ) :   0.9347 B(  6-C ,  8-H ) :   0.9481 B(  6-C ,  9-C ) :   1.0703
B(  9-C , 10-H ) :   0.9497 B(  9-C , 11-H ) :   0.9535 B(  9-C , 12-C ) :   1.0847
B( 12-C , 13-H ) :   0.9718 B( 12-C , 14-H ) :   0.9716 B( 12-C , 15-H ) :   0.9710
B( 16-S , 17-C ) :   1.1216 B( 16-S , 20-C ) :   1.1291 B( 17-C , 18-C ) :   1.6754
B( 17-C , 20-C ) :   0.1024 B( 17-C , 33-H ) :   0.9634 B( 18-C , 19-C ) :   1.1801
B( 18-C , 21-H ) :   0.9931 B( 19-C , 20-C ) :   1.6138 B( 19-C , 22-C ) :   1.0576
B( 22-C , 23-H ) :   0.9335 B( 22-C , 24-H ) :   0.9237 B( 22-C , 25-C ) :   1.0552
B( 25-C , 26-H ) :   0.9533 B( 25-C , 27-H ) :   0.9588 B( 25-C , 28-C ) :   1.0818
B( 28-C , 29-H ) :   0.9745 B( 28-C , 30-H ) :   0.9740 B( 28-C , 31-H ) :   0.9757

Dispersion correction           -0.014781505
FINAL SINGLE POINT ENERGY     -1339.865150213720

DIPOLE MOMENT
-------------
                                X             Y             Z
Electronic contribution:    -23.76232       3.43798      17.74330
Nuclear contribution   :     24.08465      -3.66113     -18.23943
                        -----------------------------------------
Total Dipole Moment    :      0.32233      -0.22315      -0.49613
                        -----------------------------------------
Magnitude (a.u.)       :      0.63233
Magnitude (Debye)      :      1.60727

Rotational constants in cm-1:     0.018679     0.009393     0.006983
Rotational constants in MHz :   559.969664   281.590865   209.334372

                             ****ORCA TERMINATED NORMALLY****
TOTAL RUN TIME: 0 days 0 hours 0 minutes 22 seconds 174 msec
