                         Program Version 4.2.1 -  RELEASE  -
|  1> ! wB97X-D3 SP def2-SVP
|  2> %pal
|  3> nprocs 24
|  4> end
|  5>
|  6> * xyz 0 1
|  7> S 	 -44.1751 	 22.6781 	 29.3184
|  8> C 	 -43.4449 	 23.1848 	 27.7824
|  9> C 	 -44.2587 	 24.0367 	 27.1119
| 10> C 	 -45.5309 	 24.2373 	 27.7363
| 11> C 	 -45.6622 	 23.5973 	 28.967
| 12> H 	 -46.253 	 24.868 	 27.3447
| 13> C 	 -43.9756 	 24.6806 	 25.8017
| 14> H 	 -43.24 	 25.4437 	 25.9128
| 15> H 	 -44.8327 	 25.281 	 25.3644
| 16> C 	 -43.6108 	 23.7552 	 24.5736
| 17> H 	 -43.2282 	 24.4782 	 23.766
| 18> H 	 -42.787 	 23.1186 	 24.8349
| 19> C 	 -44.7001 	 22.7874 	 24.0853
| 20> H 	 -44.8762 	 22.0198 	 24.8434
| 21> H 	 -45.6867 	 23.2737 	 24.0365
| 22> H 	 -44.5255 	 22.2408 	 23.1611
| 23> S 	 -47.5151 	 22.0493 	 30.3522
| 24> C 	 -48.8763 	 22.8869 	 31.0826
| 25> C 	 -48.8329 	 24.2591 	 30.9923
| 26> C 	 -47.6777 	 24.6373 	 30.2181
| 27> C 	 -46.9149 	 23.6042 	 29.7382
| 28> H 	 -49.5864 	 24.8724 	 31.3177
| 29> C 	 -47.2562 	 26.0563 	 30.1073
| 30> H 	 -48.1482 	 26.6037 	 29.8646
| 31> H 	 -46.5839 	 26.1546 	 29.2162
| 32> C 	 -46.4914 	 26.7205 	 31.2511
| 33> H 	 -45.563 	 26.0535 	 31.2936
| 34> H 	 -46.9569 	 26.6638 	 32.2692
| 35> C 	 -46.127 	 28.1697 	 30.9633
| 36> H 	 -45.4203 	 28.5731 	 31.6345
| 37> H 	 -46.937 	 28.8514 	 31.0852
| 38> H 	 -45.7287 	 28.3046 	 30.0056
| 39> H 	 -42.5051 	 22.9333 	 27.4982
| 40> H 	 -49.5522 	 22.2927 	 31.6487
| 41> *
| 42>
| 43>                          ****END OF INPUT****

CARTESIAN COORDINATES (ANGSTROEM)
---------------------------------
  S    -44.175100   22.678100   29.318400
  C    -43.444900   23.184800   27.782400
  C    -44.258700   24.036700   27.111900
  C    -45.530900   24.237300   27.736300
  C    -45.662200   23.597300   28.967000
  H    -46.253000   24.868000   27.344700
  C    -43.975600   24.680600   25.801700
  H    -43.240000   25.443700   25.912800
  H    -44.832700   25.281000   25.364400
  C    -43.610800   23.755200   24.573600
  H    -43.228200   24.478200   23.766000
  H    -42.787000   23.118600   24.834900
  C    -44.700100   22.787400   24.085300
  H    -44.876200   22.019800   24.843400
  H    -45.686700   23.273700   24.036500
  H    -44.525500   22.240800   23.161100
  S    -47.515100   22.049300   30.352200
  C    -48.876300   22.886900   31.082600
  C    -48.832900   24.259100   30.992300
  C    -47.677700   24.637300   30.218100
  C    -46.914900   23.604200   29.738200
  H    -49.586400   24.872400   31.317700
  C    -47.256200   26.056300   30.107300
  H    -48.148200   26.603700   29.864600
  H    -46.583900   26.154600   29.216200
  C    -46.491400   26.720500   31.251100
  H    -45.563000   26.053500   31.293600
  H    -46.956900   26.663800   32.269200
  C    -46.127000   28.169700   30.963300
  H    -45.420300   28.573100   31.634500
  H    -46.937000   28.851400   31.085200
  H    -45.728700   28.304600   30.005600
  H    -42.505100   22.933300   27.498200
  H    -49.552200   22.292700   31.648700

 Total Charge           Charge          ....    0
 Multiplicity           Mult            ....    1
 Number of Electrons    NEL             ....  134
 Basis Dimension        Dim             ....  322

ORBITAL ENERGIES
----------------

  NO   OCC          E(Eh)            E(eV)
   0   2.0000     -88.969606     -2420.9861
   1   2.0000     -88.963398     -2420.8171
   2   2.0000     -10.335299      -281.2378
   3   2.0000     -10.326956      -281.0108
   4   2.0000     -10.318959      -280.7932
   5   2.0000     -10.309236      -280.5286
   6   2.0000     -10.300949      -280.3031
   7   2.0000     -10.298233      -280.2292
   8   2.0000     -10.295291      -280.1491
   9   2.0000     -10.294949      -280.1398
  10   2.0000     -10.292853      -280.0828
  11   2.0000     -10.291165      -280.0368
  12   2.0000     -10.289502      -279.9916
  13   2.0000     -10.285334      -279.8782
  14   2.0000     -10.276786      -279.6456
  15   2.0000     -10.265579      -279.3406
  16   2.0000      -8.083178      -219.9544
  17   2.0000      -8.078169      -219.8182
  18   2.0000      -6.041927      -164.4092
  19   2.0000      -6.037790      -164.2966
  20   2.0000      -6.036584      -164.2638
  21   2.0000      -6.033818      -164.1885
  22   2.0000      -6.032831      -164.1617
  23   2.0000      -6.028869      -164.0539
  24   2.0000      -1.003726       -27.3128
  25   2.0000      -0.983526       -26.7631
  26   2.0000      -0.909060       -24.7368
  27   2.0000      -0.906281       -24.6611
  28   2.0000      -0.869244       -23.6533
  29   2.0000      -0.854803       -23.2604
  30   2.0000      -0.846304       -23.0291
  31   2.0000      -0.817840       -22.2546
  32   2.0000      -0.784199       -21.3391
  33   2.0000      -0.775353       -21.0984
  34   2.0000      -0.710487       -19.3333
  35   2.0000      -0.701479       -19.0882
  36   2.0000      -0.691217       -18.8090
  37   2.0000      -0.671932       -18.2842
  38   2.0000      -0.649100       -17.6629
  39   2.0000      -0.616225       -16.7683
  40   2.0000      -0.598994       -16.2994
  41   2.0000      -0.579399       -15.7662
  42   2.0000      -0.564198       -15.3526
  43   2.0000      -0.550576       -14.9819
  44   2.0000      -0.538554       -14.6548
  45   2.0000      -0.522572       -14.2199
  46   2.0000      -0.516319       -14.0497
  47   2.0000      -0.513063       -13.9612
  48   2.0000      -0.510708       -13.8971
  49   2.0000      -0.495864       -13.4932
  50   2.0000      -0.488073       -13.2811
  51   2.0000      -0.477556       -12.9949
  52   2.0000      -0.469622       -12.7791
  53   2.0000      -0.466228       -12.6867
  54   2.0000      -0.462391       -12.5823
  55   2.0000      -0.460344       -12.5266
  56   2.0000      -0.444447       -12.0940
  57   2.0000      -0.437921       -11.9164
  58   2.0000      -0.429167       -11.6782
  59   2.0000      -0.423873       -11.5342
  60   2.0000      -0.417367       -11.3571
  61   2.0000      -0.410708       -11.1759
  62   2.0000      -0.408571       -11.1178
  63   2.0000      -0.349722        -9.5164
  64   2.0000      -0.331899        -9.0314
  65   2.0000      -0.331332        -9.0160
  66   2.0000      -0.293132        -7.9765
  67   0.0000       0.027657         0.7526
  68   0.0000       0.067852         1.8463
  69   0.0000       0.106002         2.8844
  70   0.0000       0.122378         3.3301
  71   0.0000       0.127634         3.4731

MULLIKEN ATOMIC CHARGES
-----------------------
   0 S :    0.105538
   1 C :   -0.092175
   2 C :   -0.034676
   3 C :    0.044605
   4 C :   -0.134328
   5 H :   -0.006843
   6 C :    0.035033
   7 H :    0.032207
   8 H :    0.027685
   9 C :   -0.095459
  10 H :    0.040793
  11 H :    0.023799
  12 C :   -0.048754
  13 H :    0.033290
  14 H :    0.021736
  15 H :    0.042431
  16 S :    0.089983
  17 C :   -0.079827
  18 C :    0.026362
  19 C :   -0.052379
  20 C :   -0.149994
  21 H :   -0.007647
  22 C :    0.052088
  23 H :    0.009979
  24 H :    0.015769
  25 C :   -0.086745
  26 H :    0.038621
  27 H :    0.034560
  28 C :    0.014849
  29 H :    0.018204
  30 H :    0.016595
  31 H :    0.010939
  32 H :    0.004857
  33 H :    0.048903
Sum of atomic charges:    0.0000000

LOEWDIN ATOMIC CHARGES
----------------------
   0 S :    0.383169
   1 C :   -0.168063
   2 C :   -0.063871
   3 C :   -0.049953
   4 C :   -0.180541
   5 H :    0.018589
   6 C :   -0.036725
   7 H :    0.030005
   8 H :    0.035808
   9 C :   -0.041510
  10 H :    0.031548
  11 H :    0.015726
  12 C :   -0.072771
  13 H :    0.029304
  14 H :    0.023505
  15 H :    0.028774
  16 S :    0.384750
  17 C :   -0.157688
  18 C :   -0.054922
  19 C :   -0.053682
  20 C :   -0.189139
  21 H :    0.021389
  22 C :   -0.040940
  23 H :    0.021761
  24 H :    0.034103
  25 C :   -0.041453
  26 H :    0.033779
  27 H :    0.026066
  28 C :   -0.058025
  29 H :    0.024651
  30 H :    0.022901
  31 H :    0.017903
  32 H :    0.007216
  33 H :    0.018335

  Mayer bond orders larger than 0.100000
B(  0-S ,  1-C ) :   1.1180 B(  0-S ,  4-C ) :   1.1379 B(  1-C ,  2-C ) :   1.6146
B(  1-C , 32-H ) :   0.9845 B(  2-C ,  3-C ) :   1.2400 B(  2-C ,  6-C ) :   1.0176
B(  3-C ,  4-C ) :   1.5630 B(  3-C ,  5-H ) :   0.9983 B(  4-C , 20-C ) :   1.0466
B(  6-C ,  7-H ) :   0.9332 B(  6-C ,  8-H ) :   0.9496 B(  6-C ,  9-C ) :   1.0706
B(  9-C , 10-H ) :   0.9567 B(  9-C , 11-H ) :   0.9597 B(  9-C , 12-C ) :   1.0654
B( 12-C , 13-H ) :   0.9722 B( 12-C , 14-H ) :   0.9764 B( 12-C , 15-H ) :   0.9759
B( 16-S , 17-C ) :   1.1638 B( 16-S , 20-C ) :   1.1102 B( 17-C , 18-C ) :   1.6044
B( 17-C , 33-H ) :   0.9702 B( 18-C , 19-C ) :   1.2118 B( 18-C , 21-H ) :   1.0101
B( 19-C , 20-C ) :   1.6307 B( 19-C , 22-C ) :   1.0633 B( 22-C , 23-H ) :   0.9223
B( 22-C , 24-H ) :   0.9259 B( 22-C , 25-C ) :   1.0592 B( 25-C , 26-H ) :   0.9532
B( 25-C , 27-H ) :   0.9557 B( 25-C , 28-C ) :   1.0857 B( 28-C , 29-H ) :   0.9695
B( 28-C , 30-H ) :   0.9707 B( 28-C , 31-H ) :   0.9724

Dispersion correction           -0.014263830
FINAL SINGLE POINT ENERGY     -1339.873967764454

DIPOLE MOMENT
-------------
                                X             Y             Z
Electronic contribution:     -3.73749     -18.68328      13.64160
Nuclear contribution   :      3.67147      19.23970     -13.84916
                        -----------------------------------------
Total Dipole Moment    :     -0.06602       0.55642      -0.20756
                        -----------------------------------------
Magnitude (a.u.)       :      0.59753
Magnitude (Debye)      :      1.51879

Rotational constants in cm-1:     0.018426     0.008339     0.006929
Rotational constants in MHz :   552.386480   250.009372   207.735356

                             ****ORCA TERMINATED NORMALLY****
TOTAL RUN TIME: 0 days 0 hours 0 minutes 21 seconds 390 msec
