                         Program Version 4.2.1 -  RELEASE  -
|  1> ! wB97X-D3 SP def2-SVP
|  2> %pal
|  3> nprocs 24
|  4> end
|  5>
|  6> * xyz 0 1
|  7> S 	 34.0063 	 -30.8611 	 -116.984
|  8> C 	 35.2856 	 -30.1953 	 -115.924
|  9> C 	 36.4623 	 -29.8325 	 -116.648
| 10> C 	 36.2564 	 -30.1319 	 -118.032
| 11> C 	 34.9798 	 -30.5766 	 -118.402
| 12> H 	 36.8834 	 -29.9667 	 -118.836
| 13> C 	 37.7709 	 -29.2199 	 -116.15
| 14> H 	 37.6285 	 -28.2618 	 -115.709
| 15> H 	 38.2422 	 -28.7907 	 -117.023
| 16> C 	 38.655 	 -30.1336 	 -115.333
| 17> H 	 38.62 	 -31.0897 	 -115.76
| 18> H 	 39.6807 	 -29.8033 	 -115.332
| 19> C 	 38.1989 	 -30.2537 	 -113.887
| 20> H 	 38.7944 	 -30.9967 	 -113.259
| 21> H 	 38.3588 	 -29.3183 	 -113.417
| 22> H 	 37.1265 	 -30.5135 	 -113.808
| 23> S 	 34.2072 	 -29.4725 	 -120.719
| 24> C 	 33.8283 	 -30.4976 	 -122.107
| 25> C 	 33.9482 	 -31.7891 	 -121.844
| 26> C 	 34.3431 	 -32.0219 	 -120.48
| 27> C 	 34.5599 	 -30.8091 	 -119.752
| 28> H 	 33.7664 	 -32.5221 	 -122.628
| 29> C 	 34.4299 	 -33.4441 	 -119.918
| 30> H 	 35.1971 	 -33.3987 	 -119.149
| 31> H 	 34.7292 	 -34.1094 	 -120.714
| 32> C 	 33.1944 	 -34.0032 	 -119.35
| 33> H 	 32.3849 	 -33.8715 	 -120.126
| 34> H 	 32.9658 	 -33.6623 	 -118.327
| 35> C 	 33.2813 	 -35.587 	 -119.091
| 36> H 	 33.6592 	 -36.1385 	 -119.94
| 37> H 	 32.3149 	 -36.0299 	 -118.866
| 38> H 	 34.0252 	 -35.8521 	 -118.364
| 39> H 	 35.2165 	 -30.2453 	 -114.859
| 40> H 	 33.7797 	 -30.1668 	 -123.112
| 41> *
| 42>
| 43>                          ****END OF INPUT****

CARTESIAN COORDINATES (ANGSTROEM)
---------------------------------
  S     34.006300  -30.861100  -116.984000
  C     35.285600  -30.195300  -115.924000
  C     36.462300  -29.832500  -116.648000
  C     36.256400  -30.131900  -118.032000
  C     34.979800  -30.576600  -118.402000
  H     36.883400  -29.966700  -118.836000
  C     37.770900  -29.219900  -116.150000
  H     37.628500  -28.261800  -115.709000
  H     38.242200  -28.790700  -117.023000
  C     38.655000  -30.133600  -115.333000
  H     38.620000  -31.089700  -115.760000
  H     39.680700  -29.803300  -115.332000
  C     38.198900  -30.253700  -113.887000
  H     38.794400  -30.996700  -113.259000
  H     38.358800  -29.318300  -113.417000
  H     37.126500  -30.513500  -113.808000
  S     34.207200  -29.472500  -120.719000
  C     33.828300  -30.497600  -122.107000
  C     33.948200  -31.789100  -121.844000
  C     34.343100  -32.021900  -120.480000
  C     34.559900  -30.809100  -119.752000
  H     33.766400  -32.522100  -122.628000
  C     34.429900  -33.444100  -119.918000
  H     35.197100  -33.398700  -119.149000
  H     34.729200  -34.109400  -120.714000
  C     33.194400  -34.003200  -119.350000
  H     32.384900  -33.871500  -120.126000
  H     32.965800  -33.662300  -118.327000
  C     33.281300  -35.587000  -119.091000
  H     33.659200  -36.138500  -119.940000
  H     32.314900  -36.029900  -118.866000
  H     34.025200  -35.852100  -118.364000
  H     35.216500  -30.245300  -114.859000
  H     33.779700  -30.166800  -123.112000

 Total Charge           Charge          ....    0
 Multiplicity           Mult            ....    1
 Number of Electrons    NEL             ....  134
 Basis Dimension        Dim             ....  322

ORBITAL ENERGIES
----------------

  NO   OCC          E(Eh)            E(eV)
   0   2.0000     -88.971042     -2421.0251
   1   2.0000     -88.964714     -2420.8529
   2   2.0000     -10.327132      -281.0156
   3   2.0000     -10.323334      -280.9122
   4   2.0000     -10.322941      -280.9015
   5   2.0000     -10.311781      -280.5978
   6   2.0000     -10.307511      -280.4816
   7   2.0000     -10.305447      -280.4255
   8   2.0000     -10.290990      -280.0321
   9   2.0000     -10.290964      -280.0314
  10   2.0000     -10.289720      -279.9975
  11   2.0000     -10.288427      -279.9623
  12   2.0000     -10.283585      -279.8306
  13   2.0000     -10.281057      -279.7618
  14   2.0000     -10.280397      -279.7438
  15   2.0000     -10.273585      -279.5585
  16   2.0000      -8.084679      -219.9953
  17   2.0000      -8.080413      -219.8792
  18   2.0000      -6.043150      -164.4425
  19   2.0000      -6.039230      -164.3358
  20   2.0000      -6.038872      -164.3261
  21   2.0000      -6.035659      -164.2386
  22   2.0000      -6.034706      -164.2127
  23   2.0000      -6.031226      -164.1180
  24   2.0000      -1.008943       -27.4547
  25   2.0000      -0.981183       -26.6993
  26   2.0000      -0.917999       -24.9800
  27   2.0000      -0.908982       -24.7347
  28   2.0000      -0.876661       -23.8551
  29   2.0000      -0.851301       -23.1651
  30   2.0000      -0.840096       -22.8602
  31   2.0000      -0.814417       -22.1614
  32   2.0000      -0.788221       -21.4486
  33   2.0000      -0.770489       -20.9661
  34   2.0000      -0.709104       -19.2957
  35   2.0000      -0.704547       -19.1717
  36   2.0000      -0.688203       -18.7270
  37   2.0000      -0.661934       -18.0121
  38   2.0000      -0.649299       -17.6683
  39   2.0000      -0.617875       -16.8132
  40   2.0000      -0.595523       -16.2050
  41   2.0000      -0.583291       -15.8722
  42   2.0000      -0.570322       -15.5193
  43   2.0000      -0.548629       -14.9290
  44   2.0000      -0.540160       -14.6985
  45   2.0000      -0.521551       -14.1921
  46   2.0000      -0.516465       -14.0537
  47   2.0000      -0.513203       -13.9650
  48   2.0000      -0.507209       -13.8018
  49   2.0000      -0.498816       -13.5735
  50   2.0000      -0.488669       -13.2974
  51   2.0000      -0.481187       -13.0938
  52   2.0000      -0.470385       -12.7998
  53   2.0000      -0.465106       -12.6562
  54   2.0000      -0.455578       -12.3969
  55   2.0000      -0.451339       -12.2816
  56   2.0000      -0.445062       -12.1107
  57   2.0000      -0.437614       -11.9081
  58   2.0000      -0.435934       -11.8624
  59   2.0000      -0.426954       -11.6180
  60   2.0000      -0.418994       -11.4014
  61   2.0000      -0.415856       -11.3160
  62   2.0000      -0.404238       -10.9999
  63   2.0000      -0.344331        -9.3697
  64   2.0000      -0.335291        -9.1237
  65   2.0000      -0.318117        -8.6564
  66   2.0000      -0.303131        -8.2486
  67   0.0000       0.034338         0.9344
  68   0.0000       0.059227         1.6116
  69   0.0000       0.111643         3.0380
  70   0.0000       0.118445         3.2231
  71   0.0000       0.129400         3.5212

MULLIKEN ATOMIC CHARGES
-----------------------
   0 S :    0.124781
   1 C :   -0.131826
   2 C :   -0.079245
   3 C :    0.061748
   4 C :   -0.184943
   5 H :   -0.017912
   6 C :    0.092021
   7 H :    0.016650
   8 H :    0.006142
   9 C :   -0.007853
  10 H :    0.021454
  11 H :    0.027073
  12 C :   -0.065717
  13 H :    0.042285
  14 H :    0.017785
  15 H :    0.023990
  16 S :    0.120776
  17 C :   -0.071791
  18 C :   -0.037412
  19 C :   -0.038698
  20 C :   -0.180381
  21 H :    0.025036
  22 C :    0.096411
  23 H :    0.023695
  24 H :    0.009359
  25 C :   -0.074027
  26 H :    0.035474
  27 H :    0.037808
  28 C :   -0.057581
  29 H :    0.009903
  30 H :    0.038981
  31 H :    0.023573
  32 H :    0.050755
  33 H :    0.041685
Sum of atomic charges:   -0.0000000

LOEWDIN ATOMIC CHARGES
----------------------
   0 S :    0.407773
   1 C :   -0.183933
   2 C :   -0.051576
   3 C :   -0.048671
   4 C :   -0.209804
   5 H :    0.017881
   6 C :   -0.033722
   7 H :    0.030632
   8 H :    0.034054
   9 C :   -0.033035
  10 H :    0.020101
  11 H :    0.026116
  12 C :   -0.065071
  13 H :    0.033494
  14 H :    0.016736
  15 H :    0.023336
  16 S :    0.432882
  17 C :   -0.178426
  18 C :   -0.072470
  19 C :   -0.048067
  20 C :   -0.228648
  21 H :    0.037628
  22 C :   -0.038538
  23 H :    0.030368
  24 H :    0.028360
  25 C :   -0.037907
  26 H :    0.029616
  27 H :    0.024669
  28 C :   -0.069801
  29 H :    0.017037
  30 H :    0.026189
  31 H :    0.021094
  32 H :    0.017579
  33 H :    0.024125

  Mayer bond orders larger than 0.100000
B(  0-S ,  1-C ) :   1.1559 B(  0-S ,  4-C ) :   1.1453 B(  1-C ,  2-C ) :   1.5706
B(  1-C ,  4-C ) :   0.1081 B(  1-C , 32-H ) :   0.9684 B(  2-C ,  3-C ) :   1.2566
B(  2-C ,  6-C ) :   1.0148 B(  3-C ,  4-C ) :   1.5773 B(  3-C ,  5-H ) :   0.9975
B(  4-C , 20-C ) :   1.0344 B(  6-C ,  7-H ) :   0.9345 B(  6-C ,  8-H ) :   0.9300
B(  6-C ,  9-C ) :   1.0613 B(  9-C , 10-H ) :   0.9553 B(  9-C , 11-H ) :   0.9522
B(  9-C , 12-C ) :   1.0827 B( 12-C , 13-H ) :   0.9722 B( 12-C , 14-H ) :   0.9748
B( 12-C , 15-H ) :   0.9738 B( 16-S , 17-C ) :   1.1448 B( 16-S , 20-C ) :   1.1686
B( 17-C , 18-C ) :   1.6387 B( 17-C , 33-H ) :   0.9626 B( 18-C , 19-C ) :   1.2411
B( 18-C , 21-H ) :   0.9878 B( 19-C , 20-C ) :   1.5639 B( 19-C , 22-C ) :   1.0535
B( 22-C , 23-H ) :   0.9193 B( 22-C , 24-H ) :   0.9302 B( 22-C , 25-C ) :   1.0882
B( 25-C , 26-H ) :   0.9549 B( 25-C , 27-H ) :   0.9506 B( 25-C , 28-C ) :   1.0702
B( 28-C , 29-H ) :   0.9739 B( 28-C , 30-H ) :   0.9779 B( 28-C , 31-H ) :   0.9763

Dispersion correction           -0.014218127
FINAL SINGLE POINT ENERGY     -1339.864049716858

DIPOLE MOMENT
-------------
                                X             Y             Z
Electronic contribution:    -10.84961      14.38531     -11.87914
Nuclear contribution   :     11.34897     -14.57861      11.84119
                        -----------------------------------------
Total Dipole Moment    :      0.49935      -0.19329      -0.03796
                        -----------------------------------------
Magnitude (a.u.)       :      0.53680
Magnitude (Debye)      :      1.36445

Rotational constants in cm-1:     0.020023     0.007868     0.006431
Rotational constants in MHz :   600.267234   235.871316   192.800434

                             ****ORCA TERMINATED NORMALLY****
TOTAL RUN TIME: 0 days 0 hours 0 minutes 21 seconds 95 msec
