                         Program Version 4.2.1 -  RELEASE  -
|  1> ! wB97X-D3 SP def2-SVP
|  2> %pal
|  3> nprocs 24
|  4> end
|  5>
|  6> * xyz 0 1
|  7> S 	 -41.5765 	 -52.6223 	 -71.8375
|  8> C 	 -39.8296 	 -52.4543 	 -71.6366
|  9> C 	 -39.2611 	 -53.4238 	 -72.4855
| 10> C 	 -40.2003 	 -54.084 	 -73.3818
| 11> C 	 -41.4472 	 -53.5697 	 -73.2928
| 12> H 	 -39.9233 	 -54.6748 	 -74.2613
| 13> C 	 -37.7815 	 -53.7583 	 -72.4735
| 14> H 	 -37.1326 	 -52.9227 	 -72.1693
| 15> H 	 -37.5747 	 -53.9045 	 -73.5934
| 16> C 	 -37.3876 	 -55.0628 	 -71.7531
| 17> H 	 -37.8974 	 -55.9372 	 -72.1724
| 18> H 	 -36.3429 	 -55.2915 	 -71.8298
| 19> C 	 -37.64 	 -55.0939 	 -70.2312
| 20> H 	 -37.3069 	 -56.013 	 -69.68
| 21> H 	 -37.0818 	 -54.3612 	 -69.6744
| 22> H 	 -38.7034 	 -54.794 	 -70.0598
| 23> S 	 -43.3184 	 -52.3668 	 -74.7696
| 24> C 	 -44.5335 	 -53.3625 	 -75.5757
| 25> C 	 -44.3276 	 -54.7091 	 -75.3974
| 26> C 	 -43.1233 	 -54.9893 	 -74.6441
| 27> C 	 -42.4933 	 -53.8015 	 -74.2199
| 28> H 	 -44.9795 	 -55.3865 	 -75.9269
| 29> C 	 -42.7161 	 -56.3964 	 -74.3755
| 30> H 	 -41.7362 	 -56.5295 	 -74.7688
| 31> H 	 -43.271 	 -57.1599 	 -74.9452
| 32> C 	 -42.7158 	 -56.8417 	 -72.8985
| 33> H 	 -43.6835 	 -56.6729 	 -72.4062
| 34> H 	 -42.061 	 -56.2291 	 -72.3189
| 35> C 	 -42.3599 	 -58.3281 	 -72.5793
| 36> H 	 -42.7162 	 -58.5354 	 -71.5406
| 37> H 	 -41.2626 	 -58.4232 	 -72.4347
| 38> H 	 -42.8926 	 -59.0533 	 -73.2121
| 39> H 	 -39.333 	 -51.982 	 -70.7795
| 40> H 	 -45.2347 	 -52.9889 	 -76.3528
| 41> *
| 42>
| 43>                          ****END OF INPUT****

CARTESIAN COORDINATES (ANGSTROEM)
---------------------------------
  S    -41.576500  -52.622300  -71.837500
  C    -39.829600  -52.454300  -71.636600
  C    -39.261100  -53.423800  -72.485500
  C    -40.200300  -54.084000  -73.381800
  C    -41.447200  -53.569700  -73.292800
  H    -39.923300  -54.674800  -74.261300
  C    -37.781500  -53.758300  -72.473500
  H    -37.132600  -52.922700  -72.169300
  H    -37.574700  -53.904500  -73.593400
  C    -37.387600  -55.062800  -71.753100
  H    -37.897400  -55.937200  -72.172400
  H    -36.342900  -55.291500  -71.829800
  C    -37.640000  -55.093900  -70.231200
  H    -37.306900  -56.013000  -69.680000
  H    -37.081800  -54.361200  -69.674400
  H    -38.703400  -54.794000  -70.059800
  S    -43.318400  -52.366800  -74.769600
  C    -44.533500  -53.362500  -75.575700
  C    -44.327600  -54.709100  -75.397400
  C    -43.123300  -54.989300  -74.644100
  C    -42.493300  -53.801500  -74.219900
  H    -44.979500  -55.386500  -75.926900
  C    -42.716100  -56.396400  -74.375500
  H    -41.736200  -56.529500  -74.768800
  H    -43.271000  -57.159900  -74.945200
  C    -42.715800  -56.841700  -72.898500
  H    -43.683500  -56.672900  -72.406200
  H    -42.061000  -56.229100  -72.318900
  C    -42.359900  -58.328100  -72.579300
  H    -42.716200  -58.535400  -71.540600
  H    -41.262600  -58.423200  -72.434700
  H    -42.892600  -59.053300  -73.212100
  H    -39.333000  -51.982000  -70.779500
  H    -45.234700  -52.988900  -76.352800

 Total Charge           Charge          ....    0
 Multiplicity           Mult            ....    1
 Number of Electrons    NEL             ....  134
 Basis Dimension        Dim             ....  322

ORBITAL ENERGIES
----------------

  NO   OCC          E(Eh)            E(eV)
   0   2.0000     -88.968614     -2420.9591
   1   2.0000     -88.962650     -2420.7968
   2   2.0000     -10.327436      -281.0238
   3   2.0000     -10.326198      -280.9901
   4   2.0000     -10.320602      -280.8379
   5   2.0000     -10.319316      -280.8029
   6   2.0000     -10.311852      -280.5998
   7   2.0000     -10.309155      -280.5264
   8   2.0000     -10.300010      -280.2775
   9   2.0000     -10.296757      -280.1890
  10   2.0000     -10.293882      -280.1108
  11   2.0000     -10.290987      -280.0320
  12   2.0000     -10.287429      -279.9352
  13   2.0000     -10.284125      -279.8453
  14   2.0000     -10.281908      -279.7849
  15   2.0000     -10.278066      -279.6804
  16   2.0000      -8.083169      -219.9542
  17   2.0000      -8.077441      -219.7984
  18   2.0000      -6.041690      -164.4027
  19   2.0000      -6.037631      -164.2923
  20   2.0000      -6.036042      -164.2491
  21   2.0000      -6.033978      -164.1929
  22   2.0000      -6.032038      -164.1401
  23   2.0000      -6.027946      -164.0287
  24   2.0000      -1.010954       -27.5095
  25   2.0000      -0.982725       -26.7413
  26   2.0000      -0.908103       -24.7107
  27   2.0000      -0.906146       -24.6575
  28   2.0000      -0.873879       -23.7795
  29   2.0000      -0.850221       -23.1357
  30   2.0000      -0.841655       -22.9026
  31   2.0000      -0.817685       -22.2504
  32   2.0000      -0.781257       -21.2591
  33   2.0000      -0.769467       -20.9383
  34   2.0000      -0.710895       -19.3444
  35   2.0000      -0.697339       -18.9756
  36   2.0000      -0.690835       -18.7986
  37   2.0000      -0.662052       -18.0153
  38   2.0000      -0.638967       -17.3872
  39   2.0000      -0.620038       -16.8721
  40   2.0000      -0.596983       -16.2447
  41   2.0000      -0.569380       -15.4936
  42   2.0000      -0.562470       -15.3056
  43   2.0000      -0.547978       -14.9112
  44   2.0000      -0.534342       -14.5402
  45   2.0000      -0.524189       -14.2639
  46   2.0000      -0.517685       -14.0869
  47   2.0000      -0.510835       -13.9005
  48   2.0000      -0.507320       -13.8049
  49   2.0000      -0.499752       -13.5989
  50   2.0000      -0.489531       -13.3208
  51   2.0000      -0.481407       -13.0998
  52   2.0000      -0.472762       -12.8645
  53   2.0000      -0.465161       -12.6577
  54   2.0000      -0.454073       -12.3559
  55   2.0000      -0.448152       -12.1948
  56   2.0000      -0.443556       -12.0698
  57   2.0000      -0.431953       -11.7540
  58   2.0000      -0.430389       -11.7115
  59   2.0000      -0.426215       -11.5979
  60   2.0000      -0.419688       -11.4203
  61   2.0000      -0.409449       -11.1417
  62   2.0000      -0.404154       -10.9976
  63   2.0000      -0.352051        -9.5798
  64   2.0000      -0.334025        -9.0893
  65   2.0000      -0.322518        -8.7762
  66   2.0000      -0.292769        -7.9667
  67   0.0000       0.023912         0.6507
  68   0.0000       0.064956         1.7675
  69   0.0000       0.107660         2.9296
  70   0.0000       0.114123         3.1054
  71   0.0000       0.128182         3.4880

MULLIKEN ATOMIC CHARGES
-----------------------
   0 S :    0.103046
   1 C :   -0.114528
   2 C :   -0.117294
   3 C :    0.034772
   4 C :   -0.138884
   5 H :    0.026075
   6 C :    0.026028
   7 H :    0.034355
   8 H :    0.038014
   9 C :   -0.037337
  10 H :    0.027162
  11 H :    0.024516
  12 C :   -0.087098
  13 H :    0.042462
  14 H :    0.010568
  15 H :    0.042202
  16 S :    0.120481
  17 C :   -0.107725
  18 C :   -0.035751
  19 C :   -0.010794
  20 C :   -0.185587
  21 H :    0.021306
  22 C :    0.110587
  23 H :    0.014451
  24 H :    0.011552
  25 C :   -0.095947
  26 H :    0.027202
  27 H :    0.029330
  28 C :   -0.062923
  29 H :    0.029307
  30 H :    0.040109
  31 H :    0.040566
  32 H :    0.067807
  33 H :    0.071969
Sum of atomic charges:    0.0000000

LOEWDIN ATOMIC CHARGES
----------------------
   0 S :    0.393301
   1 C :   -0.203372
   2 C :   -0.059366
   3 C :   -0.072489
   4 C :   -0.193728
   5 H :    0.035381
   6 C :   -0.039294
   7 H :    0.032199
   8 H :    0.040638
   9 C :   -0.041502
  10 H :    0.024983
  11 H :    0.022328
  12 C :   -0.079886
  13 H :    0.033041
  14 H :    0.016083
  15 H :    0.028091
  16 S :    0.413996
  17 C :   -0.186435
  18 C :   -0.068178
  19 C :   -0.041830
  20 C :   -0.202555
  21 H :    0.033259
  22 C :   -0.036086
  23 H :    0.028055
  24 H :    0.032174
  25 C :   -0.042268
  26 H :    0.024907
  27 H :    0.020395
  28 C :   -0.073061
  29 H :    0.032222
  30 H :    0.029091
  31 H :    0.025187
  32 H :    0.036712
  33 H :    0.038009

  Mayer bond orders larger than 0.100000
B(  0-S ,  1-C ) :   1.1069 B(  0-S ,  4-C ) :   1.1476 B(  1-C ,  2-C ) :   1.6057
B(  1-C , 32-H ) :   0.9707 B(  2-C ,  3-C ) :   1.2191 B(  2-C ,  6-C ) :   1.0294
B(  3-C ,  4-C ) :   1.5800 B(  3-C ,  5-H ) :   0.9874 B(  4-C , 20-C ) :   1.0782
B(  6-C ,  7-H ) :   0.9503 B(  6-C ,  8-H ) :   0.9401 B(  6-C ,  9-C ) :   1.0679
B(  9-C , 10-H ) :   0.9558 B(  9-C , 11-H ) :   0.9559 B(  9-C , 12-C ) :   1.0704
B( 12-C , 13-H ) :   0.9739 B( 12-C , 14-H ) :   0.9731 B( 12-C , 15-H ) :   0.9753
B( 16-S , 17-C ) :   1.1507 B( 16-S , 20-C ) :   1.1451 B( 17-C , 18-C ) :   1.6255
B( 17-C , 33-H ) :   0.9578 B( 18-C , 19-C ) :   1.2414 B( 18-C , 21-H ) :   0.9878
B( 19-C , 20-C ) :   1.5621 B( 19-C , 22-C ) :   1.0522 B( 22-C , 23-H ) :   0.9233
B( 22-C , 24-H ) :   0.9315 B( 22-C , 25-C ) :   1.0522 B( 25-C , 26-H ) :   0.9610
B( 25-C , 27-H ) :   0.9536 B( 25-C , 28-C ) :   1.0869 B( 28-C , 29-H ) :   0.9739
B( 28-C , 30-H ) :   0.9766 B( 28-C , 31-H ) :   0.9742

Dispersion correction           -0.014891436
FINAL SINGLE POINT ENERGY     -1339.869115174600

DIPOLE MOMENT
-------------
                                X             Y             Z
Electronic contribution:    -15.22889      23.18696      -8.98453
Nuclear contribution   :     15.50550     -23.72339       8.81558
                        -----------------------------------------
Total Dipole Moment    :      0.27661      -0.53644      -0.16895
                        -----------------------------------------
Magnitude (a.u.)       :      0.62675
Magnitude (Debye)      :      1.59308

Rotational constants in cm-1:     0.019010     0.009391     0.007114
Rotational constants in MHz :   569.914742   281.544782   213.269163

                             ****ORCA TERMINATED NORMALLY****
TOTAL RUN TIME: 0 days 0 hours 0 minutes 21 seconds 985 msec
