                         Program Version 4.2.1 -  RELEASE  -
|  1> ! wB97X-D3 SP def2-SVP
|  2> %pal
|  3> nprocs 24
|  4> end
|  5>
|  6> * xyz 0 1
|  7> S 	 -54.0082 	 11.3008 	 -100.391
|  8> C 	 -52.2986 	 11.0185 	 -100.49
|  9> C 	 -51.5334 	 12.0143 	 -99.9253
| 10> C 	 -52.3513 	 13.0205 	 -99.3383
| 11> C 	 -53.6965 	 12.7619 	 -99.4548
| 12> H 	 -52.0414 	 13.8777 	 -98.7957
| 13> C 	 -50.064 	 12.0849 	 -99.938
| 14> H 	 -49.7124 	 13.0916 	 -99.9491
| 15> H 	 -49.6352 	 11.642 	 -100.849
| 16> C 	 -49.33 	 11.4774 	 -98.7036
| 17> H 	 -49.5683 	 10.4034 	 -98.5409
| 18> H 	 -48.2644 	 11.5334 	 -98.9003
| 19> C 	 -49.7167 	 12.2391 	 -97.3843
| 20> H 	 -50.7476 	 12.1842 	 -97.1588
| 21> H 	 -48.95 	 12.0407 	 -96.5528
| 22> H 	 -49.6026 	 13.3207 	 -97.5114
| 23> S 	 -55.0154 	 13.6311 	 -97.2939
| 24> C 	 -56.5984 	 14.342 	 -97.409
| 25> C 	 -56.9338 	 14.478 	 -98.7196
| 26> C 	 -55.9383 	 13.9908 	 -99.6253
| 27> C 	 -54.7785 	 13.5401 	 -99.0268
| 28> H 	 -57.9824 	 14.8373 	 -98.8911
| 29> C 	 -56.2467 	 13.8518 	 -101.094
| 30> H 	 -55.3486 	 13.8383 	 -101.716
| 31> H 	 -56.6951 	 14.8203 	 -101.355
| 32> C 	 -57.0494 	 12.5847 	 -101.499
| 33> H 	 -57.9317 	 12.6262 	 -100.923
| 34> H 	 -56.5577 	 11.5698 	 -101.273
| 35> C 	 -57.5161 	 12.6592 	 -102.896
| 36> H 	 -56.6447 	 12.7459 	 -103.57
| 37> H 	 -58.041 	 13.563 	 -103.005
| 38> H 	 -58.1556 	 11.8644 	 -103.227
| 39> H 	 -51.7815 	 10.2355 	 -101.077
| 40> H 	 -57.3335 	 14.4632 	 -96.613
| 41> *
| 42>
| 43>                          ****END OF INPUT****

CARTESIAN COORDINATES (ANGSTROEM)
---------------------------------
  S    -54.008200   11.300800  -100.391000
  C    -52.298600   11.018500  -100.490000
  C    -51.533400   12.014300  -99.925300
  C    -52.351300   13.020500  -99.338300
  C    -53.696500   12.761900  -99.454800
  H    -52.041400   13.877700  -98.795700
  C    -50.064000   12.084900  -99.938000
  H    -49.712400   13.091600  -99.949100
  H    -49.635200   11.642000  -100.849000
  C    -49.330000   11.477400  -98.703600
  H    -49.568300   10.403400  -98.540900
  H    -48.264400   11.533400  -98.900300
  C    -49.716700   12.239100  -97.384300
  H    -50.747600   12.184200  -97.158800
  H    -48.950000   12.040700  -96.552800
  H    -49.602600   13.320700  -97.511400
  S    -55.015400   13.631100  -97.293900
  C    -56.598400   14.342000  -97.409000
  C    -56.933800   14.478000  -98.719600
  C    -55.938300   13.990800  -99.625300
  C    -54.778500   13.540100  -99.026800
  H    -57.982400   14.837300  -98.891100
  C    -56.246700   13.851800  -101.094000
  H    -55.348600   13.838300  -101.716000
  H    -56.695100   14.820300  -101.355000
  C    -57.049400   12.584700  -101.499000
  H    -57.931700   12.626200  -100.923000
  H    -56.557700   11.569800  -101.273000
  C    -57.516100   12.659200  -102.896000
  H    -56.644700   12.745900  -103.570000
  H    -58.041000   13.563000  -103.005000
  H    -58.155600   11.864400  -103.227000
  H    -51.781500   10.235500  -101.077000
  H    -57.333500   14.463200  -96.613000

 Total Charge           Charge          ....    0
 Multiplicity           Mult            ....    1
 Number of Electrons    NEL             ....  134
 Basis Dimension        Dim             ....  322

ORBITAL ENERGIES
----------------

  NO   OCC          E(Eh)            E(eV)
   0   2.0000     -88.969914     -2420.9944
   1   2.0000     -88.960300     -2420.7328
   2   2.0000     -10.325391      -280.9682
   3   2.0000     -10.320029      -280.8223
   4   2.0000     -10.315238      -280.6919
   5   2.0000     -10.313203      -280.6365
   6   2.0000     -10.303130      -280.3624
   7   2.0000     -10.297349      -280.2051
   8   2.0000     -10.294939      -280.1395
   9   2.0000     -10.292017      -280.0600
  10   2.0000     -10.291137      -280.0361
  11   2.0000     -10.289330      -279.9869
  12   2.0000     -10.288612      -279.9674
  13   2.0000     -10.281722      -279.7799
  14   2.0000     -10.279516      -279.7199
  15   2.0000     -10.266232      -279.3584
  16   2.0000      -8.084086      -219.9792
  17   2.0000      -8.075545      -219.7467
  18   2.0000      -6.042551      -164.4262
  19   2.0000      -6.038758      -164.3230
  20   2.0000      -6.034830      -164.2161
  21   2.0000      -6.034073      -164.1955
  22   2.0000      -6.029875      -164.0812
  23   2.0000      -6.026323      -163.9846
  24   2.0000      -1.013417       -27.5765
  25   2.0000      -0.987785       -26.8790
  26   2.0000      -0.913681       -24.8625
  27   2.0000      -0.911448       -24.8018
  28   2.0000      -0.876380       -23.8475
  29   2.0000      -0.853995       -23.2384
  30   2.0000      -0.846049       -23.0222
  31   2.0000      -0.817493       -22.2451
  32   2.0000      -0.782825       -21.3018
  33   2.0000      -0.768332       -20.9074
  34   2.0000      -0.709531       -19.3073
  35   2.0000      -0.703805       -19.1515
  36   2.0000      -0.694708       -18.9040
  37   2.0000      -0.661692       -18.0055
  38   2.0000      -0.640846       -17.4383
  39   2.0000      -0.617234       -16.7958
  40   2.0000      -0.597558       -16.2604
  41   2.0000      -0.577060       -15.7026
  42   2.0000      -0.563504       -15.3337
  43   2.0000      -0.546558       -14.8726
  44   2.0000      -0.540256       -14.7011
  45   2.0000      -0.529401       -14.4057
  46   2.0000      -0.517868       -14.0919
  47   2.0000      -0.516337       -14.0502
  48   2.0000      -0.504488       -13.7278
  49   2.0000      -0.500501       -13.6193
  50   2.0000      -0.493685       -13.4338
  51   2.0000      -0.475235       -12.9318
  52   2.0000      -0.472337       -12.8529
  53   2.0000      -0.463698       -12.6179
  54   2.0000      -0.458902       -12.4873
  55   2.0000      -0.446891       -12.1605
  56   2.0000      -0.445524       -12.1233
  57   2.0000      -0.438425       -11.9301
  58   2.0000      -0.429420       -11.6851
  59   2.0000      -0.423806       -11.5324
  60   2.0000      -0.420304       -11.4370
  61   2.0000      -0.413712       -11.2577
  62   2.0000      -0.405442       -11.0326
  63   2.0000      -0.346984        -9.4419
  64   2.0000      -0.334835        -9.1113
  65   2.0000      -0.324816        -8.8387
  66   2.0000      -0.296075        -8.0566
  67   0.0000       0.032530         0.8852
  68   0.0000       0.064133         1.7452
  69   0.0000       0.106634         2.9017
  70   0.0000       0.118062         3.2126
  71   0.0000       0.136341         3.7100

MULLIKEN ATOMIC CHARGES
-----------------------
   0 S :    0.120740
   1 C :   -0.109124
   2 C :   -0.069874
   3 C :    0.035153
   4 C :   -0.150224
   5 H :   -0.000418
   6 C :    0.061415
   7 H :    0.015881
   8 H :    0.022997
   9 C :   -0.066025
  10 H :    0.037139
  11 H :    0.031368
  12 C :   -0.080450
  13 H :    0.047047
  14 H :    0.050667
  15 H :    0.010896
  16 S :    0.093257
  17 C :   -0.093212
  18 C :   -0.062357
  19 C :   -0.035156
  20 C :   -0.134185
  21 H :    0.037596
  22 C :    0.019837
  23 H :    0.021140
  24 H :    0.027305
  25 C :   -0.057571
  26 H :    0.006219
  27 H :    0.050639
  28 C :   -0.005051
  29 H :    0.020622
  30 H :    0.007215
  31 H :    0.033333
  32 H :    0.049861
  33 H :    0.063321
Sum of atomic charges:    0.0000000

LOEWDIN ATOMIC CHARGES
----------------------
   0 S :    0.428837
   1 C :   -0.202800
   2 C :   -0.066963
   3 C :   -0.049696
   4 C :   -0.191042
   5 H :    0.027952
   6 C :   -0.034567
   7 H :    0.027996
   8 H :    0.032115
   9 C :   -0.033776
  10 H :    0.025222
  11 H :    0.022386
  12 C :   -0.075867
  13 H :    0.021571
  14 H :    0.038727
  15 H :    0.019589
  16 S :    0.408870
  17 C :   -0.189455
  18 C :   -0.083347
  19 C :   -0.058327
  20 C :   -0.204723
  21 H :    0.041906
  22 C :   -0.037977
  23 H :    0.026107
  24 H :    0.034745
  25 C :   -0.045565
  26 H :    0.015155
  27 H :    0.023935
  28 C :   -0.060207
  29 H :    0.025104
  30 H :    0.018098
  31 H :    0.024884
  32 H :    0.034505
  33 H :    0.036610

  Mayer bond orders larger than 0.100000
B(  0-S ,  1-C ) :   1.1370 B(  0-S ,  4-C ) :   1.1322 B(  1-C ,  2-C ) :   1.6302
B(  1-C , 32-H ) :   0.9566 B(  2-C ,  3-C ) :   1.2207 B(  2-C ,  6-C ) :   1.0412
B(  3-C ,  4-C ) :   1.5755 B(  3-C ,  5-H ) :   1.0024 B(  4-C , 20-C ) :   1.0620
B(  6-C ,  7-H ) :   0.9393 B(  6-C ,  8-H ) :   0.9351 B(  6-C ,  9-C ) :   1.0703
B(  9-C , 10-H ) :   0.9578 B(  9-C , 11-H ) :   0.9579 B(  9-C , 12-C ) :   1.0682
B( 12-C , 13-H ) :   0.9737 B( 12-C , 14-H ) :   0.9729 B( 12-C , 15-H ) :   0.9725
B( 16-S , 17-C ) :   1.1603 B( 16-S , 20-C ) :   1.1311 B( 17-C , 18-C ) :   1.6231
B( 17-C , 33-H ) :   0.9627 B( 18-C , 19-C ) :   1.2252 B( 18-C , 21-H ) :   0.9849
B( 19-C , 20-C ) :   1.5890 B( 19-C , 22-C ) :   1.0554 B( 22-C , 23-H ) :   0.9325
B( 22-C , 24-H ) :   0.9360 B( 22-C , 25-C ) :   1.0551 B( 25-C , 26-H ) :   0.9498
B( 25-C , 27-H ) :   0.9443 B( 25-C , 28-C ) :   1.0959 B( 28-C , 29-H ) :   0.9701
B( 28-C , 30-H ) :   0.9699 B( 28-C , 31-H ) :   0.9709

Dispersion correction           -0.014864625
FINAL SINGLE POINT ENERGY     -1339.876409030476

DIPOLE MOMENT
-------------
                                X             Y             Z
Electronic contribution:     -6.77027       0.82023       8.35251
Nuclear contribution   :      6.76093      -0.75460      -8.60426
                        -----------------------------------------
Total Dipole Moment    :     -0.00934       0.06563      -0.25175
                        -----------------------------------------
Magnitude (a.u.)       :      0.26033
Magnitude (Debye)      :      0.66172

Rotational constants in cm-1:     0.021861     0.008859     0.006735
Rotational constants in MHz :   655.387496   265.588306   201.902263

                             ****ORCA TERMINATED NORMALLY****
TOTAL RUN TIME: 0 days 0 hours 0 minutes 20 seconds 767 msec
