                         Program Version 4.2.1 -  RELEASE  -
|  1> ! wB97X-D3 SP def2-SVP
|  2> %pal
|  3> nprocs 24
|  4> end
|  5>
|  6> * xyz 0 1
|  7> S 	 -133.54 	 5.49869 	 7.69996
|  8> C 	 -132.139 	 6.39854 	 7.11812
|  9> C 	 -130.982 	 5.67835 	 7.30544
| 10> C 	 -131.116 	 4.54414 	 8.13553
| 11> C 	 -132.461 	 4.20088 	 8.28178
| 12> H 	 -130.309 	 3.95423 	 8.51696
| 13> C 	 -129.586 	 6.14576 	 6.81418
| 14> H 	 -128.958 	 6.32568 	 7.74601
| 15> H 	 -129.706 	 7.09476 	 6.30362
| 16> C 	 -128.962 	 5.13819 	 5.78704
| 17> H 	 -128.726 	 4.27252 	 6.39194
| 18> H 	 -129.707 	 5.01232 	 4.98988
| 19> C 	 -127.663 	 5.58074 	 5.13904
| 20> H 	 -127.7 	 6.43656 	 4.49794
| 21> H 	 -126.938 	 6.03594 	 5.80176
| 22> H 	 -127.188 	 4.74362 	 4.62005
| 23> S 	 -133.581 	 3.27158 	 10.5931
| 24> C 	 -134.369 	 1.61209 	 10.5556
| 25> C 	 -134.327 	 1.07703 	 9.2701
| 26> C 	 -133.668 	 1.99507 	 8.37957
| 27> C 	 -133.056 	 3.1267 	 8.96138
| 28> H 	 -134.716 	 0.0988744 	 9.08022
| 29> C 	 -133.489 	 1.64764 	 6.89252
| 30> H 	 -133.206 	 2.50074 	 6.3137
| 31> H 	 -134.509 	 1.29116 	 6.58141
| 32> C 	 -132.47 	 0.653792 	 6.59807
| 33> H 	 -132.411 	 0.395222 	 5.57081
| 34> H 	 -132.714 	 -0.214794 	 7.13775
| 35> C 	 -131.088 	 1.1842 	 6.95518
| 36> H 	 -130.804 	 2.06737 	 6.23006
| 37> H 	 -130.335 	 0.456862 	 6.7338
| 38> H 	 -131.128 	 1.40722 	 8.03474
| 39> H 	 -132.236 	 7.40244 	 6.75334
| 40> H 	 -134.899 	 1.11414 	 11.3844
| 41> *
| 42>
| 43>                          ****END OF INPUT****

CARTESIAN COORDINATES (ANGSTROEM)
---------------------------------
  S    -133.540000    5.498690    7.699960
  C    -132.139000    6.398540    7.118120
  C    -130.982000    5.678350    7.305440
  C    -131.116000    4.544140    8.135530
  C    -132.461000    4.200880    8.281780
  H    -130.309000    3.954230    8.516960
  C    -129.586000    6.145760    6.814180
  H    -128.958000    6.325680    7.746010
  H    -129.706000    7.094760    6.303620
  C    -128.962000    5.138190    5.787040
  H    -128.726000    4.272520    6.391940
  H    -129.707000    5.012320    4.989880
  C    -127.663000    5.580740    5.139040
  H    -127.700000    6.436560    4.497940
  H    -126.938000    6.035940    5.801760
  H    -127.188000    4.743620    4.620050
  S    -133.581000    3.271580   10.593100
  C    -134.369000    1.612090   10.555600
  C    -134.327000    1.077030    9.270100
  C    -133.668000    1.995070    8.379570
  C    -133.056000    3.126700    8.961380
  H    -134.716000    0.098874    9.080220
  C    -133.489000    1.647640    6.892520
  H    -133.206000    2.500740    6.313700
  H    -134.509000    1.291160    6.581410
  C    -132.470000    0.653792    6.598070
  H    -132.411000    0.395222    5.570810
  H    -132.714000   -0.214794    7.137750
  C    -131.088000    1.184200    6.955180
  H    -130.804000    2.067370    6.230060
  H    -130.335000    0.456862    6.733800
  H    -131.128000    1.407220    8.034740
  H    -132.236000    7.402440    6.753340
  H    -134.899000    1.114140   11.384400

 Total Charge           Charge          ....    0
 Multiplicity           Mult            ....    1
 Number of Electrons    NEL             ....  134
 Basis Dimension        Dim             ....  322

ORBITAL ENERGIES
----------------

  NO   OCC          E(Eh)            E(eV)
   0   2.0000     -88.966111     -2420.8910
   1   2.0000     -88.963964     -2420.8325
   2   2.0000     -10.328285      -281.0469
   3   2.0000     -10.327695      -281.0309
   4   2.0000     -10.319683      -280.8128
   5   2.0000     -10.313898      -280.6554
   6   2.0000     -10.304981      -280.4128
   7   2.0000     -10.300538      -280.2919
   8   2.0000     -10.299830      -280.2726
   9   2.0000     -10.298187      -280.2279
  10   2.0000     -10.296803      -280.1903
  11   2.0000     -10.290596      -280.0213
  12   2.0000     -10.279730      -279.7257
  13   2.0000     -10.275236      -279.6034
  14   2.0000     -10.274407      -279.5808
  15   2.0000     -10.266611      -279.3687
  16   2.0000      -8.079925      -219.8659
  17   2.0000      -8.078131      -219.8171
  18   2.0000      -6.038570      -164.3178
  19   2.0000      -6.036610      -164.2645
  20   2.0000      -6.034542      -164.2082
  21   2.0000      -6.032756      -164.1596
  22   2.0000      -6.030585      -164.1006
  23   2.0000      -6.028903      -164.0548
  24   2.0000      -1.004744       -27.3405
  25   2.0000      -0.977488       -26.5988
  26   2.0000      -0.917793       -24.9744
  27   2.0000      -0.906159       -24.6578
  28   2.0000      -0.874608       -23.7993
  29   2.0000      -0.848769       -23.0962
  30   2.0000      -0.838622       -22.8201
  31   2.0000      -0.815136       -22.1810
  32   2.0000      -0.779977       -21.2242
  33   2.0000      -0.765019       -20.8172
  34   2.0000      -0.711604       -19.3637
  35   2.0000      -0.694539       -18.8994
  36   2.0000      -0.687825       -18.7167
  37   2.0000      -0.658227       -17.9113
  38   2.0000      -0.645294       -17.5593
  39   2.0000      -0.620559       -16.8863
  40   2.0000      -0.596962       -16.2442
  41   2.0000      -0.569424       -15.4948
  42   2.0000      -0.567104       -15.4317
  43   2.0000      -0.555229       -15.1085
  44   2.0000      -0.546568       -14.8729
  45   2.0000      -0.527962       -14.3666
  46   2.0000      -0.514058       -13.9882
  47   2.0000      -0.513497       -13.9730
  48   2.0000      -0.509919       -13.8756
  49   2.0000      -0.497533       -13.5386
  50   2.0000      -0.482027       -13.1166
  51   2.0000      -0.474343       -12.9075
  52   2.0000      -0.471694       -12.8355
  53   2.0000      -0.463373       -12.6090
  54   2.0000      -0.452231       -12.3058
  55   2.0000      -0.449671       -12.2362
  56   2.0000      -0.440038       -11.9740
  57   2.0000      -0.435056       -11.8385
  58   2.0000      -0.426139       -11.5958
  59   2.0000      -0.425154       -11.5690
  60   2.0000      -0.416743       -11.3402
  61   2.0000      -0.415105       -11.2956
  62   2.0000      -0.400541       -10.8993
  63   2.0000      -0.340695        -9.2708
  64   2.0000      -0.331638        -9.0243
  65   2.0000      -0.311342        -8.4721
  66   2.0000      -0.306500        -8.3403
  67   0.0000       0.040536         1.1030
  68   0.0000       0.043139         1.1739
  69   0.0000       0.111041         3.0216
  70   0.0000       0.116100         3.1592
  71   0.0000       0.123462         3.3596

MULLIKEN ATOMIC CHARGES
-----------------------
   0 S :    0.113914
   1 C :   -0.128287
   2 C :   -0.087778
   3 C :    0.067270
   4 C :   -0.187348
   5 H :    0.018023
   6 C :    0.034502
   7 H :    0.048240
   8 H :    0.009190
   9 C :   -0.068732
  10 H :    0.036270
  11 H :    0.044654
  12 C :   -0.030519
  13 H :    0.014333
  14 H :    0.011422
  15 H :    0.042759
  16 S :    0.108304
  17 C :   -0.113763
  18 C :   -0.009647
  19 C :   -0.082804
  20 C :   -0.141854
  21 H :    0.023292
  22 C :    0.084718
  23 H :    0.012234
  24 H :    0.027280
  25 C :   -0.006178
  26 H :    0.016826
  27 H :    0.000920
  28 C :   -0.096096
  29 H :    0.045571
  30 H :    0.023628
  31 H :    0.052026
  32 H :    0.048720
  33 H :    0.068911
Sum of atomic charges:    0.0000000

LOEWDIN ATOMIC CHARGES
----------------------
   0 S :    0.390433
   1 C :   -0.188492
   2 C :   -0.067383
   3 C :   -0.040726
   4 C :   -0.182891
   5 H :    0.032606
   6 C :   -0.032329
   7 H :    0.036735
   8 H :    0.021248
   9 C :   -0.037660
  10 H :    0.024705
  11 H :    0.031983
  12 C :   -0.074738
  13 H :    0.021303
  14 H :    0.024636
  15 H :    0.031108
  16 S :    0.392588
  17 C :   -0.162276
  18 C :   -0.066718
  19 C :   -0.046961
  20 C :   -0.233089
  21 H :    0.033016
  22 C :   -0.031795
  23 H :    0.023173
  24 H :    0.033500
  25 C :   -0.039716
  26 H :    0.020977
  27 H :    0.012878
  28 C :   -0.068700
  29 H :    0.036671
  30 H :    0.017325
  31 H :    0.027634
  32 H :    0.025230
  33 H :    0.035725

  Mayer bond orders larger than 0.100000
B(  0-S ,  1-C ) :   1.1352 B(  0-S ,  4-C ) :   1.1430 B(  1-C ,  2-C ) :   1.6190
B(  1-C ,  4-C ) :   0.1050 B(  1-C , 32-H ) :   0.9712 B(  2-C ,  3-C ) :   1.2304
B(  2-C ,  6-C ) :   1.0235 B(  3-C ,  4-C ) :   1.5788 B(  3-C ,  5-H ) :   0.9933
B(  4-C , 20-C ) :   1.0644 B(  6-C ,  7-H ) :   0.9422 B(  6-C ,  8-H ) :   0.9450
B(  6-C ,  9-C ) :   1.0572 B(  9-C , 10-H ) :   0.9552 B(  9-C , 11-H ) :   0.9555
B(  9-C , 12-C ) :   1.0905 B( 12-C , 13-H ) :   0.9698 B( 12-C , 14-H ) :   0.9669
B( 12-C , 15-H ) :   0.9745 B( 16-S , 17-C ) :   1.1477 B( 16-S , 20-C ) :   1.1347
B( 17-C , 18-C ) :   1.6115 B( 17-C , 20-C ) :   0.1025 B( 17-C , 33-H ) :   0.9631
B( 18-C , 19-C ) :   1.2324 B( 18-C , 21-H ) :   0.9927 B( 19-C , 20-C ) :   1.5693
B( 19-C , 22-C ) :   1.0522 B( 22-C , 23-H ) :   0.9249 B( 22-C , 24-H ) :   0.9298
B( 22-C , 25-C ) :   1.0896 B( 25-C , 26-H ) :   0.9470 B( 25-C , 27-H ) :   0.9472
B( 25-C , 28-C ) :   1.0852 B( 28-C , 29-H ) :   0.9671 B( 28-C , 30-H ) :   0.9694
B( 28-C , 31-H ) :   0.9714

Dispersion correction           -0.015844372
FINAL SINGLE POINT ENERGY     -1339.859409418649

DIPOLE MOMENT
-------------
                                X             Y             Z
Electronic contribution:    -21.60277       5.89977      18.53699
Nuclear contribution   :     21.94002      -6.11942     -18.87038
                        -----------------------------------------
Total Dipole Moment    :      0.33725      -0.21965      -0.33339
                        -----------------------------------------
Magnitude (a.u.)       :      0.52262
Magnitude (Debye)      :      1.32839

Rotational constants in cm-1:     0.021513     0.008858     0.007293
Rotational constants in MHz :   644.940613   265.566855   218.631975

                             ****ORCA TERMINATED NORMALLY****
TOTAL RUN TIME: 0 days 0 hours 0 minutes 22 seconds 829 msec
