                         Program Version 4.2.1 -  RELEASE  -
|  1> ! wB97X-D3 SP def2-SVP
|  2> %pal
|  3> nprocs 24
|  4> end
|  5>
|  6> * xyz 0 1
|  7> S 	 -60.5195 	 10.5191 	 -85.4667
|  8> C 	 -61.9674 	 9.69916 	 -86.0357
|  9> C 	 -63.1042 	 10.2782 	 -85.4429
| 10> C 	 -62.7666 	 11.2135 	 -84.3837
| 11> C 	 -61.3925 	 11.3805 	 -84.212
| 12> H 	 -63.5634 	 11.7155 	 -83.8822
| 13> C 	 -64.4926 	 9.95016 	 -85.9223
| 14> H 	 -65.1629 	 10.2338 	 -85.0634
| 15> H 	 -64.6323 	 8.89943 	 -86.1372
| 16> C 	 -64.8294 	 10.7407 	 -87.1908
| 17> H 	 -64.161 	 10.6558 	 -88.0752
| 18> H 	 -65.8465 	 10.3654 	 -87.527
| 19> C 	 -64.7895 	 12.209 	 -86.9411
| 20> H 	 -65.355 	 12.697 	 -87.692
| 21> H 	 -65.3029 	 12.359 	 -85.9797
| 22> H 	 -63.7428 	 12.6148 	 -86.7641
| 23> S 	 -60.5516 	 13.9514 	 -83.4297
| 24> C 	 -60.1554 	 14.1764 	 -81.7132
| 25> C 	 -60.0947 	 12.9263 	 -81.0741
| 26> C 	 -60.3871 	 11.7979 	 -81.9193
| 27> C 	 -60.7429 	 12.2072 	 -83.1515
| 28> H 	 -59.7961 	 12.8274 	 -80.0902
| 29> C 	 -60.3762 	 10.3625 	 -81.3911
| 30> H 	 -59.5447 	 10.1343 	 -80.6608
| 31> H 	 -60.0717 	 9.82331 	 -82.2374
| 32> C 	 -61.6323 	 9.64954 	 -80.9291
| 33> H 	 -61.3893 	 8.56172 	 -80.8903
| 34> H 	 -62.2162 	 9.81739 	 -81.8431
| 35> C 	 -62.3249 	 10.2047 	 -79.6857
| 36> H 	 -62.603 	 11.2462 	 -79.9899
| 37> H 	 -61.7178 	 10.2912 	 -78.7782
| 38> H 	 -63.3158 	 9.75373 	 -79.4968
| 39> H 	 -61.9967 	 8.86249 	 -86.6102
| 40> H 	 -59.8988 	 15.1637 	 -81.2875
| 41> *
| 42>
| 43>                          ****END OF INPUT****

CARTESIAN COORDINATES (ANGSTROEM)
---------------------------------
  S    -60.519500   10.519100  -85.466700
  C    -61.967400    9.699160  -86.035700
  C    -63.104200   10.278200  -85.442900
  C    -62.766600   11.213500  -84.383700
  C    -61.392500   11.380500  -84.212000
  H    -63.563400   11.715500  -83.882200
  C    -64.492600    9.950160  -85.922300
  H    -65.162900   10.233800  -85.063400
  H    -64.632300    8.899430  -86.137200
  C    -64.829400   10.740700  -87.190800
  H    -64.161000   10.655800  -88.075200
  H    -65.846500   10.365400  -87.527000
  C    -64.789500   12.209000  -86.941100
  H    -65.355000   12.697000  -87.692000
  H    -65.302900   12.359000  -85.979700
  H    -63.742800   12.614800  -86.764100
  S    -60.551600   13.951400  -83.429700
  C    -60.155400   14.176400  -81.713200
  C    -60.094700   12.926300  -81.074100
  C    -60.387100   11.797900  -81.919300
  C    -60.742900   12.207200  -83.151500
  H    -59.796100   12.827400  -80.090200
  C    -60.376200   10.362500  -81.391100
  H    -59.544700   10.134300  -80.660800
  H    -60.071700    9.823310  -82.237400
  C    -61.632300    9.649540  -80.929100
  H    -61.389300    8.561720  -80.890300
  H    -62.216200    9.817390  -81.843100
  C    -62.324900   10.204700  -79.685700
  H    -62.603000   11.246200  -79.989900
  H    -61.717800   10.291200  -78.778200
  H    -63.315800    9.753730  -79.496800
  H    -61.996700    8.862490  -86.610200
  H    -59.898800   15.163700  -81.287500

 Total Charge           Charge          ....    0
 Multiplicity           Mult            ....    1
 Number of Electrons    NEL             ....  134
 Basis Dimension        Dim             ....  322

ORBITAL ENERGIES
----------------

  NO   OCC          E(Eh)            E(eV)
   0   2.0000     -88.969144     -2420.9735
   1   2.0000     -88.966448     -2420.9001
   2   2.0000     -10.335815      -281.2518
   3   2.0000     -10.327634      -281.0292
   4   2.0000     -10.326466      -280.9974
   5   2.0000     -10.310496      -280.5629
   6   2.0000     -10.303674      -280.3772
   7   2.0000     -10.303175      -280.3636
   8   2.0000     -10.299718      -280.2696
   9   2.0000     -10.296021      -280.1690
  10   2.0000     -10.292743      -280.0798
  11   2.0000     -10.288639      -279.9681
  12   2.0000     -10.287462      -279.9361
  13   2.0000     -10.284931      -279.8672
  14   2.0000     -10.279609      -279.7224
  15   2.0000     -10.272643      -279.5328
  16   2.0000      -8.083199      -219.9550
  17   2.0000      -8.080520      -219.8821
  18   2.0000      -6.041722      -164.4036
  19   2.0000      -6.039076      -164.3316
  20   2.0000      -6.037655      -164.2929
  21   2.0000      -6.035229      -164.2269
  22   2.0000      -6.034136      -164.1972
  23   2.0000      -6.031156      -164.1161
  24   2.0000      -1.001986       -27.2654
  25   2.0000      -0.980638       -26.6845
  26   2.0000      -0.917572       -24.9684
  27   2.0000      -0.908101       -24.7107
  28   2.0000      -0.863936       -23.5089
  29   2.0000      -0.846804       -23.0427
  30   2.0000      -0.845590       -23.0097
  31   2.0000      -0.814425       -22.1616
  32   2.0000      -0.786214       -21.3940
  33   2.0000      -0.773436       -21.0463
  34   2.0000      -0.704967       -19.1831
  35   2.0000      -0.692915       -18.8552
  36   2.0000      -0.684192       -18.6178
  37   2.0000      -0.667267       -18.1573
  38   2.0000      -0.644865       -17.5477
  39   2.0000      -0.615249       -16.7418
  40   2.0000      -0.593208       -16.1420
  41   2.0000      -0.571630       -15.5548
  42   2.0000      -0.558352       -15.1935
  43   2.0000      -0.552279       -15.0283
  44   2.0000      -0.545533       -14.8447
  45   2.0000      -0.542278       -14.7561
  46   2.0000      -0.518893       -14.1198
  47   2.0000      -0.511781       -13.9263
  48   2.0000      -0.507459       -13.8087
  49   2.0000      -0.493740       -13.4353
  50   2.0000      -0.484521       -13.1845
  51   2.0000      -0.479167       -13.0388
  52   2.0000      -0.472457       -12.8562
  53   2.0000      -0.463342       -12.6082
  54   2.0000      -0.459661       -12.5080
  55   2.0000      -0.441193       -12.0055
  56   2.0000      -0.438807       -11.9406
  57   2.0000      -0.435251       -11.8438
  58   2.0000      -0.432953       -11.7812
  59   2.0000      -0.428195       -11.6518
  60   2.0000      -0.413520       -11.2525
  61   2.0000      -0.409227       -11.1356
  62   2.0000      -0.404139       -10.9972
  63   2.0000      -0.337039        -9.1713
  64   2.0000      -0.328060        -8.9270
  65   2.0000      -0.319743        -8.7006
  66   2.0000      -0.312586        -8.5059
  67   0.0000       0.038233         1.0404
  68   0.0000       0.049248         1.3401
  69   0.0000       0.106580         2.9002
  70   0.0000       0.114962         3.1283
  71   0.0000       0.125260         3.4085

MULLIKEN ATOMIC CHARGES
-----------------------
   0 S :    0.117941
   1 C :   -0.080608
   2 C :   -0.141449
   3 C :    0.082238
   4 C :   -0.185600
   5 H :    0.007457
   6 C :    0.060482
   7 H :    0.034931
   8 H :    0.029923
   9 C :   -0.092437
  10 H :    0.039049
  11 H :    0.034149
  12 C :   -0.052769
  13 H :    0.032014
  14 H :    0.007618
  15 H :    0.066613
  16 S :    0.107067
  17 C :   -0.108819
  18 C :    0.002019
  19 C :   -0.011527
  20 C :   -0.187766
  21 H :   -0.011048
  22 C :    0.077579
  23 H :    0.027427
  24 H :    0.005918
  25 C :   -0.067573
  26 H :    0.036563
  27 H :    0.027561
  28 C :   -0.050702
  29 H :    0.028761
  30 H :    0.037669
  31 H :    0.039712
  32 H :    0.013795
  33 H :    0.073811
Sum of atomic charges:    0.0000000

LOEWDIN ATOMIC CHARGES
----------------------
   0 S :    0.407145
   1 C :   -0.181653
   2 C :   -0.058089
   3 C :   -0.057178
   4 C :   -0.197822
   5 H :    0.027972
   6 C :   -0.035544
   7 H :    0.035155
   8 H :    0.030290
   9 C :   -0.047889
  10 H :    0.029297
  11 H :    0.026844
  12 C :   -0.068648
  13 H :    0.022235
  14 H :    0.018055
  15 H :    0.039002
  16 S :    0.382583
  17 C :   -0.177444
  18 C :   -0.057741
  19 C :   -0.051095
  20 C :   -0.193202
  21 H :    0.016999
  22 C :   -0.034919
  23 H :    0.032315
  24 H :    0.026392
  25 C :   -0.044954
  26 H :    0.028287
  27 H :    0.029084
  28 C :   -0.076030
  29 H :    0.032251
  30 H :    0.024410
  31 H :    0.030012
  32 H :    0.008058
  33 H :    0.035822

  Mayer bond orders larger than 0.100000
B(  0-S ,  1-C ) :   1.1444 B(  0-S ,  4-C ) :   1.1641 B(  1-C ,  2-C ) :   1.5824
B(  1-C ,  4-C ) :   0.1011 B(  1-C , 32-H ) :   0.9832 B(  2-C ,  3-C ) :   1.2589
B(  2-C ,  6-C ) :   1.0275 B(  3-C ,  4-C ) :   1.5454 B(  3-C ,  5-H ) :   0.9966
B(  4-C , 20-C ) :   0.9899 B(  6-C ,  7-H ) :   0.9426 B(  6-C ,  8-H ) :   0.9398
B(  6-C ,  9-C ) :   1.0663 B(  9-C , 10-H ) :   0.9561 B(  9-C , 11-H ) :   0.9556
B(  9-C , 12-C ) :   1.0756 B( 12-C , 13-H ) :   0.9697 B( 12-C , 14-H ) :   0.9738
B( 12-C , 15-H ) :   0.9667 B( 16-S , 17-C ) :   1.1414 B( 16-S , 20-C ) :   1.1382
B( 17-C , 18-C ) :   1.6091 B( 17-C , 33-H ) :   0.9666 B( 18-C , 19-C ) :   1.2205
B( 18-C , 21-H ) :   0.9988 B( 19-C , 20-C ) :   1.6448 B( 19-C , 22-C ) :   1.0325
B( 22-C , 23-H ) :   0.9361 B( 22-C , 24-H ) :   0.9134 B( 22-C , 25-C ) :   1.0798
B( 25-C , 26-H ) :   0.9494 B( 25-C , 27-H ) :   0.9527 B( 25-C , 28-C ) :   1.0752
B( 28-C , 29-H ) :   0.9699 B( 28-C , 30-H ) :   0.9762 B( 28-C , 31-H ) :   0.9728

Dispersion correction           -0.015763862
FINAL SINGLE POINT ENERGY     -1339.864416874429

DIPOLE MOMENT
-------------
                                X             Y             Z
Electronic contribution:     17.59201       9.12594      -4.78769
Nuclear contribution   :    -18.00511      -9.37272       4.93747
                        -----------------------------------------
Total Dipole Moment    :     -0.41310      -0.24678       0.14978
                        -----------------------------------------
Magnitude (a.u.)       :      0.50397
Magnitude (Debye)      :      1.28099

Rotational constants in cm-1:     0.019406     0.008825     0.007703
Rotational constants in MHz :   581.790966   264.561528   230.922421

                             ****ORCA TERMINATED NORMALLY****
TOTAL RUN TIME: 0 days 0 hours 0 minutes 22 seconds 398 msec
