                         Program Version 4.2.1 -  RELEASE  -
|  1> ! wB97X-D3 SP def2-SVP
|  2> %pal
|  3> nprocs 24
|  4> end
|  5>
|  6> * xyz 0 1
|  7> S 	 47.1498 	 -21.3686 	 -116.821
|  8> C 	 45.7004 	 -22.2715 	 -116.416
|  9> C 	 46.0087 	 -23.5389 	 -116.098
| 10> C 	 47.4141 	 -23.7474 	 -116.106
| 11> C 	 48.1986 	 -22.6759 	 -116.401
| 12> H 	 47.778 	 -24.6642 	 -115.797
| 13> C 	 44.9764 	 -24.6166 	 -115.789
| 14> H 	 45.4898 	 -25.615 	 -115.601
| 15> H 	 44.385 	 -24.7248 	 -116.713
| 16> C 	 43.9999 	 -24.5123 	 -114.618
| 17> H 	 43.1947 	 -23.9688 	 -115.018
| 18> H 	 43.7526 	 -25.4843 	 -114.231
| 19> C 	 44.3794 	 -23.8155 	 -113.305
| 20> H 	 43.4602 	 -23.7266 	 -112.752
| 21> H 	 44.973 	 -24.505 	 -112.697
| 22> H 	 44.8243 	 -22.8391 	 -113.372
| 23> S 	 50.2018 	 -21.7171 	 -117.962
| 24> C 	 51.8648 	 -21.7258 	 -117.293
| 25> C 	 51.9201 	 -22.0999 	 -115.978
| 26> C 	 50.674 	 -22.6517 	 -115.563
| 27> C 	 49.6202 	 -22.5209 	 -116.462
| 28> H 	 52.7665 	 -22.0118 	 -115.429
| 29> C 	 50.5459 	 -23.0677 	 -114.151
| 30> H 	 49.8862 	 -22.3638 	 -113.586
| 31> H 	 51.5244 	 -23.0647 	 -113.736
| 32> C 	 49.8689 	 -24.349 	 -113.734
| 33> H 	 50.0435 	 -24.9866 	 -114.588
| 34> H 	 48.7533 	 -24.1853 	 -113.584
| 35> C 	 50.361 	 -24.926 	 -112.381
| 36> H 	 49.892 	 -24.4073 	 -111.574
| 37> H 	 51.4631 	 -24.8743 	 -112.256
| 38> H 	 50.1449 	 -25.9816 	 -112.252
| 39> H 	 44.7039 	 -21.831 	 -116.414
| 40> H 	 52.5993 	 -20.8847 	 -117.578
| 41> *
| 42>
| 43>                          ****END OF INPUT****

CARTESIAN COORDINATES (ANGSTROEM)
---------------------------------
  S     47.149800  -21.368600  -116.821000
  C     45.700400  -22.271500  -116.416000
  C     46.008700  -23.538900  -116.098000
  C     47.414100  -23.747400  -116.106000
  C     48.198600  -22.675900  -116.401000
  H     47.778000  -24.664200  -115.797000
  C     44.976400  -24.616600  -115.789000
  H     45.489800  -25.615000  -115.601000
  H     44.385000  -24.724800  -116.713000
  C     43.999900  -24.512300  -114.618000
  H     43.194700  -23.968800  -115.018000
  H     43.752600  -25.484300  -114.231000
  C     44.379400  -23.815500  -113.305000
  H     43.460200  -23.726600  -112.752000
  H     44.973000  -24.505000  -112.697000
  H     44.824300  -22.839100  -113.372000
  S     50.201800  -21.717100  -117.962000
  C     51.864800  -21.725800  -117.293000
  C     51.920100  -22.099900  -115.978000
  C     50.674000  -22.651700  -115.563000
  C     49.620200  -22.520900  -116.462000
  H     52.766500  -22.011800  -115.429000
  C     50.545900  -23.067700  -114.151000
  H     49.886200  -22.363800  -113.586000
  H     51.524400  -23.064700  -113.736000
  C     49.868900  -24.349000  -113.734000
  H     50.043500  -24.986600  -114.588000
  H     48.753300  -24.185300  -113.584000
  C     50.361000  -24.926000  -112.381000
  H     49.892000  -24.407300  -111.574000
  H     51.463100  -24.874300  -112.256000
  H     50.144900  -25.981600  -112.252000
  H     44.703900  -21.831000  -116.414000
  H     52.599300  -20.884700  -117.578000

 Total Charge           Charge          ....    0
 Multiplicity           Mult            ....    1
 Number of Electrons    NEL             ....  134
 Basis Dimension        Dim             ....  322

ORBITAL ENERGIES
----------------

  NO   OCC          E(Eh)            E(eV)
   0   2.0000     -88.964526     -2420.8478
   1   2.0000     -88.963548     -2420.8212
   2   2.0000     -10.331307      -281.1292
   3   2.0000     -10.326825      -281.0072
   4   2.0000     -10.320409      -280.8326
   5   2.0000     -10.312203      -280.6093
   6   2.0000     -10.304094      -280.3887
   7   2.0000     -10.297626      -280.2126
   8   2.0000     -10.297227      -280.2018
   9   2.0000     -10.290883      -280.0292
  10   2.0000     -10.286757      -279.9169
  11   2.0000     -10.285755      -279.8896
  12   2.0000     -10.282722      -279.8071
  13   2.0000     -10.282522      -279.8016
  14   2.0000     -10.279575      -279.7215
  15   2.0000     -10.274312      -279.5782
  16   2.0000      -8.078955      -219.8395
  17   2.0000      -8.078157      -219.8178
  18   2.0000      -6.037514      -164.2891
  19   2.0000      -6.036834      -164.2706
  20   2.0000      -6.033336      -164.1754
  21   2.0000      -6.032939      -164.1646
  22   2.0000      -6.029614      -164.0741
  23   2.0000      -6.028661      -164.0482
  24   2.0000      -1.012988       -27.5648
  25   2.0000      -0.985502       -26.8169
  26   2.0000      -0.915074       -24.9004
  27   2.0000      -0.911279       -24.7972
  28   2.0000      -0.878198       -23.8970
  29   2.0000      -0.849989       -23.1294
  30   2.0000      -0.848241       -23.0818
  31   2.0000      -0.820695       -22.3322
  32   2.0000      -0.789277       -21.4773
  33   2.0000      -0.774657       -21.0795
  34   2.0000      -0.714045       -19.4302
  35   2.0000      -0.700173       -19.0527
  36   2.0000      -0.690688       -18.7946
  37   2.0000      -0.663232       -18.0475
  38   2.0000      -0.643338       -17.5061
  39   2.0000      -0.620511       -16.8850
  40   2.0000      -0.593906       -16.1610
  41   2.0000      -0.583594       -15.8804
  42   2.0000      -0.574593       -15.6355
  43   2.0000      -0.562744       -15.3131
  44   2.0000      -0.545760       -14.8509
  45   2.0000      -0.521827       -14.1996
  46   2.0000      -0.517418       -14.0797
  47   2.0000      -0.513817       -13.9817
  48   2.0000      -0.504756       -13.7351
  49   2.0000      -0.500256       -13.6126
  50   2.0000      -0.494046       -13.4437
  51   2.0000      -0.480291       -13.0694
  52   2.0000      -0.472389       -12.8544
  53   2.0000      -0.466236       -12.6869
  54   2.0000      -0.456046       -12.4097
  55   2.0000      -0.455681       -12.3997
  56   2.0000      -0.443322       -12.0634
  57   2.0000      -0.440152       -11.9771
  58   2.0000      -0.430271       -11.7083
  59   2.0000      -0.419525       -11.4159
  60   2.0000      -0.414011       -11.2658
  61   2.0000      -0.409267       -11.1367
  62   2.0000      -0.407864       -11.0986
  63   2.0000      -0.348524        -9.4838
  64   2.0000      -0.332219        -9.0402
  65   2.0000      -0.330140        -8.9836
  66   2.0000      -0.294902        -8.0247
  67   0.0000       0.021341         0.5807
  68   0.0000       0.061409         1.6710
  69   0.0000       0.105333         2.8662
  70   0.0000       0.117920         3.2088
  71   0.0000       0.124284         3.3819

MULLIKEN ATOMIC CHARGES
-----------------------
   0 S :    0.105111
   1 C :   -0.142318
   2 C :   -0.071480
   3 C :    0.067004
   4 C :   -0.132957
   5 H :   -0.034976
   6 C :    0.051785
   7 H :    0.024916
   8 H :    0.047428
   9 C :   -0.069817
  10 H :    0.018320
  11 H :    0.030344
  12 C :   -0.040330
  13 H :    0.024691
  14 H :    0.022683
  15 H :    0.038291
  16 S :    0.074854
  17 C :   -0.085459
  18 C :   -0.023435
  19 C :   -0.025704
  20 C :   -0.135889
  21 H :   -0.008333
  22 C :    0.077670
  23 H :    0.042492
  24 H :   -0.002112
  25 C :   -0.126333
  26 H :    0.030580
  27 H :    0.053120
  28 C :   -0.036937
  29 H :    0.029523
  30 H :    0.028127
  31 H :    0.033018
  32 H :    0.050574
  33 H :    0.085550
Sum of atomic charges:    0.0000000

LOEWDIN ATOMIC CHARGES
----------------------
   0 S :    0.410541
   1 C :   -0.188826
   2 C :   -0.070141
   3 C :   -0.050325
   4 C :   -0.203727
   5 H :    0.015246
   6 C :   -0.037474
   7 H :    0.034686
   8 H :    0.039658
   9 C :   -0.039982
  10 H :    0.015508
  11 H :    0.029848
  12 C :   -0.062053
  13 H :    0.027409
  14 H :    0.022622
  15 H :    0.021118
  16 S :    0.367658
  17 C :   -0.192204
  18 C :   -0.048274
  19 C :   -0.054285
  20 C :   -0.174407
  21 H :    0.018267
  22 C :   -0.039991
  23 H :    0.044571
  24 H :    0.022033
  25 C :   -0.047710
  26 H :    0.016465
  27 H :    0.032049
  28 C :   -0.062982
  29 H :    0.022483
  30 H :    0.025171
  31 H :    0.028004
  32 H :    0.030995
  33 H :    0.048049

  Mayer bond orders larger than 0.100000
B(  0-S ,  1-C ) :   1.1371 B(  0-S ,  4-C ) :   1.1448 B(  1-C ,  2-C ) :   1.6038
B(  1-C , 32-H ) :   0.9738 B(  2-C ,  3-C ) :   1.2605 B(  2-C ,  6-C ) :   1.0082
B(  3-C ,  4-C ) :   1.5600 B(  3-C ,  5-H ) :   1.0109 B(  4-C , 20-C ) :   1.0603
B(  6-C ,  7-H ) :   0.9454 B(  6-C ,  8-H ) :   0.9442 B(  6-C ,  9-C ) :   1.0646
B(  9-C , 10-H ) :   0.9578 B(  9-C , 11-H ) :   0.9621 B(  9-C , 12-C ) :   1.0932
B( 12-C , 13-H ) :   0.9712 B( 12-C , 14-H ) :   0.9790 B( 12-C , 15-H ) :   0.9700
B( 16-S , 17-C ) :   1.1351 B( 16-S , 20-C ) :   1.1191 B( 17-C , 18-C ) :   1.6365
B( 17-C , 33-H ) :   0.9409 B( 18-C , 19-C ) :   1.2355 B( 18-C , 21-H ) :   1.0016
B( 19-C , 20-C ) :   1.5810 B( 19-C , 22-C ) :   1.0781 B( 22-C , 23-H ) :   0.9205
B( 22-C , 24-H ) :   0.9324 B( 22-C , 25-C ) :   1.0541 B( 25-C , 26-H ) :   0.9591
B( 25-C , 27-H ) :   0.9495 B( 25-C , 28-C ) :   1.0792 B( 28-C , 29-H ) :   0.9772
B( 28-C , 30-H ) :   0.9749 B( 28-C , 31-H ) :   0.9746

Dispersion correction           -0.014384384
FINAL SINGLE POINT ENERGY     -1339.844054943470

DIPOLE MOMENT
-------------
                                X             Y             Z
Electronic contribution:      9.33432      16.49313     -24.31442
Nuclear contribution   :     -9.60231     -16.74611      25.07145
                        -----------------------------------------
Total Dipole Moment    :     -0.26799      -0.25298       0.75703
                        -----------------------------------------
Magnitude (a.u.)       :      0.84197
Magnitude (Debye)      :      2.14011

Rotational constants in cm-1:     0.018814     0.009388     0.006730
Rotational constants in MHz :   564.038471   281.442064   201.748916

                             ****ORCA TERMINATED NORMALLY****
TOTAL RUN TIME: 0 days 0 hours 0 minutes 22 seconds 160 msec
