                         Program Version 4.2.1 -  RELEASE  -
|  1> ! wB97X-D3 SP def2-SVP
|  2> %pal
|  3> nprocs 24
|  4> end
|  5>
|  6> * xyz 0 1
|  7> S 	 -107.748 	 54.5281 	 -111.699
|  8> C 	 -107.029 	 56.1156 	 -111.668
|  9> C 	 -107.233 	 56.6687 	 -110.373
| 10> C 	 -107.915 	 55.8086 	 -109.435
| 11> C 	 -108.251 	 54.6055 	 -110.024
| 12> H 	 -108.185 	 56.0124 	 -108.397
| 13> C 	 -106.939 	 58.1073 	 -110.027
| 14> H 	 -107.849 	 58.5753 	 -109.748
| 15> H 	 -106.62 	 58.5375 	 -111.018
| 16> C 	 -105.907 	 58.2662 	 -108.857
| 17> H 	 -104.97 	 57.7232 	 -109.055
| 18> H 	 -105.598 	 59.2462 	 -108.83
| 19> C 	 -106.38 	 57.9486 	 -107.419
| 20> H 	 -105.533 	 58.3648 	 -106.768
| 21> H 	 -107.302 	 58.4341 	 -107.179
| 22> H 	 -106.509 	 56.8481 	 -107.2
| 23> S 	 -108.361 	 52.007 	 -109.179
| 24> C 	 -109.862 	 51.2916 	 -108.625
| 25> C 	 -110.852 	 52.2452 	 -108.575
| 26> C 	 -110.418 	 53.5267 	 -109.027
| 27> C 	 -109.097 	 53.5669 	 -109.459
| 28> H 	 -111.912 	 51.9379 	 -108.403
| 29> C 	 -111.348 	 54.7066 	 -109.285
| 30> H 	 -112.232 	 54.4864 	 -109.863
| 31> H 	 -110.714 	 55.396 	 -109.897
| 32> C 	 -111.772 	 55.2784 	 -107.928
| 33> H 	 -110.913 	 55.4952 	 -107.316
| 34> H 	 -112.425 	 54.6603 	 -107.3
| 35> C 	 -112.634 	 56.5245 	 -108.051
| 36> H 	 -113.573 	 56.2598 	 -108.557
| 37> H 	 -111.974 	 57.3099 	 -108.545
| 38> H 	 -112.856 	 56.924 	 -107.022
| 39> H 	 -106.383 	 56.5048 	 -112.423
| 40> H 	 -110.1 	 50.2301 	 -108.633
| 41> *
| 42>
| 43>                          ****END OF INPUT****

CARTESIAN COORDINATES (ANGSTROEM)
---------------------------------
  S    -107.748000   54.528100  -111.699000
  C    -107.029000   56.115600  -111.668000
  C    -107.233000   56.668700  -110.373000
  C    -107.915000   55.808600  -109.435000
  C    -108.251000   54.605500  -110.024000
  H    -108.185000   56.012400  -108.397000
  C    -106.939000   58.107300  -110.027000
  H    -107.849000   58.575300  -109.748000
  H    -106.620000   58.537500  -111.018000
  C    -105.907000   58.266200  -108.857000
  H    -104.970000   57.723200  -109.055000
  H    -105.598000   59.246200  -108.830000
  C    -106.380000   57.948600  -107.419000
  H    -105.533000   58.364800  -106.768000
  H    -107.302000   58.434100  -107.179000
  H    -106.509000   56.848100  -107.200000
  S    -108.361000   52.007000  -109.179000
  C    -109.862000   51.291600  -108.625000
  C    -110.852000   52.245200  -108.575000
  C    -110.418000   53.526700  -109.027000
  C    -109.097000   53.566900  -109.459000
  H    -111.912000   51.937900  -108.403000
  C    -111.348000   54.706600  -109.285000
  H    -112.232000   54.486400  -109.863000
  H    -110.714000   55.396000  -109.897000
  C    -111.772000   55.278400  -107.928000
  H    -110.913000   55.495200  -107.316000
  H    -112.425000   54.660300  -107.300000
  C    -112.634000   56.524500  -108.051000
  H    -113.573000   56.259800  -108.557000
  H    -111.974000   57.309900  -108.545000
  H    -112.856000   56.924000  -107.022000
  H    -106.383000   56.504800  -112.423000
  H    -110.100000   50.230100  -108.633000

 Total Charge           Charge          ....    0
 Multiplicity           Mult            ....    1
 Number of Electrons    NEL             ....  134
 Basis Dimension        Dim             ....  322

ORBITAL ENERGIES
----------------

  NO   OCC          E(Eh)            E(eV)
   0   2.0000     -88.967296     -2420.9232
   1   2.0000     -88.961021     -2420.7525
   2   2.0000     -10.330400      -281.1045
   3   2.0000     -10.324028      -280.9311
   4   2.0000     -10.318496      -280.7806
   5   2.0000     -10.316697      -280.7316
   6   2.0000     -10.306558      -280.4557
   7   2.0000     -10.303092      -280.3614
   8   2.0000     -10.298923      -280.2479
   9   2.0000     -10.296356      -280.1781
  10   2.0000     -10.293936      -280.1122
  11   2.0000     -10.290849      -280.0282
  12   2.0000     -10.288860      -279.9741
  13   2.0000     -10.284776      -279.8630
  14   2.0000     -10.283082      -279.8169
  15   2.0000     -10.280728      -279.7528
  16   2.0000      -8.081974      -219.9217
  17   2.0000      -8.076015      -219.7595
  18   2.0000      -6.040450      -164.3690
  19   2.0000      -6.036347      -164.2574
  20   2.0000      -6.034533      -164.2080
  21   2.0000      -6.032898      -164.1635
  22   2.0000      -6.030349      -164.0941
  23   2.0000      -6.026879      -163.9997
  24   2.0000      -1.006456       -27.3870
  25   2.0000      -0.982984       -26.7484
  26   2.0000      -0.909298       -24.7433
  27   2.0000      -0.908199       -24.7134
  28   2.0000      -0.870775       -23.6950
  29   2.0000      -0.848835       -23.0980
  30   2.0000      -0.845114       -22.9967
  31   2.0000      -0.818980       -22.2856
  32   2.0000      -0.778584       -21.1864
  33   2.0000      -0.764611       -20.8061
  34   2.0000      -0.704582       -19.1727
  35   2.0000      -0.700250       -19.0548
  36   2.0000      -0.689791       -18.7702
  37   2.0000      -0.657358       -17.8876
  38   2.0000      -0.646310       -17.5870
  39   2.0000      -0.615727       -16.7548
  40   2.0000      -0.591396       -16.0927
  41   2.0000      -0.572983       -15.5917
  42   2.0000      -0.568369       -15.4661
  43   2.0000      -0.542842       -14.7715
  44   2.0000      -0.538517       -14.6538
  45   2.0000      -0.525672       -14.3043
  46   2.0000      -0.519546       -14.1376
  47   2.0000      -0.517633       -14.0855
  48   2.0000      -0.509491       -13.8640
  49   2.0000      -0.505445       -13.7539
  50   2.0000      -0.491026       -13.3615
  51   2.0000      -0.478912       -13.0319
  52   2.0000      -0.466847       -12.7036
  53   2.0000      -0.463868       -12.6225
  54   2.0000      -0.458135       -12.4665
  55   2.0000      -0.443292       -12.0626
  56   2.0000      -0.437148       -11.8954
  57   2.0000      -0.436044       -11.8654
  58   2.0000      -0.431179       -11.7330
  59   2.0000      -0.428504       -11.6602
  60   2.0000      -0.418199       -11.3798
  61   2.0000      -0.415110       -11.2957
  62   2.0000      -0.407395       -11.0858
  63   2.0000      -0.339229        -9.2309
  64   2.0000      -0.329165        -8.9570
  65   2.0000      -0.324694        -8.8354
  66   2.0000      -0.302850        -8.2410
  67   0.0000       0.031206         0.8491
  68   0.0000       0.064597         1.7578
  69   0.0000       0.110984         3.0200
  70   0.0000       0.122982         3.3465
  71   0.0000       0.130599         3.5538

MULLIKEN ATOMIC CHARGES
-----------------------
   0 S :    0.121948
   1 C :   -0.115890
   2 C :   -0.113754
   3 C :    0.041758
   4 C :   -0.164834
   5 H :    0.022822
   6 C :    0.068876
   7 H :    0.027374
   8 H :    0.022419
   9 C :   -0.043863
  10 H :    0.029847
  11 H :    0.010473
  12 C :   -0.095404
  13 H :    0.050350
  14 H :    0.029135
  15 H :    0.055912
  16 S :    0.099382
  17 C :   -0.092968
  18 C :   -0.047544
  19 C :   -0.016970
  20 C :   -0.183743
  21 H :    0.036916
  22 C :    0.075844
  23 H :    0.025752
  24 H :    0.040335
  25 C :   -0.105709
  26 H :    0.021387
  27 H :    0.027226
  28 C :   -0.060995
  29 H :    0.039845
  30 H :    0.036492
  31 H :    0.036494
  32 H :    0.053684
  33 H :    0.067400
Sum of atomic charges:   -0.0000000

LOEWDIN ATOMIC CHARGES
----------------------
   0 S :    0.417717
   1 C :   -0.207130
   2 C :   -0.056470
   3 C :   -0.060964
   4 C :   -0.201081
   5 H :    0.036695
   6 C :   -0.031262
   7 H :    0.025983
   8 H :    0.035134
   9 C :   -0.038079
  10 H :    0.029119
  11 H :    0.013429
  12 C :   -0.071514
  13 H :    0.040447
  14 H :    0.017252
  15 H :    0.029365
  16 S :    0.404173
  17 C :   -0.187845
  18 C :   -0.076372
  19 C :   -0.053769
  20 C :   -0.209712
  21 H :    0.040159
  22 C :   -0.027286
  23 H :    0.027525
  24 H :    0.037319
  25 C :   -0.048278
  26 H :    0.018812
  27 H :    0.024323
  28 C :   -0.071141
  29 H :    0.024850
  30 H :    0.028082
  31 H :    0.028271
  32 H :    0.027305
  33 H :    0.034945

  Mayer bond orders larger than 0.100000
B(  0-S ,  1-C ) :   1.1420 B(  0-S ,  4-C ) :   1.1723 B(  1-C ,  2-C ) :   1.5862
B(  1-C ,  4-C ) :   0.1014 B(  1-C , 32-H ) :   0.9712 B(  2-C ,  3-C ) :   1.2347
B(  2-C ,  6-C ) :   1.0300 B(  3-C ,  4-C ) :   1.5603 B(  3-C ,  5-H ) :   0.9927
B(  4-C , 20-C ) :   1.0080 B(  6-C ,  7-H ) :   0.9435 B(  6-C ,  8-H ) :   0.9423
B(  6-C ,  9-C ) :   1.0601 B(  9-C , 10-H ) :   0.9550 B(  9-C , 11-H ) :   0.9563
B(  9-C , 12-C ) :   1.0759 B( 12-C , 13-H ) :   0.9709 B( 12-C , 14-H ) :   0.9755
B( 12-C , 15-H ) :   0.9694 B( 16-S , 17-C ) :   1.1591 B( 16-S , 20-C ) :   1.1455
B( 17-C , 18-C ) :   1.6139 B( 17-C , 20-C ) :   0.1011 B( 17-C , 33-H ) :   0.9625
B( 18-C , 19-C ) :   1.2410 B( 18-C , 21-H ) :   0.9813 B( 19-C , 20-C ) :   1.5967
B( 19-C , 22-C ) :   1.0408 B( 22-C , 23-H ) :   0.9404 B( 22-C , 24-H ) :   0.9374
B( 22-C , 25-C ) :   1.0485 B( 25-C , 26-H ) :   0.9553 B( 25-C , 27-H ) :   0.9583
B( 25-C , 28-C ) :   1.0896 B( 28-C , 29-H ) :   0.9719 B( 28-C , 30-H ) :   0.9744
B( 28-C , 31-H ) :   0.9745

Dispersion correction           -0.014577365
FINAL SINGLE POINT ENERGY     -1339.876506507665

DIPOLE MOMENT
-------------
                                X             Y             Z
Electronic contribution:      7.32785     -23.28226     -13.44344
Nuclear contribution   :     -7.59742      23.77685      13.59498
                        -----------------------------------------
Total Dipole Moment    :     -0.26957       0.49459       0.15154
                        -----------------------------------------
Magnitude (a.u.)       :      0.58330
Magnitude (Debye)      :      1.48264

Rotational constants in cm-1:     0.016482     0.009543     0.007516
Rotational constants in MHz :   494.103864   286.083917   225.329378

                             ****ORCA TERMINATED NORMALLY****
TOTAL RUN TIME: 0 days 0 hours 0 minutes 22 seconds 113 msec
