                         Program Version 4.2.1 -  RELEASE  -
|  1> ! wB97X-D3 SP def2-SVP
|  2> %pal
|  3> nprocs 24
|  4> end
|  5>
|  6> * xyz 0 1
|  7> S 	 -85.8294 	 -44.9151 	 -82.3424
|  8> C 	 -87.1774 	 -45.4379 	 -83.3453
|  9> C 	 -87.6855 	 -46.6867 	 -82.9603
| 10> C 	 -87.0935 	 -47.0872 	 -81.6789
| 11> C 	 -86.1601 	 -46.2006 	 -81.1664
| 12> H 	 -87.3891 	 -47.944 	 -81.1715
| 13> C 	 -88.9253 	 -47.3909 	 -83.3989
| 14> H 	 -88.7937 	 -48.4754 	 -83.5009
| 15> H 	 -89.3578 	 -46.8723 	 -84.3247
| 16> C 	 -90.1249 	 -47.2194 	 -82.3871
| 17> H 	 -89.767 	 -47.5488 	 -81.4196
| 18> H 	 -90.3983 	 -46.0981 	 -82.2711
| 19> C 	 -91.4272 	 -47.9092 	 -82.7069
| 20> H 	 -91.5062 	 -48.9795 	 -82.7096
| 21> H 	 -92.1582 	 -47.6195 	 -82.0646
| 22> H 	 -91.763 	 -47.6002 	 -83.6886
| 23> S 	 -83.7851 	 -46.7687 	 -79.7165
| 24> C 	 -83.9922 	 -47.3367 	 -78.0935
| 25> C 	 -85.331 	 -47.034 	 -77.6414
| 26> C 	 -86.2203 	 -46.4986 	 -78.602
| 27> C 	 -85.5472 	 -46.3609 	 -79.8133
| 28> H 	 -85.6604 	 -47.269 	 -76.5871
| 29> C 	 -87.7488 	 -46.4061 	 -78.3795
| 30> H 	 -88.1176 	 -47.4265 	 -78.3765
| 31> H 	 -88.2842 	 -45.959 	 -79.2673
| 32> C 	 -88.2096 	 -45.7084 	 -77.1207
| 33> H 	 -87.8001 	 -46.2122 	 -76.2294
| 34> H 	 -89.3049 	 -45.7751 	 -77.0336
| 35> C 	 -87.6971 	 -44.2673 	 -77.0837
| 36> H 	 -86.6248 	 -44.3572 	 -76.892
| 37> H 	 -88.2305 	 -43.8762 	 -76.2358
| 38> H 	 -87.8391 	 -43.7238 	 -77.9607
| 39> H 	 -87.5354 	 -44.8291 	 -84.1813
| 40> H 	 -83.3629 	 -47.7001 	 -77.3225
| 41> *
| 42>
| 43>                          ****END OF INPUT****

CARTESIAN COORDINATES (ANGSTROEM)
---------------------------------
  S    -85.829400  -44.915100  -82.342400
  C    -87.177400  -45.437900  -83.345300
  C    -87.685500  -46.686700  -82.960300
  C    -87.093500  -47.087200  -81.678900
  C    -86.160100  -46.200600  -81.166400
  H    -87.389100  -47.944000  -81.171500
  C    -88.925300  -47.390900  -83.398900
  H    -88.793700  -48.475400  -83.500900
  H    -89.357800  -46.872300  -84.324700
  C    -90.124900  -47.219400  -82.387100
  H    -89.767000  -47.548800  -81.419600
  H    -90.398300  -46.098100  -82.271100
  C    -91.427200  -47.909200  -82.706900
  H    -91.506200  -48.979500  -82.709600
  H    -92.158200  -47.619500  -82.064600
  H    -91.763000  -47.600200  -83.688600
  S    -83.785100  -46.768700  -79.716500
  C    -83.992200  -47.336700  -78.093500
  C    -85.331000  -47.034000  -77.641400
  C    -86.220300  -46.498600  -78.602000
  C    -85.547200  -46.360900  -79.813300
  H    -85.660400  -47.269000  -76.587100
  C    -87.748800  -46.406100  -78.379500
  H    -88.117600  -47.426500  -78.376500
  H    -88.284200  -45.959000  -79.267300
  C    -88.209600  -45.708400  -77.120700
  H    -87.800100  -46.212200  -76.229400
  H    -89.304900  -45.775100  -77.033600
  C    -87.697100  -44.267300  -77.083700
  H    -86.624800  -44.357200  -76.892000
  H    -88.230500  -43.876200  -76.235800
  H    -87.839100  -43.723800  -77.960700
  H    -87.535400  -44.829100  -84.181300
  H    -83.362900  -47.700100  -77.322500

 Total Charge           Charge          ....    0
 Multiplicity           Mult            ....    1
 Number of Electrons    NEL             ....  134
 Basis Dimension        Dim             ....  322

ORBITAL ENERGIES
----------------

  NO   OCC          E(Eh)            E(eV)
   0   2.0000     -88.973434     -2421.0902
   1   2.0000     -88.966481     -2420.9010
   2   2.0000     -10.333617      -281.1920
   3   2.0000     -10.332525      -281.1623
   4   2.0000     -10.322240      -280.8824
   5   2.0000     -10.321565      -280.8641
   6   2.0000     -10.308448      -280.5071
   7   2.0000     -10.306606      -280.4570
   8   2.0000     -10.302777      -280.3528
   9   2.0000     -10.301198      -280.3098
  10   2.0000     -10.296250      -280.1752
  11   2.0000     -10.295010      -280.1415
  12   2.0000     -10.292818      -280.0818
  13   2.0000     -10.286428      -279.9079
  14   2.0000     -10.269536      -279.4483
  15   2.0000     -10.266168      -279.3566
  16   2.0000      -8.086885      -220.0553
  17   2.0000      -8.080760      -219.8887
  18   2.0000      -6.045476      -164.5058
  19   2.0000      -6.041560      -164.3992
  20   2.0000      -6.039382      -164.3399
  21   2.0000      -6.037640      -164.2925
  22   2.0000      -6.035397      -164.2315
  23   2.0000      -6.031369      -164.1219
  24   2.0000      -0.997271       -27.1371
  25   2.0000      -0.977211       -26.5913
  26   2.0000      -0.912647       -24.8344
  27   2.0000      -0.909345       -24.7445
  28   2.0000      -0.864153       -23.5148
  29   2.0000      -0.853896       -23.2357
  30   2.0000      -0.846223       -23.0269
  31   2.0000      -0.806294       -21.9404
  32   2.0000      -0.786126       -21.3916
  33   2.0000      -0.774617       -21.0784
  34   2.0000      -0.703350       -19.1391
  35   2.0000      -0.695871       -18.9356
  36   2.0000      -0.693093       -18.8600
  37   2.0000      -0.652433       -17.7536
  38   2.0000      -0.642850       -17.4928
  39   2.0000      -0.619008       -16.8441
  40   2.0000      -0.595776       -16.2119
  41   2.0000      -0.569245       -15.4899
  42   2.0000      -0.558194       -15.1892
  43   2.0000      -0.555593       -15.1185
  44   2.0000      -0.541490       -14.7347
  45   2.0000      -0.522207       -14.2100
  46   2.0000      -0.520155       -14.1541
  47   2.0000      -0.511266       -13.9123
  48   2.0000      -0.508572       -13.8389
  49   2.0000      -0.501742       -13.6531
  50   2.0000      -0.492119       -13.3912
  51   2.0000      -0.478232       -13.0134
  52   2.0000      -0.468980       -12.7616
  53   2.0000      -0.461306       -12.5528
  54   2.0000      -0.458841       -12.4857
  55   2.0000      -0.451689       -12.2911
  56   2.0000      -0.443488       -12.0679
  57   2.0000      -0.432985       -11.7821
  58   2.0000      -0.428358       -11.6562
  59   2.0000      -0.423766       -11.5313
  60   2.0000      -0.421515       -11.4700
  61   2.0000      -0.418359       -11.3841
  62   2.0000      -0.415166       -11.2972
  63   2.0000      -0.336335        -9.1522
  64   2.0000      -0.335551        -9.1308
  65   2.0000      -0.325007        -8.8439
  66   2.0000      -0.294454        -8.0125
  67   0.0000       0.033262         0.9051
  68   0.0000       0.053367         1.4522
  69   0.0000       0.111093         3.0230
  70   0.0000       0.115221         3.1353
  71   0.0000       0.121123         3.2959

MULLIKEN ATOMIC CHARGES
-----------------------
   0 S :    0.105676
   1 C :   -0.139153
   2 C :   -0.031237
   3 C :    0.030778
   4 C :   -0.146926
   5 H :   -0.003780
   6 C :    0.032180
   7 H :    0.041813
   8 H :    0.033355
   9 C :   -0.126130
  10 H :    0.019287
  11 H :    0.041230
  12 C :    0.019467
  13 H :    0.021924
  14 H :    0.009746
  15 H :    0.012585
  16 S :    0.128627
  17 C :   -0.066843
  18 C :   -0.106956
  19 C :   -0.008802
  20 C :   -0.179587
  21 H :    0.036239
  22 C :    0.046191
  23 H :    0.036385
  24 H :    0.047465
  25 C :   -0.103212
  26 H :    0.024596
  27 H :    0.032280
  28 C :   -0.011828
  29 H :    0.040643
  30 H :    0.030411
  31 H :    0.026782
  32 H :    0.060235
  33 H :    0.046559
Sum of atomic charges:    0.0000000

LOEWDIN ATOMIC CHARGES
----------------------
   0 S :    0.385399
   1 C :   -0.189112
   2 C :   -0.064659
   3 C :   -0.043896
   4 C :   -0.190452
   5 H :    0.018612
   6 C :   -0.038115
   7 H :    0.034838
   8 H :    0.037065
   9 C :   -0.041703
  10 H :    0.013506
  11 H :    0.035016
  12 C :   -0.061369
  13 H :    0.022755
  14 H :    0.017611
  15 H :    0.024398
  16 S :    0.403534
  17 C :   -0.197977
  18 C :   -0.079254
  19 C :   -0.054692
  20 C :   -0.182270
  21 H :    0.033600
  22 C :   -0.034586
  23 H :    0.031184
  24 H :    0.037863
  25 C :   -0.043574
  26 H :    0.021758
  27 H :    0.025069
  28 C :   -0.053584
  29 H :    0.030976
  30 H :    0.026222
  31 H :    0.016594
  32 H :    0.030743
  33 H :    0.028499

  Mayer bond orders larger than 0.100000
B(  0-S ,  1-C ) :   1.1410 B(  0-S ,  4-C ) :   1.1275 B(  1-C ,  2-C ) :   1.6158
B(  1-C , 32-H ) :   0.9653 B(  2-C ,  3-C ) :   1.1970 B(  2-C ,  6-C ) :   1.0578
B(  3-C ,  4-C ) :   1.6019 B(  3-C ,  5-H ) :   1.0028 B(  4-C , 20-C ) :   1.0159
B(  6-C ,  7-H ) :   0.9347 B(  6-C ,  8-H ) :   0.9449 B(  6-C ,  9-C ) :   1.0517
B(  9-C , 10-H ) :   0.9528 B(  9-C , 11-H ) :   0.9564 B(  9-C , 12-C ) :   1.0882
B( 12-C , 13-H ) :   0.9709 B( 12-C , 14-H ) :   0.9673 B( 12-C , 15-H ) :   0.9690
B( 16-S , 17-C ) :   1.1579 B( 16-S , 20-C ) :   1.1406 B( 17-C , 18-C ) :   1.6005
B( 17-C , 20-C ) :   0.1086 B( 17-C , 33-H ) :   0.9686 B( 18-C , 19-C ) :   1.2544
B( 18-C , 21-H ) :   0.9709 B( 19-C , 20-C ) :   1.5882 B( 19-C , 22-C ) :   1.0211
B( 22-C , 23-H ) :   0.9371 B( 22-C , 24-H ) :   0.9354 B( 22-C , 25-C ) :   1.0823
B( 25-C , 26-H ) :   0.9525 B( 25-C , 27-H ) :   0.9549 B( 25-C , 28-C ) :   1.0707
B( 28-C , 29-H ) :   0.9703 B( 28-C , 30-H ) :   0.9744 B( 28-C , 31-H ) :   0.9793

Dispersion correction           -0.014819936
FINAL SINGLE POINT ENERGY     -1339.857698992450

DIPOLE MOMENT
-------------
                                X             Y             Z
Electronic contribution:     28.71588       3.22738      -6.66205
Nuclear contribution   :    -29.54457      -3.53690       6.95295
                        -----------------------------------------
Total Dipole Moment    :     -0.82869      -0.30952       0.29090
                        -----------------------------------------
Magnitude (a.u.)       :      0.93121
Magnitude (Debye)      :      2.36694

Rotational constants in cm-1:     0.016963     0.009115     0.007172
Rotational constants in MHz :   508.541565   273.272450   215.011312

                             ****ORCA TERMINATED NORMALLY****
TOTAL RUN TIME: 0 days 0 hours 0 minutes 22 seconds 193 msec
