                         Program Version 4.2.1 -  RELEASE  -
|  1> ! wB97X-D3 SP def2-SVP
|  2> %pal
|  3> nprocs 24
|  4> end
|  5>
|  6> * xyz 0 1
|  7> S 	 -54.5467 	 25.3872 	 25.6894
|  8> C 	 -53.5525 	 24.6745 	 24.4762
|  9> C 	 -52.1946 	 24.6466 	 24.9016
| 10> C 	 -52.0131 	 25.1425 	 26.2179
| 11> C 	 -53.2225 	 25.6067 	 26.7939
| 12> H 	 -51.0681 	 25.2791 	 26.7381
| 13> C 	 -50.9866 	 24.1473 	 24.0681
| 14> H 	 -50.823 	 23.0825 	 24.4238
| 15> H 	 -50.0641 	 24.5439 	 24.4756
| 16> C 	 -51.0939 	 24.243 	 22.3948
| 17> H 	 -52.069 	 23.7332 	 22.1122
| 18> H 	 -51.0489 	 25.2743 	 22.0474
| 19> C 	 -49.981 	 23.3765 	 21.6485
| 20> H 	 -50.0321 	 22.2779 	 21.7217
| 21> H 	 -50.2287 	 23.4604 	 20.6114
| 22> H 	 -48.9729 	 23.7763 	 21.7733
| 23> S 	 -53.6863 	 24.8638 	 29.4403
| 24> C 	 -53.8278 	 26.0702 	 30.6511
| 25> C 	 -53.7101 	 27.3105 	 30.1311
| 26> C 	 -53.5486 	 27.3302 	 28.7362
| 27> C 	 -53.4267 	 26.0873 	 28.1817
| 28> H 	 -53.8789 	 28.2085 	 30.7156
| 29> C 	 -53.5896 	 28.6804 	 28.0205
| 30> H 	 -54.4181 	 29.2835 	 28.3902
| 31> H 	 -53.8814 	 28.5441 	 26.9817
| 32> C 	 -52.3037 	 29.491 	 28.0919
| 33> H 	 -52.2497 	 29.8101 	 29.1142
| 34> H 	 -52.3545 	 30.3925 	 27.5294
| 35> C 	 -51.0537 	 28.7351 	 27.6291
| 36> H 	 -51.0345 	 28.7104 	 26.5054
| 37> H 	 -50.9524 	 27.7798 	 28.1356
| 38> H 	 -50.152 	 29.3442 	 27.805
| 39> H 	 -53.807 	 24.5682 	 23.4555
| 40> H 	 -53.9467 	 25.7392 	 31.731
| 41> *
| 42>
| 43>                          ****END OF INPUT****

CARTESIAN COORDINATES (ANGSTROEM)
---------------------------------
  S    -54.546700   25.387200   25.689400
  C    -53.552500   24.674500   24.476200
  C    -52.194600   24.646600   24.901600
  C    -52.013100   25.142500   26.217900
  C    -53.222500   25.606700   26.793900
  H    -51.068100   25.279100   26.738100
  C    -50.986600   24.147300   24.068100
  H    -50.823000   23.082500   24.423800
  H    -50.064100   24.543900   24.475600
  C    -51.093900   24.243000   22.394800
  H    -52.069000   23.733200   22.112200
  H    -51.048900   25.274300   22.047400
  C    -49.981000   23.376500   21.648500
  H    -50.032100   22.277900   21.721700
  H    -50.228700   23.460400   20.611400
  H    -48.972900   23.776300   21.773300
  S    -53.686300   24.863800   29.440300
  C    -53.827800   26.070200   30.651100
  C    -53.710100   27.310500   30.131100
  C    -53.548600   27.330200   28.736200
  C    -53.426700   26.087300   28.181700
  H    -53.878900   28.208500   30.715600
  C    -53.589600   28.680400   28.020500
  H    -54.418100   29.283500   28.390200
  H    -53.881400   28.544100   26.981700
  C    -52.303700   29.491000   28.091900
  H    -52.249700   29.810100   29.114200
  H    -52.354500   30.392500   27.529400
  C    -51.053700   28.735100   27.629100
  H    -51.034500   28.710400   26.505400
  H    -50.952400   27.779800   28.135600
  H    -50.152000   29.344200   27.805000
  H    -53.807000   24.568200   23.455500
  H    -53.946700   25.739200   31.731000

 Total Charge           Charge          ....    0
 Multiplicity           Mult            ....    1
 Number of Electrons    NEL             ....  134
 Basis Dimension        Dim             ....  322

ORBITAL ENERGIES
----------------

  NO   OCC          E(Eh)            E(eV)
   0   2.0000     -88.967936     -2420.9406
   1   2.0000     -88.959945     -2420.7232
   2   2.0000     -10.330625      -281.1106
   3   2.0000     -10.325192      -280.9628
   4   2.0000     -10.318077      -280.7692
   5   2.0000     -10.311890      -280.6008
   6   2.0000     -10.310131      -280.5529
   7   2.0000     -10.306191      -280.4457
   8   2.0000     -10.304840      -280.4090
   9   2.0000     -10.299059      -280.2516
  10   2.0000     -10.296054      -280.1699
  11   2.0000     -10.286602      -279.9127
  12   2.0000     -10.286248      -279.9030
  13   2.0000     -10.284177      -279.8467
  14   2.0000     -10.277295      -279.6594
  15   2.0000     -10.275582      -279.6128
  16   2.0000      -8.082651      -219.9401
  17   2.0000      -8.075533      -219.7464
  18   2.0000      -6.041002      -164.3840
  19   2.0000      -6.036905      -164.2725
  20   2.0000      -6.033958      -164.1924
  21   2.0000      -6.033847      -164.1893
  22   2.0000      -6.029845      -164.0804
  23   2.0000      -6.026399      -163.9866
  24   2.0000      -1.006905       -27.3993
  25   2.0000      -0.985409       -26.8143
  26   2.0000      -0.908660       -24.7259
  27   2.0000      -0.888605       -24.1802
  28   2.0000      -0.861656       -23.4469
  29   2.0000      -0.848689       -23.0940
  30   2.0000      -0.846446       -23.0330
  31   2.0000      -0.808757       -22.0074
  32   2.0000      -0.781677       -21.2705
  33   2.0000      -0.768826       -20.9208
  34   2.0000      -0.709113       -19.2959
  35   2.0000      -0.699073       -19.0227
  36   2.0000      -0.687074       -18.6962
  37   2.0000      -0.658139       -17.9089
  38   2.0000      -0.641182       -17.4475
  39   2.0000      -0.609148       -16.5757
  40   2.0000      -0.596109       -16.2210
  41   2.0000      -0.566427       -15.4133
  42   2.0000      -0.555886       -15.1264
  43   2.0000      -0.552537       -15.0353
  44   2.0000      -0.543075       -14.7778
  45   2.0000      -0.514830       -14.0092
  46   2.0000      -0.512017       -13.9327
  47   2.0000      -0.504700       -13.7336
  48   2.0000      -0.497438       -13.5360
  49   2.0000      -0.493897       -13.4396
  50   2.0000      -0.485604       -13.2140
  51   2.0000      -0.482534       -13.1304
  52   2.0000      -0.469347       -12.7716
  53   2.0000      -0.467390       -12.7183
  54   2.0000      -0.459125       -12.4934
  55   2.0000      -0.444060       -12.0835
  56   2.0000      -0.441370       -12.0103
  57   2.0000      -0.437644       -11.9089
  58   2.0000      -0.432579       -11.7711
  59   2.0000      -0.424198       -11.5430
  60   2.0000      -0.418307       -11.3827
  61   2.0000      -0.413651       -11.2560
  62   2.0000      -0.410247       -11.1634
  63   2.0000      -0.335680        -9.1343
  64   2.0000      -0.328200        -8.9308
  65   2.0000      -0.321296        -8.7429
  66   2.0000      -0.308229        -8.3873
  67   0.0000       0.043815         1.1923
  68   0.0000       0.056910         1.5486
  69   0.0000       0.118050         3.2123
  70   0.0000       0.122984         3.3466
  71   0.0000       0.132610         3.6085

MULLIKEN ATOMIC CHARGES
-----------------------
   0 S :    0.134258
   1 C :   -0.113250
   2 C :   -0.097061
   3 C :    0.042020
   4 C :   -0.181257
   5 H :    0.019609
   6 C :    0.043043
   7 H :    0.044695
   8 H :    0.014602
   9 C :   -0.106281
  10 H :    0.050085
  11 H :    0.055495
  12 C :   -0.064441
  13 H :    0.040331
  14 H :    0.021908
  15 H :    0.044187
  16 S :    0.107214
  17 C :   -0.113001
  18 C :   -0.021882
  19 C :   -0.027916
  20 C :   -0.191448
  21 H :    0.018153
  22 C :    0.081209
  23 H :    0.025295
  24 H :    0.011630
  25 C :   -0.043735
  26 H :    0.012736
  27 H :    0.019752
  28 C :   -0.066279
  29 H :    0.036258
  30 H :    0.051524
  31 H :    0.026320
  32 H :    0.042563
  33 H :    0.083662
Sum of atomic charges:    0.0000000

LOEWDIN ATOMIC CHARGES
----------------------
   0 S :    0.438652
   1 C :   -0.217888
   2 C :   -0.061541
   3 C :   -0.059453
   4 C :   -0.207063
   5 H :    0.034111
   6 C :   -0.042846
   7 H :    0.042636
   8 H :    0.024354
   9 C :   -0.032298
  10 H :    0.031256
  11 H :    0.027671
  12 C :   -0.074911
  13 H :    0.030420
  14 H :    0.024806
  15 H :    0.025559
  16 S :    0.408896
  17 C :   -0.193204
  18 C :   -0.081963
  19 C :   -0.053795
  20 C :   -0.201282
  21 H :    0.032744
  22 C :   -0.029158
  23 H :    0.032177
  24 H :    0.024754
  25 C :   -0.038354
  26 H :    0.016810
  27 H :    0.021701
  28 C :   -0.068392
  29 H :    0.032029
  30 H :    0.024368
  31 H :    0.026661
  32 H :    0.019335
  33 H :    0.043206

  Mayer bond orders larger than 0.100000
B(  0-S ,  1-C ) :   1.1648 B(  0-S ,  4-C ) :   1.1887 B(  1-C ,  2-C ) :   1.5585
B(  1-C ,  4-C ) :   0.1128 B(  1-C , 32-H ) :   0.9673 B(  2-C ,  3-C ) :   1.2904
B(  2-C ,  6-C ) :   1.0149 B(  3-C ,  4-C ) :   1.5365 B(  3-C ,  5-H ) :   0.9917
B(  4-C , 20-C ) :   0.9975 B(  6-C ,  7-H ) :   0.9418 B(  6-C ,  8-H ) :   0.9478
B(  6-C ,  9-C ) :   1.0267 B(  9-C , 10-H ) :   0.9571 B(  9-C , 11-H ) :   0.9646
B(  9-C , 12-C ) :   1.0751 B( 12-C , 13-H ) :   0.9763 B( 12-C , 14-H ) :   0.9727
B( 12-C , 15-H ) :   0.9785 B( 16-S , 17-C ) :   1.1744 B( 16-S , 20-C ) :   1.1455
B( 17-C , 18-C ) :   1.5893 B( 17-C , 33-H ) :   0.9582 B( 18-C , 19-C ) :   1.2494
B( 18-C , 21-H ) :   0.9921 B( 19-C , 20-C ) :   1.6162 B( 19-C , 22-C ) :   1.0367
B( 22-C , 23-H ) :   0.9393 B( 22-C , 24-H ) :   0.9301 B( 22-C , 25-C ) :   1.0747
B( 25-C , 26-H ) :   0.9546 B( 25-C , 27-H ) :   0.9525 B( 25-C , 28-C ) :   1.0846
B( 28-C , 29-H ) :   0.9733 B( 28-C , 30-H ) :   0.9725 B( 28-C , 31-H ) :   0.9708

Dispersion correction           -0.014615429
FINAL SINGLE POINT ENERGY     -1339.874288303921

DIPOLE MOMENT
-------------
                                X             Y             Z
Electronic contribution:    -18.48444      -7.30674      16.25793
Nuclear contribution   :     18.86106       7.63003     -16.49428
                        -----------------------------------------
Total Dipole Moment    :      0.37662       0.32329      -0.23635
                        -----------------------------------------
Magnitude (a.u.)       :      0.54975
Magnitude (Debye)      :      1.39735

Rotational constants in cm-1:     0.022815     0.007169     0.006383
Rotational constants in MHz :   683.973001   214.932039   191.348717

                             ****ORCA TERMINATED NORMALLY****
TOTAL RUN TIME: 0 days 0 hours 0 minutes 21 seconds 272 msec
