                         Program Version 4.2.1 -  RELEASE  -
|  1> ! wB97X-D3 SP def2-SVP
|  2> %pal
|  3> nprocs 24
|  4> end
|  5>
|  6> * xyz 0 1
|  7> S 	 -134.67 	 8.92688 	 -8.08043
|  8> C 	 -135.768 	 10.3138 	 -7.94163
|  9> C 	 -137.054 	 9.82682 	 -7.64454
| 10> C 	 -137.114 	 8.39244 	 -7.62606
| 11> C 	 -135.961 	 7.73094 	 -7.86401
| 12> H 	 -138.044 	 7.82721 	 -7.31259
| 13> C 	 -138.23 	 10.8407 	 -7.45163
| 14> H 	 -138.48 	 11.2262 	 -8.37334
| 15> H 	 -137.724 	 11.7126 	 -6.92714
| 16> C 	 -139.442 	 10.3075 	 -6.62679
| 17> H 	 -139.849 	 9.43231 	 -7.11507
| 18> H 	 -139.054 	 10.071 	 -5.6352
| 19> C 	 -140.587 	 11.2484 	 -6.41052
| 20> H 	 -141.506 	 10.7048 	 -5.96173
| 21> H 	 -140.378 	 12.0148 	 -5.66279
| 22> H 	 -140.965 	 11.7847 	 -7.30459
| 23> S 	 -137.116 	 5.31215 	 -8.49105
| 24> C 	 -136.132 	 3.97415 	 -8.79975
| 25> C 	 -134.89 	 4.06397 	 -8.25949
| 26> C 	 -134.622 	 5.436 	 -7.94086
| 27> C 	 -135.744 	 6.26443 	 -8.03662
| 28> H 	 -134.205 	 3.24257 	 -8.08533
| 29> C 	 -133.267 	 5.83072 	 -7.38824
| 30> H 	 -132.82 	 5.03117 	 -6.80176
| 31> H 	 -133.33 	 6.53039 	 -6.55501
| 32> C 	 -132.311 	 6.28904 	 -8.42988
| 33> H 	 -132.776 	 7.04212 	 -9.05887
| 34> H 	 -131.899 	 5.46078 	 -9.021
| 35> C 	 -131.03 	 7.0071 	 -7.88246
| 36> H 	 -131.422 	 7.90906 	 -7.30719
| 37> H 	 -130.333 	 7.248 	 -8.69929
| 38> H 	 -130.426 	 6.42397 	 -7.11503
| 39> H 	 -135.56 	 11.3565 	 -8.11584
| 40> H 	 -136.499 	 3.0117 	 -9.05883
| 41> *
| 42>
| 43>                          ****END OF INPUT****

CARTESIAN COORDINATES (ANGSTROEM)
---------------------------------
  S    -134.670000    8.926880   -8.080430
  C    -135.768000   10.313800   -7.941630
  C    -137.054000    9.826820   -7.644540
  C    -137.114000    8.392440   -7.626060
  C    -135.961000    7.730940   -7.864010
  H    -138.044000    7.827210   -7.312590
  C    -138.230000   10.840700   -7.451630
  H    -138.480000   11.226200   -8.373340
  H    -137.724000   11.712600   -6.927140
  C    -139.442000   10.307500   -6.626790
  H    -139.849000    9.432310   -7.115070
  H    -139.054000   10.071000   -5.635200
  C    -140.587000   11.248400   -6.410520
  H    -141.506000   10.704800   -5.961730
  H    -140.378000   12.014800   -5.662790
  H    -140.965000   11.784700   -7.304590
  S    -137.116000    5.312150   -8.491050
  C    -136.132000    3.974150   -8.799750
  C    -134.890000    4.063970   -8.259490
  C    -134.622000    5.436000   -7.940860
  C    -135.744000    6.264430   -8.036620
  H    -134.205000    3.242570   -8.085330
  C    -133.267000    5.830720   -7.388240
  H    -132.820000    5.031170   -6.801760
  H    -133.330000    6.530390   -6.555010
  C    -132.311000    6.289040   -8.429880
  H    -132.776000    7.042120   -9.058870
  H    -131.899000    5.460780   -9.021000
  C    -131.030000    7.007100   -7.882460
  H    -131.422000    7.909060   -7.307190
  H    -130.333000    7.248000   -8.699290
  H    -130.426000    6.423970   -7.115030
  H    -135.560000   11.356500   -8.115840
  H    -136.499000    3.011700   -9.058830

 Total Charge           Charge          ....    0
 Multiplicity           Mult            ....    1
 Number of Electrons    NEL             ....  134
 Basis Dimension        Dim             ....  322

ORBITAL ENERGIES
----------------

  NO   OCC          E(Eh)            E(eV)
   0   2.0000     -88.968237     -2420.9488
   1   2.0000     -88.967272     -2420.9226
   2   2.0000     -10.336154      -281.2611
   3   2.0000     -10.331304      -281.1291
   4   2.0000     -10.317043      -280.7410
   5   2.0000     -10.309558      -280.5373
   6   2.0000     -10.307762      -280.4885
   7   2.0000     -10.304608      -280.4026
   8   2.0000     -10.296858      -280.1918
   9   2.0000     -10.296752      -280.1889
  10   2.0000     -10.293104      -280.0896
  11   2.0000     -10.289404      -279.9889
  12   2.0000     -10.285234      -279.8755
  13   2.0000     -10.285181      -279.8740
  14   2.0000     -10.283595      -279.8309
  15   2.0000     -10.280220      -279.7390
  16   2.0000      -8.084357      -219.9865
  17   2.0000      -8.080470      -219.8808
  18   2.0000      -6.042844      -164.4341
  19   2.0000      -6.039252      -164.3364
  20   2.0000      -6.038821      -164.3247
  21   2.0000      -6.035102      -164.2235
  22   2.0000      -6.034919      -164.2185
  23   2.0000      -6.031127      -164.1153
  24   2.0000      -1.013265       -27.5723
  25   2.0000      -0.986361       -26.8403
  26   2.0000      -0.911884       -24.8136
  27   2.0000      -0.907242       -24.6873
  28   2.0000      -0.872172       -23.7330
  29   2.0000      -0.849762       -23.1232
  30   2.0000      -0.841374       -22.8950
  31   2.0000      -0.820117       -22.3165
  32   2.0000      -0.780713       -21.2443
  33   2.0000      -0.768438       -20.9103
  34   2.0000      -0.709061       -19.2945
  35   2.0000      -0.691207       -18.8087
  36   2.0000      -0.686216       -18.6729
  37   2.0000      -0.671836       -18.2816
  38   2.0000      -0.629695       -17.1349
  39   2.0000      -0.618660       -16.8346
  40   2.0000      -0.604653       -16.4534
  41   2.0000      -0.574159       -15.6236
  42   2.0000      -0.565863       -15.3979
  43   2.0000      -0.562222       -15.2988
  44   2.0000      -0.528567       -14.3830
  45   2.0000      -0.522539       -14.2190
  46   2.0000      -0.516684       -14.0597
  47   2.0000      -0.511213       -13.9108
  48   2.0000      -0.501554       -13.6480
  49   2.0000      -0.500531       -13.6202
  50   2.0000      -0.490041       -13.3347
  51   2.0000      -0.482223       -13.1220
  52   2.0000      -0.473276       -12.8785
  53   2.0000      -0.462770       -12.5926
  54   2.0000      -0.459787       -12.5114
  55   2.0000      -0.452440       -12.3115
  56   2.0000      -0.442207       -12.0331
  57   2.0000      -0.436514       -11.8781
  58   2.0000      -0.430401       -11.7118
  59   2.0000      -0.419824       -11.4240
  60   2.0000      -0.416796       -11.3416
  61   2.0000      -0.410400       -11.1675
  62   2.0000      -0.404184       -10.9984
  63   2.0000      -0.361824        -9.8457
  64   2.0000      -0.332568        -9.0496
  65   2.0000      -0.329324        -8.9614
  66   2.0000      -0.285775        -7.7763
  67   0.0000       0.023076         0.6279
  68   0.0000       0.075725         2.0606
  69   0.0000       0.100838         2.7440
  70   0.0000       0.124794         3.3958
  71   0.0000       0.134013         3.6467

MULLIKEN ATOMIC CHARGES
-----------------------
   0 S :    0.088142
   1 C :   -0.117530
   2 C :   -0.103969
   3 C :   -0.048762
   4 C :   -0.071036
   5 H :    0.039103
   6 C :    0.073858
   7 H :    0.021406
   8 H :    0.032088
   9 C :   -0.073697
  10 H :    0.040104
  11 H :    0.037116
  12 C :   -0.075046
  13 H :    0.041345
  14 H :    0.029649
  15 H :    0.034390
  16 S :    0.113228
  17 C :   -0.053005
  18 C :   -0.028035
  19 C :   -0.073725
  20 C :   -0.122466
  21 H :    0.025497
  22 C :    0.047259
  23 H :    0.010199
  24 H :    0.018265
  25 C :   -0.062797
  26 H :    0.037752
  27 H :    0.030977
  28 C :   -0.098075
  29 H :    0.039459
  30 H :    0.046589
  31 H :    0.031655
  32 H :    0.048664
  33 H :    0.041399
Sum of atomic charges:    0.0000000

LOEWDIN ATOMIC CHARGES
----------------------
   0 S :    0.397253
   1 C :   -0.196355
   2 C :   -0.056829
   3 C :   -0.093665
   4 C :   -0.174491
   5 H :    0.037920
   6 C :   -0.024512
   7 H :    0.017603
   8 H :    0.038253
   9 C :   -0.045113
  10 H :    0.024678
  11 H :    0.031139
  12 C :   -0.075374
  13 H :    0.037446
  14 H :    0.022614
  15 H :    0.025115
  16 S :    0.444348
  17 C :   -0.194537
  18 C :   -0.064168
  19 C :   -0.051496
  20 C :   -0.200624
  21 H :    0.035564
  22 C :   -0.045829
  23 H :    0.031520
  24 H :    0.026868
  25 C :   -0.044511
  26 H :    0.017169
  27 H :    0.024931
  28 C :   -0.076613
  29 H :    0.027962
  30 H :    0.027441
  31 H :    0.023754
  32 H :    0.030253
  33 H :    0.022287

  Mayer bond orders larger than 0.100000
B(  0-S ,  1-C ) :   1.1278 B(  0-S ,  4-C ) :   1.1331 B(  1-C ,  2-C ) :   1.6164
B(  1-C , 32-H ) :   0.9727 B(  2-C ,  3-C ) :   1.2619 B(  2-C ,  6-C ) :   0.9951
B(  3-C ,  4-C ) :   1.5862 B(  3-C ,  5-H ) :   0.9718 B(  4-C , 20-C ) :   1.0484
B(  6-C ,  7-H ) :   0.9408 B(  6-C ,  8-H ) :   0.9470 B(  6-C ,  9-C ) :   1.0663
B(  9-C , 10-H ) :   0.9501 B(  9-C , 11-H ) :   0.9573 B(  9-C , 12-C ) :   1.0951
B( 12-C , 13-H ) :   0.9720 B( 12-C , 14-H ) :   0.9743 B( 12-C , 15-H ) :   0.9731
B( 16-S , 17-C ) :   1.1802 B( 16-S , 20-C ) :   1.1427 B( 17-C , 18-C ) :   1.5907
B( 17-C , 33-H ) :   0.9636 B( 18-C , 19-C ) :   1.2627 B( 18-C , 21-H ) :   0.9914
B( 19-C , 20-C ) :   1.5732 B( 19-C , 22-C ) :   1.0412 B( 22-C , 23-H ) :   0.9289
B( 22-C , 24-H ) :   0.9420 B( 22-C , 25-C ) :   1.0605 B( 25-C , 26-H ) :   0.9546
B( 25-C , 27-H ) :   0.9528 B( 25-C , 28-C ) :   1.0760 B( 28-C , 29-H ) :   0.9743
B( 28-C , 30-H ) :   0.9752 B( 28-C , 31-H ) :   0.9752

Dispersion correction           -0.013850226
FINAL SINGLE POINT ENERGY     -1339.871365175203

DIPOLE MOMENT
-------------
                                X             Y             Z
Electronic contribution:     -0.59815     -10.97742      -6.66181
Nuclear contribution   :      0.41731      10.96427       6.87129
                        -----------------------------------------
Total Dipole Moment    :     -0.18084      -0.01315       0.20949
                        -----------------------------------------
Magnitude (a.u.)       :      0.27706
Magnitude (Debye)      :      0.70423

Rotational constants in cm-1:     0.021242     0.007906     0.005974
Rotational constants in MHz :   636.815353   237.014732   179.105374

                             ****ORCA TERMINATED NORMALLY****
TOTAL RUN TIME: 0 days 0 hours 0 minutes 21 seconds 84 msec
