                         Program Version 4.2.1 -  RELEASE  -
|  1> ! wB97X-D3 SP def2-SVP
|  2> %pal
|  3> nprocs 24
|  4> end
|  5>
|  6> * xyz 0 1
|  7> S 	 -107.388 	 21.5673 	 -118.529
|  8> C 	 -106.819 	 20.3334 	 -117.46
|  9> C 	 -105.793 	 20.8246 	 -116.642
| 10> C 	 -105.477 	 22.2403 	 -116.931
| 11> C 	 -106.426 	 22.8294 	 -117.778
| 12> H 	 -104.759 	 22.8036 	 -116.384
| 13> C 	 -105.151 	 20.0155 	 -115.487
| 14> H 	 -105.9 	 19.8546 	 -114.666
| 15> H 	 -104.376 	 20.6051 	 -115.011
| 16> C 	 -104.526 	 18.6695 	 -115.942
| 17> H 	 -105.343 	 18.188 	 -116.531
| 18> H 	 -103.689 	 18.8176 	 -116.664
| 19> C 	 -103.947 	 17.7318 	 -114.8
| 20> H 	 -103.267 	 18.1985 	 -114.068
| 21> H 	 -104.692 	 17.222 	 -114.287
| 22> H 	 -103.393 	 17.0238 	 -115.467
| 23> S 	 -108.378 	 24.8282 	 -117.8
| 24> C 	 -107.908 	 26.4646 	 -118.037
| 25> C 	 -106.54 	 26.5352 	 -118.281
| 26> C 	 -105.88 	 25.2881 	 -118.167
| 27> C 	 -106.715 	 24.2361 	 -118.012
| 28> H 	 -106.103 	 27.4786 	 -118.575
| 29> C 	 -104.376 	 25.1949 	 -118.331
| 30> H 	 -104.132 	 24.1369 	 -118.273
| 31> H 	 -103.949 	 25.4968 	 -117.478
| 32> C 	 -103.69 	 25.8943 	 -119.55
| 33> H 	 -103.961 	 26.9888 	 -119.654
| 34> H 	 -104.062 	 25.4439 	 -120.526
| 35> C 	 -102.223 	 25.6983 	 -119.54
| 36> H 	 -101.936 	 24.6404 	 -119.525
| 37> H 	 -101.832 	 26.0679 	 -118.581
| 38> H 	 -101.699 	 26.2092 	 -120.362
| 39> H 	 -107.147 	 19.3705 	 -117.373
| 40> H 	 -108.568 	 27.3146 	 -117.898
| 41> *
| 42>
| 43>                          ****END OF INPUT****

CARTESIAN COORDINATES (ANGSTROEM)
---------------------------------
  S    -107.388000   21.567300  -118.529000
  C    -106.819000   20.333400  -117.460000
  C    -105.793000   20.824600  -116.642000
  C    -105.477000   22.240300  -116.931000
  C    -106.426000   22.829400  -117.778000
  H    -104.759000   22.803600  -116.384000
  C    -105.151000   20.015500  -115.487000
  H    -105.900000   19.854600  -114.666000
  H    -104.376000   20.605100  -115.011000
  C    -104.526000   18.669500  -115.942000
  H    -105.343000   18.188000  -116.531000
  H    -103.689000   18.817600  -116.664000
  C    -103.947000   17.731800  -114.800000
  H    -103.267000   18.198500  -114.068000
  H    -104.692000   17.222000  -114.287000
  H    -103.393000   17.023800  -115.467000
  S    -108.378000   24.828200  -117.800000
  C    -107.908000   26.464600  -118.037000
  C    -106.540000   26.535200  -118.281000
  C    -105.880000   25.288100  -118.167000
  C    -106.715000   24.236100  -118.012000
  H    -106.103000   27.478600  -118.575000
  C    -104.376000   25.194900  -118.331000
  H    -104.132000   24.136900  -118.273000
  H    -103.949000   25.496800  -117.478000
  C    -103.690000   25.894300  -119.550000
  H    -103.961000   26.988800  -119.654000
  H    -104.062000   25.443900  -120.526000
  C    -102.223000   25.698300  -119.540000
  H    -101.936000   24.640400  -119.525000
  H    -101.832000   26.067900  -118.581000
  H    -101.699000   26.209200  -120.362000
  H    -107.147000   19.370500  -117.373000
  H    -108.568000   27.314600  -117.898000

 Total Charge           Charge          ....    0
 Multiplicity           Mult            ....    1
 Number of Electrons    NEL             ....  134
 Basis Dimension        Dim             ....  322

ORBITAL ENERGIES
----------------

  NO   OCC          E(Eh)            E(eV)
   0   2.0000     -88.966000     -2420.8879
   1   2.0000     -88.964334     -2420.8426
   2   2.0000     -10.334566      -281.2178
   3   2.0000     -10.325299      -280.9657
   4   2.0000     -10.318412      -280.7783
   5   2.0000     -10.308523      -280.5092
   6   2.0000     -10.307818      -280.4900
   7   2.0000     -10.300556      -280.2924
   8   2.0000     -10.299038      -280.2511
   9   2.0000     -10.297233      -280.2019
  10   2.0000     -10.296820      -280.1907
  11   2.0000     -10.294856      -280.1373
  12   2.0000     -10.292027      -280.0603
  13   2.0000     -10.283187      -279.8197
  14   2.0000     -10.283031      -279.8155
  15   2.0000     -10.277911      -279.6762
  16   2.0000      -8.080805      -219.8899
  17   2.0000      -8.079325      -219.8496
  18   2.0000      -6.039446      -164.3417
  19   2.0000      -6.037858      -164.2985
  20   2.0000      -6.035178      -164.2255
  21   2.0000      -6.033735      -164.1863
  22   2.0000      -6.031553      -164.1269
  23   2.0000      -6.030087      -164.0870
  24   2.0000      -1.007942       -27.4275
  25   2.0000      -0.983224       -26.7549
  26   2.0000      -0.911968       -24.8159
  27   2.0000      -0.901627       -24.5345
  28   2.0000      -0.870258       -23.6809
  29   2.0000      -0.855520       -23.2799
  30   2.0000      -0.841754       -22.9053
  31   2.0000      -0.813810       -22.1449
  32   2.0000      -0.785057       -21.3625
  33   2.0000      -0.773347       -21.0438
  34   2.0000      -0.705570       -19.1995
  35   2.0000      -0.701478       -19.0882
  36   2.0000      -0.695424       -18.9235
  37   2.0000      -0.661906       -18.0114
  38   2.0000      -0.643444       -17.5090
  39   2.0000      -0.615951       -16.7609
  40   2.0000      -0.599650       -16.3173
  41   2.0000      -0.570615       -15.5272
  42   2.0000      -0.562159       -15.2971
  43   2.0000      -0.556280       -15.1372
  44   2.0000      -0.534279       -14.5385
  45   2.0000      -0.525104       -14.2888
  46   2.0000      -0.519685       -14.1413
  47   2.0000      -0.512075       -13.9343
  48   2.0000      -0.510107       -13.8807
  49   2.0000      -0.502944       -13.6858
  50   2.0000      -0.491306       -13.3691
  51   2.0000      -0.478807       -13.0290
  52   2.0000      -0.471928       -12.8418
  53   2.0000      -0.468174       -12.7397
  54   2.0000      -0.460511       -12.5311
  55   2.0000      -0.449122       -12.2212
  56   2.0000      -0.445983       -12.1358
  57   2.0000      -0.435237       -11.8434
  58   2.0000      -0.433941       -11.8081
  59   2.0000      -0.422646       -11.5008
  60   2.0000      -0.417772       -11.3682
  61   2.0000      -0.411832       -11.2065
  62   2.0000      -0.410690       -11.1754
  63   2.0000      -0.351899        -9.5757
  64   2.0000      -0.332443        -9.0462
  65   2.0000      -0.324828        -8.8390
  66   2.0000      -0.290063        -7.8930
  67   0.0000       0.027488         0.7480
  68   0.0000       0.070619         1.9216
  69   0.0000       0.111755         3.0410
  70   0.0000       0.125370         3.4115
  71   0.0000       0.130981         3.5642

MULLIKEN ATOMIC CHARGES
-----------------------
   0 S :    0.115863
   1 C :   -0.075553
   2 C :   -0.120429
   3 C :    0.058673
   4 C :   -0.180020
   5 H :    0.004268
   6 C :    0.069373
   7 H :    0.048245
   8 H :    0.010806
   9 C :   -0.137665
  10 H :    0.031075
  11 H :    0.040660
  12 C :   -0.035093
  13 H :    0.043155
  14 H :    0.026343
  15 H :    0.040446
  16 S :    0.107671
  17 C :   -0.096103
  18 C :   -0.041084
  19 C :   -0.035779
  20 C :   -0.126840
  21 H :    0.016062
  22 C :    0.126969
  23 H :    0.005370
  24 H :   -0.009883
  25 C :   -0.093422
  26 H :    0.038391
  27 H :    0.038676
  28 C :   -0.039596
  29 H :    0.030037
  30 H :    0.016344
  31 H :    0.043474
  32 H :    0.014741
  33 H :    0.064823
Sum of atomic charges:    0.0000000

LOEWDIN ATOMIC CHARGES
----------------------
   0 S :    0.414642
   1 C :   -0.197081
   2 C :   -0.054238
   3 C :   -0.061622
   4 C :   -0.185869
   5 H :    0.022992
   6 C :   -0.040054
   7 H :    0.038222
   8 H :    0.023324
   9 C :   -0.044484
  10 H :    0.024128
  11 H :    0.027887
  12 C :   -0.063747
  13 H :    0.028788
  14 H :    0.013561
  15 H :    0.036913
  16 S :    0.409335
  17 C :   -0.188502
  18 C :   -0.072587
  19 C :   -0.052175
  20 C :   -0.197342
  21 H :    0.029108
  22 C :   -0.024215
  23 H :    0.032262
  24 H :    0.014002
  25 C :   -0.044412
  26 H :    0.026967
  27 H :    0.031326
  28 C :   -0.069222
  29 H :    0.027031
  30 H :    0.022269
  31 H :    0.030552
  32 H :    0.009171
  33 H :    0.033072

  Mayer bond orders larger than 0.100000
B(  0-S ,  1-C ) :   1.1315 B(  0-S ,  4-C ) :   1.1590 B(  1-C ,  2-C ) :   1.6067
B(  1-C , 32-H ) :   0.9802 B(  2-C ,  3-C ) :   1.2478 B(  2-C ,  6-C ) :   1.0187
B(  3-C ,  4-C ) :   1.5524 B(  3-C ,  5-H ) :   0.9897 B(  4-C , 20-C ) :   1.0428
B(  6-C ,  7-H ) :   0.9458 B(  6-C ,  8-H ) :   0.9419 B(  6-C ,  9-C ) :   1.0508
B(  9-C , 10-H ) :   0.9604 B(  9-C , 11-H ) :   0.9649 B(  9-C , 12-C ) :   1.0602
B( 12-C , 13-H ) :   0.9774 B( 12-C , 14-H ) :   0.9783 B( 12-C , 15-H ) :   0.9787
B( 16-S , 17-C ) :   1.1731 B( 16-S , 20-C ) :   1.1215 B( 17-C , 18-C ) :   1.5855
B( 17-C , 33-H ) :   0.9677 B( 18-C , 19-C ) :   1.2422 B( 18-C , 21-H ) :   0.9958
B( 19-C , 20-C ) :   1.6129 B( 19-C , 22-C ) :   1.0377 B( 22-C , 23-H ) :   0.9218
B( 22-C , 24-H ) :   0.9154 B( 22-C , 25-C ) :   1.0532 B( 25-C , 26-H ) :   0.9517
B( 25-C , 27-H ) :   0.9539 B( 25-C , 28-C ) :   1.0922 B( 28-C , 29-H ) :   0.9719
B( 28-C , 30-H ) :   0.9704 B( 28-C , 31-H ) :   0.9713

Dispersion correction           -0.013223395
FINAL SINGLE POINT ENERGY     -1339.868718470206

DIPOLE MOMENT
-------------
                                X             Y             Z
Electronic contribution:    -26.19333       8.00895      -5.72233
Nuclear contribution   :     26.74832      -7.91271       6.06860
                        -----------------------------------------
Total Dipole Moment    :      0.55499       0.09624       0.34627
                        -----------------------------------------
Magnitude (a.u.)       :      0.66120
Magnitude (Debye)      :      1.68063

Rotational constants in cm-1:     0.018917     0.007347     0.005824
Rotational constants in MHz :   567.108781   220.248958   174.606196

                             ****ORCA TERMINATED NORMALLY****
TOTAL RUN TIME: 0 days 0 hours 0 minutes 20 seconds 598 msec
