                         Program Version 4.2.1 -  RELEASE  -
|  1> ! wB97X-D3 SP def2-SVP
|  2> %pal
|  3> nprocs 24
|  4> end
|  5>
|  6> * xyz 0 1
|  7> S 	 -34.3953 	 -47.3264 	 -76.0251
|  8> C 	 -33.3415 	 -46.5339 	 -77.1772
|  9> C 	 -32.077 	 -46.3855 	 -76.6832
| 10> C 	 -31.995 	 -46.8426 	 -75.3599
| 11> C 	 -33.1928 	 -47.2394 	 -74.8525
| 12> H 	 -31.103 	 -46.6291 	 -74.6705
| 13> C 	 -30.95 	 -45.7359 	 -77.5347
| 14> H 	 -29.9641 	 -45.6963 	 -77.0498
| 15> H 	 -31.2607 	 -44.6862 	 -77.5615
| 16> C 	 -30.7512 	 -46.1514 	 -78.9989
| 17> H 	 -31.615 	 -45.886 	 -79.6285
| 18> H 	 -29.8293 	 -45.6231 	 -79.3429
| 19> C 	 -30.585 	 -47.6878 	 -79.0091
| 20> H 	 -31.507 	 -48.1457 	 -78.7629
| 21> H 	 -30.2173 	 -48.1238 	 -79.9395
| 22> H 	 -29.9214 	 -48.0855 	 -78.2681
| 23> S 	 -34.1577 	 -49.3609 	 -73.3963
| 24> C 	 -34.022 	 -49.2826 	 -71.6276
| 25> C 	 -33.5815 	 -48.0599 	 -71.1906
| 26> C 	 -33.2368 	 -47.1502 	 -72.2781
| 27> C 	 -33.3875 	 -47.7778 	 -73.5263
| 28> H 	 -33.5268 	 -47.8989 	 -70.1261
| 29> C 	 -32.735 	 -45.7802 	 -71.9563
| 30> H 	 -32.8454 	 -45.1825 	 -72.8364
| 31> H 	 -31.7056 	 -45.6982 	 -71.5975
| 32> C 	 -33.5972 	 -45.1854 	 -70.9619
| 33> H 	 -33.4888 	 -45.7767 	 -70.0947
| 34> H 	 -34.6623 	 -45.2937 	 -71.3278
| 35> C 	 -33.283 	 -43.6655 	 -70.8049
| 36> H 	 -33.5275 	 -43.2061 	 -71.7595
| 37> H 	 -32.2023 	 -43.4218 	 -70.69
| 38> H 	 -33.7964 	 -43.1601 	 -70.0141
| 39> H 	 -33.6556 	 -46.2492 	 -78.2019
| 40> H 	 -34.2275 	 -50.0243 	 -70.8976
| 41> *
| 42>
| 43>                          ****END OF INPUT****

CARTESIAN COORDINATES (ANGSTROEM)
---------------------------------
  S    -34.395300  -47.326400  -76.025100
  C    -33.341500  -46.533900  -77.177200
  C    -32.077000  -46.385500  -76.683200
  C    -31.995000  -46.842600  -75.359900
  C    -33.192800  -47.239400  -74.852500
  H    -31.103000  -46.629100  -74.670500
  C    -30.950000  -45.735900  -77.534700
  H    -29.964100  -45.696300  -77.049800
  H    -31.260700  -44.686200  -77.561500
  C    -30.751200  -46.151400  -78.998900
  H    -31.615000  -45.886000  -79.628500
  H    -29.829300  -45.623100  -79.342900
  C    -30.585000  -47.687800  -79.009100
  H    -31.507000  -48.145700  -78.762900
  H    -30.217300  -48.123800  -79.939500
  H    -29.921400  -48.085500  -78.268100
  S    -34.157700  -49.360900  -73.396300
  C    -34.022000  -49.282600  -71.627600
  C    -33.581500  -48.059900  -71.190600
  C    -33.236800  -47.150200  -72.278100
  C    -33.387500  -47.777800  -73.526300
  H    -33.526800  -47.898900  -70.126100
  C    -32.735000  -45.780200  -71.956300
  H    -32.845400  -45.182500  -72.836400
  H    -31.705600  -45.698200  -71.597500
  C    -33.597200  -45.185400  -70.961900
  H    -33.488800  -45.776700  -70.094700
  H    -34.662300  -45.293700  -71.327800
  C    -33.283000  -43.665500  -70.804900
  H    -33.527500  -43.206100  -71.759500
  H    -32.202300  -43.421800  -70.690000
  H    -33.796400  -43.160100  -70.014100
  H    -33.655600  -46.249200  -78.201900
  H    -34.227500  -50.024300  -70.897600

 Total Charge           Charge          ....    0
 Multiplicity           Mult            ....    1
 Number of Electrons    NEL             ....  134
 Basis Dimension        Dim             ....  322

ORBITAL ENERGIES
----------------

  NO   OCC          E(Eh)            E(eV)
   0   2.0000     -88.967325     -2420.9240
   1   2.0000     -88.966445     -2420.9000
   2   2.0000     -10.327527      -281.0263
   3   2.0000     -10.320238      -280.8280
   4   2.0000     -10.314497      -280.6717
   5   2.0000     -10.311824      -280.5990
   6   2.0000     -10.305041      -280.4144
   7   2.0000     -10.300726      -280.2970
   8   2.0000     -10.295423      -280.1527
   9   2.0000     -10.294475      -280.1269
  10   2.0000     -10.293137      -280.0905
  11   2.0000     -10.292916      -280.0845
  12   2.0000     -10.280230      -279.7393
  13   2.0000     -10.279970      -279.7322
  14   2.0000     -10.278964      -279.7048
  15   2.0000     -10.266751      -279.3725
  16   2.0000      -8.083410      -219.9608
  17   2.0000      -8.080527      -219.8823
  18   2.0000      -6.041724      -164.4037
  19   2.0000      -6.039211      -164.3353
  20   2.0000      -6.037730      -164.2950
  21   2.0000      -6.035256      -164.2277
  22   2.0000      -6.034300      -164.2017
  23   2.0000      -6.031008      -164.1121
  24   2.0000      -1.016772       -27.6678
  25   2.0000      -0.984202       -26.7815
  26   2.0000      -0.926529       -25.2121
  27   2.0000      -0.911963       -24.8158
  28   2.0000      -0.869884       -23.6708
  29   2.0000      -0.850886       -23.1538
  30   2.0000      -0.841405       -22.8958
  31   2.0000      -0.813224       -22.1289
  32   2.0000      -0.785011       -21.3612
  33   2.0000      -0.773635       -21.0517
  34   2.0000      -0.705520       -19.1982
  35   2.0000      -0.702081       -19.1046
  36   2.0000      -0.699303       -19.0290
  37   2.0000      -0.652326       -17.7507
  38   2.0000      -0.635866       -17.3028
  39   2.0000      -0.614689       -16.7265
  40   2.0000      -0.600960       -16.3529
  41   2.0000      -0.580638       -15.8000
  42   2.0000      -0.578094       -15.7307
  43   2.0000      -0.549099       -14.9417
  44   2.0000      -0.541959       -14.7475
  45   2.0000      -0.521680       -14.1956
  46   2.0000      -0.516245       -14.0477
  47   2.0000      -0.507676       -13.8146
  48   2.0000      -0.500674       -13.6240
  49   2.0000      -0.496621       -13.5138
  50   2.0000      -0.486153       -13.2289
  51   2.0000      -0.477492       -12.9932
  52   2.0000      -0.470478       -12.8024
  53   2.0000      -0.463189       -12.6040
  54   2.0000      -0.460039       -12.5183
  55   2.0000      -0.452629       -12.3167
  56   2.0000      -0.444418       -12.0932
  57   2.0000      -0.433948       -11.8083
  58   2.0000      -0.432460       -11.7678
  59   2.0000      -0.427167       -11.6238
  60   2.0000      -0.421294       -11.4640
  61   2.0000      -0.419290       -11.4095
  62   2.0000      -0.418857       -11.3977
  63   2.0000      -0.346289        -9.4230
  64   2.0000      -0.335179        -9.1207
  65   2.0000      -0.329089        -8.9550
  66   2.0000      -0.292378        -7.9560
  67   0.0000       0.034956         0.9512
  68   0.0000       0.067327         1.8321
  69   0.0000       0.105557         2.8724
  70   0.0000       0.125611         3.4180
  71   0.0000       0.134415         3.6576

MULLIKEN ATOMIC CHARGES
-----------------------
   0 S :    0.123245
   1 C :   -0.153007
   2 C :   -0.067360
   3 C :   -0.004798
   4 C :   -0.163842
   5 H :    0.042846
   6 C :    0.041194
   7 H :    0.027811
   8 H :    0.038949
   9 C :   -0.076498
  10 H :    0.036067
  11 H :    0.042882
  12 C :   -0.029526
  13 H :    0.025447
  14 H :    0.028352
  15 H :    0.016027
  16 S :    0.101179
  17 C :   -0.068551
  18 C :   -0.048769
  19 C :   -0.047722
  20 C :   -0.151452
  21 H :    0.023190
  22 C :    0.134392
  23 H :    0.004911
  24 H :    0.034872
  25 C :   -0.136029
  26 H :    0.021232
  27 H :    0.046329
  28 C :   -0.016753
  29 H :    0.024572
  30 H :    0.023416
  31 H :    0.034147
  32 H :    0.054344
  33 H :    0.038903
Sum of atomic charges:   -0.0000000

LOEWDIN ATOMIC CHARGES
----------------------
   0 S :    0.435569
   1 C :   -0.205171
   2 C :   -0.063790
   3 C :   -0.075120
   4 C :   -0.218649
   5 H :    0.046506
   6 C :   -0.036152
   7 H :    0.030887
   8 H :    0.036312
   9 C :   -0.038688
  10 H :    0.023541
  11 H :    0.032503
  12 C :   -0.066894
  13 H :    0.021669
  14 H :    0.022804
  15 H :    0.022424
  16 S :    0.382741
  17 C :   -0.173333
  18 C :   -0.067665
  19 C :   -0.048934
  20 C :   -0.189712
  21 H :    0.030869
  22 C :   -0.035130
  23 H :    0.025711
  24 H :    0.032648
  25 C :   -0.040237
  26 H :    0.011923
  27 H :    0.035260
  28 C :   -0.063320
  29 H :    0.026466
  30 H :    0.026630
  31 H :    0.021863
  32 H :    0.031273
  33 H :    0.025195

  Mayer bond orders larger than 0.100000
B(  0-S ,  1-C ) :   1.1395 B(  0-S ,  4-C ) :   1.1739 B(  1-C ,  2-C ) :   1.5984
B(  1-C , 32-H ) :   0.9668 B(  2-C ,  3-C ) :   1.2789 B(  2-C ,  6-C ) :   0.9925
B(  3-C ,  4-C ) :   1.5613 B(  3-C ,  5-H ) :   0.9814 B(  4-C , 20-C ) :   1.0378
B(  6-C ,  7-H ) :   0.9501 B(  6-C ,  8-H ) :   0.9366 B(  6-C ,  9-C ) :   1.0809
B(  9-C , 10-H ) :   0.9529 B(  9-C , 11-H ) :   0.9550 B(  9-C , 12-C ) :   1.0751
B( 12-C , 13-H ) :   0.9686 B( 12-C , 14-H ) :   0.9764 B( 12-C , 15-H ) :   0.9750
B( 16-S , 17-C ) :   1.1242 B( 16-S , 20-C ) :   1.1256 B( 17-C , 18-C ) :   1.6765
B( 17-C , 33-H ) :   0.9647 B( 18-C , 19-C ) :   1.1892 B( 18-C , 21-H ) :   0.9841
B( 19-C , 20-C ) :   1.6235 B( 19-C , 22-C ) :   1.0457 B( 22-C , 23-H ) :   0.9222
B( 22-C , 24-H ) :   0.9274 B( 22-C , 25-C ) :   1.0579 B( 25-C , 26-H ) :   0.9524
B( 25-C , 27-H ) :   0.9574 B( 25-C , 28-C ) :   1.0757 B( 28-C , 29-H ) :   0.9725
B( 28-C , 30-H ) :   0.9714 B( 28-C , 31-H ) :   0.9757

Dispersion correction           -0.013988941
FINAL SINGLE POINT ENERGY     -1339.871673054253

DIPOLE MOMENT
-------------
                                X             Y             Z
Electronic contribution:    -13.94770     -16.72842       1.60395
Nuclear contribution   :     14.33284      17.20036      -1.45843
                        -----------------------------------------
Total Dipole Moment    :      0.38515       0.47194       0.14551
                        -----------------------------------------
Magnitude (a.u.)       :      0.62629
Magnitude (Debye)      :      1.59190

Rotational constants in cm-1:     0.020905     0.007861     0.006445
Rotational constants in MHz :   626.728882   235.666400   193.229820

                             ****ORCA TERMINATED NORMALLY****
TOTAL RUN TIME: 0 days 0 hours 0 minutes 21 seconds 570 msec
