                         Program Version 4.2.1 -  RELEASE  -
|  1> ! wB97X-D3 SP def2-SVP
|  2> %pal
|  3> nprocs 24
|  4> end
|  5>
|  6> * xyz 0 1
|  7> S 	 24.0734 	 -2.74692 	 -109.462
|  8> C 	 23.3325 	 -4.03762 	 -110.273
|  9> C 	 22.8077 	 -3.56132 	 -111.474
| 10> C 	 22.9663 	 -2.1598 	 -111.67
| 11> C 	 23.755 	 -1.56157 	 -110.7
| 12> H 	 22.766 	 -1.65434 	 -112.55
| 13> C 	 22.0619 	 -4.46231 	 -112.472
| 14> H 	 22.0147 	 -5.47873 	 -112.115
| 15> H 	 22.6482 	 -4.48488 	 -113.413
| 16> C 	 20.6111 	 -3.93023 	 -112.927
| 17> H 	 19.9703 	 -3.9667 	 -112.063
| 18> H 	 20.7549 	 -2.84076 	 -113.251
| 19> C 	 19.8546 	 -4.6917 	 -113.975
| 20> H 	 18.8801 	 -4.26806 	 -114.177
| 21> H 	 20.3156 	 -4.82361 	 -114.996
| 22> H 	 19.5445 	 -5.67302 	 -113.52
| 23> S 	 23.3474 	 0.7286 	 -109.203
| 24> C 	 24.1205 	 2.17458 	 -109.739
| 25> C 	 24.6025 	 2.03854 	 -111.012
| 26> C 	 24.5185 	 0.732321 	 -111.576
| 27> C 	 23.9616 	 -0.15455 	 -110.628
| 28> H 	 25.0504 	 2.87726 	 -111.607
| 29> C 	 25.2177 	 0.393244 	 -112.877
| 30> H 	 25.1734 	 1.18346 	 -113.674
| 31> H 	 24.5324 	 -0.29534 	 -113.347
| 32> C 	 26.723 	 0.00813827 	 -112.897
| 33> H 	 27.4075 	 0.855484 	 -112.573
| 34> H 	 27.0115 	 -0.114212 	 -113.917
| 35> C 	 27.0694 	 -1.28642 	 -112.098
| 36> H 	 27.1887 	 -1.20598 	 -111.01
| 37> H 	 27.9509 	 -1.76184 	 -112.454
| 38> H 	 26.2842 	 -2.04563 	 -112.27
| 39> H 	 23.3246 	 -5.09948 	 -110.021
| 40> H 	 24.1591 	 3.09705 	 -109.209
| 41> *
| 42>
| 43>                          ****END OF INPUT****

CARTESIAN COORDINATES (ANGSTROEM)
---------------------------------
  S     24.073400   -2.746920  -109.462000
  C     23.332500   -4.037620  -110.273000
  C     22.807700   -3.561320  -111.474000
  C     22.966300   -2.159800  -111.670000
  C     23.755000   -1.561570  -110.700000
  H     22.766000   -1.654340  -112.550000
  C     22.061900   -4.462310  -112.472000
  H     22.014700   -5.478730  -112.115000
  H     22.648200   -4.484880  -113.413000
  C     20.611100   -3.930230  -112.927000
  H     19.970300   -3.966700  -112.063000
  H     20.754900   -2.840760  -113.251000
  C     19.854600   -4.691700  -113.975000
  H     18.880100   -4.268060  -114.177000
  H     20.315600   -4.823610  -114.996000
  H     19.544500   -5.673020  -113.520000
  S     23.347400    0.728600  -109.203000
  C     24.120500    2.174580  -109.739000
  C     24.602500    2.038540  -111.012000
  C     24.518500    0.732321  -111.576000
  C     23.961600   -0.154550  -110.628000
  H     25.050400    2.877260  -111.607000
  C     25.217700    0.393244  -112.877000
  H     25.173400    1.183460  -113.674000
  H     24.532400   -0.295340  -113.347000
  C     26.723000    0.008138  -112.897000
  H     27.407500    0.855484  -112.573000
  H     27.011500   -0.114212  -113.917000
  C     27.069400   -1.286420  -112.098000
  H     27.188700   -1.205980  -111.010000
  H     27.950900   -1.761840  -112.454000
  H     26.284200   -2.045630  -112.270000
  H     23.324600   -5.099480  -110.021000
  H     24.159100    3.097050  -109.209000

 Total Charge           Charge          ....    0
 Multiplicity           Mult            ....    1
 Number of Electrons    NEL             ....  134
 Basis Dimension        Dim             ....  322

ORBITAL ENERGIES
----------------

  NO   OCC          E(Eh)            E(eV)
   0   2.0000     -88.967513     -2420.9291
   1   2.0000     -88.965946     -2420.8865
   2   2.0000     -10.329763      -281.0871
   3   2.0000     -10.325847      -280.9806
   4   2.0000     -10.314108      -280.6611
   5   2.0000     -10.311310      -280.5850
   6   2.0000     -10.304852      -280.4093
   7   2.0000     -10.301635      -280.3218
   8   2.0000     -10.297117      -280.1988
   9   2.0000     -10.297014      -280.1960
  10   2.0000     -10.293917      -280.1117
  11   2.0000     -10.293726      -280.1065
  12   2.0000     -10.291780      -280.0536
  13   2.0000     -10.288025      -279.9514
  14   2.0000     -10.284155      -279.8461
  15   2.0000     -10.270204      -279.4665
  16   2.0000      -8.082947      -219.9482
  17   2.0000      -8.080643      -219.8855
  18   2.0000      -6.041377      -164.3942
  19   2.0000      -6.039184      -164.3346
  20   2.0000      -6.037124      -164.2785
  21   2.0000      -6.035179      -164.2256
  22   2.0000      -6.033942      -164.1919
  23   2.0000      -6.031337      -164.1210
  24   2.0000      -1.010739       -27.5036
  25   2.0000      -0.986250       -26.8372
  26   2.0000      -0.902363       -24.5545
  27   2.0000      -0.901750       -24.5379
  28   2.0000      -0.875286       -23.8178
  29   2.0000      -0.852212       -23.1899
  30   2.0000      -0.844364       -22.9763
  31   2.0000      -0.812702       -22.1147
  32   2.0000      -0.783739       -21.3266
  33   2.0000      -0.769487       -20.9388
  34   2.0000      -0.712397       -19.3853
  35   2.0000      -0.698411       -19.0047
  36   2.0000      -0.689506       -18.7624
  37   2.0000      -0.656729       -17.8705
  38   2.0000      -0.643877       -17.5208
  39   2.0000      -0.619432       -16.8556
  40   2.0000      -0.595578       -16.2065
  41   2.0000      -0.566643       -15.4191
  42   2.0000      -0.560066       -15.2402
  43   2.0000      -0.544328       -14.8119
  44   2.0000      -0.534257       -14.5379
  45   2.0000      -0.518719       -14.1151
  46   2.0000      -0.513049       -13.9608
  47   2.0000      -0.510089       -13.8802
  48   2.0000      -0.507031       -13.7970
  49   2.0000      -0.506880       -13.7929
  50   2.0000      -0.491829       -13.3833
  51   2.0000      -0.482396       -13.1267
  52   2.0000      -0.469318       -12.7708
  53   2.0000      -0.463633       -12.6161
  54   2.0000      -0.461079       -12.5466
  55   2.0000      -0.451037       -12.2733
  56   2.0000      -0.444405       -12.0929
  57   2.0000      -0.433613       -11.7992
  58   2.0000      -0.425337       -11.5740
  59   2.0000      -0.422653       -11.5010
  60   2.0000      -0.419299       -11.4097
  61   2.0000      -0.411085       -11.1862
  62   2.0000      -0.406254       -11.0547
  63   2.0000      -0.348221        -9.4756
  64   2.0000      -0.332795        -9.0558
  65   2.0000      -0.324931        -8.8418
  66   2.0000      -0.291176        -7.9233
  67   0.0000       0.027093         0.7372
  68   0.0000       0.070023         1.9054
  69   0.0000       0.111421         3.0319
  70   0.0000       0.123248         3.3538
  71   0.0000       0.136393         3.7114

MULLIKEN ATOMIC CHARGES
-----------------------
   0 S :    0.125425
   1 C :   -0.116472
   2 C :   -0.092884
   3 C :    0.050499
   4 C :   -0.167845
   5 H :   -0.004290
   6 C :    0.072362
   7 H :    0.010261
   8 H :    0.034258
   9 C :   -0.107858
  10 H :    0.033115
  11 H :    0.041286
  12 C :   -0.056215
  13 H :    0.029343
  14 H :    0.042182
  15 H :    0.028716
  16 S :    0.119012
  17 C :   -0.075017
  18 C :   -0.047633
  19 C :   -0.017427
  20 C :   -0.170241
  21 H :    0.029680
  22 C :    0.053111
  23 H :    0.021497
  24 H :    0.006138
  25 C :   -0.044832
  26 H :    0.037263
  27 H :    0.021496
  28 C :   -0.054335
  29 H :    0.044453
  30 H :    0.018634
  31 H :    0.032515
  32 H :    0.056437
  33 H :    0.047365
Sum of atomic charges:    0.0000000

LOEWDIN ATOMIC CHARGES
----------------------
   0 S :    0.439538
   1 C :   -0.220431
   2 C :   -0.065744
   3 C :   -0.050920
   4 C :   -0.204104
   5 H :    0.017036
   6 C :   -0.031512
   7 H :    0.021815
   8 H :    0.032441
   9 C :   -0.045996
  10 H :    0.024566
  11 H :    0.028465
  12 C :   -0.077518
  13 H :    0.027569
  14 H :    0.028641
  15 H :    0.030374
  16 S :    0.405162
  17 C :   -0.192252
  18 C :   -0.074452
  19 C :   -0.057028
  20 C :   -0.183317
  21 H :    0.037520
  22 C :   -0.042112
  23 H :    0.038534
  24 H :    0.026867
  25 C :   -0.035398
  26 H :    0.031918
  27 H :    0.022101
  28 C :   -0.073054
  29 H :    0.028585
  30 H :    0.020023
  31 H :    0.028740
  32 H :    0.037682
  33 H :    0.026261

  Mayer bond orders larger than 0.100000
B(  0-S ,  1-C ) :   1.1582 B(  0-S ,  4-C ) :   1.1620 B(  1-C ,  2-C ) :   1.5683
B(  1-C , 32-H ) :   0.9683 B(  2-C ,  3-C ) :   1.2792 B(  2-C ,  6-C ) :   1.0333
B(  3-C ,  4-C ) :   1.5319 B(  3-C ,  5-H ) :   0.9944 B(  4-C , 20-C ) :   1.0780
B(  6-C ,  7-H ) :   0.9456 B(  6-C ,  8-H ) :   0.9384 B(  6-C ,  9-C ) :   1.0471
B(  9-C , 10-H ) :   0.9561 B(  9-C , 11-H ) :   0.9544 B(  9-C , 12-C ) :   1.0964
B( 12-C , 13-H ) :   0.9690 B( 12-C , 14-H ) :   0.9729 B( 12-C , 15-H ) :   0.9699
B( 16-S , 17-C ) :   1.1428 B( 16-S , 20-C ) :   1.1488 B( 17-C , 18-C ) :   1.6066
B( 17-C , 33-H ) :   0.9708 B( 18-C , 19-C ) :   1.2568 B( 18-C , 21-H ) :   0.9803
B( 19-C , 20-C ) :   1.5665 B( 19-C , 22-C ) :   1.0468 B( 22-C , 23-H ) :   0.9316
B( 22-C , 24-H ) :   0.9254 B( 22-C , 25-C ) :   1.0742 B( 25-C , 26-H ) :   0.9547
B( 25-C , 27-H ) :   0.9516 B( 25-C , 28-C ) :   1.0713 B( 28-C , 29-H ) :   0.9769
B( 28-C , 30-H ) :   0.9742 B( 28-C , 31-H ) :   0.9747

Dispersion correction           -0.014921272
FINAL SINGLE POINT ENERGY     -1339.873120953748

DIPOLE MOMENT
-------------
                                X             Y             Z
Electronic contribution:      1.28351      10.01643      22.82788
Nuclear contribution   :     -1.29855     -10.12037     -23.47095
                        -----------------------------------------
Total Dipole Moment    :     -0.01504      -0.10394      -0.64307
                        -----------------------------------------
Magnitude (a.u.)       :      0.65159
Magnitude (Debye)      :      1.65620

Rotational constants in cm-1:     0.018911     0.008080     0.007558
Rotational constants in MHz :   566.932000   242.221126   226.576441

                             ****ORCA TERMINATED NORMALLY****
TOTAL RUN TIME: 0 days 0 hours 0 minutes 21 seconds 762 msec
