                         Program Version 4.2.1 -  RELEASE  -
|  1> ! wB97X-D3 SP def2-SVP
|  2> %pal
|  3> nprocs 24
|  4> end
|  5>
|  6> * xyz 0 1
|  7> S 	 -134.65 	 66.6063 	 -64.2801
|  8> C 	 -135.243 	 68.0577 	 -65.0939
|  9> C 	 -136.56 	 68.3188 	 -64.722
| 10> C 	 -137.036 	 67.3865 	 -63.7596
| 11> C 	 -136.157 	 66.4449 	 -63.3477
| 12> H 	 -137.958 	 67.397 	 -63.2452
| 13> C 	 -137.389 	 69.414 	 -65.2409
| 14> H 	 -136.742 	 70.228 	 -65.524
| 15> H 	 -138.059 	 69.7969 	 -64.4683
| 16> C 	 -138.362 	 69.0597 	 -66.3608
| 17> H 	 -139.057 	 68.36 	 -65.946
| 18> H 	 -138.861 	 69.973 	 -66.7025
| 19> C 	 -137.566 	 68.3898 	 -67.5322
| 20> H 	 -136.762 	 68.9661 	 -67.7975
| 21> H 	 -137.193 	 67.4399 	 -67.161
| 22> H 	 -138.157 	 68.2526 	 -68.407
| 23> S 	 -136.361 	 63.714 	 -62.9811
| 24> C 	 -136.322 	 63.0653 	 -61.3912
| 25> C 	 -136.439 	 64.0652 	 -60.4672
| 26> C 	 -136.558 	 65.3844 	 -61.0452
| 27> C 	 -136.373 	 65.3717 	 -62.4084
| 28> H 	 -136.492 	 63.7765 	 -59.3645
| 29> C 	 -136.698 	 66.6007 	 -60.2627
| 30> H 	 -136.739 	 66.3702 	 -59.1831
| 31> H 	 -137.626 	 67.028 	 -60.4929
| 32> C 	 -135.617 	 67.6737 	 -60.4511
| 33> H 	 -135.713 	 68.4449 	 -59.6941
| 34> H 	 -135.752 	 68.2496 	 -61.3963
| 35> C 	 -134.203 	 67.0566 	 -60.376
| 36> H 	 -134.165 	 66.3644 	 -59.5257
| 37> H 	 -133.279 	 67.7568 	 -60.3722
| 38> H 	 -134.008 	 66.4719 	 -61.2682
| 39> H 	 -134.607 	 68.6901 	 -65.7591
| 40> H 	 -136.235 	 62.0011 	 -61.2757
| 41> *
| 42>
| 43>                          ****END OF INPUT****

CARTESIAN COORDINATES (ANGSTROEM)
---------------------------------
  S    -134.650000   66.606300  -64.280100
  C    -135.243000   68.057700  -65.093900
  C    -136.560000   68.318800  -64.722000
  C    -137.036000   67.386500  -63.759600
  C    -136.157000   66.444900  -63.347700
  H    -137.958000   67.397000  -63.245200
  C    -137.389000   69.414000  -65.240900
  H    -136.742000   70.228000  -65.524000
  H    -138.059000   69.796900  -64.468300
  C    -138.362000   69.059700  -66.360800
  H    -139.057000   68.360000  -65.946000
  H    -138.861000   69.973000  -66.702500
  C    -137.566000   68.389800  -67.532200
  H    -136.762000   68.966100  -67.797500
  H    -137.193000   67.439900  -67.161000
  H    -138.157000   68.252600  -68.407000
  S    -136.361000   63.714000  -62.981100
  C    -136.322000   63.065300  -61.391200
  C    -136.439000   64.065200  -60.467200
  C    -136.558000   65.384400  -61.045200
  C    -136.373000   65.371700  -62.408400
  H    -136.492000   63.776500  -59.364500
  C    -136.698000   66.600700  -60.262700
  H    -136.739000   66.370200  -59.183100
  H    -137.626000   67.028000  -60.492900
  C    -135.617000   67.673700  -60.451100
  H    -135.713000   68.444900  -59.694100
  H    -135.752000   68.249600  -61.396300
  C    -134.203000   67.056600  -60.376000
  H    -134.165000   66.364400  -59.525700
  H    -133.279000   67.756800  -60.372200
  H    -134.008000   66.471900  -61.268200
  H    -134.607000   68.690100  -65.759100
  H    -136.235000   62.001100  -61.275700

 Total Charge           Charge          ....    0
 Multiplicity           Mult            ....    1
 Number of Electrons    NEL             ....  134
 Basis Dimension        Dim             ....  322

ORBITAL ENERGIES
----------------

  NO   OCC          E(Eh)            E(eV)
   0   2.0000     -88.966054     -2420.8894
   1   2.0000     -88.960256     -2420.7316
   2   2.0000     -10.327967      -281.0383
   3   2.0000     -10.323052      -280.9045
   4   2.0000     -10.321565      -280.8641
   5   2.0000     -10.314803      -280.6801
   6   2.0000     -10.301532      -280.3189
   7   2.0000     -10.301277      -280.3120
   8   2.0000     -10.299683      -280.2686
   9   2.0000     -10.289150      -279.9820
  10   2.0000     -10.285459      -279.8816
  11   2.0000     -10.285222      -279.8751
  12   2.0000     -10.283547      -279.8295
  13   2.0000     -10.282978      -279.8141
  14   2.0000     -10.274399      -279.5806
  15   2.0000     -10.263438      -279.2823
  16   2.0000      -8.079923      -219.8659
  17   2.0000      -8.076053      -219.7606
  18   2.0000      -6.038518      -164.3164
  19   2.0000      -6.034515      -164.2075
  20   2.0000      -6.034449      -164.2057
  21   2.0000      -6.030711      -164.1040
  22   2.0000      -6.030360      -164.0944
  23   2.0000      -6.026845      -163.9988
  24   2.0000      -1.010836       -27.5063
  25   2.0000      -0.987767       -26.8785
  26   2.0000      -0.918296       -24.9881
  27   2.0000      -0.913954       -24.8699
  28   2.0000      -0.869773       -23.6677
  29   2.0000      -0.846825       -23.0433
  30   2.0000      -0.840917       -22.8825
  31   2.0000      -0.815758       -22.1979
  32   2.0000      -0.785205       -21.3665
  33   2.0000      -0.774746       -21.0819
  34   2.0000      -0.712602       -19.3909
  35   2.0000      -0.699122       -19.0241
  36   2.0000      -0.688957       -18.7475
  37   2.0000      -0.662220       -18.0199
  38   2.0000      -0.646820       -17.6009
  39   2.0000      -0.622042       -16.9266
  40   2.0000      -0.591668       -16.1001
  41   2.0000      -0.570202       -15.5160
  42   2.0000      -0.561358       -15.2753
  43   2.0000      -0.550651       -14.9840
  44   2.0000      -0.549607       -14.9556
  45   2.0000      -0.542379       -14.7589
  46   2.0000      -0.520404       -14.1609
  47   2.0000      -0.505867       -13.7653
  48   2.0000      -0.501107       -13.6358
  49   2.0000      -0.497398       -13.5349
  50   2.0000      -0.484625       -13.1873
  51   2.0000      -0.479803       -13.0561
  52   2.0000      -0.472106       -12.8467
  53   2.0000      -0.467450       -12.7200
  54   2.0000      -0.460152       -12.5214
  55   2.0000      -0.445601       -12.1254
  56   2.0000      -0.438417       -11.9299
  57   2.0000      -0.433646       -11.8001
  58   2.0000      -0.429081       -11.6759
  59   2.0000      -0.426114       -11.5952
  60   2.0000      -0.421364       -11.4659
  61   2.0000      -0.416956       -11.3459
  62   2.0000      -0.408925       -11.1274
  63   2.0000      -0.342424        -9.3178
  64   2.0000      -0.328838        -8.9481
  65   2.0000      -0.326420        -8.8823
  66   2.0000      -0.301128        -8.1941
  67   0.0000       0.033741         0.9181
  68   0.0000       0.059665         1.6236
  69   0.0000       0.115053         3.1308
  70   0.0000       0.120982         3.2921
  71   0.0000       0.131357         3.5744

MULLIKEN ATOMIC CHARGES
-----------------------
   0 S :    0.107875
   1 C :   -0.141166
   2 C :   -0.081014
   3 C :    0.059723
   4 C :   -0.171478
   5 H :   -0.007129
   6 C :    0.067114
   7 H :    0.017902
   8 H :    0.021045
   9 C :   -0.065510
  10 H :    0.026355
  11 H :    0.035798
  12 C :   -0.020571
  13 H :    0.000317
  14 H :    0.046504
  15 H :    0.026439
  16 S :    0.106367
  17 C :   -0.094601
  18 C :   -0.052174
  19 C :   -0.027559
  20 C :   -0.187734
  21 H :    0.044436
  22 C :    0.101920
  23 H :    0.017909
  24 H :    0.017306
  25 C :   -0.076739
  26 H :    0.023784
  27 H :    0.043986
  28 C :   -0.059812
  29 H :    0.023355
  30 H :    0.045153
  31 H :    0.025814
  32 H :    0.067782
  33 H :    0.058603
Sum of atomic charges:   -0.0000000

LOEWDIN ATOMIC CHARGES
----------------------
   0 S :    0.390834
   1 C :   -0.191129
   2 C :   -0.066249
   3 C :   -0.054867
   4 C :   -0.182585
   5 H :    0.026688
   6 C :   -0.036194
   7 H :    0.026955
   8 H :    0.032234
   9 C :   -0.027564
  10 H :    0.019521
  11 H :    0.025238
  12 C :   -0.055208
  13 H :    0.008782
  14 H :    0.029397
  15 H :    0.020935
  16 S :    0.414109
  17 C :   -0.187057
  18 C :   -0.083179
  19 C :   -0.053028
  20 C :   -0.205215
  21 H :    0.044231
  22 C :   -0.033341
  23 H :    0.034534
  24 H :    0.028198
  25 C :   -0.040965
  26 H :    0.021545
  27 H :    0.028629
  28 C :   -0.075159
  29 H :    0.021913
  30 H :    0.035051
  31 H :    0.017307
  32 H :    0.038082
  33 H :    0.027556

  Mayer bond orders larger than 0.100000
B(  0-S ,  1-C ) :   1.1397 B(  0-S ,  4-C ) :   1.1293 B(  1-C ,  2-C ) :   1.5947
B(  1-C , 32-H ) :   0.9644 B(  2-C ,  3-C ) :   1.2130 B(  2-C ,  6-C ) :   1.0448
B(  3-C ,  4-C ) :   1.6130 B(  3-C ,  5-H ) :   0.9997 B(  4-C , 20-C ) :   1.0430
B(  6-C ,  7-H ) :   0.9361 B(  6-C ,  8-H ) :   0.9358 B(  6-C ,  9-C ) :   1.0728
B(  9-C , 10-H ) :   0.9576 B(  9-C , 11-H ) :   0.9569 B(  9-C , 12-C ) :   1.0770
B( 12-C , 13-H ) :   0.9764 B( 12-C , 14-H ) :   0.9708 B( 12-C , 15-H ) :   0.9746
B( 16-S , 17-C ) :   1.1678 B( 16-S , 20-C ) :   1.1462 B( 17-C , 18-C ) :   1.5954
B( 17-C , 33-H ) :   0.9726 B( 18-C , 19-C ) :   1.2352 B( 18-C , 21-H ) :   0.9811
B( 19-C , 20-C ) :   1.5855 B( 19-C , 22-C ) :   1.0598 B( 22-C , 23-H ) :   0.9287
B( 22-C , 24-H ) :   0.9167 B( 22-C , 25-C ) :   1.0770 B( 25-C , 26-H ) :   0.9557
B( 25-C , 27-H ) :   0.9469 B( 25-C , 28-C ) :   1.0735 B( 28-C , 29-H ) :   0.9757
B( 28-C , 30-H ) :   0.9749 B( 28-C , 31-H ) :   0.9647

Dispersion correction           -0.016595069
FINAL SINGLE POINT ENERGY     -1339.887467628076

DIPOLE MOMENT
-------------
                                X             Y             Z
Electronic contribution:      4.75172     -17.34301       0.17574
Nuclear contribution   :     -5.08061      17.74330       0.00527
                        -----------------------------------------
Total Dipole Moment    :     -0.32888       0.40029       0.18101
                        -----------------------------------------
Magnitude (a.u.)       :      0.54878
Magnitude (Debye)      :      1.39489

Rotational constants in cm-1:     0.023258     0.008837     0.007899
Rotational constants in MHz :   697.242787   264.917227   236.817539

                             ****ORCA TERMINATED NORMALLY****
TOTAL RUN TIME: 0 days 0 hours 0 minutes 23 seconds 271 msec
