                         Program Version 4.2.1 -  RELEASE  -
|  1> ! wB97X-D3 SP def2-SVP
|  2> %pal
|  3> nprocs 24
|  4> end
|  5>
|  6> * xyz 0 1
|  7> S 	 -92.6303 	 3.49583 	 0.492945
|  8> C 	 -91.023 	 2.68865 	 0.585922
|  9> C 	 -90.4831 	 2.8781 	 1.85657
| 10> C 	 -91.305 	 3.75106 	 2.67303
| 11> C 	 -92.5267 	 4.05164 	 2.13517
| 12> H 	 -91.0721 	 4.00504 	 3.69993
| 13> C 	 -89.2009 	 2.22791 	 2.33181
| 14> H 	 -88.7529 	 2.85532 	 3.07338
| 15> H 	 -88.4637 	 2.2129 	 1.43807
| 16> C 	 -89.3342 	 0.815233 	 2.85651
| 17> H 	 -90.1931 	 0.843725 	 3.50453
| 18> H 	 -89.5435 	 0.0640379 	 2.08623
| 19> C 	 -88.1615 	 0.349255 	 3.73067
| 20> H 	 -87.1857 	 0.713227 	 3.33544
| 21> H 	 -88.3418 	 0.775544 	 4.68947
| 22> H 	 -88.0789 	 -0.690025 	 3.9972
| 23> S 	 -95.2526 	 3.91388 	 2.31352
| 24> C 	 -96.0477 	 4.93354 	 3.41701
| 25> C 	 -95.2226 	 5.69637 	 4.25563
| 26> C 	 -93.8357 	 5.53989 	 3.82548
| 27> C 	 -93.6909 	 4.64714 	 2.78199
| 28> H 	 -95.6273 	 6.33818 	 5.03318
| 29> C 	 -92.6609 	 6.29951 	 4.52038
| 30> H 	 -92.0715 	 5.47097 	 4.97247
| 31> H 	 -92.9984 	 6.81967 	 5.43813
| 32> C 	 -92.0385 	 7.34569 	 3.63381
| 33> H 	 -91.5984 	 6.76678 	 2.8798
| 34> H 	 -91.2032 	 7.814 	 4.14159
| 35> C 	 -92.8296 	 8.56191 	 3.27388
| 36> H 	 -93.6743 	 8.2479 	 2.63995
| 37> H 	 -92.1587 	 9.22895 	 2.73634
| 38> H 	 -93.3721 	 8.99996 	 4.17671
| 39> H 	 -90.5227 	 2.16659 	 -0.220481
| 40> H 	 -97.0806 	 4.83763 	 3.65006
| 41> *
| 42>
| 43>                          ****END OF INPUT****

CARTESIAN COORDINATES (ANGSTROEM)
---------------------------------
  S    -92.630300    3.495830    0.492945
  C    -91.023000    2.688650    0.585922
  C    -90.483100    2.878100    1.856570
  C    -91.305000    3.751060    2.673030
  C    -92.526700    4.051640    2.135170
  H    -91.072100    4.005040    3.699930
  C    -89.200900    2.227910    2.331810
  H    -88.752900    2.855320    3.073380
  H    -88.463700    2.212900    1.438070
  C    -89.334200    0.815233    2.856510
  H    -90.193100    0.843725    3.504530
  H    -89.543500    0.064038    2.086230
  C    -88.161500    0.349255    3.730670
  H    -87.185700    0.713227    3.335440
  H    -88.341800    0.775544    4.689470
  H    -88.078900   -0.690025    3.997200
  S    -95.252600    3.913880    2.313520
  C    -96.047700    4.933540    3.417010
  C    -95.222600    5.696370    4.255630
  C    -93.835700    5.539890    3.825480
  C    -93.690900    4.647140    2.781990
  H    -95.627300    6.338180    5.033180
  C    -92.660900    6.299510    4.520380
  H    -92.071500    5.470970    4.972470
  H    -92.998400    6.819670    5.438130
  C    -92.038500    7.345690    3.633810
  H    -91.598400    6.766780    2.879800
  H    -91.203200    7.814000    4.141590
  C    -92.829600    8.561910    3.273880
  H    -93.674300    8.247900    2.639950
  H    -92.158700    9.228950    2.736340
  H    -93.372100    8.999960    4.176710
  H    -90.522700    2.166590   -0.220481
  H    -97.080600    4.837630    3.650060

 Total Charge           Charge          ....    0
 Multiplicity           Mult            ....    1
 Number of Electrons    NEL             ....  134
 Basis Dimension        Dim             ....  322

ORBITAL ENERGIES
----------------

  NO   OCC          E(Eh)            E(eV)
   0   2.0000     -88.969295     -2420.9776
   1   2.0000     -88.966118     -2420.8912
   2   2.0000     -10.331380      -281.1311
   3   2.0000     -10.329450      -281.0786
   4   2.0000     -10.317781      -280.7611
   5   2.0000     -10.314319      -280.6669
   6   2.0000     -10.309908      -280.5469
   7   2.0000     -10.306215      -280.4464
   8   2.0000     -10.300040      -280.2783
   9   2.0000     -10.297588      -280.2116
  10   2.0000     -10.297230      -280.2019
  11   2.0000     -10.294335      -280.1231
  12   2.0000     -10.284009      -279.8421
  13   2.0000     -10.280329      -279.7420
  14   2.0000     -10.276268      -279.6315
  15   2.0000     -10.273913      -279.5674
  16   2.0000      -8.084306      -219.9851
  17   2.0000      -8.080290      -219.8759
  18   2.0000      -6.042690      -164.4300
  19   2.0000      -6.038940      -164.3279
  20   2.0000      -6.038866      -164.3259
  21   2.0000      -6.035078      -164.2228
  22   2.0000      -6.034890      -164.2177
  23   2.0000      -6.030911      -164.1094
  24   2.0000      -1.006486       -27.3879
  25   2.0000      -0.980825       -26.6896
  26   2.0000      -0.914703       -24.8903
  27   2.0000      -0.914273       -24.8786
  28   2.0000      -0.868564       -23.6348
  29   2.0000      -0.854201       -23.2440
  30   2.0000      -0.841385       -22.8953
  31   2.0000      -0.813753       -22.1433
  32   2.0000      -0.786465       -21.4008
  33   2.0000      -0.773840       -21.0573
  34   2.0000      -0.706362       -19.2211
  35   2.0000      -0.701627       -19.0922
  36   2.0000      -0.686821       -18.6894
  37   2.0000      -0.666184       -18.1278
  38   2.0000      -0.639121       -17.3914
  39   2.0000      -0.618545       -16.8315
  40   2.0000      -0.591798       -16.1036
  41   2.0000      -0.569422       -15.4948
  42   2.0000      -0.563515       -15.3340
  43   2.0000      -0.560139       -15.2422
  44   2.0000      -0.551377       -15.0037
  45   2.0000      -0.526960       -14.3393
  46   2.0000      -0.518351       -14.1051
  47   2.0000      -0.508176       -13.8282
  48   2.0000      -0.502765       -13.6809
  49   2.0000      -0.496334       -13.5059
  50   2.0000      -0.489646       -13.3239
  51   2.0000      -0.476251       -12.9594
  52   2.0000      -0.475373       -12.9356
  53   2.0000      -0.462465       -12.5843
  54   2.0000      -0.460125       -12.5206
  55   2.0000      -0.458306       -12.4712
  56   2.0000      -0.450279       -12.2527
  57   2.0000      -0.440292       -11.9810
  58   2.0000      -0.432031       -11.7562
  59   2.0000      -0.419442       -11.4136
  60   2.0000      -0.414672       -11.2838
  61   2.0000      -0.411812       -11.2060
  62   2.0000      -0.398930       -10.8554
  63   2.0000      -0.355172        -9.6647
  64   2.0000      -0.334342        -9.0979
  65   2.0000      -0.330627        -8.9968
  66   2.0000      -0.286152        -7.7866
  67   0.0000       0.024530         0.6675
  68   0.0000       0.071570         1.9475
  69   0.0000       0.101747         2.7687
  70   0.0000       0.113082         3.0771
  71   0.0000       0.134610         3.6629

MULLIKEN ATOMIC CHARGES
-----------------------
   0 S :    0.091964
   1 C :   -0.119779
   2 C :   -0.096357
   3 C :    0.025371
   4 C :   -0.122551
   5 H :   -0.002668
   6 C :    0.042485
   7 H :    0.014456
   8 H :    0.037934
   9 C :   -0.048913
  10 H :    0.021276
  11 H :    0.032872
  12 C :   -0.047207
  13 H :    0.035547
  14 H :    0.018600
  15 H :    0.031879
  16 S :    0.115419
  17 C :   -0.072267
  18 C :   -0.043679
  19 C :   -0.077904
  20 C :   -0.129637
  21 H :    0.025443
  22 C :    0.038150
  23 H :    0.046348
  24 H :    0.006272
  25 C :   -0.028477
  26 H :    0.020510
  27 H :    0.016527
  28 C :   -0.050563
  29 H :    0.038282
  30 H :    0.047671
  31 H :    0.034117
  32 H :    0.050822
  33 H :    0.048057
Sum of atomic charges:    0.0000000

LOEWDIN ATOMIC CHARGES
----------------------
   0 S :    0.386073
   1 C :   -0.185684
   2 C :   -0.055660
   3 C :   -0.074104
   4 C :   -0.189858
   5 H :    0.026295
   6 C :   -0.034292
   7 H :    0.025265
   8 H :    0.038950
   9 C :   -0.040961
  10 H :    0.022838
  11 H :    0.024259
  12 C :   -0.067865
  13 H :    0.027204
  14 H :    0.022230
  15 H :    0.026359
  16 S :    0.415894
  17 C :   -0.193602
  18 C :   -0.071488
  19 C :   -0.050536
  20 C :   -0.190735
  21 H :    0.034132
  22 C :   -0.034127
  23 H :    0.035517
  24 H :    0.026467
  25 C :   -0.046984
  26 H :    0.018889
  27 H :    0.025024
  28 C :   -0.062948
  29 H :    0.026289
  30 H :    0.031923
  31 H :    0.033340
  32 H :    0.030147
  33 H :    0.021751

  Mayer bond orders larger than 0.100000
B(  0-S ,  1-C ) :   1.1082 B(  0-S ,  4-C ) :   1.1501 B(  1-C ,  2-C ) :   1.6235
B(  1-C , 32-H ) :   0.9722 B(  2-C ,  3-C ) :   1.2335 B(  2-C ,  6-C ) :   1.0339
B(  3-C ,  4-C ) :   1.5731 B(  3-C ,  5-H ) :   0.9891 B(  4-C , 20-C ) :   1.0497
B(  6-C ,  7-H ) :   0.9409 B(  6-C ,  8-H ) :   0.9347 B(  6-C ,  9-C ) :   1.0611
B(  9-C , 10-H ) :   0.9602 B(  9-C , 11-H ) :   0.9555 B(  9-C , 12-C ) :   1.0734
B( 12-C , 13-H ) :   0.9761 B( 12-C , 14-H ) :   0.9759 B( 12-C , 15-H ) :   0.9743
B( 16-S , 17-C ) :   1.1731 B( 16-S , 20-C ) :   1.1281 B( 17-C , 18-C ) :   1.6098
B( 17-C , 33-H ) :   0.9652 B( 18-C , 19-C ) :   1.2310 B( 18-C , 21-H ) :   0.9917
B( 19-C , 20-C ) :   1.6190 B( 19-C , 22-C ) :   1.0167 B( 22-C , 23-H ) :   0.9393
B( 22-C , 24-H ) :   0.9333 B( 22-C , 25-C ) :   1.0690 B( 25-C , 26-H ) :   0.9530
B( 25-C , 27-H ) :   0.9512 B( 25-C , 28-C ) :   1.0731 B( 28-C , 29-H ) :   0.9740
B( 28-C , 30-H ) :   0.9727 B( 28-C , 31-H ) :   0.9680

Dispersion correction           -0.014327327
FINAL SINGLE POINT ENERGY     -1339.871726881556

DIPOLE MOMENT
-------------
                                X             Y             Z
Electronic contribution:    -20.66649      -2.98587     -12.80678
Nuclear contribution   :     21.00853       2.99458      13.40157
                        -----------------------------------------
Total Dipole Moment    :      0.34204       0.00871       0.59479
                        -----------------------------------------
Magnitude (a.u.)       :      0.68618
Magnitude (Debye)      :      1.74414

Rotational constants in cm-1:     0.019808     0.007912     0.006924
Rotational constants in MHz :   593.830717   237.196252   207.567044

                             ****ORCA TERMINATED NORMALLY****
TOTAL RUN TIME: 0 days 0 hours 0 minutes 20 seconds 402 msec
