                         Program Version 4.2.1 -  RELEASE  -
|  1> ! wB97X-D3 SP def2-SVP
|  2> %pal
|  3> nprocs 24
|  4> end
|  5>
|  6> * xyz 0 1
|  7> S 	 -107.971 	 67.9962 	 -4.30876
|  8> C 	 -106.814 	 68.0349 	 -5.60025
|  9> C 	 -106.394 	 66.7733 	 -5.94918
| 10> C 	 -106.934 	 65.7593 	 -5.05756
| 11> C 	 -107.697 	 66.3213 	 -4.04211
| 12> H 	 -106.828 	 64.6662 	 -5.13276
| 13> C 	 -105.361 	 66.5519 	 -7.1008
| 14> H 	 -104.99 	 67.5501 	 -7.50225
| 15> H 	 -106.012 	 66.2237 	 -7.98186
| 16> C 	 -104.274 	 65.4956 	 -6.79958
| 17> H 	 -103.882 	 65.5888 	 -5.76616
| 18> H 	 -104.771 	 64.5581 	 -6.77027
| 19> C 	 -103.132 	 65.4479 	 -7.83312
| 20> H 	 -103.602 	 65.1495 	 -8.82055
| 21> H 	 -102.569 	 66.3294 	 -7.97464
| 22> H 	 -102.437 	 64.6768 	 -7.48067
| 23> S 	 -107.817 	 65.3392 	 -1.47145
| 24> C 	 -109.272 	 64.6333 	 -0.949416
| 25> C 	 -110.166 	 64.4193 	 -1.97904
| 26> C 	 -109.692 	 64.9286 	 -3.22637
| 27> C 	 -108.494 	 65.5334 	 -3.11231
| 28> H 	 -111.138 	 64.0678 	 -1.64541
| 29> C 	 -110.56 	 64.9529 	 -4.49283
| 30> H 	 -110.831 	 63.8898 	 -4.48188
| 31> H 	 -109.902 	 65.0533 	 -5.2691
| 32> C 	 -111.766 	 65.8619 	 -4.45029
| 33> H 	 -112.451 	 65.3827 	 -3.75704
| 34> H 	 -112.201 	 65.7538 	 -5.41638
| 35> C 	 -111.426 	 67.3719 	 -4.02676
| 36> H 	 -112.422 	 67.7726 	 -3.85804
| 37> H 	 -110.966 	 67.9483 	 -4.82941
| 38> H 	 -110.813 	 67.3761 	 -3.17395
| 39> H 	 -106.675 	 68.9313 	 -6.17324
| 40> H 	 -109.434 	 64.18 	 -0.0245838
| 41> *
| 42>
| 43>                          ****END OF INPUT****

CARTESIAN COORDINATES (ANGSTROEM)
---------------------------------
  S    -107.971000   67.996200   -4.308760
  C    -106.814000   68.034900   -5.600250
  C    -106.394000   66.773300   -5.949180
  C    -106.934000   65.759300   -5.057560
  C    -107.697000   66.321300   -4.042110
  H    -106.828000   64.666200   -5.132760
  C    -105.361000   66.551900   -7.100800
  H    -104.990000   67.550100   -7.502250
  H    -106.012000   66.223700   -7.981860
  C    -104.274000   65.495600   -6.799580
  H    -103.882000   65.588800   -5.766160
  H    -104.771000   64.558100   -6.770270
  C    -103.132000   65.447900   -7.833120
  H    -103.602000   65.149500   -8.820550
  H    -102.569000   66.329400   -7.974640
  H    -102.437000   64.676800   -7.480670
  S    -107.817000   65.339200   -1.471450
  C    -109.272000   64.633300   -0.949416
  C    -110.166000   64.419300   -1.979040
  C    -109.692000   64.928600   -3.226370
  C    -108.494000   65.533400   -3.112310
  H    -111.138000   64.067800   -1.645410
  C    -110.560000   64.952900   -4.492830
  H    -110.831000   63.889800   -4.481880
  H    -109.902000   65.053300   -5.269100
  C    -111.766000   65.861900   -4.450290
  H    -112.451000   65.382700   -3.757040
  H    -112.201000   65.753800   -5.416380
  C    -111.426000   67.371900   -4.026760
  H    -112.422000   67.772600   -3.858040
  H    -110.966000   67.948300   -4.829410
  H    -110.813000   67.376100   -3.173950
  H    -106.675000   68.931300   -6.173240
  H    -109.434000   64.180000   -0.024584

 Total Charge           Charge          ....    0
 Multiplicity           Mult            ....    1
 Number of Electrons    NEL             ....  134
 Basis Dimension        Dim             ....  322

ORBITAL ENERGIES
----------------

  NO   OCC          E(Eh)            E(eV)
   0   2.0000     -88.964443     -2420.8456
   1   2.0000     -88.958553     -2420.6853
   2   2.0000     -10.323916      -280.9280
   3   2.0000     -10.317845      -280.7628
   4   2.0000     -10.309606      -280.5386
   5   2.0000     -10.306097      -280.4432
   6   2.0000     -10.305972      -280.4398
   7   2.0000     -10.305868      -280.4369
   8   2.0000     -10.299723      -280.2697
   9   2.0000     -10.297635      -280.2129
  10   2.0000     -10.288403      -279.9617
  11   2.0000     -10.288376      -279.9609
  12   2.0000     -10.284444      -279.8540
  13   2.0000     -10.282010      -279.7877
  14   2.0000     -10.278719      -279.6982
  15   2.0000     -10.272682      -279.5339
  16   2.0000      -8.079746      -219.8611
  17   2.0000      -8.074134      -219.7084
  18   2.0000      -6.038086      -164.3047
  19   2.0000      -6.034143      -164.1974
  20   2.0000      -6.032472      -164.1519
  21   2.0000      -6.030675      -164.1030
  22   2.0000      -6.028581      -164.0460
  23   2.0000      -6.024978      -163.9480
  24   2.0000      -1.009056       -27.4578
  25   2.0000      -0.986807       -26.8524
  26   2.0000      -0.908099       -24.7106
  27   2.0000      -0.904254       -24.6060
  28   2.0000      -0.869918       -23.6717
  29   2.0000      -0.846393       -23.0315
  30   2.0000      -0.841589       -22.9008
  31   2.0000      -0.812197       -22.1010
  32   2.0000      -0.786618       -21.4050
  33   2.0000      -0.772181       -21.0121
  34   2.0000      -0.712010       -19.3748
  35   2.0000      -0.702706       -19.1216
  36   2.0000      -0.689029       -18.7494
  37   2.0000      -0.656039       -17.8517
  38   2.0000      -0.645286       -17.5591
  39   2.0000      -0.613237       -16.6870
  40   2.0000      -0.592049       -16.1105
  41   2.0000      -0.565999       -15.4016
  42   2.0000      -0.556889       -15.1537
  43   2.0000      -0.548992       -14.9388
  44   2.0000      -0.542236       -14.7550
  45   2.0000      -0.523965       -14.2578
  46   2.0000      -0.516699       -14.0601
  47   2.0000      -0.510506       -13.8916
  48   2.0000      -0.500207       -13.6113
  49   2.0000      -0.497406       -13.5351
  50   2.0000      -0.491269       -13.3681
  51   2.0000      -0.478436       -13.0189
  52   2.0000      -0.475254       -12.9323
  53   2.0000      -0.468279       -12.7425
  54   2.0000      -0.454528       -12.3683
  55   2.0000      -0.446504       -12.1500
  56   2.0000      -0.443154       -12.0588
  57   2.0000      -0.440291       -11.9809
  58   2.0000      -0.432455       -11.7677
  59   2.0000      -0.428079       -11.6486
  60   2.0000      -0.423265       -11.5176
  61   2.0000      -0.408612       -11.1189
  62   2.0000      -0.405125       -11.0240
  63   2.0000      -0.333665        -9.0795
  64   2.0000      -0.326781        -8.8922
  65   2.0000      -0.320416        -8.7190
  66   2.0000      -0.313524        -8.5314
  67   0.0000       0.048993         1.3332
  68   0.0000       0.058855         1.6015
  69   0.0000       0.113371         3.0850
  70   0.0000       0.123919         3.3720
  71   0.0000       0.135190         3.6787

MULLIKEN ATOMIC CHARGES
-----------------------
   0 S :    0.117320
   1 C :   -0.127110
   2 C :   -0.069317
   3 C :    0.021579
   4 C :   -0.145100
   5 H :    0.029186
   6 C :    0.026407
   7 H :    0.027886
   8 H :    0.042581
   9 C :   -0.078422
  10 H :    0.040197
  11 H :    0.024498
  12 C :   -0.042390
  13 H :    0.035468
  14 H :    0.032604
  15 H :    0.038395
  16 S :    0.105354
  17 C :   -0.063906
  18 C :   -0.071538
  19 C :   -0.048195
  20 C :   -0.227148
  21 H :    0.020030
  22 C :    0.134641
  23 H :    0.021524
  24 H :   -0.009659
  25 C :   -0.042837
  26 H :    0.021972
  27 H :    0.026250
  28 C :   -0.040103
  29 H :    0.034162
  30 H :    0.040795
  31 H :    0.044020
  32 H :    0.046504
  33 H :    0.034352
Sum of atomic charges:    0.0000000

LOEWDIN ATOMIC CHARGES
----------------------
   0 S :    0.438750
   1 C :   -0.202009
   2 C :   -0.062153
   3 C :   -0.061643
   4 C :   -0.212502
   5 H :    0.036921
   6 C :   -0.040085
   7 H :    0.031800
   8 H :    0.038411
   9 C :   -0.045516
  10 H :    0.028411
  11 H :    0.020838
  12 C :   -0.062025
  13 H :    0.032136
  14 H :    0.017949
  15 H :    0.031012
  16 S :    0.403945
  17 C :   -0.185857
  18 C :   -0.081730
  19 C :   -0.052291
  20 C :   -0.198583
  21 H :    0.031999
  22 C :   -0.023656
  23 H :    0.036492
  24 H :    0.012684
  25 C :   -0.030269
  26 H :    0.022736
  27 H :    0.023105
  28 C :   -0.057610
  29 H :    0.028216
  30 H :    0.022166
  31 H :    0.016443
  32 H :    0.024359
  33 H :    0.017555

  Mayer bond orders larger than 0.100000
B(  0-S ,  1-C ) :   1.1469 B(  0-S ,  4-C ) :   1.1736 B(  1-C ,  2-C ) :   1.6147
B(  1-C , 32-H ) :   0.9717 B(  2-C ,  3-C ) :   1.2307 B(  2-C ,  6-C ) :   1.0105
B(  3-C ,  4-C ) :   1.5745 B(  3-C ,  5-H ) :   0.9936 B(  4-C , 20-C ) :   1.0075
B(  6-C ,  7-H ) :   0.9537 B(  6-C ,  8-H ) :   0.9332 B(  6-C ,  9-C ) :   1.0478
B(  9-C , 10-H ) :   0.9638 B(  9-C , 11-H ) :   0.9463 B(  9-C , 12-C ) :   1.0861
B( 12-C , 13-H ) :   0.9740 B( 12-C , 14-H ) :   0.9795 B( 12-C , 15-H ) :   0.9738
B( 16-S , 17-C ) :   1.1676 B( 16-S , 20-C ) :   1.1291 B( 17-C , 18-C ) :   1.6404
B( 17-C , 33-H ) :   0.9670 B( 18-C , 19-C ) :   1.1947 B( 18-C , 21-H ) :   0.9921
B( 19-C , 20-C ) :   1.6519 B( 19-C , 22-C ) :   1.0167 B( 22-C , 23-H ) :   0.9274
B( 22-C , 24-H ) :   0.9243 B( 22-C , 25-C ) :   1.0735 B( 25-C , 26-H ) :   0.9555
B( 25-C , 27-H ) :   0.9545 B( 25-C , 28-C ) :   1.0611 B( 28-C , 29-H ) :   0.9751
B( 28-C , 30-H ) :   0.9750 B( 28-C , 31-H ) :   0.9760

Dispersion correction           -0.015415692
FINAL SINGLE POINT ENERGY     -1339.871061341646

DIPOLE MOMENT
-------------
                                X             Y             Z
Electronic contribution:     -1.49484       3.62896      18.30579
Nuclear contribution   :      1.32958      -3.89625     -18.83034
                        -----------------------------------------
Total Dipole Moment    :     -0.16525      -0.26729      -0.52455
                        -----------------------------------------
Magnitude (a.u.)       :      0.61148
Magnitude (Debye)      :      1.55426

Rotational constants in cm-1:     0.021969     0.007879     0.007010
Rotational constants in MHz :   658.606112   236.191912   210.148166

                             ****ORCA TERMINATED NORMALLY****
TOTAL RUN TIME: 0 days 0 hours 0 minutes 20 seconds 873 msec
