                         Program Version 4.2.1 -  RELEASE  -
|  1> ! wB97X-D3 SP def2-SVP
|  2> %pal
|  3> nprocs 24
|  4> end
|  5>
|  6> * xyz 0 1
|  7> S 	 -54.1032 	 21.3611 	 24.2498
|  8> C 	 -54.2235 	 20.1297 	 25.5529
|  9> C 	 -55.5508 	 19.8142 	 25.7236
| 10> C 	 -56.4704 	 20.5444 	 24.8649
| 11> C 	 -55.8312 	 21.353 	 23.937
| 12> H 	 -57.5856 	 20.419 	 24.9264
| 13> C 	 -56.0366 	 18.9937 	 26.9145
| 14> H 	 -56.6079 	 19.5785 	 27.6499
| 15> H 	 -55.1115 	 18.6506 	 27.4301
| 16> C 	 -56.8258 	 17.7766 	 26.5858
| 17> H 	 -57.8188 	 17.9546 	 26.1831
| 18> H 	 -56.1746 	 17.2253 	 25.8654
| 19> C 	 -56.8144 	 16.8718 	 27.8738
| 20> H 	 -57.4204 	 15.9258 	 27.927
| 21> H 	 -55.8608 	 16.7181 	 28.3175
| 22> H 	 -57.3927 	 17.4478 	 28.6129
| 23> S 	 -56.4315 	 23.8146 	 22.8393
| 24> C 	 -57.576 	 23.96 	 21.5204
| 25> C 	 -58.0202 	 22.6804 	 21.1415
| 26> C 	 -57.458 	 21.5846 	 21.9018
| 27> C 	 -56.5596 	 22.0554 	 22.8647
| 28> H 	 -58.6643 	 22.7033 	 20.2859
| 29> C 	 -57.9787 	 20.1242 	 21.8289
| 30> H 	 -59.0502 	 20.1645 	 22.0104
| 31> H 	 -57.6999 	 19.5412 	 22.7202
| 32> C 	 -57.486 	 19.2795 	 20.6629
| 33> H 	 -57.8852 	 19.7095 	 19.7798
| 34> H 	 -57.9405 	 18.313 	 20.707
| 35> C 	 -55.972 	 19.112 	 20.6721
| 36> H 	 -55.5966 	 18.4965 	 19.8472
| 37> H 	 -55.5191 	 18.7267 	 21.5854
| 38> H 	 -55.3957 	 20.0257 	 20.4412
| 39> H 	 -53.5704 	 19.9879 	 26.4141
| 40> H 	 -57.9326 	 24.8584 	 21.0764
| 41> *
| 42>
| 43>                          ****END OF INPUT****

CARTESIAN COORDINATES (ANGSTROEM)
---------------------------------
  S    -54.103200   21.361100   24.249800
  C    -54.223500   20.129700   25.552900
  C    -55.550800   19.814200   25.723600
  C    -56.470400   20.544400   24.864900
  C    -55.831200   21.353000   23.937000
  H    -57.585600   20.419000   24.926400
  C    -56.036600   18.993700   26.914500
  H    -56.607900   19.578500   27.649900
  H    -55.111500   18.650600   27.430100
  C    -56.825800   17.776600   26.585800
  H    -57.818800   17.954600   26.183100
  H    -56.174600   17.225300   25.865400
  C    -56.814400   16.871800   27.873800
  H    -57.420400   15.925800   27.927000
  H    -55.860800   16.718100   28.317500
  H    -57.392700   17.447800   28.612900
  S    -56.431500   23.814600   22.839300
  C    -57.576000   23.960000   21.520400
  C    -58.020200   22.680400   21.141500
  C    -57.458000   21.584600   21.901800
  C    -56.559600   22.055400   22.864700
  H    -58.664300   22.703300   20.285900
  C    -57.978700   20.124200   21.828900
  H    -59.050200   20.164500   22.010400
  H    -57.699900   19.541200   22.720200
  C    -57.486000   19.279500   20.662900
  H    -57.885200   19.709500   19.779800
  H    -57.940500   18.313000   20.707000
  C    -55.972000   19.112000   20.672100
  H    -55.596600   18.496500   19.847200
  H    -55.519100   18.726700   21.585400
  H    -55.395700   20.025700   20.441200
  H    -53.570400   19.987900   26.414100
  H    -57.932600   24.858400   21.076400

 Total Charge           Charge          ....    0
 Multiplicity           Mult            ....    1
 Number of Electrons    NEL             ....  134
 Basis Dimension        Dim             ....  322

ORBITAL ENERGIES
----------------

  NO   OCC          E(Eh)            E(eV)
   0   2.0000     -88.968240     -2420.9489
   1   2.0000     -88.966918     -2420.9129
   2   2.0000     -10.336250      -281.2637
   3   2.0000     -10.332989      -281.1749
   4   2.0000     -10.320948      -280.8473
   5   2.0000     -10.317582      -280.7557
   6   2.0000     -10.314363      -280.6681
   7   2.0000     -10.303825      -280.3813
   8   2.0000     -10.301090      -280.3069
   9   2.0000     -10.299364      -280.2599
  10   2.0000     -10.293953      -280.1127
  11   2.0000     -10.292525      -280.0738
  12   2.0000     -10.292034      -280.0605
  13   2.0000     -10.282759      -279.8081
  14   2.0000     -10.280627      -279.7501
  15   2.0000     -10.271835      -279.5108
  16   2.0000      -8.081865      -219.9187
  17   2.0000      -8.081340      -219.9044
  18   2.0000      -6.040674      -164.3751
  19   2.0000      -6.039817      -164.3518
  20   2.0000      -6.036450      -164.2602
  21   2.0000      -6.035763      -164.2415
  22   2.0000      -6.032409      -164.1502
  23   2.0000      -6.032282      -164.1467
  24   2.0000      -1.001331       -27.2476
  25   2.0000      -0.979418       -26.6513
  26   2.0000      -0.917590       -24.9689
  27   2.0000      -0.907633       -24.6979
  28   2.0000      -0.869370       -23.6568
  29   2.0000      -0.845964       -23.0198
  30   2.0000      -0.839128       -22.8338
  31   2.0000      -0.813322       -22.1316
  32   2.0000      -0.781298       -21.2602
  33   2.0000      -0.772655       -21.0250
  34   2.0000      -0.712618       -19.3913
  35   2.0000      -0.700217       -19.0539
  36   2.0000      -0.694701       -18.9038
  37   2.0000      -0.656953       -17.8766
  38   2.0000      -0.634876       -17.2758
  39   2.0000      -0.620080       -16.8732
  40   2.0000      -0.595813       -16.2129
  41   2.0000      -0.579154       -15.7596
  42   2.0000      -0.567331       -15.4379
  43   2.0000      -0.553242       -15.0545
  44   2.0000      -0.540189       -14.6993
  45   2.0000      -0.521106       -14.1800
  46   2.0000      -0.513012       -13.9598
  47   2.0000      -0.505186       -13.7468
  48   2.0000      -0.504578       -13.7303
  49   2.0000      -0.496360       -13.5066
  50   2.0000      -0.489495       -13.3198
  51   2.0000      -0.475865       -12.9490
  52   2.0000      -0.474385       -12.9087
  53   2.0000      -0.461217       -12.5504
  54   2.0000      -0.457901       -12.4601
  55   2.0000      -0.448365       -12.2006
  56   2.0000      -0.442419       -12.0388
  57   2.0000      -0.435701       -11.8560
  58   2.0000      -0.432060       -11.7569
  59   2.0000      -0.420195       -11.4341
  60   2.0000      -0.416193       -11.3252
  61   2.0000      -0.413817       -11.2605
  62   2.0000      -0.409952       -11.1554
  63   2.0000      -0.341853        -9.3023
  64   2.0000      -0.332429        -9.0459
  65   2.0000      -0.328837        -8.9481
  66   2.0000      -0.302635        -8.2351
  67   0.0000       0.026706         0.7267
  68   0.0000       0.066167         1.8005
  69   0.0000       0.108777         2.9600
  70   0.0000       0.116711         3.1759
  71   0.0000       0.126549         3.4436

MULLIKEN ATOMIC CHARGES
-----------------------
   0 S :    0.101241
   1 C :   -0.107871
   2 C :   -0.107770
   3 C :    0.024523
   4 C :   -0.128065
   5 H :    0.040897
   6 C :    0.023673
   7 H :    0.040380
   8 H :    0.011798
   9 C :   -0.065641
  10 H :    0.040376
  11 H :    0.037734
  12 C :   -0.064943
  13 H :    0.041148
  14 H :    0.030190
  15 H :    0.012216
  16 S :    0.107391
  17 C :   -0.090050
  18 C :   -0.050484
  19 C :    0.005342
  20 C :   -0.180596
  21 H :    0.018129
  22 C :    0.029514
  23 H :    0.032976
  24 H :    0.014473
  25 C :    0.000608
  26 H :    0.013516
  27 H :    0.021493
  28 C :   -0.068916
  29 H :    0.025616
  30 H :    0.039158
  31 H :    0.034462
  32 H :    0.066492
  33 H :    0.050993
Sum of atomic charges:    0.0000000

LOEWDIN ATOMIC CHARGES
----------------------
   0 S :    0.385879
   1 C :   -0.199066
   2 C :   -0.060904
   3 C :   -0.067840
   4 C :   -0.191622
   5 H :    0.039097
   6 C :   -0.036315
   7 H :    0.030782
   8 H :    0.031067
   9 C :   -0.039960
  10 H :    0.023397
  11 H :    0.029853
  12 C :   -0.073703
  13 H :    0.031367
  14 H :    0.019691
  15 H :    0.023280
  16 S :    0.403540
  17 C :   -0.180647
  18 C :   -0.069768
  19 C :   -0.046396
  20 C :   -0.193672
  21 H :    0.028846
  22 C :   -0.035132
  23 H :    0.032072
  24 H :    0.030024
  25 C :   -0.034195
  26 H :    0.017776
  27 H :    0.024529
  28 C :   -0.072383
  29 H :    0.027479
  30 H :    0.028413
  31 H :    0.030214
  32 H :    0.037977
  33 H :    0.026322

  Mayer bond orders larger than 0.100000
B(  0-S ,  1-C ) :   1.1068 B(  0-S ,  4-C ) :   1.1466 B(  1-C ,  2-C ) :   1.6486
B(  1-C , 32-H ) :   0.9539 B(  2-C ,  3-C ) :   1.2270 B(  2-C ,  6-C ) :   1.0265
B(  3-C ,  4-C ) :   1.5716 B(  3-C ,  5-H ) :   0.9821 B(  4-C , 20-C ) :   1.0248
B(  6-C ,  7-H ) :   0.9429 B(  6-C ,  8-H ) :   0.9432 B(  6-C ,  9-C ) :   1.0513
B(  9-C , 10-H ) :   0.9581 B(  9-C , 11-H ) :   0.9574 B(  9-C , 12-C ) :   1.0691
B( 12-C , 13-H ) :   0.9752 B( 12-C , 14-H ) :   0.9773 B( 12-C , 15-H ) :   0.9710
B( 16-S , 17-C ) :   1.1557 B( 16-S , 20-C ) :   1.1512 B( 17-C , 18-C ) :   1.6163
B( 17-C , 20-C ) :   0.1015 B( 17-C , 33-H ) :   0.9721 B( 18-C , 19-C ) :   1.2197
B( 18-C , 21-H ) :   0.9934 B( 19-C , 20-C ) :   1.5870 B( 19-C , 22-C ) :   1.0239
B( 22-C , 23-H ) :   0.9409 B( 22-C , 24-H ) :   0.9358 B( 22-C , 25-C ) :   1.0746
B( 25-C , 26-H ) :   0.9562 B( 25-C , 27-H ) :   0.9511 B( 25-C , 28-C ) :   1.0735
B( 28-C , 29-H ) :   0.9721 B( 28-C , 30-H ) :   0.9758 B( 28-C , 31-H ) :   0.9713

Dispersion correction           -0.014727615
FINAL SINGLE POINT ENERGY     -1339.868094844728

DIPOLE MOMENT
-------------
                                X             Y             Z
Electronic contribution:      8.73769      26.20679      -4.83675
Nuclear contribution   :     -9.34755     -26.55322       4.99002
                        -----------------------------------------
Total Dipole Moment    :     -0.60986      -0.34643       0.15327
                        -----------------------------------------
Magnitude (a.u.)       :      0.71794
Magnitude (Debye)      :      1.82486

Rotational constants in cm-1:     0.019405     0.008333     0.007099
Rotational constants in MHz :   581.750214   249.804798   212.820821

                             ****ORCA TERMINATED NORMALLY****
TOTAL RUN TIME: 0 days 0 hours 0 minutes 21 seconds 791 msec
