                         Program Version 4.2.1 -  RELEASE  -
|  1> ! wB97X-D3 SP def2-SVP
|  2> %pal
|  3> nprocs 24
|  4> end
|  5>
|  6> * xyz 0 1
|  7> S 	 -48.2825 	 18.4533 	 28.6064
|  8> C 	 -47.1863 	 19.0747 	 27.3862
|  9> C 	 -46.1739 	 18.1609 	 27.1276
| 10> C 	 -46.3182 	 16.9606 	 27.9221
| 11> C 	 -47.5069 	 16.8768 	 28.6555
| 12> H 	 -45.5519 	 16.213 	 27.9494
| 13> C 	 -45.0443 	 18.3181 	 26.1293
| 14> H 	 -44.0938 	 18.1479 	 26.6092
| 15> H 	 -45.1108 	 19.3992 	 25.91
| 16> C 	 -45.1654 	 17.5268 	 24.8116
| 17> H 	 -46.1326 	 17.6247 	 24.4026
| 18> H 	 -44.4723 	 17.9071 	 24.1141
| 19> C 	 -44.8949 	 16.0481 	 25.015
| 20> H 	 -44.7739 	 15.4405 	 24.1348
| 21> H 	 -43.9894 	 15.8993 	 25.541
| 22> H 	 -45.6678 	 15.4753 	 25.5695
| 23> S 	 -47.199 	 16.1046 	 31.2367
| 24> C 	 -47.8459 	 14.5889 	 31.7201
| 25> C 	 -48.2043 	 13.8096 	 30.6615
| 26> C 	 -48.3291 	 14.6119 	 29.467
| 27> C 	 -47.8036 	 15.884 	 29.6256
| 28> H 	 -48.4029 	 12.7701 	 30.7846
| 29> C 	 -48.7272 	 14.0583 	 28.0446
| 30> H 	 -48.8044 	 14.8386 	 27.3524
| 31> H 	 -49.7741 	 13.7137 	 28.1767
| 32> C 	 -47.8266 	 12.9437 	 27.5133
| 33> H 	 -48.0411 	 12.7315 	 26.4535
| 34> H 	 -48.0955 	 11.9863 	 28.0077
| 35> C 	 -46.3 	 13.2416 	 27.6121
| 36> H 	 -46.097 	 13.5517 	 28.602
| 37> H 	 -46.0912 	 14.062 	 26.953
| 38> H 	 -45.6995 	 12.3587 	 27.3206
| 39> H 	 -47.0765 	 20.0439 	 27.0118
| 40> H 	 -47.6903 	 14.2365 	 32.7427
| 41> *
| 42>
| 43>                          ****END OF INPUT****

CARTESIAN COORDINATES (ANGSTROEM)
---------------------------------
  S    -48.282500   18.453300   28.606400
  C    -47.186300   19.074700   27.386200
  C    -46.173900   18.160900   27.127600
  C    -46.318200   16.960600   27.922100
  C    -47.506900   16.876800   28.655500
  H    -45.551900   16.213000   27.949400
  C    -45.044300   18.318100   26.129300
  H    -44.093800   18.147900   26.609200
  H    -45.110800   19.399200   25.910000
  C    -45.165400   17.526800   24.811600
  H    -46.132600   17.624700   24.402600
  H    -44.472300   17.907100   24.114100
  C    -44.894900   16.048100   25.015000
  H    -44.773900   15.440500   24.134800
  H    -43.989400   15.899300   25.541000
  H    -45.667800   15.475300   25.569500
  S    -47.199000   16.104600   31.236700
  C    -47.845900   14.588900   31.720100
  C    -48.204300   13.809600   30.661500
  C    -48.329100   14.611900   29.467000
  C    -47.803600   15.884000   29.625600
  H    -48.402900   12.770100   30.784600
  C    -48.727200   14.058300   28.044600
  H    -48.804400   14.838600   27.352400
  H    -49.774100   13.713700   28.176700
  C    -47.826600   12.943700   27.513300
  H    -48.041100   12.731500   26.453500
  H    -48.095500   11.986300   28.007700
  C    -46.300000   13.241600   27.612100
  H    -46.097000   13.551700   28.602000
  H    -46.091200   14.062000   26.953000
  H    -45.699500   12.358700   27.320600
  H    -47.076500   20.043900   27.011800
  H    -47.690300   14.236500   32.742700

 Total Charge           Charge          ....    0
 Multiplicity           Mult            ....    1
 Number of Electrons    NEL             ....  134
 Basis Dimension        Dim             ....  322

ORBITAL ENERGIES
----------------

  NO   OCC          E(Eh)            E(eV)
   0   2.0000     -88.966272     -2420.8953
   1   2.0000     -88.962238     -2420.7856
   2   2.0000     -10.326451      -280.9970
   3   2.0000     -10.318688      -280.7858
   4   2.0000     -10.314704      -280.6774
   5   2.0000     -10.312163      -280.6082
   6   2.0000     -10.306652      -280.4583
   7   2.0000     -10.299776      -280.2711
   8   2.0000     -10.294182      -280.1189
   9   2.0000     -10.293862      -280.1102
  10   2.0000     -10.293644      -280.1043
  11   2.0000     -10.289935      -280.0034
  12   2.0000     -10.288340      -279.9600
  13   2.0000     -10.282049      -279.7888
  14   2.0000     -10.272414      -279.5266
  15   2.0000     -10.272262      -279.5224
  16   2.0000      -8.080535      -219.8825
  17   2.0000      -8.078240      -219.8201
  18   2.0000      -6.039162      -164.3340
  19   2.0000      -6.036580      -164.2637
  20   2.0000      -6.035031      -164.2215
  21   2.0000      -6.032698      -164.1581
  22   2.0000      -6.031251      -164.1187
  23   2.0000      -6.028970      -164.0566
  24   2.0000      -1.009910       -27.4810
  25   2.0000      -0.983943       -26.7744
  26   2.0000      -0.914787       -24.8926
  27   2.0000      -0.903320       -24.5806
  28   2.0000      -0.875595       -23.8262
  29   2.0000      -0.844446       -22.9785
  30   2.0000      -0.842948       -22.9378
  31   2.0000      -0.815689       -22.1960
  32   2.0000      -0.785014       -21.3613
  33   2.0000      -0.776341       -21.1253
  34   2.0000      -0.710378       -19.3304
  35   2.0000      -0.707799       -19.2602
  36   2.0000      -0.693508       -18.8713
  37   2.0000      -0.656991       -17.8776
  38   2.0000      -0.640460       -17.4278
  39   2.0000      -0.616211       -16.7680
  40   2.0000      -0.595656       -16.2086
  41   2.0000      -0.579432       -15.7671
  42   2.0000      -0.555580       -15.1181
  43   2.0000      -0.548358       -14.9216
  44   2.0000      -0.546125       -14.8608
  45   2.0000      -0.540813       -14.7163
  46   2.0000      -0.516769       -14.0620
  47   2.0000      -0.513698       -13.9784
  48   2.0000      -0.505107       -13.7447
  49   2.0000      -0.494171       -13.4471
  50   2.0000      -0.485581       -13.2133
  51   2.0000      -0.481975       -13.1152
  52   2.0000      -0.471440       -12.8285
  53   2.0000      -0.469045       -12.7634
  54   2.0000      -0.458019       -12.4633
  55   2.0000      -0.450512       -12.2591
  56   2.0000      -0.440258       -11.9800
  57   2.0000      -0.438841       -11.9415
  58   2.0000      -0.435489       -11.8503
  59   2.0000      -0.428840       -11.6693
  60   2.0000      -0.422139       -11.4870
  61   2.0000      -0.413229       -11.2445
  62   2.0000      -0.411418       -11.1953
  63   2.0000      -0.336033        -9.1439
  64   2.0000      -0.324294        -8.8245
  65   2.0000      -0.319256        -8.6874
  66   2.0000      -0.313373        -8.5273
  67   0.0000       0.038991         1.0610
  68   0.0000       0.055863         1.5201
  69   0.0000       0.111272         3.0279
  70   0.0000       0.118045         3.2122
  71   0.0000       0.136288         3.7086

MULLIKEN ATOMIC CHARGES
-----------------------
   0 S :    0.114328
   1 C :   -0.081112
   2 C :   -0.133717
   3 C :    0.041232
   4 C :   -0.160585
   5 H :    0.006574
   6 C :    0.058650
   7 H :    0.031298
   8 H :    0.012728
   9 C :    0.016708
  10 H :    0.017866
  11 H :    0.023870
  12 C :   -0.075175
  13 H :    0.022858
  14 H :    0.010992
  15 H :    0.050378
  16 S :    0.121843
  17 C :   -0.091220
  18 C :   -0.026645
  19 C :   -0.074506
  20 C :   -0.170233
  21 H :    0.016304
  22 C :    0.110230
  23 H :    0.017038
  24 H :    0.033265
  25 C :   -0.097578
  26 H :    0.029347
  27 H :    0.026824
  28 C :   -0.016573
  29 H :    0.038086
  30 H :   -0.000962
  31 H :    0.040684
  32 H :    0.024998
  33 H :    0.062204
Sum of atomic charges:   -0.0000000

LOEWDIN ATOMIC CHARGES
----------------------
   0 S :    0.408533
   1 C :   -0.191348
   2 C :   -0.064032
   3 C :   -0.049202
   4 C :   -0.205466
   5 H :    0.024361
   6 C :   -0.028738
   7 H :    0.029299
   8 H :    0.031258
   9 C :   -0.025411
  10 H :    0.022754
  11 H :    0.022730
  12 C :   -0.069633
  13 H :    0.025178
  14 H :    0.016751
  15 H :    0.026857
  16 S :    0.424468
  17 C :   -0.186903
  18 C :   -0.071147
  19 C :   -0.046649
  20 C :   -0.218939
  21 H :    0.029513
  22 C :   -0.024585
  23 H :    0.020810
  24 H :    0.036893
  25 C :   -0.042628
  26 H :    0.026119
  27 H :    0.021101
  28 C :   -0.058328
  29 H :    0.019041
  30 H :    0.016632
  31 H :    0.031457
  32 H :    0.019891
  33 H :    0.029365

  Mayer bond orders larger than 0.100000
B(  0-S ,  1-C ) :   1.1443 B(  0-S ,  4-C ) :   1.1398 B(  1-C ,  2-C ) :   1.6151
B(  1-C , 32-H ) :   0.9657 B(  2-C ,  3-C ) :   1.2538 B(  2-C ,  6-C ) :   1.0264
B(  3-C ,  4-C ) :   1.5596 B(  3-C ,  5-H ) :   0.9906 B(  4-C , 20-C ) :   1.0432
B(  6-C ,  7-H ) :   0.9422 B(  6-C ,  8-H ) :   0.9331 B(  6-C ,  9-C ) :   1.0717
B(  9-C , 10-H ) :   0.9496 B(  9-C , 11-H ) :   0.9528 B(  9-C , 12-C ) :   1.0885
B( 12-C , 13-H ) :   0.9637 B( 12-C , 14-H ) :   0.9739 B( 12-C , 15-H ) :   0.9634
B( 16-S , 17-C ) :   1.1678 B( 16-S , 20-C ) :   1.1543 B( 17-C , 18-C ) :   1.6115
B( 17-C , 33-H ) :   0.9654 B( 18-C , 19-C ) :   1.2252 B( 18-C , 21-H ) :   0.9984
B( 19-C , 20-C ) :   1.6022 B( 19-C , 22-C ) :   1.0373 B( 22-C , 23-H ) :   0.9349
B( 22-C , 24-H ) :   0.9346 B( 22-C , 25-C ) :   1.0680 B( 25-C , 26-H ) :   0.9567
B( 25-C , 27-H ) :   0.9565 B( 25-C , 28-C ) :   1.0739 B( 28-C , 29-H ) :   0.9688
B( 28-C , 30-H ) :   0.9735 B( 28-C , 31-H ) :   0.9681

Dispersion correction           -0.016764159
FINAL SINGLE POINT ENERGY     -1339.878466767042

DIPOLE MOMENT
-------------
                                X             Y             Z
Electronic contribution:    -11.31799      13.77439      21.98876
Nuclear contribution   :     11.77432     -14.15185     -22.38665
                        -----------------------------------------
Total Dipole Moment    :      0.45632      -0.37746      -0.39789
                        -----------------------------------------
Magnitude (a.u.)       :      0.71346
Magnitude (Debye)      :      1.81347

Rotational constants in cm-1:     0.018746     0.010633     0.007920
Rotational constants in MHz :   561.992189   318.764306   237.425309

                             ****ORCA TERMINATED NORMALLY****
TOTAL RUN TIME: 0 days 0 hours 0 minutes 22 seconds 379 msec
