                         Program Version 4.2.1 -  RELEASE  -
|  1> ! wB97X-D3 SP def2-SVP
|  2> %pal
|  3> nprocs 24
|  4> end
|  5>
|  6> * xyz 0 1
|  7> S 	 -87.9791 	 -46.2644 	 -82.5614
|  8> C 	 -89.3662 	 -45.3858 	 -81.9223
|  9> C 	 -90.076 	 -46.2203 	 -81.0945
| 10> C 	 -89.4681 	 -47.5432 	 -80.9036
| 11> C 	 -88.378 	 -47.7483 	 -81.718
| 12> H 	 -89.9049 	 -48.3709 	 -80.371
| 13> C 	 -91.4693 	 -45.813 	 -80.564
| 14> H 	 -91.7843 	 -44.8664 	 -80.9355
| 15> H 	 -91.2962 	 -45.6126 	 -79.5281
| 16> C 	 -92.5683 	 -46.8374 	 -80.7815
| 17> H 	 -92.2415 	 -47.7311 	 -80.2103
| 18> H 	 -93.4378 	 -46.41 	 -80.3277
| 19> C 	 -92.9117 	 -47.3789 	 -82.2042
| 20> H 	 -92.449 	 -48.2337 	 -82.6047
| 21> H 	 -93.8406 	 -47.7812 	 -82.2751
| 22> H 	 -92.8411 	 -46.5541 	 -82.9541
| 23> S 	 -87.0191 	 -49.2676 	 -83.4437
| 24> C 	 -86.3676 	 -50.8537 	 -83.0141
| 25> C 	 -86.5277 	 -51.0872 	 -81.6917
| 26> C 	 -87.3361 	 -50.0379 	 -81.0865
| 27> C 	 -87.7003 	 -49.0033 	 -81.8823
| 28> H 	 -86.118 	 -51.9978 	 -81.2244
| 29> C 	 -87.5996 	 -50.1209 	 -79.6067
| 30> H 	 -88.0988 	 -49.135 	 -79.2769
| 31> H 	 -86.6131 	 -50.1711 	 -79.0915
| 32> C 	 -88.5274 	 -51.3332 	 -79.2483
| 33> H 	 -88.3823 	 -52.0901 	 -79.9818
| 34> H 	 -89.5615 	 -51.0905 	 -79.3945
| 35> C 	 -88.3538 	 -51.8615 	 -77.8236
| 36> H 	 -89.1171 	 -52.5804 	 -77.4585
| 37> H 	 -88.277 	 -51.1023 	 -77.1322
| 38> H 	 -87.4158 	 -52.4243 	 -77.6831
| 39> H 	 -89.652 	 -44.3698 	 -82.151
| 40> H 	 -86.0741 	 -51.5861 	 -83.8107
| 41> *
| 42>
| 43>                          ****END OF INPUT****

CARTESIAN COORDINATES (ANGSTROEM)
---------------------------------
  S    -87.979100  -46.264400  -82.561400
  C    -89.366200  -45.385800  -81.922300
  C    -90.076000  -46.220300  -81.094500
  C    -89.468100  -47.543200  -80.903600
  C    -88.378000  -47.748300  -81.718000
  H    -89.904900  -48.370900  -80.371000
  C    -91.469300  -45.813000  -80.564000
  H    -91.784300  -44.866400  -80.935500
  H    -91.296200  -45.612600  -79.528100
  C    -92.568300  -46.837400  -80.781500
  H    -92.241500  -47.731100  -80.210300
  H    -93.437800  -46.410000  -80.327700
  C    -92.911700  -47.378900  -82.204200
  H    -92.449000  -48.233700  -82.604700
  H    -93.840600  -47.781200  -82.275100
  H    -92.841100  -46.554100  -82.954100
  S    -87.019100  -49.267600  -83.443700
  C    -86.367600  -50.853700  -83.014100
  C    -86.527700  -51.087200  -81.691700
  C    -87.336100  -50.037900  -81.086500
  C    -87.700300  -49.003300  -81.882300
  H    -86.118000  -51.997800  -81.224400
  C    -87.599600  -50.120900  -79.606700
  H    -88.098800  -49.135000  -79.276900
  H    -86.613100  -50.171100  -79.091500
  C    -88.527400  -51.333200  -79.248300
  H    -88.382300  -52.090100  -79.981800
  H    -89.561500  -51.090500  -79.394500
  C    -88.353800  -51.861500  -77.823600
  H    -89.117100  -52.580400  -77.458500
  H    -88.277000  -51.102300  -77.132200
  H    -87.415800  -52.424300  -77.683100
  H    -89.652000  -44.369800  -82.151000
  H    -86.074100  -51.586100  -83.810700

 Total Charge           Charge          ....    0
 Multiplicity           Mult            ....    1
 Number of Electrons    NEL             ....  134
 Basis Dimension        Dim             ....  322

ORBITAL ENERGIES
----------------

  NO   OCC          E(Eh)            E(eV)
   0   2.0000     -88.965383     -2420.8712
   1   2.0000     -88.957847     -2420.6661
   2   2.0000     -10.332846      -281.1710
   3   2.0000     -10.324204      -280.9359
   4   2.0000     -10.322210      -280.8816
   5   2.0000     -10.313739      -280.6511
   6   2.0000     -10.304707      -280.4053
   7   2.0000     -10.302757      -280.3523
   8   2.0000     -10.299320      -280.2587
   9   2.0000     -10.297516      -280.2096
  10   2.0000     -10.296309      -280.1768
  11   2.0000     -10.289637      -279.9953
  12   2.0000     -10.288576      -279.9664
  13   2.0000     -10.284262      -279.8490
  14   2.0000     -10.274595      -279.5859
  15   2.0000     -10.268013      -279.4068
  16   2.0000      -8.079770      -219.8617
  17   2.0000      -8.073655      -219.6953
  18   2.0000      -6.038585      -164.3183
  19   2.0000      -6.034232      -164.1998
  20   2.0000      -6.032269      -164.1464
  21   2.0000      -6.030295      -164.0927
  22   2.0000      -6.027992      -164.0300
  23   2.0000      -6.024229      -163.9276
  24   2.0000      -1.012948       -27.5637
  25   2.0000      -0.985039       -26.8043
  26   2.0000      -0.910608       -24.7789
  27   2.0000      -0.904908       -24.6238
  28   2.0000      -0.877535       -23.8789
  29   2.0000      -0.850068       -23.1315
  30   2.0000      -0.838772       -22.8241
  31   2.0000      -0.823424       -22.4065
  32   2.0000      -0.789499       -21.4834
  33   2.0000      -0.771172       -20.9847
  34   2.0000      -0.715613       -19.4728
  35   2.0000      -0.703387       -19.1401
  36   2.0000      -0.695310       -18.9204
  37   2.0000      -0.666265       -18.1300
  38   2.0000      -0.639021       -17.3886
  39   2.0000      -0.622830       -16.9481
  40   2.0000      -0.594399       -16.1744
  41   2.0000      -0.569168       -15.4879
  42   2.0000      -0.556688       -15.1482
  43   2.0000      -0.550978       -14.9929
  44   2.0000      -0.538529       -14.6541
  45   2.0000      -0.528135       -14.3713
  46   2.0000      -0.521867       -14.2007
  47   2.0000      -0.514729       -14.0065
  48   2.0000      -0.511288       -13.9128
  49   2.0000      -0.505597       -13.7580
  50   2.0000      -0.489171       -13.3110
  51   2.0000      -0.481653       -13.1064
  52   2.0000      -0.476642       -12.9701
  53   2.0000      -0.463202       -12.6044
  54   2.0000      -0.457698       -12.4546
  55   2.0000      -0.454213       -12.3598
  56   2.0000      -0.447228       -12.1697
  57   2.0000      -0.438640       -11.9360
  58   2.0000      -0.438035       -11.9195
  59   2.0000      -0.416590       -11.3360
  60   2.0000      -0.414350       -11.2750
  61   2.0000      -0.411338       -11.1931
  62   2.0000      -0.402229       -10.9452
  63   2.0000      -0.364030        -9.9058
  64   2.0000      -0.329780        -8.9738
  65   2.0000      -0.324221        -8.8225
  66   2.0000      -0.291334        -7.9276
  67   0.0000       0.028663         0.7800
  68   0.0000       0.076120         2.0713
  69   0.0000       0.114282         3.1098
  70   0.0000       0.122107         3.3227
  71   0.0000       0.129829         3.5328

MULLIKEN ATOMIC CHARGES
-----------------------
   0 S :    0.106690
   1 C :   -0.122197
   2 C :   -0.095921
   3 C :    0.001787
   4 C :   -0.109787
   5 H :    0.014470
   6 C :    0.109925
   7 H :   -0.000890
   8 H :    0.028753
   9 C :   -0.084136
  10 H :    0.029206
  11 H :    0.030237
  12 C :    0.002878
  13 H :    0.017450
  14 H :   -0.000840
  15 H :    0.029627
  16 S :    0.070572
  17 C :   -0.109728
  18 C :   -0.018861
  19 C :   -0.083571
  20 C :   -0.109912
  21 H :    0.038670
  22 C :    0.005026
  23 H :    0.038119
  24 H :    0.044788
  25 C :   -0.037865
  26 H :    0.017464
  27 H :    0.018905
  28 C :   -0.036386
  29 H :    0.036160
  30 H :    0.014204
  31 H :    0.022492
  32 H :    0.049055
  33 H :    0.083616
Sum of atomic charges:    0.0000000

LOEWDIN ATOMIC CHARGES
----------------------
   0 S :    0.392966
   1 C :   -0.196680
   2 C :   -0.054943
   3 C :   -0.070101
   4 C :   -0.183398
   5 H :    0.027792
   6 C :   -0.026695
   7 H :    0.020771
   8 H :    0.033320
   9 C :   -0.037591
  10 H :    0.026007
  11 H :    0.024884
  12 C :   -0.066145
  13 H :    0.025203
  14 H :    0.016771
  15 H :    0.030669
  16 S :    0.393658
  17 C :   -0.177187
  18 C :   -0.073098
  19 C :   -0.064812
  20 C :   -0.197865
  21 H :    0.040952
  22 C :   -0.036772
  23 H :    0.035835
  24 H :    0.035696
  25 C :   -0.037869
  26 H :    0.017804
  27 H :    0.022135
  28 C :   -0.065946
  29 H :    0.031158
  30 H :    0.013187
  31 H :    0.026131
  32 H :    0.031710
  33 H :    0.042455

  Mayer bond orders larger than 0.100000
B(  0-S ,  1-C ) :   1.1060 B(  0-S ,  4-C ) :   1.1395 B(  1-C ,  2-C ) :   1.6446
B(  1-C , 32-H ) :   0.9717 B(  2-C ,  3-C ) :   1.2072 B(  2-C ,  6-C ) :   1.0126
B(  3-C ,  4-C ) :   1.5832 B(  3-C ,  5-H ) :   0.9912 B(  4-C , 20-C ) :   1.0724
B(  6-C ,  7-H ) :   0.9409 B(  6-C ,  8-H ) :   0.9317 B(  6-C ,  9-C ) :   1.0874
B(  9-C , 10-H ) :   0.9551 B(  9-C , 11-H ) :   0.9558 B(  9-C , 12-C ) :   1.0656
B( 12-C , 13-H ) :   0.9705 B( 12-C , 14-H ) :   0.9664 B( 12-C , 15-H ) :   0.9774
B( 16-S , 17-C ) :   1.1494 B( 16-S , 20-C ) :   1.1093 B( 17-C , 18-C ) :   1.6276
B( 17-C , 33-H ) :   0.9605 B( 18-C , 19-C ) :   1.2023 B( 18-C , 21-H ) :   0.9887
B( 19-C , 20-C ) :   1.6311 B( 19-C , 22-C ) :   1.0454 B( 22-C , 23-H ) :   0.9342
B( 22-C , 24-H ) :   0.9471 B( 22-C , 25-C ) :   1.0356 B( 25-C , 26-H ) :   0.9651
B( 25-C , 27-H ) :   0.9509 B( 25-C , 28-C ) :   1.0755 B( 28-C , 29-H ) :   0.9746
B( 28-C , 30-H ) :   0.9745 B( 28-C , 31-H ) :   0.9751

Dispersion correction           -0.014169075
FINAL SINGLE POINT ENERGY     -1339.862579322076

DIPOLE MOMENT
-------------
                                X             Y             Z
Electronic contribution:     18.69596       8.98582     -18.02383
Nuclear contribution   :    -19.17777      -9.33713      18.46238
                        -----------------------------------------
Total Dipole Moment    :     -0.48181      -0.35131       0.43856
                        -----------------------------------------
Magnitude (a.u.)       :      0.74019
Magnitude (Debye)      :      1.88142

Rotational constants in cm-1:     0.016710     0.009441     0.007054
Rotational constants in MHz :   500.946508   283.044563   211.478888

                             ****ORCA TERMINATED NORMALLY****
TOTAL RUN TIME: 0 days 0 hours 0 minutes 21 seconds 699 msec
