                         Program Version 4.2.1 -  RELEASE  -
|  1> ! wB97X-D3 SP def2-SVP
|  2> %pal
|  3> nprocs 24
|  4> end
|  5>
|  6> * xyz 0 1
|  7> S 	 -48.5806 	 23.1022 	 25.0826
|  8> C 	 -50.2695 	 23.6516 	 24.9662
|  9> C 	 -50.8168 	 23.1651 	 23.7538
| 10> C 	 -49.9304 	 22.4278 	 22.9911
| 11> C 	 -48.6956 	 22.2828 	 23.5677
| 12> H 	 -50.3005 	 21.7545 	 22.2265
| 13> C 	 -52.2834 	 23.4446 	 23.3272
| 14> H 	 -52.5298 	 23.0657 	 22.3556
| 15> H 	 -52.4644 	 24.5241 	 23.2967
| 16> C 	 -53.2584 	 22.7369 	 24.2899
| 17> H 	 -52.9602 	 22.9377 	 25.3065
| 18> H 	 -54.3005 	 23.1258 	 24.1573
| 19> C 	 -53.0672 	 21.2367 	 24.1676
| 20> H 	 -53.6901 	 20.6554 	 24.8597
| 21> H 	 -53.2835 	 20.8167 	 23.2052
| 22> H 	 -52.0388 	 20.9745 	 24.4349
| 23> S 	 -46.3412 	 20.9169 	 24.2769
| 24> C 	 -45.4846 	 19.9807 	 23.0497
| 25> C 	 -45.784 	 20.5597 	 21.8527
| 26> C 	 -46.9578 	 21.3893 	 21.8287
| 27> C 	 -47.4725 	 21.593 	 23.1031
| 28> H 	 -45.1483 	 20.2904 	 21.0649
| 29> C 	 -47.5318 	 21.9573 	 20.5812
| 30> H 	 -46.795 	 22.4167 	 19.9629
| 31> H 	 -48.1879 	 22.7871 	 20.8122
| 32> C 	 -48.3396 	 20.9503 	 19.7261
| 33> H 	 -48.9537 	 20.4859 	 20.528
| 34> H 	 -47.6134 	 20.171 	 19.2916
| 35> C 	 -49.1382 	 21.4919 	 18.5722
| 36> H 	 -49.3577 	 22.5773 	 18.5978
| 37> H 	 -49.9738 	 20.8425 	 18.3958
| 38> H 	 -48.6289 	 21.382 	 17.6383
| 39> H 	 -50.8251 	 24.0258 	 25.7983
| 40> H 	 -44.7042 	 19.2691 	 23.3171
| 41> *
| 42>
| 43>                          ****END OF INPUT****

CARTESIAN COORDINATES (ANGSTROEM)
---------------------------------
  S    -48.580600   23.102200   25.082600
  C    -50.269500   23.651600   24.966200
  C    -50.816800   23.165100   23.753800
  C    -49.930400   22.427800   22.991100
  C    -48.695600   22.282800   23.567700
  H    -50.300500   21.754500   22.226500
  C    -52.283400   23.444600   23.327200
  H    -52.529800   23.065700   22.355600
  H    -52.464400   24.524100   23.296700
  C    -53.258400   22.736900   24.289900
  H    -52.960200   22.937700   25.306500
  H    -54.300500   23.125800   24.157300
  C    -53.067200   21.236700   24.167600
  H    -53.690100   20.655400   24.859700
  H    -53.283500   20.816700   23.205200
  H    -52.038800   20.974500   24.434900
  S    -46.341200   20.916900   24.276900
  C    -45.484600   19.980700   23.049700
  C    -45.784000   20.559700   21.852700
  C    -46.957800   21.389300   21.828700
  C    -47.472500   21.593000   23.103100
  H    -45.148300   20.290400   21.064900
  C    -47.531800   21.957300   20.581200
  H    -46.795000   22.416700   19.962900
  H    -48.187900   22.787100   20.812200
  C    -48.339600   20.950300   19.726100
  H    -48.953700   20.485900   20.528000
  H    -47.613400   20.171000   19.291600
  C    -49.138200   21.491900   18.572200
  H    -49.357700   22.577300   18.597800
  H    -49.973800   20.842500   18.395800
  H    -48.628900   21.382000   17.638300
  H    -50.825100   24.025800   25.798300
  H    -44.704200   19.269100   23.317100

 Total Charge           Charge          ....    0
 Multiplicity           Mult            ....    1
 Number of Electrons    NEL             ....  134
 Basis Dimension        Dim             ....  322

ORBITAL ENERGIES
----------------

  NO   OCC          E(Eh)            E(eV)
   0   2.0000     -88.968161     -2420.9467
   1   2.0000     -88.959276     -2420.7050
   2   2.0000     -10.333153      -281.1794
   3   2.0000     -10.331284      -281.1285
   4   2.0000     -10.320766      -280.8423
   5   2.0000     -10.316182      -280.7176
   6   2.0000     -10.305070      -280.4152
   7   2.0000     -10.304546      -280.4010
   8   2.0000     -10.292648      -280.0772
   9   2.0000     -10.292575      -280.0752
  10   2.0000     -10.291902      -280.0569
  11   2.0000     -10.290329      -280.0141
  12   2.0000     -10.287093      -279.9260
  13   2.0000     -10.283838      -279.8375
  14   2.0000     -10.275469      -279.6097
  15   2.0000     -10.272162      -279.5197
  16   2.0000      -8.082888      -219.9466
  17   2.0000      -8.074248      -219.7115
  18   2.0000      -6.041293      -164.3919
  19   2.0000      -6.037372      -164.2853
  20   2.0000      -6.033785      -164.1876
  21   2.0000      -6.032848      -164.1621
  22   2.0000      -6.028945      -164.0559
  23   2.0000      -6.024655      -163.9392
  24   2.0000      -1.009753       -27.4768
  25   2.0000      -0.986887       -26.8546
  26   2.0000      -0.914511       -24.8851
  27   2.0000      -0.910529       -24.7768
  28   2.0000      -0.867454       -23.6046
  29   2.0000      -0.854605       -23.2550
  30   2.0000      -0.845099       -22.9963
  31   2.0000      -0.816415       -22.2158
  32   2.0000      -0.784790       -21.3552
  33   2.0000      -0.774519       -21.0757
  34   2.0000      -0.705705       -19.2032
  35   2.0000      -0.699104       -19.0236
  36   2.0000      -0.692393       -18.8410
  37   2.0000      -0.663085       -18.0435
  38   2.0000      -0.639977       -17.4147
  39   2.0000      -0.623522       -16.9669
  40   2.0000      -0.602153       -16.3854
  41   2.0000      -0.577934       -15.7264
  42   2.0000      -0.564566       -15.3626
  43   2.0000      -0.551424       -15.0050
  44   2.0000      -0.541236       -14.7278
  45   2.0000      -0.531938       -14.4748
  46   2.0000      -0.520216       -14.1558
  47   2.0000      -0.514758       -14.0073
  48   2.0000      -0.511050       -13.9064
  49   2.0000      -0.499566       -13.5939
  50   2.0000      -0.484107       -13.1732
  51   2.0000      -0.481489       -13.1020
  52   2.0000      -0.475905       -12.9500
  53   2.0000      -0.465662       -12.6713
  54   2.0000      -0.454725       -12.3737
  55   2.0000      -0.447729       -12.1833
  56   2.0000      -0.443095       -12.0572
  57   2.0000      -0.436033       -11.8651
  58   2.0000      -0.427507       -11.6331
  59   2.0000      -0.425520       -11.5790
  60   2.0000      -0.422442       -11.4952
  61   2.0000      -0.415150       -11.2968
  62   2.0000      -0.406740       -11.0680
  63   2.0000      -0.353242        -9.6122
  64   2.0000      -0.338593        -9.2136
  65   2.0000      -0.323360        -8.7991
  66   2.0000      -0.285716        -7.7747
  67   0.0000       0.017250         0.4694
  68   0.0000       0.069231         1.8839
  69   0.0000       0.096743         2.6325
  70   0.0000       0.121218         3.2985
  71   0.0000       0.134724         3.6660

MULLIKEN ATOMIC CHARGES
-----------------------
   0 S :    0.099778
   1 C :   -0.120946
   2 C :   -0.130513
   3 C :    0.006775
   4 C :   -0.113092
   5 H :    0.024580
   6 C :    0.087403
   7 H :    0.010807
   8 H :    0.041879
   9 C :   -0.070061
  10 H :    0.018458
  11 H :    0.038197
  12 C :   -0.058429
  13 H :    0.028435
  14 H :    0.018320
  15 H :    0.045484
  16 S :    0.073778
  17 C :   -0.102087
  18 C :   -0.000036
  19 C :   -0.043024
  20 C :   -0.119415
  21 H :    0.001802
  22 C :    0.083994
  23 H :    0.013377
  24 H :    0.016838
  25 C :   -0.129240
  26 H :    0.034638
  27 H :    0.040754
  28 C :   -0.004568
  29 H :    0.036918
  30 H :    0.029900
  31 H :    0.016402
  32 H :    0.052653
  33 H :    0.070244
Sum of atomic charges:   -0.0000000

LOEWDIN ATOMIC CHARGES
----------------------
   0 S :    0.413101
   1 C :   -0.196858
   2 C :   -0.052907
   3 C :   -0.083958
   4 C :   -0.180561
   5 H :    0.036303
   6 C :   -0.023890
   7 H :    0.022663
   8 H :    0.033518
   9 C :   -0.040206
  10 H :    0.019125
  11 H :    0.026507
  12 C :   -0.066189
  13 H :    0.026442
  14 H :    0.016242
  15 H :    0.031275
  16 S :    0.373200
  17 C :   -0.168124
  18 C :   -0.062609
  19 C :   -0.054276
  20 C :   -0.188303
  21 H :    0.023517
  22 C :   -0.035669
  23 H :    0.025155
  24 H :    0.028258
  25 C :   -0.047056
  26 H :    0.022596
  27 H :    0.032340
  28 C :   -0.072997
  29 H :    0.030552
  30 H :    0.030347
  31 H :    0.024921
  32 H :    0.022938
  33 H :    0.034602

  Mayer bond orders larger than 0.100000
B(  0-S ,  1-C ) :   1.1401 B(  0-S ,  4-C ) :   1.1817 B(  1-C ,  2-C ) :   1.5709
B(  1-C ,  4-C ) :   0.1153 B(  1-C , 32-H ) :   0.9723 B(  2-C ,  3-C ) :   1.2987
B(  2-C ,  6-C ) :   1.0068 B(  3-C ,  4-C ) :   1.5405 B(  3-C ,  5-H ) :   0.9860
B(  4-C , 20-C ) :   1.0417 B(  6-C ,  7-H ) :   0.9500 B(  6-C ,  8-H ) :   0.9445
B(  6-C ,  9-C ) :   1.0635 B(  9-C , 10-H ) :   0.9595 B(  9-C , 11-H ) :   0.9585
B(  9-C , 12-C ) :   1.0681 B( 12-C , 13-H ) :   0.9722 B( 12-C , 14-H ) :   0.9772
B( 12-C , 15-H ) :   0.9705 B( 16-S , 17-C ) :   1.1378 B( 16-S , 20-C ) :   1.1306
B( 17-C , 18-C ) :   1.6110 B( 17-C , 33-H ) :   0.9721 B( 18-C , 19-C ) :   1.2058
B( 18-C , 21-H ) :   1.0037 B( 19-C , 20-C ) :   1.5822 B( 19-C , 22-C ) :   1.0749
B( 22-C , 23-H ) :   0.9248 B( 22-C , 24-H ) :   0.9239 B( 22-C , 25-C ) :   1.0569
B( 25-C , 26-H ) :   0.9608 B( 25-C , 27-H ) :   0.9544 B( 25-C , 28-C ) :   1.0766
B( 28-C , 29-H ) :   0.9736 B( 28-C , 30-H ) :   0.9704 B( 28-C , 31-H ) :   0.9699

Dispersion correction           -0.014657593
FINAL SINGLE POINT ENERGY     -1339.868276333059

DIPOLE MOMENT
-------------
                                X             Y             Z
Electronic contribution:     21.19634       2.35893      18.07687
Nuclear contribution   :    -21.47183      -2.52050     -18.63381
                        -----------------------------------------
Total Dipole Moment    :     -0.27549      -0.16156      -0.55693
                        -----------------------------------------
Magnitude (a.u.)       :      0.64201
Magnitude (Debye)      :      1.63185

Rotational constants in cm-1:     0.017697     0.009519     0.006967
Rotational constants in MHz :   530.545339   285.378094   208.876239

                             ****ORCA TERMINATED NORMALLY****
TOTAL RUN TIME: 0 days 0 hours 0 minutes 22 seconds 25 msec
