                         Program Version 4.2.1 -  RELEASE  -
|  1> ! wB97X-D3 SP def2-SVP
|  2> %pal
|  3> nprocs 24
|  4> end
|  5>
|  6> * xyz 0 1
|  7> S 	 -103.167 	 2.02445 	 -107.199
|  8> C 	 -104.184 	 0.771713 	 -106.567
|  9> C 	 -103.417 	 -0.373144 	 -106.288
| 10> C 	 -102.019 	 -0.122823 	 -106.452
| 11> C 	 -101.716 	 1.20128 	 -106.735
| 12> H 	 -101.143 	 -0.860601 	 -106.303
| 13> C 	 -103.968 	 -1.67787 	 -105.766
| 14> H 	 -104.627 	 -2.09813 	 -106.558
| 15> H 	 -104.716 	 -1.47772 	 -105.08
| 16> C 	 -102.847 	 -2.69356 	 -105.26
| 17> H 	 -102.171 	 -2.99751 	 -106.018
| 18> H 	 -102.268 	 -2.12438 	 -104.503
| 19> C 	 -103.41 	 -4.02461 	 -104.641
| 20> H 	 -104.165 	 -4.31965 	 -105.338
| 21> H 	 -102.679 	 -4.80004 	 -104.507
| 22> H 	 -103.849 	 -3.83787 	 -103.672
| 23> S 	 -100.067 	 2.52695 	 -108.578
| 24> C 	 -98.3937 	 2.77736 	 -108.184
| 25> C 	 -98.0551 	 2.07959 	 -107.049
| 26> C 	 -99.1782 	 1.53814 	 -106.313
| 27> C 	 -100.366 	 1.72564 	 -107.029
| 28> H 	 -97.0337 	 2.0667 	 -106.752
| 29> C 	 -99.1788 	 0.959541 	 -104.904
| 30> H 	 -98.1552 	 0.490564 	 -104.896
| 31> H 	 -99.8698 	 0.168767 	 -104.816
| 32> C 	 -99.379 	 1.95123 	 -103.735
| 33> H 	 -100.419 	 2.32815 	 -103.843
| 34> H 	 -98.7298 	 2.79292 	 -103.74
| 35> C 	 -99.2984 	 1.27877 	 -102.421
| 36> H 	 -99.3435 	 1.93964 	 -101.562
| 37> H 	 -98.3447 	 0.797461 	 -102.345
| 38> H 	 -100.122 	 0.537656 	 -102.386
| 39> H 	 -105.233 	 0.871655 	 -106.479
| 40> H 	 -97.6581 	 3.26166 	 -108.732
| 41> *
| 42>
| 43>                          ****END OF INPUT****

CARTESIAN COORDINATES (ANGSTROEM)
---------------------------------
  S    -103.167000    2.024450  -107.199000
  C    -104.184000    0.771713  -106.567000
  C    -103.417000   -0.373144  -106.288000
  C    -102.019000   -0.122823  -106.452000
  C    -101.716000    1.201280  -106.735000
  H    -101.143000   -0.860601  -106.303000
  C    -103.968000   -1.677870  -105.766000
  H    -104.627000   -2.098130  -106.558000
  H    -104.716000   -1.477720  -105.080000
  C    -102.847000   -2.693560  -105.260000
  H    -102.171000   -2.997510  -106.018000
  H    -102.268000   -2.124380  -104.503000
  C    -103.410000   -4.024610  -104.641000
  H    -104.165000   -4.319650  -105.338000
  H    -102.679000   -4.800040  -104.507000
  H    -103.849000   -3.837870  -103.672000
  S    -100.067000    2.526950  -108.578000
  C    -98.393700    2.777360  -108.184000
  C    -98.055100    2.079590  -107.049000
  C    -99.178200    1.538140  -106.313000
  C    -100.366000    1.725640  -107.029000
  H    -97.033700    2.066700  -106.752000
  C    -99.178800    0.959541  -104.904000
  H    -98.155200    0.490564  -104.896000
  H    -99.869800    0.168767  -104.816000
  C    -99.379000    1.951230  -103.735000
  H    -100.419000    2.328150  -103.843000
  H    -98.729800    2.792920  -103.740000
  C    -99.298400    1.278770  -102.421000
  H    -99.343500    1.939640  -101.562000
  H    -98.344700    0.797461  -102.345000
  H    -100.122000    0.537656  -102.386000
  H    -105.233000    0.871655  -106.479000
  H    -97.658100    3.261660  -108.732000

 Total Charge           Charge          ....    0
 Multiplicity           Mult            ....    1
 Number of Electrons    NEL             ....  134
 Basis Dimension        Dim             ....  322

ORBITAL ENERGIES
----------------

  NO   OCC          E(Eh)            E(eV)
   0   2.0000     -88.966542     -2420.9027
   1   2.0000     -88.964516     -2420.8476
   2   2.0000     -10.328470      -281.0519
   3   2.0000     -10.327552      -281.0270
   4   2.0000     -10.312864      -280.6273
   5   2.0000     -10.310092      -280.5519
   6   2.0000     -10.306499      -280.4541
   7   2.0000     -10.304256      -280.3931
   8   2.0000     -10.300592      -280.2933
   9   2.0000     -10.295312      -280.1497
  10   2.0000     -10.294811      -280.1360
  11   2.0000     -10.292240      -280.0661
  12   2.0000     -10.291754      -280.0529
  13   2.0000     -10.278833      -279.7013
  14   2.0000     -10.278166      -279.6831
  15   2.0000     -10.271008      -279.4883
  16   2.0000      -8.081676      -219.9136
  17   2.0000      -8.079052      -219.8422
  18   2.0000      -6.040111      -164.3598
  19   2.0000      -6.037584      -164.2910
  20   2.0000      -6.036099      -164.2506
  21   2.0000      -6.033624      -164.1833
  22   2.0000      -6.032532      -164.1536
  23   2.0000      -6.029766      -164.0783
  24   2.0000      -1.006221       -27.3807
  25   2.0000      -0.983473       -26.7617
  26   2.0000      -0.911817       -24.8118
  27   2.0000      -0.906642       -24.6710
  28   2.0000      -0.868464       -23.6321
  29   2.0000      -0.854139       -23.2423
  30   2.0000      -0.844609       -22.9830
  31   2.0000      -0.816910       -22.2292
  32   2.0000      -0.782350       -21.2888
  33   2.0000      -0.769936       -20.9510
  34   2.0000      -0.716733       -19.5033
  35   2.0000      -0.697103       -18.9691
  36   2.0000      -0.693015       -18.8579
  37   2.0000      -0.656554       -17.8657
  38   2.0000      -0.643146       -17.5009
  39   2.0000      -0.617112       -16.7925
  40   2.0000      -0.597018       -16.2457
  41   2.0000      -0.568688       -15.4748
  42   2.0000      -0.565859       -15.3978
  43   2.0000      -0.562908       -15.3175
  44   2.0000      -0.532962       -14.5026
  45   2.0000      -0.526828       -14.3357
  46   2.0000      -0.516873       -14.0648
  47   2.0000      -0.509044       -13.8518
  48   2.0000      -0.505003       -13.7418
  49   2.0000      -0.502839       -13.6829
  50   2.0000      -0.495896       -13.4940
  51   2.0000      -0.481087       -13.0910
  52   2.0000      -0.469951       -12.7880
  53   2.0000      -0.463446       -12.6110
  54   2.0000      -0.457442       -12.4476
  55   2.0000      -0.451507       -12.2861
  56   2.0000      -0.448441       -12.2027
  57   2.0000      -0.436099       -11.8669
  58   2.0000      -0.431347       -11.7376
  59   2.0000      -0.428457       -11.6589
  60   2.0000      -0.425461       -11.5774
  61   2.0000      -0.419596       -11.4178
  62   2.0000      -0.408269       -11.1096
  63   2.0000      -0.348363        -9.4794
  64   2.0000      -0.329103        -8.9553
  65   2.0000      -0.326497        -8.8844
  66   2.0000      -0.287912        -7.8345
  67   0.0000       0.025556         0.6954
  68   0.0000       0.071984         1.9588
  69   0.0000       0.107794         2.9332
  70   0.0000       0.124942         3.3998
  71   0.0000       0.133733         3.6391

MULLIKEN ATOMIC CHARGES
-----------------------
   0 S :    0.113848
   1 C :   -0.112722
   2 C :   -0.094290
   3 C :   -0.021703
   4 C :   -0.153255
   5 H :    0.060305
   6 C :    0.092693
   7 H :    0.030566
   8 H :    0.006110
   9 C :   -0.114267
  10 H :    0.040049
  11 H :    0.038218
  12 C :   -0.014987
  13 H :    0.027241
  14 H :    0.034316
  15 H :    0.030452
  16 S :    0.105634
  17 C :   -0.059249
  18 C :   -0.036633
  19 C :   -0.055906
  20 C :   -0.141180
  21 H :    0.005724
  22 C :    0.075041
  23 H :    0.021183
  24 H :   -0.008120
  25 C :   -0.038651
  26 H :    0.033685
  27 H :    0.018832
  28 C :   -0.026826
  29 H :    0.032639
  30 H :    0.016230
  31 H :    0.029728
  32 H :    0.035200
  33 H :    0.030092
Sum of atomic charges:   -0.0000000

LOEWDIN ATOMIC CHARGES
----------------------
   0 S :    0.425856
   1 C :   -0.200185
   2 C :   -0.059618
   3 C :   -0.074443
   4 C :   -0.206077
   5 H :    0.047646
   6 C :   -0.033275
   7 H :    0.038323
   8 H :    0.023025
   9 C :   -0.034839
  10 H :    0.019551
  11 H :    0.024915
  12 C :   -0.058247
  13 H :    0.023240
  14 H :    0.024883
  15 H :    0.023729
  16 S :    0.397847
  17 C :   -0.181133
  18 C :   -0.065807
  19 C :   -0.058728
  20 C :   -0.189460
  21 H :    0.025361
  22 C :   -0.027875
  23 H :    0.033961
  24 H :    0.017725
  25 C :   -0.036635
  26 H :    0.031138
  27 H :    0.018489
  28 C :   -0.061888
  29 H :    0.026177
  30 H :    0.019395
  31 H :    0.027677
  32 H :    0.020232
  33 H :    0.019037

  Mayer bond orders larger than 0.100000
B(  0-S ,  1-C ) :   1.1567 B(  0-S ,  4-C ) :   1.1694 B(  1-C ,  2-C ) :   1.5629
B(  1-C ,  4-C ) :   0.1083 B(  1-C , 32-H ) :   0.9834 B(  2-C ,  3-C ) :   1.2874
B(  2-C ,  6-C ) :   1.0134 B(  3-C ,  4-C ) :   1.5294 B(  3-C ,  5-H ) :   0.9633
B(  4-C , 20-C ) :   1.0394 B(  6-C ,  7-H ) :   0.9226 B(  6-C ,  8-H ) :   0.9376
B(  6-C ,  9-C ) :   1.0671 B(  9-C , 10-H ) :   0.9526 B(  9-C , 11-H ) :   0.9586
B(  9-C , 12-C ) :   1.0742 B( 12-C , 13-H ) :   0.9764 B( 12-C , 14-H ) :   0.9767
B( 12-C , 15-H ) :   0.9776 B( 16-S , 17-C ) :   1.1412 B( 16-S , 20-C ) :   1.1412
B( 17-C , 18-C ) :   1.6298 B( 17-C , 33-H ) :   0.9729 B( 18-C , 19-C ) :   1.2342
B( 18-C , 21-H ) :   0.9930 B( 19-C , 20-C ) :   1.5964 B( 19-C , 22-C ) :   1.0450
B( 22-C , 23-H ) :   0.9288 B( 22-C , 24-H ) :   0.9248 B( 22-C , 25-C ) :   1.0687
B( 25-C , 26-H ) :   0.9505 B( 25-C , 27-H ) :   0.9544 B( 25-C , 28-C ) :   1.0921
B( 28-C , 29-H ) :   0.9715 B( 28-C , 30-H ) :   0.9721 B( 28-C , 31-H ) :   0.9735

Dispersion correction           -0.013930171
FINAL SINGLE POINT ENERGY     -1339.871146042048

DIPOLE MOMENT
-------------
                                X             Y             Z
Electronic contribution:     -1.54482      20.08586     -23.47892
Nuclear contribution   :      1.63338     -20.60992      23.92108
                        -----------------------------------------
Total Dipole Moment    :      0.08855      -0.52406       0.44216
                        -----------------------------------------
Magnitude (a.u.)       :      0.69136
Magnitude (Debye)      :      1.75730

Rotational constants in cm-1:     0.016492     0.009100     0.007024
Rotational constants in MHz :   494.421465   272.816723   210.579441

                             ****ORCA TERMINATED NORMALLY****
TOTAL RUN TIME: 0 days 0 hours 0 minutes 20 seconds 651 msec
