                         Program Version 4.2.1 -  RELEASE  -
|  1> ! wB97X-D3 SP def2-SVP
|  2> %pal
|  3> nprocs 24
|  4> end
|  5>
|  6> * xyz 0 1
|  7> S 	 -132.394 	 65.1908 	 -52.4272
|  8> C 	 -132.783 	 65.5298 	 -54.1238
|  9> C 	 -131.825 	 66.3716 	 -54.6639
| 10> C 	 -130.944 	 66.8845 	 -53.6543
| 11> C 	 -131.149 	 66.4045 	 -52.3609
| 12> H 	 -130.049 	 67.4621 	 -53.8962
| 13> C 	 -131.914 	 66.6517 	 -56.1303
| 14> H 	 -132.398 	 65.9077 	 -56.7278
| 15> H 	 -130.883 	 66.5385 	 -56.4435
| 16> C 	 -132.559 	 68.0389 	 -56.4266
| 17> H 	 -132.058 	 68.8992 	 -55.908
| 18> H 	 -132.489 	 68.2204 	 -57.5448
| 19> C 	 -134.016 	 68.1491 	 -56.1623
| 20> H 	 -134.256 	 68.0115 	 -55.084
| 21> H 	 -134.494 	 69.0488 	 -56.5581
| 22> H 	 -134.537 	 67.3062 	 -56.6817
| 23> S 	 -130.719 	 67.9482 	 -50.0651
| 24> C 	 -129.226 	 67.8362 	 -49.2555
| 25> C 	 -128.478 	 66.7705 	 -49.7404
| 26> C 	 -129.09 	 66.139 	 -50.8744
| 27> C 	 -130.299 	 66.7309 	 -51.2149
| 28> H 	 -127.508 	 66.5422 	 -49.293
| 29> C 	 -128.382 	 64.9465 	 -51.4988
| 30> H 	 -129.098 	 64.4154 	 -52.1114
| 31> H 	 -128.113 	 64.3804 	 -50.6167
| 32> C 	 -127.201 	 65.3099 	 -52.3827
| 33> H 	 -126.603 	 64.4073 	 -52.3867
| 34> H 	 -126.471 	 65.9606 	 -52.0037
| 35> C 	 -127.521 	 65.6184 	 -53.8161
| 36> H 	 -128.08 	 64.7692 	 -54.1788
| 37> H 	 -126.537 	 65.6625 	 -54.3369
| 38> H 	 -128.028 	 66.5916 	 -53.9616
| 39> H 	 -133.47 	 65.0068 	 -54.7819
| 40> H 	 -129.086 	 68.3591 	 -48.2933
| 41> *
| 42>
| 43>                          ****END OF INPUT****

CARTESIAN COORDINATES (ANGSTROEM)
---------------------------------
  S    -132.394000   65.190800  -52.427200
  C    -132.783000   65.529800  -54.123800
  C    -131.825000   66.371600  -54.663900
  C    -130.944000   66.884500  -53.654300
  C    -131.149000   66.404500  -52.360900
  H    -130.049000   67.462100  -53.896200
  C    -131.914000   66.651700  -56.130300
  H    -132.398000   65.907700  -56.727800
  H    -130.883000   66.538500  -56.443500
  C    -132.559000   68.038900  -56.426600
  H    -132.058000   68.899200  -55.908000
  H    -132.489000   68.220400  -57.544800
  C    -134.016000   68.149100  -56.162300
  H    -134.256000   68.011500  -55.084000
  H    -134.494000   69.048800  -56.558100
  H    -134.537000   67.306200  -56.681700
  S    -130.719000   67.948200  -50.065100
  C    -129.226000   67.836200  -49.255500
  C    -128.478000   66.770500  -49.740400
  C    -129.090000   66.139000  -50.874400
  C    -130.299000   66.730900  -51.214900
  H    -127.508000   66.542200  -49.293000
  C    -128.382000   64.946500  -51.498800
  H    -129.098000   64.415400  -52.111400
  H    -128.113000   64.380400  -50.616700
  C    -127.201000   65.309900  -52.382700
  H    -126.603000   64.407300  -52.386700
  H    -126.471000   65.960600  -52.003700
  C    -127.521000   65.618400  -53.816100
  H    -128.080000   64.769200  -54.178800
  H    -126.537000   65.662500  -54.336900
  H    -128.028000   66.591600  -53.961600
  H    -133.470000   65.006800  -54.781900
  H    -129.086000   68.359100  -48.293300

 Total Charge           Charge          ....    0
 Multiplicity           Mult            ....    1
 Number of Electrons    NEL             ....  134
 Basis Dimension        Dim             ....  322

ORBITAL ENERGIES
----------------

  NO   OCC          E(Eh)            E(eV)
   0   2.0000     -88.965574     -2420.8764
   1   2.0000     -88.963082     -2420.8085
   2   2.0000     -10.330275      -281.1011
   3   2.0000     -10.322629      -280.8930
   4   2.0000     -10.316444      -280.7247
   5   2.0000     -10.313391      -280.6416
   6   2.0000     -10.301277      -280.3120
   7   2.0000     -10.299341      -280.2593
   8   2.0000     -10.296973      -280.1949
   9   2.0000     -10.293521      -280.1009
  10   2.0000     -10.292921      -280.0846
  11   2.0000     -10.291913      -280.0572
  12   2.0000     -10.288469      -279.9635
  13   2.0000     -10.277666      -279.6695
  14   2.0000     -10.276244      -279.6308
  15   2.0000     -10.276084      -279.6265
  16   2.0000      -8.079694      -219.8597
  17   2.0000      -8.079249      -219.8476
  18   2.0000      -6.038202      -164.3078
  19   2.0000      -6.037511      -164.2890
  20   2.0000      -6.034188      -164.1986
  21   2.0000      -6.033521      -164.1805
  22   2.0000      -6.030582      -164.1005
  23   2.0000      -6.030209      -164.0903
  24   2.0000      -1.007848       -27.4249
  25   2.0000      -0.986087       -26.8328
  26   2.0000      -0.916160       -24.9300
  27   2.0000      -0.914111       -24.8742
  28   2.0000      -0.867838       -23.6151
  29   2.0000      -0.853775       -23.2324
  30   2.0000      -0.844610       -22.9830
  31   2.0000      -0.813651       -22.1406
  32   2.0000      -0.784736       -21.3538
  33   2.0000      -0.773480       -21.0475
  34   2.0000      -0.707258       -19.2455
  35   2.0000      -0.696770       -18.9601
  36   2.0000      -0.684893       -18.6369
  37   2.0000      -0.657322       -17.8866
  38   2.0000      -0.638640       -17.3783
  39   2.0000      -0.618754       -16.8371
  40   2.0000      -0.601317       -16.3627
  41   2.0000      -0.571561       -15.5530
  42   2.0000      -0.557523       -15.1710
  43   2.0000      -0.551460       -15.0060
  44   2.0000      -0.543040       -14.7769
  45   2.0000      -0.540617       -14.7109
  46   2.0000      -0.521922       -14.2022
  47   2.0000      -0.509778       -13.8718
  48   2.0000      -0.504926       -13.7397
  49   2.0000      -0.493881       -13.4392
  50   2.0000      -0.489243       -13.3130
  51   2.0000      -0.477352       -12.9894
  52   2.0000      -0.471870       -12.8402
  53   2.0000      -0.463262       -12.6060
  54   2.0000      -0.461203       -12.5500
  55   2.0000      -0.446500       -12.1499
  56   2.0000      -0.444163       -12.0863
  57   2.0000      -0.439318       -11.9544
  58   2.0000      -0.433263       -11.7897
  59   2.0000      -0.431965       -11.7544
  60   2.0000      -0.419272       -11.4090
  61   2.0000      -0.404986       -11.0202
  62   2.0000      -0.400755       -10.9051
  63   2.0000      -0.331576        -9.0226
  64   2.0000      -0.326110        -8.8739
  65   2.0000      -0.317872        -8.6497
  66   2.0000      -0.317255        -8.6329
  67   0.0000       0.046276         1.2592
  68   0.0000       0.053900         1.4667
  69   0.0000       0.110513         3.0072
  70   0.0000       0.118434         3.2227
  71   0.0000       0.141981         3.8635

MULLIKEN ATOMIC CHARGES
-----------------------
   0 S :    0.113942
   1 C :   -0.117147
   2 C :   -0.120520
   3 C :    0.051457
   4 C :   -0.173101
   5 H :    0.014813
   6 C :    0.096512
   7 H :    0.013017
   8 H :    0.025054
   9 C :   -0.089466
  10 H :    0.042658
  11 H :    0.033352
  12 C :   -0.066817
  13 H :    0.046970
  14 H :    0.042120
  15 H :    0.013934
  16 S :    0.123985
  17 C :   -0.110865
  18 C :   -0.045946
  19 C :   -0.042312
  20 C :   -0.189599
  21 H :    0.024202
  22 C :    0.113351
  23 H :    0.014573
  24 H :    0.030406
  25 C :   -0.054000
  26 H :    0.010703
  27 H :    0.007282
  28 C :   -0.035874
  29 H :    0.031645
  30 H :    0.034323
  31 H :    0.038206
  32 H :    0.048621
  33 H :    0.074521
Sum of atomic charges:   -0.0000000

LOEWDIN ATOMIC CHARGES
----------------------
   0 S :    0.401989
   1 C :   -0.194349
   2 C :   -0.065135
   3 C :   -0.058831
   4 C :   -0.203405
   5 H :    0.029068
   6 C :   -0.029529
   7 H :    0.027515
   8 H :    0.034468
   9 C :   -0.046878
  10 H :    0.029250
  11 H :    0.029052
  12 C :   -0.074833
  13 H :    0.028158
  14 H :    0.028868
  15 H :    0.022907
  16 S :    0.440092
  17 C :   -0.204162
  18 C :   -0.078203
  19 C :   -0.049179
  20 C :   -0.225206
  21 H :    0.032195
  22 C :   -0.023028
  23 H :    0.028091
  24 H :    0.035496
  25 C :   -0.043561
  26 H :    0.025816
  27 H :    0.015497
  28 C :   -0.059459
  29 H :    0.024859
  30 H :    0.032490
  31 H :    0.023953
  32 H :    0.030163
  33 H :    0.035831

  Mayer bond orders larger than 0.100000
B(  0-S ,  1-C ) :   1.1391 B(  0-S ,  4-C ) :   1.1529 B(  1-C ,  2-C ) :   1.5925
B(  1-C , 32-H ) :   0.9668 B(  2-C ,  3-C ) :   1.2604 B(  2-C ,  6-C ) :   1.0274
B(  3-C ,  4-C ) :   1.5696 B(  3-C ,  5-H ) :   0.9870 B(  4-C , 20-C ) :   1.0189
B(  6-C ,  7-H ) :   0.9424 B(  6-C ,  8-H ) :   0.9304 B(  6-C ,  9-C ) :   1.0627
B(  9-C , 10-H ) :   0.9578 B(  9-C , 11-H ) :   0.9543 B(  9-C , 12-C ) :   1.0830
B( 12-C , 13-H ) :   0.9708 B( 12-C , 14-H ) :   0.9724 B( 12-C , 15-H ) :   0.9689
B( 16-S , 17-C ) :   1.1917 B( 16-S , 20-C ) :   1.1555 B( 17-C , 18-C ) :   1.5748
B( 17-C , 33-H ) :   0.9624 B( 18-C , 19-C ) :   1.2629 B( 18-C , 21-H ) :   0.9896
B( 19-C , 20-C ) :   1.5814 B( 19-C , 22-C ) :   1.0356 B( 22-C , 23-H ) :   0.9249
B( 22-C , 24-H ) :   0.9334 B( 22-C , 25-C ) :   1.0739 B( 25-C , 26-H ) :   0.9457
B( 25-C , 27-H ) :   0.9540 B( 25-C , 28-C ) :   1.0887 B( 28-C , 29-H ) :   0.9723
B( 28-C , 30-H ) :   0.9674 B( 28-C , 31-H ) :   0.9719

Dispersion correction           -0.015603757
FINAL SINGLE POINT ENERGY     -1339.880436559098

DIPOLE MOMENT
-------------
                                X             Y             Z
Electronic contribution:     -7.00049       0.01026      21.66115
Nuclear contribution   :      7.52644      -0.18538     -22.04341
                        -----------------------------------------
Total Dipole Moment    :      0.52595      -0.17512      -0.38226
                        -----------------------------------------
Magnitude (a.u.)       :      0.67336
Magnitude (Debye)      :      1.71155

Rotational constants in cm-1:     0.020681     0.008576     0.007409
Rotational constants in MHz :   619.997996   257.095885   222.128230

                             ****ORCA TERMINATED NORMALLY****
TOTAL RUN TIME: 0 days 0 hours 0 minutes 22 seconds 450 msec
