                         Program Version 4.2.1 -  RELEASE  -
|  1> ! wB97X-D3 SP def2-SVP
|  2> %pal
|  3> nprocs 24
|  4> end
|  5>
|  6> * xyz 0 1
|  7> S 	 -134.562 	 31.9457 	 -19.7199
|  8> C 	 -132.89 	 31.6771 	 -19.4797
|  9> C 	 -132.565 	 30.4149 	 -19.9688
| 10> C 	 -133.695 	 29.775 	 -20.6451
| 11> C 	 -134.849 	 30.4444 	 -20.5974
| 12> H 	 -133.653 	 28.8027 	 -21.1481
| 13> C 	 -131.131 	 29.8749 	 -19.9434
| 14> H 	 -130.414 	 30.5265 	 -20.4063
| 15> H 	 -131.139 	 28.9978 	 -20.5519
| 16> C 	 -130.443 	 29.682 	 -18.5945
| 17> H 	 -129.465 	 29.305 	 -18.8264
| 18> H 	 -130.387 	 30.715 	 -18.1648
| 19> C 	 -131.101 	 28.7113 	 -17.5637
| 20> H 	 -130.614 	 28.6152 	 -16.6043
| 21> H 	 -132.161 	 28.8974 	 -17.4558
| 22> H 	 -131.162 	 27.7173 	 -17.9192
| 23> S 	 -137.214 	 29.2977 	 -19.747
| 24> C 	 -138.371 	 28.6638 	 -20.9269
| 25> C 	 -137.891 	 28.855 	 -22.1794
| 26> C 	 -136.623 	 29.5152 	 -22.2735
| 27> C 	 -136.183 	 29.9518 	 -21.0298
| 28> H 	 -138.543 	 28.4783 	 -22.9201
| 29> C 	 -135.872 	 29.746 	 -23.5396
| 30> H 	 -136.358 	 29.2036 	 -24.3555
| 31> H 	 -134.92 	 29.36 	 -23.4645
| 32> C 	 -135.86 	 31.1991 	 -23.9831
| 33> H 	 -135.446 	 31.8076 	 -23.1677
| 34> H 	 -136.826 	 31.5902 	 -24.1313
| 35> C 	 -135.123 	 31.2895 	 -25.3201
| 36> H 	 -134.997 	 32.3603 	 -25.6337
| 37> H 	 -135.638 	 30.7063 	 -26.0954
| 38> H 	 -134.145 	 30.8624 	 -25.1625
| 39> H 	 -132.221 	 32.4222 	 -19.1287
| 40> H 	 -139.337 	 28.2518 	 -20.7431
| 41> *
| 42>
| 43>                          ****END OF INPUT****

CARTESIAN COORDINATES (ANGSTROEM)
---------------------------------
  S    -134.562000   31.945700  -19.719900
  C    -132.890000   31.677100  -19.479700
  C    -132.565000   30.414900  -19.968800
  C    -133.695000   29.775000  -20.645100
  C    -134.849000   30.444400  -20.597400
  H    -133.653000   28.802700  -21.148100
  C    -131.131000   29.874900  -19.943400
  H    -130.414000   30.526500  -20.406300
  H    -131.139000   28.997800  -20.551900
  C    -130.443000   29.682000  -18.594500
  H    -129.465000   29.305000  -18.826400
  H    -130.387000   30.715000  -18.164800
  C    -131.101000   28.711300  -17.563700
  H    -130.614000   28.615200  -16.604300
  H    -132.161000   28.897400  -17.455800
  H    -131.162000   27.717300  -17.919200
  S    -137.214000   29.297700  -19.747000
  C    -138.371000   28.663800  -20.926900
  C    -137.891000   28.855000  -22.179400
  C    -136.623000   29.515200  -22.273500
  C    -136.183000   29.951800  -21.029800
  H    -138.543000   28.478300  -22.920100
  C    -135.872000   29.746000  -23.539600
  H    -136.358000   29.203600  -24.355500
  H    -134.920000   29.360000  -23.464500
  C    -135.860000   31.199100  -23.983100
  H    -135.446000   31.807600  -23.167700
  H    -136.826000   31.590200  -24.131300
  C    -135.123000   31.289500  -25.320100
  H    -134.997000   32.360300  -25.633700
  H    -135.638000   30.706300  -26.095400
  H    -134.145000   30.862400  -25.162500
  H    -132.221000   32.422200  -19.128700
  H    -139.337000   28.251800  -20.743100

 Total Charge           Charge          ....    0
 Multiplicity           Mult            ....    1
 Number of Electrons    NEL             ....  134
 Basis Dimension        Dim             ....  322

ORBITAL ENERGIES
----------------

  NO   OCC          E(Eh)            E(eV)
   0   2.0000     -88.962403     -2420.7901
   1   2.0000     -88.962378     -2420.7894
   2   2.0000     -10.329651      -281.0841
   3   2.0000     -10.328841      -281.0620
   4   2.0000     -10.314711      -280.6776
   5   2.0000     -10.314560      -280.6734
   6   2.0000     -10.306300      -280.4487
   7   2.0000     -10.305192      -280.4185
   8   2.0000     -10.296587      -280.1844
   9   2.0000     -10.290557      -280.0203
  10   2.0000     -10.289032      -279.9788
  11   2.0000     -10.288194      -279.9560
  12   2.0000     -10.281919      -279.7852
  13   2.0000     -10.277864      -279.6749
  14   2.0000     -10.276529      -279.6386
  15   2.0000     -10.268116      -279.4096
  16   2.0000      -8.077835      -219.8091
  17   2.0000      -8.076626      -219.7762
  18   2.0000      -6.036332      -164.2569
  19   2.0000      -6.035253      -164.2276
  20   2.0000      -6.032047      -164.1403
  21   2.0000      -6.031188      -164.1170
  22   2.0000      -6.028729      -164.0501
  23   2.0000      -6.027286      -164.0108
  24   2.0000      -1.008024       -27.4297
  25   2.0000      -0.986430       -26.8421
  26   2.0000      -0.915664       -24.9165
  27   2.0000      -0.908877       -24.7318
  28   2.0000      -0.873314       -23.7641
  29   2.0000      -0.847921       -23.0731
  30   2.0000      -0.841754       -22.9053
  31   2.0000      -0.822108       -22.3707
  32   2.0000      -0.785066       -21.3627
  33   2.0000      -0.771442       -20.9920
  34   2.0000      -0.707459       -19.2510
  35   2.0000      -0.703885       -19.1537
  36   2.0000      -0.695247       -18.9186
  37   2.0000      -0.660500       -17.9731
  38   2.0000      -0.648598       -17.6492
  39   2.0000      -0.615781       -16.7563
  40   2.0000      -0.597738       -16.2653
  41   2.0000      -0.577597       -15.7172
  42   2.0000      -0.569971       -15.5097
  43   2.0000      -0.547581       -14.9004
  44   2.0000      -0.543070       -14.7777
  45   2.0000      -0.528342       -14.3769
  46   2.0000      -0.517785       -14.0896
  47   2.0000      -0.514051       -13.9880
  48   2.0000      -0.506905       -13.7936
  49   2.0000      -0.503661       -13.7053
  50   2.0000      -0.490281       -13.3412
  51   2.0000      -0.479809       -13.0563
  52   2.0000      -0.473266       -12.8782
  53   2.0000      -0.466937       -12.7060
  54   2.0000      -0.458772       -12.4838
  55   2.0000      -0.445434       -12.1209
  56   2.0000      -0.440293       -11.9810
  57   2.0000      -0.437306       -11.8997
  58   2.0000      -0.430620       -11.7178
  59   2.0000      -0.424838       -11.5604
  60   2.0000      -0.419911       -11.4263
  61   2.0000      -0.415445       -11.3048
  62   2.0000      -0.409137       -11.1332
  63   2.0000      -0.347867        -9.4660
  64   2.0000      -0.327998        -8.9253
  65   2.0000      -0.323214        -8.7951
  66   2.0000      -0.307455        -8.3663
  67   0.0000       0.039817         1.0835
  68   0.0000       0.058170         1.5829
  69   0.0000       0.118200         3.2164
  70   0.0000       0.121213         3.2984
  71   0.0000       0.135531         3.6880

MULLIKEN ATOMIC CHARGES
-----------------------
   0 S :    0.106463
   1 C :   -0.108803
   2 C :   -0.105279
   3 C :    0.048030
   4 C :   -0.179120
   5 H :    0.021859
   6 C :    0.081569
   7 H :    0.028882
   8 H :    0.003537
   9 C :   -0.078166
  10 H :    0.028540
  11 H :    0.031872
  12 C :   -0.032498
  13 H :    0.036416
  14 H :    0.030230
  15 H :    0.005862
  16 S :    0.096985
  17 C :   -0.083430
  18 C :   -0.026519
  19 C :   -0.027731
  20 C :   -0.141769
  21 H :    0.000845
  22 C :    0.117390
  23 H :    0.005170
  24 H :    0.000750
  25 C :   -0.065186
  26 H :    0.034591
  27 H :    0.014783
  28 C :   -0.042079
  29 H :    0.043664
  30 H :    0.032739
  31 H :    0.022356
  32 H :    0.051765
  33 H :    0.046279
Sum of atomic charges:    0.0000000

LOEWDIN ATOMIC CHARGES
----------------------
   0 S :    0.413671
   1 C :   -0.194791
   2 C :   -0.066021
   3 C :   -0.062005
   4 C :   -0.202850
   5 H :    0.035539
   6 C :   -0.033605
   7 H :    0.034308
   8 H :    0.021535
   9 C :   -0.033743
  10 H :    0.022976
  11 H :    0.025870
  12 C :   -0.072319
  13 H :    0.026623
  14 H :    0.027231
  15 H :    0.019106
  16 S :    0.388992
  17 C :   -0.171234
  18 C :   -0.070914
  19 C :   -0.047296
  20 C :   -0.191172
  21 H :    0.027149
  22 C :   -0.025768
  23 H :    0.030788
  24 H :    0.019035
  25 C :   -0.033053
  26 H :    0.025185
  27 H :    0.017240
  28 C :   -0.063604
  29 H :    0.031871
  30 H :    0.025401
  31 H :    0.021058
  32 H :    0.026520
  33 H :    0.028276

  Mayer bond orders larger than 0.100000
B(  0-S ,  1-C ) :   1.1591 B(  0-S ,  4-C ) :   1.1377 B(  1-C ,  2-C ) :   1.5841
B(  1-C , 32-H ) :   0.9790 B(  2-C ,  3-C ) :   1.2341 B(  2-C ,  6-C ) :   1.0210
B(  3-C ,  4-C ) :   1.6109 B(  3-C ,  5-H ) :   0.9903 B(  4-C , 20-C ) :   0.9918
B(  6-C ,  7-H ) :   0.9409 B(  6-C ,  8-H ) :   0.9399 B(  6-C ,  9-C ) :   1.0735
B(  9-C , 10-H ) :   0.9556 B(  9-C , 11-H ) :   0.9580 B(  9-C , 12-C ) :   1.0724
B( 12-C , 13-H ) :   0.9770 B( 12-C , 14-H ) :   0.9741 B( 12-C , 15-H ) :   0.9710
B( 16-S , 17-C ) :   1.1417 B( 16-S , 20-C ) :   1.1439 B( 17-C , 18-C ) :   1.6456
B( 17-C , 33-H ) :   0.9662 B( 18-C , 19-C ) :   1.2140 B( 18-C , 21-H ) :   0.9984
B( 19-C , 20-C ) :   1.6002 B( 19-C , 22-C ) :   1.0513 B( 22-C , 23-H ) :   0.9285
B( 22-C , 24-H ) :   0.9186 B( 22-C , 25-C ) :   1.0710 B( 25-C , 26-H ) :   0.9539
B( 25-C , 27-H ) :   0.9516 B( 25-C , 28-C ) :   1.0844 B( 28-C , 29-H ) :   0.9727
B( 28-C , 30-H ) :   0.9730 B( 28-C , 31-H ) :   0.9741

Dispersion correction           -0.014326316
FINAL SINGLE POINT ENERGY     -1339.877576597657

DIPOLE MOMENT
-------------
                                X             Y             Z
Electronic contribution:    -17.20820       3.44271      10.25975
Nuclear contribution   :     17.55146      -3.75511     -10.73880
                        -----------------------------------------
Total Dipole Moment    :      0.34326      -0.31241      -0.47906
                        -----------------------------------------
Magnitude (a.u.)       :      0.66703
Magnitude (Debye)      :      1.69544

Rotational constants in cm-1:     0.018932     0.008363     0.006955
Rotational constants in MHz :   567.573936   250.721871   208.496726

                             ****ORCA TERMINATED NORMALLY****
TOTAL RUN TIME: 0 days 0 hours 0 minutes 21 seconds 569 msec
