                         Program Version 4.2.1 -  RELEASE  -
|  1> ! wB97X-D3 SP def2-SVP
|  2> %pal
|  3> nprocs 24
|  4> end
|  5>
|  6> * xyz 0 1
|  7> S 	 -135.809 	 3.38285 	 4.82918
|  8> C 	 -135.18 	 2.17995 	 3.6482
|  9> C 	 -133.92 	 1.72354 	 4.04272
| 10> C 	 -133.646 	 2.15091 	 5.41866
| 11> C 	 -134.487 	 3.12546 	 5.93182
| 12> H 	 -132.775 	 1.86048 	 5.9614
| 13> C 	 -133 	 0.818383 	 3.24101
| 14> H 	 -133.497 	 0.677157 	 2.2883
| 15> H 	 -133.045 	 -0.191353 	 3.71816
| 16> C 	 -131.578 	 1.30091 	 3.17255
| 17> H 	 -131.559 	 2.31725 	 2.70902
| 18> H 	 -131.068 	 1.20771 	 4.18029
| 19> C 	 -130.676 	 0.505423 	 2.37235
| 20> H 	 -130.694 	 -0.534199 	 2.67468
| 21> H 	 -130.885 	 0.336553 	 1.30589
| 22> H 	 -129.628 	 0.879733 	 2.42445
| 23> S 	 -134.714 	 5.60742 	 7.0404
| 24> C 	 -134.245 	 5.83867 	 8.67329
| 25> C 	 -133.949 	 4.66992 	 9.28453
| 26> C 	 -134.02 	 3.54659 	 8.46018
| 27> C 	 -134.419 	 3.90506 	 7.15639
| 28> H 	 -133.573 	 4.57822 	 10.316
| 29> C 	 -133.721 	 2.13289 	 8.96426
| 30> H 	 -133.776 	 1.34262 	 8.22001
| 31> H 	 -134.735 	 1.90171 	 9.40882
| 32> C 	 -132.415 	 1.94598 	 9.78364
| 33> H 	 -132.326 	 0.870252 	 10.0902
| 34> H 	 -132.439 	 2.61732 	 10.6605
| 35> C 	 -131.088 	 2.16194 	 9.05447
| 36> H 	 -130.245 	 1.86788 	 9.57028
| 37> H 	 -131.084 	 3.25432 	 8.70855
| 38> H 	 -131.103 	 1.45792 	 8.21266
| 39> H 	 -135.577 	 1.97802 	 2.65052
| 40> H 	 -134.271 	 6.76289 	 9.11815
| 41> *
| 42>
| 43>                          ****END OF INPUT****

CARTESIAN COORDINATES (ANGSTROEM)
---------------------------------
  S    -135.809000    3.382850    4.829180
  C    -135.180000    2.179950    3.648200
  C    -133.920000    1.723540    4.042720
  C    -133.646000    2.150910    5.418660
  C    -134.487000    3.125460    5.931820
  H    -132.775000    1.860480    5.961400
  C    -133.000000    0.818383    3.241010
  H    -133.497000    0.677157    2.288300
  H    -133.045000   -0.191353    3.718160
  C    -131.578000    1.300910    3.172550
  H    -131.559000    2.317250    2.709020
  H    -131.068000    1.207710    4.180290
  C    -130.676000    0.505423    2.372350
  H    -130.694000   -0.534199    2.674680
  H    -130.885000    0.336553    1.305890
  H    -129.628000    0.879733    2.424450
  S    -134.714000    5.607420    7.040400
  C    -134.245000    5.838670    8.673290
  C    -133.949000    4.669920    9.284530
  C    -134.020000    3.546590    8.460180
  C    -134.419000    3.905060    7.156390
  H    -133.573000    4.578220   10.316000
  C    -133.721000    2.132890    8.964260
  H    -133.776000    1.342620    8.220010
  H    -134.735000    1.901710    9.408820
  C    -132.415000    1.945980    9.783640
  H    -132.326000    0.870252   10.090200
  H    -132.439000    2.617320   10.660500
  C    -131.088000    2.161940    9.054470
  H    -130.245000    1.867880    9.570280
  H    -131.084000    3.254320    8.708550
  H    -131.103000    1.457920    8.212660
  H    -135.577000    1.978020    2.650520
  H    -134.271000    6.762890    9.118150

 Total Charge           Charge          ....    0
 Multiplicity           Mult            ....    1
 Number of Electrons    NEL             ....  134
 Basis Dimension        Dim             ....  322

ORBITAL ENERGIES
----------------

  NO   OCC          E(Eh)            E(eV)
   0   2.0000     -88.966553     -2420.9030
   1   2.0000     -88.962036     -2420.7801
   2   2.0000     -10.329241      -281.0729
   3   2.0000     -10.325219      -280.9635
   4   2.0000     -10.316860      -280.7360
   5   2.0000     -10.308343      -280.5043
   6   2.0000     -10.305871      -280.4370
   7   2.0000     -10.303862      -280.3823
   8   2.0000     -10.299901      -280.2745
   9   2.0000     -10.297019      -280.1961
  10   2.0000     -10.296216      -280.1743
  11   2.0000     -10.291701      -280.0514
  12   2.0000     -10.290032      -280.0060
  13   2.0000     -10.289319      -279.9866
  14   2.0000     -10.280231      -279.7393
  15   2.0000     -10.274230      -279.5760
  16   2.0000      -8.082367      -219.9324
  17   2.0000      -8.076258      -219.7662
  18   2.0000      -6.040666      -164.3749
  19   2.0000      -6.036723      -164.2676
  20   2.0000      -6.034940      -164.2191
  21   2.0000      -6.033279      -164.1739
  22   2.0000      -6.030847      -164.1077
  23   2.0000      -6.026852      -163.9990
  24   2.0000      -1.011259       -27.5178
  25   2.0000      -0.980913       -26.6920
  26   2.0000      -0.923098       -25.1188
  27   2.0000      -0.909198       -24.7405
  28   2.0000      -0.874952       -23.8086
  29   2.0000      -0.855981       -23.2924
  30   2.0000      -0.843645       -22.9567
  31   2.0000      -0.814920       -22.1751
  32   2.0000      -0.787427       -21.4270
  33   2.0000      -0.774906       -21.0863
  34   2.0000      -0.707775       -19.2595
  35   2.0000      -0.698723       -19.0132
  36   2.0000      -0.689792       -18.7702
  37   2.0000      -0.656252       -17.8575
  38   2.0000      -0.638560       -17.3761
  39   2.0000      -0.619293       -16.8518
  40   2.0000      -0.608841       -16.5674
  41   2.0000      -0.578643       -15.7457
  42   2.0000      -0.561835       -15.2883
  43   2.0000      -0.556755       -15.1501
  44   2.0000      -0.546868       -14.8810
  45   2.0000      -0.535505       -14.5718
  46   2.0000      -0.516380       -14.0514
  47   2.0000      -0.510685       -13.8964
  48   2.0000      -0.504883       -13.7386
  49   2.0000      -0.500729       -13.6255
  50   2.0000      -0.486475       -13.2376
  51   2.0000      -0.483354       -13.1527
  52   2.0000      -0.473227       -12.8772
  53   2.0000      -0.464547       -12.6410
  54   2.0000      -0.457753       -12.4561
  55   2.0000      -0.451823       -12.2947
  56   2.0000      -0.450422       -12.2566
  57   2.0000      -0.442069       -12.0293
  58   2.0000      -0.428363       -11.6563
  59   2.0000      -0.422943       -11.5089
  60   2.0000      -0.418291       -11.3823
  61   2.0000      -0.412637       -11.2284
  62   2.0000      -0.400371       -10.8946
  63   2.0000      -0.351681        -9.5697
  64   2.0000      -0.333518        -9.0755
  65   2.0000      -0.324431        -8.8282
  66   2.0000      -0.286476        -7.7954
  67   0.0000       0.029931         0.8145
  68   0.0000       0.075037         2.0419
  69   0.0000       0.113126         3.0783
  70   0.0000       0.118779         3.2321
  71   0.0000       0.129534         3.5248

MULLIKEN ATOMIC CHARGES
-----------------------
   0 S :    0.086757
   1 C :   -0.120011
   2 C :   -0.113367
   3 C :    0.036428
   4 C :   -0.134274
   5 H :   -0.008616
   6 C :    0.080012
   7 H :    0.009301
   8 H :    0.038610
   9 C :   -0.079230
  10 H :    0.045591
  11 H :    0.045579
  12 C :   -0.047170
  13 H :    0.006862
  14 H :    0.017843
  15 H :    0.042915
  16 S :    0.120207
  17 C :   -0.051529
  18 C :   -0.039284
  19 C :   -0.047658
  20 C :   -0.154787
  21 H :    0.022726
  22 C :    0.063057
  23 H :    0.009173
  24 H :    0.053693
  25 C :   -0.100943
  26 H :    0.037382
  27 H :    0.036950
  28 C :   -0.035475
  29 H :    0.026202
  30 H :    0.057164
  31 H :    0.019112
  32 H :    0.051607
  33 H :    0.025173
Sum of atomic charges:    0.0000000

LOEWDIN ATOMIC CHARGES
----------------------
   0 S :    0.381329
   1 C :   -0.195311
   2 C :   -0.053615
   3 C :   -0.067786
   4 C :   -0.188935
   5 H :    0.020091
   6 C :   -0.034645
   7 H :    0.028283
   8 H :    0.038821
   9 C :   -0.052611
  10 H :    0.036231
  11 H :    0.040024
  12 C :   -0.075524
  13 H :    0.019649
  14 H :    0.020961
  15 H :    0.033094
  16 S :    0.435044
  17 C :   -0.178553
  18 C :   -0.076384
  19 C :   -0.056794
  20 C :   -0.212369
  21 H :    0.035885
  22 C :   -0.042985
  23 H :    0.028178
  24 H :    0.052007
  25 C :   -0.043953
  26 H :    0.032078
  27 H :    0.019760
  28 C :   -0.062477
  29 H :    0.016520
  30 H :    0.037688
  31 H :    0.023681
  32 H :    0.029679
  33 H :    0.012938

  Mayer bond orders larger than 0.100000
B(  0-S ,  1-C ) :   1.1121 B(  0-S ,  4-C ) :   1.1428 B(  1-C ,  2-C ) :   1.6392
B(  1-C , 32-H ) :   0.9626 B(  2-C ,  3-C ) :   1.2091 B(  2-C ,  6-C ) :   1.0373
B(  3-C ,  4-C ) :   1.6021 B(  3-C ,  5-H ) :   0.9908 B(  4-C , 20-C ) :   1.0365
B(  6-C ,  7-H ) :   0.9369 B(  6-C ,  8-H ) :   0.9271 B(  6-C ,  9-C ) :   1.0777
B(  9-C , 10-H ) :   0.9520 B(  9-C , 11-H ) :   0.9417 B(  9-C , 12-C ) :   1.1039
B( 12-C , 13-H ) :   0.9628 B( 12-C , 14-H ) :   0.9670 B( 12-C , 15-H ) :   0.9719
B( 16-S , 17-C ) :   1.1708 B( 16-S , 20-C ) :   1.1643 B( 17-C , 18-C ) :   1.5674
B( 17-C , 20-C ) :   0.1048 B( 17-C , 33-H ) :   0.9815 B( 18-C , 19-C ) :   1.2885
B( 18-C , 21-H ) :   0.9857 B( 19-C , 20-C ) :   1.5518 B( 19-C , 22-C ) :   1.0220
B( 22-C , 23-H ) :   0.9360 B( 22-C , 24-H ) :   0.9335 B( 22-C , 25-C ) :   1.0559
B( 25-C , 26-H ) :   0.9550 B( 25-C , 27-H ) :   0.9582 B( 25-C , 28-C ) :   1.0780
B( 28-C , 29-H ) :   0.9731 B( 28-C , 30-H ) :   0.9729 B( 28-C , 31-H ) :   0.9696

Dispersion correction           -0.014200283
FINAL SINGLE POINT ENERGY     -1339.866960882904

DIPOLE MOMENT
-------------
                                X             Y             Z
Electronic contribution:    -22.98066      19.34267       0.42184
Nuclear contribution   :     23.58407     -19.80925      -0.24454
                        -----------------------------------------
Total Dipole Moment    :      0.60341      -0.46659       0.17730
                        -----------------------------------------
Magnitude (a.u.)       :      0.78309
Magnitude (Debye)      :      1.99046

Rotational constants in cm-1:     0.017511     0.008992     0.006745
Rotational constants in MHz :   524.980007   269.588358   202.209917

                             ****ORCA TERMINATED NORMALLY****
TOTAL RUN TIME: 0 days 0 hours 0 minutes 21 seconds 542 msec
