                         Program Version 4.2.1 -  RELEASE  -
|  1> ! wB97X-D3 SP def2-SVP
|  2> %pal
|  3> nprocs 24
|  4> end
|  5>
|  6> * xyz 0 1
|  7> S 	 -77.5175 	 -1.40669 	 6.52465
|  8> C 	 -77.5345 	 -0.00728071 	 7.51022
|  9> C 	 -77.1867 	 1.14664 	 6.86693
| 10> C 	 -76.9829 	 0.90574 	 5.47186
| 11> C 	 -77.134 	 -0.404969 	 5.11907
| 12> H 	 -76.6548 	 1.5376 	 4.64253
| 13> C 	 -77.0078 	 2.52511 	 7.40282
| 14> H 	 -77.6602 	 2.49969 	 8.19033
| 15> H 	 -77.5013 	 3.25116 	 6.80095
| 16> C 	 -75.6234 	 2.91142 	 7.88997
| 17> H 	 -75.7018 	 3.94736 	 8.20293
| 18> H 	 -75.3239 	 2.43073 	 8.81306
| 19> C 	 -74.515 	 2.63204 	 6.88912
| 20> H 	 -73.5842 	 3.14778 	 7.19107
| 21> H 	 -74.22 	 1.59187 	 6.78042
| 22> H 	 -74.7182 	 2.99062 	 5.84771
| 23> S 	 -75.6904 	 -0.431507 	 2.80467
| 24> C 	 -76.1592 	 -1.5182 	 1.47641
| 25> C 	 -77.16 	 -2.328 	 1.83675
| 26> C 	 -77.6773 	 -2.05567 	 3.14242
| 27> C 	 -77.0143 	 -0.983896 	 3.76354
| 28> H 	 -77.5165 	 -3.13141 	 1.24383
| 29> C 	 -78.9318 	 -2.7204 	 3.56644
| 30> H 	 -79.8072 	 -2.01301 	 3.24304
| 31> H 	 -79.0892 	 -2.65625 	 4.60045
| 32> C 	 -79.1381 	 -4.22365 	 3.21658
| 33> H 	 -78.2178 	 -4.70377 	 3.59891
| 34> H 	 -79.1198 	 -4.37946 	 2.09526
| 35> C 	 -80.4416 	 -4.82297 	 3.69531
| 36> H 	 -80.5871 	 -5.87046 	 3.54615
| 37> H 	 -81.3439 	 -4.31857 	 3.33572
| 38> H 	 -80.4316 	 -4.75323 	 4.77946
| 39> H 	 -77.6694 	 0.0558623 	 8.57461
| 40> H 	 -75.6726 	 -1.66444 	 0.515579
| 41> *
| 42>
| 43>                          ****END OF INPUT****

CARTESIAN COORDINATES (ANGSTROEM)
---------------------------------
  S    -77.517500   -1.406690    6.524650
  C    -77.534500   -0.007281    7.510220
  C    -77.186700    1.146640    6.866930
  C    -76.982900    0.905740    5.471860
  C    -77.134000   -0.404969    5.119070
  H    -76.654800    1.537600    4.642530
  C    -77.007800    2.525110    7.402820
  H    -77.660200    2.499690    8.190330
  H    -77.501300    3.251160    6.800950
  C    -75.623400    2.911420    7.889970
  H    -75.701800    3.947360    8.202930
  H    -75.323900    2.430730    8.813060
  C    -74.515000    2.632040    6.889120
  H    -73.584200    3.147780    7.191070
  H    -74.220000    1.591870    6.780420
  H    -74.718200    2.990620    5.847710
  S    -75.690400   -0.431507    2.804670
  C    -76.159200   -1.518200    1.476410
  C    -77.160000   -2.328000    1.836750
  C    -77.677300   -2.055670    3.142420
  C    -77.014300   -0.983896    3.763540
  H    -77.516500   -3.131410    1.243830
  C    -78.931800   -2.720400    3.566440
  H    -79.807200   -2.013010    3.243040
  H    -79.089200   -2.656250    4.600450
  C    -79.138100   -4.223650    3.216580
  H    -78.217800   -4.703770    3.598910
  H    -79.119800   -4.379460    2.095260
  C    -80.441600   -4.822970    3.695310
  H    -80.587100   -5.870460    3.546150
  H    -81.343900   -4.318570    3.335720
  H    -80.431600   -4.753230    4.779460
  H    -77.669400    0.055862    8.574610
  H    -75.672600   -1.664440    0.515579

 Total Charge           Charge          ....    0
 Multiplicity           Mult            ....    1
 Number of Electrons    NEL             ....  134
 Basis Dimension        Dim             ....  322

ORBITAL ENERGIES
----------------

  NO   OCC          E(Eh)            E(eV)
   0   2.0000     -88.967934     -2420.9406
   1   2.0000     -88.965993     -2420.8877
   2   2.0000     -10.326997      -281.0119
   3   2.0000     -10.326699      -281.0038
   4   2.0000     -10.313296      -280.6390
   5   2.0000     -10.308600      -280.5113
   6   2.0000     -10.299880      -280.2740
   7   2.0000     -10.295616      -280.1579
   8   2.0000     -10.294883      -280.1380
   9   2.0000     -10.290141      -280.0090
  10   2.0000     -10.288569      -279.9662
  11   2.0000     -10.285329      -279.8780
  12   2.0000     -10.284561      -279.8571
  13   2.0000     -10.277888      -279.6756
  14   2.0000     -10.276864      -279.6477
  15   2.0000     -10.276282      -279.6318
  16   2.0000      -8.082577      -219.9381
  17   2.0000      -8.080545      -219.8828
  18   2.0000      -6.041142      -164.3878
  19   2.0000      -6.039214      -164.3354
  20   2.0000      -6.037190      -164.2803
  21   2.0000      -6.035107      -164.2236
  22   2.0000      -6.033200      -164.1717
  23   2.0000      -6.031129      -164.1154
  24   2.0000      -1.008820       -27.4514
  25   2.0000      -0.988259       -26.8919
  26   2.0000      -0.917019       -24.9534
  27   2.0000      -0.908150       -24.7120
  28   2.0000      -0.873090       -23.7580
  29   2.0000      -0.853452       -23.2236
  30   2.0000      -0.846031       -23.0217
  31   2.0000      -0.821166       -22.3451
  32   2.0000      -0.787550       -21.4303
  33   2.0000      -0.770285       -20.9605
  34   2.0000      -0.707694       -19.2573
  35   2.0000      -0.704976       -19.1834
  36   2.0000      -0.696872       -18.9628
  37   2.0000      -0.662079       -18.0161
  38   2.0000      -0.636224       -17.3125
  39   2.0000      -0.613921       -16.7056
  40   2.0000      -0.600082       -16.3291
  41   2.0000      -0.576696       -15.6927
  42   2.0000      -0.560952       -15.2643
  43   2.0000      -0.551571       -15.0090
  44   2.0000      -0.542928       -14.7738
  45   2.0000      -0.521927       -14.2024
  46   2.0000      -0.517141       -14.0721
  47   2.0000      -0.512069       -13.9341
  48   2.0000      -0.506447       -13.7811
  49   2.0000      -0.493636       -13.4325
  50   2.0000      -0.489014       -13.3067
  51   2.0000      -0.477899       -13.0043
  52   2.0000      -0.471707       -12.8358
  53   2.0000      -0.467338       -12.7169
  54   2.0000      -0.462279       -12.5793
  55   2.0000      -0.456836       -12.4311
  56   2.0000      -0.441562       -12.0155
  57   2.0000      -0.438008       -11.9188
  58   2.0000      -0.429500       -11.6873
  59   2.0000      -0.424727       -11.5574
  60   2.0000      -0.423015       -11.5108
  61   2.0000      -0.413107       -11.2412
  62   2.0000      -0.407627       -11.0921
  63   2.0000      -0.356431        -9.6990
  64   2.0000      -0.332361        -9.0440
  65   2.0000      -0.327591        -8.9142
  66   2.0000      -0.287220        -7.8157
  67   0.0000       0.029304         0.7974
  68   0.0000       0.083330         2.2675
  69   0.0000       0.110641         3.0107
  70   0.0000       0.116210         3.1622
  71   0.0000       0.132905         3.6165

MULLIKEN ATOMIC CHARGES
-----------------------
   0 S :    0.122878
   1 C :   -0.096696
   2 C :   -0.119356
   3 C :   -0.004108
   4 C :   -0.140234
   5 H :    0.016940
   6 C :    0.137971
   7 H :   -0.021108
   8 H :    0.020577
   9 C :   -0.019455
  10 H :    0.025186
  11 H :    0.018489
  12 C :   -0.077261
  13 H :    0.030489
  14 H :    0.046085
  15 H :    0.030829
  16 S :    0.097610
  17 C :   -0.075158
  18 C :   -0.016498
  19 C :   -0.052906
  20 C :   -0.131949
  21 H :    0.005422
  22 C :    0.049762
  23 H :    0.051017
  24 H :   -0.012470
  25 C :   -0.115391
  26 H :    0.040826
  27 H :    0.038238
  28 C :   -0.016936
  29 H :    0.029202
  30 H :    0.035566
  31 H :    0.020453
  32 H :    0.030235
  33 H :    0.051751
Sum of atomic charges:    0.0000000

LOEWDIN ATOMIC CHARGES
----------------------
   0 S :    0.418329
   1 C :   -0.205721
   2 C :   -0.060759
   3 C :   -0.067120
   4 C :   -0.185153
   5 H :    0.030962
   6 C :   -0.031973
   7 H :    0.021824
   8 H :    0.032584
   9 C :   -0.034920
  10 H :    0.026755
  11 H :    0.025291
  12 C :   -0.073202
  13 H :    0.028751
  14 H :    0.028461
  15 H :    0.025510
  16 S :    0.405862
  17 C :   -0.177558
  18 C :   -0.063143
  19 C :   -0.065857
  20 C :   -0.201576
  21 H :    0.027250
  22 C :   -0.045340
  23 H :    0.048042
  24 H :    0.007837
  25 C :   -0.044214
  26 H :    0.030630
  27 H :    0.022849
  28 C :   -0.065776
  29 H :    0.025593
  30 H :    0.029818
  31 H :    0.025360
  32 H :    0.026902
  33 H :    0.033700

  Mayer bond orders larger than 0.100000
B(  0-S ,  1-C ) :   1.1368 B(  0-S ,  4-C ) :   1.1317 B(  1-C ,  2-C ) :   1.6523
B(  1-C , 32-H ) :   0.9573 B(  2-C ,  3-C ) :   1.1998 B(  2-C ,  6-C ) :   1.0131
B(  3-C ,  4-C ) :   1.6060 B(  3-C ,  5-H ) :   0.9909 B(  4-C , 20-C ) :   1.0398
B(  6-C ,  7-H ) :   0.9112 B(  6-C ,  8-H ) :   0.9350 B(  6-C ,  9-C ) :   1.0819
B(  9-C , 10-H ) :   0.9525 B(  9-C , 11-H ) :   0.9499 B(  9-C , 12-C ) :   1.0832
B( 12-C , 13-H ) :   0.9717 B( 12-C , 14-H ) :   0.9698 B( 12-C , 15-H ) :   0.9753
B( 16-S , 17-C ) :   1.1278 B( 16-S , 20-C ) :   1.1439 B( 17-C , 18-C ) :   1.6397
B( 17-C , 33-H ) :   0.9619 B( 18-C , 19-C ) :   1.2359 B( 18-C , 21-H ) :   0.9919
B( 19-C , 20-C ) :   1.5710 B( 19-C , 22-C ) :   1.0652 B( 22-C , 23-H ) :   0.9230
B( 22-C , 24-H ) :   0.9231 B( 22-C , 25-C ) :   1.0426 B( 25-C , 26-H ) :   0.9580
B( 25-C , 27-H ) :   0.9502 B( 25-C , 28-C ) :   1.0883 B( 28-C , 29-H ) :   0.9722
B( 28-C , 30-H ) :   0.9725 B( 28-C , 31-H ) :   0.9711

Dispersion correction           -0.014307142
FINAL SINGLE POINT ENERGY     -1339.874823524403

DIPOLE MOMENT
-------------
                                X             Y             Z
Electronic contribution:      5.59150      -0.71611      -4.82738
Nuclear contribution   :     -5.76866       0.75517       4.94461
                        -----------------------------------------
Total Dipole Moment    :     -0.17716       0.03907       0.11723
                        -----------------------------------------
Magnitude (a.u.)       :      0.21600
Magnitude (Debye)      :      0.54902

Rotational constants in cm-1:     0.023174     0.008031     0.006244
Rotational constants in MHz :   694.728260   240.751573   187.181111

                             ****ORCA TERMINATED NORMALLY****
TOTAL RUN TIME: 0 days 0 hours 0 minutes 21 seconds 290 msec
