                         Program Version 4.2.1 -  RELEASE  -
|  1> ! wB97X-D3 SP def2-SVP
|  2> %pal
|  3> nprocs 24
|  4> end
|  5>
|  6> * xyz 0 1
|  7> S 	 36.6455 	 -6.19921 	 -123.339
|  8> C 	 35.9475 	 -6.95411 	 -124.76
|  9> C 	 34.59 	 -6.6559 	 -124.889
| 10> C 	 34.1842 	 -5.87832 	 -123.797
| 11> C 	 35.1412 	 -5.47582 	 -122.897
| 12> H 	 33.1416 	 -5.65372 	 -123.59
| 13> C 	 33.6295 	 -7.2194 	 -125.963
| 14> H 	 33.1203 	 -7.9849 	 -125.523
| 15> H 	 34.3184 	 -7.66805 	 -126.639
| 16> C 	 32.8263 	 -6.23278 	 -126.778
| 17> H 	 32.2149 	 -5.54992 	 -126.143
| 18> H 	 33.4255 	 -5.52622 	 -127.254
| 19> C 	 31.8757 	 -6.86636 	 -127.721
| 20> H 	 32.5525 	 -7.26575 	 -128.522
| 21> H 	 31.246 	 -7.60156 	 -127.317
| 22> H 	 31.2821 	 -6.14255 	 -128.243
| 23> S 	 33.7992 	 -5.32541 	 -120.463
| 24> C 	 34.1823 	 -4.07078 	 -119.35
| 25> C 	 35.2766 	 -3.32132 	 -119.736
| 26> C 	 35.7916 	 -3.70071 	 -121.004
| 27> C 	 34.9976 	 -4.75869 	 -121.593
| 28> H 	 35.6488 	 -2.4492 	 -119.138
| 29> C 	 37.0025 	 -3.02832 	 -121.592
| 30> H 	 37.4817 	 -3.62463 	 -122.302
| 31> H 	 37.6852 	 -2.9967 	 -120.818
| 32> C 	 36.7268 	 -1.70548 	 -122.227
| 33> H 	 36.0109 	 -1.1902 	 -121.655
| 34> H 	 36.3648 	 -1.96886 	 -123.201
| 35> C 	 37.9995 	 -0.834058 	 -122.403
| 36> H 	 38.2744 	 -0.474209 	 -121.483
| 37> H 	 37.7109 	 -0.0724494 	 -123.046
| 38> H 	 38.8088 	 -1.48289 	 -122.879
| 39> H 	 36.3677 	 -7.70519 	 -125.381
| 40> H 	 33.5239 	 -3.99076 	 -118.491
| 41> *
| 42>
| 43>                          ****END OF INPUT****

CARTESIAN COORDINATES (ANGSTROEM)
---------------------------------
  S     36.645500   -6.199210  -123.339000
  C     35.947500   -6.954110  -124.760000
  C     34.590000   -6.655900  -124.889000
  C     34.184200   -5.878320  -123.797000
  C     35.141200   -5.475820  -122.897000
  H     33.141600   -5.653720  -123.590000
  C     33.629500   -7.219400  -125.963000
  H     33.120300   -7.984900  -125.523000
  H     34.318400   -7.668050  -126.639000
  C     32.826300   -6.232780  -126.778000
  H     32.214900   -5.549920  -126.143000
  H     33.425500   -5.526220  -127.254000
  C     31.875700   -6.866360  -127.721000
  H     32.552500   -7.265750  -128.522000
  H     31.246000   -7.601560  -127.317000
  H     31.282100   -6.142550  -128.243000
  S     33.799200   -5.325410  -120.463000
  C     34.182300   -4.070780  -119.350000
  C     35.276600   -3.321320  -119.736000
  C     35.791600   -3.700710  -121.004000
  C     34.997600   -4.758690  -121.593000
  H     35.648800   -2.449200  -119.138000
  C     37.002500   -3.028320  -121.592000
  H     37.481700   -3.624630  -122.302000
  H     37.685200   -2.996700  -120.818000
  C     36.726800   -1.705480  -122.227000
  H     36.010900   -1.190200  -121.655000
  H     36.364800   -1.968860  -123.201000
  C     37.999500   -0.834058  -122.403000
  H     38.274400   -0.474209  -121.483000
  H     37.710900   -0.072449  -123.046000
  H     38.808800   -1.482890  -122.879000
  H     36.367700   -7.705190  -125.381000
  H     33.523900   -3.990760  -118.491000

 Total Charge           Charge          ....    0
 Multiplicity           Mult            ....    1
 Number of Electrons    NEL             ....  134
 Basis Dimension        Dim             ....  322

ORBITAL ENERGIES
----------------

  NO   OCC          E(Eh)            E(eV)
   0   2.0000     -88.966546     -2420.9028
   1   2.0000     -88.966529     -2420.9023
   2   2.0000     -10.331590      -281.1369
   3   2.0000     -10.327441      -281.0239
   4   2.0000     -10.315887      -280.7095
   5   2.0000     -10.311708      -280.5958
   6   2.0000     -10.305996      -280.4404
   7   2.0000     -10.298914      -280.2477
   8   2.0000     -10.298050      -280.2242
   9   2.0000     -10.286838      -279.9191
  10   2.0000     -10.285786      -279.8905
  11   2.0000     -10.279494      -279.7193
  12   2.0000     -10.272795      -279.5370
  13   2.0000     -10.272237      -279.5218
  14   2.0000     -10.272078      -279.5175
  15   2.0000     -10.269683      -279.4523
  16   2.0000      -8.081829      -219.9178
  17   2.0000      -8.081063      -219.8969
  18   2.0000      -6.040086      -164.3591
  19   2.0000      -6.039523      -164.3438
  20   2.0000      -6.036225      -164.2540
  21   2.0000      -6.035486      -164.2339
  22   2.0000      -6.032881      -164.1630
  23   2.0000      -6.031996      -164.1390
  24   2.0000      -1.005579       -27.3632
  25   2.0000      -0.986114       -26.8335
  26   2.0000      -0.920181       -25.0394
  27   2.0000      -0.918089       -24.9825
  28   2.0000      -0.868818       -23.6418
  29   2.0000      -0.854181       -23.2435
  30   2.0000      -0.845923       -23.0187
  31   2.0000      -0.813833       -22.1455
  32   2.0000      -0.790279       -21.5046
  33   2.0000      -0.774200       -21.0671
  34   2.0000      -0.709047       -19.2941
  35   2.0000      -0.702849       -19.1255
  36   2.0000      -0.688966       -18.7477
  37   2.0000      -0.663206       -18.0468
  38   2.0000      -0.633804       -17.2467
  39   2.0000      -0.623153       -16.9568
  40   2.0000      -0.605902       -16.4874
  41   2.0000      -0.576307       -15.6821
  42   2.0000      -0.570102       -15.5133
  43   2.0000      -0.563641       -15.3374
  44   2.0000      -0.535445       -14.5702
  45   2.0000      -0.529113       -14.3979
  46   2.0000      -0.521997       -14.2043
  47   2.0000      -0.518775       -14.1166
  48   2.0000      -0.502838       -13.6829
  49   2.0000      -0.496086       -13.4992
  50   2.0000      -0.493618       -13.4320
  51   2.0000      -0.479942       -13.0599
  52   2.0000      -0.472594       -12.8599
  53   2.0000      -0.464318       -12.6347
  54   2.0000      -0.458116       -12.4660
  55   2.0000      -0.449235       -12.2243
  56   2.0000      -0.447877       -12.1874
  57   2.0000      -0.445770       -12.1300
  58   2.0000      -0.437360       -11.9012
  59   2.0000      -0.429204       -11.6792
  60   2.0000      -0.423384       -11.5209
  61   2.0000      -0.413715       -11.2578
  62   2.0000      -0.403966       -10.9925
  63   2.0000      -0.343147        -9.3375
  64   2.0000      -0.333355        -9.0711
  65   2.0000      -0.330731        -8.9997
  66   2.0000      -0.288946        -7.8626
  67   0.0000       0.031927         0.8688
  68   0.0000       0.072399         1.9701
  69   0.0000       0.113599         3.0912
  70   0.0000       0.123265         3.3542
  71   0.0000       0.129086         3.5126

MULLIKEN ATOMIC CHARGES
-----------------------
   0 S :    0.115094
   1 C :   -0.110094
   2 C :   -0.124395
   3 C :    0.003504
   4 C :   -0.132057
   5 H :    0.005037
   6 C :    0.151925
   7 H :    0.017375
   8 H :   -0.005230
   9 C :   -0.061897
  10 H :    0.017221
  11 H :    0.010493
  12 C :   -0.019757
  13 H :    0.023671
  14 H :    0.028349
  15 H :    0.025861
  16 S :    0.118285
  17 C :   -0.110233
  18 C :   -0.033963
  19 C :   -0.071797
  20 C :   -0.155394
  21 H :    0.039030
  22 C :    0.142001
  23 H :   -0.014055
  24 H :   -0.002404
  25 C :   -0.067092
  26 H :    0.015384
  27 H :    0.024763
  28 C :   -0.001486
  29 H :    0.015876
  30 H :    0.024227
  31 H :    0.037816
  32 H :    0.031667
  33 H :    0.062272
Sum of atomic charges:    0.0000000

LOEWDIN ATOMIC CHARGES
----------------------
   0 S :    0.424330
   1 C :   -0.197358
   2 C :   -0.059293
   3 C :   -0.072125
   4 C :   -0.204972
   5 H :    0.027361
   6 C :   -0.013807
   7 H :    0.021339
   8 H :    0.027576
   9 C :   -0.040302
  10 H :    0.022095
  11 H :    0.019625
  12 C :   -0.056570
  13 H :    0.030367
  14 H :    0.018461
  15 H :    0.025785
  16 S :    0.431240
  17 C :   -0.195386
  18 C :   -0.077857
  19 C :   -0.047389
  20 C :   -0.209830
  21 H :    0.041785
  22 C :   -0.029598
  23 H :    0.014694
  24 H :    0.020461
  25 C :   -0.025631
  26 H :    0.014220
  27 H :    0.025010
  28 C :   -0.046634
  29 H :    0.010984
  30 H :    0.018889
  31 H :    0.034620
  32 H :    0.021516
  33 H :    0.026395

  Mayer bond orders larger than 0.100000
B(  0-S ,  1-C ) :   1.1544 B(  0-S ,  4-C ) :   1.1586 B(  1-C ,  2-C ) :   1.5986
B(  1-C , 32-H ) :   0.9658 B(  2-C ,  3-C ) :   1.2715 B(  2-C ,  6-C ) :   1.0027
B(  3-C ,  4-C ) :   1.5675 B(  3-C ,  5-H ) :   0.9975 B(  4-C , 20-C ) :   1.0173
B(  6-C ,  7-H ) :   0.9382 B(  6-C ,  8-H ) :   0.9290 B(  6-C ,  9-C ) :   1.0642
B(  9-C , 10-H ) :   0.9524 B(  9-C , 11-H ) :   0.9513 B(  9-C , 12-C ) :   1.0965
B( 12-C , 13-H ) :   0.9726 B( 12-C , 14-H ) :   0.9757 B( 12-C , 15-H ) :   0.9696
B( 16-S , 17-C ) :   1.1833 B( 16-S , 20-C ) :   1.1700 B( 17-C , 18-C ) :   1.5540
B( 17-C , 20-C ) :   0.1044 B( 17-C , 33-H ) :   0.9707 B( 18-C , 19-C ) :   1.2886
B( 18-C , 21-H ) :   0.9835 B( 19-C , 20-C ) :   1.5281 B( 19-C , 22-C ) :   1.0472
B( 22-C , 23-H ) :   0.9146 B( 22-C , 24-H ) :   0.9262 B( 22-C , 25-C ) :   1.0643
B( 25-C , 26-H ) :   0.9623 B( 25-C , 27-H ) :   0.9537 B( 25-C , 28-C ) :   1.0822
B( 28-C , 29-H ) :   0.9775 B( 28-C , 30-H ) :   0.9741 B( 28-C , 31-H ) :   0.9737

Dispersion correction           -0.013469281
FINAL SINGLE POINT ENERGY     -1339.861852577224

DIPOLE MOMENT
-------------
                                X             Y             Z
Electronic contribution:      1.63658      -9.80461      17.75036
Nuclear contribution   :     -1.82444       9.93904     -17.95330
                        -----------------------------------------
Total Dipole Moment    :     -0.18786       0.13443      -0.20294
                        -----------------------------------------
Magnitude (a.u.)       :      0.30748
Magnitude (Debye)      :      0.78156

Rotational constants in cm-1:     0.019146     0.007296     0.006369
Rotational constants in MHz :   573.972286   218.728065   190.926439

                             ****ORCA TERMINATED NORMALLY****
TOTAL RUN TIME: 0 days 0 hours 0 minutes 20 seconds 737 msec
