                         Program Version 4.2.1 -  RELEASE  -
|  1> ! wB97X-D3 SP def2-SVP
|  2> %pal
|  3> nprocs 24
|  4> end
|  5>
|  6> * xyz 0 1
|  7> S 	 -107.524 	 60.7367 	 -101.393
|  8> C 	 -107.864 	 59.854 	 -99.938
|  9> C 	 -108.429 	 60.7532 	 -98.9823
| 10> C 	 -108.496 	 62.1005 	 -99.4675
| 11> C 	 -107.961 	 62.2868 	 -100.694
| 12> H 	 -108.847 	 62.9437 	 -98.9247
| 13> C 	 -108.942 	 60.386 	 -97.5653
| 14> H 	 -109.855 	 59.827 	 -97.6421
| 15> H 	 -109.013 	 61.4645 	 -97.0934
| 16> C 	 -107.929 	 59.693 	 -96.6746
| 17> H 	 -107.574 	 58.8325 	 -97.2304
| 18> H 	 -107.056 	 60.3544 	 -96.5822
| 19> C 	 -108.516 	 59.307 	 -95.3684
| 20> H 	 -109.192 	 58.4994 	 -95.4879
| 21> H 	 -107.734 	 59.0448 	 -94.6928
| 22> H 	 -109.134 	 60.0933 	 -94.9469
| 23> S 	 -106.711 	 64.7465 	 -100.766
| 24> C 	 -106.924 	 65.8217 	 -102.123
| 25> C 	 -108 	 65.3568 	 -102.879
| 26> C 	 -108.456 	 64.0953 	 -102.492
| 27> C 	 -107.837 	 63.5529 	 -101.401
| 28> H 	 -108.409 	 65.9537 	 -103.666
| 29> C 	 -109.548 	 63.4437 	 -103.322
| 30> H 	 -109.229 	 62.3651 	 -103.326
| 31> H 	 -109.601 	 63.854 	 -104.266
| 32> C 	 -110.921 	 63.4595 	 -102.629
| 33> H 	 -111.185 	 64.5245 	 -102.397
| 34> H 	 -110.825 	 63.0039 	 -101.62
| 35> C 	 -112.064 	 62.7895 	 -103.384
| 36> H 	 -112.251 	 63.248 	 -104.304
| 37> H 	 -113.009 	 62.8917 	 -102.872
| 38> H 	 -111.863 	 61.722 	 -103.553
| 39> H 	 -107.934 	 58.71 	 -99.8987
| 40> H 	 -106.448 	 66.7661 	 -102.335
| 41> *
| 42>
| 43>                          ****END OF INPUT****

CARTESIAN COORDINATES (ANGSTROEM)
---------------------------------
  S    -107.524000   60.736700  -101.393000
  C    -107.864000   59.854000  -99.938000
  C    -108.429000   60.753200  -98.982300
  C    -108.496000   62.100500  -99.467500
  C    -107.961000   62.286800  -100.694000
  H    -108.847000   62.943700  -98.924700
  C    -108.942000   60.386000  -97.565300
  H    -109.855000   59.827000  -97.642100
  H    -109.013000   61.464500  -97.093400
  C    -107.929000   59.693000  -96.674600
  H    -107.574000   58.832500  -97.230400
  H    -107.056000   60.354400  -96.582200
  C    -108.516000   59.307000  -95.368400
  H    -109.192000   58.499400  -95.487900
  H    -107.734000   59.044800  -94.692800
  H    -109.134000   60.093300  -94.946900
  S    -106.711000   64.746500  -100.766000
  C    -106.924000   65.821700  -102.123000
  C    -108.000000   65.356800  -102.879000
  C    -108.456000   64.095300  -102.492000
  C    -107.837000   63.552900  -101.401000
  H    -108.409000   65.953700  -103.666000
  C    -109.548000   63.443700  -103.322000
  H    -109.229000   62.365100  -103.326000
  H    -109.601000   63.854000  -104.266000
  C    -110.921000   63.459500  -102.629000
  H    -111.185000   64.524500  -102.397000
  H    -110.825000   63.003900  -101.620000
  C    -112.064000   62.789500  -103.384000
  H    -112.251000   63.248000  -104.304000
  H    -113.009000   62.891700  -102.872000
  H    -111.863000   61.722000  -103.553000
  H    -107.934000   58.710000  -99.898700
  H    -106.448000   66.766100  -102.335000

 Total Charge           Charge          ....    0
 Multiplicity           Mult            ....    1
 Number of Electrons    NEL             ....  134
 Basis Dimension        Dim             ....  322

ORBITAL ENERGIES
----------------

  NO   OCC          E(Eh)            E(eV)
   0   2.0000     -88.967768     -2420.9361
   1   2.0000     -88.965428     -2420.8724
   2   2.0000     -10.328171      -281.0438
   3   2.0000     -10.325339      -280.9667
   4   2.0000     -10.323976      -280.9297
   5   2.0000     -10.318954      -280.7930
   6   2.0000     -10.307876      -280.4916
   7   2.0000     -10.298447      -280.2350
   8   2.0000     -10.297005      -280.1958
   9   2.0000     -10.290960      -280.0313
  10   2.0000     -10.288676      -279.9691
  11   2.0000     -10.285124      -279.8725
  12   2.0000     -10.285027      -279.8698
  13   2.0000     -10.280035      -279.7340
  14   2.0000     -10.269681      -279.4522
  15   2.0000     -10.269312      -279.4422
  16   2.0000      -8.082211      -219.9281
  17   2.0000      -8.079958      -219.8668
  18   2.0000      -6.040739      -164.3769
  19   2.0000      -6.038459      -164.3148
  20   2.0000      -6.036592      -164.2640
  21   2.0000      -6.034396      -164.2043
  22   2.0000      -6.033130      -164.1698
  23   2.0000      -6.030825      -164.1071
  24   2.0000      -1.009524       -27.4705
  25   2.0000      -0.986732       -26.8503
  26   2.0000      -0.916225       -24.9317
  27   2.0000      -0.906380       -24.6638
  28   2.0000      -0.871712       -23.7205
  29   2.0000      -0.853267       -23.2186
  30   2.0000      -0.849354       -23.1121
  31   2.0000      -0.815368       -22.1873
  32   2.0000      -0.782210       -21.2850
  33   2.0000      -0.769470       -20.9383
  34   2.0000      -0.703118       -19.1328
  35   2.0000      -0.698785       -19.0149
  36   2.0000      -0.688571       -18.7370
  37   2.0000      -0.667987       -18.1768
  38   2.0000      -0.643989       -17.5238
  39   2.0000      -0.618053       -16.8181
  40   2.0000      -0.592031       -16.1100
  41   2.0000      -0.572642       -15.5824
  42   2.0000      -0.568549       -15.4710
  43   2.0000      -0.563234       -15.3264
  44   2.0000      -0.530279       -14.4296
  45   2.0000      -0.521135       -14.1808
  46   2.0000      -0.519608       -14.1393
  47   2.0000      -0.514301       -13.9948
  48   2.0000      -0.509271       -13.8580
  49   2.0000      -0.502353       -13.6697
  50   2.0000      -0.493203       -13.4207
  51   2.0000      -0.488369       -13.2892
  52   2.0000      -0.472304       -12.8520
  53   2.0000      -0.468174       -12.7397
  54   2.0000      -0.461315       -12.5530
  55   2.0000      -0.448825       -12.2131
  56   2.0000      -0.442463       -12.0400
  57   2.0000      -0.434356       -11.8194
  58   2.0000      -0.428653       -11.6642
  59   2.0000      -0.422561       -11.4985
  60   2.0000      -0.417934       -11.3726
  61   2.0000      -0.410841       -11.1796
  62   2.0000      -0.405929       -11.0459
  63   2.0000      -0.341815        -9.3013
  64   2.0000      -0.331694        -9.0259
  65   2.0000      -0.326715        -8.8904
  66   2.0000      -0.301546        -8.2055
  67   0.0000       0.035192         0.9576
  68   0.0000       0.055409         1.5078
  69   0.0000       0.110852         3.0164
  70   0.0000       0.122260         3.3269
  71   0.0000       0.132029         3.5927

MULLIKEN ATOMIC CHARGES
-----------------------
   0 S :    0.119593
   1 C :   -0.150077
   2 C :   -0.101993
   3 C :    0.051565
   4 C :   -0.158663
   5 H :    0.003829
   6 C :    0.016718
   7 H :    0.041454
   8 H :    0.040790
   9 C :   -0.086097
  10 H :    0.018648
  11 H :    0.029959
  12 C :    0.015198
  13 H :    0.015505
  14 H :    0.032397
  15 H :    0.019338
  16 S :    0.112294
  17 C :   -0.085364
  18 C :   -0.045948
  19 C :   -0.023163
  20 C :   -0.182799
  21 H :    0.010240
  22 C :    0.126937
  23 H :    0.021601
  24 H :   -0.002106
  25 C :   -0.113143
  26 H :    0.021265
  27 H :    0.034388
  28 C :    0.000807
  29 H :    0.009917
  30 H :    0.027903
  31 H :    0.033185
  32 H :    0.089187
  33 H :    0.056633
Sum of atomic charges:    0.0000000

LOEWDIN ATOMIC CHARGES
----------------------
   0 S :    0.418176
   1 C :   -0.223593
   2 C :   -0.064305
   3 C :   -0.062905
   4 C :   -0.196062
   5 H :    0.028744
   6 C :   -0.033170
   7 H :    0.027074
   8 H :    0.042559
   9 C :   -0.045514
  10 H :    0.018557
  11 H :    0.026930
  12 C :   -0.057366
  13 H :    0.021425
  14 H :    0.026699
  15 H :    0.025352
  16 S :    0.413884
  17 C :   -0.183216
  18 C :   -0.073015
  19 C :   -0.055408
  20 C :   -0.202960
  21 H :    0.027782
  22 C :   -0.021969
  23 H :    0.032847
  24 H :    0.014928
  25 C :   -0.044393
  26 H :    0.022604
  27 H :    0.027569
  28 C :   -0.062783
  29 H :    0.015175
  30 H :    0.027961
  31 H :    0.028390
  32 H :    0.047972
  33 H :    0.032028

  Mayer bond orders larger than 0.100000
B(  0-S ,  1-C ) :   1.1559 B(  0-S ,  4-C ) :   1.1510 B(  1-C ,  2-C ) :   1.5719
B(  1-C ,  4-C ) :   0.1002 B(  1-C , 32-H ) :   0.9580 B(  2-C ,  3-C ) :   1.2662
B(  2-C ,  6-C ) :   0.9990 B(  3-C ,  4-C ) :   1.5778 B(  3-C ,  5-H ) :   0.9958
B(  4-C , 20-C ) :   1.0168 B(  6-C ,  7-H ) :   0.9437 B(  6-C ,  8-H ) :   0.9487
B(  6-C ,  9-C ) :   1.0706 B(  9-C , 10-H ) :   0.9519 B(  9-C , 11-H ) :   0.9558
B(  9-C , 12-C ) :   1.0895 B( 12-C , 13-H ) :   0.9697 B( 12-C , 14-H ) :   0.9704
B( 12-C , 15-H ) :   0.9694 B( 16-S , 17-C ) :   1.1752 B( 16-S , 20-C ) :   1.1370
B( 17-C , 18-C ) :   1.5687 B( 17-C , 20-C ) :   0.1093 B( 17-C , 33-H ) :   0.9690
B( 18-C , 19-C ) :   1.2766 B( 18-C , 21-H ) :   0.9942 B( 19-C , 20-C ) :   1.5822
B( 19-C , 22-C ) :   1.0422 B( 22-C , 23-H ) :   0.9236 B( 22-C , 24-H ) :   0.9336
B( 22-C , 25-C ) :   1.0659 B( 25-C , 26-H ) :   0.9527 B( 25-C , 27-H ) :   0.9555
B( 25-C , 28-C ) :   1.0898 B( 28-C , 29-H ) :   0.9709 B( 28-C , 30-H ) :   0.9711
B( 28-C , 31-H ) :   0.9730

Dispersion correction           -0.014079527
FINAL SINGLE POINT ENERGY     -1339.876046174399

DIPOLE MOMENT
-------------
                                X             Y             Z
Electronic contribution:     17.28706       8.84319      -9.46642
Nuclear contribution   :    -17.77244      -8.84884       9.57062
                        -----------------------------------------
Total Dipole Moment    :     -0.48538      -0.00565       0.10420
                        -----------------------------------------
Magnitude (a.u.)       :      0.49647
Magnitude (Debye)      :      1.26193

Rotational constants in cm-1:     0.019982     0.007597     0.006470
Rotational constants in MHz :   599.046234   227.766205   193.952869

                             ****ORCA TERMINATED NORMALLY****
TOTAL RUN TIME: 0 days 0 hours 0 minutes 22 seconds 142 msec
