                         Program Version 4.2.1 -  RELEASE  -
|  1> ! wB97X-D3 SP def2-SVP
|  2> %pal
|  3> nprocs 24
|  4> end
|  5>
|  6> * xyz 0 1
|  7> S 	 -47.2652 	 10.4346 	 -16.5688
|  8> C 	 -46.0176 	 9.38252 	 -15.8281
|  9> C 	 -44.9339 	 10.0534 	 -15.2938
| 10> C 	 -45.0237 	 11.4292 	 -15.6063
| 11> C 	 -46.2452 	 11.796 	 -16.2336
| 12> H 	 -44.2936 	 12.213 	 -15.3026
| 13> C 	 -43.7763 	 9.4377 	 -14.6907
| 14> H 	 -44.1034 	 8.70741 	 -13.9428
| 15> H 	 -43.2552 	 10.3314 	 -14.2439
| 16> C 	 -42.8724 	 8.79864 	 -15.7416
| 17> H 	 -43.4397 	 8.16882 	 -16.47
| 18> H 	 -42.3066 	 9.59999 	 -16.1909
| 19> C 	 -41.8943 	 7.85471 	 -15.1056
| 20> H 	 -40.9838 	 7.71511 	 -15.797
| 21> H 	 -41.446 	 8.28945 	 -14.1943
| 22> H 	 -42.3176 	 6.83562 	 -14.9032
| 23> S 	 -46.8222 	 13.6353 	 -18.2013
| 24> C 	 -47.0937 	 15.2884 	 -17.8981
| 25> C 	 -46.9335 	 15.5426 	 -16.5462
| 26> C 	 -46.6833 	 14.3664 	 -15.7637
| 27> C 	 -46.6076 	 13.1979 	 -16.5145
| 28> H 	 -47.0159 	 16.518 	 -16.1111
| 29> C 	 -46.5957 	 14.3878 	 -14.1742
| 30> H 	 -45.6582 	 14.8118 	 -13.8742
| 31> H 	 -46.5096 	 13.3618 	 -13.7812
| 32> C 	 -47.7139 	 15.2063 	 -13.5067
| 33> H 	 -48.6729 	 14.604 	 -13.4102
| 34> H 	 -47.9145 	 16.0765 	 -14.048
| 35> C 	 -47.3892 	 15.7347 	 -12.0593
| 36> H 	 -48.1801 	 16.2767 	 -11.5179
| 37> H 	 -46.493 	 16.3257 	 -12.15
| 38> H 	 -47.111 	 14.9085 	 -11.3833
| 39> H 	 -46.0137 	 8.27363 	 -15.8328
| 40> H 	 -47.1623 	 16.0372 	 -18.6745
| 41> *
| 42>
| 43>                          ****END OF INPUT****

CARTESIAN COORDINATES (ANGSTROEM)
---------------------------------
  S    -47.265200   10.434600  -16.568800
  C    -46.017600    9.382520  -15.828100
  C    -44.933900   10.053400  -15.293800
  C    -45.023700   11.429200  -15.606300
  C    -46.245200   11.796000  -16.233600
  H    -44.293600   12.213000  -15.302600
  C    -43.776300    9.437700  -14.690700
  H    -44.103400    8.707410  -13.942800
  H    -43.255200   10.331400  -14.243900
  C    -42.872400    8.798640  -15.741600
  H    -43.439700    8.168820  -16.470000
  H    -42.306600    9.599990  -16.190900
  C    -41.894300    7.854710  -15.105600
  H    -40.983800    7.715110  -15.797000
  H    -41.446000    8.289450  -14.194300
  H    -42.317600    6.835620  -14.903200
  S    -46.822200   13.635300  -18.201300
  C    -47.093700   15.288400  -17.898100
  C    -46.933500   15.542600  -16.546200
  C    -46.683300   14.366400  -15.763700
  C    -46.607600   13.197900  -16.514500
  H    -47.015900   16.518000  -16.111100
  C    -46.595700   14.387800  -14.174200
  H    -45.658200   14.811800  -13.874200
  H    -46.509600   13.361800  -13.781200
  C    -47.713900   15.206300  -13.506700
  H    -48.672900   14.604000  -13.410200
  H    -47.914500   16.076500  -14.048000
  C    -47.389200   15.734700  -12.059300
  H    -48.180100   16.276700  -11.517900
  H    -46.493000   16.325700  -12.150000
  H    -47.111000   14.908500  -11.383300
  H    -46.013700    8.273630  -15.832800
  H    -47.162300   16.037200  -18.674500

 Total Charge           Charge          ....    0
 Multiplicity           Mult            ....    1
 Number of Electrons    NEL             ....  134
 Basis Dimension        Dim             ....  322

ORBITAL ENERGIES
----------------

  NO   OCC          E(Eh)            E(eV)
   0   2.0000     -88.974222     -2421.1117
   1   2.0000     -88.959975     -2420.7240
   2   2.0000     -10.332832      -281.1707
   3   2.0000     -10.326767      -281.0056
   4   2.0000     -10.316278      -280.7202
   5   2.0000     -10.315838      -280.7082
   6   2.0000     -10.308382      -280.5053
   7   2.0000     -10.298520      -280.2370
   8   2.0000     -10.295571      -280.1567
   9   2.0000     -10.294678      -280.1324
  10   2.0000     -10.293365      -280.0967
  11   2.0000     -10.292486      -280.0728
  12   2.0000     -10.287981      -279.9502
  13   2.0000     -10.287227      -279.9297
  14   2.0000     -10.285891      -279.8933
  15   2.0000     -10.279322      -279.7146
  16   2.0000      -8.087974      -220.0850
  17   2.0000      -8.075862      -219.7554
  18   2.0000      -6.046487      -164.5333
  19   2.0000      -6.042655      -164.4290
  20   2.0000      -6.038757      -164.3229
  21   2.0000      -6.034243      -164.2001
  22   2.0000      -6.030004      -164.0848
  23   2.0000      -6.026877      -163.9997
  24   2.0000      -1.005206       -27.3530
  25   2.0000      -0.985712       -26.8226
  26   2.0000      -0.924788       -25.1648
  27   2.0000      -0.899778       -24.4842
  28   2.0000      -0.868965       -23.6457
  29   2.0000      -0.852597       -23.2004
  30   2.0000      -0.841705       -22.9039
  31   2.0000      -0.808368       -21.9968
  32   2.0000      -0.780806       -21.2468
  33   2.0000      -0.771159       -20.9843
  34   2.0000      -0.702091       -19.1049
  35   2.0000      -0.699151       -19.0249
  36   2.0000      -0.695458       -18.9244
  37   2.0000      -0.657388       -17.8884
  38   2.0000      -0.632797       -17.2193
  39   2.0000      -0.618650       -16.8343
  40   2.0000      -0.597750       -16.2656
  41   2.0000      -0.580145       -15.7866
  42   2.0000      -0.563039       -15.3211
  43   2.0000      -0.558190       -15.1891
  44   2.0000      -0.524897       -14.2832
  45   2.0000      -0.518960       -14.1216
  46   2.0000      -0.517874       -14.0921
  47   2.0000      -0.512762       -13.9530
  48   2.0000      -0.507722       -13.8158
  49   2.0000      -0.497123       -13.5274
  50   2.0000      -0.493525       -13.4295
  51   2.0000      -0.470576       -12.8050
  52   2.0000      -0.467695       -12.7266
  53   2.0000      -0.461730       -12.5643
  54   2.0000      -0.459450       -12.5023
  55   2.0000      -0.449462       -12.2305
  56   2.0000      -0.446312       -12.1448
  57   2.0000      -0.437328       -11.9003
  58   2.0000      -0.430347       -11.7103
  59   2.0000      -0.428126       -11.6499
  60   2.0000      -0.423741       -11.5306
  61   2.0000      -0.419830       -11.4241
  62   2.0000      -0.408719       -11.1218
  63   2.0000      -0.337006        -9.1704
  64   2.0000      -0.334844        -9.1116
  65   2.0000      -0.327485        -8.9113
  66   2.0000      -0.295813        -8.0495
  67   0.0000       0.032033         0.8717
  68   0.0000       0.065935         1.7942
  69   0.0000       0.106556         2.8995
  70   0.0000       0.127676         3.4742
  71   0.0000       0.132913         3.6168

MULLIKEN ATOMIC CHARGES
-----------------------
   0 S :    0.137153
   1 C :   -0.136176
   2 C :   -0.080463
   3 C :    0.012026
   4 C :   -0.161934
   5 H :    0.027825
   6 C :    0.054360
   7 H :    0.036723
   8 H :    0.030672
   9 C :   -0.054848
  10 H :    0.040347
  11 H :    0.030205
  12 C :   -0.084439
  13 H :    0.039672
  14 H :    0.030024
  15 H :    0.045530
  16 S :    0.098996
  17 C :   -0.079010
  18 C :   -0.045012
  19 C :   -0.029371
  20 C :   -0.182362
  21 H :    0.014430
  22 C :    0.092675
  23 H :    0.013331
  24 H :    0.034927
  25 C :   -0.079843
  26 H :    0.046494
  27 H :    0.020144
  28 C :   -0.081122
  29 H :    0.045886
  30 H :    0.024621
  31 H :    0.028077
  32 H :    0.047886
  33 H :    0.062577
Sum of atomic charges:   -0.0000000

LOEWDIN ATOMIC CHARGES
----------------------
   0 S :    0.412228
   1 C :   -0.193665
   2 C :   -0.069182
   3 C :   -0.062714
   4 C :   -0.207960
   5 H :    0.036930
   6 C :   -0.037939
   7 H :    0.035120
   8 H :    0.040692
   9 C :   -0.038603
  10 H :    0.030696
  11 H :    0.027416
  12 C :   -0.077283
  13 H :    0.033050
  14 H :    0.023202
  15 H :    0.027978
  16 S :    0.423308
  17 C :   -0.196269
  18 C :   -0.076552
  19 C :   -0.052995
  20 C :   -0.204967
  21 H :    0.026393
  22 C :   -0.026606
  23 H :    0.023761
  24 H :    0.033889
  25 C :   -0.038361
  26 H :    0.033261
  27 H :    0.012619
  28 C :   -0.071496
  29 H :    0.029726
  30 H :    0.018897
  31 H :    0.023898
  32 H :    0.029717
  33 H :    0.031812

  Mayer bond orders larger than 0.100000
B(  0-S ,  1-C ) :   1.1331 B(  0-S ,  4-C ) :   1.1706 B(  1-C ,  2-C ) :   1.5982
B(  1-C ,  4-C ) :   0.1010 B(  1-C , 32-H ) :   0.9596 B(  2-C ,  3-C ) :   1.2667
B(  2-C ,  6-C ) :   1.0344 B(  3-C ,  4-C ) :   1.5464 B(  3-C ,  5-H ) :   0.9827
B(  4-C , 20-C ) :   1.0165 B(  6-C ,  7-H ) :   0.9339 B(  6-C ,  8-H ) :   0.9279
B(  6-C ,  9-C ) :   1.0694 B(  9-C , 10-H ) :   0.9613 B(  9-C , 11-H ) :   0.9504
B(  9-C , 12-C ) :   1.0865 B( 12-C , 13-H ) :   0.9735 B( 12-C , 14-H ) :   0.9687
B( 12-C , 15-H ) :   0.9763 B( 16-S , 17-C ) :   1.1818 B( 16-S , 20-C ) :   1.1557
B( 17-C , 18-C ) :   1.5675 B( 17-C , 20-C ) :   0.1001 B( 17-C , 33-H ) :   0.9696
B( 18-C , 19-C ) :   1.2694 B( 18-C , 21-H ) :   0.9914 B( 19-C , 20-C ) :   1.5977
B( 19-C , 22-C ) :   1.0155 B( 22-C , 23-H ) :   0.9402 B( 22-C , 24-H ) :   0.9394
B( 22-C , 25-C ) :   1.0548 B( 25-C , 26-H ) :   0.9569 B( 25-C , 27-H ) :   0.9622
B( 25-C , 28-C ) :   1.0717 B( 28-C , 29-H ) :   0.9770 B( 28-C , 30-H ) :   0.9767
B( 28-C , 31-H ) :   0.9778

Dispersion correction           -0.013437208
FINAL SINGLE POINT ENERGY     -1339.877399553629

DIPOLE MOMENT
-------------
                                X             Y             Z
Electronic contribution:    -13.82959       1.18509     -21.11173
Nuclear contribution   :     14.31527      -1.10700      21.53458
                        -----------------------------------------
Total Dipole Moment    :      0.48568       0.07809       0.42285
                        -----------------------------------------
Magnitude (a.u.)       :      0.64867
Magnitude (Debye)      :      1.64880

Rotational constants in cm-1:     0.018881     0.007307     0.006128
Rotational constants in MHz :   566.027189   219.070860   183.715174

                             ****ORCA TERMINATED NORMALLY****
TOTAL RUN TIME: 0 days 0 hours 0 minutes 20 seconds 851 msec
