                         Program Version 4.2.1 -  RELEASE  -
|  1> ! wB97X-D3 SP def2-SVP
|  2> %pal
|  3> nprocs 24
|  4> end
|  5>
|  6> * xyz 0 1
|  7> S 	 -92.4851 	 -36.4922 	 -57.4918
|  8> C 	 -92.5702 	 -37.7352 	 -56.2223
|  9> C 	 -93.9007 	 -38.0947 	 -55.9787
| 10> C 	 -94.7949 	 -37.3083 	 -56.7415
| 11> C 	 -94.2272 	 -36.3143 	 -57.5063
| 12> H 	 -95.8794 	 -37.352 	 -56.74
| 13> C 	 -94.4948 	 -39.232 	 -55.0942
| 14> H 	 -95.4701 	 -38.854 	 -54.6741
| 15> H 	 -93.8162 	 -39.2179 	 -54.2842
| 16> C 	 -94.6332 	 -40.6674 	 -55.6242
| 17> H 	 -95.3684 	 -40.6813 	 -56.3429
| 18> H 	 -93.7192 	 -40.8584 	 -56.1403
| 19> C 	 -95.0072 	 -41.7728 	 -54.6513
| 20> H 	 -94.6896 	 -42.7407 	 -55.0698
| 21> H 	 -94.4937 	 -41.6001 	 -53.7621
| 22> H 	 -96.0396 	 -41.7131 	 -54.3249
| 23> S 	 -94.3461 	 -33.5692 	 -57.9695
| 24> C 	 -95.5553 	 -32.9772 	 -58.9936
| 25> C 	 -96.3958 	 -33.9375 	 -59.4163
| 26> C 	 -96.1078 	 -35.2668 	 -58.9412
| 27> C 	 -94.8912 	 -35.2534 	 -58.2637
| 28> H 	 -97.3179 	 -33.7975 	 -59.9673
| 29> C 	 -97.1517 	 -36.4312 	 -59.198
| 30> H 	 -96.7071 	 -37.3346 	 -58.6575
| 31> H 	 -97.2063 	 -36.6356 	 -60.2978
| 32> C 	 -98.5107 	 -36.0772 	 -58.746
| 33> H 	 -99.1158 	 -36.9351 	 -59.1462
| 34> H 	 -98.9234 	 -35.2252 	 -59.3097
| 35> C 	 -98.6098 	 -36.031 	 -57.2362
| 36> H 	 -98.0233 	 -36.7392 	 -56.7007
| 37> H 	 -99.7137 	 -36.1154 	 -57.1528
| 38> H 	 -98.1568 	 -35.1036 	 -57.0499
| 39> H 	 -91.6635 	 -38.1058 	 -55.7705
| 40> H 	 -95.6902 	 -31.9388 	 -59.3022
| 41> *
| 42>
| 43>                          ****END OF INPUT****

CARTESIAN COORDINATES (ANGSTROEM)
---------------------------------
  S    -92.485100  -36.492200  -57.491800
  C    -92.570200  -37.735200  -56.222300
  C    -93.900700  -38.094700  -55.978700
  C    -94.794900  -37.308300  -56.741500
  C    -94.227200  -36.314300  -57.506300
  H    -95.879400  -37.352000  -56.740000
  C    -94.494800  -39.232000  -55.094200
  H    -95.470100  -38.854000  -54.674100
  H    -93.816200  -39.217900  -54.284200
  C    -94.633200  -40.667400  -55.624200
  H    -95.368400  -40.681300  -56.342900
  H    -93.719200  -40.858400  -56.140300
  C    -95.007200  -41.772800  -54.651300
  H    -94.689600  -42.740700  -55.069800
  H    -94.493700  -41.600100  -53.762100
  H    -96.039600  -41.713100  -54.324900
  S    -94.346100  -33.569200  -57.969500
  C    -95.555300  -32.977200  -58.993600
  C    -96.395800  -33.937500  -59.416300
  C    -96.107800  -35.266800  -58.941200
  C    -94.891200  -35.253400  -58.263700
  H    -97.317900  -33.797500  -59.967300
  C    -97.151700  -36.431200  -59.198000
  H    -96.707100  -37.334600  -58.657500
  H    -97.206300  -36.635600  -60.297800
  C    -98.510700  -36.077200  -58.746000
  H    -99.115800  -36.935100  -59.146200
  H    -98.923400  -35.225200  -59.309700
  C    -98.609800  -36.031000  -57.236200
  H    -98.023300  -36.739200  -56.700700
  H    -99.713700  -36.115400  -57.152800
  H    -98.156800  -35.103600  -57.049900
  H    -91.663500  -38.105800  -55.770500
  H    -95.690200  -31.938800  -59.302200

 Total Charge           Charge          ....    0
 Multiplicity           Mult            ....    1
 Number of Electrons    NEL             ....  134
 Basis Dimension        Dim             ....  322

ORBITAL ENERGIES
----------------

  NO   OCC          E(Eh)            E(eV)
   0   2.0000     -88.965722     -2420.8804
   1   2.0000     -88.964904     -2420.8581
   2   2.0000     -10.329751      -281.0868
   3   2.0000     -10.327130      -281.0155
   4   2.0000     -10.320188      -280.8266
   5   2.0000     -10.312262      -280.6109
   6   2.0000     -10.307334      -280.4768
   7   2.0000     -10.306003      -280.4406
   8   2.0000     -10.302760      -280.3524
   9   2.0000     -10.295005      -280.1413
  10   2.0000     -10.289559      -279.9931
  11   2.0000     -10.288680      -279.9692
  12   2.0000     -10.287447      -279.9357
  13   2.0000     -10.276570      -279.6397
  14   2.0000     -10.275201      -279.6024
  15   2.0000     -10.274068      -279.5716
  16   2.0000      -8.080997      -219.8951
  17   2.0000      -8.079281      -219.8484
  18   2.0000      -6.039569      -164.3450
  19   2.0000      -6.037761      -164.2958
  20   2.0000      -6.035530      -164.2351
  21   2.0000      -6.033824      -164.1887
  22   2.0000      -6.031540      -164.1266
  23   2.0000      -6.030115      -164.0878
  24   2.0000      -1.006232       -27.3810
  25   2.0000      -0.984593       -26.7921
  26   2.0000      -0.922650       -25.1066
  27   2.0000      -0.910429       -24.7740
  28   2.0000      -0.870389       -23.6845
  29   2.0000      -0.853145       -23.2153
  30   2.0000      -0.845302       -23.0018
  31   2.0000      -0.811586       -22.0844
  32   2.0000      -0.789019       -21.4703
  33   2.0000      -0.777404       -21.1542
  34   2.0000      -0.709553       -19.3079
  35   2.0000      -0.702812       -19.1245
  36   2.0000      -0.692677       -18.8487
  37   2.0000      -0.654817       -17.8185
  38   2.0000      -0.644087       -17.5265
  39   2.0000      -0.619269       -16.8512
  40   2.0000      -0.600067       -16.3287
  41   2.0000      -0.571277       -15.5453
  42   2.0000      -0.562301       -15.3010
  43   2.0000      -0.556043       -15.1307
  44   2.0000      -0.543655       -14.7936
  45   2.0000      -0.528405       -14.3786
  46   2.0000      -0.526448       -14.3254
  47   2.0000      -0.514299       -13.9948
  48   2.0000      -0.505754       -13.7623
  49   2.0000      -0.498244       -13.5579
  50   2.0000      -0.497384       -13.5345
  51   2.0000      -0.479616       -13.0510
  52   2.0000      -0.471964       -12.8428
  53   2.0000      -0.468570       -12.7504
  54   2.0000      -0.465035       -12.6543
  55   2.0000      -0.452055       -12.3011
  56   2.0000      -0.445803       -12.1309
  57   2.0000      -0.435713       -11.8563
  58   2.0000      -0.434013       -11.8101
  59   2.0000      -0.420331       -11.4378
  60   2.0000      -0.418607       -11.3909
  61   2.0000      -0.417701       -11.3662
  62   2.0000      -0.402620       -10.9559
  63   2.0000      -0.348367        -9.4796
  64   2.0000      -0.332871        -9.0579
  65   2.0000      -0.329366        -8.9625
  66   2.0000      -0.291538        -7.9331
  67   0.0000       0.026955         0.7335
  68   0.0000       0.074261         2.0208
  69   0.0000       0.108462         2.9514
  70   0.0000       0.113522         3.0891
  71   0.0000       0.128007         3.4832

MULLIKEN ATOMIC CHARGES
-----------------------
   0 S :    0.102257
   1 C :   -0.144634
   2 C :   -0.069903
   3 C :    0.034987
   4 C :   -0.155649
   5 H :   -0.025234
   6 C :    0.055452
   7 H :    0.026105
   8 H :    0.006585
   9 C :   -0.009195
  10 H :    0.002001
  11 H :    0.016632
  12 C :   -0.015661
  13 H :    0.045622
  14 H :    0.004818
  15 H :    0.029570
  16 S :    0.113118
  17 C :   -0.068543
  18 C :   -0.034084
  19 C :   -0.065503
  20 C :   -0.152694
  21 H :    0.007338
  22 C :    0.037648
  23 H :    0.035809
  24 H :    0.044568
  25 C :   -0.113749
  26 H :    0.028679
  27 H :    0.036574
  28 C :    0.001464
  29 H :    0.034176
  30 H :    0.048702
  31 H :    0.032759
  32 H :    0.050108
  33 H :    0.059875
Sum of atomic charges:   -0.0000000

LOEWDIN ATOMIC CHARGES
----------------------
   0 S :    0.394885
   1 C :   -0.187001
   2 C :   -0.059100
   3 C :   -0.071033
   4 C :   -0.192256
   5 H :    0.023275
   6 C :   -0.028374
   7 H :    0.031917
   8 H :    0.021200
   9 C :   -0.034331
  10 H :    0.012467
  11 H :    0.023246
  12 C :   -0.055986
  13 H :    0.035948
  14 H :    0.014805
  15 H :    0.027273
  16 S :    0.412081
  17 C :   -0.200647
  18 C :   -0.080370
  19 C :   -0.053545
  20 C :   -0.193513
  21 H :    0.026455
  22 C :   -0.033297
  23 H :    0.035496
  24 H :    0.037620
  25 C :   -0.051372
  26 H :    0.026495
  27 H :    0.026205
  28 C :   -0.055358
  29 H :    0.020251
  30 H :    0.039135
  31 H :    0.025974
  32 H :    0.025325
  33 H :    0.036130

  Mayer bond orders larger than 0.100000
B(  0-S ,  1-C ) :   1.1392 B(  0-S ,  4-C ) :   1.1547 B(  1-C ,  2-C ) :   1.5814
B(  1-C ,  4-C ) :   0.1032 B(  1-C , 32-H ) :   0.9778 B(  2-C ,  3-C ) :   1.2578
B(  2-C ,  6-C ) :   1.0129 B(  3-C ,  4-C ) :   1.5759 B(  3-C ,  5-H ) :   0.9869
B(  4-C , 20-C ) :   1.0305 B(  6-C ,  7-H ) :   0.9429 B(  6-C ,  8-H ) :   0.9322
B(  6-C ,  9-C ) :   1.0662 B(  9-C , 10-H ) :   0.9517 B(  9-C , 11-H ) :   0.9513
B(  9-C , 12-C ) :   1.0835 B( 12-C , 13-H ) :   0.9727 B( 12-C , 14-H ) :   0.9751
B( 12-C , 15-H ) :   0.9734 B( 16-S , 17-C ) :   1.1514 B( 16-S , 20-C ) :   1.1366
B( 17-C , 18-C ) :   1.6179 B( 17-C , 33-H ) :   0.9626 B( 18-C , 19-C ) :   1.2380
B( 18-C , 21-H ) :   0.9870 B( 19-C , 20-C ) :   1.6158 B( 19-C , 22-C ) :   1.0115
B( 22-C , 23-H ) :   0.9416 B( 22-C , 24-H ) :   0.9347 B( 22-C , 25-C ) :   1.0900
B( 25-C , 26-H ) :   0.9532 B( 25-C , 27-H ) :   0.9469 B( 25-C , 28-C ) :   1.0449
B( 28-C , 29-H ) :   0.9720 B( 28-C , 30-H ) :   0.9729 B( 28-C , 31-H ) :   0.9747

Dispersion correction           -0.014424717
FINAL SINGLE POINT ENERGY     -1339.855141025957

DIPOLE MOMENT
-------------
                                X             Y             Z
Electronic contribution:     19.87297      21.98134      -7.99504
Nuclear contribution   :    -20.53398     -22.33886       8.05254
                        -----------------------------------------
Total Dipole Moment    :     -0.66101      -0.35752       0.05750
                        -----------------------------------------
Magnitude (a.u.)       :      0.75370
Magnitude (Debye)      :      1.91575

Rotational constants in cm-1:     0.019461     0.008573     0.006363
Rotational constants in MHz :   583.418514   257.002172   190.751900

                             ****ORCA TERMINATED NORMALLY****
TOTAL RUN TIME: 0 days 0 hours 0 minutes 21 seconds 733 msec
