                         Program Version 4.2.1 -  RELEASE  -
|  1> ! wB97X-D3 SP def2-SVP
|  2> %pal
|  3> nprocs 24
|  4> end
|  5>
|  6> * xyz 0 1
|  7> S 	 -106.41 	 53.4435 	 -103.197
|  8> C 	 -107.535 	 52.1979 	 -103.068
|  9> C 	 -108.74 	 52.7703 	 -102.771
| 10> C 	 -108.665 	 54.0495 	 -102.129
| 11> C 	 -107.518 	 54.6364 	 -102.5
| 12> H 	 -109.527 	 54.5835 	 -101.62
| 13> C 	 -109.915 	 51.8774 	 -102.653
| 14> H 	 -109.84 	 51.0522 	 -103.391
| 15> H 	 -110.879 	 52.4451 	 -102.805
| 16> C 	 -109.86 	 51.1426 	 -101.28
| 17> H 	 -108.892 	 50.5857 	 -101.173
| 18> H 	 -110.038 	 51.8733 	 -100.448
| 19> C 	 -110.953 	 50.0961 	 -101.224
| 20> H 	 -111.959 	 50.4703 	 -101.453
| 21> H 	 -110.754 	 49.2294 	 -101.89
| 22> H 	 -111.044 	 49.6813 	 -100.189
| 23> S 	 -106.669 	 56.4422 	 -100.675
| 24> C 	 -106.356 	 58.1434 	 -101.172
| 25> C 	 -106.685 	 58.308 	 -102.487
| 26> C 	 -107.184 	 57.1351 	 -103.139
| 27> C 	 -107.142 	 56.0309 	 -102.283
| 28> H 	 -106.618 	 59.312 	 -102.924
| 29> C 	 -107.673 	 57.247 	 -104.53
| 30> H 	 -107.972 	 56.2066 	 -104.851
| 31> H 	 -106.759 	 57.5537 	 -105.046
| 32> C 	 -108.809 	 58.2168 	 -104.823
| 33> H 	 -108.978 	 58.2957 	 -105.907
| 34> H 	 -108.469 	 59.1678 	 -104.571
| 35> C 	 -110.169 	 57.7874 	 -104.098
| 36> H 	 -110.601 	 56.878 	 -104.552
| 37> H 	 -110.851 	 58.6268 	 -104.174
| 38> H 	 -110.078 	 57.7183 	 -103.055
| 39> H 	 -107.311 	 51.2069 	 -103.371
| 40> H 	 -105.834 	 58.9006 	 -100.608
| 41> *
| 42>
| 43>                          ****END OF INPUT****

CARTESIAN COORDINATES (ANGSTROEM)
---------------------------------
  S    -106.410000   53.443500  -103.197000
  C    -107.535000   52.197900  -103.068000
  C    -108.740000   52.770300  -102.771000
  C    -108.665000   54.049500  -102.129000
  C    -107.518000   54.636400  -102.500000
  H    -109.527000   54.583500  -101.620000
  C    -109.915000   51.877400  -102.653000
  H    -109.840000   51.052200  -103.391000
  H    -110.879000   52.445100  -102.805000
  C    -109.860000   51.142600  -101.280000
  H    -108.892000   50.585700  -101.173000
  H    -110.038000   51.873300  -100.448000
  C    -110.953000   50.096100  -101.224000
  H    -111.959000   50.470300  -101.453000
  H    -110.754000   49.229400  -101.890000
  H    -111.044000   49.681300  -100.189000
  S    -106.669000   56.442200  -100.675000
  C    -106.356000   58.143400  -101.172000
  C    -106.685000   58.308000  -102.487000
  C    -107.184000   57.135100  -103.139000
  C    -107.142000   56.030900  -102.283000
  H    -106.618000   59.312000  -102.924000
  C    -107.673000   57.247000  -104.530000
  H    -107.972000   56.206600  -104.851000
  H    -106.759000   57.553700  -105.046000
  C    -108.809000   58.216800  -104.823000
  H    -108.978000   58.295700  -105.907000
  H    -108.469000   59.167800  -104.571000
  C    -110.169000   57.787400  -104.098000
  H    -110.601000   56.878000  -104.552000
  H    -110.851000   58.626800  -104.174000
  H    -110.078000   57.718300  -103.055000
  H    -107.311000   51.206900  -103.371000
  H    -105.834000   58.900600  -100.608000

 Total Charge           Charge          ....    0
 Multiplicity           Mult            ....    1
 Number of Electrons    NEL             ....  134
 Basis Dimension        Dim             ....  322

ORBITAL ENERGIES
----------------

  NO   OCC          E(Eh)            E(eV)
   0   2.0000     -88.962871     -2420.8028
   1   2.0000     -88.958073     -2420.6722
   2   2.0000     -10.323959      -280.9292
   3   2.0000     -10.322891      -280.9001
   4   2.0000     -10.316096      -280.7153
   5   2.0000     -10.304257      -280.3931
   6   2.0000     -10.299415      -280.2613
   7   2.0000     -10.296814      -280.1906
   8   2.0000     -10.292566      -280.0749
   9   2.0000     -10.291361      -280.0422
  10   2.0000     -10.291124      -280.0357
  11   2.0000     -10.290897      -280.0296
  12   2.0000     -10.288654      -279.9685
  13   2.0000     -10.287175      -279.9283
  14   2.0000     -10.278937      -279.7041
  15   2.0000     -10.276846      -279.6472
  16   2.0000      -8.077278      -219.7939
  17   2.0000      -8.074151      -219.7088
  18   2.0000      -6.035870      -164.2444
  19   2.0000      -6.032629      -164.1562
  20   2.0000      -6.031846      -164.1349
  21   2.0000      -6.028404      -164.0412
  22   2.0000      -6.027951      -164.0289
  23   2.0000      -6.024915      -163.9463
  24   2.0000      -1.013496       -27.5786
  25   2.0000      -0.987593       -26.8738
  26   2.0000      -0.911761       -24.8103
  27   2.0000      -0.907424       -24.6923
  28   2.0000      -0.874034       -23.7837
  29   2.0000      -0.848595       -23.0915
  30   2.0000      -0.841833       -22.9075
  31   2.0000      -0.820143       -22.3172
  32   2.0000      -0.779078       -21.1998
  33   2.0000      -0.760485       -20.6938
  34   2.0000      -0.710766       -19.3409
  35   2.0000      -0.695287       -18.9197
  36   2.0000      -0.689947       -18.7744
  37   2.0000      -0.659688       -17.9510
  38   2.0000      -0.646730       -17.5984
  39   2.0000      -0.616321       -16.7709
  40   2.0000      -0.590512       -16.0686
  41   2.0000      -0.569928       -15.5085
  42   2.0000      -0.559178       -15.2160
  43   2.0000      -0.551150       -14.9976
  44   2.0000      -0.541159       -14.7257
  45   2.0000      -0.523327       -14.2405
  46   2.0000      -0.519508       -14.1365
  47   2.0000      -0.514580       -14.0024
  48   2.0000      -0.504596       -13.7308
  49   2.0000      -0.496373       -13.5070
  50   2.0000      -0.490601       -13.3499
  51   2.0000      -0.474119       -12.9014
  52   2.0000      -0.469847       -12.7852
  53   2.0000      -0.463692       -12.6177
  54   2.0000      -0.457078       -12.4377
  55   2.0000      -0.446378       -12.1466
  56   2.0000      -0.442029       -12.0282
  57   2.0000      -0.430508       -11.7147
  58   2.0000      -0.429423       -11.6852
  59   2.0000      -0.426173       -11.5968
  60   2.0000      -0.423312       -11.5189
  61   2.0000      -0.414951       -11.2914
  62   2.0000      -0.412361       -11.2209
  63   2.0000      -0.340068        -9.2537
  64   2.0000      -0.334368        -9.0986
  65   2.0000      -0.312244        -8.4966
  66   2.0000      -0.299156        -8.1404
  67   0.0000       0.050994         1.3876
  68   0.0000       0.055195         1.5019
  69   0.0000       0.107998         2.9388
  70   0.0000       0.122388         3.3304
  71   0.0000       0.125737         3.4215

MULLIKEN ATOMIC CHARGES
-----------------------
   0 S :    0.115983
   1 C :   -0.118537
   2 C :   -0.062823
   3 C :    0.006128
   4 C :   -0.145676
   5 H :    0.050613
   6 C :    0.020072
   7 H :    0.020548
   8 H :    0.035825
   9 C :   -0.093097
  10 H :    0.041329
  11 H :    0.038385
  12 C :   -0.056052
  13 H :    0.025556
  14 H :    0.033124
  15 H :    0.034620
  16 S :    0.108472
  17 C :   -0.091431
  18 C :   -0.055802
  19 C :   -0.011592
  20 C :   -0.199948
  21 H :    0.027780
  22 C :    0.059539
  23 H :    0.029983
  24 H :    0.035987
  25 C :   -0.040386
  26 H :    0.033424
  27 H :    0.001653
  28 C :   -0.045454
  29 H :    0.045474
  30 H :    0.025081
  31 H :    0.030049
  32 H :    0.046509
  33 H :    0.054666
Sum of atomic charges:    0.0000000

LOEWDIN ATOMIC CHARGES
----------------------
   0 S :    0.417792
   1 C :   -0.205392
   2 C :   -0.071754
   3 C :   -0.061563
   4 C :   -0.193120
   5 H :    0.048884
   6 C :   -0.041770
   7 H :    0.029337
   8 H :    0.032832
   9 C :   -0.040678
  10 H :    0.031305
  11 H :    0.027827
  12 C :   -0.076868
  13 H :    0.021640
  14 H :    0.024767
  15 H :    0.028639
  16 S :    0.397571
  17 C :   -0.174009
  18 C :   -0.072358
  19 C :   -0.059588
  20 C :   -0.209435
  21 H :    0.034241
  22 C :   -0.038242
  23 H :    0.033742
  24 H :    0.037329
  25 C :   -0.030274
  26 H :    0.029922
  27 H :    0.009801
  28 C :   -0.060084
  29 H :    0.031019
  30 H :    0.026262
  31 H :    0.019224
  32 H :    0.023124
  33 H :    0.029878

  Mayer bond orders larger than 0.100000
B(  0-S ,  1-C ) :   1.1489 B(  0-S ,  4-C ) :   1.1460 B(  1-C ,  2-C ) :   1.5814
B(  1-C , 32-H ) :   0.9800 B(  2-C ,  3-C ) :   1.2165 B(  2-C ,  6-C ) :   1.0682
B(  3-C ,  4-C ) :   1.6165 B(  3-C ,  5-H ) :   0.9794 B(  4-C , 20-C ) :   1.0012
B(  6-C ,  7-H ) :   0.9416 B(  6-C ,  8-H ) :   0.9376 B(  6-C ,  9-C ) :   1.0560
B(  9-C , 10-H ) :   0.9560 B(  9-C , 11-H ) :   0.9549 B(  9-C , 12-C ) :   1.0853
B( 12-C , 13-H ) :   0.9720 B( 12-C , 14-H ) :   0.9738 B( 12-C , 15-H ) :   0.9723
B( 16-S , 17-C ) :   1.1279 B( 16-S , 20-C ) :   1.1568 B( 17-C , 18-C ) :   1.6476
B( 17-C , 33-H ) :   0.9664 B( 18-C , 19-C ) :   1.2116 B( 18-C , 21-H ) :   0.9822
B( 19-C , 20-C ) :   1.6001 B( 19-C , 22-C ) :   1.0448 B( 22-C , 23-H ) :   0.9318
B( 22-C , 24-H ) :   0.9262 B( 22-C , 25-C ) :   1.0830 B( 25-C , 26-H ) :   0.9544
B( 25-C , 27-H ) :   0.9524 B( 25-C , 28-C ) :   1.0644 B( 28-C , 29-H ) :   0.9774
B( 28-C , 30-H ) :   0.9742 B( 28-C , 31-H ) :   0.9778

Dispersion correction           -0.014626967
FINAL SINGLE POINT ENERGY     -1339.866308177087

DIPOLE MOMENT
-------------
                                X             Y             Z
Electronic contribution:     21.23517       4.98003       5.82591
Nuclear contribution   :    -21.67866      -4.86670      -6.03212
                        -----------------------------------------
Total Dipole Moment    :     -0.44349       0.11333      -0.20621
                        -----------------------------------------
Magnitude (a.u.)       :      0.50204
Magnitude (Debye)      :      1.27609

Rotational constants in cm-1:     0.021458     0.007716     0.007002
Rotational constants in MHz :   643.302927   231.310983   209.900924

                             ****ORCA TERMINATED NORMALLY****
TOTAL RUN TIME: 0 days 0 hours 0 minutes 21 seconds 601 msec
