                         Program Version 4.2.1 -  RELEASE  -
|  1> ! wB97X-D3 SP def2-SVP
|  2> %pal
|  3> nprocs 24
|  4> end
|  5>
|  6> * xyz 0 1
|  7> S 	 -49.0876 	 23.0153 	 33.0203
|  8> C 	 -48.9611 	 24.784 	 33.1213
|  9> C 	 -48.2234 	 25.2873 	 32.0786
| 10> C 	 -47.5857 	 24.2599 	 31.3688
| 11> C 	 -47.9422 	 23.0073 	 31.7057
| 12> H 	 -46.7309 	 24.4603 	 30.7673
| 13> C 	 -47.791 	 26.7428 	 32.0243
| 14> H 	 -48.626 	 27.279 	 31.7699
| 15> H 	 -47.1546 	 26.9222 	 31.1857
| 16> C 	 -47.339 	 27.4544 	 33.338
| 17> H 	 -46.9363 	 28.4533 	 33.1285
| 18> H 	 -48.1598 	 27.7022 	 34.0076
| 19> C 	 -46.3131 	 26.6515 	 34.112
| 20> H 	 -45.9364 	 27.3284 	 34.8724
| 21> H 	 -46.7469 	 25.7261 	 34.5515
| 22> H 	 -45.4736 	 26.3854 	 33.4457
| 23> S 	 -49.1062 	 20.8242 	 30.6143
| 24> C 	 -48.1969 	 19.6935 	 29.7332
| 25> C 	 -46.8719 	 19.987 	 29.7531
| 26> C 	 -46.5145 	 21.1639 	 30.4627
| 27> C 	 -47.6657 	 21.773 	 30.9643
| 28> H 	 -46.1556 	 19.269 	 29.3537
| 29> C 	 -45.1339 	 21.7746 	 30.6664
| 30> H 	 -45.0512 	 22.4436 	 31.491
| 31> H 	 -44.8641 	 22.2926 	 29.7725
| 32> C 	 -44.0095 	 20.842 	 30.9937
| 33> H 	 -43.7562 	 20.2555 	 30.0996
| 34> H 	 -44.406 	 20.1538 	 31.6741
| 35> C 	 -42.7289 	 21.5701 	 31.2715
| 36> H 	 -42.2928 	 22.1425 	 30.487
| 37> H 	 -41.9006 	 20.9452 	 31.5123
| 38> H 	 -42.9629 	 22.194 	 32.2112
| 39> H 	 -49.2369 	 25.4113 	 33.886
| 40> H 	 -48.6323 	 18.8289 	 29.1956
| 41> *
| 42>
| 43>                          ****END OF INPUT****

CARTESIAN COORDINATES (ANGSTROEM)
---------------------------------
  S    -49.087600   23.015300   33.020300
  C    -48.961100   24.784000   33.121300
  C    -48.223400   25.287300   32.078600
  C    -47.585700   24.259900   31.368800
  C    -47.942200   23.007300   31.705700
  H    -46.730900   24.460300   30.767300
  C    -47.791000   26.742800   32.024300
  H    -48.626000   27.279000   31.769900
  H    -47.154600   26.922200   31.185700
  C    -47.339000   27.454400   33.338000
  H    -46.936300   28.453300   33.128500
  H    -48.159800   27.702200   34.007600
  C    -46.313100   26.651500   34.112000
  H    -45.936400   27.328400   34.872400
  H    -46.746900   25.726100   34.551500
  H    -45.473600   26.385400   33.445700
  S    -49.106200   20.824200   30.614300
  C    -48.196900   19.693500   29.733200
  C    -46.871900   19.987000   29.753100
  C    -46.514500   21.163900   30.462700
  C    -47.665700   21.773000   30.964300
  H    -46.155600   19.269000   29.353700
  C    -45.133900   21.774600   30.666400
  H    -45.051200   22.443600   31.491000
  H    -44.864100   22.292600   29.772500
  C    -44.009500   20.842000   30.993700
  H    -43.756200   20.255500   30.099600
  H    -44.406000   20.153800   31.674100
  C    -42.728900   21.570100   31.271500
  H    -42.292800   22.142500   30.487000
  H    -41.900600   20.945200   31.512300
  H    -42.962900   22.194000   32.211200
  H    -49.236900   25.411300   33.886000
  H    -48.632300   18.828900   29.195600

 Total Charge           Charge          ....    0
 Multiplicity           Mult            ....    1
 Number of Electrons    NEL             ....  134
 Basis Dimension        Dim             ....  322

ORBITAL ENERGIES
----------------

  NO   OCC          E(Eh)            E(eV)
   0   2.0000     -88.967134     -2420.9188
   1   2.0000     -88.962621     -2420.7960
   2   2.0000     -10.325464      -280.9702
   3   2.0000     -10.324557      -280.9455
   4   2.0000     -10.311253      -280.5835
   5   2.0000     -10.307376      -280.4780
   6   2.0000     -10.303402      -280.3698
   7   2.0000     -10.295417      -280.1525
   8   2.0000     -10.290046      -280.0064
   9   2.0000     -10.289703      -279.9970
  10   2.0000     -10.283986      -279.8415
  11   2.0000     -10.283571      -279.8302
  12   2.0000     -10.283533      -279.8291
  13   2.0000     -10.279634      -279.7231
  14   2.0000     -10.276482      -279.6373
  15   2.0000     -10.275858      -279.6203
  16   2.0000      -8.081430      -219.9069
  17   2.0000      -8.078398      -219.8244
  18   2.0000      -6.040006      -164.3569
  19   2.0000      -6.036772      -164.2689
  20   2.0000      -6.036011      -164.2482
  21   2.0000      -6.032691      -164.1579
  22   2.0000      -6.032142      -164.1429
  23   2.0000      -6.029300      -164.0656
  24   2.0000      -1.012115       -27.5410
  25   2.0000      -0.989847       -26.9351
  26   2.0000      -0.922458       -25.1014
  27   2.0000      -0.913722       -24.8636
  28   2.0000      -0.868537       -23.6341
  29   2.0000      -0.856979       -23.3196
  30   2.0000      -0.846841       -23.0437
  31   2.0000      -0.816869       -22.2281
  32   2.0000      -0.789262       -21.4769
  33   2.0000      -0.778707       -21.1897
  34   2.0000      -0.706966       -19.2375
  35   2.0000      -0.704627       -19.1739
  36   2.0000      -0.696982       -18.9658
  37   2.0000      -0.654018       -17.7967
  38   2.0000      -0.638695       -17.3798
  39   2.0000      -0.622412       -16.9367
  40   2.0000      -0.605842       -16.4858
  41   2.0000      -0.581753       -15.8303
  42   2.0000      -0.574142       -15.6232
  43   2.0000      -0.554311       -15.0836
  44   2.0000      -0.541541       -14.7361
  45   2.0000      -0.526898       -14.3376
  46   2.0000      -0.518193       -14.1008
  47   2.0000      -0.514637       -14.0040
  48   2.0000      -0.508719       -13.8429
  49   2.0000      -0.499957       -13.6045
  50   2.0000      -0.493584       -13.4311
  51   2.0000      -0.476587       -12.9686
  52   2.0000      -0.471479       -12.8296
  53   2.0000      -0.470337       -12.7985
  54   2.0000      -0.464261       -12.6332
  55   2.0000      -0.451187       -12.2774
  56   2.0000      -0.445462       -12.1216
  57   2.0000      -0.435896       -11.8613
  58   2.0000      -0.431958       -11.7542
  59   2.0000      -0.425158       -11.5691
  60   2.0000      -0.421130       -11.4595
  61   2.0000      -0.416207       -11.3256
  62   2.0000      -0.407050       -11.0764
  63   2.0000      -0.349028        -9.4975
  64   2.0000      -0.332947        -9.0600
  65   2.0000      -0.331983        -9.0337
  66   2.0000      -0.287605        -7.8261
  67   0.0000       0.033765         0.9188
  68   0.0000       0.067868         1.8468
  69   0.0000       0.110710         3.0126
  70   0.0000       0.128854         3.5063
  71   0.0000       0.138029         3.7560

MULLIKEN ATOMIC CHARGES
-----------------------
   0 S :    0.108746
   1 C :   -0.090700
   2 C :   -0.093384
   3 C :    0.025721
   4 C :   -0.134669
   5 H :    0.004540
   6 C :    0.132922
   7 H :    0.007317
   8 H :    0.010570
   9 C :   -0.107755
  10 H :    0.027642
  11 H :    0.024068
  12 C :   -0.043055
  13 H :    0.031032
  14 H :    0.046537
  15 H :    0.029650
  16 S :    0.106702
  17 C :   -0.096652
  18 C :   -0.044953
  19 C :   -0.015861
  20 C :   -0.166023
  21 H :    0.017398
  22 C :    0.092063
  23 H :    0.010306
  24 H :    0.025633
  25 C :   -0.078476
  26 H :    0.015396
  27 H :    0.024752
  28 C :   -0.037520
  29 H :    0.028893
  30 H :    0.024432
  31 H :    0.035339
  32 H :    0.011761
  33 H :    0.067625
Sum of atomic charges:    0.0000000

LOEWDIN ATOMIC CHARGES
----------------------
   0 S :    0.396756
   1 C :   -0.172706
   2 C :   -0.056714
   3 C :   -0.063122
   4 C :   -0.194081
   5 H :    0.027804
   6 C :   -0.028124
   7 H :    0.026662
   8 H :    0.027223
   9 C :   -0.042201
  10 H :    0.028313
  11 H :    0.020653
  12 C :   -0.068417
  13 H :    0.024788
  14 H :    0.029308
  15 H :    0.025903
  16 S :    0.421476
  17 C :   -0.208077
  18 C :   -0.078760
  19 C :   -0.057666
  20 C :   -0.184979
  21 H :    0.032054
  22 C :   -0.026060
  23 H :    0.025356
  24 H :    0.028852
  25 C :   -0.042730
  26 H :    0.020895
  27 H :    0.019326
  28 C :   -0.063072
  29 H :    0.024854
  30 H :    0.024702
  31 H :    0.032763
  32 H :    0.010558
  33 H :    0.038461

  Mayer bond orders larger than 0.100000
B(  0-S ,  1-C ) :   1.1284 B(  0-S ,  4-C ) :   1.1411 B(  1-C ,  2-C ) :   1.6138
B(  1-C , 32-H ) :   0.9764 B(  2-C ,  3-C ) :   1.2510 B(  2-C ,  6-C ) :   1.0273
B(  3-C ,  4-C ) :   1.5856 B(  3-C ,  5-H ) :   0.9962 B(  4-C , 20-C ) :   1.0189
B(  6-C ,  7-H ) :   0.9154 B(  6-C ,  8-H ) :   0.9423 B(  6-C ,  9-C ) :   1.0724
B(  9-C , 10-H ) :   0.9519 B(  9-C , 11-H ) :   0.9507 B(  9-C , 12-C ) :   1.0883
B( 12-C , 13-H ) :   0.9732 B( 12-C , 14-H ) :   0.9694 B( 12-C , 15-H ) :   0.9765
B( 16-S , 17-C ) :   1.1601 B( 16-S , 20-C ) :   1.1575 B( 17-C , 18-C ) :   1.6038
B( 17-C , 33-H ) :   0.9624 B( 18-C , 19-C ) :   1.2466 B( 18-C , 21-H ) :   0.9900
B( 19-C , 20-C ) :   1.5918 B( 19-C , 22-C ) :   1.0374 B( 22-C , 23-H ) :   0.9395
B( 22-C , 24-H ) :   0.9260 B( 22-C , 25-C ) :   1.0655 B( 25-C , 26-H ) :   0.9403
B( 25-C , 27-H ) :   0.9636 B( 25-C , 28-C ) :   1.0922 B( 28-C , 29-H ) :   0.9702
B( 28-C , 30-H ) :   0.9697 B( 28-C , 31-H ) :   0.9717

Dispersion correction           -0.014119126
FINAL SINGLE POINT ENERGY     -1339.859612706913

DIPOLE MOMENT
-------------
                                X             Y             Z
Electronic contribution:    -24.58542     -14.28922      -3.82285
Nuclear contribution   :     25.21815      14.65729       3.71605
                        -----------------------------------------
Total Dipole Moment    :      0.63274       0.36807      -0.10679
                        -----------------------------------------
Magnitude (a.u.)       :      0.73975
Magnitude (Debye)      :      1.88031

Rotational constants in cm-1:     0.018035     0.009016     0.006561
Rotational constants in MHz :   540.682101   270.278775   196.690127

                             ****ORCA TERMINATED NORMALLY****
TOTAL RUN TIME: 0 days 0 hours 0 minutes 22 seconds 922 msec
