                         Program Version 4.2.1 -  RELEASE  -
|  1> ! wB97X-D3 SP def2-SVP
|  2> %pal
|  3> nprocs 24
|  4> end
|  5>
|  6> * xyz 0 1
|  7> S 	 -57.4759 	 8.57669 	 -87.3608
|  8> C 	 -56.7648 	 9.7665 	 -88.3664
|  9> C 	 -57.2564 	 11.0099 	 -88.0197
| 10> C 	 -58.0309 	 11.1515 	 -86.8044
| 11> C 	 -58.3664 	 9.86891 	 -86.3359
| 12> H 	 -58.4354 	 11.9917 	 -86.3158
| 13> C 	 -57.091 	 12.2099 	 -88.9573
| 14> H 	 -57.5831 	 13.1045 	 -88.5656
| 15> H 	 -57.5788 	 12.0484 	 -89.8997
| 16> C 	 -55.6799 	 12.665 	 -89.2841
| 17> H 	 -55.1333 	 11.8327 	 -89.6304
| 18> H 	 -55.8064 	 13.3586 	 -90.1328
| 19> C 	 -54.9818 	 13.1919 	 -88.0214
| 20> H 	 -54.795 	 12.5292 	 -87.2351
| 21> H 	 -53.9577 	 13.5054 	 -88.2692
| 22> H 	 -55.3024 	 14.1434 	 -87.674
| 23> S 	 -58.9975 	 10.3638 	 -83.6139
| 24> C 	 -60.0293 	 9.25578 	 -82.797
| 25> C 	 -60.4796 	 8.22372 	 -83.6485
| 26> C 	 -60.0559 	 8.3742 	 -85.0012
| 27> C 	 -59.2933 	 9.53953 	 -85.2013
| 28> H 	 -61.0789 	 7.46607 	 -83.1158
| 29> C 	 -60.4979 	 7.37141 	 -86.1164
| 30> H 	 -60.8128 	 6.34839 	 -85.746
| 31> H 	 -59.6999 	 7.2587 	 -86.8488
| 32> C 	 -61.7525 	 7.82444 	 -86.9627
| 33> H 	 -61.8374 	 7.18044 	 -87.8455
| 34> H 	 -61.4869 	 8.79695 	 -87.3477
| 35> C 	 -63.0522 	 7.82491 	 -86.179
| 36> H 	 -63.8472 	 8.42132 	 -86.7164
| 37> H 	 -62.8637 	 8.40606 	 -85.2854
| 38> H 	 -63.4264 	 6.85078 	 -85.8709
| 39> H 	 -56.2942 	 9.57119 	 -89.3255
| 40> H 	 -60.1002 	 9.20231 	 -81.7338
| 41> *
| 42>
| 43>                          ****END OF INPUT****

CARTESIAN COORDINATES (ANGSTROEM)
---------------------------------
  S    -57.475900    8.576690  -87.360800
  C    -56.764800    9.766500  -88.366400
  C    -57.256400   11.009900  -88.019700
  C    -58.030900   11.151500  -86.804400
  C    -58.366400    9.868910  -86.335900
  H    -58.435400   11.991700  -86.315800
  C    -57.091000   12.209900  -88.957300
  H    -57.583100   13.104500  -88.565600
  H    -57.578800   12.048400  -89.899700
  C    -55.679900   12.665000  -89.284100
  H    -55.133300   11.832700  -89.630400
  H    -55.806400   13.358600  -90.132800
  C    -54.981800   13.191900  -88.021400
  H    -54.795000   12.529200  -87.235100
  H    -53.957700   13.505400  -88.269200
  H    -55.302400   14.143400  -87.674000
  S    -58.997500   10.363800  -83.613900
  C    -60.029300    9.255780  -82.797000
  C    -60.479600    8.223720  -83.648500
  C    -60.055900    8.374200  -85.001200
  C    -59.293300    9.539530  -85.201300
  H    -61.078900    7.466070  -83.115800
  C    -60.497900    7.371410  -86.116400
  H    -60.812800    6.348390  -85.746000
  H    -59.699900    7.258700  -86.848800
  C    -61.752500    7.824440  -86.962700
  H    -61.837400    7.180440  -87.845500
  H    -61.486900    8.796950  -87.347700
  C    -63.052200    7.824910  -86.179000
  H    -63.847200    8.421320  -86.716400
  H    -62.863700    8.406060  -85.285400
  H    -63.426400    6.850780  -85.870900
  H    -56.294200    9.571190  -89.325500
  H    -60.100200    9.202310  -81.733800

 Total Charge           Charge          ....    0
 Multiplicity           Mult            ....    1
 Number of Electrons    NEL             ....  134
 Basis Dimension        Dim             ....  322

ORBITAL ENERGIES
----------------

  NO   OCC          E(Eh)            E(eV)
   0   2.0000     -88.972261     -2421.0583
   1   2.0000     -88.968007     -2420.9425
   2   2.0000     -10.346376      -281.5392
   3   2.0000     -10.338520      -281.3254
   4   2.0000     -10.321134      -280.8523
   5   2.0000     -10.317342      -280.7492
   6   2.0000     -10.312213      -280.6096
   7   2.0000     -10.304187      -280.3912
   8   2.0000     -10.302377      -280.3419
   9   2.0000     -10.300935      -280.3027
  10   2.0000     -10.299515      -280.2641
  11   2.0000     -10.282921      -279.8125
  12   2.0000     -10.282439      -279.7994
  13   2.0000     -10.282198      -279.7928
  14   2.0000     -10.274803      -279.5916
  15   2.0000     -10.266474      -279.3650
  16   2.0000      -8.086346      -220.0406
  17   2.0000      -8.080992      -219.8950
  18   2.0000      -6.044738      -164.4857
  19   2.0000      -6.040919      -164.3818
  20   2.0000      -6.039700      -164.3486
  21   2.0000      -6.037286      -164.2829
  22   2.0000      -6.035770      -164.2416
  23   2.0000      -6.031593      -164.1280
  24   2.0000      -0.996795       -27.1242
  25   2.0000      -0.979120       -26.6432
  26   2.0000      -0.908619       -24.7248
  27   2.0000      -0.901300       -24.5256
  28   2.0000      -0.867381       -23.6026
  29   2.0000      -0.849685       -23.1211
  30   2.0000      -0.841823       -22.9072
  31   2.0000      -0.811998       -22.0956
  32   2.0000      -0.781084       -21.2544
  33   2.0000      -0.772021       -21.0078
  34   2.0000      -0.705661       -19.2020
  35   2.0000      -0.701719       -19.0947
  36   2.0000      -0.685186       -18.6449
  37   2.0000      -0.661255       -17.9937
  38   2.0000      -0.642857       -17.4930
  39   2.0000      -0.609146       -16.5757
  40   2.0000      -0.589954       -16.0535
  41   2.0000      -0.576584       -15.6896
  42   2.0000      -0.552858       -15.0440
  43   2.0000      -0.546378       -14.8677
  44   2.0000      -0.543061       -14.7774
  45   2.0000      -0.534304       -14.5392
  46   2.0000      -0.521993       -14.2042
  47   2.0000      -0.510585       -13.8937
  48   2.0000      -0.498152       -13.5554
  49   2.0000      -0.495392       -13.4803
  50   2.0000      -0.483055       -13.1446
  51   2.0000      -0.477672       -12.9981
  52   2.0000      -0.474466       -12.9109
  53   2.0000      -0.466509       -12.6943
  54   2.0000      -0.462673       -12.5900
  55   2.0000      -0.443801       -12.0764
  56   2.0000      -0.440130       -11.9765
  57   2.0000      -0.430679       -11.7194
  58   2.0000      -0.428369       -11.6565
  59   2.0000      -0.418231       -11.3806
  60   2.0000      -0.416529       -11.3343
  61   2.0000      -0.413012       -11.2386
  62   2.0000      -0.410229       -11.1629
  63   2.0000      -0.355667        -9.6782
  64   2.0000      -0.336615        -9.1598
  65   2.0000      -0.326138        -8.8747
  66   2.0000      -0.285246        -7.7619
  67   0.0000       0.015209         0.4139
  68   0.0000       0.061328         1.6688
  69   0.0000       0.095903         2.6096
  70   0.0000       0.108081         2.9410
  71   0.0000       0.129099         3.5130

MULLIKEN ATOMIC CHARGES
-----------------------
   0 S :    0.087868
   1 C :   -0.106716
   2 C :   -0.093633
   3 C :    0.045365
   4 C :   -0.126434
   5 H :    0.009843
   6 C :    0.048058
   7 H :    0.009805
   8 H :    0.026637
   9 C :   -0.047203
  10 H :    0.011029
  11 H :    0.030230
  12 C :   -0.023658
  13 H :    0.035606
  14 H :    0.009571
  15 H :    0.012669
  16 S :    0.103464
  17 C :   -0.097215
  18 C :   -0.053008
  19 C :   -0.036621
  20 C :   -0.134662
  21 H :    0.034638
  22 C :    0.028936
  23 H :    0.034494
  24 H :    0.029860
  25 C :   -0.060961
  26 H :    0.030787
  27 H :    0.024589
  28 C :   -0.055061
  29 H :    0.041626
  30 H :    0.027911
  31 H :    0.030874
  32 H :    0.062919
  33 H :    0.058392
Sum of atomic charges:   -0.0000000

LOEWDIN ATOMIC CHARGES
----------------------
   0 S :    0.382271
   1 C :   -0.217356
   2 C :   -0.058935
   3 C :   -0.052914
   4 C :   -0.147050
   5 H :    0.029002
   6 C :   -0.036323
   7 H :    0.025727
   8 H :    0.026557
   9 C :   -0.033398
  10 H :    0.013949
  11 H :    0.029163
  12 C :   -0.065912
  13 H :    0.023107
  14 H :    0.028801
  15 H :    0.020089
  16 S :    0.405659
  17 C :   -0.189435
  18 C :   -0.076517
  19 C :   -0.049449
  20 C :   -0.190982
  21 H :    0.038911
  22 C :   -0.033935
  23 H :    0.034544
  24 H :    0.016289
  25 C :   -0.036754
  26 H :    0.023167
  27 H :    0.022017
  28 C :   -0.072876
  29 H :    0.034616
  30 H :    0.024758
  31 H :    0.022312
  32 H :    0.034402
  33 H :    0.026494

  Mayer bond orders larger than 0.100000
B(  0-S ,  1-C ) :   1.1256 B(  0-S ,  4-C ) :   1.1211 B(  1-C ,  2-C ) :   1.6295
B(  1-C , 32-H ) :   0.9626 B(  2-C ,  3-C ) :   1.2087 B(  2-C ,  6-C ) :   1.0171
B(  3-C ,  4-C ) :   1.5718 B(  3-C ,  5-H ) :   1.0005 B(  4-C , 20-C ) :   1.0636
B(  6-C ,  7-H ) :   0.9474 B(  6-C ,  8-H ) :   0.9427 B(  6-C ,  9-C ) :   1.0824
B(  9-C , 10-H ) :   0.9547 B(  9-C , 11-H ) :   0.9554 B(  9-C , 12-C ) :   1.0780
B( 12-C , 13-H ) :   0.9753 B( 12-C , 14-H ) :   0.9667 B( 12-C , 15-H ) :   0.9733
B( 16-S , 17-C ) :   1.1815 B( 16-S , 20-C ) :   1.1296 B( 17-C , 18-C ) :   1.5873
B( 17-C , 20-C ) :   0.1013 B( 17-C , 33-H ) :   0.9661 B( 18-C , 19-C ) :   1.2520
B( 18-C , 21-H ) :   0.9907 B( 19-C , 20-C ) :   1.5582 B( 19-C , 22-C ) :   1.0308
B( 22-C , 23-H ) :   0.9473 B( 22-C , 24-H ) :   0.9315 B( 22-C , 25-C ) :   1.0675
B( 25-C , 26-H ) :   0.9571 B( 25-C , 27-H ) :   0.9553 B( 25-C , 28-C ) :   1.0774
B( 28-C , 29-H ) :   0.9716 B( 28-C , 30-H ) :   0.9734 B( 28-C , 31-H ) :   0.9746

Dispersion correction           -0.014462334
FINAL SINGLE POINT ENERGY     -1339.857971424695

DIPOLE MOMENT
-------------
                                X             Y             Z
Electronic contribution:      3.60870      -5.38853      12.90666
Nuclear contribution   :     -3.78075       5.45868     -13.05146
                        -----------------------------------------
Total Dipole Moment    :     -0.17205       0.07015      -0.14480
                        -----------------------------------------
Magnitude (a.u.)       :      0.23556
Magnitude (Debye)      :      0.59875

Rotational constants in cm-1:     0.022788     0.007599     0.006482
Rotational constants in MHz :   683.158214   227.802226   194.321365

                             ****ORCA TERMINATED NORMALLY****
TOTAL RUN TIME: 0 days 0 hours 0 minutes 20 seconds 41 msec
