                         Program Version 4.2.1 -  RELEASE  -
|  1> ! wB97X-D3 SP def2-SVP
|  2> %pal
|  3> nprocs 24
|  4> end
|  5>
|  6> * xyz 0 1
|  7> S 	 -45.2588 	 22.7497 	 30.4492
|  8> C 	 -43.933 	 21.673 	 30.0995
|  9> C 	 -43.5825 	 20.9105 	 31.1074
| 10> C 	 -44.2259 	 21.2959 	 32.3334
| 11> C 	 -45.2176 	 22.2447 	 32.1695
| 12> H 	 -44.0247 	 20.9122 	 33.3247
| 13> C 	 -42.4634 	 19.8744 	 31.2176
| 14> H 	 -42.1726 	 19.5846 	 32.2536
| 15> H 	 -41.6073 	 20.3555 	 30.7426
| 16> C 	 -42.8769 	 18.6845 	 30.3378
| 17> H 	 -43.7365 	 18.2036 	 30.8477
| 18> H 	 -42.975 	 19.0699 	 29.3075
| 19> C 	 -41.7939 	 17.5683 	 30.2325
| 20> H 	 -41.7233 	 17.0479 	 31.215
| 21> H 	 -41.9948 	 16.7894 	 29.5091
| 22> H 	 -40.8109 	 18.0469 	 30.0888
| 23> S 	 -47.349 	 21.5465 	 33.8801
| 24> C 	 -47.8367 	 22.7011 	 35.1329
| 25> C 	 -47.3831 	 23.9687 	 34.7847
| 26> C 	 -46.4082 	 24.0067 	 33.7126
| 27> C 	 -46.1916 	 22.7337 	 33.1868
| 28> H 	 -47.8066 	 24.7809 	 35.2888
| 29> C 	 -45.6769 	 25.2586 	 33.2159
| 30> H 	 -46.3577 	 25.9916 	 32.8066
| 31> H 	 -45.0536 	 25.0288 	 32.2894
| 32> C 	 -44.8635 	 25.9565 	 34.3394
| 33> H 	 -45.6229 	 26.0322 	 35.1491
| 34> H 	 -44.5179 	 26.9407 	 34.1169
| 35> C 	 -43.7099 	 25.1704 	 34.9948
| 36> H 	 -44.0822 	 24.1963 	 35.324
| 37> H 	 -43.3121 	 25.6185 	 35.8013
| 38> H 	 -42.8027 	 24.8307 	 34.3338
| 39> H 	 -43.3529 	 21.6461 	 29.2219
| 40> H 	 -48.6104 	 22.4241 	 35.8794
| 41> *
| 42>
| 43>                          ****END OF INPUT****

CARTESIAN COORDINATES (ANGSTROEM)
---------------------------------
  S    -45.258800   22.749700   30.449200
  C    -43.933000   21.673000   30.099500
  C    -43.582500   20.910500   31.107400
  C    -44.225900   21.295900   32.333400
  C    -45.217600   22.244700   32.169500
  H    -44.024700   20.912200   33.324700
  C    -42.463400   19.874400   31.217600
  H    -42.172600   19.584600   32.253600
  H    -41.607300   20.355500   30.742600
  C    -42.876900   18.684500   30.337800
  H    -43.736500   18.203600   30.847700
  H    -42.975000   19.069900   29.307500
  C    -41.793900   17.568300   30.232500
  H    -41.723300   17.047900   31.215000
  H    -41.994800   16.789400   29.509100
  H    -40.810900   18.046900   30.088800
  S    -47.349000   21.546500   33.880100
  C    -47.836700   22.701100   35.132900
  C    -47.383100   23.968700   34.784700
  C    -46.408200   24.006700   33.712600
  C    -46.191600   22.733700   33.186800
  H    -47.806600   24.780900   35.288800
  C    -45.676900   25.258600   33.215900
  H    -46.357700   25.991600   32.806600
  H    -45.053600   25.028800   32.289400
  C    -44.863500   25.956500   34.339400
  H    -45.622900   26.032200   35.149100
  H    -44.517900   26.940700   34.116900
  C    -43.709900   25.170400   34.994800
  H    -44.082200   24.196300   35.324000
  H    -43.312100   25.618500   35.801300
  H    -42.802700   24.830700   34.333800
  H    -43.352900   21.646100   29.221900
  H    -48.610400   22.424100   35.879400

 Total Charge           Charge          ....    0
 Multiplicity           Mult            ....    1
 Number of Electrons    NEL             ....  134
 Basis Dimension        Dim             ....  322

ORBITAL ENERGIES
----------------

  NO   OCC          E(Eh)            E(eV)
   0   2.0000     -88.965210     -2420.8664
   1   2.0000     -88.963849     -2420.8294
   2   2.0000     -10.333365      -281.1851
   3   2.0000     -10.332473      -281.1609
   4   2.0000     -10.326371      -280.9948
   5   2.0000     -10.311912      -280.6014
   6   2.0000     -10.304811      -280.4082
   7   2.0000     -10.297809      -280.2176
   8   2.0000     -10.297621      -280.2125
   9   2.0000     -10.296407      -280.1795
  10   2.0000     -10.293497      -280.1003
  11   2.0000     -10.293152      -280.0909
  12   2.0000     -10.291486      -280.0456
  13   2.0000     -10.287429      -279.9352
  14   2.0000     -10.279633      -279.7230
  15   2.0000     -10.269890      -279.4579
  16   2.0000      -8.079261      -219.8479
  17   2.0000      -8.077758      -219.8070
  18   2.0000      -6.037955      -164.3011
  19   2.0000      -6.036318      -164.2566
  20   2.0000      -6.033942      -164.1919
  21   2.0000      -6.032485      -164.1523
  22   2.0000      -6.029782      -164.0787
  23   2.0000      -6.028392      -164.0409
  24   2.0000      -1.001881       -27.2626
  25   2.0000      -0.981599       -26.7107
  26   2.0000      -0.910430       -24.7741
  27   2.0000      -0.901414       -24.5287
  28   2.0000      -0.866698       -23.5841
  29   2.0000      -0.845375       -23.0038
  30   2.0000      -0.840731       -22.8775
  31   2.0000      -0.814304       -22.1583
  32   2.0000      -0.782388       -21.2899
  33   2.0000      -0.774266       -21.0689
  34   2.0000      -0.705980       -19.2107
  35   2.0000      -0.693780       -18.8787
  36   2.0000      -0.690535       -18.7904
  37   2.0000      -0.657594       -17.8940
  38   2.0000      -0.641028       -17.4432
  39   2.0000      -0.614706       -16.7270
  40   2.0000      -0.596459       -16.2305
  41   2.0000      -0.577531       -15.7154
  42   2.0000      -0.562759       -15.3134
  43   2.0000      -0.552237       -15.0271
  44   2.0000      -0.538180       -14.6446
  45   2.0000      -0.520334       -14.1590
  46   2.0000      -0.516605       -14.0575
  47   2.0000      -0.506981       -13.7957
  48   2.0000      -0.504777       -13.7357
  49   2.0000      -0.498101       -13.5540
  50   2.0000      -0.487485       -13.2651
  51   2.0000      -0.479283       -13.0419
  52   2.0000      -0.471220       -12.8225
  53   2.0000      -0.463748       -12.6192
  54   2.0000      -0.454505       -12.3677
  55   2.0000      -0.445654       -12.1269
  56   2.0000      -0.440918       -11.9980
  57   2.0000      -0.434378       -11.8200
  58   2.0000      -0.428595       -11.6627
  59   2.0000      -0.425357       -11.5745
  60   2.0000      -0.417609       -11.3637
  61   2.0000      -0.412877       -11.2349
  62   2.0000      -0.406824       -11.0702
  63   2.0000      -0.335892        -9.1401
  64   2.0000      -0.331048        -9.0083
  65   2.0000      -0.326469        -8.8837
  66   2.0000      -0.306342        -8.3360
  67   0.0000       0.029763         0.8099
  68   0.0000       0.066131         1.7995
  69   0.0000       0.099293         2.7019
  70   0.0000       0.118385         3.2214
  71   0.0000       0.129002         3.5103

MULLIKEN ATOMIC CHARGES
-----------------------
   0 S :    0.106388
   1 C :   -0.099456
   2 C :   -0.068174
   3 C :    0.029680
   4 C :   -0.161563
   5 H :    0.010916
   6 C :    0.066202
   7 H :    0.034973
   8 H :    0.024484
   9 C :   -0.115124
  10 H :    0.046118
  11 H :    0.041454
  12 C :   -0.041437
  13 H :    0.023354
  14 H :    0.042848
  15 H :    0.023879
  16 S :    0.098857
  17 C :   -0.117819
  18 C :   -0.017712
  19 C :   -0.015423
  20 C :   -0.173247
  21 H :    0.008400
  22 C :    0.077070
  23 H :    0.033517
  24 H :    0.032853
  25 C :   -0.078209
  26 H :    0.025637
  27 H :    0.027595
  28 C :   -0.037296
  29 H :    0.025259
  30 H :    0.009704
  31 H :    0.035272
  32 H :    0.021288
  33 H :    0.079712
Sum of atomic charges:   -0.0000000

LOEWDIN ATOMIC CHARGES
----------------------
   0 S :    0.386905
   1 C :   -0.186482
   2 C :   -0.065912
   3 C :   -0.052401
   4 C :   -0.181960
   5 H :    0.031011
   6 C :   -0.027530
   7 H :    0.032256
   8 H :    0.028820
   9 C :   -0.040673
  10 H :    0.031551
  11 H :    0.027677
  12 C :   -0.073714
  13 H :    0.024831
  14 H :    0.024670
  15 H :    0.022750
  16 S :    0.376294
  17 C :   -0.177691
  18 C :   -0.066892
  19 C :   -0.049760
  20 C :   -0.184636
  21 H :    0.022207
  22 C :   -0.034713
  23 H :    0.033610
  24 H :    0.030960
  25 C :   -0.037729
  26 H :    0.027857
  27 H :    0.018794
  28 C :   -0.066318
  29 H :    0.025538
  30 H :    0.006494
  31 H :    0.034079
  32 H :    0.021910
  33 H :    0.038195

  Mayer bond orders larger than 0.100000
B(  0-S ,  1-C ) :   1.1197 B(  0-S ,  4-C ) :   1.1197 B(  1-C ,  2-C ) :   1.6801
B(  1-C , 32-H ) :   0.9583 B(  2-C ,  3-C ) :   1.2019 B(  2-C ,  6-C ) :   1.0052
B(  3-C ,  4-C ) :   1.6211 B(  3-C ,  5-H ) :   0.9984 B(  4-C , 20-C ) :   1.0228
B(  6-C ,  7-H ) :   0.9524 B(  6-C ,  8-H ) :   0.9357 B(  6-C ,  9-C ) :   1.0565
B(  9-C , 10-H ) :   0.9599 B(  9-C , 11-H ) :   0.9594 B(  9-C , 12-C ) :   1.0805
B( 12-C , 13-H ) :   0.9742 B( 12-C , 14-H ) :   0.9767 B( 12-C , 15-H ) :   0.9732
B( 16-S , 17-C ) :   1.1474 B( 16-S , 20-C ) :   1.1395 B( 17-C , 18-C ) :   1.6135
B( 17-C , 33-H ) :   0.9642 B( 18-C , 19-C ) :   1.2126 B( 18-C , 21-H ) :   0.9946
B( 19-C , 20-C ) :   1.5973 B( 19-C , 22-C ) :   1.0392 B( 22-C , 23-H ) :   0.9367
B( 22-C , 24-H ) :   0.9324 B( 22-C , 25-C ) :   1.0583 B( 25-C , 26-H ) :   0.9562
B( 25-C , 27-H ) :   0.9601 B( 25-C , 28-C ) :   1.0742 B( 28-C , 29-H ) :   0.9717
B( 28-C , 30-H ) :   0.9747 B( 28-C , 31-H ) :   0.9738

Dispersion correction           -0.014339689
FINAL SINGLE POINT ENERGY     -1339.862827500226

DIPOLE MOMENT
-------------
                                X             Y             Z
Electronic contribution:    -19.21196       2.66109      -1.93018
Nuclear contribution   :     19.51476      -2.60792       2.13550
                        -----------------------------------------
Total Dipole Moment    :      0.30280       0.05317       0.20531
                        -----------------------------------------
Magnitude (a.u.)       :      0.36969
Magnitude (Debye)      :      0.93967

Rotational constants in cm-1:     0.022081     0.007263     0.006583
Rotational constants in MHz :   661.958579   217.727528   197.356019

                             ****ORCA TERMINATED NORMALLY****
TOTAL RUN TIME: 0 days 0 hours 0 minutes 21 seconds 267 msec
