                         Program Version 4.2.1 -  RELEASE  -
|  1> ! wB97X-D3 SP def2-SVP
|  2> %pal
|  3> nprocs 24
|  4> end
|  5>
|  6> * xyz 0 1
|  7> S 	 -81.5223 	 -19.2927 	 -45.366
|  8> C 	 -81.8554 	 -17.5584 	 -45.1235
|  9> C 	 -80.7617 	 -16.7971 	 -45.6221
| 10> C 	 -79.7441 	 -17.6288 	 -46.2223
| 11> C 	 -79.959 	 -19.002 	 -46.0884
| 12> H 	 -78.8684 	 -17.2802 	 -46.6453
| 13> C 	 -80.7022 	 -15.2918 	 -45.6429
| 14> H 	 -81.684 	 -14.9209 	 -45.3846
| 15> H 	 -80.5228 	 -15.0508 	 -46.701
| 16> C 	 -79.6485 	 -14.6308 	 -44.6977
| 17> H 	 -78.6001 	 -14.7533 	 -44.8961
| 18> H 	 -79.7726 	 -13.5173 	 -44.6461
| 19> C 	 -79.9454 	 -15.028 	 -43.1929
| 20> H 	 -81.0301 	 -15.0297 	 -43.0586
| 21> H 	 -79.4647 	 -16.0315 	 -42.9268
| 22> H 	 -79.606 	 -14.3498 	 -42.4206
| 23> S 	 -78.4261 	 -21.0472 	 -45.1133
| 24> C 	 -77.6798 	 -22.1235 	 -46.2481
| 25> C 	 -77.7249 	 -21.6587 	 -47.5681
| 26> C 	 -78.6474 	 -20.652 	 -47.7386
| 27> C 	 -79.067 	 -20.1069 	 -46.4918
| 28> H 	 -77.0526 	 -22.1716 	 -48.2749
| 29> C 	 -78.9652 	 -20.197 	 -49.1401
| 30> H 	 -78.1876 	 -20.6198 	 -49.8784
| 31> H 	 -78.7857 	 -19.1461 	 -49.167
| 32> C 	 -80.402 	 -20.3532 	 -49.7013
| 33> H 	 -80.5601 	 -19.7895 	 -50.6366
| 34> H 	 -81.0544 	 -19.886 	 -48.9581
| 35> C 	 -80.8558 	 -21.7878 	 -49.8777
| 36> H 	 -81.8018 	 -21.9291 	 -50.4175
| 37> H 	 -80.9691 	 -22.1987 	 -48.8624
| 38> H 	 -80.1956 	 -22.3715 	 -50.4372
| 39> H 	 -82.7024 	 -17.2773 	 -44.5228
| 40> H 	 -76.9512 	 -22.856 	 -45.8718
| 41> *
| 42>
| 43>                          ****END OF INPUT****

CARTESIAN COORDINATES (ANGSTROEM)
---------------------------------
  S    -81.522300  -19.292700  -45.366000
  C    -81.855400  -17.558400  -45.123500
  C    -80.761700  -16.797100  -45.622100
  C    -79.744100  -17.628800  -46.222300
  C    -79.959000  -19.002000  -46.088400
  H    -78.868400  -17.280200  -46.645300
  C    -80.702200  -15.291800  -45.642900
  H    -81.684000  -14.920900  -45.384600
  H    -80.522800  -15.050800  -46.701000
  C    -79.648500  -14.630800  -44.697700
  H    -78.600100  -14.753300  -44.896100
  H    -79.772600  -13.517300  -44.646100
  C    -79.945400  -15.028000  -43.192900
  H    -81.030100  -15.029700  -43.058600
  H    -79.464700  -16.031500  -42.926800
  H    -79.606000  -14.349800  -42.420600
  S    -78.426100  -21.047200  -45.113300
  C    -77.679800  -22.123500  -46.248100
  C    -77.724900  -21.658700  -47.568100
  C    -78.647400  -20.652000  -47.738600
  C    -79.067000  -20.106900  -46.491800
  H    -77.052600  -22.171600  -48.274900
  C    -78.965200  -20.197000  -49.140100
  H    -78.187600  -20.619800  -49.878400
  H    -78.785700  -19.146100  -49.167000
  C    -80.402000  -20.353200  -49.701300
  H    -80.560100  -19.789500  -50.636600
  H    -81.054400  -19.886000  -48.958100
  C    -80.855800  -21.787800  -49.877700
  H    -81.801800  -21.929100  -50.417500
  H    -80.969100  -22.198700  -48.862400
  H    -80.195600  -22.371500  -50.437200
  H    -82.702400  -17.277300  -44.522800
  H    -76.951200  -22.856000  -45.871800

 Total Charge           Charge          ....    0
 Multiplicity           Mult            ....    1
 Number of Electrons    NEL             ....  134
 Basis Dimension        Dim             ....  322

ORBITAL ENERGIES
----------------

  NO   OCC          E(Eh)            E(eV)
   0   2.0000     -88.969505     -2420.9833
   1   2.0000     -88.963614     -2420.8230
   2   2.0000     -10.333245      -281.1819
   3   2.0000     -10.331784      -281.1421
   4   2.0000     -10.320346      -280.8309
   5   2.0000     -10.317185      -280.7449
   6   2.0000     -10.308911      -280.5197
   7   2.0000     -10.308781      -280.5162
   8   2.0000     -10.297837      -280.2184
   9   2.0000     -10.294951      -280.1399
  10   2.0000     -10.294898      -280.1384
  11   2.0000     -10.293837      -280.1095
  12   2.0000     -10.292001      -280.0596
  13   2.0000     -10.284403      -279.8528
  14   2.0000     -10.281047      -279.7615
  15   2.0000     -10.265951      -279.3507
  16   2.0000      -8.083903      -219.9742
  17   2.0000      -8.077899      -219.8108
  18   2.0000      -6.042102      -164.4140
  19   2.0000      -6.038490      -164.3157
  20   2.0000      -6.036373      -164.2581
  21   2.0000      -6.034974      -164.2200
  22   2.0000      -6.032316      -164.1477
  23   2.0000      -6.028875      -164.0540
  24   2.0000      -1.001601       -27.2549
  25   2.0000      -0.979111       -26.6430
  26   2.0000      -0.907382       -24.6911
  27   2.0000      -0.905149       -24.6304
  28   2.0000      -0.861514       -23.4430
  29   2.0000      -0.853091       -23.2138
  30   2.0000      -0.840976       -22.8841
  31   2.0000      -0.808831       -22.0094
  32   2.0000      -0.783268       -21.3138
  33   2.0000      -0.768244       -20.9050
  34   2.0000      -0.708698       -19.2846
  35   2.0000      -0.698969       -19.0199
  36   2.0000      -0.684143       -18.6165
  37   2.0000      -0.658205       -17.9107
  38   2.0000      -0.645789       -17.5728
  39   2.0000      -0.619802       -16.8657
  40   2.0000      -0.591712       -16.1013
  41   2.0000      -0.562079       -15.2950
  42   2.0000      -0.553184       -15.0529
  43   2.0000      -0.551108       -14.9964
  44   2.0000      -0.543445       -14.7879
  45   2.0000      -0.535177       -14.5629
  46   2.0000      -0.517848       -14.0914
  47   2.0000      -0.511160       -13.9094
  48   2.0000      -0.492627       -13.4051
  49   2.0000      -0.490937       -13.3591
  50   2.0000      -0.483401       -13.1540
  51   2.0000      -0.475042       -12.9265
  52   2.0000      -0.469519       -12.7763
  53   2.0000      -0.461777       -12.5656
  54   2.0000      -0.459968       -12.5164
  55   2.0000      -0.446165       -12.1408
  56   2.0000      -0.440906       -11.9977
  57   2.0000      -0.436078       -11.8663
  58   2.0000      -0.433454       -11.7949
  59   2.0000      -0.428658       -11.6644
  60   2.0000      -0.419208       -11.4072
  61   2.0000      -0.414558       -11.2807
  62   2.0000      -0.406488       -11.0611
  63   2.0000      -0.338096        -9.2001
  64   2.0000      -0.330116        -8.9829
  65   2.0000      -0.322985        -8.7889
  66   2.0000      -0.298346        -8.1184
  67   0.0000       0.029805         0.8110
  68   0.0000       0.053712         1.4616
  69   0.0000       0.107100         2.9143
  70   0.0000       0.115191         3.1345
  71   0.0000       0.132834         3.6146

MULLIKEN ATOMIC CHARGES
-----------------------
   0 S :    0.103390
   1 C :   -0.136344
   2 C :   -0.088594
   3 C :    0.078327
   4 C :   -0.159804
   5 H :   -0.019663
   6 C :    0.081799
   7 H :    0.018160
   8 H :    0.041674
   9 C :   -0.078632
  10 H :    0.035316
  11 H :    0.037050
  12 C :   -0.092394
  13 H :    0.021618
  14 H :    0.055109
  15 H :    0.031242
  16 S :    0.120602
  17 C :   -0.110925
  18 C :   -0.068256
  19 C :    0.020701
  20 C :   -0.196675
  21 H :    0.036297
  22 C :    0.053728
  23 H :    0.032208
  24 H :    0.021588
  25 C :   -0.071679
  26 H :    0.031262
  27 H :    0.034233
  28 C :   -0.035390
  29 H :    0.030358
  30 H :    0.041534
  31 H :    0.008686
  32 H :    0.058018
  33 H :    0.065458
Sum of atomic charges:    0.0000000

LOEWDIN ATOMIC CHARGES
----------------------
   0 S :    0.396024
   1 C :   -0.191275
   2 C :   -0.056392
   3 C :   -0.054559
   4 C :   -0.203918
   5 H :    0.017987
   6 C :   -0.029662
   7 H :    0.029397
   8 H :    0.037466
   9 C :   -0.042632
  10 H :    0.020176
  11 H :    0.030984
  12 C :   -0.074640
  13 H :    0.020920
  14 H :    0.034412
  15 H :    0.021558
  16 S :    0.415942
  17 C :   -0.193517
  18 C :   -0.075013
  19 C :   -0.051540
  20 C :   -0.197038
  21 H :    0.039970
  22 C :   -0.033073
  23 H :    0.036900
  24 H :    0.029903
  25 C :   -0.039781
  26 H :    0.025926
  27 H :    0.027273
  28 C :   -0.067510
  29 H :    0.028384
  30 H :    0.031934
  31 H :    0.012160
  32 H :    0.025414
  33 H :    0.027821

  Mayer bond orders larger than 0.100000
B(  0-S ,  1-C ) :   1.1430 B(  0-S ,  4-C ) :   1.1597 B(  1-C ,  2-C ) :   1.5721
B(  1-C ,  4-C ) :   0.1024 B(  1-C , 32-H ) :   0.9737 B(  2-C ,  3-C ) :   1.2398
B(  2-C ,  6-C ) :   1.0269 B(  3-C ,  4-C ) :   1.5707 B(  3-C ,  5-H ) :   1.0055
B(  4-C , 20-C ) :   1.0192 B(  6-C ,  7-H ) :   0.9433 B(  6-C ,  8-H ) :   0.9429
B(  6-C ,  9-C ) :   1.0614 B(  9-C , 10-H ) :   0.9645 B(  9-C , 11-H ) :   0.9613
B(  9-C , 12-C ) :   1.0552 B( 12-C , 13-H ) :   0.9783 B( 12-C , 14-H ) :   0.9753
B( 12-C , 15-H ) :   0.9789 B( 16-S , 17-C ) :   1.1842 B( 16-S , 20-C ) :   1.1676
B( 17-C , 18-C ) :   1.5811 B( 17-C , 20-C ) :   0.1218 B( 17-C , 33-H ) :   0.9596
B( 18-C , 19-C ) :   1.2665 B( 18-C , 21-H ) :   0.9855 B( 19-C , 20-C ) :   1.5404
B( 19-C , 22-C ) :   1.0300 B( 22-C , 23-H ) :   0.9424 B( 22-C , 24-H ) :   0.9272
B( 22-C , 25-C ) :   1.0714 B( 25-C , 26-H ) :   0.9552 B( 25-C , 27-H ) :   0.9559
B( 25-C , 28-C ) :   1.0778 B( 28-C , 29-H ) :   0.9730 B( 28-C , 30-H ) :   0.9753
B( 28-C , 31-H ) :   0.9754

Dispersion correction           -0.014727521
FINAL SINGLE POINT ENERGY     -1339.869959520219

DIPOLE MOMENT
-------------
                                X             Y             Z
Electronic contribution:      1.73546     -13.28631       9.16776
Nuclear contribution   :     -1.46809      13.69888      -9.43964
                        -----------------------------------------
Total Dipole Moment    :      0.26737       0.41257      -0.27188
                        -----------------------------------------
Magnitude (a.u.)       :      0.56180
Magnitude (Debye)      :      1.42799

Rotational constants in cm-1:     0.021388     0.007964     0.007058
Rotational constants in MHz :   641.186782   238.767617   211.591299

                             ****ORCA TERMINATED NORMALLY****
TOTAL RUN TIME: 0 days 0 hours 0 minutes 21 seconds 477 msec
