                         Program Version 4.2.1 -  RELEASE  -
|  1> ! wB97X-D3 SP def2-SVP
|  2> %pal
|  3> nprocs 24
|  4> end
|  5>
|  6> * xyz 0 1
|  7> S 	 43.5395 	 -22.2152 	 -109.475
|  8> C 	 44.8487 	 -22.4391 	 -108.299
|  9> C 	 46.0134 	 -22.8137 	 -108.931
| 10> C 	 45.794 	 -22.9926 	 -110.323
| 11> C 	 44.5118 	 -22.7841 	 -110.818
| 12> H 	 46.5803 	 -23.3881 	 -110.989
| 13> C 	 47.3581 	 -23.1944 	 -108.22
| 14> H 	 48.2029 	 -23.4446 	 -108.855
| 15> H 	 47.1565 	 -24.0994 	 -107.728
| 16> C 	 47.7538 	 -22.0934 	 -107.257
| 17> H 	 47.9481 	 -21.1546 	 -107.891
| 18> H 	 47.0276 	 -21.8116 	 -106.407
| 19> C 	 49.1606 	 -22.2687 	 -106.62
| 20> H 	 49.3914 	 -21.5455 	 -105.892
| 21> H 	 49.0485 	 -23.1804 	 -106.008
| 22> H 	 49.9088 	 -22.3957 	 -107.38
| 23> S 	 42.5508 	 -23.9209 	 -112.493
| 24> C 	 42.7417 	 -23.5712 	 -114.161
| 25> C 	 43.8096 	 -22.7855 	 -114.506
| 26> C 	 44.5307 	 -22.3751 	 -113.325
| 27> C 	 44.0493 	 -23.0042 	 -112.181
| 28> H 	 44.0415 	 -22.5023 	 -115.496
| 29> C 	 45.6687 	 -21.3819 	 -113.322
| 30> H 	 46.3055 	 -21.5997 	 -114.124
| 31> H 	 46.2899 	 -21.4941 	 -112.444
| 32> C 	 45.2549 	 -19.9017 	 -113.515
| 33> H 	 44.4607 	 -19.599 	 -112.816
| 34> H 	 44.7318 	 -19.7951 	 -114.486
| 35> C 	 46.4251 	 -18.9012 	 -113.311
| 36> H 	 46.1697 	 -17.897 	 -113.603
| 37> H 	 47.3887 	 -19.0139 	 -113.821
| 38> H 	 46.5324 	 -18.7821 	 -112.238
| 39> H 	 44.8348 	 -22.4249 	 -107.199
| 40> H 	 42.1134 	 -24.0013 	 -114.919
| 41> *
| 42>
| 43>                          ****END OF INPUT****

CARTESIAN COORDINATES (ANGSTROEM)
---------------------------------
  S     43.539500  -22.215200  -109.475000
  C     44.848700  -22.439100  -108.299000
  C     46.013400  -22.813700  -108.931000
  C     45.794000  -22.992600  -110.323000
  C     44.511800  -22.784100  -110.818000
  H     46.580300  -23.388100  -110.989000
  C     47.358100  -23.194400  -108.220000
  H     48.202900  -23.444600  -108.855000
  H     47.156500  -24.099400  -107.728000
  C     47.753800  -22.093400  -107.257000
  H     47.948100  -21.154600  -107.891000
  H     47.027600  -21.811600  -106.407000
  C     49.160600  -22.268700  -106.620000
  H     49.391400  -21.545500  -105.892000
  H     49.048500  -23.180400  -106.008000
  H     49.908800  -22.395700  -107.380000
  S     42.550800  -23.920900  -112.493000
  C     42.741700  -23.571200  -114.161000
  C     43.809600  -22.785500  -114.506000
  C     44.530700  -22.375100  -113.325000
  C     44.049300  -23.004200  -112.181000
  H     44.041500  -22.502300  -115.496000
  C     45.668700  -21.381900  -113.322000
  H     46.305500  -21.599700  -114.124000
  H     46.289900  -21.494100  -112.444000
  C     45.254900  -19.901700  -113.515000
  H     44.460700  -19.599000  -112.816000
  H     44.731800  -19.795100  -114.486000
  C     46.425100  -18.901200  -113.311000
  H     46.169700  -17.897000  -113.603000
  H     47.388700  -19.013900  -113.821000
  H     46.532400  -18.782100  -112.238000
  H     44.834800  -22.424900  -107.199000
  H     42.113400  -24.001300  -114.919000

 Total Charge           Charge          ....    0
 Multiplicity           Mult            ....    1
 Number of Electrons    NEL             ....  134
 Basis Dimension        Dim             ....  322

ORBITAL ENERGIES
----------------

  NO   OCC          E(Eh)            E(eV)
   0   2.0000     -88.969493     -2420.9830
   1   2.0000     -88.966152     -2420.8921
   2   2.0000     -10.327825      -281.0344
   3   2.0000     -10.327088      -281.0143
   4   2.0000     -10.315981      -280.7121
   5   2.0000     -10.314599      -280.6745
   6   2.0000     -10.305931      -280.4386
   7   2.0000     -10.300682      -280.2958
   8   2.0000     -10.297676      -280.2140
   9   2.0000     -10.295208      -280.1469
  10   2.0000     -10.292931      -280.0849
  11   2.0000     -10.290860      -280.0285
  12   2.0000     -10.290216      -280.0110
  13   2.0000     -10.284028      -279.8426
  14   2.0000     -10.276476      -279.6371
  15   2.0000     -10.275018      -279.5975
  16   2.0000      -8.084370      -219.9869
  17   2.0000      -8.080042      -219.8691
  18   2.0000      -6.042807      -164.4331
  19   2.0000      -6.039026      -164.3302
  20   2.0000      -6.038741      -164.3225
  21   2.0000      -6.035039      -164.2218
  22   2.0000      -6.034578      -164.2092
  23   2.0000      -6.030726      -164.1044
  24   2.0000      -1.004368       -27.3303
  25   2.0000      -0.982895       -26.7459
  26   2.0000      -0.910668       -24.7805
  27   2.0000      -0.905993       -24.6533
  28   2.0000      -0.867777       -23.6134
  29   2.0000      -0.851744       -23.1771
  30   2.0000      -0.841673       -22.9031
  31   2.0000      -0.811608       -22.0850
  32   2.0000      -0.787835       -21.4381
  33   2.0000      -0.774604       -21.0781
  34   2.0000      -0.706006       -19.2114
  35   2.0000      -0.699476       -19.0337
  36   2.0000      -0.688647       -18.7390
  37   2.0000      -0.662362       -18.0238
  38   2.0000      -0.633408       -17.2359
  39   2.0000      -0.614886       -16.7319
  40   2.0000      -0.599495       -16.3131
  41   2.0000      -0.577849       -15.7241
  42   2.0000      -0.564123       -15.3506
  43   2.0000      -0.558339       -15.1932
  44   2.0000      -0.523023       -14.2322
  45   2.0000      -0.521102       -14.1799
  46   2.0000      -0.516813       -14.0632
  47   2.0000      -0.511392       -13.9157
  48   2.0000      -0.503185       -13.6924
  49   2.0000      -0.498829       -13.5738
  50   2.0000      -0.494318       -13.4511
  51   2.0000      -0.478384       -13.0175
  52   2.0000      -0.472596       -12.8600
  53   2.0000      -0.462034       -12.5726
  54   2.0000      -0.460426       -12.5288
  55   2.0000      -0.455645       -12.3987
  56   2.0000      -0.439805       -11.9677
  57   2.0000      -0.435756       -11.8575
  58   2.0000      -0.433959       -11.8086
  59   2.0000      -0.427456       -11.6317
  60   2.0000      -0.422414       -11.4945
  61   2.0000      -0.413980       -11.2650
  62   2.0000      -0.402054       -10.9405
  63   2.0000      -0.342502        -9.3199
  64   2.0000      -0.335123        -9.1192
  65   2.0000      -0.329686        -8.9712
  66   2.0000      -0.292213        -7.9515
  67   0.0000       0.029543         0.8039
  68   0.0000       0.070310         1.9132
  69   0.0000       0.114224         3.1082
  70   0.0000       0.127138         3.4596
  71   0.0000       0.130664         3.5555

MULLIKEN ATOMIC CHARGES
-----------------------
   0 S :    0.112945
   1 C :   -0.134198
   2 C :   -0.082510
   3 C :    0.008408
   4 C :   -0.154345
   5 H :    0.017931
   6 C :    0.127671
   7 H :    0.018674
   8 H :    0.026310
   9 C :   -0.176924
  10 H :    0.043826
  11 H :    0.048641
  12 C :   -0.017080
  13 H :    0.028076
  14 H :    0.016666
  15 H :    0.033420
  16 S :    0.122999
  17 C :   -0.075150
  18 C :   -0.006762
  19 C :   -0.053733
  20 C :   -0.172450
  21 H :    0.002774
  22 C :    0.134784
  23 H :    0.005442
  24 H :    0.009795
  25 C :   -0.088700
  26 H :    0.032873
  27 H :    0.024425
  28 C :   -0.043638
  29 H :    0.017270
  30 H :    0.035174
  31 H :    0.035645
  32 H :    0.050379
  33 H :    0.051362
Sum of atomic charges:    0.0000000

LOEWDIN ATOMIC CHARGES
----------------------
   0 S :    0.396788
   1 C :   -0.199028
   2 C :   -0.061141
   3 C :   -0.073628
   4 C :   -0.197201
   5 H :    0.030755
   6 C :   -0.023740
   7 H :    0.032331
   8 H :    0.026378
   9 C :   -0.053476
  10 H :    0.031790
  11 H :    0.030956
  12 C :   -0.064183
  13 H :    0.020661
  14 H :    0.023721
  15 H :    0.021273
  16 S :    0.407671
  17 C :   -0.181671
  18 C :   -0.065746
  19 C :   -0.036830
  20 C :   -0.197648
  21 H :    0.026048
  22 C :   -0.028284
  23 H :    0.023818
  24 H :    0.028749
  25 C :   -0.036596
  26 H :    0.028748
  27 H :    0.021142
  28 C :   -0.072874
  29 H :    0.025113
  30 H :    0.026077
  31 H :    0.029825
  32 H :    0.034400
  33 H :    0.025802

  Mayer bond orders larger than 0.100000
B(  0-S ,  1-C ) :   1.1350 B(  0-S ,  4-C ) :   1.1385 B(  1-C ,  2-C ) :   1.6112
B(  1-C ,  4-C ) :   0.1008 B(  1-C , 32-H ) :   0.9617 B(  2-C ,  3-C ) :   1.2769
B(  2-C ,  6-C ) :   0.9991 B(  3-C ,  4-C ) :   1.5670 B(  3-C ,  5-H ) :   0.9838
B(  4-C , 20-C ) :   1.0608 B(  6-C ,  7-H ) :   0.9463 B(  6-C ,  8-H ) :   0.9353
B(  6-C ,  9-C ) :   1.0516 B(  9-C , 10-H ) :   0.9618 B(  9-C , 11-H ) :   0.9549
B(  9-C , 12-C ) :   1.0824 B( 12-C , 13-H ) :   0.9742 B( 12-C , 14-H ) :   0.9728
B( 12-C , 15-H ) :   0.9757 B( 16-S , 17-C ) :   1.1645 B( 16-S , 20-C ) :   1.1182
B( 17-C , 18-C ) :   1.6191 B( 17-C , 33-H ) :   0.9621 B( 18-C , 19-C ) :   1.2249
B( 18-C , 21-H ) :   0.9978 B( 19-C , 20-C ) :   1.6070 B( 19-C , 22-C ) :   1.0533
B( 22-C , 23-H ) :   0.9215 B( 22-C , 24-H ) :   0.9270 B( 22-C , 25-C ) :   1.0537
B( 25-C , 26-H ) :   0.9569 B( 25-C , 27-H ) :   0.9586 B( 25-C , 28-C ) :   1.0767
B( 28-C , 29-H ) :   0.9712 B( 28-C , 30-H ) :   0.9777 B( 28-C , 31-H ) :   0.9752

Dispersion correction           -0.013740740
FINAL SINGLE POINT ENERGY     -1339.874170221282

DIPOLE MOMENT
-------------
                                X             Y             Z
Electronic contribution:    -26.04038     -13.44050      -5.69177
Nuclear contribution   :     26.63113      13.53865       5.53196
                        -----------------------------------------
Total Dipole Moment    :      0.59075       0.09815      -0.15981
                        -----------------------------------------
Magnitude (a.u.)       :      0.61981
Magnitude (Debye)      :      1.57543

Rotational constants in cm-1:     0.019223     0.007843     0.006312
Rotational constants in MHz :   576.298587   235.142157   189.228420

                             ****ORCA TERMINATED NORMALLY****
TOTAL RUN TIME: 0 days 0 hours 0 minutes 21 seconds 183 msec
