                         Program Version 4.2.1 -  RELEASE  -
|  1> ! wB97X-D3 SP def2-SVP
|  2> %pal
|  3> nprocs 24
|  4> end
|  5>
|  6> * xyz 0 1
|  7> S 	 -128.291 	 66.4893 	 -35.2693
|  8> C 	 -128.746 	 65.31 	 -36.3595
|  9> C 	 -127.94 	 64.2212 	 -36.4625
| 10> C 	 -126.867 	 64.4085 	 -35.5392
| 11> C 	 -126.891 	 65.5471 	 -34.8194
| 12> H 	 -126.115 	 63.7563 	 -35.4922
| 13> C 	 -128.141 	 62.9559 	 -37.3224
| 14> H 	 -129.156 	 62.5891 	 -37.1647
| 15> H 	 -127.535 	 62.1411 	 -36.8704
| 16> C 	 -127.61 	 63.126 	 -38.8536
| 17> H 	 -127.596 	 62.1546 	 -39.2592
| 18> H 	 -128.341 	 63.6425 	 -39.4553
| 19> C 	 -126.174 	 63.6633 	 -38.9356
| 20> H 	 -125.472 	 63.0357 	 -38.4479
| 21> H 	 -125.944 	 63.706 	 -39.9828
| 22> H 	 -126.035 	 64.7283 	 -38.5644
| 23> S 	 -126.466 	 67.0685 	 -32.4522
| 24> C 	 -124.933 	 66.8608 	 -31.6877
| 25> C 	 -124.071 	 66.1492 	 -32.4672
| 26> C 	 -124.654 	 65.5124 	 -33.616
| 27> C 	 -125.966 	 65.9737 	 -33.8074
| 28> H 	 -123.036 	 66.0249 	 -32.2164
| 29> C 	 -123.737 	 64.7413 	 -34.5826
| 30> H 	 -122.897 	 65.4358 	 -34.6766
| 31> H 	 -124.082 	 64.5391 	 -35.6068
| 32> C 	 -123.162 	 63.4636 	 -33.9645
| 33> H 	 -123.979 	 62.7699 	 -33.8027
| 34> H 	 -122.754 	 63.6346 	 -32.9632
| 35> C 	 -122.036 	 62.7964 	 -34.7881
| 36> H 	 -121.28 	 63.5056 	 -35.1438
| 37> H 	 -122.37 	 62.3266 	 -35.7714
| 38> H 	 -121.484 	 62.0004 	 -34.2976
| 39> H 	 -129.675 	 65.4141 	 -36.8947
| 40> H 	 -124.621 	 67.2578 	 -30.7342
| 41> *
| 42>
| 43>                          ****END OF INPUT****

CARTESIAN COORDINATES (ANGSTROEM)
---------------------------------
  S    -128.291000   66.489300  -35.269300
  C    -128.746000   65.310000  -36.359500
  C    -127.940000   64.221200  -36.462500
  C    -126.867000   64.408500  -35.539200
  C    -126.891000   65.547100  -34.819400
  H    -126.115000   63.756300  -35.492200
  C    -128.141000   62.955900  -37.322400
  H    -129.156000   62.589100  -37.164700
  H    -127.535000   62.141100  -36.870400
  C    -127.610000   63.126000  -38.853600
  H    -127.596000   62.154600  -39.259200
  H    -128.341000   63.642500  -39.455300
  C    -126.174000   63.663300  -38.935600
  H    -125.472000   63.035700  -38.447900
  H    -125.944000   63.706000  -39.982800
  H    -126.035000   64.728300  -38.564400
  S    -126.466000   67.068500  -32.452200
  C    -124.933000   66.860800  -31.687700
  C    -124.071000   66.149200  -32.467200
  C    -124.654000   65.512400  -33.616000
  C    -125.966000   65.973700  -33.807400
  H    -123.036000   66.024900  -32.216400
  C    -123.737000   64.741300  -34.582600
  H    -122.897000   65.435800  -34.676600
  H    -124.082000   64.539100  -35.606800
  C    -123.162000   63.463600  -33.964500
  H    -123.979000   62.769900  -33.802700
  H    -122.754000   63.634600  -32.963200
  C    -122.036000   62.796400  -34.788100
  H    -121.280000   63.505600  -35.143800
  H    -122.370000   62.326600  -35.771400
  H    -121.484000   62.000400  -34.297600
  H    -129.675000   65.414100  -36.894700
  H    -124.621000   67.257800  -30.734200

 Total Charge           Charge          ....    0
 Multiplicity           Mult            ....    1
 Number of Electrons    NEL             ....  134
 Basis Dimension        Dim             ....  322

ORBITAL ENERGIES
----------------

  NO   OCC          E(Eh)            E(eV)
   0   2.0000     -88.967113     -2420.9182
   1   2.0000     -88.961796     -2420.7736
   2   2.0000     -10.330729      -281.1134
   3   2.0000     -10.319533      -280.8088
   4   2.0000     -10.314513      -280.6722
   5   2.0000     -10.306183      -280.4455
   6   2.0000     -10.301788      -280.3259
   7   2.0000     -10.301361      -280.3143
   8   2.0000     -10.299075      -280.2521
   9   2.0000     -10.294266      -280.1212
  10   2.0000     -10.290699      -280.0241
  11   2.0000     -10.290544      -280.0199
  12   2.0000     -10.289802      -279.9997
  13   2.0000     -10.285695      -279.8880
  14   2.0000     -10.279172      -279.7105
  15   2.0000     -10.276469      -279.6370
  16   2.0000      -8.081279      -219.9028
  17   2.0000      -8.078631      -219.8307
  18   2.0000      -6.039951      -164.3554
  19   2.0000      -6.036976      -164.2745
  20   2.0000      -6.035996      -164.2478
  21   2.0000      -6.032958      -164.1651
  22   2.0000      -6.031785      -164.1332
  23   2.0000      -6.029348      -164.0669
  24   2.0000      -1.012918       -27.5629
  25   2.0000      -0.986308       -26.8388
  26   2.0000      -0.909883       -24.7592
  27   2.0000      -0.901237       -24.5239
  28   2.0000      -0.873514       -23.7695
  29   2.0000      -0.854628       -23.2556
  30   2.0000      -0.845702       -23.0127
  31   2.0000      -0.812964       -22.1219
  32   2.0000      -0.785009       -21.3612
  33   2.0000      -0.772367       -21.0172
  34   2.0000      -0.708721       -19.2853
  35   2.0000      -0.705510       -19.1979
  36   2.0000      -0.696079       -18.9413
  37   2.0000      -0.667486       -18.1632
  38   2.0000      -0.640705       -17.4345
  39   2.0000      -0.623229       -16.9589
  40   2.0000      -0.600070       -16.3287
  41   2.0000      -0.567847       -15.4519
  42   2.0000      -0.560071       -15.2403
  43   2.0000      -0.547791       -14.9062
  44   2.0000      -0.540227       -14.7003
  45   2.0000      -0.523932       -14.2569
  46   2.0000      -0.514690       -14.0054
  47   2.0000      -0.507714       -13.8156
  48   2.0000      -0.502290       -13.6680
  49   2.0000      -0.499490       -13.5918
  50   2.0000      -0.490059       -13.3352
  51   2.0000      -0.478297       -13.0151
  52   2.0000      -0.473284       -12.8787
  53   2.0000      -0.469678       -12.7806
  54   2.0000      -0.457327       -12.4445
  55   2.0000      -0.452548       -12.3145
  56   2.0000      -0.441763       -12.0210
  57   2.0000      -0.441003       -12.0003
  58   2.0000      -0.437285       -11.8991
  59   2.0000      -0.428874       -11.6703
  60   2.0000      -0.421810       -11.4780
  61   2.0000      -0.420055       -11.4303
  62   2.0000      -0.415669       -11.3109
  63   2.0000      -0.364683        -9.9235
  64   2.0000      -0.333011        -9.0617
  65   2.0000      -0.328070        -8.9272
  66   2.0000      -0.279050        -7.5933
  67   0.0000       0.027305         0.7430
  68   0.0000       0.081587         2.2201
  69   0.0000       0.109672         2.9843
  70   0.0000       0.117348         3.1932
  71   0.0000       0.131399         3.5755

MULLIKEN ATOMIC CHARGES
-----------------------
   0 S :    0.116196
   1 C :   -0.124775
   2 C :   -0.070576
   3 C :    0.026864
   4 C :   -0.106462
   5 H :   -0.071722
   6 C :    0.045581
   7 H :    0.037306
   8 H :    0.021685
   9 C :   -0.046205
  10 H :    0.020124
  11 H :    0.032553
  12 C :   -0.058194
  13 H :    0.025554
  14 H :    0.030232
  15 H :    0.058036
  16 S :    0.103201
  17 C :   -0.073859
  18 C :   -0.025066
  19 C :   -0.040407
  20 C :   -0.114157
  21 H :    0.010682
  22 C :    0.032516
  23 H :    0.031799
  24 H :    0.037010
  25 C :   -0.071871
  26 H :    0.029451
  27 H :    0.029263
  28 C :   -0.065577
  29 H :    0.025914
  30 H :    0.028456
  31 H :    0.038114
  32 H :    0.035020
  33 H :    0.053313
Sum of atomic charges:   -0.0000000

LOEWDIN ATOMIC CHARGES
----------------------
   0 S :    0.430251
   1 C :   -0.211116
   2 C :   -0.066859
   3 C :   -0.049460
   4 C :   -0.189746
   5 H :    0.003225
   6 C :   -0.031630
   7 H :    0.031920
   8 H :    0.030996
   9 C :   -0.028836
  10 H :    0.018719
  11 H :    0.021740
  12 C :   -0.064655
  13 H :    0.018430
  14 H :    0.026748
  15 H :    0.036649
  16 S :    0.383895
  17 C :   -0.189156
  18 C :   -0.069289
  19 C :   -0.051674
  20 C :   -0.175762
  21 H :    0.026050
  22 C :   -0.029520
  23 H :    0.035101
  24 H :    0.030671
  25 C :   -0.041891
  26 H :    0.023387
  27 H :    0.025037
  28 C :   -0.076263
  29 H :    0.024187
  30 H :    0.028317
  31 H :    0.026445
  32 H :    0.021952
  33 H :    0.032138

  Mayer bond orders larger than 0.100000
B(  0-S ,  1-C ) :   1.1677 B(  0-S ,  4-C ) :   1.1282 B(  1-C ,  2-C ) :   1.6135
B(  1-C , 32-H ) :   0.9626 B(  2-C ,  3-C ) :   1.2490 B(  2-C ,  6-C ) :   1.0097
B(  3-C ,  4-C ) :   1.5722 B(  3-C ,  5-H ) :   1.0161 B(  4-C , 20-C ) :   1.0942
B(  6-C ,  7-H ) :   0.9487 B(  6-C ,  8-H ) :   0.9456 B(  6-C ,  9-C ) :   1.0503
B(  9-C , 10-H ) :   0.9575 B(  9-C , 11-H ) :   0.9623 B(  9-C , 12-C ) :   1.0794
B( 12-C , 13-H ) :   0.9761 B( 12-C , 14-H ) :   0.9717 B( 12-C , 15-H ) :   0.9709
B( 16-S , 17-C ) :   1.1381 B( 16-S , 20-C ) :   1.1130 B( 17-C , 18-C ) :   1.6304
B( 17-C , 33-H ) :   0.9659 B( 18-C , 19-C ) :   1.2312 B( 18-C , 21-H ) :   0.9848
B( 19-C , 20-C ) :   1.6063 B( 19-C , 22-C ) :   1.0233 B( 22-C , 23-H ) :   0.9384
B( 22-C , 24-H ) :   0.9493 B( 22-C , 25-C ) :   1.0498 B( 25-C , 26-H ) :   0.9542
B( 25-C , 27-H ) :   0.9571 B( 25-C , 28-C ) :   1.0752 B( 28-C , 29-H ) :   0.9745
B( 28-C , 30-H ) :   0.9734 B( 28-C , 31-H ) :   0.9769

Dispersion correction           -0.014474741
FINAL SINGLE POINT ENERGY     -1339.877937408619

DIPOLE MOMENT
-------------
                                X             Y             Z
Electronic contribution:    -16.68728      21.53975      17.14382
Nuclear contribution   :     17.14344     -22.08714     -17.48462
                        -----------------------------------------
Total Dipole Moment    :      0.45616      -0.54739      -0.34080
                        -----------------------------------------
Magnitude (a.u.)       :      0.78985
Magnitude (Debye)      :      2.00763

Rotational constants in cm-1:     0.016393     0.010195     0.006621
Rotational constants in MHz :   491.436770   305.652182   198.489175

                             ****ORCA TERMINATED NORMALLY****
TOTAL RUN TIME: 0 days 0 hours 0 minutes 22 seconds 51 msec
