                         Program Version 4.2.1 -  RELEASE  -
|  1> ! wB97X-D3 SP def2-SVP
|  2> %pal
|  3> nprocs 24
|  4> end
|  5>
|  6> * xyz 0 1
|  7> S 	 -73.2684 	 7.7743 	 -111.703
|  8> C 	 -73.9427 	 7.89095 	 -110.094
|  9> C 	 -73.1151 	 7.44309 	 -109.149
| 10> C 	 -71.8843 	 6.94339 	 -109.637
| 11> C 	 -71.8808 	 6.95851 	 -111.026
| 12> H 	 -71.0744 	 6.51628 	 -108.966
| 13> C 	 -73.307 	 7.55843 	 -107.621
| 14> H 	 -73.0096 	 6.67631 	 -107.236
| 15> H 	 -74.3752 	 7.64414 	 -107.454
| 16> C 	 -72.5489 	 8.71777 	 -106.914
| 17> H 	 -72.8008 	 8.53147 	 -105.861
| 18> H 	 -71.4559 	 8.58359 	 -107.045
| 19> C 	 -72.8502 	 10.1243 	 -107.417
| 20> H 	 -73.8677 	 10.5632 	 -107.349
| 21> H 	 -72.2357 	 10.8529 	 -106.848
| 22> H 	 -72.539 	 10.2812 	 -108.476
| 23> S 	 -70.6465 	 5.01791 	 -112.412
| 24> C 	 -69.3478 	 5.48779 	 -113.561
| 25> C 	 -68.8947 	 6.72559 	 -113.225
| 26> C 	 -69.6492 	 7.36424 	 -112.222
| 27> C 	 -70.7409 	 6.62375 	 -111.829
| 28> H 	 -67.9929 	 7.12967 	 -113.695
| 29> C 	 -69.3878 	 8.83293 	 -111.842
| 30> H 	 -68.3068 	 9.00408 	 -111.688
| 31> H 	 -69.9784 	 9.00674 	 -110.878
| 32> C 	 -69.8133 	 9.97312 	 -112.762
| 33> H 	 -69.7797 	 10.9099 	 -112.157
| 34> H 	 -70.8866 	 9.80642 	 -113.025
| 35> C 	 -69.0257 	 10.1626 	 -114.014
| 36> H 	 -67.9703 	 10.4381 	 -113.746
| 37> H 	 -69.4569 	 10.9344 	 -114.676
| 38> H 	 -69.0842 	 9.25256 	 -114.611
| 39> H 	 -74.9142 	 8.37796 	 -109.88
| 40> H 	 -68.6852 	 4.85449 	 -114.148
| 41> *
| 42>
| 43>                          ****END OF INPUT****

CARTESIAN COORDINATES (ANGSTROEM)
---------------------------------
  S    -73.268400    7.774300  -111.703000
  C    -73.942700    7.890950  -110.094000
  C    -73.115100    7.443090  -109.149000
  C    -71.884300    6.943390  -109.637000
  C    -71.880800    6.958510  -111.026000
  H    -71.074400    6.516280  -108.966000
  C    -73.307000    7.558430  -107.621000
  H    -73.009600    6.676310  -107.236000
  H    -74.375200    7.644140  -107.454000
  C    -72.548900    8.717770  -106.914000
  H    -72.800800    8.531470  -105.861000
  H    -71.455900    8.583590  -107.045000
  C    -72.850200   10.124300  -107.417000
  H    -73.867700   10.563200  -107.349000
  H    -72.235700   10.852900  -106.848000
  H    -72.539000   10.281200  -108.476000
  S    -70.646500    5.017910  -112.412000
  C    -69.347800    5.487790  -113.561000
  C    -68.894700    6.725590  -113.225000
  C    -69.649200    7.364240  -112.222000
  C    -70.740900    6.623750  -111.829000
  H    -67.992900    7.129670  -113.695000
  C    -69.387800    8.832930  -111.842000
  H    -68.306800    9.004080  -111.688000
  H    -69.978400    9.006740  -110.878000
  C    -69.813300    9.973120  -112.762000
  H    -69.779700   10.909900  -112.157000
  H    -70.886600    9.806420  -113.025000
  C    -69.025700   10.162600  -114.014000
  H    -67.970300   10.438100  -113.746000
  H    -69.456900   10.934400  -114.676000
  H    -69.084200    9.252560  -114.611000
  H    -74.914200    8.377960  -109.880000
  H    -68.685200    4.854490  -114.148000

 Total Charge           Charge          ....    0
 Multiplicity           Mult            ....    1
 Number of Electrons    NEL             ....  134
 Basis Dimension        Dim             ....  322

ORBITAL ENERGIES
----------------

  NO   OCC          E(Eh)            E(eV)
   0   2.0000     -88.969371     -2420.9797
   1   2.0000     -88.962885     -2420.8032
   2   2.0000     -10.327220      -281.0180
   3   2.0000     -10.318724      -280.7867
   4   2.0000     -10.314267      -280.6655
   5   2.0000     -10.311221      -280.5826
   6   2.0000     -10.299378      -280.2603
   7   2.0000     -10.297990      -280.2226
   8   2.0000     -10.295687      -280.1599
   9   2.0000     -10.293398      -280.0976
  10   2.0000     -10.292638      -280.0769
  11   2.0000     -10.289343      -279.9873
  12   2.0000     -10.284950      -279.8677
  13   2.0000     -10.283601      -279.8310
  14   2.0000     -10.282718      -279.8070
  15   2.0000     -10.276489      -279.6375
  16   2.0000      -8.084090      -219.9793
  17   2.0000      -8.077749      -219.8067
  18   2.0000      -6.042526      -164.4255
  19   2.0000      -6.038758      -164.3230
  20   2.0000      -6.036264      -164.2551
  21   2.0000      -6.034753      -164.2140
  22   2.0000      -6.032337      -164.1482
  23   2.0000      -6.028370      -164.0403
  24   2.0000      -1.013015       -27.5655
  25   2.0000      -0.989098       -26.9147
  26   2.0000      -0.910521       -24.7765
  27   2.0000      -0.905758       -24.6469
  28   2.0000      -0.873880       -23.7795
  29   2.0000      -0.849563       -23.1178
  30   2.0000      -0.845394       -23.0043
  31   2.0000      -0.814649       -22.1677
  32   2.0000      -0.788193       -21.4478
  33   2.0000      -0.771730       -20.9998
  34   2.0000      -0.710161       -19.3245
  35   2.0000      -0.697031       -18.9672
  36   2.0000      -0.679894       -18.5008
  37   2.0000      -0.660590       -17.9756
  38   2.0000      -0.637927       -17.3589
  39   2.0000      -0.618549       -16.8316
  40   2.0000      -0.588790       -16.0218
  41   2.0000      -0.569262       -15.4904
  42   2.0000      -0.551555       -15.0086
  43   2.0000      -0.548713       -14.9312
  44   2.0000      -0.545472       -14.8430
  45   2.0000      -0.536838       -14.6081
  46   2.0000      -0.519111       -14.1257
  47   2.0000      -0.511975       -13.9316
  48   2.0000      -0.498879       -13.5752
  49   2.0000      -0.493094       -13.4178
  50   2.0000      -0.486678       -13.2432
  51   2.0000      -0.478032       -13.0079
  52   2.0000      -0.475584       -12.9413
  53   2.0000      -0.467418       -12.7191
  54   2.0000      -0.454859       -12.3774
  55   2.0000      -0.452870       -12.3232
  56   2.0000      -0.440365       -11.9829
  57   2.0000      -0.434637       -11.8271
  58   2.0000      -0.430989       -11.7278
  59   2.0000      -0.426271       -11.5994
  60   2.0000      -0.417684       -11.3658
  61   2.0000      -0.413782       -11.2596
  62   2.0000      -0.405675       -11.0390
  63   2.0000      -0.338241        -9.2040
  64   2.0000      -0.333847        -9.0844
  65   2.0000      -0.319862        -8.7039
  66   2.0000      -0.312389        -8.5005
  67   0.0000       0.046299         1.2599
  68   0.0000       0.049628         1.3505
  69   0.0000       0.106240         2.8909
  70   0.0000       0.113940         3.1005
  71   0.0000       0.132414         3.6032

MULLIKEN ATOMIC CHARGES
-----------------------
   0 S :    0.128388
   1 C :   -0.144651
   2 C :   -0.089773
   3 C :    0.011698
   4 C :   -0.167090
   5 H :    0.046392
   6 C :    0.135973
   7 H :   -0.006715
   8 H :    0.012254
   9 C :   -0.068379
  10 H :    0.040324
  11 H :    0.033825
  12 C :   -0.081809
  13 H :    0.034128
  14 H :    0.031952
  15 H :    0.046218
  16 S :    0.108587
  17 C :   -0.078327
  18 C :   -0.061999
  19 C :    0.011477
  20 C :   -0.206099
  21 H :    0.027419
  22 C :    0.037039
  23 H :    0.021405
  24 H :    0.039864
  25 C :   -0.070312
  26 H :    0.032442
  27 H :    0.022628
  28 C :   -0.057170
  29 H :    0.031580
  30 H :    0.037767
  31 H :    0.032828
  32 H :    0.052651
  33 H :    0.055485
Sum of atomic charges:   -0.0000000

LOEWDIN ATOMIC CHARGES
----------------------
   0 S :    0.414347
   1 C :   -0.199418
   2 C :   -0.072291
   3 C :   -0.059345
   4 C :   -0.200580
   5 H :    0.047427
   6 C :   -0.016763
   7 H :    0.012925
   8 H :    0.027601
   9 C :   -0.038065
  10 H :    0.029315
  11 H :    0.028997
  12 C :   -0.080086
  13 H :    0.025619
  14 H :    0.029771
  15 H :    0.032063
  16 S :    0.407490
  17 C :   -0.181032
  18 C :   -0.071198
  19 C :   -0.064025
  20 C :   -0.212268
  21 H :    0.034335
  22 C :   -0.038373
  23 H :    0.029213
  24 H :    0.040099
  25 C :   -0.050680
  26 H :    0.027738
  27 H :    0.022537
  28 C :   -0.073967
  29 H :    0.026510
  30 H :    0.030715
  31 H :    0.024624
  32 H :    0.034449
  33 H :    0.032318

  Mayer bond orders larger than 0.100000
B(  0-S ,  1-C ) :   1.1251 B(  0-S ,  4-C ) :   1.1600 B(  1-C ,  2-C ) :   1.6533
B(  1-C , 32-H ) :   0.9594 B(  2-C ,  3-C ) :   1.2318 B(  2-C ,  6-C ) :   1.0141
B(  3-C ,  4-C ) :   1.5835 B(  3-C ,  5-H ) :   0.9864 B(  4-C , 20-C ) :   1.0075
B(  6-C ,  7-H ) :   0.9297 B(  6-C ,  8-H ) :   0.9395 B(  6-C ,  9-C ) :   1.0739
B(  9-C , 10-H ) :   0.9564 B(  9-C , 11-H ) :   0.9533 B(  9-C , 12-C ) :   1.0744
B( 12-C , 13-H ) :   0.9771 B( 12-C , 14-H ) :   0.9722 B( 12-C , 15-H ) :   0.9707
B( 16-S , 17-C ) :   1.1282 B( 16-S , 20-C ) :   1.1655 B( 17-C , 18-C ) :   1.6316
B( 17-C , 20-C ) :   0.1021 B( 17-C , 33-H ) :   0.9614 B( 18-C , 19-C ) :   1.2423
B( 18-C , 21-H ) :   0.9802 B( 19-C , 20-C ) :   1.5899 B( 19-C , 22-C ) :   1.0539
B( 22-C , 23-H ) :   0.9325 B( 22-C , 24-H ) :   0.9273 B( 22-C , 25-C ) :   1.0761
B( 25-C , 26-H ) :   0.9524 B( 25-C , 27-H ) :   0.9455 B( 25-C , 28-C ) :   1.0920
B( 28-C , 29-H ) :   0.9711 B( 28-C , 30-H ) :   0.9691 B( 28-C , 31-H ) :   0.9688

Dispersion correction           -0.015420490
FINAL SINGLE POINT ENERGY     -1339.877873379637

DIPOLE MOMENT
-------------
                                X             Y             Z
Electronic contribution:     -5.51858     -20.92804     -10.90663
Nuclear contribution   :      5.74923      21.34057      11.38076
                        -----------------------------------------
Total Dipole Moment    :      0.23065       0.41253       0.47413
                        -----------------------------------------
Magnitude (a.u.)       :      0.66946
Magnitude (Debye)      :      1.70164

Rotational constants in cm-1:     0.019969     0.008889     0.007418
Rotational constants in MHz :   598.661328   266.471622   222.387937

                             ****ORCA TERMINATED NORMALLY****
TOTAL RUN TIME: 0 days 0 hours 0 minutes 22 seconds 247 msec
