                         Program Version 4.2.1 -  RELEASE  -
|  1> ! wB97X-D3 SP def2-SVP
|  2> %pal
|  3> nprocs 24
|  4> end
|  5>
|  6> * xyz 0 1
|  7> S 	 -36.9718 	 -44.3936 	 -79.9401
|  8> C 	 -38.0736 	 -43.0656 	 -79.5174
|  9> C 	 -37.4773 	 -42.1068 	 -78.8068
| 10> C 	 -36.1082 	 -42.3765 	 -78.4424
| 11> C 	 -35.6952 	 -43.5383 	 -79.0007
| 12> H 	 -35.3897 	 -41.9292 	 -77.7999
| 13> C 	 -38.196 	 -40.9807 	 -78.1532
| 14> H 	 -37.4966 	 -40.447 	 -77.4631
| 15> H 	 -39.0495 	 -41.3647 	 -77.5835
| 16> C 	 -38.8934 	 -39.9683 	 -79.0924
| 17> H 	 -38.3021 	 -39.6926 	 -79.9472
| 18> H 	 -39.7761 	 -40.442 	 -79.5131
| 19> C 	 -39.4443 	 -38.6434 	 -78.5844
| 20> H 	 -38.6844 	 -37.8977 	 -78.3973
| 21> H 	 -40.1354 	 -38.2309 	 -79.2935
| 22> H 	 -40.0533 	 -38.8356 	 -77.7228
| 23> S 	 -34.187 	 -45.518 	 -77.8779
| 24> C 	 -32.4837 	 -45.6144 	 -78.1046
| 25> C 	 -32.0059 	 -44.5139 	 -78.8422
| 26> C 	 -33.0656 	 -43.6024 	 -79.1726
| 27> C 	 -34.3239 	 -44.1138 	 -78.8624
| 28> H 	 -30.9581 	 -44.3076 	 -79.0883
| 29> C 	 -32.7512 	 -42.212 	 -79.6613
| 30> H 	 -31.7774 	 -41.9994 	 -79.1619
| 31> H 	 -33.4233 	 -41.4377 	 -79.2574
| 32> C 	 -32.5551 	 -42.0591 	 -81.1431
| 33> H 	 -32.5805 	 -41.0248 	 -81.4271
| 34> H 	 -33.4595 	 -42.5435 	 -81.5822
| 35> C 	 -31.27 	 -42.6407 	 -81.6989
| 36> H 	 -31.1476 	 -42.5244 	 -82.7884
| 37> H 	 -31.2842 	 -43.7289 	 -81.4152
| 38> H 	 -30.386 	 -42.1841 	 -81.1717
| 39> H 	 -39.1465 	 -43.1016 	 -79.8385
| 40> H 	 -31.7407 	 -46.2829 	 -77.7441
| 41> *
| 42>
| 43>                          ****END OF INPUT****

CARTESIAN COORDINATES (ANGSTROEM)
---------------------------------
  S    -36.971800  -44.393600  -79.940100
  C    -38.073600  -43.065600  -79.517400
  C    -37.477300  -42.106800  -78.806800
  C    -36.108200  -42.376500  -78.442400
  C    -35.695200  -43.538300  -79.000700
  H    -35.389700  -41.929200  -77.799900
  C    -38.196000  -40.980700  -78.153200
  H    -37.496600  -40.447000  -77.463100
  H    -39.049500  -41.364700  -77.583500
  C    -38.893400  -39.968300  -79.092400
  H    -38.302100  -39.692600  -79.947200
  H    -39.776100  -40.442000  -79.513100
  C    -39.444300  -38.643400  -78.584400
  H    -38.684400  -37.897700  -78.397300
  H    -40.135400  -38.230900  -79.293500
  H    -40.053300  -38.835600  -77.722800
  S    -34.187000  -45.518000  -77.877900
  C    -32.483700  -45.614400  -78.104600
  C    -32.005900  -44.513900  -78.842200
  C    -33.065600  -43.602400  -79.172600
  C    -34.323900  -44.113800  -78.862400
  H    -30.958100  -44.307600  -79.088300
  C    -32.751200  -42.212000  -79.661300
  H    -31.777400  -41.999400  -79.161900
  H    -33.423300  -41.437700  -79.257400
  C    -32.555100  -42.059100  -81.143100
  H    -32.580500  -41.024800  -81.427100
  H    -33.459500  -42.543500  -81.582200
  C    -31.270000  -42.640700  -81.698900
  H    -31.147600  -42.524400  -82.788400
  H    -31.284200  -43.728900  -81.415200
  H    -30.386000  -42.184100  -81.171700
  H    -39.146500  -43.101600  -79.838500
  H    -31.740700  -46.282900  -77.744100

 Total Charge           Charge          ....    0
 Multiplicity           Mult            ....    1
 Number of Electrons    NEL             ....  134
 Basis Dimension        Dim             ....  322

ORBITAL ENERGIES
----------------

  NO   OCC          E(Eh)            E(eV)
   0   2.0000     -88.968826     -2420.9648
   1   2.0000     -88.964741     -2420.8537
   2   2.0000     -10.331196      -281.1261
   3   2.0000     -10.324053      -280.9318
   4   2.0000     -10.316171      -280.7173
   5   2.0000     -10.315725      -280.7052
   6   2.0000     -10.302355      -280.3413
   7   2.0000     -10.298970      -280.2492
   8   2.0000     -10.296337      -280.1776
   9   2.0000     -10.293605      -280.1032
  10   2.0000     -10.293294      -280.0948
  11   2.0000     -10.290783      -280.0264
  12   2.0000     -10.282657      -279.8053
  13   2.0000     -10.280944      -279.7587
  14   2.0000     -10.279659      -279.7238
  15   2.0000     -10.272875      -279.5392
  16   2.0000      -8.084100      -219.9796
  17   2.0000      -8.078700      -219.8326
  18   2.0000      -6.042570      -164.4267
  19   2.0000      -6.038382      -164.3127
  20   2.0000      -6.037315      -164.2837
  21   2.0000      -6.035015      -164.2211
  22   2.0000      -6.033531      -164.1807
  23   2.0000      -6.029182      -164.0624
  24   2.0000      -1.007623       -27.4188
  25   2.0000      -0.986743       -26.8507
  26   2.0000      -0.914728       -24.8910
  27   2.0000      -0.909897       -24.7596
  28   2.0000      -0.869113       -23.6498
  29   2.0000      -0.853152       -23.2154
  30   2.0000      -0.847559       -23.0633
  31   2.0000      -0.818526       -22.2732
  32   2.0000      -0.782525       -21.2936
  33   2.0000      -0.771181       -20.9849
  34   2.0000      -0.704706       -19.1760
  35   2.0000      -0.698867       -19.0171
  36   2.0000      -0.683796       -18.6070
  37   2.0000      -0.664458       -18.0808
  38   2.0000      -0.647491       -17.6191
  39   2.0000      -0.615675       -16.7534
  40   2.0000      -0.594828       -16.1861
  41   2.0000      -0.568492       -15.4695
  42   2.0000      -0.565473       -15.3873
  43   2.0000      -0.549823       -14.9614
  44   2.0000      -0.544411       -14.8142
  45   2.0000      -0.524261       -14.2659
  46   2.0000      -0.521316       -14.1857
  47   2.0000      -0.516939       -14.0666
  48   2.0000      -0.503908       -13.7120
  49   2.0000      -0.498599       -13.5676
  50   2.0000      -0.483053       -13.1445
  51   2.0000      -0.480424       -13.0730
  52   2.0000      -0.475691       -12.9442
  53   2.0000      -0.465611       -12.6699
  54   2.0000      -0.461291       -12.5524
  55   2.0000      -0.451749       -12.2927
  56   2.0000      -0.446062       -12.1380
  57   2.0000      -0.434370       -11.8198
  58   2.0000      -0.428758       -11.6671
  59   2.0000      -0.419360       -11.4114
  60   2.0000      -0.416595       -11.3361
  61   2.0000      -0.414918       -11.2905
  62   2.0000      -0.411065       -11.1856
  63   2.0000      -0.342448        -9.3185
  64   2.0000      -0.329561        -8.9678
  65   2.0000      -0.328676        -8.9437
  66   2.0000      -0.303098        -8.2477
  67   0.0000       0.036835         1.0023
  68   0.0000       0.064662         1.7595
  69   0.0000       0.108126         2.9423
  70   0.0000       0.111654         3.0382
  71   0.0000       0.127680         3.4744

MULLIKEN ATOMIC CHARGES
-----------------------
   0 S :    0.096844
   1 C :   -0.153616
   2 C :   -0.020144
   3 C :    0.044410
   4 C :   -0.157925
   5 H :    0.014421
   6 C :    0.070734
   7 H :    0.026748
   8 H :    0.037397
   9 C :   -0.110277
  10 H :    0.022522
  11 H :    0.016485
  12 C :   -0.021529
  13 H :    0.033926
  14 H :    0.025340
  15 H :    0.015343
  16 S :    0.134952
  17 C :   -0.066846
  18 C :   -0.062359
  19 C :   -0.042390
  20 C :   -0.190903
  21 H :    0.028696
  22 C :    0.048764
  23 H :    0.017093
  24 H :    0.027204
  25 C :   -0.041597
  26 H :    0.021495
  27 H :    0.036420
  28 C :   -0.084424
  29 H :    0.049213
  30 H :    0.040853
  31 H :    0.029291
  32 H :    0.069272
  33 H :    0.044588
Sum of atomic charges:   -0.0000000

LOEWDIN ATOMIC CHARGES
----------------------
   0 S :    0.363328
   1 C :   -0.183645
   2 C :   -0.068180
   3 C :   -0.054852
   4 C :   -0.170186
   5 H :    0.034293
   6 C :   -0.032789
   7 H :    0.031308
   8 H :    0.036893
   9 C :   -0.046354
  10 H :    0.019494
  11 H :    0.020787
  12 C :   -0.059890
  13 H :    0.022151
  14 H :    0.027398
  15 H :    0.019958
  16 S :    0.444060
  17 C :   -0.198834
  18 C :   -0.074195
  19 C :   -0.057511
  20 C :   -0.218805
  21 H :    0.032293
  22 C :   -0.035859
  23 H :    0.031713
  24 H :    0.032403
  25 C :   -0.044938
  26 H :    0.019502
  27 H :    0.031354
  28 C :   -0.073644
  29 H :    0.029919
  30 H :    0.029652
  31 H :    0.026076
  32 H :    0.039164
  33 H :    0.027936

  Mayer bond orders larger than 0.100000
B(  0-S ,  1-C ) :   1.1071 B(  0-S ,  4-C ) :   1.1296 B(  1-C ,  2-C ) :   1.6730
B(  1-C , 32-H ) :   0.9631 B(  2-C ,  3-C ) :   1.1561 B(  2-C ,  6-C ) :   1.0280
B(  3-C ,  4-C ) :   1.6554 B(  3-C ,  5-H ) :   0.9971 B(  4-C , 20-C ) :   0.9901
B(  6-C ,  7-H ) :   0.9485 B(  6-C ,  8-H ) :   0.9367 B(  6-C ,  9-C ) :   1.0470
B(  9-C , 10-H ) :   0.9615 B(  9-C , 11-H ) :   0.9557 B(  9-C , 12-C ) :   1.0988
B( 12-C , 13-H ) :   0.9760 B( 12-C , 14-H ) :   0.9718 B( 12-C , 15-H ) :   0.9705
B( 16-S , 17-C ) :   1.1704 B( 16-S , 20-C ) :   1.1675 B( 17-C , 18-C ) :   1.5824
B( 17-C , 33-H ) :   0.9694 B( 18-C , 19-C ) :   1.2754 B( 18-C , 21-H ) :   0.9769
B( 19-C , 20-C ) :   1.5859 B( 19-C , 22-C ) :   1.0296 B( 22-C , 23-H ) :   0.9336
B( 22-C , 24-H ) :   0.9379 B( 22-C , 25-C ) :   1.0719 B( 25-C , 26-H ) :   0.9533
B( 25-C , 27-H ) :   0.9514 B( 25-C , 28-C ) :   1.0824 B( 28-C , 29-H ) :   0.9727
B( 28-C , 30-H ) :   0.9711 B( 28-C , 31-H ) :   0.9714

Dispersion correction           -0.013989268
FINAL SINGLE POINT ENERGY     -1339.875401186681

DIPOLE MOMENT
-------------
                                X             Y             Z
Electronic contribution:     -0.18188     -25.29019       6.04402
Nuclear contribution   :      0.25170      25.89599      -5.91312
                        -----------------------------------------
Total Dipole Moment    :      0.06982       0.60579       0.13091
                        -----------------------------------------
Magnitude (a.u.)       :      0.62370
Magnitude (Debye)      :      1.58531

Rotational constants in cm-1:     0.020494     0.007501     0.006310
Rotational constants in MHz :   614.388189   224.871237   189.176903

                             ****ORCA TERMINATED NORMALLY****
TOTAL RUN TIME: 0 days 0 hours 0 minutes 21 seconds 117 msec
