                         Program Version 4.2.1 -  RELEASE  -
|  1> ! wB97X-D3 SP def2-SVP
|  2> %pal
|  3> nprocs 24
|  4> end
|  5>
|  6> * xyz 0 1
|  7> S 	 -94.5424 	 44.0575 	 -92.1937
|  8> C 	 -94.5992 	 42.3071 	 -92.2811
|  9> C 	 -95.9302 	 41.7956 	 -92.2014
| 10> C 	 -96.8325 	 42.8816 	 -92.1865
| 11> C 	 -96.2901 	 44.1182 	 -92.0856
| 12> H 	 -97.8407 	 42.6599 	 -92.0425
| 13> C 	 -96.4469 	 40.3813 	 -91.9319
| 14> H 	 -96.0197 	 39.7617 	 -92.7774
| 15> H 	 -97.5005 	 40.5429 	 -92.1538
| 16> C 	 -96.1681 	 39.7391 	 -90.5786
| 17> H 	 -96.4437 	 40.5114 	 -89.7948
| 18> H 	 -96.7279 	 38.8797 	 -90.2589
| 19> C 	 -94.7109 	 39.5413 	 -90.3452
| 20> H 	 -94.58 	 38.7047 	 -89.6576
| 21> H 	 -94.3097 	 39.2452 	 -91.3089
| 22> H 	 -94.1126 	 40.3817 	 -89.8657
| 23> S 	 -97.9717 	 45.888 	 -91.0874
| 24> C 	 -98.42 	 47.286 	 -92.0345
| 25> C 	 -97.9789 	 47.2511 	 -93.356
| 26> C 	 -97.1226 	 46.1208 	 -93.5638
| 27> C 	 -97.0788 	 45.2821 	 -92.4341
| 28> H 	 -98.2768 	 47.9515 	 -94.0794
| 29> C 	 -96.5387 	 45.8078 	 -94.9574
| 30> H 	 -96.3801 	 44.7511 	 -94.9834
| 31> H 	 -95.5153 	 46.2517 	 -94.9029
| 32> C 	 -97.3402 	 46.1617 	 -96.1945
| 33> H 	 -97.2744 	 47.2643 	 -96.2098
| 34> H 	 -98.3316 	 45.8867 	 -96.0381
| 35> C 	 -96.6107 	 45.6984 	 -97.4333
| 36> H 	 -95.7697 	 46.371 	 -97.7462
| 37> H 	 -97.3058 	 45.7266 	 -98.2587
| 38> H 	 -96.0845 	 44.7211 	 -97.2279
| 39> H 	 -93.7264 	 41.6711 	 -92.2219
| 40> H 	 -99.1759 	 48.0164 	 -91.6941
| 41> *
| 42>
| 43>                          ****END OF INPUT****

CARTESIAN COORDINATES (ANGSTROEM)
---------------------------------
  S    -94.542400   44.057500  -92.193700
  C    -94.599200   42.307100  -92.281100
  C    -95.930200   41.795600  -92.201400
  C    -96.832500   42.881600  -92.186500
  C    -96.290100   44.118200  -92.085600
  H    -97.840700   42.659900  -92.042500
  C    -96.446900   40.381300  -91.931900
  H    -96.019700   39.761700  -92.777400
  H    -97.500500   40.542900  -92.153800
  C    -96.168100   39.739100  -90.578600
  H    -96.443700   40.511400  -89.794800
  H    -96.727900   38.879700  -90.258900
  C    -94.710900   39.541300  -90.345200
  H    -94.580000   38.704700  -89.657600
  H    -94.309700   39.245200  -91.308900
  H    -94.112600   40.381700  -89.865700
  S    -97.971700   45.888000  -91.087400
  C    -98.420000   47.286000  -92.034500
  C    -97.978900   47.251100  -93.356000
  C    -97.122600   46.120800  -93.563800
  C    -97.078800   45.282100  -92.434100
  H    -98.276800   47.951500  -94.079400
  C    -96.538700   45.807800  -94.957400
  H    -96.380100   44.751100  -94.983400
  H    -95.515300   46.251700  -94.902900
  C    -97.340200   46.161700  -96.194500
  H    -97.274400   47.264300  -96.209800
  H    -98.331600   45.886700  -96.038100
  C    -96.610700   45.698400  -97.433300
  H    -95.769700   46.371000  -97.746200
  H    -97.305800   45.726600  -98.258700
  H    -96.084500   44.721100  -97.227900
  H    -93.726400   41.671100  -92.221900
  H    -99.175900   48.016400  -91.694100

 Total Charge           Charge          ....    0
 Multiplicity           Mult            ....    1
 Number of Electrons    NEL             ....  134
 Basis Dimension        Dim             ....  322

ORBITAL ENERGIES
----------------

  NO   OCC          E(Eh)            E(eV)
   0   2.0000     -88.971042     -2421.0251
   1   2.0000     -88.963660     -2420.8243
   2   2.0000     -10.320147      -280.8255
   3   2.0000     -10.319925      -280.8194
   4   2.0000     -10.318839      -280.7899
   5   2.0000     -10.314005      -280.6583
   6   2.0000     -10.302251      -280.3385
   7   2.0000     -10.302123      -280.3350
   8   2.0000     -10.300031      -280.2781
   9   2.0000     -10.289631      -279.9951
  10   2.0000     -10.288420      -279.9621
  11   2.0000     -10.285428      -279.8807
  12   2.0000     -10.283587      -279.8306
  13   2.0000     -10.283286      -279.8224
  14   2.0000     -10.280974      -279.7595
  15   2.0000     -10.278835      -279.7013
  16   2.0000      -8.085211      -220.0098
  17   2.0000      -8.078854      -219.8368
  18   2.0000      -6.043669      -164.4566
  19   2.0000      -6.039741      -164.3497
  20   2.0000      -6.037210      -164.2808
  21   2.0000      -6.036132      -164.2515
  22   2.0000      -6.033294      -164.1743
  23   2.0000      -6.029776      -164.0785
  24   2.0000      -1.006810       -27.3967
  25   2.0000      -0.980966       -26.6935
  26   2.0000      -0.916964       -24.9519
  27   2.0000      -0.912541       -24.8315
  28   2.0000      -0.867434       -23.6041
  29   2.0000      -0.858159       -23.3517
  30   2.0000      -0.848134       -23.0789
  31   2.0000      -0.808105       -21.9897
  32   2.0000      -0.781503       -21.2658
  33   2.0000      -0.766013       -20.8443
  34   2.0000      -0.705698       -19.2030
  35   2.0000      -0.699454       -19.0331
  36   2.0000      -0.691945       -18.8288
  37   2.0000      -0.656893       -17.8750
  38   2.0000      -0.642048       -17.4710
  39   2.0000      -0.620231       -16.8773
  40   2.0000      -0.593593       -16.1525
  41   2.0000      -0.571578       -15.5534
  42   2.0000      -0.566813       -15.4238
  43   2.0000      -0.556048       -15.1308
  44   2.0000      -0.545377       -14.8405
  45   2.0000      -0.527932       -14.3658
  46   2.0000      -0.516033       -14.0420
  47   2.0000      -0.515627       -14.0309
  48   2.0000      -0.494976       -13.4690
  49   2.0000      -0.493631       -13.4324
  50   2.0000      -0.482559       -13.1311
  51   2.0000      -0.481114       -13.0918
  52   2.0000      -0.468656       -12.7528
  53   2.0000      -0.464206       -12.6317
  54   2.0000      -0.455321       -12.3899
  55   2.0000      -0.451401       -12.2832
  56   2.0000      -0.443536       -12.0692
  57   2.0000      -0.440416       -11.9843
  58   2.0000      -0.433782       -11.8038
  59   2.0000      -0.425792       -11.5864
  60   2.0000      -0.419783       -11.4229
  61   2.0000      -0.408168       -11.1068
  62   2.0000      -0.404080       -10.9956
  63   2.0000      -0.342821        -9.3286
  64   2.0000      -0.334101        -9.0914
  65   2.0000      -0.317378        -8.6363
  66   2.0000      -0.295992        -8.0543
  67   0.0000       0.037290         1.0147
  68   0.0000       0.059395         1.6162
  69   0.0000       0.112656         3.0655
  70   0.0000       0.116475         3.1694
  71   0.0000       0.126863         3.4521

MULLIKEN ATOMIC CHARGES
-----------------------
   0 S :    0.126547
   1 C :   -0.131820
   2 C :   -0.113341
   3 C :    0.043009
   4 C :   -0.124261
   5 H :   -0.007783
   6 C :    0.049228
   7 H :    0.044047
   8 H :    0.021124
   9 C :   -0.035560
  10 H :    0.029655
  11 H :    0.037088
  12 C :   -0.074492
  13 H :    0.026140
  14 H :    0.018635
  15 H :    0.058734
  16 S :    0.113927
  17 C :   -0.098052
  18 C :   -0.032851
  19 C :   -0.042450
  20 C :   -0.195041
  21 H :    0.004038
  22 C :    0.045440
  23 H :    0.015714
  24 H :    0.040117
  25 C :   -0.054812
  26 H :    0.030679
  27 H :    0.028590
  28 C :   -0.043599
  29 H :    0.035690
  30 H :    0.035736
  31 H :    0.039254
  32 H :    0.050002
  33 H :    0.060667
Sum of atomic charges:   -0.0000000

LOEWDIN ATOMIC CHARGES
----------------------
   0 S :    0.416973
   1 C :   -0.190767
   2 C :   -0.063397
   3 C :   -0.051404
   4 C :   -0.216608
   5 H :    0.021258
   6 C :   -0.035024
   7 H :    0.035971
   8 H :    0.030211
   9 C :   -0.049658
  10 H :    0.035931
  11 H :    0.026981
  12 C :   -0.072551
  13 H :    0.027330
  14 H :    0.017820
  15 H :    0.035954
  16 S :    0.424493
  17 C :   -0.193835
  18 C :   -0.067018
  19 C :   -0.055123
  20 C :   -0.209482
  21 H :    0.024175
  22 C :   -0.035223
  23 H :    0.022251
  24 H :    0.037680
  25 C :   -0.040633
  26 H :    0.028531
  27 H :    0.018251
  28 C :   -0.065143
  29 H :    0.032526
  30 H :    0.026001
  31 H :    0.031387
  32 H :    0.023162
  33 H :    0.028982

  Mayer bond orders larger than 0.100000
B(  0-S ,  1-C ) :   1.1714 B(  0-S ,  4-C ) :   1.1379 B(  1-C ,  2-C ) :   1.5633
B(  1-C , 32-H ) :   0.9647 B(  2-C ,  3-C ) :   1.3032 B(  2-C ,  6-C ) :   1.0064
B(  3-C ,  4-C ) :   1.5644 B(  3-C ,  5-H ) :   0.9872 B(  4-C , 20-C ) :   0.9843
B(  6-C ,  7-H ) :   0.9375 B(  6-C ,  8-H ) :   0.9401 B(  6-C ,  9-C ) :   1.0647
B(  9-C , 10-H ) :   0.9487 B(  9-C , 11-H ) :   0.9616 B(  9-C , 12-C ) :   1.0743
B( 12-C , 13-H ) :   0.9691 B( 12-C , 14-H ) :   0.9760 B( 12-C , 15-H ) :   0.9721
B( 16-S , 17-C ) :   1.1665 B( 16-S , 20-C ) :   1.1608 B( 17-C , 18-C ) :   1.5960
B( 17-C , 20-C ) :   0.1003 B( 17-C , 33-H ) :   0.9602 B( 18-C , 19-C ) :   1.2461
B( 18-C , 21-H ) :   0.9978 B( 19-C , 20-C ) :   1.6028 B( 19-C , 22-C ) :   1.0153
B( 22-C , 23-H ) :   0.9394 B( 22-C , 24-H ) :   0.9276 B( 22-C , 25-C ) :   1.0730
B( 25-C , 26-H ) :   0.9427 B( 25-C , 27-H ) :   0.9625 B( 25-C , 28-C ) :   1.0806
B( 28-C , 29-H ) :   0.9729 B( 28-C , 30-H ) :   0.9721 B( 28-C , 31-H ) :   0.9742

Dispersion correction           -0.014334835
FINAL SINGLE POINT ENERGY     -1339.851691434533

DIPOLE MOMENT
-------------
                                X             Y             Z
Electronic contribution:     -1.35673      13.63223      12.29926
Nuclear contribution   :      1.21514     -13.98967     -12.55896
                        -----------------------------------------
Total Dipole Moment    :     -0.14159      -0.35744      -0.25969
                        -----------------------------------------
Magnitude (a.u.)       :      0.46395
Magnitude (Debye)      :      1.17927

Rotational constants in cm-1:     0.020676     0.007786     0.006515
Rotational constants in MHz :   619.864305   233.408846   195.322462

                             ****ORCA TERMINATED NORMALLY****
TOTAL RUN TIME: 0 days 0 hours 0 minutes 22 seconds 438 msec
