                         Program Version 4.2.1 -  RELEASE  -
|  1> ! wB97X-D3 SP def2-SVP
|  2> %pal
|  3> nprocs 24
|  4> end
|  5>
|  6> * xyz 0 1
|  7> S 	 -32.2925 	 -29.8861 	 -95.684
|  8> C 	 -32.9524 	 -28.5738 	 -96.6848
|  9> C 	 -32.5756 	 -27.3281 	 -96.1584
| 10> C 	 -31.5716 	 -27.4759 	 -95.1577
| 11> C 	 -31.2775 	 -28.8093 	 -94.7928
| 12> H 	 -31.1471 	 -26.6515 	 -94.6529
| 13> C 	 -32.9148 	 -26.027 	 -96.8639
| 14> H 	 -32.515 	 -25.2321 	 -96.216
| 15> H 	 -34.0177 	 -25.9299 	 -96.8707
| 16> C 	 -32.3563 	 -25.8428 	 -98.3726
| 17> H 	 -33.0187 	 -26.4505 	 -99.0691
| 18> H 	 -32.4893 	 -24.8202 	 -98.6966
| 19> C 	 -30.8662 	 -26.2962 	 -98.482
| 20> H 	 -30.7539 	 -27.3649 	 -98.2564
| 21> H 	 -30.388 	 -26.0436 	 -99.427
| 22> H 	 -30.3001 	 -25.8208 	 -97.647
| 23> S 	 -30.864 	 -30.749 	 -92.806
| 24> C 	 -29.351 	 -30.5902 	 -91.889
| 25> C 	 -28.605 	 -29.5514 	 -92.3201
| 26> C 	 -29.2118 	 -28.7402 	 -93.2744
| 27> C 	 -30.3152 	 -29.335 	 -93.8262
| 28> H 	 -27.6074 	 -29.4679 	 -91.8996
| 29> C 	 -28.4473 	 -27.5438 	 -93.8218
| 30> H 	 -27.6607 	 -27.2076 	 -93.1078
| 31> H 	 -29.1348 	 -26.7302 	 -93.7369
| 32> C 	 -27.759 	 -27.9046 	 -95.1294
| 33> H 	 -28.4435 	 -28.4153 	 -95.7954
| 34> H 	 -26.8479 	 -28.5715 	 -95.0545
| 35> C 	 -27.3078 	 -26.5997 	 -95.7692
| 36> H 	 -26.5545 	 -26.0164 	 -95.3241
| 37> H 	 -28.1689 	 -25.9029 	 -96.0596
| 38> H 	 -26.8931 	 -26.8711 	 -96.7379
| 39> H 	 -33.5424 	 -28.7494 	 -97.5078
| 40> H 	 -29.0375 	 -31.2415 	 -91.0386
| 41> *
| 42>
| 43>                          ****END OF INPUT****

CARTESIAN COORDINATES (ANGSTROEM)
---------------------------------
  S    -32.292500  -29.886100  -95.684000
  C    -32.952400  -28.573800  -96.684800
  C    -32.575600  -27.328100  -96.158400
  C    -31.571600  -27.475900  -95.157700
  C    -31.277500  -28.809300  -94.792800
  H    -31.147100  -26.651500  -94.652900
  C    -32.914800  -26.027000  -96.863900
  H    -32.515000  -25.232100  -96.216000
  H    -34.017700  -25.929900  -96.870700
  C    -32.356300  -25.842800  -98.372600
  H    -33.018700  -26.450500  -99.069100
  H    -32.489300  -24.820200  -98.696600
  C    -30.866200  -26.296200  -98.482000
  H    -30.753900  -27.364900  -98.256400
  H    -30.388000  -26.043600  -99.427000
  H    -30.300100  -25.820800  -97.647000
  S    -30.864000  -30.749000  -92.806000
  C    -29.351000  -30.590200  -91.889000
  C    -28.605000  -29.551400  -92.320100
  C    -29.211800  -28.740200  -93.274400
  C    -30.315200  -29.335000  -93.826200
  H    -27.607400  -29.467900  -91.899600
  C    -28.447300  -27.543800  -93.821800
  H    -27.660700  -27.207600  -93.107800
  H    -29.134800  -26.730200  -93.736900
  C    -27.759000  -27.904600  -95.129400
  H    -28.443500  -28.415300  -95.795400
  H    -26.847900  -28.571500  -95.054500
  C    -27.307800  -26.599700  -95.769200
  H    -26.554500  -26.016400  -95.324100
  H    -28.168900  -25.902900  -96.059600
  H    -26.893100  -26.871100  -96.737900
  H    -33.542400  -28.749400  -97.507800
  H    -29.037500  -31.241500  -91.038600

 Total Charge           Charge          ....    0
 Multiplicity           Mult            ....    1
 Number of Electrons    NEL             ....  134
 Basis Dimension        Dim             ....  322

ORBITAL ENERGIES
----------------

  NO   OCC          E(Eh)            E(eV)
   0   2.0000     -88.966584     -2420.9038
   1   2.0000     -88.965118     -2420.8639
   2   2.0000     -10.333138      -281.1790
   3   2.0000     -10.330877      -281.1175
   4   2.0000     -10.317946      -280.7656
   5   2.0000     -10.311831      -280.5992
   6   2.0000     -10.304077      -280.3882
   7   2.0000     -10.301012      -280.3048
   8   2.0000     -10.300807      -280.2992
   9   2.0000     -10.298377      -280.2331
  10   2.0000     -10.294256      -280.1210
  11   2.0000     -10.293354      -280.0964
  12   2.0000     -10.291767      -280.0532
  13   2.0000     -10.286272      -279.9037
  14   2.0000     -10.280410      -279.7442
  15   2.0000     -10.275872      -279.6207
  16   2.0000      -8.081184      -219.9002
  17   2.0000      -8.078546      -219.8284
  18   2.0000      -6.039556      -164.3447
  19   2.0000      -6.037197      -164.2805
  20   2.0000      -6.035629      -164.2378
  21   2.0000      -6.033494      -164.1797
  22   2.0000      -6.032197      -164.1444
  23   2.0000      -6.028978      -164.0568
  24   2.0000      -1.004533       -27.3347
  25   2.0000      -0.982199       -26.7270
  26   2.0000      -0.912698       -24.8358
  27   2.0000      -0.902535       -24.5592
  28   2.0000      -0.863058       -23.4850
  29   2.0000      -0.852595       -23.2003
  30   2.0000      -0.841117       -22.8879
  31   2.0000      -0.811362       -22.0783
  32   2.0000      -0.781842       -21.2750
  33   2.0000      -0.771773       -21.0010
  34   2.0000      -0.709629       -19.3100
  35   2.0000      -0.703995       -19.1567
  36   2.0000      -0.696732       -18.9590
  37   2.0000      -0.660663       -17.9776
  38   2.0000      -0.640570       -17.4308
  39   2.0000      -0.615505       -16.7487
  40   2.0000      -0.594144       -16.1675
  41   2.0000      -0.565119       -15.3777
  42   2.0000      -0.562845       -15.3158
  43   2.0000      -0.547152       -14.8888
  44   2.0000      -0.540990       -14.7211
  45   2.0000      -0.534593       -14.5470
  46   2.0000      -0.510521       -13.8920
  47   2.0000      -0.509049       -13.8519
  48   2.0000      -0.501870       -13.6566
  49   2.0000      -0.496303       -13.5051
  50   2.0000      -0.492441       -13.4000
  51   2.0000      -0.479299       -13.0424
  52   2.0000      -0.469866       -12.7857
  53   2.0000      -0.463816       -12.6211
  54   2.0000      -0.454392       -12.3646
  55   2.0000      -0.450704       -12.2643
  56   2.0000      -0.442589       -12.0435
  57   2.0000      -0.436397       -11.8750
  58   2.0000      -0.434367       -11.8197
  59   2.0000      -0.429640       -11.6911
  60   2.0000      -0.421818       -11.4782
  61   2.0000      -0.411198       -11.1893
  62   2.0000      -0.404210       -10.9991
  63   2.0000      -0.353548        -9.6205
  64   2.0000      -0.334917        -9.1136
  65   2.0000      -0.330936        -9.0052
  66   2.0000      -0.281284        -7.6541
  67   0.0000       0.018643         0.5073
  68   0.0000       0.066805         1.8179
  69   0.0000       0.100595         2.7373
  70   0.0000       0.120007         3.2656
  71   0.0000       0.125587         3.4174

MULLIKEN ATOMIC CHARGES
-----------------------
   0 S :    0.100229
   1 C :   -0.103520
   2 C :   -0.085698
   3 C :    0.013795
   4 C :   -0.129868
   5 H :   -0.012294
   6 C :    0.034594
   7 H :    0.027018
   8 H :    0.044841
   9 C :   -0.080438
  10 H :    0.034398
  11 H :    0.035869
  12 C :   -0.061641
  13 H :    0.048872
  14 H :    0.043001
  15 H :    0.026626
  16 S :    0.077237
  17 C :   -0.098254
  18 C :   -0.026061
  19 C :   -0.057586
  20 C :   -0.101014
  21 H :    0.017721
  22 C :    0.059330
  23 H :    0.017859
  24 H :    0.022264
  25 C :   -0.052164
  26 H :    0.041692
  27 H :    0.044441
  28 C :   -0.052224
  29 H :    0.025235
  30 H :    0.036206
  31 H :    0.019193
  32 H :    0.022241
  33 H :    0.068099
Sum of atomic charges:   -0.0000000

LOEWDIN ATOMIC CHARGES
----------------------
   0 S :    0.409352
   1 C :   -0.175609
   2 C :   -0.061885
   3 C :   -0.069350
   4 C :   -0.194618
   5 H :    0.019305
   6 C :   -0.034825
   7 H :    0.028528
   8 H :    0.036096
   9 C :   -0.036004
  10 H :    0.025058
  11 H :    0.022373
  12 C :   -0.072565
  13 H :    0.030537
  14 H :    0.025527
  15 H :    0.026165
  16 S :    0.353972
  17 C :   -0.175245
  18 C :   -0.075878
  19 C :   -0.055379
  20 C :   -0.172071
  21 H :    0.034710
  22 C :   -0.030132
  23 H :    0.035055
  24 H :    0.025616
  25 C :   -0.033418
  26 H :    0.027976
  27 H :    0.037136
  28 C :   -0.069938
  29 H :    0.015736
  30 H :    0.030432
  31 H :    0.024386
  32 H :    0.009230
  33 H :    0.039726

  Mayer bond orders larger than 0.100000
B(  0-S ,  1-C ) :   1.1495 B(  0-S ,  4-C ) :   1.1643 B(  1-C ,  2-C ) :   1.5546
B(  1-C ,  4-C ) :   0.1083 B(  1-C , 32-H ) :   0.9886 B(  2-C ,  3-C ) :   1.2758
B(  2-C ,  6-C ) :   1.0339 B(  3-C ,  4-C ) :   1.5253 B(  3-C ,  5-H ) :   0.9959
B(  4-C , 20-C ) :   1.0538 B(  6-C ,  7-H ) :   0.9451 B(  6-C ,  8-H ) :   0.9409
B(  6-C ,  9-C ) :   1.0527 B(  9-C , 10-H ) :   0.9568 B(  9-C , 11-H ) :   0.9608
B(  9-C , 12-C ) :   1.0702 B( 12-C , 13-H ) :   0.9686 B( 12-C , 14-H ) :   0.9750
B( 12-C , 15-H ) :   0.9756 B( 16-S , 17-C ) :   1.1314 B( 16-S , 20-C ) :   1.1036
B( 17-C , 18-C ) :   1.6542 B( 17-C , 20-C ) :   0.1019 B( 17-C , 33-H ) :   0.9569
B( 18-C , 19-C ) :   1.2156 B( 18-C , 21-H ) :   0.9878 B( 19-C , 20-C ) :   1.6335
B( 19-C , 22-C ) :   1.0390 B( 22-C , 23-H ) :   0.9297 B( 22-C , 24-H ) :   0.9397
B( 22-C , 25-C ) :   1.0548 B( 25-C , 26-H ) :   0.9585 B( 25-C , 27-H ) :   0.9513
B( 25-C , 28-C ) :   1.0823 B( 28-C , 29-H ) :   0.9742 B( 28-C , 30-H ) :   0.9735
B( 28-C , 31-H ) :   0.9701

Dispersion correction           -0.015944903
FINAL SINGLE POINT ENERGY     -1339.867829717578

DIPOLE MOMENT
-------------
                                X             Y             Z
Electronic contribution:    -12.16900     -22.78074      15.98269
Nuclear contribution   :     12.62899      23.37857     -16.12759
                        -----------------------------------------
Total Dipole Moment    :      0.45999       0.59783      -0.14490
                        -----------------------------------------
Magnitude (a.u.)       :      0.76810
Magnitude (Debye)      :      1.95236

Rotational constants in cm-1:     0.019660     0.010028     0.007230
Rotational constants in MHz :   589.384631   300.644368   216.736168

                             ****ORCA TERMINATED NORMALLY****
TOTAL RUN TIME: 0 days 0 hours 0 minutes 23 seconds 108 msec
