                         Program Version 4.2.1 -  RELEASE  -
|  1> ! wB97X-D3 SP def2-SVP
|  2> %pal
|  3> nprocs 24
|  4> end
|  5>
|  6> * xyz 0 1
|  7> S 	 -39.3102 	 -46.3943 	 -80.8202
|  8> C 	 -39.0485 	 -47.4663 	 -82.1306
|  9> C 	 -39.226 	 -48.7798 	 -81.7988
| 10> C 	 -39.6913 	 -48.9104 	 -80.4689
| 11> C 	 -39.8381 	 -47.7197 	 -79.7858
| 12> H 	 -39.9964 	 -49.8304 	 -79.969
| 13> C 	 -38.9002 	 -49.9503 	 -82.7346
| 14> H 	 -39.0809 	 -50.8711 	 -82.2782
| 15> H 	 -37.8518 	 -49.9174 	 -82.9711
| 16> C 	 -39.5876 	 -49.7884 	 -84.0914
| 17> H 	 -40.5108 	 -50.4393 	 -84.0665
| 18> H 	 -39.8871 	 -48.692 	 -84.3158
| 19> C 	 -38.7389 	 -50.3142 	 -85.2597
| 20> H 	 -39.4054 	 -50.4772 	 -86.0585
| 21> H 	 -37.9469 	 -49.533 	 -85.5511
| 22> H 	 -38.2213 	 -51.2187 	 -84.9085
| 23> S 	 -38.8801 	 -46.6204 	 -77.3677
| 24> C 	 -39.7679 	 -46.9373 	 -75.908
| 25> C 	 -40.87 	 -47.6543 	 -76.1993
| 26> C 	 -41.1014 	 -47.9305 	 -77.5542
| 27> C 	 -40.05 	 -47.5485 	 -78.3526
| 28> H 	 -41.5992 	 -47.8508 	 -75.3928
| 29> C 	 -42.4056 	 -48.5539 	 -78.0423
| 30> H 	 -43.0234 	 -48.576 	 -77.146
| 31> H 	 -42.2539 	 -49.6299 	 -78.2705
| 32> C 	 -43.1879 	 -47.8253 	 -79.181
| 33> H 	 -44.0767 	 -48.3286 	 -79.1988
| 34> H 	 -42.7501 	 -47.8144 	 -80.21
| 35> C 	 -43.5212 	 -46.3683 	 -78.861
| 36> H 	 -43.9598 	 -45.9657 	 -79.7277
| 37> H 	 -42.7479 	 -45.6449 	 -78.5648
| 38> H 	 -44.1532 	 -46.3017 	 -78.0672
| 39> H 	 -38.6235 	 -47.1048 	 -83.0465
| 40> H 	 -39.4628 	 -46.6749 	 -74.8827
| 41> *
| 42>
| 43>                          ****END OF INPUT****

CARTESIAN COORDINATES (ANGSTROEM)
---------------------------------
  S    -39.310200  -46.394300  -80.820200
  C    -39.048500  -47.466300  -82.130600
  C    -39.226000  -48.779800  -81.798800
  C    -39.691300  -48.910400  -80.468900
  C    -39.838100  -47.719700  -79.785800
  H    -39.996400  -49.830400  -79.969000
  C    -38.900200  -49.950300  -82.734600
  H    -39.080900  -50.871100  -82.278200
  H    -37.851800  -49.917400  -82.971100
  C    -39.587600  -49.788400  -84.091400
  H    -40.510800  -50.439300  -84.066500
  H    -39.887100  -48.692000  -84.315800
  C    -38.738900  -50.314200  -85.259700
  H    -39.405400  -50.477200  -86.058500
  H    -37.946900  -49.533000  -85.551100
  H    -38.221300  -51.218700  -84.908500
  S    -38.880100  -46.620400  -77.367700
  C    -39.767900  -46.937300  -75.908000
  C    -40.870000  -47.654300  -76.199300
  C    -41.101400  -47.930500  -77.554200
  C    -40.050000  -47.548500  -78.352600
  H    -41.599200  -47.850800  -75.392800
  C    -42.405600  -48.553900  -78.042300
  H    -43.023400  -48.576000  -77.146000
  H    -42.253900  -49.629900  -78.270500
  C    -43.187900  -47.825300  -79.181000
  H    -44.076700  -48.328600  -79.198800
  H    -42.750100  -47.814400  -80.210000
  C    -43.521200  -46.368300  -78.861000
  H    -43.959800  -45.965700  -79.727700
  H    -42.747900  -45.644900  -78.564800
  H    -44.153200  -46.301700  -78.067200
  H    -38.623500  -47.104800  -83.046500
  H    -39.462800  -46.674900  -74.882700

 Total Charge           Charge          ....    0
 Multiplicity           Mult            ....    1
 Number of Electrons    NEL             ....  134
 Basis Dimension        Dim             ....  322

ORBITAL ENERGIES
----------------

  NO   OCC          E(Eh)            E(eV)
   0   2.0000     -88.964935     -2420.8590
   1   2.0000     -88.961690     -2420.7706
   2   2.0000     -10.326704      -281.0039
   3   2.0000     -10.324609      -280.9469
   4   2.0000     -10.313605      -280.6474
   5   2.0000     -10.307972      -280.4942
   6   2.0000     -10.298604      -280.2393
   7   2.0000     -10.295714      -280.1606
   8   2.0000     -10.294124      -280.1174
   9   2.0000     -10.293508      -280.1006
  10   2.0000     -10.293036      -280.0877
  11   2.0000     -10.287135      -279.9272
  12   2.0000     -10.286305      -279.9046
  13   2.0000     -10.282158      -279.7917
  14   2.0000     -10.280208      -279.7387
  15   2.0000     -10.257623      -279.1241
  16   2.0000      -8.080196      -219.8733
  17   2.0000      -8.076184      -219.7641
  18   2.0000      -6.038600      -164.3187
  19   2.0000      -6.034764      -164.2143
  20   2.0000      -6.034577      -164.2092
  21   2.0000      -6.031097      -164.1145
  22   2.0000      -6.030708      -164.1039
  23   2.0000      -6.026887      -163.9999
  24   2.0000      -1.008221       -27.4351
  25   2.0000      -0.988740       -26.9050
  26   2.0000      -0.913220       -24.8500
  27   2.0000      -0.904217       -24.6050
  28   2.0000      -0.868985       -23.6463
  29   2.0000      -0.852236       -23.1905
  30   2.0000      -0.846806       -23.0428
  31   2.0000      -0.814255       -22.1570
  32   2.0000      -0.784344       -21.3431
  33   2.0000      -0.774071       -21.0635
  34   2.0000      -0.711468       -19.3600
  35   2.0000      -0.694063       -18.8864
  36   2.0000      -0.686599       -18.6833
  37   2.0000      -0.659192       -17.9375
  38   2.0000      -0.644116       -17.5273
  39   2.0000      -0.615933       -16.7604
  40   2.0000      -0.589515       -16.0415
  41   2.0000      -0.576433       -15.6855
  42   2.0000      -0.557250       -15.1635
  43   2.0000      -0.553282       -15.0556
  44   2.0000      -0.543637       -14.7931
  45   2.0000      -0.527944       -14.3661
  46   2.0000      -0.517331       -14.0773
  47   2.0000      -0.510539       -13.8925
  48   2.0000      -0.501094       -13.6355
  49   2.0000      -0.496305       -13.5051
  50   2.0000      -0.491798       -13.3825
  51   2.0000      -0.485159       -13.2019
  52   2.0000      -0.474568       -12.9137
  53   2.0000      -0.467078       -12.7098
  54   2.0000      -0.458248       -12.4696
  55   2.0000      -0.440821       -11.9953
  56   2.0000      -0.436861       -11.8876
  57   2.0000      -0.436495       -11.8776
  58   2.0000      -0.428045       -11.6477
  59   2.0000      -0.423238       -11.5169
  60   2.0000      -0.422142       -11.4871
  61   2.0000      -0.418720       -11.3940
  62   2.0000      -0.409933       -11.1549
  63   2.0000      -0.347587        -9.4583
  64   2.0000      -0.330028        -8.9805
  65   2.0000      -0.329879        -8.9765
  66   2.0000      -0.291138        -7.9223
  67   0.0000       0.031302         0.8518
  68   0.0000       0.069324         1.8864
  69   0.0000       0.117684         3.2023
  70   0.0000       0.129311         3.5187
  71   0.0000       0.134731         3.6662

MULLIKEN ATOMIC CHARGES
-----------------------
   0 S :    0.113805
   1 C :   -0.133536
   2 C :   -0.082621
   3 C :    0.029264
   4 C :   -0.173701
   5 H :    0.012114
   6 C :    0.152246
   7 H :    0.007109
   8 H :    0.025161
   9 C :   -0.159438
  10 H :    0.038150
  11 H :    0.053309
  12 C :   -0.055689
  13 H :    0.033009
  14 H :    0.043108
  15 H :    0.038090
  16 S :    0.097771
  17 C :   -0.093983
  18 C :   -0.044890
  19 C :   -0.046267
  20 C :   -0.155945
  21 H :    0.022744
  22 C :    0.065590
  23 H :    0.005625
  24 H :    0.040679
  25 C :   -0.028856
  26 H :    0.008935
  27 H :    0.052784
  28 C :   -0.024593
  29 H :    0.019409
  30 H :    0.036363
  31 H :   -0.003449
  32 H :    0.044228
  33 H :    0.063474
Sum of atomic charges:    0.0000000

LOEWDIN ATOMIC CHARGES
----------------------
   0 S :    0.417991
   1 C :   -0.202919
   2 C :   -0.063028
   3 C :   -0.057441
   4 C :   -0.193331
   5 H :    0.033312
   6 C :   -0.024022
   7 H :    0.021512
   8 H :    0.031490
   9 C :   -0.049793
  10 H :    0.028122
  11 H :    0.032423
  12 C :   -0.067718
  13 H :    0.019908
  14 H :    0.031813
  15 H :    0.025519
  16 S :    0.388789
  17 C :   -0.190042
  18 C :   -0.084089
  19 C :   -0.064449
  20 C :   -0.185324
  21 H :    0.034325
  22 C :   -0.030382
  23 H :    0.028422
  24 H :    0.034616
  25 C :   -0.029041
  26 H :    0.015587
  27 H :    0.033604
  28 C :   -0.058992
  29 H :    0.022562
  30 H :    0.031031
  31 H :    0.008365
  32 H :    0.022496
  33 H :    0.038685

  Mayer bond orders larger than 0.100000
B(  0-S ,  1-C ) :   1.1585 B(  0-S ,  4-C ) :   1.1520 B(  1-C ,  2-C ) :   1.5916
B(  1-C , 32-H ) :   0.9667 B(  2-C ,  3-C ) :   1.2694 B(  2-C ,  6-C ) :   1.0149
B(  3-C ,  4-C ) :   1.5644 B(  3-C ,  5-H ) :   0.9927 B(  4-C , 20-C ) :   1.0517
B(  6-C ,  7-H ) :   0.9362 B(  6-C ,  8-H ) :   0.9430 B(  6-C ,  9-C ) :   1.0387
B(  9-C , 10-H ) :   0.9586 B(  9-C , 11-H ) :   0.9651 B(  9-C , 12-C ) :   1.0729
B( 12-C , 13-H ) :   0.9748 B( 12-C , 14-H ) :   0.9740 B( 12-C , 15-H ) :   0.9756
B( 16-S , 17-C ) :   1.1482 B( 16-S , 20-C ) :   1.1285 B( 17-C , 18-C ) :   1.6250
B( 17-C , 33-H ) :   0.9615 B( 18-C , 19-C ) :   1.2603 B( 18-C , 21-H ) :   0.9782
B( 19-C , 20-C ) :   1.5972 B( 19-C , 22-C ) :   1.0315 B( 22-C , 23-H ) :   0.9325
B( 22-C , 24-H ) :   0.9302 B( 22-C , 25-C ) :   1.0702 B( 25-C , 26-H ) :   0.9494
B( 25-C , 27-H ) :   0.9584 B( 25-C , 28-C ) :   1.0790 B( 28-C , 29-H ) :   0.9734
B( 28-C , 30-H ) :   0.9732 B( 28-C , 31-H ) :   0.9749

Dispersion correction           -0.014760213
FINAL SINGLE POINT ENERGY     -1339.873261375694

DIPOLE MOMENT
-------------
                                X             Y             Z
Electronic contribution:     12.37343      12.45749      16.23911
Nuclear contribution   :    -12.69736     -12.95609     -16.39028
                        -----------------------------------------
Total Dipole Moment    :     -0.32393      -0.49860      -0.15117
                        -----------------------------------------
Magnitude (a.u.)       :      0.61350
Magnitude (Debye)      :      1.55940

Rotational constants in cm-1:     0.023971     0.007568     0.006754
Rotational constants in MHz :   718.618874   226.897387   202.475354

                             ****ORCA TERMINATED NORMALLY****
TOTAL RUN TIME: 0 days 0 hours 0 minutes 22 seconds 161 msec
