                         Program Version 4.2.1 -  RELEASE  -
|  1> ! wB97X-D3 SP def2-SVP
|  2> %pal
|  3> nprocs 24
|  4> end
|  5>
|  6> * xyz 0 1
|  7> S 	 -54.4513 	 -42.9271 	 -76.3709
|  8> C 	 -55.0292 	 -43.0986 	 -74.8054
|  9> C 	 -54.3162 	 -44.1355 	 -74.2078
| 10> C 	 -53.1414 	 -44.5101 	 -74.8917
| 11> C 	 -53.0714 	 -43.9772 	 -76.0757
| 12> H 	 -52.3332 	 -45.1877 	 -74.5935
| 13> C 	 -54.6022 	 -44.6847 	 -72.8649
| 14> H 	 -54.862 	 -43.8351 	 -72.2559
| 15> H 	 -53.6546 	 -45.0787 	 -72.413
| 16> C 	 -55.6556 	 -45.6873 	 -72.668
| 17> H 	 -56.6209 	 -45.4199 	 -73.0483
| 18> H 	 -55.4323 	 -46.4376 	 -73.4118
| 19> C 	 -55.6644 	 -46.1778 	 -71.1338
| 20> H 	 -56.3021 	 -45.4072 	 -70.6246
| 21> H 	 -56.1879 	 -47.1523 	 -71.0971
| 22> H 	 -54.6378 	 -46.1469 	 -70.7856
| 23> S 	 -52.5577 	 -45.0202 	 -78.6462
| 24> C 	 -50.9009 	 -45.0588 	 -79.1923
| 25> C 	 -50.0075 	 -44.5344 	 -78.2744
| 26> C 	 -50.6712 	 -44.044 	 -77.0994
| 27> C 	 -52.0457 	 -44.2325 	 -77.1102
| 28> H 	 -48.9728 	 -44.5816 	 -78.5216
| 29> C 	 -49.8654 	 -43.3462 	 -76.0191
| 30> H 	 -50.5438 	 -42.718 	 -75.4941
| 31> H 	 -49.2633 	 -42.6044 	 -76.5861
| 32> C 	 -48.8394 	 -44.142 	 -75.2621
| 33> H 	 -49.2783 	 -45.0147 	 -74.8382
| 34> H 	 -48.5207 	 -43.5372 	 -74.4557
| 35> C 	 -47.6307 	 -44.3916 	 -76.1028
| 36> H 	 -47.2198 	 -43.573 	 -76.6518
| 37> H 	 -47.8365 	 -45.1551 	 -76.7874
| 38> H 	 -46.8607 	 -44.7561 	 -75.4357
| 39> H 	 -55.9255 	 -42.6157 	 -74.4938
| 40> H 	 -50.6461 	 -45.3489 	 -80.2566
| 41> *
| 42>
| 43>                          ****END OF INPUT****

CARTESIAN COORDINATES (ANGSTROEM)
---------------------------------
  S    -54.451300  -42.927100  -76.370900
  C    -55.029200  -43.098600  -74.805400
  C    -54.316200  -44.135500  -74.207800
  C    -53.141400  -44.510100  -74.891700
  C    -53.071400  -43.977200  -76.075700
  H    -52.333200  -45.187700  -74.593500
  C    -54.602200  -44.684700  -72.864900
  H    -54.862000  -43.835100  -72.255900
  H    -53.654600  -45.078700  -72.413000
  C    -55.655600  -45.687300  -72.668000
  H    -56.620900  -45.419900  -73.048300
  H    -55.432300  -46.437600  -73.411800
  C    -55.664400  -46.177800  -71.133800
  H    -56.302100  -45.407200  -70.624600
  H    -56.187900  -47.152300  -71.097100
  H    -54.637800  -46.146900  -70.785600
  S    -52.557700  -45.020200  -78.646200
  C    -50.900900  -45.058800  -79.192300
  C    -50.007500  -44.534400  -78.274400
  C    -50.671200  -44.044000  -77.099400
  C    -52.045700  -44.232500  -77.110200
  H    -48.972800  -44.581600  -78.521600
  C    -49.865400  -43.346200  -76.019100
  H    -50.543800  -42.718000  -75.494100
  H    -49.263300  -42.604400  -76.586100
  C    -48.839400  -44.142000  -75.262100
  H    -49.278300  -45.014700  -74.838200
  H    -48.520700  -43.537200  -74.455700
  C    -47.630700  -44.391600  -76.102800
  H    -47.219800  -43.573000  -76.651800
  H    -47.836500  -45.155100  -76.787400
  H    -46.860700  -44.756100  -75.435700
  H    -55.925500  -42.615700  -74.493800
  H    -50.646100  -45.348900  -80.256600

 Total Charge           Charge          ....    0
 Multiplicity           Mult            ....    1
 Number of Electrons    NEL             ....  134
 Basis Dimension        Dim             ....  322

ORBITAL ENERGIES
----------------

  NO   OCC          E(Eh)            E(eV)
   0   2.0000     -88.962911     -2420.8039
   1   2.0000     -88.959813     -2420.7196
   2   2.0000     -10.328154      -281.0434
   3   2.0000     -10.320555      -280.8366
   4   2.0000     -10.319694      -280.8131
   5   2.0000     -10.309710      -280.5415
   6   2.0000     -10.303872      -280.3826
   7   2.0000     -10.295989      -280.1681
   8   2.0000     -10.291221      -280.0384
   9   2.0000     -10.289255      -279.9849
  10   2.0000     -10.285216      -279.8750
  11   2.0000     -10.283932      -279.8400
  12   2.0000     -10.279667      -279.7240
  13   2.0000     -10.278135      -279.6823
  14   2.0000     -10.277605      -279.6679
  15   2.0000     -10.268251      -279.4133
  16   2.0000      -8.077147      -219.7903
  17   2.0000      -8.076310      -219.7676
  18   2.0000      -6.035682      -164.2393
  19   2.0000      -6.034659      -164.2114
  20   2.0000      -6.031763      -164.1326
  21   2.0000      -6.030538      -164.0993
  22   2.0000      -6.027884      -164.0271
  23   2.0000      -6.027144      -164.0069
  24   2.0000      -1.016053       -27.6482
  25   2.0000      -0.984621       -26.7929
  26   2.0000      -0.920332       -25.0435
  27   2.0000      -0.916041       -24.9267
  28   2.0000      -0.874831       -23.8054
  29   2.0000      -0.850836       -23.1524
  30   2.0000      -0.849444       -23.1146
  31   2.0000      -0.817138       -22.2354
  32   2.0000      -0.784634       -21.3510
  33   2.0000      -0.765814       -20.8388
  34   2.0000      -0.710827       -19.3426
  35   2.0000      -0.705563       -19.1994
  36   2.0000      -0.691018       -18.8036
  37   2.0000      -0.660716       -17.9790
  38   2.0000      -0.653085       -17.7713
  39   2.0000      -0.621932       -16.9236
  40   2.0000      -0.597920       -16.2702
  41   2.0000      -0.575433       -15.6583
  42   2.0000      -0.562121       -15.2961
  43   2.0000      -0.552790       -15.0422
  44   2.0000      -0.548796       -14.9335
  45   2.0000      -0.523416       -14.2429
  46   2.0000      -0.523265       -14.2388
  47   2.0000      -0.513514       -13.9734
  48   2.0000      -0.509428       -13.8622
  49   2.0000      -0.499198       -13.5839
  50   2.0000      -0.490457       -13.3460
  51   2.0000      -0.480376       -13.0717
  52   2.0000      -0.472659       -12.8617
  53   2.0000      -0.469977       -12.7887
  54   2.0000      -0.459934       -12.5154
  55   2.0000      -0.452270       -12.3069
  56   2.0000      -0.442079       -12.0296
  57   2.0000      -0.440800       -11.9948
  58   2.0000      -0.437061       -11.8930
  59   2.0000      -0.421728       -11.4758
  60   2.0000      -0.415730       -11.3126
  61   2.0000      -0.411258       -11.1909
  62   2.0000      -0.403321       -10.9749
  63   2.0000      -0.350836        -9.5467
  64   2.0000      -0.329369        -8.9626
  65   2.0000      -0.324504        -8.8302
  66   2.0000      -0.296681        -8.0731
  67   0.0000       0.040733         1.1084
  68   0.0000       0.063949         1.7401
  69   0.0000       0.119990         3.2651
  70   0.0000       0.123362         3.3569
  71   0.0000       0.128188         3.4882

MULLIKEN ATOMIC CHARGES
-----------------------
   0 S :    0.109981
   1 C :   -0.094305
   2 C :   -0.085172
   3 C :    0.027189
   4 C :   -0.153424
   5 H :    0.019720
   6 C :    0.036187
   7 H :    0.011361
   8 H :    0.016844
   9 C :   -0.047130
  10 H :    0.008717
  11 H :    0.007782
  12 C :   -0.057366
  13 H :    0.045900
  14 H :    0.051750
  15 H :    0.040631
  16 S :    0.097855
  17 C :   -0.118180
  18 C :   -0.035902
  19 C :   -0.023820
  20 C :   -0.171293
  21 H :    0.012909
  22 C :    0.060512
  23 H :    0.015922
  24 H :    0.018544
  25 C :   -0.002129
  26 H :    0.020199
  27 H :    0.018192
  28 C :   -0.030049
  29 H :    0.023665
  30 H :    0.023901
  31 H :    0.025618
  32 H :    0.046611
  33 H :    0.078781
Sum of atomic charges:   -0.0000000

LOEWDIN ATOMIC CHARGES
----------------------
   0 S :    0.425820
   1 C :   -0.205941
   2 C :   -0.065450
   3 C :   -0.063393
   4 C :   -0.192616
   5 H :    0.042604
   6 C :   -0.044995
   7 H :    0.025912
   8 H :    0.030336
   9 C :   -0.045112
  10 H :    0.016931
  11 H :    0.018343
  12 C :   -0.059478
  13 H :    0.033388
  14 H :    0.032331
  15 H :    0.024298
  16 S :    0.380512
  17 C :   -0.188568
  18 C :   -0.077558
  19 C :   -0.051230
  20 C :   -0.186459
  21 H :    0.028917
  22 C :   -0.031957
  23 H :    0.024363
  24 H :    0.035960
  25 C :   -0.030729
  26 H :    0.021744
  27 H :    0.024031
  28 C :   -0.056743
  29 H :    0.022907
  30 H :    0.017089
  31 H :    0.028670
  32 H :    0.025660
  33 H :    0.040411

  Mayer bond orders larger than 0.100000
B(  0-S ,  1-C ) :   1.1590 B(  0-S ,  4-C ) :   1.1495 B(  1-C ,  2-C ) :   1.5750
B(  1-C , 32-H ) :   0.9809 B(  2-C ,  3-C ) :   1.2229 B(  2-C ,  6-C ) :   1.0299
B(  3-C ,  4-C ) :   1.6205 B(  3-C ,  5-H ) :   0.9990 B(  4-C , 20-C ) :   1.0015
B(  6-C ,  7-H ) :   0.9339 B(  6-C ,  8-H ) :   0.9404 B(  6-C ,  9-C ) :   1.0700
B(  9-C , 10-H ) :   0.9531 B(  9-C , 11-H ) :   0.9496 B(  9-C , 12-C ) :   1.0531
B( 12-C , 13-H ) :   0.9784 B( 12-C , 14-H ) :   0.9762 B( 12-C , 15-H ) :   0.9769
B( 16-S , 17-C ) :   1.1580 B( 16-S , 20-C ) :   1.1250 B( 17-C , 18-C ) :   1.6255
B( 17-C , 33-H ) :   0.9546 B( 18-C , 19-C ) :   1.2089 B( 18-C , 21-H ) :   0.9929
B( 19-C , 20-C ) :   1.6313 B( 19-C , 22-C ) :   1.0405 B( 22-C , 23-H ) :   0.9326
B( 22-C , 24-H ) :   0.9352 B( 22-C , 25-C ) :   1.0659 B( 25-C , 26-H ) :   0.9504
B( 25-C , 27-H ) :   0.9489 B( 25-C , 28-C ) :   1.0925 B( 28-C , 29-H ) :   0.9723
B( 28-C , 30-H ) :   0.9679 B( 28-C , 31-H ) :   0.9651

Dispersion correction           -0.013902847
FINAL SINGLE POINT ENERGY     -1339.858326636081

DIPOLE MOMENT
-------------
                                X             Y             Z
Electronic contribution:     -9.76123       6.11939     -22.28960
Nuclear contribution   :     10.13285      -6.19663      22.74254
                        -----------------------------------------
Total Dipole Moment    :      0.37162      -0.07724       0.45294
                        -----------------------------------------
Magnitude (a.u.)       :      0.59095
Magnitude (Debye)      :      1.50208

Rotational constants in cm-1:     0.019994     0.007602     0.006341
Rotational constants in MHz :   599.403696   227.903833   190.109097

                             ****ORCA TERMINATED NORMALLY****
TOTAL RUN TIME: 0 days 0 hours 0 minutes 20 seconds 184 msec
