                         Program Version 4.2.1 -  RELEASE  -
|  1> ! wB97X-D3 SP def2-SVP
|  2> %pal
|  3> nprocs 24
|  4> end
|  5>
|  6> * xyz 0 1
|  7> S 	 -40.3752 	 10.0852 	 25.7703
|  8> C 	 -39.8139 	 11.1328 	 27.1058
|  9> C 	 -39.1877 	 10.4048 	 28.1127
| 10> C 	 -39.1762 	 9.03232 	 27.8149
| 11> C 	 -39.8308 	 8.74397 	 26.6279
| 12> H 	 -38.7669 	 8.13389 	 28.3263
| 13> C 	 -38.5773 	 10.9484 	 29.4032
| 14> H 	 -38.21 	 11.9659 	 29.2402
| 15> H 	 -37.7115 	 10.3602 	 29.5479
| 16> C 	 -39.4084 	 10.7046 	 30.651
| 17> H 	 -38.9785 	 11.4831 	 31.3506
| 18> H 	 -40.4712 	 10.8832 	 30.502
| 19> C 	 -39.19 	 9.34712 	 31.2709
| 20> H 	 -38.1703 	 9.12043 	 31.4519
| 21> H 	 -39.7661 	 9.38853 	 32.225
| 22> H 	 -39.5732 	 8.5663 	 30.6328
| 23> S 	 -39.0823 	 6.77634 	 24.8054
| 24> C 	 -39.6642 	 5.17176 	 25.0478
| 25> C 	 -40.6373 	 5.08592 	 26.0024
| 26> C 	 -40.7457 	 6.30607 	 26.7864
| 27> C 	 -40.0826 	 7.33478 	 26.1823
| 28> H 	 -41.0981 	 4.10907 	 26.1875
| 29> C 	 -41.5504 	 6.44079 	 28.0895
| 30> H 	 -42.4216 	 7.12665 	 27.8242
| 31> H 	 -40.9122 	 6.9372 	 28.7943
| 32> C 	 -42.073 	 5.22096 	 28.7528
| 33> H 	 -42.7884 	 4.76581 	 27.997
| 34> H 	 -42.7175 	 5.56341 	 29.5964
| 35> C 	 -41.0604 	 4.19898 	 29.3137
| 36> H 	 -41.6116 	 3.42594 	 29.7414
| 37> H 	 -40.4561 	 4.72033 	 30.1068
| 38> H 	 -40.3575 	 3.7657 	 28.6515
| 39> H 	 -39.9479 	 12.2014 	 27.1151
| 40> H 	 -39.3899 	 4.32946 	 24.3531
| 41> *
| 42>
| 43>                          ****END OF INPUT****

CARTESIAN COORDINATES (ANGSTROEM)
---------------------------------
  S    -40.375200   10.085200   25.770300
  C    -39.813900   11.132800   27.105800
  C    -39.187700   10.404800   28.112700
  C    -39.176200    9.032320   27.814900
  C    -39.830800    8.743970   26.627900
  H    -38.766900    8.133890   28.326300
  C    -38.577300   10.948400   29.403200
  H    -38.210000   11.965900   29.240200
  H    -37.711500   10.360200   29.547900
  C    -39.408400   10.704600   30.651000
  H    -38.978500   11.483100   31.350600
  H    -40.471200   10.883200   30.502000
  C    -39.190000    9.347120   31.270900
  H    -38.170300    9.120430   31.451900
  H    -39.766100    9.388530   32.225000
  H    -39.573200    8.566300   30.632800
  S    -39.082300    6.776340   24.805400
  C    -39.664200    5.171760   25.047800
  C    -40.637300    5.085920   26.002400
  C    -40.745700    6.306070   26.786400
  C    -40.082600    7.334780   26.182300
  H    -41.098100    4.109070   26.187500
  C    -41.550400    6.440790   28.089500
  H    -42.421600    7.126650   27.824200
  H    -40.912200    6.937200   28.794300
  C    -42.073000    5.220960   28.752800
  H    -42.788400    4.765810   27.997000
  H    -42.717500    5.563410   29.596400
  C    -41.060400    4.198980   29.313700
  H    -41.611600    3.425940   29.741400
  H    -40.456100    4.720330   30.106800
  H    -40.357500    3.765700   28.651500
  H    -39.947900   12.201400   27.115100
  H    -39.389900    4.329460   24.353100

 Total Charge           Charge          ....    0
 Multiplicity           Mult            ....    1
 Number of Electrons    NEL             ....  134
 Basis Dimension        Dim             ....  322

ORBITAL ENERGIES
----------------

  NO   OCC          E(Eh)            E(eV)
   0   2.0000     -88.968377     -2420.9526
   1   2.0000     -88.960385     -2420.7351
   2   2.0000     -10.322967      -280.9022
   3   2.0000     -10.321635      -280.8660
   4   2.0000     -10.316684      -280.7312
   5   2.0000     -10.312983      -280.6305
   6   2.0000     -10.305544      -280.4281
   7   2.0000     -10.300790      -280.2988
   8   2.0000     -10.294339      -280.1232
   9   2.0000     -10.292749      -280.0799
  10   2.0000     -10.292504      -280.0733
  11   2.0000     -10.289743      -279.9981
  12   2.0000     -10.287945      -279.9492
  13   2.0000     -10.286842      -279.9192
  14   2.0000     -10.276451      -279.6364
  15   2.0000     -10.276233      -279.6305
  16   2.0000      -8.083583      -219.9655
  17   2.0000      -8.075387      -219.7424
  18   2.0000      -6.041846      -164.4070
  19   2.0000      -6.038094      -164.3049
  20   2.0000      -6.034516      -164.2075
  21   2.0000      -6.033900      -164.1908
  22   2.0000      -6.029950      -164.0833
  23   2.0000      -6.026052      -163.9772
  24   2.0000      -1.006338       -27.3839
  25   2.0000      -0.984136       -26.7797
  26   2.0000      -0.918436       -24.9919
  27   2.0000      -0.912033       -24.8177
  28   2.0000      -0.865502       -23.5515
  29   2.0000      -0.851948       -23.1827
  30   2.0000      -0.842379       -22.9223
  31   2.0000      -0.811029       -22.0692
  32   2.0000      -0.791207       -21.5298
  33   2.0000      -0.778184       -21.1755
  34   2.0000      -0.700144       -19.0519
  35   2.0000      -0.698953       -19.0195
  36   2.0000      -0.686767       -18.6879
  37   2.0000      -0.649083       -17.6624
  38   2.0000      -0.642986       -17.4966
  39   2.0000      -0.613101       -16.6833
  40   2.0000      -0.595466       -16.2034
  41   2.0000      -0.573693       -15.6110
  42   2.0000      -0.555196       -15.1076
  43   2.0000      -0.549763       -14.9598
  44   2.0000      -0.543566       -14.7912
  45   2.0000      -0.534954       -14.5568
  46   2.0000      -0.519923       -14.1478
  47   2.0000      -0.512497       -13.9458
  48   2.0000      -0.503326       -13.6962
  49   2.0000      -0.493036       -13.4162
  50   2.0000      -0.485671       -13.2158
  51   2.0000      -0.485311       -13.2060
  52   2.0000      -0.474428       -12.9099
  53   2.0000      -0.466788       -12.7019
  54   2.0000      -0.459043       -12.4912
  55   2.0000      -0.447154       -12.1677
  56   2.0000      -0.444874       -12.1056
  57   2.0000      -0.440597       -11.9893
  58   2.0000      -0.435049       -11.8383
  59   2.0000      -0.426153       -11.5962
  60   2.0000      -0.423184       -11.5154
  61   2.0000      -0.413952       -11.2642
  62   2.0000      -0.407736       -11.0951
  63   2.0000      -0.335693        -9.1347
  64   2.0000      -0.332087        -9.0366
  65   2.0000      -0.325642        -8.8612
  66   2.0000      -0.299519        -8.1503
  67   0.0000       0.043866         1.1936
  68   0.0000       0.063815         1.7365
  69   0.0000       0.115832         3.1520
  70   0.0000       0.122981         3.3465
  71   0.0000       0.126350         3.4381

MULLIKEN ATOMIC CHARGES
-----------------------
   0 S :    0.126998
   1 C :   -0.137996
   2 C :   -0.075024
   3 C :    0.010724
   4 C :   -0.177572
   5 H :    0.029243
   6 C :    0.106498
   7 H :    0.023872
   8 H :    0.004401
   9 C :   -0.085030
  10 H :    0.036499
  11 H :    0.038672
  12 C :   -0.036511
  13 H :    0.022047
  14 H :    0.042639
  15 H :    0.029604
  16 S :    0.098462
  17 C :   -0.112156
  18 C :   -0.041043
  19 C :   -0.055488
  20 C :   -0.171817
  21 H :    0.028102
  22 C :    0.087418
  23 H :    0.057036
  24 H :    0.011830
  25 C :   -0.110640
  26 H :    0.031281
  27 H :    0.038735
  28 C :   -0.018679
  29 H :    0.025771
  30 H :    0.029292
  31 H :    0.030019
  32 H :    0.038759
  33 H :    0.074054
Sum of atomic charges:    0.0000000

LOEWDIN ATOMIC CHARGES
----------------------
   0 S :    0.427127
   1 C :   -0.194293
   2 C :   -0.056563
   3 C :   -0.076513
   4 C :   -0.218615
   5 H :    0.039564
   6 C :   -0.029206
   7 H :    0.030062
   8 H :    0.026536
   9 C :   -0.040986
  10 H :    0.032924
  11 H :    0.025534
  12 C :   -0.061970
  13 H :    0.018511
  14 H :    0.035641
  15 H :    0.020225
  16 S :    0.389261
  17 C :   -0.195335
  18 C :   -0.082412
  19 C :   -0.051496
  20 C :   -0.192011
  21 H :    0.034213
  22 C :   -0.037056
  23 H :    0.049632
  24 H :    0.023451
  25 C :   -0.051429
  26 H :    0.025897
  27 H :    0.034670
  28 C :   -0.059411
  29 H :    0.021027
  30 H :    0.032045
  31 H :    0.019065
  32 H :    0.022824
  33 H :    0.039087

  Mayer bond orders larger than 0.100000
B(  0-S ,  1-C ) :   1.1322 B(  0-S ,  4-C ) :   1.1918 B(  1-C ,  2-C ) :   1.6052
B(  1-C , 32-H ) :   0.9740 B(  2-C ,  3-C ) :   1.2366 B(  2-C ,  6-C ) :   1.0221
B(  3-C ,  4-C ) :   1.5736 B(  3-C ,  5-H ) :   0.9840 B(  4-C , 20-C ) :   0.9746
B(  6-C ,  7-H ) :   0.9425 B(  6-C ,  8-H ) :   0.9323 B(  6-C ,  9-C ) :   1.0549
B(  9-C , 10-H ) :   0.9528 B(  9-C , 11-H ) :   0.9570 B(  9-C , 12-C ) :   1.0920
B( 12-C , 13-H ) :   0.9701 B( 12-C , 14-H ) :   0.9694 B( 12-C , 15-H ) :   0.9717
B( 16-S , 17-C ) :   1.1603 B( 16-S , 20-C ) :   1.1289 B( 17-C , 18-C ) :   1.6475
B( 17-C , 33-H ) :   0.9542 B( 18-C , 19-C ) :   1.1963 B( 18-C , 21-H ) :   0.9807
B( 19-C , 20-C ) :   1.6723 B( 19-C , 22-C ) :   1.0165 B( 22-C , 23-H ) :   0.9279
B( 22-C , 24-H ) :   0.9279 B( 22-C , 25-C ) :   1.1022 B( 25-C , 26-H ) :   0.9449
B( 25-C , 27-H ) :   0.9485 B( 25-C , 28-C ) :   1.0728 B( 28-C , 29-H ) :   0.9732
B( 28-C , 30-H ) :   0.9710 B( 28-C , 31-H ) :   0.9767

Dispersion correction           -0.015052745
FINAL SINGLE POINT ENERGY     -1339.878504485137

DIPOLE MOMENT
-------------
                                X             Y             Z
Electronic contribution:      3.22234       6.35555     -28.90630
Nuclear contribution   :     -3.29371      -6.55258      29.61994
                        -----------------------------------------
Total Dipole Moment    :     -0.07138      -0.19704       0.71364
                        -----------------------------------------
Magnitude (a.u.)       :      0.74377
Magnitude (Debye)      :      1.89052

Rotational constants in cm-1:     0.016809     0.010158     0.007158
Rotational constants in MHz :   503.911021   304.526388   214.587294

                             ****ORCA TERMINATED NORMALLY****
TOTAL RUN TIME: 0 days 0 hours 0 minutes 22 seconds 338 msec
