                         Program Version 4.2.1 -  RELEASE  -
|  1> ! wB97X-D3 SP def2-SVP
|  2> %pal
|  3> nprocs 24
|  4> end
|  5>
|  6> * xyz 0 1
|  7> S 	 -53.7958 	 3.1592 	 -33.5422
|  8> C 	 -53.6869 	 1.521 	 -33.2097
|  9> C 	 -52.5831 	 0.968032 	 -33.8247
| 10> C 	 -51.7767 	 1.90975 	 -34.5437
| 11> C 	 -52.2343 	 3.18113 	 -34.4437
| 12> H 	 -50.9487 	 1.69674 	 -35.1966
| 13> C 	 -52.1861 	 -0.473284 	 -33.8606
| 14> H 	 -51.3356 	 -0.635372 	 -34.5477
| 15> H 	 -53.0569 	 -1.05329 	 -34.2168
| 16> C 	 -51.8599 	 -0.90899 	 -32.4507
| 17> H 	 -50.9149 	 -0.476935 	 -32.1447
| 18> H 	 -52.5201 	 -0.378073 	 -31.7247
| 19> C 	 -51.8861 	 -2.4188 	 -32.3412
| 20> H 	 -51.2543 	 -2.97841 	 -33.039
| 21> H 	 -51.4056 	 -2.73706 	 -31.3951
| 22> H 	 -52.8328 	 -2.8858 	 -32.4151
| 23> S 	 -52.8196 	 5.27291 	 -36.0175
| 24> C 	 -51.5169 	 6.33027 	 -36.669
| 25> C 	 -50.321 	 6.03196 	 -36.0011
| 26> C 	 -50.4487 	 4.95325 	 -35.0854
| 27> C 	 -51.714 	 4.40325 	 -35.0611
| 28> H 	 -49.422 	 6.59854 	 -36.1703
| 29> C 	 -49.3263 	 4.46134 	 -34.1938
| 30> H 	 -49.6856 	 4.01655 	 -33.2172
| 31> H 	 -48.5849 	 5.26744 	 -33.9547
| 32> C 	 -48.471 	 3.45607 	 -34.8832
| 33> H 	 -47.9117 	 3.96004 	 -35.6733
| 34> H 	 -49.1262 	 2.63264 	 -35.2273
| 35> C 	 -47.4392 	 2.95577 	 -33.8722
| 36> H 	 -48.0407 	 2.40054 	 -33.088
| 37> H 	 -46.9416 	 3.77725 	 -33.3738
| 38> H 	 -46.7167 	 2.25862 	 -34.3455
| 39> H 	 -54.3863 	 0.895947 	 -32.7222
| 40> H 	 -51.5995 	 7.14235 	 -37.3762
| 41> *
| 42>
| 43>                          ****END OF INPUT****

CARTESIAN COORDINATES (ANGSTROEM)
---------------------------------
  S    -53.795800    3.159200  -33.542200
  C    -53.686900    1.521000  -33.209700
  C    -52.583100    0.968032  -33.824700
  C    -51.776700    1.909750  -34.543700
  C    -52.234300    3.181130  -34.443700
  H    -50.948700    1.696740  -35.196600
  C    -52.186100   -0.473284  -33.860600
  H    -51.335600   -0.635372  -34.547700
  H    -53.056900   -1.053290  -34.216800
  C    -51.859900   -0.908990  -32.450700
  H    -50.914900   -0.476935  -32.144700
  H    -52.520100   -0.378073  -31.724700
  C    -51.886100   -2.418800  -32.341200
  H    -51.254300   -2.978410  -33.039000
  H    -51.405600   -2.737060  -31.395100
  H    -52.832800   -2.885800  -32.415100
  S    -52.819600    5.272910  -36.017500
  C    -51.516900    6.330270  -36.669000
  C    -50.321000    6.031960  -36.001100
  C    -50.448700    4.953250  -35.085400
  C    -51.714000    4.403250  -35.061100
  H    -49.422000    6.598540  -36.170300
  C    -49.326300    4.461340  -34.193800
  H    -49.685600    4.016550  -33.217200
  H    -48.584900    5.267440  -33.954700
  C    -48.471000    3.456070  -34.883200
  H    -47.911700    3.960040  -35.673300
  H    -49.126200    2.632640  -35.227300
  C    -47.439200    2.955770  -33.872200
  H    -48.040700    2.400540  -33.088000
  H    -46.941600    3.777250  -33.373800
  H    -46.716700    2.258620  -34.345500
  H    -54.386300    0.895947  -32.722200
  H    -51.599500    7.142350  -37.376200

 Total Charge           Charge          ....    0
 Multiplicity           Mult            ....    1
 Number of Electrons    NEL             ....  134
 Basis Dimension        Dim             ....  322

ORBITAL ENERGIES
----------------

  NO   OCC          E(Eh)            E(eV)
   0   2.0000     -88.966208     -2420.8936
   1   2.0000     -88.965214     -2420.8665
   2   2.0000     -10.330669      -281.1118
   3   2.0000     -10.323341      -280.9124
   4   2.0000     -10.323177      -280.9079
   5   2.0000     -10.307688      -280.4864
   6   2.0000     -10.300771      -280.2982
   7   2.0000     -10.297807      -280.2176
   8   2.0000     -10.295483      -280.1543
   9   2.0000     -10.292132      -280.0631
  10   2.0000     -10.291575      -280.0480
  11   2.0000     -10.288966      -279.9770
  12   2.0000     -10.285456      -279.8815
  13   2.0000     -10.282465      -279.8001
  14   2.0000     -10.281799      -279.7820
  15   2.0000     -10.275643      -279.6145
  16   2.0000      -8.081040      -219.8963
  17   2.0000      -8.080561      -219.8832
  18   2.0000      -6.039512      -164.3435
  19   2.0000      -6.039109      -164.3325
  20   2.0000      -6.035485      -164.2339
  21   2.0000      -6.034920      -164.2185
  22   2.0000      -6.031852      -164.1350
  23   2.0000      -6.031286      -164.1196
  24   2.0000      -1.011766       -27.5315
  25   2.0000      -0.989240       -26.9186
  26   2.0000      -0.919508       -25.0211
  27   2.0000      -0.916781       -24.9469
  28   2.0000      -0.874264       -23.7899
  29   2.0000      -0.854581       -23.2543
  30   2.0000      -0.846517       -23.0349
  31   2.0000      -0.819307       -22.2945
  32   2.0000      -0.775388       -21.0994
  33   2.0000      -0.765600       -20.8330
  34   2.0000      -0.709146       -19.2968
  35   2.0000      -0.701087       -19.0775
  36   2.0000      -0.687174       -18.6990
  37   2.0000      -0.670698       -18.2506
  38   2.0000      -0.648217       -17.6389
  39   2.0000      -0.620305       -16.8794
  40   2.0000      -0.597455       -16.2576
  41   2.0000      -0.579074       -15.7574
  42   2.0000      -0.573841       -15.6150
  43   2.0000      -0.557230       -15.1630
  44   2.0000      -0.526173       -14.3179
  45   2.0000      -0.522642       -14.2218
  46   2.0000      -0.517304       -14.0766
  47   2.0000      -0.515284       -14.0216
  48   2.0000      -0.507268       -13.8035
  49   2.0000      -0.503174       -13.6921
  50   2.0000      -0.499450       -13.5907
  51   2.0000      -0.480778       -13.0826
  52   2.0000      -0.474949       -12.9240
  53   2.0000      -0.466909       -12.7052
  54   2.0000      -0.460011       -12.5175
  55   2.0000      -0.449332       -12.2269
  56   2.0000      -0.444481       -12.0949
  57   2.0000      -0.434407       -11.8208
  58   2.0000      -0.432841       -11.7782
  59   2.0000      -0.421395       -11.4667
  60   2.0000      -0.419290       -11.4095
  61   2.0000      -0.416990       -11.3469
  62   2.0000      -0.412084       -11.2134
  63   2.0000      -0.355212        -9.6658
  64   2.0000      -0.332895        -9.0585
  65   2.0000      -0.323151        -8.7934
  66   2.0000      -0.291425        -7.9301
  67   0.0000       0.030572         0.8319
  68   0.0000       0.067639         1.8406
  69   0.0000       0.106663         2.9025
  70   0.0000       0.121532         3.3071
  71   0.0000       0.131949         3.5905

MULLIKEN ATOMIC CHARGES
-----------------------
   0 S :    0.114360
   1 C :   -0.081476
   2 C :   -0.127563
   3 C :    0.025200
   4 C :   -0.138381
   5 H :    0.020656
   6 C :    0.074539
   7 H :    0.029432
   8 H :    0.032755
   9 C :   -0.075012
  10 H :    0.015607
  11 H :    0.029412
  12 C :   -0.024774
  13 H :    0.021084
  14 H :    0.024520
  15 H :    0.028273
  16 S :    0.109689
  17 C :   -0.094071
  18 C :   -0.031319
  19 C :   -0.002755
  20 C :   -0.159097
  21 H :    0.016227
  22 C :    0.011100
  23 H :    0.042237
  24 H :    0.021156
  25 C :   -0.077739
  26 H :    0.027241
  27 H :    0.021722
  28 C :   -0.044054
  29 H :    0.030819
  30 H :    0.027724
  31 H :    0.043221
  32 H :    0.033279
  33 H :    0.055988
Sum of atomic charges:   -0.0000000

LOEWDIN ATOMIC CHARGES
----------------------
   0 S :    0.413342
   1 C :   -0.216684
   2 C :   -0.064425
   3 C :   -0.062635
   4 C :   -0.176514
   5 H :    0.030953
   6 C :   -0.033171
   7 H :    0.031830
   8 H :    0.032662
   9 C :   -0.043645
  10 H :    0.024325
  11 H :    0.028141
  12 C :   -0.070021
  13 H :    0.026607
  14 H :    0.029355
  15 H :    0.019762
  16 S :    0.414683
  17 C :   -0.175062
  18 C :   -0.063005
  19 C :   -0.060949
  20 C :   -0.212548
  21 H :    0.030639
  22 C :   -0.038003
  23 H :    0.035587
  24 H :    0.032844
  25 C :   -0.043534
  26 H :    0.022509
  27 H :    0.020309
  28 C :   -0.066430
  29 H :    0.029410
  30 H :    0.021239
  31 H :    0.027222
  32 H :    0.025406
  33 H :    0.029802

  Mayer bond orders larger than 0.100000
B(  0-S ,  1-C ) :   1.1454 B(  0-S ,  4-C ) :   1.1415 B(  1-C ,  2-C ) :   1.6052
B(  1-C , 32-H ) :   0.9666 B(  2-C ,  3-C ) :   1.2435 B(  2-C ,  6-C ) :   1.0219
B(  3-C ,  4-C ) :   1.5923 B(  3-C ,  5-H ) :   0.9897 B(  4-C , 20-C ) :   1.0150
B(  6-C ,  7-H ) :   0.9412 B(  6-C ,  8-H ) :   0.9402 B(  6-C ,  9-C ) :   1.0536
B(  9-C , 10-H ) :   0.9482 B(  9-C , 11-H ) :   0.9620 B(  9-C , 12-C ) :   1.0756
B( 12-C , 13-H ) :   0.9697 B( 12-C , 14-H ) :   0.9706 B( 12-C , 15-H ) :   0.9771
B( 16-S , 17-C ) :   1.1483 B( 16-S , 20-C ) :   1.1554 B( 17-C , 18-C ) :   1.5917
B( 17-C , 20-C ) :   0.1043 B( 17-C , 33-H ) :   0.9715 B( 18-C , 19-C ) :   1.2566
B( 18-C , 21-H ) :   0.9896 B( 19-C , 20-C ) :   1.5855 B( 19-C , 22-C ) :   1.0419
B( 22-C , 23-H ) :   0.9407 B( 22-C , 24-H ) :   0.9331 B( 22-C , 25-C ) :   1.0686
B( 25-C , 26-H ) :   0.9511 B( 25-C , 27-H ) :   0.9490 B( 25-C , 28-C ) :   1.0869
B( 28-C , 29-H ) :   0.9726 B( 28-C , 30-H ) :   0.9690 B( 28-C , 31-H ) :   0.9736

Dispersion correction           -0.014217527
FINAL SINGLE POINT ENERGY     -1339.881246980469

DIPOLE MOMENT
-------------
                                X             Y             Z
Electronic contribution:    -20.55804      21.74447      -8.90076
Nuclear contribution   :     21.09822     -22.09082       8.88010
                        -----------------------------------------
Total Dipole Moment    :      0.54018      -0.34635      -0.02066
                        -----------------------------------------
Magnitude (a.u.)       :      0.64201
Magnitude (Debye)      :      1.63186

Rotational constants in cm-1:     0.019550     0.008837     0.006506
Rotational constants in MHz :   586.083075   264.913994   195.047946

                             ****ORCA TERMINATED NORMALLY****
TOTAL RUN TIME: 0 days 0 hours 0 minutes 22 seconds 35 msec
