                         Program Version 4.2.1 -  RELEASE  -
|  1> ! wB97X-D3 SP def2-SVP
|  2> %pal
|  3> nprocs 24
|  4> end
|  5>
|  6> * xyz 0 1
|  7> S 	 -65.801 	 -50.0151 	 -88.1342
|  8> C 	 -64.45 	 -50.3566 	 -87.091
|  9> C 	 -64.7745 	 -51.0258 	 -85.9697
| 10> C 	 -66.1626 	 -51.2761 	 -85.9268
| 11> C 	 -66.8505 	 -50.7046 	 -86.9937
| 12> H 	 -66.6072 	 -51.7552 	 -85.0506
| 13> C 	 -63.7747 	 -51.6545 	 -85.015
| 14> H 	 -62.8935 	 -51.0728 	 -85.2672
| 15> H 	 -63.5519 	 -52.6906 	 -85.3948
| 16> C 	 -64.2575 	 -51.7494 	 -83.5109
| 17> H 	 -64.521 	 -50.767 	 -83.1373
| 18> H 	 -65.0299 	 -52.5106 	 -83.3903
| 19> C 	 -63.1435 	 -52.2446 	 -82.6632
| 20> H 	 -63.395 	 -52.6074 	 -81.7491
| 21> H 	 -62.804 	 -53.1871 	 -83.091
| 22> H 	 -62.2697 	 -51.5998 	 -82.7606
| 23> S 	 -69.048 	 -49.1992 	 -87.6574
| 24> C 	 -70.5454 	 -49.9707 	 -88.1501
| 25> C 	 -70.4654 	 -51.2825 	 -87.7437
| 26> C 	 -69.2811 	 -51.6889 	 -87.0934
| 27> C 	 -68.2807 	 -50.7305 	 -87.1683
| 28> H 	 -71.3591 	 -51.8233 	 -87.8691
| 29> C 	 -69.1803 	 -53.1113 	 -86.5912
| 30> H 	 -68.0871 	 -53.3516 	 -86.5331
| 31> H 	 -69.5959 	 -53.8063 	 -87.3277
| 32> C 	 -69.9479 	 -53.4152 	 -85.3235
| 33> H 	 -70.9192 	 -53.1115 	 -85.5774
| 34> H 	 -69.6353 	 -52.8195 	 -84.4396
| 35> C 	 -69.9879 	 -54.8649 	 -84.9758
| 36> H 	 -70.907 	 -54.9615 	 -84.3526
| 37> H 	 -69.1581 	 -55.2051 	 -84.4167
| 38> H 	 -70.0751 	 -55.4148 	 -85.8726
| 39> H 	 -63.4336 	 -50.0503 	 -87.3397
| 40> H 	 -71.2905 	 -49.4776 	 -88.7335
| 41> *
| 42>
| 43>                          ****END OF INPUT****

CARTESIAN COORDINATES (ANGSTROEM)
---------------------------------
  S    -65.801000  -50.015100  -88.134200
  C    -64.450000  -50.356600  -87.091000
  C    -64.774500  -51.025800  -85.969700
  C    -66.162600  -51.276100  -85.926800
  C    -66.850500  -50.704600  -86.993700
  H    -66.607200  -51.755200  -85.050600
  C    -63.774700  -51.654500  -85.015000
  H    -62.893500  -51.072800  -85.267200
  H    -63.551900  -52.690600  -85.394800
  C    -64.257500  -51.749400  -83.510900
  H    -64.521000  -50.767000  -83.137300
  H    -65.029900  -52.510600  -83.390300
  C    -63.143500  -52.244600  -82.663200
  H    -63.395000  -52.607400  -81.749100
  H    -62.804000  -53.187100  -83.091000
  H    -62.269700  -51.599800  -82.760600
  S    -69.048000  -49.199200  -87.657400
  C    -70.545400  -49.970700  -88.150100
  C    -70.465400  -51.282500  -87.743700
  C    -69.281100  -51.688900  -87.093400
  C    -68.280700  -50.730500  -87.168300
  H    -71.359100  -51.823300  -87.869100
  C    -69.180300  -53.111300  -86.591200
  H    -68.087100  -53.351600  -86.533100
  H    -69.595900  -53.806300  -87.327700
  C    -69.947900  -53.415200  -85.323500
  H    -70.919200  -53.111500  -85.577400
  H    -69.635300  -52.819500  -84.439600
  C    -69.987900  -54.864900  -84.975800
  H    -70.907000  -54.961500  -84.352600
  H    -69.158100  -55.205100  -84.416700
  H    -70.075100  -55.414800  -85.872600
  H    -63.433600  -50.050300  -87.339700
  H    -71.290500  -49.477600  -88.733500

 Total Charge           Charge          ....    0
 Multiplicity           Mult            ....    1
 Number of Electrons    NEL             ....  134
 Basis Dimension        Dim             ....  322

ORBITAL ENERGIES
----------------

  NO   OCC          E(Eh)            E(eV)
   0   2.0000     -88.968667     -2420.9605
   1   2.0000     -88.956101     -2420.6186
   2   2.0000     -10.326816      -281.0070
   3   2.0000     -10.325228      -280.9637
   4   2.0000     -10.313467      -280.6437
   5   2.0000     -10.307539      -280.4824
   6   2.0000     -10.300423      -280.2888
   7   2.0000     -10.300339      -280.2865
   8   2.0000     -10.291848      -280.0554
   9   2.0000     -10.291690      -280.0511
  10   2.0000     -10.289829      -280.0005
  11   2.0000     -10.288780      -279.9719
  12   2.0000     -10.285910      -279.8938
  13   2.0000     -10.277643      -279.6689
  14   2.0000     -10.270732      -279.4808
  15   2.0000     -10.267538      -279.3939
  16   2.0000      -8.084437      -219.9887
  17   2.0000      -8.070830      -219.6184
  18   2.0000      -6.042844      -164.4342
  19   2.0000      -6.038820      -164.3246
  20   2.0000      -6.035200      -164.2261
  21   2.0000      -6.029342      -164.0667
  22   2.0000      -6.025288      -163.9564
  23   2.0000      -6.021634      -163.8570
  24   2.0000      -1.013363       -27.5750
  25   2.0000      -0.987226       -26.8638
  26   2.0000      -0.918167       -24.9846
  27   2.0000      -0.915721       -24.9180
  28   2.0000      -0.878096       -23.8942
  29   2.0000      -0.857086       -23.3225
  30   2.0000      -0.848764       -23.0960
  31   2.0000      -0.814559       -22.1653
  32   2.0000      -0.782607       -21.2958
  33   2.0000      -0.773508       -21.0482
  34   2.0000      -0.715693       -19.4750
  35   2.0000      -0.697241       -18.9729
  36   2.0000      -0.693610       -18.8741
  37   2.0000      -0.661722       -18.0064
  38   2.0000      -0.636337       -17.3156
  39   2.0000      -0.624507       -16.9937
  40   2.0000      -0.597292       -16.2531
  41   2.0000      -0.579959       -15.7815
  42   2.0000      -0.575815       -15.6687
  43   2.0000      -0.569242       -15.4899
  44   2.0000      -0.537768       -14.6334
  45   2.0000      -0.529935       -14.4203
  46   2.0000      -0.516401       -14.0520
  47   2.0000      -0.513676       -13.9778
  48   2.0000      -0.506927       -13.7942
  49   2.0000      -0.501890       -13.6571
  50   2.0000      -0.494269       -13.4497
  51   2.0000      -0.477209       -12.9855
  52   2.0000      -0.474550       -12.9132
  53   2.0000      -0.466489       -12.6938
  54   2.0000      -0.458009       -12.4631
  55   2.0000      -0.453608       -12.3433
  56   2.0000      -0.438995       -11.9457
  57   2.0000      -0.437481       -11.9045
  58   2.0000      -0.434766       -11.8306
  59   2.0000      -0.428098       -11.6491
  60   2.0000      -0.420484       -11.4420
  61   2.0000      -0.416360       -11.3297
  62   2.0000      -0.409756       -11.1500
  63   2.0000      -0.344422        -9.3722
  64   2.0000      -0.335417        -9.1272
  65   2.0000      -0.324140        -8.8203
  66   2.0000      -0.289552        -7.8791
  67   0.0000       0.025552         0.6953
  68   0.0000       0.078808         2.1445
  69   0.0000       0.116795         3.1781
  70   0.0000       0.118313         3.2195
  71   0.0000       0.130380         3.5478

MULLIKEN ATOMIC CHARGES
-----------------------
   0 S :    0.142873
   1 C :   -0.147298
   2 C :   -0.060806
   3 C :    0.003142
   4 C :   -0.138789
   5 H :    0.016376
   6 C :    0.039338
   7 H :    0.015566
   8 H :    0.050661
   9 C :   -0.083387
  10 H :    0.041133
  11 H :    0.037927
  12 C :    0.028028
  13 H :    0.006515
  14 H :   -0.005526
  15 H :    0.028483
  16 S :    0.073305
  17 C :   -0.088798
  18 C :   -0.034383
  19 C :    0.014970
  20 C :   -0.163914
  21 H :    0.004839
  22 C :    0.033889
  23 H :    0.023987
  24 H :    0.018079
  25 C :   -0.065803
  26 H :    0.003210
  27 H :    0.030669
  28 C :    0.002606
  29 H :    0.036176
  30 H :    0.027513
  31 H :    0.012689
  32 H :    0.040470
  33 H :    0.056263
Sum of atomic charges:   -0.0000000

LOEWDIN ATOMIC CHARGES
----------------------
   0 S :    0.443837
   1 C :   -0.201543
   2 C :   -0.072504
   3 C :   -0.062625
   4 C :   -0.214702
   5 H :    0.031368
   6 C :   -0.028038
   7 H :    0.029085
   8 H :    0.041072
   9 C :   -0.035551
  10 H :    0.026464
  11 H :    0.028259
  12 C :   -0.059666
  13 H :    0.012085
  14 H :    0.024156
  15 H :    0.027235
  16 S :    0.378021
  17 C :   -0.176661
  18 C :   -0.071114
  19 C :   -0.059069
  20 C :   -0.179966
  21 H :    0.023045
  22 C :   -0.035266
  23 H :    0.028745
  24 H :    0.029446
  25 C :   -0.040199
  26 H :    0.015693
  27 H :    0.026843
  28 C :   -0.054401
  29 H :    0.035759
  30 H :    0.019595
  31 H :    0.018033
  32 H :    0.025248
  33 H :    0.027316

  Mayer bond orders larger than 0.100000
B(  0-S ,  1-C ) :   1.1364 B(  0-S ,  4-C ) :   1.1771 B(  1-C ,  2-C ) :   1.6158
B(  1-C , 32-H ) :   0.9631 B(  2-C ,  3-C ) :   1.2669 B(  2-C ,  6-C ) :   1.0120
B(  3-C ,  4-C ) :   1.5275 B(  3-C ,  5-H ) :   0.9940 B(  4-C , 20-C ) :   1.0607
B(  6-C ,  7-H ) :   0.9425 B(  6-C ,  8-H ) :   0.9353 B(  6-C ,  9-C ) :   1.0586
B(  9-C , 10-H ) :   0.9620 B(  9-C , 11-H ) :   0.9449 B(  9-C , 12-C ) :   1.1062
B( 12-C , 13-H ) :   0.9672 B( 12-C , 14-H ) :   0.9590 B( 12-C , 15-H ) :   0.9719
B( 16-S , 17-C ) :   1.1424 B( 16-S , 20-C ) :   1.1441 B( 17-C , 18-C ) :   1.5969
B( 17-C , 20-C ) :   0.1056 B( 17-C , 33-H ) :   0.9751 B( 18-C , 19-C ) :   1.2358
B( 18-C , 21-H ) :   0.9960 B( 19-C , 20-C ) :   1.5643 B( 19-C , 22-C ) :   1.0545
B( 22-C , 23-H ) :   0.9321 B( 22-C , 24-H ) :   0.9313 B( 22-C , 25-C ) :   1.0705
B( 25-C , 26-H ) :   0.9522 B( 25-C , 27-H ) :   0.9480 B( 25-C , 28-C ) :   1.0925
B( 28-C , 29-H ) :   0.9739 B( 28-C , 30-H ) :   0.9753 B( 28-C , 31-H ) :   0.9679

Dispersion correction           -0.013352963
FINAL SINGLE POINT ENERGY     -1339.862509948660

DIPOLE MOMENT
-------------
                                X             Y             Z
Electronic contribution:     -4.67063      21.89881     -21.75244
Nuclear contribution   :      4.76415     -22.50637      22.11697
                        -----------------------------------------
Total Dipole Moment    :      0.09351      -0.60756       0.36453
                        -----------------------------------------
Magnitude (a.u.)       :      0.71468
Magnitude (Debye)      :      1.81656

Rotational constants in cm-1:     0.016450     0.009024     0.006308
Rotational constants in MHz :   493.154614   270.517863   189.104415

                             ****ORCA TERMINATED NORMALLY****
TOTAL RUN TIME: 0 days 0 hours 0 minutes 21 seconds 366 msec
