                         Program Version 4.2.1 -  RELEASE  -
|  1> ! wB97X-D3 SP def2-SVP
|  2> %pal
|  3> nprocs 24
|  4> end
|  5>
|  6> * xyz 0 1
|  7> S 	 -36.7334 	 -48.9803 	 -79.4348
|  8> C 	 -35.3689 	 -49.7273 	 -80.2468
|  9> C 	 -34.1819 	 -49.3882 	 -79.6016
| 10> C 	 -34.3445 	 -48.6295 	 -78.3609
| 11> C 	 -35.7023 	 -48.4415 	 -78.1071
| 12> H 	 -33.5189 	 -48.245 	 -77.7431
| 13> C 	 -32.8109 	 -49.7258 	 -80.1079
| 14> H 	 -32.5954 	 -49.2019 	 -81.0973
| 15> H 	 -32.902 	 -50.7403 	 -80.3078
| 16> C 	 -31.5878 	 -49.5064 	 -79.1072
| 17> H 	 -31.4531 	 -48.4039 	 -79.0182
| 18> H 	 -31.8551 	 -49.9452 	 -78.1414
| 19> C 	 -30.3069 	 -50.1162 	 -79.5952
| 20> H 	 -30.0174 	 -49.7336 	 -80.5612
| 21> H 	 -29.4427 	 -49.8504 	 -78.9685
| 22> H 	 -30.342 	 -51.2561 	 -79.597
| 23> S 	 -37.252 	 -48.9178 	 -75.9281
| 24> C 	 -37.2621 	 -47.728 	 -74.6106
| 25> C 	 -36.555 	 -46.5881 	 -74.9501
| 26> C 	 -35.8331 	 -46.727 	 -76.158
| 27> C 	 -36.2574 	 -47.8755 	 -76.8821
| 28> H 	 -36.6571 	 -45.8142 	 -74.2058
| 29> C 	 -35.0409 	 -45.5627 	 -76.6237
| 30> H 	 -33.9821 	 -45.7163 	 -76.4651
| 31> H 	 -35.2314 	 -44.6493 	 -76.0576
| 32> C 	 -35.4138 	 -45.1955 	 -78.0653
| 33> H 	 -36.5173 	 -45.2001 	 -78.0977
| 34> H 	 -35.1017 	 -45.9418 	 -78.8545
| 35> C 	 -34.6576 	 -43.8986 	 -78.5462
| 36> H 	 -33.7116 	 -44.1464 	 -79.0646
| 37> H 	 -34.5312 	 -43.1002 	 -77.7834
| 38> H 	 -35.3572 	 -43.5357 	 -79.2624
| 39> H 	 -35.4199 	 -50.3179 	 -81.2485
| 40> H 	 -37.9698 	 -47.7501 	 -73.7548
| 41> *
| 42>
| 43>                          ****END OF INPUT****

CARTESIAN COORDINATES (ANGSTROEM)
---------------------------------
  S    -36.733400  -48.980300  -79.434800
  C    -35.368900  -49.727300  -80.246800
  C    -34.181900  -49.388200  -79.601600
  C    -34.344500  -48.629500  -78.360900
  C    -35.702300  -48.441500  -78.107100
  H    -33.518900  -48.245000  -77.743100
  C    -32.810900  -49.725800  -80.107900
  H    -32.595400  -49.201900  -81.097300
  H    -32.902000  -50.740300  -80.307800
  C    -31.587800  -49.506400  -79.107200
  H    -31.453100  -48.403900  -79.018200
  H    -31.855100  -49.945200  -78.141400
  C    -30.306900  -50.116200  -79.595200
  H    -30.017400  -49.733600  -80.561200
  H    -29.442700  -49.850400  -78.968500
  H    -30.342000  -51.256100  -79.597000
  S    -37.252000  -48.917800  -75.928100
  C    -37.262100  -47.728000  -74.610600
  C    -36.555000  -46.588100  -74.950100
  C    -35.833100  -46.727000  -76.158000
  C    -36.257400  -47.875500  -76.882100
  H    -36.657100  -45.814200  -74.205800
  C    -35.040900  -45.562700  -76.623700
  H    -33.982100  -45.716300  -76.465100
  H    -35.231400  -44.649300  -76.057600
  C    -35.413800  -45.195500  -78.065300
  H    -36.517300  -45.200100  -78.097700
  H    -35.101700  -45.941800  -78.854500
  C    -34.657600  -43.898600  -78.546200
  H    -33.711600  -44.146400  -79.064600
  H    -34.531200  -43.100200  -77.783400
  H    -35.357200  -43.535700  -79.262400
  H    -35.419900  -50.317900  -81.248500
  H    -37.969800  -47.750100  -73.754800

 Total Charge           Charge          ....    0
 Multiplicity           Mult            ....    1
 Number of Electrons    NEL             ....  134
 Basis Dimension        Dim             ....  322

ORBITAL ENERGIES
----------------

  NO   OCC          E(Eh)            E(eV)
   0   2.0000     -88.968274     -2420.9498
   1   2.0000     -88.965764     -2420.8815
   2   2.0000     -10.331012      -281.1211
   3   2.0000     -10.326716      -281.0042
   4   2.0000     -10.320159      -280.8258
   5   2.0000     -10.315919      -280.7104
   6   2.0000     -10.303412      -280.3701
   7   2.0000     -10.303143      -280.3628
   8   2.0000     -10.298310      -280.2313
   9   2.0000     -10.294535      -280.1285
  10   2.0000     -10.291277      -280.0399
  11   2.0000     -10.290792      -280.0267
  12   2.0000     -10.285748      -279.8894
  13   2.0000     -10.285434      -279.8809
  14   2.0000     -10.283507      -279.8285
  15   2.0000     -10.277243      -279.6580
  16   2.0000      -8.082339      -219.9316
  17   2.0000      -8.080365      -219.8779
  18   2.0000      -6.040974      -164.3833
  19   2.0000      -6.038799      -164.3241
  20   2.0000      -6.036953      -164.2738
  21   2.0000      -6.034810      -164.2155
  22   2.0000      -6.033003      -164.1664
  23   2.0000      -6.031297      -164.1199
  24   2.0000      -1.003228       -27.2992
  25   2.0000      -0.978872       -26.6364
  26   2.0000      -0.908506       -24.7217
  27   2.0000      -0.906226       -24.6597
  28   2.0000      -0.869318       -23.6554
  29   2.0000      -0.847521       -23.0622
  30   2.0000      -0.844696       -22.9854
  31   2.0000      -0.812830       -22.1182
  32   2.0000      -0.777724       -21.1629
  33   2.0000      -0.763648       -20.7799
  34   2.0000      -0.711446       -19.3594
  35   2.0000      -0.695471       -18.9247
  36   2.0000      -0.679480       -18.4896
  37   2.0000      -0.654773       -17.8173
  38   2.0000      -0.628946       -17.1145
  39   2.0000      -0.618572       -16.8322
  40   2.0000      -0.593965       -16.1626
  41   2.0000      -0.574177       -15.6242
  42   2.0000      -0.562252       -15.2997
  43   2.0000      -0.559417       -15.2225
  44   2.0000      -0.522705       -14.2235
  45   2.0000      -0.515753       -14.0343
  46   2.0000      -0.508287       -13.8312
  47   2.0000      -0.506318       -13.7776
  48   2.0000      -0.504917       -13.7395
  49   2.0000      -0.495670       -13.4879
  50   2.0000      -0.491828       -13.3833
  51   2.0000      -0.484111       -13.1733
  52   2.0000      -0.474142       -12.9021
  53   2.0000      -0.464367       -12.6361
  54   2.0000      -0.457262       -12.4427
  55   2.0000      -0.450232       -12.2514
  56   2.0000      -0.443069       -12.0565
  57   2.0000      -0.433548       -11.7974
  58   2.0000      -0.431510       -11.7420
  59   2.0000      -0.424800       -11.5594
  60   2.0000      -0.413321       -11.2470
  61   2.0000      -0.412016       -11.2115
  62   2.0000      -0.406136       -11.0515
  63   2.0000      -0.345604        -9.4044
  64   2.0000      -0.327099        -8.9008
  65   2.0000      -0.322856        -8.7853
  66   2.0000      -0.290196        -7.8966
  67   0.0000       0.026956         0.7335
  68   0.0000       0.068611         1.8670
  69   0.0000       0.111780         3.0417
  70   0.0000       0.118183         3.2159
  71   0.0000       0.130079         3.5396

MULLIKEN ATOMIC CHARGES
-----------------------
   0 S :    0.114880
   1 C :   -0.161757
   2 C :   -0.109191
   3 C :    0.019987
   4 C :   -0.155065
   5 H :    0.034443
   6 C :    0.054481
   7 H :    0.049722
   8 H :    0.014421
   9 C :   -0.115434
  10 H :    0.041367
  11 H :    0.041711
  12 C :   -0.033502
  13 H :    0.022858
  14 H :    0.032289
  15 H :    0.042236
  16 S :    0.117928
  17 C :   -0.120884
  18 C :   -0.040829
  19 C :   -0.011324
  20 C :   -0.147232
  21 H :    0.019842
  22 C :    0.082254
  23 H :    0.024905
  24 H :    0.018369
  25 C :   -0.146116
  26 H :    0.041964
  27 H :    0.056934
  28 C :   -0.044147
  29 H :    0.045928
  30 H :    0.032714
  31 H :    0.027791
  32 H :    0.082216
  33 H :    0.066240
Sum of atomic charges:    0.0000000

LOEWDIN ATOMIC CHARGES
----------------------
   0 S :    0.398830
   1 C :   -0.224902
   2 C :   -0.062917
   3 C :   -0.064407
   4 C :   -0.189014
   5 H :    0.039478
   6 C :   -0.036961
   7 H :    0.040551
   8 H :    0.022462
   9 C :   -0.045754
  10 H :    0.027201
  11 H :    0.026326
  12 C :   -0.069501
  13 H :    0.021412
  14 H :    0.029064
  15 H :    0.032944
  16 S :    0.415601
  17 C :   -0.190422
  18 C :   -0.069036
  19 C :   -0.054324
  20 C :   -0.211326
  21 H :    0.034256
  22 C :   -0.038030
  23 H :    0.028900
  24 H :    0.031828
  25 C :   -0.044780
  26 H :    0.025563
  27 H :    0.033815
  28 C :   -0.070873
  29 H :    0.029942
  30 H :    0.022838
  31 H :    0.025748
  32 H :    0.051578
  33 H :    0.033911

  Mayer bond orders larger than 0.100000
B(  0-S ,  1-C ) :   1.1167 B(  0-S ,  4-C ) :   1.1600 B(  1-C ,  2-C ) :   1.6259
B(  1-C , 32-H ) :   0.9598 B(  2-C ,  3-C ) :   1.2411 B(  2-C ,  6-C ) :   1.0063
B(  3-C ,  4-C ) :   1.5522 B(  3-C ,  5-H ) :   0.9863 B(  4-C , 20-C ) :   1.0232
B(  6-C ,  7-H ) :   0.9337 B(  6-C ,  8-H ) :   0.9372 B(  6-C ,  9-C ) :   1.0805
B(  9-C , 10-H ) :   0.9470 B(  9-C , 11-H ) :   0.9529 B(  9-C , 12-C ) :   1.0955
B( 12-C , 13-H ) :   0.9707 B( 12-C , 14-H ) :   0.9700 B( 12-C , 15-H ) :   0.9727
B( 16-S , 17-C ) :   1.1560 B( 16-S , 20-C ) :   1.1644 B( 17-C , 18-C ) :   1.6183
B( 17-C , 20-C ) :   0.1082 B( 17-C , 33-H ) :   0.9582 B( 18-C , 19-C ) :   1.2377
B( 18-C , 21-H ) :   0.9912 B( 19-C , 20-C ) :   1.5467 B( 19-C , 22-C ) :   1.0533
B( 22-C , 23-H ) :   0.9138 B( 22-C , 24-H ) :   0.9447 B( 22-C , 25-C ) :   1.0644
B( 25-C , 26-H ) :   0.9650 B( 25-C , 27-H ) :   0.9455 B( 25-C , 28-C ) :   1.0594
B( 28-C , 29-H ) :   0.9785 B( 28-C , 30-H ) :   0.9766 B( 28-C , 31-H ) :   0.9746

Dispersion correction           -0.014535227
FINAL SINGLE POINT ENERGY     -1339.864535562404

DIPOLE MOMENT
-------------
                                X             Y             Z
Electronic contribution:    -24.72391     -10.61262       7.60300
Nuclear contribution   :     25.29010      10.90944      -7.65028
                        -----------------------------------------
Total Dipole Moment    :      0.56619       0.29682      -0.04728
                        -----------------------------------------
Magnitude (a.u.)       :      0.64102
Magnitude (Debye)      :      1.62934

Rotational constants in cm-1:     0.017015     0.008766     0.007582
Rotational constants in MHz :   510.098392   262.787656   227.312408

                             ****ORCA TERMINATED NORMALLY****
TOTAL RUN TIME: 0 days 0 hours 0 minutes 20 seconds 760 msec
