                         Program Version 4.2.1 -  RELEASE  -
|  1> ! wB97X-D3 SP def2-SVP
|  2> %pal
|  3> nprocs 24
|  4> end
|  5>
|  6> * xyz 0 1
|  7> S 	 -104.998 	 45.901 	 -89.9235
|  8> C 	 -104.889 	 44.3929 	 -90.7882
|  9> C 	 -104.911 	 43.3659 	 -89.9087
| 10> C 	 -104.823 	 43.7036 	 -88.5741
| 11> C 	 -104.694 	 45.0916 	 -88.3755
| 12> H 	 -104.756 	 43.0187 	 -87.7117
| 13> C 	 -104.927 	 41.9574 	 -90.3544
| 14> H 	 -105.788 	 41.9039 	 -91.0934
| 15> H 	 -105.135 	 41.3054 	 -89.5576
| 16> C 	 -103.676 	 41.4748 	 -91.1153
| 17> H 	 -103.995 	 40.4972 	 -91.4458
| 18> H 	 -103.364 	 42.2564 	 -91.8629
| 19> C 	 -102.507 	 41.1371 	 -90.183
| 20> H 	 -102.863 	 40.3806 	 -89.5245
| 21> H 	 -101.725 	 40.7865 	 -90.851
| 22> H 	 -102.245 	 41.9198 	 -89.4776
| 23> S 	 -105.172 	 47.475 	 -87.1901
| 24> C 	 -104.502 	 47.8451 	 -85.6528
| 25> C 	 -104.19 	 46.7342 	 -84.9727
| 26> C 	 -104.002 	 45.6135 	 -85.8139
| 27> C 	 -104.426 	 45.877 	 -87.1386
| 28> H 	 -104.01 	 46.8749 	 -83.9078
| 29> C 	 -103.288 	 44.386 	 -85.4438
| 30> H 	 -102.341 	 44.7565 	 -84.9831
| 31> H 	 -102.953 	 43.922 	 -86.3444
| 32> C 	 -104.015 	 43.4175 	 -84.4935
| 33> H 	 -104.871 	 43.1912 	 -85.1037
| 34> H 	 -104.243 	 43.7886 	 -83.4884
| 35> C 	 -103.246 	 42.0691 	 -84.3883
| 36> H 	 -102.443 	 41.9634 	 -83.7157
| 37> H 	 -102.992 	 41.676 	 -85.4202
| 38> H 	 -103.961 	 41.3767 	 -83.9944
| 39> H 	 -105.017 	 44.2118 	 -91.8123
| 40> H 	 -104.692 	 48.7386 	 -85.0986
| 41> *
| 42>
| 43>                          ****END OF INPUT****

CARTESIAN COORDINATES (ANGSTROEM)
---------------------------------
  S    -104.998000   45.901000  -89.923500
  C    -104.889000   44.392900  -90.788200
  C    -104.911000   43.365900  -89.908700
  C    -104.823000   43.703600  -88.574100
  C    -104.694000   45.091600  -88.375500
  H    -104.756000   43.018700  -87.711700
  C    -104.927000   41.957400  -90.354400
  H    -105.788000   41.903900  -91.093400
  H    -105.135000   41.305400  -89.557600
  C    -103.676000   41.474800  -91.115300
  H    -103.995000   40.497200  -91.445800
  H    -103.364000   42.256400  -91.862900
  C    -102.507000   41.137100  -90.183000
  H    -102.863000   40.380600  -89.524500
  H    -101.725000   40.786500  -90.851000
  H    -102.245000   41.919800  -89.477600
  S    -105.172000   47.475000  -87.190100
  C    -104.502000   47.845100  -85.652800
  C    -104.190000   46.734200  -84.972700
  C    -104.002000   45.613500  -85.813900
  C    -104.426000   45.877000  -87.138600
  H    -104.010000   46.874900  -83.907800
  C    -103.288000   44.386000  -85.443800
  H    -102.341000   44.756500  -84.983100
  H    -102.953000   43.922000  -86.344400
  C    -104.015000   43.417500  -84.493500
  H    -104.871000   43.191200  -85.103700
  H    -104.243000   43.788600  -83.488400
  C    -103.246000   42.069100  -84.388300
  H    -102.443000   41.963400  -83.715700
  H    -102.992000   41.676000  -85.420200
  H    -103.961000   41.376700  -83.994400
  H    -105.017000   44.211800  -91.812300
  H    -104.692000   48.738600  -85.098600

 Total Charge           Charge          ....    0
 Multiplicity           Mult            ....    1
 Number of Electrons    NEL             ....  134
 Basis Dimension        Dim             ....  322

ORBITAL ENERGIES
----------------

  NO   OCC          E(Eh)            E(eV)
   0   2.0000     -88.967061     -2420.9168
   1   2.0000     -88.960302     -2420.7329
   2   2.0000     -10.338136      -281.3150
   3   2.0000     -10.332090      -281.1504
   4   2.0000     -10.307150      -280.4718
   5   2.0000     -10.304779      -280.4073
   6   2.0000     -10.303750      -280.3793
   7   2.0000     -10.294617      -280.1308
   8   2.0000     -10.293050      -280.0881
   9   2.0000     -10.289197      -279.9833
  10   2.0000     -10.288661      -279.9687
  11   2.0000     -10.287944      -279.9492
  12   2.0000     -10.287249      -279.9303
  13   2.0000     -10.285460      -279.8816
  14   2.0000     -10.279676      -279.7242
  15   2.0000     -10.272018      -279.5158
  16   2.0000      -8.081288      -219.9030
  17   2.0000      -8.076019      -219.7597
  18   2.0000      -6.039893      -164.3538
  19   2.0000      -6.035905      -164.2453
  20   2.0000      -6.034423      -164.2050
  21   2.0000      -6.031926      -164.1370
  22   2.0000      -6.030703      -164.1038
  23   2.0000      -6.026504      -163.9895
  24   2.0000      -1.011403       -27.5217
  25   2.0000      -0.993391       -27.0316
  26   2.0000      -0.916975       -24.9522
  27   2.0000      -0.914763       -24.8920
  28   2.0000      -0.871884       -23.7252
  29   2.0000      -0.855992       -23.2927
  30   2.0000      -0.848289       -23.0831
  31   2.0000      -0.821747       -22.3609
  32   2.0000      -0.783222       -21.3125
  33   2.0000      -0.772346       -21.0166
  34   2.0000      -0.712400       -19.3854
  35   2.0000      -0.703902       -19.1541
  36   2.0000      -0.695358       -18.9217
  37   2.0000      -0.659920       -17.9573
  38   2.0000      -0.636572       -17.3220
  39   2.0000      -0.617681       -16.8080
  40   2.0000      -0.597662       -16.2632
  41   2.0000      -0.585266       -15.9259
  42   2.0000      -0.574165       -15.6238
  43   2.0000      -0.551245       -15.0001
  44   2.0000      -0.542480       -14.7616
  45   2.0000      -0.526377       -14.3235
  46   2.0000      -0.521719       -14.1967
  47   2.0000      -0.511321       -13.9137
  48   2.0000      -0.508301       -13.8316
  49   2.0000      -0.504336       -13.7237
  50   2.0000      -0.492686       -13.4067
  51   2.0000      -0.481725       -13.1084
  52   2.0000      -0.473527       -12.8853
  53   2.0000      -0.470839       -12.8122
  54   2.0000      -0.460400       -12.5281
  55   2.0000      -0.452664       -12.3176
  56   2.0000      -0.442114       -12.0305
  57   2.0000      -0.438363       -11.9285
  58   2.0000      -0.431769       -11.7490
  59   2.0000      -0.427227       -11.6254
  60   2.0000      -0.422289       -11.4911
  61   2.0000      -0.413102       -11.2411
  62   2.0000      -0.411412       -11.1951
  63   2.0000      -0.357426        -9.7261
  64   2.0000      -0.334343        -9.0979
  65   2.0000      -0.323571        -8.8048
  66   2.0000      -0.280792        -7.6407
  67   0.0000       0.013858         0.3771
  68   0.0000       0.080909         2.2017
  69   0.0000       0.090882         2.4730
  70   0.0000       0.119762         3.2589
  71   0.0000       0.131379         3.5750

MULLIKEN ATOMIC CHARGES
-----------------------
   0 S :    0.107821
   1 C :   -0.087396
   2 C :   -0.077945
   3 C :    0.009144
   4 C :   -0.140021
   5 H :    0.009939
   6 C :    0.045331
   7 H :    0.036655
   8 H :   -0.001212
   9 C :   -0.071903
  10 H :    0.028031
  11 H :    0.044572
  12 C :   -0.032347
  13 H :    0.006230
  14 H :    0.045981
  15 H :    0.033112
  16 S :    0.075670
  17 C :   -0.055574
  18 C :   -0.051956
  19 C :   -0.043267
  20 C :   -0.110279
  21 H :    0.022346
  22 C :    0.042594
  23 H :    0.029757
  24 H :    0.009493
  25 C :   -0.054454
  26 H :    0.025645
  27 H :    0.042488
  28 C :   -0.042600
  29 H :    0.030948
  30 H :    0.030837
  31 H :    0.021296
  32 H :    0.025303
  33 H :    0.045763
Sum of atomic charges:   -0.0000000

LOEWDIN ATOMIC CHARGES
----------------------
   0 S :    0.403258
   1 C :   -0.194212
   2 C :   -0.074141
   3 C :   -0.074832
   4 C :   -0.179181
   5 H :    0.032825
   6 C :   -0.032684
   7 H :    0.038079
   8 H :    0.017922
   9 C :   -0.034892
  10 H :    0.025810
  11 H :    0.029297
  12 C :   -0.063996
  13 H :    0.017726
  14 H :    0.030263
  15 H :    0.023705
  16 S :    0.399718
  17 C :   -0.184428
  18 C :   -0.071624
  19 C :   -0.056722
  20 C :   -0.185321
  21 H :    0.036121
  22 C :   -0.039281
  23 H :    0.035045
  24 H :    0.025412
  25 C :   -0.029922
  26 H :    0.024506
  27 H :    0.028630
  28 C :   -0.064789
  29 H :    0.017503
  30 H :    0.030180
  31 H :    0.024219
  32 H :    0.020459
  33 H :    0.025349

  Mayer bond orders larger than 0.100000
B(  0-S ,  1-C ) :   1.1244 B(  0-S ,  4-C ) :   1.1720 B(  1-C ,  2-C ) :   1.5954
B(  1-C ,  4-C ) :   0.1084 B(  1-C , 32-H ) :   0.9716 B(  2-C ,  3-C ) :   1.2741
B(  2-C ,  6-C ) :   1.0319 B(  3-C ,  4-C ) :   1.5205 B(  3-C ,  5-H ) :   0.9905
B(  4-C , 20-C ) :   1.0573 B(  6-C ,  7-H ) :   0.9331 B(  6-C ,  8-H ) :   0.9397
B(  6-C ,  9-C ) :   1.0769 B(  9-C , 10-H ) :   0.9538 B(  9-C , 11-H ) :   0.9556
B(  9-C , 12-C ) :   1.0760 B( 12-C , 13-H ) :   0.9718 B( 12-C , 14-H ) :   0.9740
B( 12-C , 15-H ) :   0.9774 B( 16-S , 17-C ) :   1.1493 B( 16-S , 20-C ) :   1.1384
B( 17-C , 18-C ) :   1.6476 B( 17-C , 33-H ) :   0.9635 B( 18-C , 19-C ) :   1.2255
B( 18-C , 21-H ) :   0.9901 B( 19-C , 20-C ) :   1.5693 B( 19-C , 22-C ) :   1.0528
B( 22-C , 23-H ) :   0.9283 B( 22-C , 24-H ) :   0.9387 B( 22-C , 25-C ) :   1.0550
B( 25-C , 26-H ) :   0.9531 B( 25-C , 27-H ) :   0.9558 B( 25-C , 28-C ) :   1.0880
B( 28-C , 29-H ) :   0.9772 B( 28-C , 30-H ) :   0.9723 B( 28-C , 31-H ) :   0.9738

Dispersion correction           -0.014195047
FINAL SINGLE POINT ENERGY     -1339.847229520342

DIPOLE MOMENT
-------------
                                X             Y             Z
Electronic contribution:    -10.37677      28.86038      -5.61127
Nuclear contribution   :     10.43937     -29.51300       6.05104
                        -----------------------------------------
Total Dipole Moment    :      0.06260      -0.65263       0.43977
                        -----------------------------------------
Magnitude (a.u.)       :      0.78945
Magnitude (Debye)      :      2.00663

Rotational constants in cm-1:     0.017268     0.009889     0.006615
Rotational constants in MHz :   517.680024   296.460762   198.306989

                             ****ORCA TERMINATED NORMALLY****
TOTAL RUN TIME: 0 days 0 hours 0 minutes 22 seconds 134 msec
