                         Program Version 4.2.1 -  RELEASE  -
|  1> ! wB97X-D3 SP def2-SVP
|  2> %pal
|  3> nprocs 24
|  4> end
|  5>
|  6> * xyz 0 1
|  7> S 	 39.3195 	 -31.5432 	 -119.445
|  8> C 	 40.0753 	 -30.1097 	 -120.175
|  9> C 	 40.8826 	 -30.5256 	 -121.22
| 10> C 	 40.8413 	 -31.9083 	 -121.524
| 11> C 	 40.0204 	 -32.6063 	 -120.638
| 12> H 	 41.4379 	 -32.2988 	 -122.368
| 13> C 	 41.6929 	 -29.5798 	 -122.085
| 14> H 	 41.0029 	 -28.6976 	 -122.148
| 15> H 	 41.7402 	 -29.8858 	 -123.141
| 16> C 	 43.0288 	 -29.2843 	 -121.57
| 17> H 	 43.5396 	 -28.442 	 -122.008
| 18> H 	 42.8174 	 -28.8718 	 -120.532
| 19> C 	 43.86 	 -30.5253 	 -121.523
| 20> H 	 43.6884 	 -31.157 	 -122.466
| 21> H 	 44.9017 	 -30.2139 	 -121.52
| 22> H 	 43.6127 	 -31.1835 	 -120.652
| 23> S 	 41.1616 	 -35.0893 	 -120.818
| 24> C 	 40.1372 	 -36.5118 	 -120.737
| 25> C 	 38.8548 	 -36.1697 	 -120.623
| 26> C 	 38.5752 	 -34.7727 	 -120.686
| 27> C 	 39.757 	 -34.0222 	 -120.768
| 28> H 	 38.061 	 -36.9061 	 -120.557
| 29> C 	 37.1305 	 -34.2383 	 -120.524
| 30> H 	 37.1488 	 -33.1923 	 -120.548
| 31> H 	 36.5941 	 -34.5955 	 -119.631
| 32> C 	 36.2655 	 -34.6401 	 -121.674
| 33> H 	 36.3393 	 -35.7628 	 -121.651
| 34> H 	 36.7554 	 -34.139 	 -122.49
| 35> C 	 34.7891 	 -34.1693 	 -121.642
| 36> H 	 34.3673 	 -34.2357 	 -120.634
| 37> H 	 34.0536 	 -34.7108 	 -122.257
| 38> H 	 34.7918 	 -33.1137 	 -121.958
| 39> H 	 40.0724 	 -29.0781 	 -119.744
| 40> H 	 40.3243 	 -37.5708 	 -120.842
| 41> *
| 42>
| 43>                          ****END OF INPUT****

CARTESIAN COORDINATES (ANGSTROEM)
---------------------------------
  S     39.319500  -31.543200  -119.445000
  C     40.075300  -30.109700  -120.175000
  C     40.882600  -30.525600  -121.220000
  C     40.841300  -31.908300  -121.524000
  C     40.020400  -32.606300  -120.638000
  H     41.437900  -32.298800  -122.368000
  C     41.692900  -29.579800  -122.085000
  H     41.002900  -28.697600  -122.148000
  H     41.740200  -29.885800  -123.141000
  C     43.028800  -29.284300  -121.570000
  H     43.539600  -28.442000  -122.008000
  H     42.817400  -28.871800  -120.532000
  C     43.860000  -30.525300  -121.523000
  H     43.688400  -31.157000  -122.466000
  H     44.901700  -30.213900  -121.520000
  H     43.612700  -31.183500  -120.652000
  S     41.161600  -35.089300  -120.818000
  C     40.137200  -36.511800  -120.737000
  C     38.854800  -36.169700  -120.623000
  C     38.575200  -34.772700  -120.686000
  C     39.757000  -34.022200  -120.768000
  H     38.061000  -36.906100  -120.557000
  C     37.130500  -34.238300  -120.524000
  H     37.148800  -33.192300  -120.548000
  H     36.594100  -34.595500  -119.631000
  C     36.265500  -34.640100  -121.674000
  H     36.339300  -35.762800  -121.651000
  H     36.755400  -34.139000  -122.490000
  C     34.789100  -34.169300  -121.642000
  H     34.367300  -34.235700  -120.634000
  H     34.053600  -34.710800  -122.257000
  H     34.791800  -33.113700  -121.958000
  H     40.072400  -29.078100  -119.744000
  H     40.324300  -37.570800  -120.842000

 Total Charge           Charge          ....    0
 Multiplicity           Mult            ....    1
 Number of Electrons    NEL             ....  134
 Basis Dimension        Dim             ....  322

ORBITAL ENERGIES
----------------

  NO   OCC          E(Eh)            E(eV)
   0   2.0000     -88.972908     -2421.0759
   1   2.0000     -88.967626     -2420.9322
   2   2.0000     -10.333070      -281.1771
   3   2.0000     -10.330083      -281.0959
   4   2.0000     -10.321176      -280.8535
   5   2.0000     -10.311974      -280.6031
   6   2.0000     -10.304799      -280.4078
   7   2.0000     -10.299598      -280.2663
   8   2.0000     -10.296105      -280.1713
   9   2.0000     -10.287688      -279.9422
  10   2.0000     -10.286889      -279.9205
  11   2.0000     -10.284659      -279.8598
  12   2.0000     -10.282266      -279.7947
  13   2.0000     -10.281491      -279.7736
  14   2.0000     -10.281344      -279.7696
  15   2.0000     -10.280467      -279.7457
  16   2.0000      -8.086541      -220.0460
  17   2.0000      -8.081818      -219.9174
  18   2.0000      -6.045168      -164.4974
  19   2.0000      -6.041079      -164.3861
  20   2.0000      -6.040569      -164.3722
  21   2.0000      -6.037344      -164.2845
  22   2.0000      -6.036421      -164.2594
  23   2.0000      -6.032320      -164.1478
  24   2.0000      -1.007819       -27.4241
  25   2.0000      -0.986186       -26.8355
  26   2.0000      -0.924215       -25.1492
  27   2.0000      -0.913417       -24.8553
  28   2.0000      -0.874229       -23.7890
  29   2.0000      -0.849546       -23.1173
  30   2.0000      -0.841100       -22.8875
  31   2.0000      -0.815698       -22.1963
  32   2.0000      -0.783877       -21.3304
  33   2.0000      -0.771715       -20.9994
  34   2.0000      -0.709030       -19.2937
  35   2.0000      -0.697221       -18.9724
  36   2.0000      -0.686666       -18.6851
  37   2.0000      -0.658709       -17.9244
  38   2.0000      -0.635836       -17.3020
  39   2.0000      -0.612266       -16.6606
  40   2.0000      -0.597922       -16.2703
  41   2.0000      -0.578730       -15.7480
  42   2.0000      -0.577288       -15.7088
  43   2.0000      -0.563117       -15.3232
  44   2.0000      -0.544133       -14.8066
  45   2.0000      -0.515418       -14.0252
  46   2.0000      -0.511478       -13.9180
  47   2.0000      -0.508776       -13.8445
  48   2.0000      -0.504523       -13.7288
  49   2.0000      -0.499667       -13.5966
  50   2.0000      -0.491641       -13.3782
  51   2.0000      -0.475509       -12.9392
  52   2.0000      -0.473843       -12.8939
  53   2.0000      -0.466286       -12.6883
  54   2.0000      -0.461807       -12.5664
  55   2.0000      -0.452799       -12.3213
  56   2.0000      -0.444932       -12.1072
  57   2.0000      -0.432250       -11.7621
  58   2.0000      -0.425369       -11.5749
  59   2.0000      -0.423254       -11.5173
  60   2.0000      -0.417956       -11.3732
  61   2.0000      -0.407369       -11.0851
  62   2.0000      -0.405659       -11.0385
  63   2.0000      -0.349632        -9.5140
  64   2.0000      -0.335906        -9.1405
  65   2.0000      -0.330966        -9.0061
  66   2.0000      -0.294032        -8.0010
  67   0.0000       0.024815         0.6752
  68   0.0000       0.073658         2.0043
  69   0.0000       0.109789         2.9875
  70   0.0000       0.113588         3.0909
  71   0.0000       0.129494         3.5237

MULLIKEN ATOMIC CHARGES
-----------------------
   0 S :    0.126629
   1 C :   -0.152563
   2 C :   -0.092958
   3 C :    0.008272
   4 C :   -0.131379
   5 H :    0.029308
   6 C :    0.018673
   7 H :    0.026194
   8 H :    0.026527
   9 C :   -0.033871
  10 H :    0.026279
  11 H :    0.018586
  12 C :   -0.075010
  13 H :    0.031178
  14 H :    0.037261
  15 H :    0.063440
  16 S :    0.109041
  17 C :   -0.059919
  18 C :   -0.047532
  19 C :   -0.043034
  20 C :   -0.165533
  21 H :    0.017459
  22 C :    0.115315
  23 H :   -0.006062
  24 H :    0.029718
  25 C :   -0.120247
  26 H :    0.030263
  27 H :    0.031576
  28 C :   -0.037510
  29 H :    0.022264
  30 H :    0.040892
  31 H :    0.036173
  32 H :    0.072193
  33 H :    0.048374
Sum of atomic charges:   -0.0000000

LOEWDIN ATOMIC CHARGES
----------------------
   0 S :    0.415451
   1 C :   -0.204675
   2 C :   -0.062052
   3 C :   -0.066768
   4 C :   -0.197888
   5 H :    0.037824
   6 C :   -0.041648
   7 H :    0.033561
   8 H :    0.026433
   9 C :   -0.053161
  10 H :    0.022316
  11 H :    0.029657
  12 C :   -0.070024
  13 H :    0.028551
  14 H :    0.027174
  15 H :    0.036747
  16 S :    0.402593
  17 C :   -0.186867
  18 C :   -0.071490
  19 C :   -0.052968
  20 C :   -0.189241
  21 H :    0.029349
  22 C :   -0.027870
  23 H :    0.010924
  24 H :    0.030123
  25 C :   -0.044138
  26 H :    0.022757
  27 H :    0.024880
  28 C :   -0.070944
  29 H :    0.022563
  30 H :    0.029909
  31 H :    0.029645
  32 H :    0.042115
  33 H :    0.037161

  Mayer bond orders larger than 0.100000
B(  0-S ,  1-C ) :   1.1295 B(  0-S ,  4-C ) :   1.1623 B(  1-C ,  2-C ) :   1.6025
B(  1-C , 32-H ) :   0.9600 B(  2-C ,  3-C ) :   1.2753 B(  2-C ,  6-C ) :   1.0048
B(  3-C ,  4-C ) :   1.5081 B(  3-C ,  5-H ) :   0.9899 B(  4-C , 20-C ) :   1.0565
B(  6-C ,  7-H ) :   0.9416 B(  6-C ,  8-H ) :   0.9486 B(  6-C ,  9-C ) :   1.0794
B(  9-C , 10-H ) :   0.9572 B(  9-C , 11-H ) :   0.9449 B(  9-C , 12-C ) :   1.0712
B( 12-C , 13-H ) :   0.9729 B( 12-C , 14-H ) :   0.9718 B( 12-C , 15-H ) :   0.9670
B( 16-S , 17-C ) :   1.1231 B( 16-S , 20-C ) :   1.1373 B( 17-C , 18-C ) :   1.6559
B( 17-C , 33-H ) :   0.9600 B( 18-C , 19-C ) :   1.2342 B( 18-C , 21-H ) :   0.9789
B( 19-C , 20-C ) :   1.5912 B( 19-C , 22-C ) :   1.0416 B( 22-C , 23-H ) :   0.9276
B( 22-C , 24-H ) :   0.9384 B( 22-C , 25-C ) :   1.0544 B( 25-C , 26-H ) :   0.9619
B( 25-C , 27-H ) :   0.9601 B( 25-C , 28-C ) :   1.0775 B( 28-C , 29-H ) :   0.9726
B( 28-C , 30-H ) :   0.9760 B( 28-C , 31-H ) :   0.9748

Dispersion correction           -0.014317237
FINAL SINGLE POINT ENERGY     -1339.871925958529

DIPOLE MOMENT
-------------
                                X             Y             Z
Electronic contribution:      5.26629      -7.49457       8.70309
Nuclear contribution   :     -5.36689       7.66696      -8.89259
                        -----------------------------------------
Total Dipole Moment    :     -0.10060       0.17240      -0.18950
                        -----------------------------------------
Magnitude (a.u.)       :      0.27523
Magnitude (Debye)      :      0.69958

Rotational constants in cm-1:     0.021119     0.008213     0.006582
Rotational constants in MHz :   633.128035   246.232218   197.317430

                             ****ORCA TERMINATED NORMALLY****
TOTAL RUN TIME: 0 days 0 hours 0 minutes 20 seconds 426 msec
