                         Program Version 4.2.1 -  RELEASE  -
|  1> ! wB97X-D3 SP def2-SVP
|  2> %pal
|  3> nprocs 24
|  4> end
|  5>
|  6> * xyz 0 1
|  7> S 	 -103.045 	 -1.84962 	 -105.185
|  8> C 	 -103.959 	 -3.02675 	 -106.109
|  9> C 	 -103.347 	 -4.25494 	 -106.192
| 10> C 	 -102.21 	 -4.26536 	 -105.303
| 11> C 	 -101.869 	 -3.06693 	 -104.739
| 12> H 	 -101.544 	 -5.06644 	 -105.088
| 13> C 	 -103.831 	 -5.5527 	 -106.908
| 14> H 	 -104.606 	 -5.34914 	 -107.736
| 15> H 	 -104.293 	 -6.28728 	 -106.257
| 16> C 	 -102.714 	 -6.29636 	 -107.712
| 17> H 	 -102.065 	 -5.56072 	 -108.198
| 18> H 	 -102.048 	 -6.68293 	 -106.914
| 19> C 	 -103.098 	 -7.48429 	 -108.502
| 20> H 	 -103.729 	 -8.13777 	 -107.815
| 21> H 	 -103.615 	 -7.32608 	 -109.458
| 22> H 	 -102.129 	 -7.90091 	 -108.64
| 23> S 	 -99.2005 	 -3.54362 	 -104.128
| 24> C 	 -98.4371 	 -2.68244 	 -102.926
| 25> C 	 -99.2701 	 -1.7954 	 -102.279
| 26> C 	 -100.61 	 -1.85466 	 -102.777
| 27> C 	 -100.745 	 -2.83018 	 -103.772
| 28> H 	 -98.9516 	 -1.12127 	 -101.502
| 29> C 	 -101.766 	 -1.13586 	 -102.04
| 30> H 	 -102.751 	 -1.4187 	 -102.423
| 31> H 	 -101.539 	 -0.0584893 	 -102.206
| 32> C 	 -101.936 	 -1.32817 	 -100.513
| 33> H 	 -102.784 	 -0.793918 	 -100.156
| 34> H 	 -101.114 	 -0.713755 	 -100.09
| 35> C 	 -101.878 	 -2.79975 	 -100.155
| 36> H 	 -100.891 	 -3.1965 	 -100.481
| 37> H 	 -102.578 	 -3.41653 	 -100.597
| 38> H 	 -101.908 	 -2.9325 	 -99.1205
| 39> H 	 -104.866 	 -2.74884 	 -106.673
| 40> H 	 -97.4138 	 -2.87969 	 -102.647
| 41> *
| 42>
| 43>                          ****END OF INPUT****

CARTESIAN COORDINATES (ANGSTROEM)
---------------------------------
  S    -103.045000   -1.849620  -105.185000
  C    -103.959000   -3.026750  -106.109000
  C    -103.347000   -4.254940  -106.192000
  C    -102.210000   -4.265360  -105.303000
  C    -101.869000   -3.066930  -104.739000
  H    -101.544000   -5.066440  -105.088000
  C    -103.831000   -5.552700  -106.908000
  H    -104.606000   -5.349140  -107.736000
  H    -104.293000   -6.287280  -106.257000
  C    -102.714000   -6.296360  -107.712000
  H    -102.065000   -5.560720  -108.198000
  H    -102.048000   -6.682930  -106.914000
  C    -103.098000   -7.484290  -108.502000
  H    -103.729000   -8.137770  -107.815000
  H    -103.615000   -7.326080  -109.458000
  H    -102.129000   -7.900910  -108.640000
  S    -99.200500   -3.543620  -104.128000
  C    -98.437100   -2.682440  -102.926000
  C    -99.270100   -1.795400  -102.279000
  C    -100.610000   -1.854660  -102.777000
  C    -100.745000   -2.830180  -103.772000
  H    -98.951600   -1.121270  -101.502000
  C    -101.766000   -1.135860  -102.040000
  H    -102.751000   -1.418700  -102.423000
  H    -101.539000   -0.058489  -102.206000
  C    -101.936000   -1.328170  -100.513000
  H    -102.784000   -0.793918  -100.156000
  H    -101.114000   -0.713755  -100.090000
  C    -101.878000   -2.799750  -100.155000
  H    -100.891000   -3.196500  -100.481000
  H    -102.578000   -3.416530  -100.597000
  H    -101.908000   -2.932500  -99.120500
  H    -104.866000   -2.748840  -106.673000
  H    -97.413800   -2.879690  -102.647000

 Total Charge           Charge          ....    0
 Multiplicity           Mult            ....    1
 Number of Electrons    NEL             ....  134
 Basis Dimension        Dim             ....  322

ORBITAL ENERGIES
----------------

  NO   OCC          E(Eh)            E(eV)
   0   2.0000     -88.967578     -2420.9309
   1   2.0000     -88.965664     -2420.8788
   2   2.0000     -10.329255      -281.0733
   3   2.0000     -10.328773      -281.0602
   4   2.0000     -10.316324      -280.7215
   5   2.0000     -10.313673      -280.6493
   6   2.0000     -10.307110      -280.4707
   7   2.0000     -10.305715      -280.4328
   8   2.0000     -10.301307      -280.3128
   9   2.0000     -10.293390      -280.0974
  10   2.0000     -10.291843      -280.0553
  11   2.0000     -10.288681      -279.9693
  12   2.0000     -10.284532      -279.8563
  13   2.0000     -10.283424      -279.8262
  14   2.0000     -10.281533      -279.7747
  15   2.0000     -10.262253      -279.2501
  16   2.0000      -8.084147      -219.9808
  17   2.0000      -8.080089      -219.8704
  18   2.0000      -6.042403      -164.4221
  19   2.0000      -6.038636      -164.3196
  20   2.0000      -6.038285      -164.3101
  21   2.0000      -6.035189      -164.2258
  22   2.0000      -6.034672      -164.2118
  23   2.0000      -6.030777      -164.1058
  24   2.0000      -1.011625       -27.5277
  25   2.0000      -0.988817       -26.9071
  26   2.0000      -0.910353       -24.7720
  27   2.0000      -0.908395       -24.7187
  28   2.0000      -0.869473       -23.6596
  29   2.0000      -0.853141       -23.2151
  30   2.0000      -0.846064       -23.0226
  31   2.0000      -0.812564       -22.1110
  32   2.0000      -0.785025       -21.3616
  33   2.0000      -0.775641       -21.1063
  34   2.0000      -0.705534       -19.1986
  35   2.0000      -0.693766       -18.8783
  36   2.0000      -0.680944       -18.5294
  37   2.0000      -0.665499       -18.1092
  38   2.0000      -0.636596       -17.3227
  39   2.0000      -0.617504       -16.8031
  40   2.0000      -0.598610       -16.2890
  41   2.0000      -0.572036       -15.5659
  42   2.0000      -0.561701       -15.2847
  43   2.0000      -0.553331       -15.0569
  44   2.0000      -0.544657       -14.8209
  45   2.0000      -0.526119       -14.3164
  46   2.0000      -0.514525       -14.0009
  47   2.0000      -0.507255       -13.8031
  48   2.0000      -0.501300       -13.6411
  49   2.0000      -0.497213       -13.5299
  50   2.0000      -0.493988       -13.4421
  51   2.0000      -0.480246       -13.0682
  52   2.0000      -0.475052       -12.9268
  53   2.0000      -0.468339       -12.7441
  54   2.0000      -0.465991       -12.6803
  55   2.0000      -0.451747       -12.2927
  56   2.0000      -0.446801       -12.1581
  57   2.0000      -0.432697       -11.7743
  58   2.0000      -0.430720       -11.7205
  59   2.0000      -0.425103       -11.5676
  60   2.0000      -0.420055       -11.4303
  61   2.0000      -0.404585       -11.0093
  62   2.0000      -0.399999       -10.8845
  63   2.0000      -0.354918        -9.6578
  64   2.0000      -0.332458        -9.0466
  65   2.0000      -0.330354        -8.9894
  66   2.0000      -0.290272        -7.8987
  67   0.0000       0.030328         0.8253
  68   0.0000       0.082964         2.2576
  69   0.0000       0.112701         3.0667
  70   0.0000       0.118944         3.2366
  71   0.0000       0.133103         3.6219

MULLIKEN ATOMIC CHARGES
-----------------------
   0 S :    0.110373
   1 C :   -0.149806
   2 C :   -0.020928
   3 C :   -0.011782
   4 C :   -0.107920
   5 H :   -0.000852
   6 C :    0.043330
   7 H :    0.027909
   8 H :    0.038556
   9 C :   -0.146745
  10 H :    0.035799
  11 H :    0.024828
  12 C :   -0.015990
  13 H :    0.033938
  14 H :    0.045762
  15 H :    0.034540
  16 S :    0.119325
  17 C :   -0.082391
  18 C :   -0.031300
  19 C :   -0.081072
  20 C :   -0.144130
  21 H :    0.016025
  22 C :    0.020485
  23 H :    0.032441
  24 H :    0.039013
  25 C :   -0.062189
  26 H :    0.023764
  27 H :    0.013972
  28 C :    0.012037
  29 H :    0.031737
  30 H :    0.018314
  31 H :    0.017010
  32 H :    0.057843
  33 H :    0.058105
Sum of atomic charges:   -0.0000000

LOEWDIN ATOMIC CHARGES
----------------------
   0 S :    0.409415
   1 C :   -0.193115
   2 C :   -0.062855
   3 C :   -0.069482
   4 C :   -0.187708
   5 H :    0.020023
   6 C :   -0.035751
   7 H :    0.032994
   8 H :    0.028052
   9 C :   -0.053986
  10 H :    0.024572
  11 H :    0.022937
  12 C :   -0.064133
  13 H :    0.034467
  14 H :    0.025846
  15 H :    0.031298
  16 S :    0.453645
  17 C :   -0.207055
  18 C :   -0.072591
  19 C :   -0.060628
  20 C :   -0.205801
  21 H :    0.030312
  22 C :   -0.037233
  23 H :    0.019897
  24 H :    0.035379
  25 C :   -0.037971
  26 H :    0.021092
  27 H :    0.020974
  28 C :   -0.055041
  29 H :    0.034814
  30 H :    0.017588
  31 H :    0.017892
  32 H :    0.033134
  33 H :    0.029020

  Mayer bond orders larger than 0.100000
B(  0-S ,  1-C ) :   1.1435 B(  0-S ,  4-C ) :   1.1317 B(  1-C ,  2-C ) :   1.6319
B(  1-C , 32-H ) :   0.9619 B(  2-C ,  3-C ) :   1.2034 B(  2-C ,  6-C ) :   1.0193
B(  3-C ,  4-C ) :   1.6087 B(  3-C ,  5-H ) :   0.9940 B(  4-C , 20-C ) :   1.0272
B(  6-C ,  7-H ) :   0.9512 B(  6-C ,  8-H ) :   0.9438 B(  6-C ,  9-C ) :   1.0488
B(  9-C , 10-H ) :   0.9584 B(  9-C , 11-H ) :   0.9537 B(  9-C , 12-C ) :   1.0800
B( 12-C , 13-H ) :   0.9669 B( 12-C , 14-H ) :   0.9739 B( 12-C , 15-H ) :   0.9713
B( 16-S , 17-C ) :   1.1958 B( 16-S , 20-C ) :   1.1605 B( 17-C , 18-C ) :   1.5565
B( 17-C , 33-H ) :   0.9680 B( 18-C , 19-C ) :   1.2703 B( 18-C , 21-H ) :   0.9975
B( 19-C , 20-C ) :   1.5676 B( 19-C , 22-C ) :   1.0250 B( 22-C , 23-H ) :   0.9464
B( 22-C , 24-H ) :   0.9360 B( 22-C , 25-C ) :   1.0766 B( 25-C , 26-H ) :   0.9553
B( 25-C , 27-H ) :   0.9499 B( 25-C , 28-C ) :   1.0775 B( 28-C , 29-H ) :   0.9650
B( 28-C , 30-H ) :   0.9764 B( 28-C , 31-H ) :   0.9722

Dispersion correction           -0.014223318
FINAL SINGLE POINT ENERGY     -1339.874181123743

DIPOLE MOMENT
-------------
                                X             Y             Z
Electronic contribution:      8.18850      11.27298      -2.38755
Nuclear contribution   :     -8.17094     -11.49219       2.55380
                        -----------------------------------------
Total Dipole Moment    :      0.01756      -0.21921       0.16625
                        -----------------------------------------
Magnitude (a.u.)       :      0.27568
Magnitude (Debye)      :      0.70072

Rotational constants in cm-1:     0.022685     0.007461     0.006444
Rotational constants in MHz :   680.077101   223.673861   193.176096

                             ****ORCA TERMINATED NORMALLY****
TOTAL RUN TIME: 0 days 0 hours 0 minutes 21 seconds 176 msec
