                         Program Version 4.2.1 -  RELEASE  -
|  1> ! wB97X-D3 SP def2-SVP
|  2> %pal
|  3> nprocs 24
|  4> end
|  5>
|  6> * xyz 0 1
|  7> S 	 37.063 	 -33.006 	 -111.604
|  8> C 	 36.0468 	 -33.8908 	 -112.737
|  9> C 	 36.1063 	 -33.2898 	 -113.958
| 10> C 	 36.9266 	 -32.0914 	 -114.062
| 11> C 	 37.4322 	 -31.7969 	 -112.829
| 12> H 	 37.141 	 -31.4694 	 -114.876
| 13> C 	 35.3393 	 -33.9528 	 -115.107
| 14> H 	 35.1918 	 -34.9837 	 -114.836
| 15> H 	 36.0512 	 -34.0851 	 -115.995
| 16> C 	 34.137 	 -33.0764 	 -115.61
| 17> H 	 33.4526 	 -32.9818 	 -114.742
| 18> H 	 34.5261 	 -32.1596 	 -115.921
| 19> C 	 33.4326 	 -33.7157 	 -116.818
| 20> H 	 33.1383 	 -34.7562 	 -116.573
| 21> H 	 32.5122 	 -33.3172 	 -117.247
| 22> H 	 34.1364 	 -33.8416 	 -117.646
| 23> S 	 37.3933 	 -29.0654 	 -113.219
| 24> C 	 38.6881 	 -28.0279 	 -112.681
| 25> C 	 39.5041 	 -28.8074 	 -111.86
| 26> C 	 39.1757 	 -30.1886 	 -111.755
| 27> C 	 38.0661 	 -30.5233 	 -112.537
| 28> H 	 40.4021 	 -28.3472 	 -111.353
| 29> C 	 40.1056 	 -31.1447 	 -111.035
| 30> H 	 39.5623 	 -31.967 	 -110.605
| 31> H 	 40.6062 	 -30.6444 	 -110.241
| 32> C 	 41.2441 	 -31.6566 	 -111.849
| 33> H 	 42.0279 	 -31.999 	 -111.158
| 34> H 	 41.6359 	 -30.8907 	 -112.555
| 35> C 	 40.8594 	 -32.7582 	 -112.857
| 36> H 	 40.3786 	 -32.1745 	 -113.597
| 37> H 	 40.1703 	 -33.5026 	 -112.484
| 38> H 	 41.7244 	 -33.2652 	 -113.336
| 39> H 	 35.48 	 -34.8527 	 -112.512
| 40> H 	 38.7222 	 -26.9814 	 -112.601
| 41> *
| 42>
| 43>                          ****END OF INPUT****

CARTESIAN COORDINATES (ANGSTROEM)
---------------------------------
  S     37.063000  -33.006000  -111.604000
  C     36.046800  -33.890800  -112.737000
  C     36.106300  -33.289800  -113.958000
  C     36.926600  -32.091400  -114.062000
  C     37.432200  -31.796900  -112.829000
  H     37.141000  -31.469400  -114.876000
  C     35.339300  -33.952800  -115.107000
  H     35.191800  -34.983700  -114.836000
  H     36.051200  -34.085100  -115.995000
  C     34.137000  -33.076400  -115.610000
  H     33.452600  -32.981800  -114.742000
  H     34.526100  -32.159600  -115.921000
  C     33.432600  -33.715700  -116.818000
  H     33.138300  -34.756200  -116.573000
  H     32.512200  -33.317200  -117.247000
  H     34.136400  -33.841600  -117.646000
  S     37.393300  -29.065400  -113.219000
  C     38.688100  -28.027900  -112.681000
  C     39.504100  -28.807400  -111.860000
  C     39.175700  -30.188600  -111.755000
  C     38.066100  -30.523300  -112.537000
  H     40.402100  -28.347200  -111.353000
  C     40.105600  -31.144700  -111.035000
  H     39.562300  -31.967000  -110.605000
  H     40.606200  -30.644400  -110.241000
  C     41.244100  -31.656600  -111.849000
  H     42.027900  -31.999000  -111.158000
  H     41.635900  -30.890700  -112.555000
  C     40.859400  -32.758200  -112.857000
  H     40.378600  -32.174500  -113.597000
  H     40.170300  -33.502600  -112.484000
  H     41.724400  -33.265200  -113.336000
  H     35.480000  -34.852700  -112.512000
  H     38.722200  -26.981400  -112.601000

 Total Charge           Charge          ....    0
 Multiplicity           Mult            ....    1
 Number of Electrons    NEL             ....  134
 Basis Dimension        Dim             ....  322

ORBITAL ENERGIES
----------------

  NO   OCC          E(Eh)            E(eV)
   0   2.0000     -88.969094     -2420.9721
   1   2.0000     -88.967994     -2420.9422
   2   2.0000     -10.332799      -281.1697
   3   2.0000     -10.330300      -281.1017
   4   2.0000     -10.319864      -280.8178
   5   2.0000     -10.316644      -280.7301
   6   2.0000     -10.304136      -280.3898
   7   2.0000     -10.303033      -280.3598
   8   2.0000     -10.299099      -280.2527
   9   2.0000     -10.296825      -280.1909
  10   2.0000     -10.295500      -280.1548
  11   2.0000     -10.289500      -279.9915
  12   2.0000     -10.283315      -279.8232
  13   2.0000     -10.281373      -279.7704
  14   2.0000     -10.279266      -279.7130
  15   2.0000     -10.264040      -279.2987
  16   2.0000      -8.083528      -219.9640
  17   2.0000      -8.082204      -219.9280
  18   2.0000      -6.042090      -164.4136
  19   2.0000      -6.040864      -164.3803
  20   2.0000      -6.037891      -164.2994
  21   2.0000      -6.036864      -164.2714
  22   2.0000      -6.034396      -164.2043
  23   2.0000      -6.032744      -164.1593
  24   2.0000      -1.010554       -27.4986
  25   2.0000      -0.986558       -26.8456
  26   2.0000      -0.915459       -24.9109
  27   2.0000      -0.906623       -24.6705
  28   2.0000      -0.874452       -23.7950
  29   2.0000      -0.849841       -23.1254
  30   2.0000      -0.842356       -22.9217
  31   2.0000      -0.817584       -22.2476
  32   2.0000      -0.784692       -21.3526
  33   2.0000      -0.768400       -20.9092
  34   2.0000      -0.712627       -19.3916
  35   2.0000      -0.696599       -18.9554
  36   2.0000      -0.687417       -18.7056
  37   2.0000      -0.664409       -18.0795
  38   2.0000      -0.642257       -17.4767
  39   2.0000      -0.615385       -16.7455
  40   2.0000      -0.600111       -16.3299
  41   2.0000      -0.570802       -15.5323
  42   2.0000      -0.560495       -15.2518
  43   2.0000      -0.555144       -15.1062
  44   2.0000      -0.537838       -14.6353
  45   2.0000      -0.521730       -14.1970
  46   2.0000      -0.518493       -14.1089
  47   2.0000      -0.516167       -14.0456
  48   2.0000      -0.509103       -13.8534
  49   2.0000      -0.501731       -13.6528
  50   2.0000      -0.491280       -13.3684
  51   2.0000      -0.478761       -13.0277
  52   2.0000      -0.477323       -12.9886
  53   2.0000      -0.464242       -12.6327
  54   2.0000      -0.460879       -12.5411
  55   2.0000      -0.445576       -12.1247
  56   2.0000      -0.436311       -11.8726
  57   2.0000      -0.432811       -11.7774
  58   2.0000      -0.430682       -11.7194
  59   2.0000      -0.422720       -11.5028
  60   2.0000      -0.418955       -11.4004
  61   2.0000      -0.412752       -11.2316
  62   2.0000      -0.406729       -11.0677
  63   2.0000      -0.356134        -9.6909
  64   2.0000      -0.333205        -9.0670
  65   2.0000      -0.330762        -9.0005
  66   2.0000      -0.293100        -7.9757
  67   0.0000       0.023395         0.6366
  68   0.0000       0.073812         2.0085
  69   0.0000       0.107460         2.9241
  70   0.0000       0.114811         3.1242
  71   0.0000       0.130048         3.5388

MULLIKEN ATOMIC CHARGES
-----------------------
   0 S :    0.096127
   1 C :   -0.143846
   2 C :   -0.073857
   3 C :    0.029052
   4 C :   -0.112189
   5 H :    0.003590
   6 C :    0.011709
   7 H :    0.013873
   8 H :    0.030717
   9 C :   -0.026668
  10 H :    0.041507
  11 H :    0.023550
  12 C :   -0.053113
  13 H :    0.018718
  14 H :    0.039117
  15 H :    0.023118
  16 S :    0.110976
  17 C :   -0.069572
  18 C :   -0.081259
  19 C :   -0.051790
  20 C :   -0.156707
  21 H :    0.037738
  22 C :    0.123490
  23 H :    0.015393
  24 H :    0.008915
  25 C :   -0.092530
  26 H :    0.032024
  27 H :    0.030144
  28 C :   -0.043518
  29 H :    0.021200
  30 H :    0.026660
  31 H :    0.036464
  32 H :    0.080065
  33 H :    0.050904
Sum of atomic charges:   -0.0000000

LOEWDIN ATOMIC CHARGES
----------------------
   0 S :    0.392179
   1 C :   -0.205584
   2 C :   -0.059794
   3 C :   -0.058243
   4 C :   -0.175158
   5 H :    0.024134
   6 C :   -0.034379
   7 H :    0.022674
   8 H :    0.034089
   9 C :   -0.029630
  10 H :    0.029834
  11 H :    0.017202
  12 C :   -0.074809
  13 H :    0.025220
  14 H :    0.026318
  15 H :    0.023834
  16 S :    0.425451
  17 C :   -0.196196
  18 C :   -0.071602
  19 C :   -0.063194
  20 C :   -0.197110
  21 H :    0.037605
  22 C :   -0.030714
  23 H :    0.021772
  24 H :    0.030693
  25 C :   -0.039372
  26 H :    0.021283
  27 H :    0.029911
  28 C :   -0.067275
  29 H :    0.020386
  30 H :    0.016081
  31 H :    0.028821
  32 H :    0.048733
  33 H :    0.026843

  Mayer bond orders larger than 0.100000
B(  0-S ,  1-C ) :   1.1009 B(  0-S ,  4-C ) :   1.1401 B(  1-C ,  2-C ) :   1.6597
B(  1-C , 32-H ) :   0.9589 B(  2-C ,  3-C ) :   1.1771 B(  2-C ,  6-C ) :   1.0274
B(  3-C ,  4-C ) :   1.5765 B(  3-C ,  5-H ) :   1.0104 B(  4-C , 20-C ) :   1.0642
B(  6-C ,  7-H ) :   0.9493 B(  6-C ,  8-H ) :   0.9425 B(  6-C ,  9-C ) :   1.0378
B(  9-C , 10-H ) :   0.9590 B(  9-C , 11-H ) :   0.9584 B(  9-C , 12-C ) :   1.0769
B( 12-C , 13-H ) :   0.9741 B( 12-C , 14-H ) :   0.9770 B( 12-C , 15-H ) :   0.9735
B( 16-S , 17-C ) :   1.1541 B( 16-S , 20-C ) :   1.1581 B( 17-C , 18-C ) :   1.5823
B( 17-C , 20-C ) :   0.1042 B( 17-C , 33-H ) :   0.9705 B( 18-C , 19-C ) :   1.2928
B( 18-C , 21-H ) :   0.9734 B( 19-C , 20-C ) :   1.5233 B( 19-C , 22-C ) :   1.0566
B( 22-C , 23-H ) :   0.9283 B( 22-C , 24-H ) :   0.9214 B( 22-C , 25-C ) :   1.0764
B( 25-C , 26-H ) :   0.9574 B( 25-C , 27-H ) :   0.9586 B( 25-C , 28-C ) :   1.0658
B( 28-C , 29-H ) :   0.9788 B( 28-C , 30-H ) :   0.9757 B( 28-C , 31-H ) :   0.9731

Dispersion correction           -0.015149611
FINAL SINGLE POINT ENERGY     -1339.875036126615

DIPOLE MOMENT
-------------
                                X             Y             Z
Electronic contribution:     -1.04730      11.99800      11.86930
Nuclear contribution   :      1.13979     -12.11041     -12.01549
                        -----------------------------------------
Total Dipole Moment    :      0.09248      -0.11242      -0.14618
                        -----------------------------------------
Magnitude (a.u.)       :      0.20630
Magnitude (Debye)      :      0.52438

Rotational constants in cm-1:     0.022099     0.008226     0.006858
Rotational constants in MHz :   662.507354   246.598519   205.583564

                             ****ORCA TERMINATED NORMALLY****
TOTAL RUN TIME: 0 days 0 hours 0 minutes 21 seconds 796 msec
