                         Program Version 4.2.1 -  RELEASE  -
|  1> ! wB97X-D3 SP def2-SVP
|  2> %pal
|  3> nprocs 24
|  4> end
|  5>
|  6> * xyz 0 1
|  7> S 	 -112.19 	 14.8871 	 -10.0729
|  8> C 	 -111.879 	 16.0777 	 -8.87565
|  9> C 	 -112.469 	 15.7307 	 -7.64691
| 10> C 	 -113.165 	 14.4931 	 -7.66305
| 11> C 	 -113.101 	 13.9159 	 -8.92201
| 12> H 	 -113.639 	 14.0044 	 -6.79573
| 13> C 	 -112.444 	 16.5484 	 -6.37784
| 14> H 	 -113.166 	 16.1834 	 -5.59268
| 15> H 	 -112.885 	 17.4621 	 -6.65002
| 16> C 	 -111.036 	 16.7558 	 -5.8284
| 17> H 	 -110.358 	 17.1501 	 -6.60523
| 18> H 	 -111.092 	 17.5203 	 -5.07318
| 19> C 	 -110.478 	 15.5142 	 -5.14361
| 20> H 	 -109.534 	 15.7189 	 -4.7258
| 21> H 	 -110.983 	 15.3147 	 -4.23743
| 22> H 	 -110.369 	 14.5536 	 -5.62381
| 23> S 	 -113.023 	 11.8221 	 -10.6101
| 24> C 	 -114.454 	 10.8405 	 -10.8713
| 25> C 	 -115.486 	 11.2294 	 -10.1304
| 26> C 	 -115.139 	 12.2772 	 -9.21823
| 27> C 	 -113.858 	 12.8021 	 -9.42681
| 28> H 	 -116.514 	 10.8851 	 -10.2606
| 29> C 	 -116.277 	 12.9467 	 -8.36852
| 30> H 	 -115.789 	 13.5745 	 -7.5721
| 31> H 	 -116.882 	 12.2082 	 -7.82417
| 32> C 	 -117.246 	 13.9401 	 -9.12051
| 33> H 	 -117.75 	 14.6454 	 -8.464
| 34> H 	 -118.067 	 13.3816 	 -9.61726
| 35> C 	 -116.607 	 14.7874 	 -10.28
| 36> H 	 -117.368 	 15.3878 	 -10.7463
| 37> H 	 -116.121 	 14.2718 	 -11.0753
| 38> H 	 -115.864 	 15.4966 	 -9.88004
| 39> H 	 -111.326 	 17.0541 	 -9.05813
| 40> H 	 -114.6 	 10.1627 	 -11.7093
| 41> *
| 42>
| 43>                          ****END OF INPUT****

CARTESIAN COORDINATES (ANGSTROEM)
---------------------------------
  S    -112.190000   14.887100  -10.072900
  C    -111.879000   16.077700   -8.875650
  C    -112.469000   15.730700   -7.646910
  C    -113.165000   14.493100   -7.663050
  C    -113.101000   13.915900   -8.922010
  H    -113.639000   14.004400   -6.795730
  C    -112.444000   16.548400   -6.377840
  H    -113.166000   16.183400   -5.592680
  H    -112.885000   17.462100   -6.650020
  C    -111.036000   16.755800   -5.828400
  H    -110.358000   17.150100   -6.605230
  H    -111.092000   17.520300   -5.073180
  C    -110.478000   15.514200   -5.143610
  H    -109.534000   15.718900   -4.725800
  H    -110.983000   15.314700   -4.237430
  H    -110.369000   14.553600   -5.623810
  S    -113.023000   11.822100  -10.610100
  C    -114.454000   10.840500  -10.871300
  C    -115.486000   11.229400  -10.130400
  C    -115.139000   12.277200   -9.218230
  C    -113.858000   12.802100   -9.426810
  H    -116.514000   10.885100  -10.260600
  C    -116.277000   12.946700   -8.368520
  H    -115.789000   13.574500   -7.572100
  H    -116.882000   12.208200   -7.824170
  C    -117.246000   13.940100   -9.120510
  H    -117.750000   14.645400   -8.464000
  H    -118.067000   13.381600   -9.617260
  C    -116.607000   14.787400  -10.280000
  H    -117.368000   15.387800  -10.746300
  H    -116.121000   14.271800  -11.075300
  H    -115.864000   15.496600   -9.880040
  H    -111.326000   17.054100   -9.058130
  H    -114.600000   10.162700  -11.709300

 Total Charge           Charge          ....    0
 Multiplicity           Mult            ....    1
 Number of Electrons    NEL             ....  134
 Basis Dimension        Dim             ....  322

ORBITAL ENERGIES
----------------

  NO   OCC          E(Eh)            E(eV)
   0   2.0000     -88.971051     -2421.0254
   1   2.0000     -88.961907     -2420.7766
   2   2.0000     -10.329340      -281.0756
   3   2.0000     -10.327608      -281.0285
   4   2.0000     -10.319386      -280.8048
   5   2.0000     -10.310526      -280.5637
   6   2.0000     -10.305813      -280.4354
   7   2.0000     -10.301519      -280.3186
   8   2.0000     -10.299788      -280.2715
   9   2.0000     -10.296076      -280.1705
  10   2.0000     -10.290697      -280.0241
  11   2.0000     -10.289194      -279.9832
  12   2.0000     -10.288441      -279.9627
  13   2.0000     -10.287989      -279.9504
  14   2.0000     -10.267225      -279.3854
  15   2.0000     -10.264650      -279.3153
  16   2.0000      -8.085854      -220.0273
  17   2.0000      -8.077026      -219.7870
  18   2.0000      -6.044282      -164.4733
  19   2.0000      -6.040293      -164.3647
  20   2.0000      -6.036739      -164.2680
  21   2.0000      -6.035647      -164.2383
  22   2.0000      -6.031470      -164.1246
  23   2.0000      -6.027654      -164.0208
  24   2.0000      -1.010176       -27.4883
  25   2.0000      -0.985973       -26.8297
  26   2.0000      -0.914605       -24.8877
  27   2.0000      -0.891278       -24.2529
  28   2.0000      -0.873227       -23.7617
  29   2.0000      -0.854210       -23.2442
  30   2.0000      -0.838120       -22.8064
  31   2.0000      -0.815211       -22.1830
  32   2.0000      -0.783905       -21.3311
  33   2.0000      -0.770462       -20.9653
  34   2.0000      -0.708339       -19.2749
  35   2.0000      -0.704231       -19.1631
  36   2.0000      -0.686676       -18.6854
  37   2.0000      -0.661905       -18.0114
  38   2.0000      -0.635616       -17.2960
  39   2.0000      -0.616385       -16.7727
  40   2.0000      -0.588299       -16.0084
  41   2.0000      -0.573447       -15.6043
  42   2.0000      -0.553094       -15.0504
  43   2.0000      -0.546400       -14.8683
  44   2.0000      -0.539203       -14.6725
  45   2.0000      -0.534090       -14.5333
  46   2.0000      -0.510580       -13.8936
  47   2.0000      -0.503952       -13.7132
  48   2.0000      -0.500231       -13.6120
  49   2.0000      -0.496263       -13.5040
  50   2.0000      -0.490303       -13.3418
  51   2.0000      -0.480774       -13.0825
  52   2.0000      -0.467960       -12.7339
  53   2.0000      -0.465353       -12.6629
  54   2.0000      -0.454933       -12.3794
  55   2.0000      -0.450712       -12.2645
  56   2.0000      -0.442585       -12.0433
  57   2.0000      -0.434181       -11.8147
  58   2.0000      -0.431674       -11.7464
  59   2.0000      -0.426009       -11.5923
  60   2.0000      -0.419343       -11.4109
  61   2.0000      -0.414229       -11.2717
  62   2.0000      -0.406474       -11.0607
  63   2.0000      -0.356686        -9.7059
  64   2.0000      -0.336140        -9.1468
  65   2.0000      -0.329144        -8.9565
  66   2.0000      -0.283790        -7.7223
  67   0.0000       0.022620         0.6155
  68   0.0000       0.075305         2.0492
  69   0.0000       0.107237         2.9181
  70   0.0000       0.121259         3.2996
  71   0.0000       0.134693         3.6652

MULLIKEN ATOMIC CHARGES
-----------------------
   0 S :    0.125835
   1 C :   -0.144466
   2 C :   -0.100571
   3 C :   -0.000847
   4 C :   -0.120011
   5 H :    0.039046
   6 C :    0.070645
   7 H :    0.024768
   8 H :    0.015759
   9 C :   -0.052541
  10 H :    0.031519
  11 H :    0.018480
  12 C :   -0.009769
  13 H :    0.005738
  14 H :    0.000927
  15 H :    0.040401
  16 S :    0.083280
  17 C :   -0.066548
  18 C :   -0.035343
  19 C :   -0.053904
  20 C :   -0.149178
  21 H :    0.026225
  22 C :    0.054207
  23 H :    0.019776
  24 H :    0.032679
  25 C :   -0.084945
  26 H :    0.033224
  27 H :    0.024501
  28 C :   -0.050808
  29 H :    0.022396
  30 H :    0.035200
  31 H :    0.032971
  32 H :    0.075203
  33 H :    0.056154
Sum of atomic charges:    0.0000000

LOEWDIN ATOMIC CHARGES
----------------------
   0 S :    0.426569
   1 C :   -0.227694
   2 C :   -0.059465
   3 C :   -0.064809
   4 C :   -0.191714
   5 H :    0.040601
   6 C :   -0.035058
   7 H :    0.034887
   8 H :    0.025068
   9 C :   -0.032362
  10 H :    0.025371
  11 H :    0.023267
  12 C :   -0.066861
  13 H :    0.022236
  14 H :    0.020560
  15 H :    0.027612
  16 S :    0.393266
  17 C :   -0.183272
  18 C :   -0.070671
  19 C :   -0.061092
  20 C :   -0.192226
  21 H :    0.037512
  22 C :   -0.036880
  23 H :    0.030127
  24 H :    0.030872
  25 C :   -0.040464
  26 H :    0.025754
  27 H :    0.020507
  28 C :   -0.067210
  29 H :    0.022730
  30 H :    0.020985
  31 H :    0.026365
  32 H :    0.043607
  33 H :    0.031883

  Mayer bond orders larger than 0.100000
B(  0-S ,  1-C ) :   1.1455 B(  0-S ,  4-C ) :   1.1645 B(  1-C ,  2-C ) :   1.5830
B(  1-C ,  4-C ) :   0.1033 B(  1-C , 32-H ) :   0.9587 B(  2-C ,  3-C ) :   1.2674
B(  2-C ,  6-C ) :   1.0117 B(  3-C ,  4-C ) :   1.5459 B(  3-C ,  5-H ) :   0.9896
B(  4-C , 20-C ) :   1.0508 B(  6-C ,  7-H ) :   0.9479 B(  6-C ,  8-H ) :   0.9280
B(  6-C ,  9-C ) :   1.0835 B(  9-C , 10-H ) :   0.9579 B(  9-C , 11-H ) :   0.9499
B(  9-C , 12-C ) :   1.0786 B( 12-C , 13-H ) :   0.9660 B( 12-C , 14-H ) :   0.9669
B( 12-C , 15-H ) :   0.9784 B( 16-S , 17-C ) :   1.1267 B( 16-S , 20-C ) :   1.1378
B( 17-C , 18-C ) :   1.6491 B( 17-C , 33-H ) :   0.9606 B( 18-C , 19-C ) :   1.2228
B( 18-C , 21-H ) :   0.9883 B( 19-C , 20-C ) :   1.5950 B( 19-C , 22-C ) :   1.0489
B( 22-C , 23-H ) :   0.9424 B( 22-C , 24-H ) :   0.9408 B( 22-C , 25-C ) :   1.0492
B( 25-C , 26-H ) :   0.9604 B( 25-C , 27-H ) :   0.9594 B( 25-C , 28-C ) :   1.0807
B( 28-C , 29-H ) :   0.9745 B( 28-C , 30-H ) :   0.9725 B( 28-C , 31-H ) :   0.9775

Dispersion correction           -0.015564394
FINAL SINGLE POINT ENERGY     -1339.879202344774

DIPOLE MOMENT
-------------
                                X             Y             Z
Electronic contribution:      7.86286     -12.21293     -16.74452
Nuclear contribution   :     -8.25852      12.61191      17.13278
                        -----------------------------------------
Total Dipole Moment    :     -0.39566       0.39898       0.38826
                        -----------------------------------------
Magnitude (a.u.)       :      0.68299
Magnitude (Debye)      :      1.73603

Rotational constants in cm-1:     0.022140     0.008457     0.007484
Rotational constants in MHz :   663.743829   253.537390   224.360538

                             ****ORCA TERMINATED NORMALLY****
TOTAL RUN TIME: 0 days 0 hours 0 minutes 22 seconds 336 msec
