                         Program Version 4.2.1 -  RELEASE  -
|  1> ! wB97X-D3 SP def2-SVP
|  2> %pal
|  3> nprocs 24
|  4> end
|  5>
|  6> * xyz 0 1
|  7> S 	 -85.668 	 1.27648 	 -118.685
|  8> C 	 -85.4318 	 -0.177177 	 -117.957
|  9> C 	 -86.5673 	 -0.995009 	 -117.935
| 10> C 	 -87.6849 	 -0.290191 	 -118.467
| 11> C 	 -87.4396 	 0.97206 	 -118.798
| 12> H 	 -88.7516 	 -0.624821 	 -118.614
| 13> C 	 -86.6104 	 -2.44659 	 -117.633
| 14> H 	 -85.577 	 -2.79613 	 -117.305
| 15> H 	 -86.9657 	 -2.91056 	 -118.615
| 16> C 	 -87.6501 	 -2.85009 	 -116.534
| 17> H 	 -87.2569 	 -3.54939 	 -115.849
| 18> H 	 -87.8151 	 -2.03023 	 -115.945
| 19> C 	 -88.9756 	 -3.26243 	 -117.114
| 20> H 	 -89.1868 	 -4.3185 	 -117.173
| 21> H 	 -89.8145 	 -2.88518 	 -116.47
| 22> H 	 -89.084 	 -2.87574 	 -118.121
| 23> S 	 -87.7447 	 2.82326 	 -120.777
| 24> C 	 -89.1136 	 3.99323 	 -120.599
| 25> C 	 -90.0862 	 3.43754 	 -119.824
| 26> C 	 -89.6688 	 2.26946 	 -119.159
| 27> C 	 -88.3318 	 1.93919 	 -119.407
| 28> H 	 -91.0287 	 3.92946 	 -119.8
| 29> C 	 -90.5141 	 1.55953 	 -118.082
| 30> H 	 -91.0441 	 2.35407 	 -117.585
| 31> H 	 -89.8002 	 1.11525 	 -117.359
| 32> C 	 -91.4509 	 0.487984 	 -118.655
| 33> H 	 -90.9428 	 -0.167953 	 -119.413
| 34> H 	 -92.1472 	 1.06729 	 -119.173
| 35> C 	 -92.0943 	 -0.374443 	 -117.532
| 36> H 	 -92.657 	 0.367841 	 -116.957
| 37> H 	 -91.4538 	 -0.82418 	 -116.879
| 38> H 	 -92.775 	 -1.02913 	 -118.013
| 39> H 	 -84.4332 	 -0.526858 	 -117.743
| 40> H 	 -89.3083 	 4.92483 	 -121.14
| 41> *
| 42>
| 43>                          ****END OF INPUT****

CARTESIAN COORDINATES (ANGSTROEM)
---------------------------------
  S    -85.668000    1.276480  -118.685000
  C    -85.431800   -0.177177  -117.957000
  C    -86.567300   -0.995009  -117.935000
  C    -87.684900   -0.290191  -118.467000
  C    -87.439600    0.972060  -118.798000
  H    -88.751600   -0.624821  -118.614000
  C    -86.610400   -2.446590  -117.633000
  H    -85.577000   -2.796130  -117.305000
  H    -86.965700   -2.910560  -118.615000
  C    -87.650100   -2.850090  -116.534000
  H    -87.256900   -3.549390  -115.849000
  H    -87.815100   -2.030230  -115.945000
  C    -88.975600   -3.262430  -117.114000
  H    -89.186800   -4.318500  -117.173000
  H    -89.814500   -2.885180  -116.470000
  H    -89.084000   -2.875740  -118.121000
  S    -87.744700    2.823260  -120.777000
  C    -89.113600    3.993230  -120.599000
  C    -90.086200    3.437540  -119.824000
  C    -89.668800    2.269460  -119.159000
  C    -88.331800    1.939190  -119.407000
  H    -91.028700    3.929460  -119.800000
  C    -90.514100    1.559530  -118.082000
  H    -91.044100    2.354070  -117.585000
  H    -89.800200    1.115250  -117.359000
  C    -91.450900    0.487984  -118.655000
  H    -90.942800   -0.167953  -119.413000
  H    -92.147200    1.067290  -119.173000
  C    -92.094300   -0.374443  -117.532000
  H    -92.657000    0.367841  -116.957000
  H    -91.453800   -0.824180  -116.879000
  H    -92.775000   -1.029130  -118.013000
  H    -84.433200   -0.526858  -117.743000
  H    -89.308300    4.924830  -121.140000

 Total Charge           Charge          ....    0
 Multiplicity           Mult            ....    1
 Number of Electrons    NEL             ....  134
 Basis Dimension        Dim             ....  322

ORBITAL ENERGIES
----------------

  NO   OCC          E(Eh)            E(eV)
   0   2.0000     -88.963266     -2420.8135
   1   2.0000     -88.963213     -2420.8121
   2   2.0000     -10.324273      -280.9378
   3   2.0000     -10.324096      -280.9329
   4   2.0000     -10.316395      -280.7234
   5   2.0000     -10.308625      -280.5119
   6   2.0000     -10.300760      -280.2979
   7   2.0000     -10.300047      -280.2785
   8   2.0000     -10.298784      -280.2441
   9   2.0000     -10.293121      -280.0900
  10   2.0000     -10.289355      -279.9876
  11   2.0000     -10.289115      -279.9810
  12   2.0000     -10.286586      -279.9122
  13   2.0000     -10.277962      -279.6776
  14   2.0000     -10.274066      -279.5715
  15   2.0000     -10.271681      -279.5066
  16   2.0000      -8.079608      -219.8573
  17   2.0000      -8.077429      -219.7980
  18   2.0000      -6.037890      -164.2993
  19   2.0000      -6.036074      -164.2499
  20   2.0000      -6.033992      -164.1933
  21   2.0000      -6.032211      -164.1448
  22   2.0000      -6.030367      -164.0946
  23   2.0000      -6.027875      -164.0268
  24   2.0000      -1.014047       -27.5936
  25   2.0000      -0.988448       -26.8970
  26   2.0000      -0.914696       -24.8901
  27   2.0000      -0.907565       -24.6961
  28   2.0000      -0.879102       -23.9216
  29   2.0000      -0.857326       -23.3290
  30   2.0000      -0.845883       -23.0176
  31   2.0000      -0.822351       -22.3773
  32   2.0000      -0.778441       -21.1825
  33   2.0000      -0.766059       -20.8455
  34   2.0000      -0.711334       -19.3564
  35   2.0000      -0.703367       -19.1396
  36   2.0000      -0.696261       -18.9462
  37   2.0000      -0.664274       -18.0758
  38   2.0000      -0.645771       -17.5723
  39   2.0000      -0.621283       -16.9060
  40   2.0000      -0.587369       -15.9831
  41   2.0000      -0.571550       -15.5527
  42   2.0000      -0.569390       -15.4939
  43   2.0000      -0.552316       -15.0293
  44   2.0000      -0.535888       -14.5823
  45   2.0000      -0.532299       -14.4846
  46   2.0000      -0.519733       -14.1427
  47   2.0000      -0.510910       -13.9026
  48   2.0000      -0.503974       -13.7138
  49   2.0000      -0.501098       -13.6356
  50   2.0000      -0.498018       -13.5518
  51   2.0000      -0.484559       -13.1855
  52   2.0000      -0.475945       -12.9511
  53   2.0000      -0.470117       -12.7925
  54   2.0000      -0.458852       -12.4860
  55   2.0000      -0.449467       -12.2306
  56   2.0000      -0.443312       -12.0631
  57   2.0000      -0.438421       -11.9301
  58   2.0000      -0.432292       -11.7633
  59   2.0000      -0.430738       -11.7210
  60   2.0000      -0.422912       -11.5080
  61   2.0000      -0.414420       -11.2769
  62   2.0000      -0.408208       -11.1079
  63   2.0000      -0.360239        -9.8026
  64   2.0000      -0.331486        -9.0202
  65   2.0000      -0.322808        -8.7841
  66   2.0000      -0.283741        -7.7210
  67   0.0000       0.023846         0.6489
  68   0.0000       0.076267         2.0753
  69   0.0000       0.100800         2.7429
  70   0.0000       0.123775         3.3681
  71   0.0000       0.126319         3.4373

MULLIKEN ATOMIC CHARGES
-----------------------
   0 S :    0.120189
   1 C :   -0.098897
   2 C :   -0.079071
   3 C :   -0.000833
   4 C :   -0.146319
   5 H :    0.025285
   6 C :   -0.002520
   7 H :    0.030992
   8 H :    0.058805
   9 C :    0.007354
  10 H :    0.017841
  11 H :    0.005092
  12 C :   -0.077827
  13 H :    0.031484
  14 H :    0.038557
  15 H :    0.028959
  16 S :    0.094550
  17 C :   -0.097580
  18 C :   -0.030084
  19 C :   -0.027571
  20 C :   -0.153895
  21 H :    0.009221
  22 C :    0.034787
  23 H :    0.020944
  24 H :    0.032415
  25 C :   -0.085570
  26 H :    0.039908
  27 H :    0.010414
  28 C :    0.028688
  29 H :    0.017959
  30 H :    0.012898
  31 H :    0.031499
  32 H :    0.045543
  33 H :    0.056785
Sum of atomic charges:    0.0000000

LOEWDIN ATOMIC CHARGES
----------------------
   0 S :    0.427350
   1 C :   -0.221548
   2 C :   -0.075045
   3 C :   -0.065449
   4 C :   -0.182390
   5 H :    0.044185
   6 C :   -0.033351
   7 H :    0.035703
   8 H :    0.042963
   9 C :   -0.037396
  10 H :    0.021877
  11 H :    0.015245
  12 C :   -0.067470
  13 H :    0.024345
  14 H :    0.031913
  15 H :    0.019569
  16 S :    0.381171
  17 C :   -0.170807
  18 C :   -0.069473
  19 C :   -0.059948
  20 C :   -0.194472
  21 H :    0.030027
  22 C :   -0.031245
  23 H :    0.025512
  24 H :    0.029164
  25 C :   -0.035682
  26 H :    0.023548
  27 H :    0.016010
  28 C :   -0.047518
  29 H :    0.029233
  30 H :    0.009435
  31 H :    0.024424
  32 H :    0.026570
  33 H :    0.033550

  Mayer bond orders larger than 0.100000
B(  0-S ,  1-C ) :   1.1780 B(  0-S ,  4-C ) :   1.1278 B(  1-C ,  2-C ) :   1.5828
B(  1-C , 32-H ) :   0.9643 B(  2-C ,  3-C ) :   1.2223 B(  2-C ,  6-C ) :   1.0433
B(  3-C ,  4-C ) :   1.6080 B(  3-C ,  5-H ) :   0.9784 B(  4-C , 20-C ) :   1.0648
B(  6-C ,  7-H ) :   0.9400 B(  6-C ,  8-H ) :   0.9514 B(  6-C ,  9-C ) :   1.0460
B(  9-C , 10-H ) :   0.9551 B(  9-C , 11-H ) :   0.9607 B(  9-C , 12-C ) :   1.0655
B( 12-C , 13-H ) :   0.9721 B( 12-C , 14-H ) :   0.9750 B( 12-C , 15-H ) :   0.9756
B( 16-S , 17-C ) :   1.1201 B( 16-S , 20-C ) :   1.1431 B( 17-C , 18-C ) :   1.6364
B( 17-C , 20-C ) :   0.1026 B( 17-C , 33-H ) :   0.9652 B( 18-C , 19-C ) :   1.2331
B( 18-C , 21-H ) :   0.9948 B( 19-C , 20-C ) :   1.5796 B( 19-C , 22-C ) :   1.0356
B( 22-C , 23-H ) :   0.9380 B( 22-C , 24-H ) :   0.9415 B( 22-C , 25-C ) :   1.0465
B( 25-C , 26-H ) :   0.9566 B( 25-C , 27-H ) :   0.9526 B( 25-C , 28-C ) :   1.0755
B( 28-C , 29-H ) :   0.9687 B( 28-C , 30-H ) :   0.9780 B( 28-C , 31-H ) :   0.9748

Dispersion correction           -0.015300850
FINAL SINGLE POINT ENERGY     -1339.853037479654

DIPOLE MOMENT
-------------
                                X             Y             Z
Electronic contribution:     20.04280      21.37146     -13.51324
Nuclear contribution   :    -20.55247     -21.77627      13.76400
                        -----------------------------------------
Total Dipole Moment    :     -0.50967      -0.40481       0.25076
                        -----------------------------------------
Magnitude (a.u.)       :      0.69750
Magnitude (Debye)      :      1.77292

Rotational constants in cm-1:     0.016905     0.011100     0.007047
Rotational constants in MHz :   506.794781   332.769893   211.263890

                             ****ORCA TERMINATED NORMALLY****
TOTAL RUN TIME: 0 days 0 hours 0 minutes 21 seconds 778 msec
