                         Program Version 4.2.1 -  RELEASE  -
|  1> ! wB97X-D3 SP def2-SVP
|  2> %pal
|  3> nprocs 24
|  4> end
|  5>
|  6> * xyz 0 1
|  7> S 	 -39.3865 	 18.4204 	 26.1659
|  8> C 	 -40.856 	 18.0173 	 26.9878
|  9> C 	 -41.4991 	 16.9227 	 26.4253
| 10> C 	 -40.7947 	 16.3574 	 25.3463
| 11> C 	 -39.7027 	 17.0905 	 25.0014
| 12> H 	 -41.1535 	 15.573 	 24.6752
| 13> C 	 -42.8369 	 16.4219 	 26.868
| 14> H 	 -43.3805 	 15.8628 	 26.0607
| 15> H 	 -43.5161 	 17.2447 	 27.1719
| 16> C 	 -42.8526 	 15.5032 	 28.0894
| 17> H 	 -42.0101 	 14.8252 	 27.9518
| 18> H 	 -42.5936 	 16.051 	 28.9654
| 19> C 	 -44.16 	 14.6362 	 28.2151
| 20> H 	 -44.4772 	 14.0693 	 27.3333
| 21> H 	 -44.1811 	 13.9381 	 29.056
| 22> H 	 -45.015 	 15.2369 	 28.58
| 23> S 	 -38.8636 	 15.2902 	 23.1226
| 24> C 	 -37.7107 	 15.7317 	 21.8567
| 25> C 	 -37.1122 	 16.9555 	 22.1641
| 26> C 	 -37.6998 	 17.5989 	 23.3411
| 27> C 	 -38.8033 	 16.8757 	 23.8779
| 28> H 	 -36.3469 	 17.4196 	 21.4633
| 29> C 	 -37.3214 	 19.0079 	 23.6007
| 30> H 	 -36.289 	 19.1114 	 23.3803
| 31> H 	 -37.3364 	 19.2334 	 24.6245
| 32> C 	 -38.2218 	 20.0042 	 22.9126
| 33> H 	 -39.3074 	 19.8153 	 22.8879
| 34> H 	 -38.0257 	 19.8916 	 21.834
| 35> C 	 -38.0737 	 21.5318 	 23.234
| 36> H 	 -36.9815 	 21.806 	 23.3097
| 37> H 	 -38.5667 	 21.7419 	 24.1852
| 38> H 	 -38.5241 	 22.1063 	 22.4464
| 39> H 	 -41.2624 	 18.5494 	 27.8008
| 40> H 	 -37.2132 	 15.0544 	 21.192
| 41> *
| 42>
| 43>                          ****END OF INPUT****

CARTESIAN COORDINATES (ANGSTROEM)
---------------------------------
  S    -39.386500   18.420400   26.165900
  C    -40.856000   18.017300   26.987800
  C    -41.499100   16.922700   26.425300
  C    -40.794700   16.357400   25.346300
  C    -39.702700   17.090500   25.001400
  H    -41.153500   15.573000   24.675200
  C    -42.836900   16.421900   26.868000
  H    -43.380500   15.862800   26.060700
  H    -43.516100   17.244700   27.171900
  C    -42.852600   15.503200   28.089400
  H    -42.010100   14.825200   27.951800
  H    -42.593600   16.051000   28.965400
  C    -44.160000   14.636200   28.215100
  H    -44.477200   14.069300   27.333300
  H    -44.181100   13.938100   29.056000
  H    -45.015000   15.236900   28.580000
  S    -38.863600   15.290200   23.122600
  C    -37.710700   15.731700   21.856700
  C    -37.112200   16.955500   22.164100
  C    -37.699800   17.598900   23.341100
  C    -38.803300   16.875700   23.877900
  H    -36.346900   17.419600   21.463300
  C    -37.321400   19.007900   23.600700
  H    -36.289000   19.111400   23.380300
  H    -37.336400   19.233400   24.624500
  C    -38.221800   20.004200   22.912600
  H    -39.307400   19.815300   22.887900
  H    -38.025700   19.891600   21.834000
  C    -38.073700   21.531800   23.234000
  H    -36.981500   21.806000   23.309700
  H    -38.566700   21.741900   24.185200
  H    -38.524100   22.106300   22.446400
  H    -41.262400   18.549400   27.800800
  H    -37.213200   15.054400   21.192000

 Total Charge           Charge          ....    0
 Multiplicity           Mult            ....    1
 Number of Electrons    NEL             ....  134
 Basis Dimension        Dim             ....  322

ORBITAL ENERGIES
----------------

  NO   OCC          E(Eh)            E(eV)
   0   2.0000     -88.971804     -2421.0459
   1   2.0000     -88.966872     -2420.9117
   2   2.0000     -10.335415      -281.2409
   3   2.0000     -10.335081      -281.2318
   4   2.0000     -10.319173      -280.7990
   5   2.0000     -10.311715      -280.5960
   6   2.0000     -10.308857      -280.5183
   7   2.0000     -10.304756      -280.4067
   8   2.0000     -10.300932      -280.3026
   9   2.0000     -10.294464      -280.1266
  10   2.0000     -10.293084      -280.0891
  11   2.0000     -10.286096      -279.8989
  12   2.0000     -10.284191      -279.8471
  13   2.0000     -10.283747      -279.8350
  14   2.0000     -10.281582      -279.7761
  15   2.0000     -10.279642      -279.7233
  16   2.0000      -8.085571      -220.0196
  17   2.0000      -8.080990      -219.8949
  18   2.0000      -6.044132      -164.4692
  19   2.0000      -6.040283      -164.3645
  20   2.0000      -6.039621      -164.3464
  21   2.0000      -6.036281      -164.2556
  22   2.0000      -6.035615      -164.2374
  23   2.0000      -6.031632      -164.1290
  24   2.0000      -1.007484       -27.4150
  25   2.0000      -0.981976       -26.7209
  26   2.0000      -0.911552       -24.8046
  27   2.0000      -0.909736       -24.7552
  28   2.0000      -0.871483       -23.7143
  29   2.0000      -0.853237       -23.2177
  30   2.0000      -0.842297       -22.9201
  31   2.0000      -0.814575       -22.1657
  32   2.0000      -0.783464       -21.3191
  33   2.0000      -0.769430       -20.9373
  34   2.0000      -0.707456       -19.2509
  35   2.0000      -0.705058       -19.1856
  36   2.0000      -0.693993       -18.8845
  37   2.0000      -0.669756       -18.2250
  38   2.0000      -0.637495       -17.3471
  39   2.0000      -0.620941       -16.8967
  40   2.0000      -0.597529       -16.2596
  41   2.0000      -0.570935       -15.5359
  42   2.0000      -0.560183       -15.2433
  43   2.0000      -0.555175       -15.1071
  44   2.0000      -0.528518       -14.3817
  45   2.0000      -0.520941       -14.1755
  46   2.0000      -0.516276       -14.0486
  47   2.0000      -0.510197       -13.8832
  48   2.0000      -0.506149       -13.7730
  49   2.0000      -0.502725       -13.6799
  50   2.0000      -0.486828       -13.2473
  51   2.0000      -0.480380       -13.0718
  52   2.0000      -0.471855       -12.8398
  53   2.0000      -0.470076       -12.7914
  54   2.0000      -0.459470       -12.5028
  55   2.0000      -0.450828       -12.2677
  56   2.0000      -0.447548       -12.1784
  57   2.0000      -0.437428       -11.9030
  58   2.0000      -0.434635       -11.8270
  59   2.0000      -0.426622       -11.6090
  60   2.0000      -0.417210       -11.3529
  61   2.0000      -0.410497       -11.1702
  62   2.0000      -0.401876       -10.9356
  63   2.0000      -0.365539        -9.9468
  64   2.0000      -0.336188        -9.1481
  65   2.0000      -0.328290        -8.9332
  66   2.0000      -0.279842        -7.6149
  67   0.0000       0.012210         0.3323
  68   0.0000       0.080455         2.1893
  69   0.0000       0.107173         2.9163
  70   0.0000       0.112811         3.0697
  71   0.0000       0.123251         3.3538

MULLIKEN ATOMIC CHARGES
-----------------------
   0 S :    0.101174
   1 C :   -0.083214
   2 C :   -0.057601
   3 C :   -0.024232
   4 C :   -0.095728
   5 H :    0.031703
   6 C :    0.026863
   7 H :    0.027216
   8 H :    0.030367
   9 C :   -0.043167
  10 H :    0.023726
  11 H :    0.019299
  12 C :   -0.070411
  13 H :    0.043174
  14 H :    0.027900
  15 H :    0.025369
  16 S :    0.076578
  17 C :   -0.072969
  18 C :   -0.073565
  19 C :   -0.084152
  20 C :   -0.115238
  21 H :    0.052931
  22 C :    0.121624
  23 H :    0.009824
  24 H :    0.001814
  25 C :   -0.095516
  26 H :    0.035577
  27 H :    0.010209
  28 C :   -0.045909
  29 H :    0.032611
  30 H :    0.039831
  31 H :    0.036172
  32 H :    0.027379
  33 H :    0.060364
Sum of atomic charges:    0.0000000

LOEWDIN ATOMIC CHARGES
----------------------
   0 S :    0.406627
   1 C :   -0.191772
   2 C :   -0.061132
   3 C :   -0.070163
   4 C :   -0.166788
   5 H :    0.034722
   6 C :   -0.039058
   7 H :    0.033604
   8 H :    0.033147
   9 C :   -0.036720
  10 H :    0.022483
  11 H :    0.018827
  12 C :   -0.077396
  13 H :    0.027717
  14 H :    0.028237
  15 H :    0.027530
  16 S :    0.400346
  17 C :   -0.188519
  18 C :   -0.071715
  19 C :   -0.057383
  20 C :   -0.185350
  21 H :    0.044720
  22 C :   -0.039667
  23 H :    0.030605
  24 H :    0.010813
  25 C :   -0.046931
  26 H :    0.029982
  27 H :    0.021734
  28 C :   -0.064441
  29 H :    0.027501
  30 H :    0.024301
  31 H :    0.025541
  32 H :    0.019208
  33 H :    0.029388

  Mayer bond orders larger than 0.100000
B(  0-S ,  1-C ) :   1.1314 B(  0-S ,  4-C ) :   1.1266 B(  1-C ,  2-C ) :   1.6125
B(  1-C , 32-H ) :   0.9711 B(  2-C ,  3-C ) :   1.2488 B(  2-C ,  6-C ) :   1.0340
B(  3-C ,  4-C ) :   1.5706 B(  3-C ,  5-H ) :   0.9788 B(  4-C , 20-C ) :   1.1152
B(  6-C ,  7-H ) :   0.9464 B(  6-C ,  8-H ) :   0.9404 B(  6-C ,  9-C ) :   1.0520
B(  9-C , 10-H ) :   0.9585 B(  9-C , 11-H ) :   0.9567 B(  9-C , 12-C ) :   1.0730
B( 12-C , 13-H ) :   0.9764 B( 12-C , 14-H ) :   0.9738 B( 12-C , 15-H ) :   0.9736
B( 16-S , 17-C ) :   1.1412 B( 16-S , 20-C ) :   1.1413 B( 17-C , 18-C ) :   1.6212
B( 17-C , 33-H ) :   0.9648 B( 18-C , 19-C ) :   1.2498 B( 18-C , 21-H ) :   0.9734
B( 19-C , 20-C ) :   1.5330 B( 19-C , 22-C ) :   1.0743 B( 22-C , 23-H ) :   0.9146
B( 22-C , 24-H ) :   0.9235 B( 22-C , 25-C ) :   1.0492 B( 25-C , 26-H ) :   0.9587
B( 25-C , 27-H ) :   0.9518 B( 25-C , 28-C ) :   1.0777 B( 28-C , 29-H ) :   0.9765
B( 28-C , 30-H ) :   0.9764 B( 28-C , 31-H ) :   0.9744

Dispersion correction           -0.013913485
FINAL SINGLE POINT ENERGY     -1339.873767460996

DIPOLE MOMENT
-------------
                                X             Y             Z
Electronic contribution:     10.96940      -6.77045      -5.75344
Nuclear contribution   :    -11.10162       6.91086       5.77250
                        -----------------------------------------
Total Dipole Moment    :     -0.13223       0.14042       0.01906
                        -----------------------------------------
Magnitude (a.u.)       :      0.19381
Magnitude (Debye)      :      0.49264

Rotational constants in cm-1:     0.021843     0.007717     0.006014
Rotational constants in MHz :   654.822029   231.343088   180.285153

                             ****ORCA TERMINATED NORMALLY****
TOTAL RUN TIME: 0 days 0 hours 0 minutes 22 seconds 898 msec
