                         Program Version 4.2.1 -  RELEASE  -
|  1> ! wB97X-D3 SP def2-SVP
|  2> %pal
|  3> nprocs 24
|  4> end
|  5>
|  6> * xyz 0 1
|  7> S 	 -94.6948 	 12.0922 	 -119.077
|  8> C 	 -93.7033 	 11.4125 	 -117.832
|  9> C 	 -94.2789 	 11.4102 	 -116.545
| 10> C 	 -95.5676 	 12.0269 	 -116.565
| 11> C 	 -95.9916 	 12.373 	 -117.814
| 12> H 	 -96.1858 	 12.1612 	 -115.634
| 13> C 	 -93.7517 	 10.8544 	 -115.253
| 14> H 	 -92.7943 	 10.2848 	 -115.409
| 15> H 	 -94.5919 	 10.189 	 -114.944
| 16> C 	 -93.1931 	 11.8956 	 -114.326
| 17> H 	 -92.457 	 11.3101 	 -113.695
| 18> H 	 -92.5569 	 12.5898 	 -114.824
| 19> C 	 -94.0865 	 12.5921 	 -113.309
| 20> H 	 -94.7946 	 13.2645 	 -113.879
| 21> H 	 -94.6127 	 11.9977 	 -112.586
| 22> H 	 -93.4566 	 13.2236 	 -112.605
| 23> S 	 -97.2682 	 14.3393 	 -119.196
| 24> C 	 -98.9241 	 14.8263 	 -118.843
| 25> C 	 -99.4961 	 13.7447 	 -118.23
| 26> C 	 -98.5352 	 12.7575 	 -117.699
| 27> C 	 -97.2511 	 12.9931 	 -118.133
| 28> H 	 -100.557 	 13.7145 	 -118.033
| 29> C 	 -98.9424 	 11.5547 	 -116.858
| 30> H 	 -98.8997 	 11.6457 	 -115.771
| 31> H 	 -98.1638 	 10.7878 	 -116.917
| 32> C 	 -100.249 	 10.8967 	 -117.245
| 33> H 	 -100.206 	 10.6608 	 -118.344
| 34> H 	 -101.052 	 11.6365 	 -117.197
| 35> C 	 -100.603 	 9.62255 	 -116.434
| 36> H 	 -99.7206 	 9.02189 	 -116.401
| 37> H 	 -101.472 	 9.06679 	 -116.853
| 38> H 	 -100.838 	 9.89777 	 -115.401
| 39> H 	 -92.6874 	 11.2292 	 -117.964
| 40> H 	 -99.418 	 15.752 	 -119.07
| 41> *
| 42>
| 43>                          ****END OF INPUT****

CARTESIAN COORDINATES (ANGSTROEM)
---------------------------------
  S    -94.694800   12.092200  -119.077000
  C    -93.703300   11.412500  -117.832000
  C    -94.278900   11.410200  -116.545000
  C    -95.567600   12.026900  -116.565000
  C    -95.991600   12.373000  -117.814000
  H    -96.185800   12.161200  -115.634000
  C    -93.751700   10.854400  -115.253000
  H    -92.794300   10.284800  -115.409000
  H    -94.591900   10.189000  -114.944000
  C    -93.193100   11.895600  -114.326000
  H    -92.457000   11.310100  -113.695000
  H    -92.556900   12.589800  -114.824000
  C    -94.086500   12.592100  -113.309000
  H    -94.794600   13.264500  -113.879000
  H    -94.612700   11.997700  -112.586000
  H    -93.456600   13.223600  -112.605000
  S    -97.268200   14.339300  -119.196000
  C    -98.924100   14.826300  -118.843000
  C    -99.496100   13.744700  -118.230000
  C    -98.535200   12.757500  -117.699000
  C    -97.251100   12.993100  -118.133000
  H    -100.557000   13.714500  -118.033000
  C    -98.942400   11.554700  -116.858000
  H    -98.899700   11.645700  -115.771000
  H    -98.163800   10.787800  -116.917000
  C    -100.249000   10.896700  -117.245000
  H    -100.206000   10.660800  -118.344000
  H    -101.052000   11.636500  -117.197000
  C    -100.603000    9.622550  -116.434000
  H    -99.720600    9.021890  -116.401000
  H    -101.472000    9.066790  -116.853000
  H    -100.838000    9.897770  -115.401000
  H    -92.687400   11.229200  -117.964000
  H    -99.418000   15.752000  -119.070000

 Total Charge           Charge          ....    0
 Multiplicity           Mult            ....    1
 Number of Electrons    NEL             ....  134
 Basis Dimension        Dim             ....  322

ORBITAL ENERGIES
----------------

  NO   OCC          E(Eh)            E(eV)
   0   2.0000     -88.970192     -2421.0020
   1   2.0000     -88.958331     -2420.6792
   2   2.0000     -10.334238      -281.2089
   3   2.0000     -10.323294      -280.9111
   4   2.0000     -10.319405      -280.8053
   5   2.0000     -10.310769      -280.5703
   6   2.0000     -10.307096      -280.4703
   7   2.0000     -10.301038      -280.3055
   8   2.0000     -10.298276      -280.2303
   9   2.0000     -10.298256      -280.2298
  10   2.0000     -10.297627      -280.2127
  11   2.0000     -10.289877      -280.0018
  12   2.0000     -10.289395      -279.9887
  13   2.0000     -10.287314      -279.9320
  14   2.0000     -10.285029      -279.8699
  15   2.0000     -10.281237      -279.7667
  16   2.0000      -8.083897      -219.9740
  17   2.0000      -8.074044      -219.7059
  18   2.0000      -6.042504      -164.4249
  19   2.0000      -6.038751      -164.3228
  20   2.0000      -6.034423      -164.2050
  21   2.0000      -6.032729      -164.1589
  22   2.0000      -6.028344      -164.0396
  23   2.0000      -6.024597      -163.9376
  24   2.0000      -1.008018       -27.4296
  25   2.0000      -0.982495       -26.7350
  26   2.0000      -0.916694       -24.9445
  27   2.0000      -0.908352       -24.7175
  28   2.0000      -0.875000       -23.8100
  29   2.0000      -0.852160       -23.1885
  30   2.0000      -0.840211       -22.8633
  31   2.0000      -0.819089       -22.2885
  32   2.0000      -0.781885       -21.2762
  33   2.0000      -0.771967       -21.0063
  34   2.0000      -0.706336       -19.2204
  35   2.0000      -0.703941       -19.1552
  36   2.0000      -0.699567       -19.0362
  37   2.0000      -0.656060       -17.8523
  38   2.0000      -0.638398       -17.3717
  39   2.0000      -0.622285       -16.9332
  40   2.0000      -0.602452       -16.3936
  41   2.0000      -0.569955       -15.5093
  42   2.0000      -0.559634       -15.2284
  43   2.0000      -0.544743       -14.8232
  44   2.0000      -0.540142       -14.6980
  45   2.0000      -0.530562       -14.4373
  46   2.0000      -0.526758       -14.3338
  47   2.0000      -0.512661       -13.9502
  48   2.0000      -0.505391       -13.7524
  49   2.0000      -0.502047       -13.6614
  50   2.0000      -0.495418       -13.4810
  51   2.0000      -0.479645       -13.0518
  52   2.0000      -0.468993       -12.7620
  53   2.0000      -0.466471       -12.6933
  54   2.0000      -0.458127       -12.4663
  55   2.0000      -0.451638       -12.2897
  56   2.0000      -0.448593       -12.2068
  57   2.0000      -0.440100       -11.9757
  58   2.0000      -0.431043       -11.7293
  59   2.0000      -0.422600       -11.4995
  60   2.0000      -0.411817       -11.2061
  61   2.0000      -0.410131       -11.1602
  62   2.0000      -0.401664       -10.9298
  63   2.0000      -0.356414        -9.6985
  64   2.0000      -0.332785        -9.0555
  65   2.0000      -0.320099        -8.7103
  66   2.0000      -0.287954        -7.8356
  67   0.0000       0.025837         0.7031
  68   0.0000       0.066738         1.8160
  69   0.0000       0.101412         2.7596
  70   0.0000       0.117560         3.1990
  71   0.0000       0.126031         3.4295

MULLIKEN ATOMIC CHARGES
-----------------------
   0 S :    0.111159
   1 C :   -0.088264
   2 C :   -0.102483
   3 C :   -0.015898
   4 C :   -0.125150
   5 H :    0.041331
   6 C :    0.050822
   7 H :    0.029212
   8 H :    0.053019
   9 C :   -0.068494
  10 H :    0.023869
  11 H :    0.029109
  12 C :   -0.065949
  13 H :    0.043450
  14 H :    0.028787
  15 H :    0.034847
  16 S :    0.084070
  17 C :   -0.088580
  18 C :   -0.023138
  19 C :   -0.035529
  20 C :   -0.124952
  21 H :    0.020443
  22 C :    0.046718
  23 H :    0.022736
  24 H :    0.015368
  25 C :   -0.117754
  26 H :    0.038135
  27 H :    0.025941
  28 C :   -0.030767
  29 H :    0.025210
  30 H :    0.048422
  31 H :    0.028708
  32 H :    0.024619
  33 H :    0.060982
Sum of atomic charges:    0.0000000

LOEWDIN ATOMIC CHARGES
----------------------
   0 S :    0.380529
   1 C :   -0.196866
   2 C :   -0.062897
   3 C :   -0.063921
   4 C :   -0.164068
   5 H :    0.043272
   6 C :   -0.040382
   7 H :    0.042253
   8 H :    0.042696
   9 C :   -0.045728
  10 H :    0.028052
  11 H :    0.026810
  12 C :   -0.076113
  13 H :    0.028084
  14 H :    0.020078
  15 H :    0.034648
  16 S :    0.402578
  17 C :   -0.175565
  18 C :   -0.067406
  19 C :   -0.056538
  20 C :   -0.204560
  21 H :    0.026898
  22 C :   -0.044426
  23 H :    0.027334
  24 H :    0.029525
  25 C :   -0.045733
  26 H :    0.029269
  27 H :    0.016301
  28 C :   -0.061865
  29 H :    0.021069
  30 H :    0.034352
  31 H :    0.024825
  32 H :    0.013244
  33 H :    0.034249

  Mayer bond orders larger than 0.100000
B(  0-S ,  1-C ) :   1.1338 B(  0-S ,  4-C ) :   1.1168 B(  1-C ,  2-C ) :   1.6263
B(  1-C , 32-H ) :   0.9663 B(  2-C ,  3-C ) :   1.2266 B(  2-C ,  6-C ) :   1.0231
B(  3-C ,  4-C ) :   1.5977 B(  3-C ,  5-H ) :   0.9781 B(  4-C , 20-C ) :   1.0662
B(  6-C ,  7-H ) :   0.9397 B(  6-C ,  8-H ) :   0.9453 B(  6-C ,  9-C ) :   1.0531
B(  9-C , 10-H ) :   0.9622 B(  9-C , 11-H ) :   0.9498 B(  9-C , 12-C ) :   1.0840
B( 12-C , 13-H ) :   0.9716 B( 12-C , 14-H ) :   0.9766 B( 12-C , 15-H ) :   0.9695
B( 16-S , 17-C ) :   1.1430 B( 16-S , 20-C ) :   1.1282 B( 17-C , 18-C ) :   1.6135
B( 17-C , 33-H ) :   0.9747 B( 18-C , 19-C ) :   1.2188 B( 18-C , 21-H ) :   0.9875
B( 19-C , 20-C ) :   1.6030 B( 19-C , 22-C ) :   1.0390 B( 22-C , 23-H ) :   0.9291
B( 22-C , 24-H ) :   0.9305 B( 22-C , 25-C ) :   1.0630 B( 25-C , 26-H ) :   0.9576
B( 25-C , 27-H ) :   0.9515 B( 25-C , 28-C ) :   1.0783 B( 28-C , 29-H ) :   0.9760
B( 28-C , 30-H ) :   0.9742 B( 28-C , 31-H ) :   0.9737

Dispersion correction           -0.013877826
FINAL SINGLE POINT ENERGY     -1339.861374910426

DIPOLE MOMENT
-------------
                                X             Y             Z
Electronic contribution:      5.74615      12.46878     -24.08689
Nuclear contribution   :     -5.87691     -12.67038      24.79846
                        -----------------------------------------
Total Dipole Moment    :     -0.13076      -0.20160       0.71157
                        -----------------------------------------
Magnitude (a.u.)       :      0.75105
Magnitude (Debye)      :      1.90902

Rotational constants in cm-1:     0.016137     0.008814     0.007044
Rotational constants in MHz :   483.763487   264.222887   211.163862

                             ****ORCA TERMINATED NORMALLY****
TOTAL RUN TIME: 0 days 0 hours 0 minutes 20 seconds 297 msec
