                         Program Version 4.2.1 -  RELEASE  -
|  1> ! wB97X-D3 SP def2-SVP
|  2> %pal
|  3> nprocs 24
|  4> end
|  5>
|  6> * xyz 0 1
|  7> S 	 -19.3727 	 -33.5149 	 -97.5465
|  8> C 	 -17.7324 	 -34.064 	 -97.6547
|  9> C 	 -16.8946 	 -32.9951 	 -97.8743
| 10> C 	 -17.5631 	 -31.7498 	 -98.1016
| 11> C 	 -18.8941 	 -31.8381 	 -97.8008
| 12> H 	 -17.0065 	 -30.8576 	 -98.4238
| 13> C 	 -15.3542 	 -33.2228 	 -98.0681
| 14> H 	 -14.8303 	 -32.454 	 -98.6752
| 15> H 	 -15.201 	 -34.1973 	 -98.592
| 16> C 	 -14.5377 	 -33.4554 	 -96.8012
| 17> H 	 -14.5808 	 -32.4769 	 -96.2634
| 18> H 	 -15.056 	 -34.1436 	 -96.22
| 19> C 	 -13.1458 	 -33.9411 	 -97.0643
| 20> H 	 -12.5586 	 -33.9719 	 -96.1772
| 21> H 	 -13.2842 	 -34.8935 	 -97.47
| 22> H 	 -12.6052 	 -33.4098 	 -97.7665
| 23> S 	 -21.2288 	 -30.7577 	 -98.7027
| 24> C 	 -21.8135 	 -29.2259 	 -98.2758
| 25> C 	 -20.8085 	 -28.5834 	 -97.6364
| 26> C 	 -19.6536 	 -29.394 	 -97.2971
| 27> C 	 -19.868 	 -30.7055 	 -97.7435
| 28> H 	 -20.9466 	 -27.5 	 -97.4231
| 29> C 	 -18.3723 	 -28.8 	 -96.6439
| 30> H 	 -17.791 	 -29.594 	 -96.1239
| 31> H 	 -18.7889 	 -28.0447 	 -96.0051
| 32> C 	 -17.4498 	 -28.1796 	 -97.6939
| 33> H 	 -18.0594 	 -27.3994 	 -98.2148
| 34> H 	 -17.1783 	 -28.8772 	 -98.4384
| 35> C 	 -16.2667 	 -27.4669 	 -97.0207
| 36> H 	 -16.6062 	 -26.6094 	 -96.4264
| 37> H 	 -15.7633 	 -26.9377 	 -97.8053
| 38> H 	 -15.5985 	 -28.1136 	 -96.5466
| 39> H 	 -17.4381 	 -35.1523 	 -97.6147
| 40> H 	 -22.7979 	 -28.8744 	 -98.5927
| 41> *
| 42>
| 43>                          ****END OF INPUT****

CARTESIAN COORDINATES (ANGSTROEM)
---------------------------------
  S    -19.372700  -33.514900  -97.546500
  C    -17.732400  -34.064000  -97.654700
  C    -16.894600  -32.995100  -97.874300
  C    -17.563100  -31.749800  -98.101600
  C    -18.894100  -31.838100  -97.800800
  H    -17.006500  -30.857600  -98.423800
  C    -15.354200  -33.222800  -98.068100
  H    -14.830300  -32.454000  -98.675200
  H    -15.201000  -34.197300  -98.592000
  C    -14.537700  -33.455400  -96.801200
  H    -14.580800  -32.476900  -96.263400
  H    -15.056000  -34.143600  -96.220000
  C    -13.145800  -33.941100  -97.064300
  H    -12.558600  -33.971900  -96.177200
  H    -13.284200  -34.893500  -97.470000
  H    -12.605200  -33.409800  -97.766500
  S    -21.228800  -30.757700  -98.702700
  C    -21.813500  -29.225900  -98.275800
  C    -20.808500  -28.583400  -97.636400
  C    -19.653600  -29.394000  -97.297100
  C    -19.868000  -30.705500  -97.743500
  H    -20.946600  -27.500000  -97.423100
  C    -18.372300  -28.800000  -96.643900
  H    -17.791000  -29.594000  -96.123900
  H    -18.788900  -28.044700  -96.005100
  C    -17.449800  -28.179600  -97.693900
  H    -18.059400  -27.399400  -98.214800
  H    -17.178300  -28.877200  -98.438400
  C    -16.266700  -27.466900  -97.020700
  H    -16.606200  -26.609400  -96.426400
  H    -15.763300  -26.937700  -97.805300
  H    -15.598500  -28.113600  -96.546600
  H    -17.438100  -35.152300  -97.614700
  H    -22.797900  -28.874400  -98.592700

 Total Charge           Charge          ....    0
 Multiplicity           Mult            ....    1
 Number of Electrons    NEL             ....  134
 Basis Dimension        Dim             ....  322

ORBITAL ENERGIES
----------------

  NO   OCC          E(Eh)            E(eV)
   0   2.0000     -88.966843     -2420.9109
   1   2.0000     -88.957685     -2420.6617
   2   2.0000     -10.333464      -281.1879
   3   2.0000     -10.322237      -280.8823
   4   2.0000     -10.318209      -280.7727
   5   2.0000     -10.311699      -280.5956
   6   2.0000     -10.305288      -280.4211
   7   2.0000     -10.303954      -280.3849
   8   2.0000     -10.298116      -280.2260
   9   2.0000     -10.295949      -280.1670
  10   2.0000     -10.294678      -280.1324
  11   2.0000     -10.293433      -280.0985
  12   2.0000     -10.286511      -279.9102
  13   2.0000     -10.277389      -279.6620
  14   2.0000     -10.274085      -279.5721
  15   2.0000     -10.264625      -279.3146
  16   2.0000      -8.081703      -219.9143
  17   2.0000      -8.075525      -219.7462
  18   2.0000      -6.040241      -164.3633
  19   2.0000      -6.036170      -164.2525
  20   2.0000      -6.033789      -164.1877
  21   2.0000      -6.032441      -164.1511
  22   2.0000      -6.029464      -164.0701
  23   2.0000      -6.026472      -163.9887
  24   2.0000      -1.017023       -27.6746
  25   2.0000      -0.992810       -27.0157
  26   2.0000      -0.914744       -24.8914
  27   2.0000      -0.911798       -24.8113
  28   2.0000      -0.872020       -23.7289
  29   2.0000      -0.852508       -23.1979
  30   2.0000      -0.846464       -23.0334
  31   2.0000      -0.819476       -22.2991
  32   2.0000      -0.783210       -21.3122
  33   2.0000      -0.773951       -21.0603
  34   2.0000      -0.702589       -19.1184
  35   2.0000      -0.697735       -18.9863
  36   2.0000      -0.693149       -18.8615
  37   2.0000      -0.661452       -17.9990
  38   2.0000      -0.637029       -17.3344
  39   2.0000      -0.623821       -16.9750
  40   2.0000      -0.598061       -16.2741
  41   2.0000      -0.577883       -15.7250
  42   2.0000      -0.571307       -15.5461
  43   2.0000      -0.564591       -15.3633
  44   2.0000      -0.526902       -14.3377
  45   2.0000      -0.524939       -14.2843
  46   2.0000      -0.518332       -14.1045
  47   2.0000      -0.515163       -14.0183
  48   2.0000      -0.506507       -13.7827
  49   2.0000      -0.501654       -13.6507
  50   2.0000      -0.500256       -13.6127
  51   2.0000      -0.483688       -13.1618
  52   2.0000      -0.477946       -13.0056
  53   2.0000      -0.467502       -12.7214
  54   2.0000      -0.462846       -12.5947
  55   2.0000      -0.452949       -12.3254
  56   2.0000      -0.443691       -12.0734
  57   2.0000      -0.436917       -11.8891
  58   2.0000      -0.431913       -11.7530
  59   2.0000      -0.425425       -11.5764
  60   2.0000      -0.420627       -11.4458
  61   2.0000      -0.415102       -11.2955
  62   2.0000      -0.411017       -11.1843
  63   2.0000      -0.350349        -9.5335
  64   2.0000      -0.332096        -9.0368
  65   2.0000      -0.322105        -8.7649
  66   2.0000      -0.298214        -8.1148
  67   0.0000       0.031636         0.8609
  68   0.0000       0.080118         2.1801
  69   0.0000       0.114019         3.1026
  70   0.0000       0.124768         3.3951
  71   0.0000       0.133931         3.6444

MULLIKEN ATOMIC CHARGES
-----------------------
   0 S :    0.116320
   1 C :   -0.139863
   2 C :   -0.074347
   3 C :    0.032894
   4 C :   -0.140387
   5 H :    0.009705
   6 C :   -0.001347
   7 H :    0.027489
   8 H :    0.018358
   9 C :   -0.059603
  10 H :    0.021523
  11 H :    0.008183
  12 C :    0.029724
  13 H :    0.031347
  14 H :    0.008423
  15 H :    0.007481
  16 S :    0.105789
  17 C :   -0.097570
  18 C :   -0.058389
  19 C :   -0.064891
  20 C :   -0.125008
  21 H :    0.029358
  22 C :    0.082204
  23 H :    0.039810
  24 H :    0.021310
  25 C :   -0.100560
  26 H :    0.021882
  27 H :    0.022127
  28 C :    0.011325
  29 H :    0.028792
  30 H :    0.018681
  31 H :    0.028783
  32 H :    0.075871
  33 H :    0.064587
Sum of atomic charges:   -0.0000000

LOEWDIN ATOMIC CHARGES
----------------------
   0 S :    0.410318
   1 C :   -0.208547
   2 C :   -0.066205
   3 C :   -0.064280
   4 C :   -0.186099
   5 H :    0.036010
   6 C :   -0.035146
   7 H :    0.027255
   8 H :    0.027759
   9 C :   -0.038306
  10 H :    0.021956
  11 H :    0.012521
  12 C :   -0.049958
  13 H :    0.028329
  14 H :    0.020649
  15 H :    0.015651
  16 S :    0.457820
  17 C :   -0.206357
  18 C :   -0.083883
  19 C :   -0.057055
  20 C :   -0.230870
  21 H :    0.034686
  22 C :   -0.026726
  23 H :    0.034244
  24 H :    0.028357
  25 C :   -0.036948
  26 H :    0.028275
  27 H :    0.011954
  28 C :   -0.057489
  29 H :    0.030969
  30 H :    0.026088
  31 H :    0.016466
  32 H :    0.043299
  33 H :    0.035261

  Mayer bond orders larger than 0.100000
B(  0-S ,  1-C ) :   1.1401 B(  0-S ,  4-C ) :   1.1632 B(  1-C ,  2-C ) :   1.6098
B(  1-C , 32-H ) :   0.9609 B(  2-C ,  3-C ) :   1.2600 B(  2-C ,  6-C ) :   1.0074
B(  3-C ,  4-C ) :   1.5562 B(  3-C ,  5-H ) :   0.9896 B(  4-C , 20-C ) :   0.9967
B(  6-C ,  7-H ) :   0.9511 B(  6-C ,  8-H ) :   0.9496 B(  6-C ,  9-C ) :   1.0598
B(  9-C , 10-H ) :   0.9511 B(  9-C , 11-H ) :   0.9569 B(  9-C , 12-C ) :   1.0841
B( 12-C , 13-H ) :   0.9699 B( 12-C , 14-H ) :   0.9683 B( 12-C , 15-H ) :   0.9727
B( 16-S , 17-C ) :   1.1763 B( 16-S , 20-C ) :   1.1977 B( 17-C , 18-C ) :   1.5656
B( 17-C , 33-H ) :   0.9750 B( 18-C , 19-C ) :   1.2678 B( 18-C , 21-H ) :   0.9860
B( 19-C , 20-C ) :   1.5526 B( 19-C , 22-C ) :   1.0389 B( 22-C , 23-H ) :   0.9345
B( 22-C , 24-H ) :   0.9328 B( 22-C , 25-C ) :   1.0708 B( 25-C , 26-H ) :   0.9480
B( 25-C , 27-H ) :   0.9543 B( 25-C , 28-C ) :   1.0864 B( 28-C , 29-H ) :   0.9710
B( 28-C , 30-H ) :   0.9692 B( 28-C , 31-H ) :   0.9752

Dispersion correction           -0.014011010
FINAL SINGLE POINT ENERGY     -1339.869620049498

DIPOLE MOMENT
-------------
                                X             Y             Z
Electronic contribution:    -30.79983      -8.18857      -5.27290
Nuclear contribution   :     31.39785       8.56745       5.20672
                        -----------------------------------------
Total Dipole Moment    :      0.59802       0.37888      -0.06618
                        -----------------------------------------
Magnitude (a.u.)       :      0.71102
Magnitude (Debye)      :      1.80728

Rotational constants in cm-1:     0.018845     0.008737     0.006233
Rotational constants in MHz :   564.944734   261.937604   186.866758

                             ****ORCA TERMINATED NORMALLY****
TOTAL RUN TIME: 0 days 0 hours 0 minutes 21 seconds 556 msec
