                         Program Version 4.2.1 -  RELEASE  -
|  1> ! wB97X-D3 SP def2-SVP
|  2> %pal
|  3> nprocs 24
|  4> end
|  5>
|  6> * xyz 0 1
|  7> S 	 -52.3175 	 22.0934 	 33.491
|  8> C 	 -50.6304 	 21.8438 	 32.8786
|  9> C 	 -50.5646 	 20.4718 	 32.5501
| 10> C 	 -51.7782 	 19.722 	 32.6936
| 11> C 	 -52.722 	 20.3581 	 33.3612
| 12> H 	 -51.6667 	 18.6505 	 32.6294
| 13> C 	 -49.3265 	 19.8647 	 31.9492
| 14> H 	 -49.055 	 18.9188 	 32.4869
| 15> H 	 -48.5118 	 20.5702 	 32.2134
| 16> C 	 -49.3422 	 19.7524 	 30.4838
| 17> H 	 -49.5265 	 20.7134 	 29.9923
| 18> H 	 -48.3531 	 19.4834 	 30.1603
| 19> C 	 -50.185 	 18.6018 	 30.0386
| 20> H 	 -50.1612 	 18.54 	 28.9725
| 21> H 	 -49.8255 	 17.6431 	 30.4618
| 22> H 	 -51.1649 	 18.7798 	 30.4236
| 23> S 	 -54.3827 	 19.7553 	 35.4913
| 24> C 	 -55.9949 	 19.0681 	 35.2648
| 25> C 	 -56.1147 	 18.7526 	 33.9278
| 26> C 	 -54.984 	 19.0978 	 33.1145
| 27> C 	 -53.9438 	 19.7057 	 33.823
| 28> H 	 -57.0443 	 18.2409 	 33.7013
| 29> C 	 -55.0592 	 18.7197 	 31.619
| 30> H 	 -54.1308 	 19.142 	 31.1547
| 31> H 	 -55.8005 	 19.1923 	 31.0666
| 32> C 	 -55.1227 	 17.2218 	 31.3337
| 33> H 	 -56.1451 	 16.8264 	 31.4412
| 34> H 	 -54.485 	 16.5537 	 31.995
| 35> C 	 -54.6588 	 16.9878 	 29.892
| 36> H 	 -54.8947 	 15.9301 	 29.726
| 37> H 	 -53.6211 	 17.2582 	 29.7785
| 38> H 	 -55.2539 	 17.5646 	 29.2127
| 39> H 	 -49.8704 	 22.5863 	 32.6976
| 40> H 	 -56.7728 	 18.8777 	 35.9481
| 41> *
| 42>
| 43>                          ****END OF INPUT****

CARTESIAN COORDINATES (ANGSTROEM)
---------------------------------
  S    -52.317500   22.093400   33.491000
  C    -50.630400   21.843800   32.878600
  C    -50.564600   20.471800   32.550100
  C    -51.778200   19.722000   32.693600
  C    -52.722000   20.358100   33.361200
  H    -51.666700   18.650500   32.629400
  C    -49.326500   19.864700   31.949200
  H    -49.055000   18.918800   32.486900
  H    -48.511800   20.570200   32.213400
  C    -49.342200   19.752400   30.483800
  H    -49.526500   20.713400   29.992300
  H    -48.353100   19.483400   30.160300
  C    -50.185000   18.601800   30.038600
  H    -50.161200   18.540000   28.972500
  H    -49.825500   17.643100   30.461800
  H    -51.164900   18.779800   30.423600
  S    -54.382700   19.755300   35.491300
  C    -55.994900   19.068100   35.264800
  C    -56.114700   18.752600   33.927800
  C    -54.984000   19.097800   33.114500
  C    -53.943800   19.705700   33.823000
  H    -57.044300   18.240900   33.701300
  C    -55.059200   18.719700   31.619000
  H    -54.130800   19.142000   31.154700
  H    -55.800500   19.192300   31.066600
  C    -55.122700   17.221800   31.333700
  H    -56.145100   16.826400   31.441200
  H    -54.485000   16.553700   31.995000
  C    -54.658800   16.987800   29.892000
  H    -54.894700   15.930100   29.726000
  H    -53.621100   17.258200   29.778500
  H    -55.253900   17.564600   29.212700
  H    -49.870400   22.586300   32.697600
  H    -56.772800   18.877700   35.948100

 Total Charge           Charge          ....    0
 Multiplicity           Mult            ....    1
 Number of Electrons    NEL             ....  134
 Basis Dimension        Dim             ....  322

ORBITAL ENERGIES
----------------

  NO   OCC          E(Eh)            E(eV)
   0   2.0000     -88.966325     -2420.8968
   1   2.0000     -88.964291     -2420.8414
   2   2.0000     -10.333017      -281.1757
   3   2.0000     -10.329785      -281.0877
   4   2.0000     -10.323794      -280.9247
   5   2.0000     -10.315691      -280.7042
   6   2.0000     -10.307645      -280.4853
   7   2.0000     -10.302263      -280.3388
   8   2.0000     -10.291834      -280.0550
   9   2.0000     -10.288981      -279.9774
  10   2.0000     -10.288635      -279.9680
  11   2.0000     -10.288393      -279.9614
  12   2.0000     -10.287764      -279.9443
  13   2.0000     -10.277448      -279.6636
  14   2.0000     -10.273990      -279.5695
  15   2.0000     -10.271410      -279.4993
  16   2.0000      -8.079485      -219.8540
  17   2.0000      -8.079012      -219.8411
  18   2.0000      -6.038342      -164.3116
  19   2.0000      -6.037634      -164.2924
  20   2.0000      -6.034192      -164.1987
  21   2.0000      -6.033305      -164.1746
  22   2.0000      -6.029940      -164.0830
  23   2.0000      -6.029839      -164.0803
  24   2.0000      -1.006694       -27.3935
  25   2.0000      -0.983283       -26.7565
  26   2.0000      -0.924949       -25.1691
  27   2.0000      -0.909144       -24.7391
  28   2.0000      -0.874209       -23.7884
  29   2.0000      -0.847336       -23.0572
  30   2.0000      -0.842513       -22.9260
  31   2.0000      -0.824985       -22.4490
  32   2.0000      -0.780506       -21.2387
  33   2.0000      -0.769518       -20.9396
  34   2.0000      -0.709617       -19.3097
  35   2.0000      -0.699552       -19.0358
  36   2.0000      -0.694751       -18.9051
  37   2.0000      -0.656283       -17.8584
  38   2.0000      -0.639645       -17.4056
  39   2.0000      -0.626370       -17.0444
  40   2.0000      -0.595521       -16.2049
  41   2.0000      -0.580144       -15.7865
  42   2.0000      -0.568058       -15.4576
  43   2.0000      -0.559564       -15.2265
  44   2.0000      -0.546731       -14.8773
  45   2.0000      -0.530386       -14.4325
  46   2.0000      -0.521614       -14.1938
  47   2.0000      -0.515400       -14.0247
  48   2.0000      -0.511872       -13.9288
  49   2.0000      -0.497627       -13.5411
  50   2.0000      -0.489720       -13.3260
  51   2.0000      -0.483872       -13.1668
  52   2.0000      -0.471232       -12.8229
  53   2.0000      -0.464354       -12.6357
  54   2.0000      -0.462096       -12.5743
  55   2.0000      -0.446622       -12.1532
  56   2.0000      -0.441026       -12.0009
  57   2.0000      -0.436333       -11.8732
  58   2.0000      -0.430128       -11.7044
  59   2.0000      -0.417936       -11.3726
  60   2.0000      -0.414058       -11.2671
  61   2.0000      -0.408928       -11.1275
  62   2.0000      -0.403434       -10.9780
  63   2.0000      -0.348338        -9.4788
  64   2.0000      -0.328875        -8.9491
  65   2.0000      -0.328761        -8.9460
  66   2.0000      -0.300585        -8.1793
  67   0.0000       0.029449         0.8013
  68   0.0000       0.064719         1.7611
  69   0.0000       0.114862         3.1256
  70   0.0000       0.120071         3.2673
  71   0.0000       0.124502         3.3879

MULLIKEN ATOMIC CHARGES
-----------------------
   0 S :    0.097947
   1 C :   -0.114432
   2 C :   -0.131642
   3 C :    0.042597
   4 C :   -0.105727
   5 H :    0.026207
   6 C :    0.023599
   7 H :    0.035206
   8 H :    0.014307
   9 C :   -0.023032
  10 H :    0.026566
  11 H :    0.013058
  12 C :   -0.035108
  13 H :    0.030543
  14 H :    0.024228
  15 H :    0.025782
  16 S :    0.106087
  17 C :   -0.082114
  18 C :   -0.046005
  19 C :   -0.014013
  20 C :   -0.171662
  21 H :    0.021487
  22 C :    0.090438
  23 H :    0.017843
  24 H :    0.015541
  25 C :   -0.115266
  26 H :    0.030421
  27 H :    0.039499
  28 C :   -0.032887
  29 H :    0.032762
  30 H :    0.040703
  31 H :    0.019881
  32 H :    0.054499
  33 H :    0.042688
Sum of atomic charges:   -0.0000000

LOEWDIN ATOMIC CHARGES
----------------------
   0 S :    0.366669
   1 C :   -0.180542
   2 C :   -0.056184
   3 C :   -0.074175
   4 C :   -0.171587
   5 H :    0.035756
   6 C :   -0.040955
   7 H :    0.033936
   8 H :    0.031629
   9 C :   -0.042248
  10 H :    0.027834
  11 H :    0.021516
  12 C :   -0.058517
  13 H :    0.023201
  14 H :    0.027638
  15 H :    0.017387
  16 S :    0.413747
  17 C :   -0.176383
  18 C :   -0.073563
  19 C :   -0.051602
  20 C :   -0.208516
  21 H :    0.032768
  22 C :   -0.030987
  23 H :    0.031224
  24 H :    0.022907
  25 C :   -0.043578
  26 H :    0.021693
  27 H :    0.029063
  28 C :   -0.057623
  29 H :    0.028565
  30 H :    0.023693
  31 H :    0.018935
  32 H :    0.032085
  33 H :    0.026212

  Mayer bond orders larger than 0.100000
B(  0-S ,  1-C ) :   1.1057 B(  0-S ,  4-C ) :   1.1298 B(  1-C ,  2-C ) :   1.6232
B(  1-C , 32-H ) :   0.9725 B(  2-C ,  3-C ) :   1.2325 B(  2-C ,  6-C ) :   1.0399
B(  3-C ,  4-C ) :   1.6019 B(  3-C ,  5-H ) :   0.9765 B(  4-C , 20-C ) :   1.0368
B(  6-C ,  7-H ) :   0.9374 B(  6-C ,  8-H ) :   0.9337 B(  6-C ,  9-C ) :   1.0868
B(  9-C , 10-H ) :   0.9456 B(  9-C , 11-H ) :   0.9444 B(  9-C , 12-C ) :   1.0877
B( 12-C , 13-H ) :   0.9693 B( 12-C , 14-H ) :   0.9696 B( 12-C , 15-H ) :   0.9698
B( 16-S , 17-C ) :   1.1518 B( 16-S , 20-C ) :   1.1445 B( 17-C , 18-C ) :   1.6165
B( 17-C , 33-H ) :   0.9733 B( 18-C , 19-C ) :   1.2348 B( 18-C , 21-H ) :   0.9915
B( 19-C , 20-C ) :   1.5807 B( 19-C , 22-C ) :   1.0360 B( 22-C , 23-H ) :   0.9404
B( 22-C , 24-H ) :   0.9309 B( 22-C , 25-C ) :   1.0527 B( 25-C , 26-H ) :   0.9513
B( 25-C , 27-H ) :   0.9596 B( 25-C , 28-C ) :   1.0873 B( 28-C , 29-H ) :   0.9734
B( 28-C , 30-H ) :   0.9773 B( 28-C , 31-H ) :   0.9714

Dispersion correction           -0.014804955
FINAL SINGLE POINT ENERGY     -1339.860884829016

DIPOLE MOMENT
-------------
                                X             Y             Z
Electronic contribution:     -6.88698      16.98403      24.72059
Nuclear contribution   :      6.97607     -17.45095     -25.24974
                        -----------------------------------------
Total Dipole Moment    :      0.08908      -0.46692      -0.52916
                        -----------------------------------------
Magnitude (a.u.)       :      0.71131
Magnitude (Debye)      :      1.80800

Rotational constants in cm-1:     0.016738     0.010393     0.007014
Rotational constants in MHz :   501.786207   311.586184   210.266582

                             ****ORCA TERMINATED NORMALLY****
TOTAL RUN TIME: 0 days 0 hours 0 minutes 21 seconds 174 msec
