                         Program Version 4.2.1 -  RELEASE  -
|  1> ! wB97X-D3 SP def2-SVP
|  2> %pal
|  3> nprocs 24
|  4> end
|  5>
|  6> * xyz 0 1
|  7> S 	 -128.335 	 60.1605 	 -55.8591
|  8> C 	 -129.333 	 58.7608 	 -56.0627
|  9> C 	 -130.342 	 58.6219 	 -55.1278
| 10> C 	 -130.164 	 59.6655 	 -54.103
| 11> C 	 -129.134 	 60.5192 	 -54.3885
| 12> H 	 -130.888 	 59.9151 	 -53.3303
| 13> C 	 -131.426 	 57.5604 	 -55.0429
| 14> H 	 -132.082 	 57.5727 	 -55.8808
| 15> H 	 -132.001 	 57.8144 	 -54.1202
| 16> C 	 -130.871 	 56.1364 	 -54.758
| 17> H 	 -130.122 	 55.8548 	 -55.5471
| 18> H 	 -130.248 	 56.2096 	 -53.8813
| 19> C 	 -131.903 	 55.0197 	 -54.5123
| 20> H 	 -131.431 	 54.1424 	 -54.1063
| 21> H 	 -132.485 	 55.229 	 -53.7062
| 22> H 	 -132.7 	 54.7685 	 -55.2365
| 23> S 	 -128.316 	 63.1931 	 -54.1732
| 24> C 	 -128.249 	 63.9515 	 -52.6031
| 25> C 	 -128.586 	 63.0521 	 -51.5706
| 26> C 	 -128.857 	 61.7391 	 -52.0801
| 27> C 	 -128.804 	 61.6183 	 -53.4684
| 28> H 	 -128.502 	 63.4042 	 -50.5242
| 29> C 	 -129.031 	 60.6476 	 -51.0998
| 30> H 	 -130.001 	 60.1067 	 -51.2636
| 31> H 	 -129.096 	 61.1172 	 -50.1613
| 32> C 	 -127.812 	 59.6626 	 -51.0748
| 33> H 	 -126.882 	 60.1976 	 -50.959
| 34> H 	 -127.725 	 58.9754 	 -51.9908
| 35> C 	 -128.084 	 58.6754 	 -49.9224
| 36> H 	 -127.227 	 57.9303 	 -49.9163
| 37> H 	 -128.954 	 58.1084 	 -49.9449
| 38> H 	 -128.217 	 59.2952 	 -49.0218
| 39> H 	 -129.318 	 58.1279 	 -57.0308
| 40> H 	 -128.129 	 65.0187 	 -52.4548
| 41> *
| 42>
| 43>                          ****END OF INPUT****

CARTESIAN COORDINATES (ANGSTROEM)
---------------------------------
  S    -128.335000   60.160500  -55.859100
  C    -129.333000   58.760800  -56.062700
  C    -130.342000   58.621900  -55.127800
  C    -130.164000   59.665500  -54.103000
  C    -129.134000   60.519200  -54.388500
  H    -130.888000   59.915100  -53.330300
  C    -131.426000   57.560400  -55.042900
  H    -132.082000   57.572700  -55.880800
  H    -132.001000   57.814400  -54.120200
  C    -130.871000   56.136400  -54.758000
  H    -130.122000   55.854800  -55.547100
  H    -130.248000   56.209600  -53.881300
  C    -131.903000   55.019700  -54.512300
  H    -131.431000   54.142400  -54.106300
  H    -132.485000   55.229000  -53.706200
  H    -132.700000   54.768500  -55.236500
  S    -128.316000   63.193100  -54.173200
  C    -128.249000   63.951500  -52.603100
  C    -128.586000   63.052100  -51.570600
  C    -128.857000   61.739100  -52.080100
  C    -128.804000   61.618300  -53.468400
  H    -128.502000   63.404200  -50.524200
  C    -129.031000   60.647600  -51.099800
  H    -130.001000   60.106700  -51.263600
  H    -129.096000   61.117200  -50.161300
  C    -127.812000   59.662600  -51.074800
  H    -126.882000   60.197600  -50.959000
  H    -127.725000   58.975400  -51.990800
  C    -128.084000   58.675400  -49.922400
  H    -127.227000   57.930300  -49.916300
  H    -128.954000   58.108400  -49.944900
  H    -128.217000   59.295200  -49.021800
  H    -129.318000   58.127900  -57.030800
  H    -128.129000   65.018700  -52.454800

 Total Charge           Charge          ....    0
 Multiplicity           Mult            ....    1
 Number of Electrons    NEL             ....  134
 Basis Dimension        Dim             ....  322

ORBITAL ENERGIES
----------------

  NO   OCC          E(Eh)            E(eV)
   0   2.0000     -88.970992     -2421.0238
   1   2.0000     -88.964743     -2420.8537
   2   2.0000     -10.329667      -281.0845
   3   2.0000     -10.326825      -281.0072
   4   2.0000     -10.320100      -280.8242
   5   2.0000     -10.318857      -280.7904
   6   2.0000     -10.306554      -280.4556
   7   2.0000     -10.301459      -280.3169
   8   2.0000     -10.299024      -280.2507
   9   2.0000     -10.297077      -280.1977
  10   2.0000     -10.293520      -280.1009
  11   2.0000     -10.292984      -280.0863
  12   2.0000     -10.290064      -280.0069
  13   2.0000     -10.288264      -279.9579
  14   2.0000     -10.275185      -279.6020
  15   2.0000     -10.272707      -279.5346
  16   2.0000      -8.086556      -220.0464
  17   2.0000      -8.078972      -219.8400
  18   2.0000      -6.045048      -164.4941
  19   2.0000      -6.041065      -164.3857
  20   2.0000      -6.037452      -164.2874
  21   2.0000      -6.037173      -164.2798
  22   2.0000      -6.033494      -164.1797
  23   2.0000      -6.029875      -164.0812
  24   2.0000      -1.007441       -27.4139
  25   2.0000      -0.981529       -26.7088
  26   2.0000      -0.910348       -24.7718
  27   2.0000      -0.907910       -24.7055
  28   2.0000      -0.866179       -23.5699
  29   2.0000      -0.854434       -23.2503
  30   2.0000      -0.847639       -23.0654
  31   2.0000      -0.810605       -22.0577
  32   2.0000      -0.784820       -21.3560
  33   2.0000      -0.767948       -20.8969
  34   2.0000      -0.709089       -19.2953
  35   2.0000      -0.702992       -19.1294
  36   2.0000      -0.686497       -18.6805
  37   2.0000      -0.665620       -18.1124
  38   2.0000      -0.636518       -17.3205
  39   2.0000      -0.617305       -16.7977
  40   2.0000      -0.590245       -16.0614
  41   2.0000      -0.565542       -15.3892
  42   2.0000      -0.563429       -15.3317
  43   2.0000      -0.555793       -15.1239
  44   2.0000      -0.527515       -14.3544
  45   2.0000      -0.524605       -14.2752
  46   2.0000      -0.516821       -14.0634
  47   2.0000      -0.506050       -13.7703
  48   2.0000      -0.504038       -13.7156
  49   2.0000      -0.492472       -13.4008
  50   2.0000      -0.490270       -13.3409
  51   2.0000      -0.487631       -13.2691
  52   2.0000      -0.473024       -12.8716
  53   2.0000      -0.463488       -12.6122
  54   2.0000      -0.461566       -12.5599
  55   2.0000      -0.453619       -12.3436
  56   2.0000      -0.443004       -12.0548
  57   2.0000      -0.439207       -11.9514
  58   2.0000      -0.434464       -11.8224
  59   2.0000      -0.425868       -11.5885
  60   2.0000      -0.422769       -11.5041
  61   2.0000      -0.412797       -11.2328
  62   2.0000      -0.406200       -11.0533
  63   2.0000      -0.352731        -9.5983
  64   2.0000      -0.332800        -9.0559
  65   2.0000      -0.328673        -8.9437
  66   2.0000      -0.285655        -7.7731
  67   0.0000       0.025936         0.7058
  68   0.0000       0.074330         2.0226
  69   0.0000       0.104989         2.8569
  70   0.0000       0.120279         3.2729
  71   0.0000       0.129289         3.5181

MULLIKEN ATOMIC CHARGES
-----------------------
   0 S :    0.132413
   1 C :   -0.161539
   2 C :   -0.090985
   3 C :   -0.029441
   4 C :   -0.109303
   5 H :    0.027890
   6 C :    0.092167
   7 H :    0.034923
   8 H :    0.020546
   9 C :   -0.093078
  10 H :    0.033766
  11 H :    0.023087
  12 C :    0.001600
  13 H :    0.024075
  14 H :   -0.011402
  15 H :    0.036245
  16 S :    0.089606
  17 C :   -0.099181
  18 C :   -0.052111
  19 C :   -0.060333
  20 C :   -0.133389
  21 H :    0.037609
  22 C :    0.076660
  23 H :    0.027781
  24 H :   -0.004004
  25 C :   -0.085213
  26 H :    0.037397
  27 H :    0.052898
  28 C :   -0.033064
  29 H :    0.042183
  30 H :    0.013564
  31 H :    0.018634
  32 H :    0.077056
  33 H :    0.062942
Sum of atomic charges:    0.0000000

LOEWDIN ATOMIC CHARGES
----------------------
   0 S :    0.428776
   1 C :   -0.219717
   2 C :   -0.059037
   3 C :   -0.067454
   4 C :   -0.206657
   5 H :    0.032716
   6 C :   -0.028749
   7 H :    0.026578
   8 H :    0.034629
   9 C :   -0.037912
  10 H :    0.025088
  11 H :    0.025660
  12 C :   -0.072504
  13 H :    0.031411
  14 H :    0.013030
  15 H :    0.031521
  16 S :    0.386827
  17 C :   -0.185714
  18 C :   -0.078619
  19 C :   -0.061284
  20 C :   -0.182085
  21 H :    0.039469
  22 C :   -0.031737
  23 H :    0.033086
  24 H :    0.020525
  25 C :   -0.033232
  26 H :    0.024624
  27 H :    0.035239
  28 C :   -0.066914
  29 H :    0.032815
  30 H :    0.012665
  31 H :    0.022885
  32 H :    0.044309
  33 H :    0.029760

  Mayer bond orders larger than 0.100000
B(  0-S ,  1-C ) :   1.1360 B(  0-S ,  4-C ) :   1.1506 B(  1-C ,  2-C ) :   1.6325
B(  1-C , 32-H ) :   0.9519 B(  2-C ,  3-C ) :   1.2307 B(  2-C ,  6-C ) :   1.0234
B(  3-C ,  4-C ) :   1.5890 B(  3-C ,  5-H ) :   0.9860 B(  4-C , 20-C ) :   1.0487
B(  6-C ,  7-H ) :   0.9385 B(  6-C ,  8-H ) :   0.9405 B(  6-C ,  9-C ) :   1.0591
B(  9-C , 10-H ) :   0.9602 B(  9-C , 11-H ) :   0.9523 B(  9-C , 12-C ) :   1.0814
B( 12-C , 13-H ) :   0.9688 B( 12-C , 14-H ) :   0.9618 B( 12-C , 15-H ) :   0.9747
B( 16-S , 17-C ) :   1.1732 B( 16-S , 20-C ) :   1.1212 B( 17-C , 18-C ) :   1.5927
B( 17-C , 20-C ) :   0.1030 B( 17-C , 33-H ) :   0.9647 B( 18-C , 19-C ) :   1.2554
B( 18-C , 21-H ) :   0.9840 B( 19-C , 20-C ) :   1.5797 B( 19-C , 22-C ) :   1.0601
B( 22-C , 23-H ) :   0.9262 B( 22-C , 24-H ) :   0.9278 B( 22-C , 25-C ) :   1.0615
B( 25-C , 26-H ) :   0.9565 B( 25-C , 27-H ) :   0.9554 B( 25-C , 28-C ) :   1.0746
B( 28-C , 29-H ) :   0.9743 B( 28-C , 30-H ) :   0.9750 B( 28-C , 31-H ) :   0.9736

Dispersion correction           -0.014106262
FINAL SINGLE POINT ENERGY     -1339.867033978962

DIPOLE MOMENT
-------------
                                X             Y             Z
Electronic contribution:      9.42668      26.25662     -15.70438
Nuclear contribution   :     -9.81436     -26.61138      16.16947
                        -----------------------------------------
Total Dipole Moment    :     -0.38768      -0.35477       0.46509
                        -----------------------------------------
Magnitude (a.u.)       :      0.70176
Magnitude (Debye)      :      1.78373

Rotational constants in cm-1:     0.019198     0.008520     0.006525
Rotational constants in MHz :   575.541510   255.421383   195.616258

                             ****ORCA TERMINATED NORMALLY****
TOTAL RUN TIME: 0 days 0 hours 0 minutes 21 seconds 663 msec
