                         Program Version 4.2.1 -  RELEASE  -
|  1> ! wB97X-D3 SP def2-SVP
|  2> %pal
|  3> nprocs 24
|  4> end
|  5>
|  6> * xyz 0 1
|  7> S 	 46.7421 	 -18.8815 	 -111.275
|  8> C 	 47.7053 	 -19.2395 	 -109.828
|  9> C 	 47.228 	 -20.3465 	 -109.168
| 10> C 	 45.9394 	 -20.7407 	 -109.665
| 11> C 	 45.5377 	 -20.0829 	 -110.787
| 12> H 	 45.2988 	 -21.4447 	 -109.108
| 13> C 	 47.8133 	 -20.8599 	 -107.857
| 14> H 	 47.0342 	 -21.5039 	 -107.426
| 15> H 	 48.0467 	 -19.9954 	 -107.192
| 16> C 	 49.0993 	 -21.693 	 -107.981
| 17> H 	 49.1123 	 -22.3932 	 -108.806
| 18> H 	 49.868 	 -20.9515 	 -108.222
| 19> C 	 49.3766 	 -22.4754 	 -106.696
| 20> H 	 50.0498 	 -23.3755 	 -106.793
| 21> H 	 50.0466 	 -21.7989 	 -106.031
| 22> H 	 48.4699 	 -22.8069 	 -106.287
| 23> S 	 43.9637 	 -21.7324 	 -112.354
| 24> C 	 42.8773 	 -21.0234 	 -113.551
| 25> C 	 42.7425 	 -19.6288 	 -113.334
| 26> C 	 43.4839 	 -19.1886 	 -112.199
| 27> C 	 44.2399 	 -20.1996 	 -111.528
| 28> H 	 42.2773 	 -18.957 	 -114.053
| 29> C 	 43.39 	 -17.6963 	 -111.78
| 30> H 	 43.2053 	 -17.1156 	 -112.71
| 31> H 	 44.3359 	 -17.3501 	 -111.306
| 32> C 	 42.28 	 -17.3543 	 -110.806
| 33> H 	 42.5127 	 -17.7972 	 -109.872
| 34> H 	 41.35 	 -17.6862 	 -111.25
| 35> C 	 42.2995 	 -15.8255 	 -110.378
| 36> H 	 41.9856 	 -15.1733 	 -111.16
| 37> H 	 43.3165 	 -15.6614 	 -109.987
| 38> H 	 41.6396 	 -15.5843 	 -109.524
| 39> H 	 48.6776 	 -18.8039 	 -109.674
| 40> H 	 42.4134 	 -21.627 	 -114.323
| 41> *
| 42>
| 43>                          ****END OF INPUT****

CARTESIAN COORDINATES (ANGSTROEM)
---------------------------------
  S     46.742100  -18.881500  -111.275000
  C     47.705300  -19.239500  -109.828000
  C     47.228000  -20.346500  -109.168000
  C     45.939400  -20.740700  -109.665000
  C     45.537700  -20.082900  -110.787000
  H     45.298800  -21.444700  -109.108000
  C     47.813300  -20.859900  -107.857000
  H     47.034200  -21.503900  -107.426000
  H     48.046700  -19.995400  -107.192000
  C     49.099300  -21.693000  -107.981000
  H     49.112300  -22.393200  -108.806000
  H     49.868000  -20.951500  -108.222000
  C     49.376600  -22.475400  -106.696000
  H     50.049800  -23.375500  -106.793000
  H     50.046600  -21.798900  -106.031000
  H     48.469900  -22.806900  -106.287000
  S     43.963700  -21.732400  -112.354000
  C     42.877300  -21.023400  -113.551000
  C     42.742500  -19.628800  -113.334000
  C     43.483900  -19.188600  -112.199000
  C     44.239900  -20.199600  -111.528000
  H     42.277300  -18.957000  -114.053000
  C     43.390000  -17.696300  -111.780000
  H     43.205300  -17.115600  -112.710000
  H     44.335900  -17.350100  -111.306000
  C     42.280000  -17.354300  -110.806000
  H     42.512700  -17.797200  -109.872000
  H     41.350000  -17.686200  -111.250000
  C     42.299500  -15.825500  -110.378000
  H     41.985600  -15.173300  -111.160000
  H     43.316500  -15.661400  -109.987000
  H     41.639600  -15.584300  -109.524000
  H     48.677600  -18.803900  -109.674000
  H     42.413400  -21.627000  -114.323000

 Total Charge           Charge          ....    0
 Multiplicity           Mult            ....    1
 Number of Electrons    NEL             ....  134
 Basis Dimension        Dim             ....  322

ORBITAL ENERGIES
----------------

  NO   OCC          E(Eh)            E(eV)
   0   2.0000     -88.968268     -2420.9497
   1   2.0000     -88.966037     -2420.8889
   2   2.0000     -10.334407      -281.2135
   3   2.0000     -10.333029      -281.1760
   4   2.0000     -10.328564      -281.0545
   5   2.0000     -10.313640      -280.6484
   6   2.0000     -10.312414      -280.6150
   7   2.0000     -10.302663      -280.3497
   8   2.0000     -10.301003      -280.3046
   9   2.0000     -10.296970      -280.1948
  10   2.0000     -10.295407      -280.1523
  11   2.0000     -10.292134      -280.0632
  12   2.0000     -10.285284      -279.8768
  13   2.0000     -10.285095      -279.8717
  14   2.0000     -10.280043      -279.7342
  15   2.0000     -10.278558      -279.6938
  16   2.0000      -8.082410      -219.9336
  17   2.0000      -8.079814      -219.8629
  18   2.0000      -6.040866      -164.3803
  19   2.0000      -6.038393      -164.3130
  20   2.0000      -6.036727      -164.2677
  21   2.0000      -6.034519      -164.2076
  22   2.0000      -6.033520      -164.1804
  23   2.0000      -6.030478      -164.0977
  24   2.0000      -1.000419       -27.2228
  25   2.0000      -0.979168       -26.6445
  26   2.0000      -0.910820       -24.7847
  27   2.0000      -0.903523       -24.5861
  28   2.0000      -0.864689       -23.5294
  29   2.0000      -0.848758       -23.0959
  30   2.0000      -0.841431       -22.8965
  31   2.0000      -0.812469       -22.1084
  32   2.0000      -0.777440       -21.1552
  33   2.0000      -0.766137       -20.8477
  34   2.0000      -0.702091       -19.1049
  35   2.0000      -0.697656       -18.9842
  36   2.0000      -0.685982       -18.6665
  37   2.0000      -0.665467       -18.1083
  38   2.0000      -0.637696       -17.3526
  39   2.0000      -0.617092       -16.7919
  40   2.0000      -0.593203       -16.1419
  41   2.0000      -0.572697       -15.5839
  42   2.0000      -0.571246       -15.5444
  43   2.0000      -0.563212       -15.3258
  44   2.0000      -0.522114       -14.2075
  45   2.0000      -0.517229       -14.0745
  46   2.0000      -0.513459       -13.9719
  47   2.0000      -0.507381       -13.8065
  48   2.0000      -0.506797       -13.7907
  49   2.0000      -0.497197       -13.5294
  50   2.0000      -0.482333       -13.1250
  51   2.0000      -0.479769       -13.0552
  52   2.0000      -0.472368       -12.8538
  53   2.0000      -0.469230       -12.7684
  54   2.0000      -0.452650       -12.3172
  55   2.0000      -0.450014       -12.2455
  56   2.0000      -0.445649       -12.1267
  57   2.0000      -0.432502       -11.7690
  58   2.0000      -0.430074       -11.7029
  59   2.0000      -0.426509       -11.6059
  60   2.0000      -0.417644       -11.3647
  61   2.0000      -0.411220       -11.1899
  62   2.0000      -0.405965       -11.0469
  63   2.0000      -0.345886        -9.4120
  64   2.0000      -0.332552        -9.0492
  65   2.0000      -0.328129        -8.9288
  66   2.0000      -0.294522        -8.0144
  67   0.0000       0.023123         0.6292
  68   0.0000       0.060950         1.6585
  69   0.0000       0.105974         2.8837
  70   0.0000       0.114727         3.1219
  71   0.0000       0.124788         3.3957

MULLIKEN ATOMIC CHARGES
-----------------------
   0 S :    0.105226
   1 C :   -0.130665
   2 C :   -0.065760
   3 C :    0.003177
   4 C :   -0.119921
   5 H :    0.025275
   6 C :    0.023843
   7 H :    0.017881
   8 H :    0.051038
   9 C :   -0.066049
  10 H :    0.029976
  11 H :    0.024348
  12 C :   -0.066910
  13 H :    0.040591
  14 H :    0.042491
  15 H :    0.028635
  16 S :    0.103501
  17 C :   -0.108595
  18 C :   -0.018191
  19 C :   -0.084761
  20 C :   -0.112983
  21 H :    0.034168
  22 C :    0.030548
  23 H :    0.022080
  24 H :    0.022472
  25 C :   -0.036858
  26 H :    0.024171
  27 H :    0.025085
  28 C :   -0.066021
  29 H :    0.031783
  30 H :    0.034270
  31 H :    0.035807
  32 H :    0.050463
  33 H :    0.069886
Sum of atomic charges:    0.0000000

LOEWDIN ATOMIC CHARGES
----------------------
   0 S :    0.393931
   1 C :   -0.185250
   2 C :   -0.063680
   3 C :   -0.069165
   4 C :   -0.183156
   5 H :    0.036482
   6 C :   -0.030245
   7 H :    0.025977
   8 H :    0.039809
   9 C :   -0.044740
  10 H :    0.022061
  11 H :    0.022219
  12 C :   -0.071154
  13 H :    0.032006
  14 H :    0.037134
  15 H :    0.015557
  16 S :    0.412204
  17 C :   -0.175510
  18 C :   -0.074554
  19 C :   -0.049826
  20 C :   -0.211745
  21 H :    0.035817
  22 C :   -0.037246
  23 H :    0.028987
  24 H :    0.021118
  25 C :   -0.032442
  26 H :    0.021941
  27 H :    0.019303
  28 C :   -0.064634
  29 H :    0.017071
  30 H :    0.028624
  31 H :    0.028566
  32 H :    0.024275
  33 H :    0.030265

  Mayer bond orders larger than 0.100000
B(  0-S ,  1-C ) :   1.1313 B(  0-S ,  4-C ) :   1.1330 B(  1-C ,  2-C ) :   1.6282
B(  1-C , 32-H ) :   0.9677 B(  2-C ,  3-C ) :   1.2329 B(  2-C ,  6-C ) :   1.0195
B(  3-C ,  4-C ) :   1.5991 B(  3-C ,  5-H ) :   0.9874 B(  4-C , 20-C ) :   1.0276
B(  6-C ,  7-H ) :   0.9463 B(  6-C ,  8-H ) :   0.9498 B(  6-C ,  9-C ) :   1.0498
B(  9-C , 10-H ) :   0.9623 B(  9-C , 11-H ) :   0.9600 B(  9-C , 12-C ) :   1.0720
B( 12-C , 13-H ) :   0.9772 B( 12-C , 14-H ) :   0.9759 B( 12-C , 15-H ) :   0.9770
B( 16-S , 17-C ) :   1.1941 B( 16-S , 20-C ) :   1.1440 B( 17-C , 18-C ) :   1.5341
B( 17-C , 20-C ) :   0.1081 B( 17-C , 33-H ) :   0.9690 B( 18-C , 19-C ) :   1.3005
B( 18-C , 21-H ) :   0.9886 B( 19-C , 20-C ) :   1.5300 B( 19-C , 22-C ) :   1.0368
B( 22-C , 23-H ) :   0.9385 B( 22-C , 24-H ) :   0.9330 B( 22-C , 25-C ) :   1.0732
B( 25-C , 26-H ) :   0.9565 B( 25-C , 27-H ) :   0.9567 B( 25-C , 28-C ) :   1.0715
B( 28-C , 29-H ) :   0.9791 B( 28-C , 30-H ) :   0.9745 B( 28-C , 31-H ) :   0.9776

Dispersion correction           -0.013371601
FINAL SINGLE POINT ENERGY     -1339.870142290400

DIPOLE MOMENT
-------------
                                X             Y             Z
Electronic contribution:     -3.57007      -6.98234     -17.71415
Nuclear contribution   :      3.61098       7.07947      17.87328
                        -----------------------------------------
Total Dipole Moment    :      0.04091       0.09712       0.15914
                        -----------------------------------------
Magnitude (a.u.)       :      0.19087
Magnitude (Debye)      :      0.48515

Rotational constants in cm-1:     0.020765     0.007129     0.005974
Rotational constants in MHz :   622.510188   213.736624   179.098327

                             ****ORCA TERMINATED NORMALLY****
TOTAL RUN TIME: 0 days 0 hours 0 minutes 20 seconds 609 msec
