                         Program Version 4.2.1 -  RELEASE  -
|  1> ! wB97X-D3 SP def2-SVP
|  2> %pal
|  3> nprocs 24
|  4> end
|  5>
|  6> * xyz 0 1
|  7> S 	 -44.6052 	 -3.32301 	 -20.663
|  8> C 	 -46.0337 	 -3.87441 	 -21.4903
|  9> C 	 -45.7654 	 -5.01221 	 -22.2218
| 10> C 	 -44.3702 	 -5.25894 	 -22.3996
| 11> C 	 -43.607 	 -4.26429 	 -21.7442
| 12> H 	 -43.858 	 -5.90914 	 -23.0586
| 13> C 	 -46.8949 	 -5.71281 	 -23.0209
| 14> H 	 -47.8405 	 -5.78585 	 -22.4306
| 15> H 	 -46.6421 	 -6.77075 	 -23.1358
| 16> C 	 -47.2388 	 -4.98279 	 -24.3911
| 17> H 	 -48.1618 	 -5.37188 	 -24.8587
| 18> H 	 -47.3193 	 -3.89117 	 -24.1832
| 19> C 	 -46.1313 	 -5.03656 	 -25.4089
| 20> H 	 -45.6277 	 -5.98685 	 -25.5789
| 21> H 	 -46.3196 	 -4.60193 	 -26.3578
| 22> H 	 -45.218 	 -4.53771 	 -24.9791
| 23> S 	 -41.2606 	 -3.79422 	 -22.9481
| 24> C 	 -39.8254 	 -3.72394 	 -21.8758
| 25> C 	 -40.0872 	 -4.28837 	 -20.6466
| 26> C 	 -41.451 	 -4.52114 	 -20.3891
| 27> C 	 -42.1825 	 -4.28164 	 -21.5393
| 28> H 	 -39.336 	 -4.38412 	 -19.854
| 29> C 	 -41.8163 	 -4.96574 	 -18.9768
| 30> H 	 -42.4358 	 -4.25094 	 -18.5431
| 31> H 	 -40.9601 	 -5.04459 	 -18.2597
| 32> C 	 -42.5665 	 -6.30802 	 -18.8299
| 33> H 	 -42.0202 	 -7.16903 	 -19.087
| 34> H 	 -43.3048 	 -6.30537 	 -19.576
| 35> C 	 -43.1562 	 -6.55063 	 -17.4379
| 36> H 	 -43.6414 	 -7.51474 	 -17.3593
| 37> H 	 -43.8271 	 -5.75701 	 -17.1353
| 38> H 	 -42.2928 	 -6.54747 	 -16.7542
| 39> H 	 -46.9921 	 -3.42601 	 -21.3633
| 40> H 	 -38.8379 	 -3.43807 	 -22.2042
| 41> *
| 42>
| 43>                          ****END OF INPUT****

CARTESIAN COORDINATES (ANGSTROEM)
---------------------------------
  S    -44.605200   -3.323010  -20.663000
  C    -46.033700   -3.874410  -21.490300
  C    -45.765400   -5.012210  -22.221800
  C    -44.370200   -5.258940  -22.399600
  C    -43.607000   -4.264290  -21.744200
  H    -43.858000   -5.909140  -23.058600
  C    -46.894900   -5.712810  -23.020900
  H    -47.840500   -5.785850  -22.430600
  H    -46.642100   -6.770750  -23.135800
  C    -47.238800   -4.982790  -24.391100
  H    -48.161800   -5.371880  -24.858700
  H    -47.319300   -3.891170  -24.183200
  C    -46.131300   -5.036560  -25.408900
  H    -45.627700   -5.986850  -25.578900
  H    -46.319600   -4.601930  -26.357800
  H    -45.218000   -4.537710  -24.979100
  S    -41.260600   -3.794220  -22.948100
  C    -39.825400   -3.723940  -21.875800
  C    -40.087200   -4.288370  -20.646600
  C    -41.451000   -4.521140  -20.389100
  C    -42.182500   -4.281640  -21.539300
  H    -39.336000   -4.384120  -19.854000
  C    -41.816300   -4.965740  -18.976800
  H    -42.435800   -4.250940  -18.543100
  H    -40.960100   -5.044590  -18.259700
  C    -42.566500   -6.308020  -18.829900
  H    -42.020200   -7.169030  -19.087000
  H    -43.304800   -6.305370  -19.576000
  C    -43.156200   -6.550630  -17.437900
  H    -43.641400   -7.514740  -17.359300
  H    -43.827100   -5.757010  -17.135300
  H    -42.292800   -6.547470  -16.754200
  H    -46.992100   -3.426010  -21.363300
  H    -38.837900   -3.438070  -22.204200

 Total Charge           Charge          ....    0
 Multiplicity           Mult            ....    1
 Number of Electrons    NEL             ....  134
 Basis Dimension        Dim             ....  322

ORBITAL ENERGIES
----------------

  NO   OCC          E(Eh)            E(eV)
   0   2.0000     -88.969287     -2420.9774
   1   2.0000     -88.966947     -2420.9137
   2   2.0000     -10.327381      -281.0223
   3   2.0000     -10.324736      -280.9504
   4   2.0000     -10.316985      -280.7394
   5   2.0000     -10.311867      -280.6002
   6   2.0000     -10.305858      -280.4367
   7   2.0000     -10.302125      -280.3351
   8   2.0000     -10.300445      -280.2894
   9   2.0000     -10.298708      -280.2421
  10   2.0000     -10.293490      -280.1001
  11   2.0000     -10.291971      -280.0588
  12   2.0000     -10.291596      -280.0486
  13   2.0000     -10.274751      -279.5902
  14   2.0000     -10.271019      -279.4886
  15   2.0000     -10.270075      -279.4630
  16   2.0000      -8.083313      -219.9581
  17   2.0000      -8.081806      -219.9171
  18   2.0000      -6.041848      -164.4070
  19   2.0000      -6.040142      -164.3606
  20   2.0000      -6.038135      -164.3060
  21   2.0000      -6.036417      -164.2592
  22   2.0000      -6.033890      -164.1905
  23   2.0000      -6.032627      -164.1561
  24   2.0000      -1.008734       -27.4491
  25   2.0000      -0.983796       -26.7705
  26   2.0000      -0.908038       -24.7090
  27   2.0000      -0.903954       -24.5978
  28   2.0000      -0.869774       -23.6678
  29   2.0000      -0.853661       -23.2293
  30   2.0000      -0.845714       -23.0130
  31   2.0000      -0.811517       -22.0825
  32   2.0000      -0.784096       -21.3363
  33   2.0000      -0.768545       -20.9132
  34   2.0000      -0.708309       -19.2741
  35   2.0000      -0.698234       -18.9999
  36   2.0000      -0.693474       -18.8704
  37   2.0000      -0.666334       -18.1319
  38   2.0000      -0.647503       -17.6194
  39   2.0000      -0.611172       -16.6308
  40   2.0000      -0.599519       -16.3137
  41   2.0000      -0.568173       -15.4608
  42   2.0000      -0.563704       -15.3392
  43   2.0000      -0.545026       -14.8309
  44   2.0000      -0.535333       -14.5671
  45   2.0000      -0.522725       -14.2241
  46   2.0000      -0.516357       -14.0508
  47   2.0000      -0.512047       -13.9335
  48   2.0000      -0.507860       -13.8196
  49   2.0000      -0.497446       -13.5362
  50   2.0000      -0.487088       -13.2543
  51   2.0000      -0.481099       -13.0914
  52   2.0000      -0.475503       -12.9391
  53   2.0000      -0.464522       -12.6403
  54   2.0000      -0.456823       -12.4308
  55   2.0000      -0.446763       -12.1570
  56   2.0000      -0.438554       -11.9337
  57   2.0000      -0.436246       -11.8709
  58   2.0000      -0.430991       -11.7279
  59   2.0000      -0.428302       -11.6547
  60   2.0000      -0.425521       -11.5790
  61   2.0000      -0.410404       -11.1677
  62   2.0000      -0.408712       -11.1216
  63   2.0000      -0.342039        -9.3073
  64   2.0000      -0.335252        -9.1227
  65   2.0000      -0.328999        -8.9525
  66   2.0000      -0.291711        -7.9379
  67   0.0000       0.031864         0.8671
  68   0.0000       0.052768         1.4359
  69   0.0000       0.093411         2.5418
  70   0.0000       0.111150         3.0245
  71   0.0000       0.137618         3.7448

MULLIKEN ATOMIC CHARGES
-----------------------
   0 S :    0.115587
   1 C :   -0.109576
   2 C :   -0.063373
   3 C :    0.053405
   4 C :   -0.166979
   5 H :    0.006458
   6 C :    0.029484
   7 H :    0.033357
   8 H :    0.028981
   9 C :   -0.050940
  10 H :    0.039668
  11 H :    0.037305
  12 C :   -0.064631
  13 H :    0.013177
  14 H :    0.033157
  15 H :    0.027471
  16 S :    0.112603
  17 C :   -0.092064
  18 C :   -0.036260
  19 C :    0.000760
  20 C :   -0.206870
  21 H :    0.023304
  22 C :    0.092819
  23 H :    0.007512
  24 H :    0.020579
  25 C :   -0.048153
  26 H :    0.011616
  27 H :    0.011918
  28 C :   -0.045252
  29 H :    0.037592
  30 H :    0.032318
  31 H :    0.022194
  32 H :    0.042129
  33 H :    0.050704
Sum of atomic charges:    0.0000000

LOEWDIN ATOMIC CHARGES
----------------------
   0 S :    0.416347
   1 C :   -0.189234
   2 C :   -0.062522
   3 C :   -0.055076
   4 C :   -0.197363
   5 H :    0.026311
   6 C :   -0.034266
   7 H :    0.033502
   8 H :    0.028316
   9 C :   -0.039269
  10 H :    0.025479
  11 H :    0.031956
  12 C :   -0.079354
  13 H :    0.019679
  14 H :    0.021191
  15 H :    0.031534
  16 S :    0.394665
  17 C :   -0.173956
  18 C :   -0.063252
  19 C :   -0.057493
  20 C :   -0.200101
  21 H :    0.033725
  22 C :   -0.024176
  23 H :    0.020362
  24 H :    0.033689
  25 C :   -0.035935
  26 H :    0.017285
  27 H :    0.015188
  28 C :   -0.059796
  29 H :    0.027748
  30 H :    0.022848
  31 H :    0.024359
  32 H :    0.023024
  33 H :    0.024585

  Mayer bond orders larger than 0.100000
B(  0-S ,  1-C ) :   1.1476 B(  0-S ,  4-C ) :   1.1649 B(  1-C ,  2-C ) :   1.5882
B(  1-C ,  4-C ) :   0.1025 B(  1-C , 32-H ) :   0.9785 B(  2-C ,  3-C ) :   1.2356
B(  2-C ,  6-C ) :   1.0287 B(  3-C ,  4-C ) :   1.5530 B(  3-C ,  5-H ) :   1.0008
B(  4-C , 20-C ) :   1.0203 B(  6-C ,  7-H ) :   0.9464 B(  6-C ,  8-H ) :   0.9476
B(  6-C ,  9-C ) :   1.0520 B(  9-C , 10-H ) :   0.9592 B(  9-C , 11-H ) :   0.9567
B(  9-C , 12-C ) :   1.0751 B( 12-C , 13-H ) :   0.9733 B( 12-C , 14-H ) :   0.9740
B( 12-C , 15-H ) :   0.9668 B( 16-S , 17-C ) :   1.1301 B( 16-S , 20-C ) :   1.1495
B( 17-C , 18-C ) :   1.6258 B( 17-C , 20-C ) :   0.1043 B( 17-C , 33-H ) :   0.9691
B( 18-C , 19-C ) :   1.2444 B( 18-C , 21-H ) :   0.9810 B( 19-C , 20-C ) :   1.6044
B( 19-C , 22-C ) :   1.0313 B( 22-C , 23-H ) :   0.9255 B( 22-C , 24-H ) :   0.9380
B( 22-C , 25-C ) :   1.0557 B( 25-C , 26-H ) :   0.9536 B( 25-C , 27-H ) :   0.9539
B( 25-C , 28-C ) :   1.0873 B( 28-C , 29-H ) :   0.9730 B( 28-C , 30-H ) :   0.9760
B( 28-C , 31-H ) :   0.9745

Dispersion correction           -0.015272510
FINAL SINGLE POINT ENERGY     -1339.862377367226

DIPOLE MOMENT
-------------
                                X             Y             Z
Electronic contribution:     10.75616      12.81200      -2.67664
Nuclear contribution   :    -10.88782     -13.10369       2.81323
                        -----------------------------------------
Total Dipole Moment    :     -0.13165      -0.29169       0.13659
                        -----------------------------------------
Magnitude (a.u.)       :      0.34796
Magnitude (Debye)      :      0.88443

Rotational constants in cm-1:     0.018644     0.009441     0.007225
Rotational constants in MHz :   558.921752   283.031124   216.590397

                             ****ORCA TERMINATED NORMALLY****
TOTAL RUN TIME: 0 days 0 hours 0 minutes 21 seconds 30 msec
