                         Program Version 4.2.1 -  RELEASE  -
|  1> ! wB97X-D3 SP def2-SVP
|  2> %pal
|  3> nprocs 24
|  4> end
|  5>
|  6> * xyz 0 1
|  7> S 	 -129.158 	 61.503 	 -59.9739
|  8> C 	 -127.41 	 61.3955 	 -60.2456
|  9> C 	 -126.999 	 60.1923 	 -60.6938
| 10> C 	 -128.074 	 59.2241 	 -60.7599
| 11> C 	 -129.299 	 59.7724 	 -60.4339
| 12> H 	 -128.074 	 58.1628 	 -61.1674
| 13> C 	 -125.626 	 59.9477 	 -61.316
| 14> H 	 -125.534 	 58.8376 	 -61.4643
| 15> H 	 -124.741 	 60.2672 	 -60.6421
| 16> C 	 -125.275 	 60.6691 	 -62.6035
| 17> H 	 -124.973 	 61.6785 	 -62.3676
| 18> H 	 -124.454 	 60.1508 	 -63.0719
| 19> C 	 -126.345 	 60.6529 	 -63.7352
| 20> H 	 -126.072 	 59.7762 	 -64.3308
| 21> H 	 -127.34 	 60.4434 	 -63.3007
| 22> H 	 -126.386 	 61.582 	 -64.2635
| 23> S 	 -131.943 	 59.7129 	 -61.4598
| 24> C 	 -132.78 	 58.1924 	 -61.4636
| 25> C 	 -132.121 	 57.2554 	 -60.7479
| 26> C 	 -130.854 	 57.6976 	 -60.2656
| 27> C 	 -130.558 	 59.0167 	 -60.6202
| 28> H 	 -132.583 	 56.2815 	 -60.5574
| 29> C 	 -130.014 	 56.6616 	 -59.4073
| 30> H 	 -129.053 	 57.1356 	 -59.4626
| 31> H 	 -129.985 	 55.6648 	 -59.8315
| 32> C 	 -130.337 	 56.5855 	 -57.8849
| 33> H 	 -129.55 	 55.9825 	 -57.4039
| 34> H 	 -131.131 	 55.8757 	 -57.7295
| 35> C 	 -130.649 	 57.9843 	 -57.3584
| 36> H 	 -131.594 	 58.3362 	 -57.8252
| 37> H 	 -129.83 	 58.6779 	 -57.5506
| 38> H 	 -130.802 	 57.9668 	 -56.2677
| 39> H 	 -126.71 	 62.1184 	 -59.9989
| 40> H 	 -133.798 	 58.2121 	 -61.6144
| 41> *
| 42>
| 43>                          ****END OF INPUT****

CARTESIAN COORDINATES (ANGSTROEM)
---------------------------------
  S    -129.158000   61.503000  -59.973900
  C    -127.410000   61.395500  -60.245600
  C    -126.999000   60.192300  -60.693800
  C    -128.074000   59.224100  -60.759900
  C    -129.299000   59.772400  -60.433900
  H    -128.074000   58.162800  -61.167400
  C    -125.626000   59.947700  -61.316000
  H    -125.534000   58.837600  -61.464300
  H    -124.741000   60.267200  -60.642100
  C    -125.275000   60.669100  -62.603500
  H    -124.973000   61.678500  -62.367600
  H    -124.454000   60.150800  -63.071900
  C    -126.345000   60.652900  -63.735200
  H    -126.072000   59.776200  -64.330800
  H    -127.340000   60.443400  -63.300700
  H    -126.386000   61.582000  -64.263500
  S    -131.943000   59.712900  -61.459800
  C    -132.780000   58.192400  -61.463600
  C    -132.121000   57.255400  -60.747900
  C    -130.854000   57.697600  -60.265600
  C    -130.558000   59.016700  -60.620200
  H    -132.583000   56.281500  -60.557400
  C    -130.014000   56.661600  -59.407300
  H    -129.053000   57.135600  -59.462600
  H    -129.985000   55.664800  -59.831500
  C    -130.337000   56.585500  -57.884900
  H    -129.550000   55.982500  -57.403900
  H    -131.131000   55.875700  -57.729500
  C    -130.649000   57.984300  -57.358400
  H    -131.594000   58.336200  -57.825200
  H    -129.830000   58.677900  -57.550600
  H    -130.802000   57.966800  -56.267700
  H    -126.710000   62.118400  -59.998900
  H    -133.798000   58.212100  -61.614400

 Total Charge           Charge          ....    0
 Multiplicity           Mult            ....    1
 Number of Electrons    NEL             ....  134
 Basis Dimension        Dim             ....  322

ORBITAL ENERGIES
----------------

  NO   OCC          E(Eh)            E(eV)
   0   2.0000     -88.973001     -2421.0784
   1   2.0000     -88.963758     -2420.8269
   2   2.0000     -10.338253      -281.3182
   3   2.0000     -10.333503      -281.1889
   4   2.0000     -10.311100      -280.5793
   5   2.0000     -10.307034      -280.4686
   6   2.0000     -10.306249      -280.4473
   7   2.0000     -10.304355      -280.3958
   8   2.0000     -10.303472      -280.3717
   9   2.0000     -10.302326      -280.3405
  10   2.0000     -10.291545      -280.0472
  11   2.0000     -10.290718      -280.0247
  12   2.0000     -10.283958      -279.8407
  13   2.0000     -10.281960      -279.7864
  14   2.0000     -10.274336      -279.5789
  15   2.0000     -10.271230      -279.4944
  16   2.0000      -8.086453      -220.0436
  17   2.0000      -8.078920      -219.8386
  18   2.0000      -6.045130      -164.4964
  19   2.0000      -6.041320      -164.3927
  20   2.0000      -6.037420      -164.2866
  21   2.0000      -6.036928      -164.2732
  22   2.0000      -6.033402      -164.1772
  23   2.0000      -6.029629      -164.0746
  24   2.0000      -1.004892       -27.3445
  25   2.0000      -0.985409       -26.8144
  26   2.0000      -0.909506       -24.7489
  27   2.0000      -0.902459       -24.5571
  28   2.0000      -0.871057       -23.7027
  29   2.0000      -0.847424       -23.0596
  30   2.0000      -0.840309       -22.8660
  31   2.0000      -0.814742       -22.1702
  32   2.0000      -0.781270       -21.2594
  33   2.0000      -0.774712       -21.0810
  34   2.0000      -0.709275       -19.3004
  35   2.0000      -0.699921       -19.0458
  36   2.0000      -0.691880       -18.8270
  37   2.0000      -0.659051       -17.9337
  38   2.0000      -0.638347       -17.3703
  39   2.0000      -0.608212       -16.5503
  40   2.0000      -0.590326       -16.0636
  41   2.0000      -0.575522       -15.6607
  42   2.0000      -0.555564       -15.1177
  43   2.0000      -0.550701       -14.9853
  44   2.0000      -0.542339       -14.7578
  45   2.0000      -0.538594       -14.6559
  46   2.0000      -0.517403       -14.0793
  47   2.0000      -0.507409       -13.8073
  48   2.0000      -0.504094       -13.7171
  49   2.0000      -0.494688       -13.4611
  50   2.0000      -0.487454       -13.2643
  51   2.0000      -0.478060       -13.0087
  52   2.0000      -0.467066       -12.7095
  53   2.0000      -0.461527       -12.5588
  54   2.0000      -0.454359       -12.3637
  55   2.0000      -0.450720       -12.2647
  56   2.0000      -0.444383       -12.0923
  57   2.0000      -0.434221       -11.8158
  58   2.0000      -0.429504       -11.6874
  59   2.0000      -0.422330       -11.4922
  60   2.0000      -0.414531       -11.2800
  61   2.0000      -0.413657       -11.2562
  62   2.0000      -0.401226       -10.9179
  63   2.0000      -0.355518        -9.6741
  64   2.0000      -0.335251        -9.1226
  65   2.0000      -0.331264        -9.0142
  66   2.0000      -0.293157        -7.9772
  67   0.0000       0.024125         0.6565
  68   0.0000       0.069410         1.8887
  69   0.0000       0.106003         2.8845
  70   0.0000       0.120123         3.2687
  71   0.0000       0.130007         3.5377

MULLIKEN ATOMIC CHARGES
-----------------------
   0 S :    0.111548
   1 C :   -0.086996
   2 C :   -0.071243
   3 C :   -0.002993
   4 C :   -0.156436
   5 H :    0.057367
   6 C :    0.016504
   7 H :    0.028760
   8 H :    0.046077
   9 C :   -0.072014
  10 H :    0.023173
  11 H :    0.028614
  12 C :   -0.053879
  13 H :    0.030303
  14 H :    0.043787
  15 H :    0.039325
  16 S :    0.091116
  17 C :   -0.057390
  18 C :   -0.033828
  19 C :   -0.097545
  20 C :   -0.151404
  21 H :    0.027088
  22 C :    0.087752
  23 H :    0.004758
  24 H :    0.031512
  25 C :   -0.064541
  26 H :    0.026362
  27 H :    0.009903
  28 C :   -0.045633
  29 H :    0.054725
  30 H :    0.041225
  31 H :    0.031866
  32 H :    0.022012
  33 H :    0.040127
Sum of atomic charges:    0.0000000

LOEWDIN ATOMIC CHARGES
----------------------
   0 S :    0.376491
   1 C :   -0.171590
   2 C :   -0.068800
   3 C :   -0.065799
   4 C :   -0.177448
   5 H :    0.048566
   6 C :   -0.040584
   7 H :    0.030707
   8 H :    0.043683
   9 C :   -0.043732
  10 H :    0.017058
  11 H :    0.026274
  12 C :   -0.066512
  13 H :    0.026770
  14 H :    0.029333
  15 H :    0.025012
  16 S :    0.401192
  17 C :   -0.178712
  18 C :   -0.069725
  19 C :   -0.059220
  20 C :   -0.194632
  21 H :    0.036141
  22 C :   -0.027243
  23 H :    0.021777
  24 H :    0.028135
  25 C :   -0.044208
  26 H :    0.026482
  27 H :    0.015389
  28 C :   -0.063930
  29 H :    0.035101
  30 H :    0.027158
  31 H :    0.025716
  32 H :    0.017389
  33 H :    0.013757

  Mayer bond orders larger than 0.100000
B(  0-S ,  1-C ) :   1.1113 B(  0-S ,  4-C ) :   1.1242 B(  1-C ,  2-C ) :   1.6587
B(  1-C , 32-H ) :   0.9731 B(  2-C ,  3-C ) :   1.2077 B(  2-C ,  6-C ) :   1.0231
B(  3-C ,  4-C ) :   1.6153 B(  3-C ,  5-H ) :   0.9692 B(  4-C , 20-C ) :   1.0449
B(  6-C ,  7-H ) :   0.9459 B(  6-C ,  8-H ) :   0.9388 B(  6-C ,  9-C ) :   1.0754
B(  9-C , 10-H ) :   0.9592 B(  9-C , 11-H ) :   0.9630 B(  9-C , 12-C ) :   1.0591
B( 12-C , 13-H ) :   0.9828 B( 12-C , 14-H ) :   0.9806 B( 12-C , 15-H ) :   0.9775
B( 16-S , 17-C ) :   1.1541 B( 16-S , 20-C ) :   1.1441 B( 17-C , 18-C ) :   1.6113
B( 17-C , 33-H ) :   0.9690 B( 18-C , 19-C ) :   1.2502 B( 18-C , 21-H ) :   0.9912
B( 19-C , 20-C ) :   1.5866 B( 19-C , 22-C ) :   1.0196 B( 22-C , 23-H ) :   0.9276
B( 22-C , 24-H ) :   0.9458 B( 22-C , 25-C ) :   1.0715 B( 25-C , 26-H ) :   0.9562
B( 25-C , 27-H ) :   0.9542 B( 25-C , 28-C ) :   1.0743 B( 28-C , 29-H ) :   0.9633
B( 28-C , 30-H ) :   0.9781 B( 28-C , 31-H ) :   0.9729

Dispersion correction           -0.015618435
FINAL SINGLE POINT ENERGY     -1339.865498797257

DIPOLE MOMENT
-------------
                                X             Y             Z
Electronic contribution:    -14.88204      10.21334      -1.44555
Nuclear contribution   :     15.21977     -10.63621       1.51006
                        -----------------------------------------
Total Dipole Moment    :      0.33773      -0.42288       0.06451
                        -----------------------------------------
Magnitude (a.u.)       :      0.54502
Magnitude (Debye)      :      1.38533

Rotational constants in cm-1:     0.020721     0.008491     0.007725
Rotational constants in MHz :   621.207237   254.563530   231.581796

                             ****ORCA TERMINATED NORMALLY****
TOTAL RUN TIME: 0 days 0 hours 0 minutes 22 seconds 410 msec
