                         Program Version 4.2.1 -  RELEASE  -
|  1> ! wB97X-D3 SP def2-SVP
|  2> %pal
|  3> nprocs 24
|  4> end
|  5>
|  6> * xyz 0 1
|  7> S 	 17.1693 	 -13.8546 	 -123.731
|  8> C 	 16.4239 	 -12.2906 	 -124.162
|  9> C 	 15.1241 	 -12.2137 	 -123.592
| 10> C 	 14.7075 	 -13.4959 	 -123.114
| 11> C 	 15.6919 	 -14.4498 	 -122.927
| 12> H 	 13.6508 	 -13.6828 	 -122.805
| 13> C 	 14.2831 	 -10.9188 	 -123.589
| 14> H 	 14.8128 	 -10.1858 	 -124.165
| 15> H 	 14.1547 	 -10.5655 	 -122.545
| 16> C 	 12.8822 	 -11.0631 	 -124.219
| 17> H 	 13.2784 	 -11.5769 	 -125.129
| 18> H 	 12.3537 	 -11.7022 	 -123.585
| 19> C 	 12.1293 	 -9.78669 	 -124.66
| 20> H 	 11.129 	 -9.90399 	 -124.415
| 21> H 	 12.3734 	 -8.90735 	 -124.066
| 22> H 	 12.2263 	 -9.52253 	 -125.683
| 23> S 	 15.8004 	 -17.2385 	 -123.21
| 24> C 	 15.3436 	 -18.2427 	 -121.855
| 25> C 	 14.9003 	 -17.5081 	 -120.775
| 26> C 	 14.9119 	 -16.1246 	 -121.074
| 27> C 	 15.5491 	 -15.7688 	 -122.277
| 28> H 	 14.4512 	 -17.9723 	 -119.876
| 29> C 	 14.4234 	 -15.1542 	 -120.084
| 30> H 	 13.7306 	 -15.6275 	 -119.373
| 31> H 	 13.8579 	 -14.4242 	 -120.567
| 32> C 	 15.5672 	 -14.3679 	 -119.314
| 33> H 	 15.1186 	 -13.77 	 -118.456
| 34> H 	 16.0336 	 -13.6209 	 -119.978
| 35> C 	 16.5671 	 -15.2347 	 -118.645
| 36> H 	 16.1708 	 -15.3984 	 -117.642
| 37> H 	 17.599 	 -14.8941 	 -118.452
| 38> H 	 16.749 	 -16.2424 	 -119.169
| 39> H 	 16.9296 	 -11.4075 	 -124.562
| 40> H 	 15.4123 	 -19.3035 	 -121.777
| 41> *
| 42>
| 43>                          ****END OF INPUT****

CARTESIAN COORDINATES (ANGSTROEM)
---------------------------------
  S     17.169300  -13.854600  -123.731000
  C     16.423900  -12.290600  -124.162000
  C     15.124100  -12.213700  -123.592000
  C     14.707500  -13.495900  -123.114000
  C     15.691900  -14.449800  -122.927000
  H     13.650800  -13.682800  -122.805000
  C     14.283100  -10.918800  -123.589000
  H     14.812800  -10.185800  -124.165000
  H     14.154700  -10.565500  -122.545000
  C     12.882200  -11.063100  -124.219000
  H     13.278400  -11.576900  -125.129000
  H     12.353700  -11.702200  -123.585000
  C     12.129300   -9.786690  -124.660000
  H     11.129000   -9.903990  -124.415000
  H     12.373400   -8.907350  -124.066000
  H     12.226300   -9.522530  -125.683000
  S     15.800400  -17.238500  -123.210000
  C     15.343600  -18.242700  -121.855000
  C     14.900300  -17.508100  -120.775000
  C     14.911900  -16.124600  -121.074000
  C     15.549100  -15.768800  -122.277000
  H     14.451200  -17.972300  -119.876000
  C     14.423400  -15.154200  -120.084000
  H     13.730600  -15.627500  -119.373000
  H     13.857900  -14.424200  -120.567000
  C     15.567200  -14.367900  -119.314000
  H     15.118600  -13.770000  -118.456000
  H     16.033600  -13.620900  -119.978000
  C     16.567100  -15.234700  -118.645000
  H     16.170800  -15.398400  -117.642000
  H     17.599000  -14.894100  -118.452000
  H     16.749000  -16.242400  -119.169000
  H     16.929600  -11.407500  -124.562000
  H     15.412300  -19.303500  -121.777000

 Total Charge           Charge          ....    0
 Multiplicity           Mult            ....    1
 Number of Electrons    NEL             ....  134
 Basis Dimension        Dim             ....  322

ORBITAL ENERGIES
----------------

  NO   OCC          E(Eh)            E(eV)
   0   2.0000     -88.969264     -2420.9768
   1   2.0000     -88.968909     -2420.9671
   2   2.0000     -10.337845      -281.3071
   3   2.0000     -10.331037      -281.1218
   4   2.0000     -10.323867      -280.9267
   5   2.0000     -10.318514      -280.7810
   6   2.0000     -10.308851      -280.5181
   7   2.0000     -10.302785      -280.3530
   8   2.0000     -10.300288      -280.2851
   9   2.0000     -10.296152      -280.1725
  10   2.0000     -10.295544      -280.1560
  11   2.0000     -10.287836      -279.9462
  12   2.0000     -10.285692      -279.8879
  13   2.0000     -10.285046      -279.8703
  14   2.0000     -10.274029      -279.5706
  15   2.0000     -10.272000      -279.5153
  16   2.0000      -8.083663      -219.9677
  17   2.0000      -8.082204      -219.9279
  18   2.0000      -6.042203      -164.4167
  19   2.0000      -6.040831      -164.3794
  20   2.0000      -6.038173      -164.3070
  21   2.0000      -6.036869      -164.2715
  22   2.0000      -6.034447      -164.2056
  23   2.0000      -6.032939      -164.1646
  24   2.0000      -1.003647       -27.3106
  25   2.0000      -0.980569       -26.6826
  26   2.0000      -0.910515       -24.7764
  27   2.0000      -0.908273       -24.7154
  28   2.0000      -0.867956       -23.6183
  29   2.0000      -0.849647       -23.1201
  30   2.0000      -0.843395       -22.9499
  31   2.0000      -0.816286       -22.2123
  32   2.0000      -0.786861       -21.4116
  33   2.0000      -0.772243       -21.0138
  34   2.0000      -0.711642       -19.3648
  35   2.0000      -0.695124       -18.9153
  36   2.0000      -0.682914       -18.5830
  37   2.0000      -0.661329       -17.9957
  38   2.0000      -0.637609       -17.3502
  39   2.0000      -0.619108       -16.8468
  40   2.0000      -0.592362       -16.1190
  41   2.0000      -0.579976       -15.7820
  42   2.0000      -0.566083       -15.4039
  43   2.0000      -0.554559       -15.0903
  44   2.0000      -0.542724       -14.7683
  45   2.0000      -0.517408       -14.0794
  46   2.0000      -0.515556       -14.0290
  47   2.0000      -0.506911       -13.7937
  48   2.0000      -0.505400       -13.7526
  49   2.0000      -0.502943       -13.6858
  50   2.0000      -0.488965       -13.3054
  51   2.0000      -0.480133       -13.0651
  52   2.0000      -0.475740       -12.9455
  53   2.0000      -0.466242       -12.6871
  54   2.0000      -0.462190       -12.5768
  55   2.0000      -0.450689       -12.2639
  56   2.0000      -0.442179       -12.0323
  57   2.0000      -0.434749       -11.8301
  58   2.0000      -0.432620       -11.7722
  59   2.0000      -0.419252       -11.4084
  60   2.0000      -0.413601       -11.2547
  61   2.0000      -0.407345       -11.0844
  62   2.0000      -0.404650       -11.0111
  63   2.0000      -0.345137        -9.3916
  64   2.0000      -0.331284        -9.0147
  65   2.0000      -0.327741        -8.9183
  66   2.0000      -0.294894        -8.0245
  67   0.0000       0.022793         0.6202
  68   0.0000       0.062401         1.6980
  69   0.0000       0.109444         2.9781
  70   0.0000       0.114629         3.1192
  71   0.0000       0.132698         3.6109

MULLIKEN ATOMIC CHARGES
-----------------------
   0 S :    0.104638
   1 C :   -0.120254
   2 C :   -0.135184
   3 C :    0.015808
   4 C :   -0.154152
   5 H :    0.038847
   6 C :    0.085210
   7 H :    0.007151
   8 H :    0.040794
   9 C :   -0.125617
  10 H :    0.045059
  11 H :    0.026486
  12 C :    0.014899
  13 H :    0.014294
  14 H :    0.018625
  15 H :    0.036258
  16 S :    0.118100
  17 C :   -0.072755
  18 C :   -0.045266
  19 C :   -0.073505
  20 C :   -0.129341
  21 H :    0.036838
  22 C :    0.115586
  23 H :    0.016820
  24 H :   -0.003586
  25 C :   -0.085190
  26 H :    0.033243
  27 H :    0.045565
  28 C :   -0.083257
  29 H :    0.020033
  30 H :    0.035297
  31 H :    0.049102
  32 H :    0.062329
  33 H :    0.047123
Sum of atomic charges:   -0.0000000

LOEWDIN ATOMIC CHARGES
----------------------
   0 S :    0.382712
   1 C :   -0.193026
   2 C :   -0.061902
   3 C :   -0.067925
   4 C :   -0.187645
   5 H :    0.035763
   6 C :   -0.027569
   7 H :    0.022829
   8 H :    0.030120
   9 C :   -0.042378
  10 H :    0.036751
  11 H :    0.012200
  12 C :   -0.059531
  13 H :    0.022695
  14 H :    0.027351
  15 H :    0.026209
  16 S :    0.416020
  17 C :   -0.176780
  18 C :   -0.077106
  19 C :   -0.051167
  20 C :   -0.205647
  21 H :    0.041305
  22 C :   -0.028125
  23 H :    0.030623
  24 H :    0.020498
  25 C :   -0.042164
  26 H :    0.030533
  27 H :    0.025780
  28 C :   -0.085624
  29 H :    0.023080
  30 H :    0.028484
  31 H :    0.034081
  32 H :    0.033462
  33 H :    0.026092

  Mayer bond orders larger than 0.100000
B(  0-S ,  1-C ) :   1.1383 B(  0-S ,  4-C ) :   1.1364 B(  1-C ,  2-C ) :   1.6017
B(  1-C ,  4-C ) :   0.1048 B(  1-C , 32-H ) :   0.9614 B(  2-C ,  3-C ) :   1.2451
B(  2-C ,  6-C ) :   1.0344 B(  3-C ,  4-C ) :   1.5836 B(  3-C ,  5-H ) :   0.9746
B(  4-C , 20-C ) :   1.0424 B(  6-C ,  7-H ) :   0.9450 B(  6-C ,  8-H ) :   0.9309
B(  6-C ,  9-C ) :   1.0465 B(  9-C , 10-H ) :   0.9683 B(  9-C , 11-H ) :   0.9626
B(  9-C , 12-C ) :   1.0728 B( 12-C , 13-H ) :   0.9715 B( 12-C , 14-H ) :   0.9730
B( 12-C , 15-H ) :   0.9775 B( 16-S , 17-C ) :   1.1757 B( 16-S , 20-C ) :   1.1381
B( 17-C , 18-C ) :   1.5845 B( 17-C , 20-C ) :   0.1030 B( 17-C , 33-H ) :   0.9658
B( 18-C , 19-C ) :   1.2660 B( 18-C , 21-H ) :   0.9847 B( 19-C , 20-C ) :   1.5522
B( 19-C , 22-C ) :   1.0712 B( 22-C , 23-H ) :   0.9357 B( 22-C , 24-H ) :   0.9159
B( 22-C , 25-C ) :   1.0641 B( 25-C , 26-H ) :   0.9637 B( 25-C , 27-H ) :   0.9590
B( 25-C , 28-C ) :   1.0603 B( 28-C , 29-H ) :   0.9797 B( 28-C , 30-H ) :   0.9740
B( 28-C , 31-H ) :   0.9719

Dispersion correction           -0.014676985
FINAL SINGLE POINT ENERGY     -1339.856208383146

DIPOLE MOMENT
-------------
                                X             Y             Z
Electronic contribution:     13.36650     -18.45343     -11.15478
Nuclear contribution   :    -13.95411      18.82394      11.53631
                        -----------------------------------------
Total Dipole Moment    :     -0.58760       0.37051       0.38152
                        -----------------------------------------
Magnitude (a.u.)       :      0.79254
Magnitude (Debye)      :      2.01447

Rotational constants in cm-1:     0.020044     0.007738     0.007063
Rotational constants in MHz :   600.914580   231.973265   211.756023

                             ****ORCA TERMINATED NORMALLY****
TOTAL RUN TIME: 0 days 0 hours 0 minutes 21 seconds 792 msec
