                         Program Version 4.2.1 -  RELEASE  -
|  1> ! wB97X-D3 SP def2-SVP
|  2> %pal
|  3> nprocs 24
|  4> end
|  5>
|  6> * xyz 0 1
|  7> S 	 -129.662 	 26.8001 	 -22.6457
|  8> C 	 -131.219 	 26.3869 	 -23.4452
|  9> C 	 -132.121 	 27.4342 	 -23.4301
| 10> C 	 -131.516 	 28.5746 	 -22.8466
| 11> C 	 -130.205 	 28.4268 	 -22.4629
| 12> H 	 -132.009 	 29.5334 	 -22.6681
| 13> C 	 -133.531 	 27.5089 	 -24.0086
| 14> H 	 -133.569 	 26.7185 	 -24.819
| 15> H 	 -133.56 	 28.372 	 -24.671
| 16> C 	 -134.705 	 27.5569 	 -23.0484
| 17> H 	 -134.685 	 26.6544 	 -22.465
| 18> H 	 -134.618 	 28.3028 	 -22.2916
| 19> C 	 -136.1 	 27.5485 	 -23.6679
| 20> H 	 -136.465 	 28.3927 	 -24.2955
| 21> H 	 -136.319 	 26.6258 	 -24.0158
| 22> H 	 -136.711 	 27.623 	 -22.7315
| 23> S 	 -128.382 	 28.9721 	 -20.53
| 24> C 	 -127.843 	 30.5758 	 -20.2285
| 25> C 	 -128.51 	 31.4658 	 -21.0322
| 26> C 	 -129.39 	 30.865 	 -22.0357
| 27> C 	 -129.35 	 29.4762 	 -21.885
| 28> H 	 -128.297 	 32.5049 	 -20.9111
| 29> C 	 -130.273 	 31.7189 	 -22.9629
| 30> H 	 -130.139 	 32.8186 	 -22.7547
| 31> H 	 -131.345 	 31.4054 	 -22.7449
| 32> C 	 -130.01 	 31.4896 	 -24.4363
| 33> H 	 -130.852 	 31.8939 	 -24.9605
| 34> H 	 -130.129 	 30.462 	 -24.7837
| 35> C 	 -128.669 	 31.9497 	 -24.9406
| 36> H 	 -128.457 	 32.9807 	 -24.6529
| 37> H 	 -128.568 	 31.7603 	 -26.0903
| 38> H 	 -127.882 	 31.4474 	 -24.4565
| 39> H 	 -131.623 	 25.466 	 -23.7744
| 40> H 	 -127.169 	 30.7067 	 -19.3828
| 41> *
| 42>
| 43>                          ****END OF INPUT****

CARTESIAN COORDINATES (ANGSTROEM)
---------------------------------
  S    -129.662000   26.800100  -22.645700
  C    -131.219000   26.386900  -23.445200
  C    -132.121000   27.434200  -23.430100
  C    -131.516000   28.574600  -22.846600
  C    -130.205000   28.426800  -22.462900
  H    -132.009000   29.533400  -22.668100
  C    -133.531000   27.508900  -24.008600
  H    -133.569000   26.718500  -24.819000
  H    -133.560000   28.372000  -24.671000
  C    -134.705000   27.556900  -23.048400
  H    -134.685000   26.654400  -22.465000
  H    -134.618000   28.302800  -22.291600
  C    -136.100000   27.548500  -23.667900
  H    -136.465000   28.392700  -24.295500
  H    -136.319000   26.625800  -24.015800
  H    -136.711000   27.623000  -22.731500
  S    -128.382000   28.972100  -20.530000
  C    -127.843000   30.575800  -20.228500
  C    -128.510000   31.465800  -21.032200
  C    -129.390000   30.865000  -22.035700
  C    -129.350000   29.476200  -21.885000
  H    -128.297000   32.504900  -20.911100
  C    -130.273000   31.718900  -22.962900
  H    -130.139000   32.818600  -22.754700
  H    -131.345000   31.405400  -22.744900
  C    -130.010000   31.489600  -24.436300
  H    -130.852000   31.893900  -24.960500
  H    -130.129000   30.462000  -24.783700
  C    -128.669000   31.949700  -24.940600
  H    -128.457000   32.980700  -24.652900
  H    -128.568000   31.760300  -26.090300
  H    -127.882000   31.447400  -24.456500
  H    -131.623000   25.466000  -23.774400
  H    -127.169000   30.706700  -19.382800

 Total Charge           Charge          ....    0
 Multiplicity           Mult            ....    1
 Number of Electrons    NEL             ....  134
 Basis Dimension        Dim             ....  322

ORBITAL ENERGIES
----------------

  NO   OCC          E(Eh)            E(eV)
   0   2.0000     -88.969957     -2420.9956
   1   2.0000     -88.962568     -2420.7945
   2   2.0000     -10.327753      -281.0324
   3   2.0000     -10.326095      -280.9873
   4   2.0000     -10.315875      -280.7092
   5   2.0000     -10.312631      -280.6210
   6   2.0000     -10.310448      -280.5616
   7   2.0000     -10.306276      -280.4480
   8   2.0000     -10.299827      -280.2726
   9   2.0000     -10.297454      -280.2080
  10   2.0000     -10.295645      -280.1587
  11   2.0000     -10.287577      -279.9392
  12   2.0000     -10.286258      -279.9033
  13   2.0000     -10.277926      -279.6766
  14   2.0000     -10.277534      -279.6659
  15   2.0000     -10.275262      -279.6041
  16   2.0000      -8.084018      -219.9773
  17   2.0000      -8.078588      -219.8296
  18   2.0000      -6.042637      -164.4285
  19   2.0000      -6.038777      -164.3235
  20   2.0000      -6.036951      -164.2738
  21   2.0000      -6.034546      -164.2083
  22   2.0000      -6.032901      -164.1636
  23   2.0000      -6.029450      -164.0697
  24   2.0000      -1.008520       -27.4432
  25   2.0000      -0.984178       -26.7808
  26   2.0000      -0.914792       -24.8928
  27   2.0000      -0.912529       -24.8312
  28   2.0000      -0.872135       -23.7320
  29   2.0000      -0.852315       -23.1927
  30   2.0000      -0.844283       -22.9741
  31   2.0000      -0.812056       -22.0972
  32   2.0000      -0.787151       -21.4195
  33   2.0000      -0.778170       -21.1751
  34   2.0000      -0.710036       -19.3211
  35   2.0000      -0.705707       -19.2033
  36   2.0000      -0.689052       -18.7501
  37   2.0000      -0.666395       -18.1335
  38   2.0000      -0.634501       -17.2657
  39   2.0000      -0.618858       -16.8400
  40   2.0000      -0.594294       -16.1716
  41   2.0000      -0.570211       -15.5162
  42   2.0000      -0.562166       -15.2973
  43   2.0000      -0.552691       -15.0395
  44   2.0000      -0.545635       -14.8475
  45   2.0000      -0.530286       -14.4298
  46   2.0000      -0.516683       -14.0597
  47   2.0000      -0.507860       -13.8196
  48   2.0000      -0.502567       -13.6755
  49   2.0000      -0.496483       -13.5100
  50   2.0000      -0.491397       -13.3716
  51   2.0000      -0.483075       -13.1451
  52   2.0000      -0.469787       -12.7835
  53   2.0000      -0.466075       -12.6826
  54   2.0000      -0.463469       -12.6116
  55   2.0000      -0.450078       -12.2472
  56   2.0000      -0.440111       -11.9760
  57   2.0000      -0.436030       -11.8650
  58   2.0000      -0.433805       -11.8044
  59   2.0000      -0.428901       -11.6710
  60   2.0000      -0.423169       -11.5150
  61   2.0000      -0.414973       -11.2920
  62   2.0000      -0.405614       -11.0373
  63   2.0000      -0.351816        -9.5734
  64   2.0000      -0.333738        -9.0815
  65   2.0000      -0.329098        -8.9552
  66   2.0000      -0.288037        -7.8379
  67   0.0000       0.026684         0.7261
  68   0.0000       0.079534         2.1642
  69   0.0000       0.099448         2.7061
  70   0.0000       0.113715         3.0943
  71   0.0000       0.140046         3.8108

MULLIKEN ATOMIC CHARGES
-----------------------
   0 S :    0.113155
   1 C :   -0.088776
   2 C :   -0.090942
   3 C :   -0.000500
   4 C :   -0.121771
   5 H :   -0.003777
   6 C :    0.059806
   7 H :    0.018203
   8 H :    0.021055
   9 C :   -0.049307
  10 H :    0.016675
  11 H :    0.022183
  12 C :   -0.023237
  13 H :    0.047362
  14 H :    0.012595
  15 H :    0.025804
  16 S :    0.091662
  17 C :   -0.096129
  18 C :   -0.031266
  19 C :   -0.047878
  20 C :   -0.132223
  21 H :    0.011067
  22 C :    0.031880
  23 H :    0.036968
  24 H :    0.048583
  25 C :   -0.049010
  26 H :    0.010782
  27 H :    0.030700
  28 C :   -0.043215
  29 H :    0.015281
  30 H :    0.051967
  31 H :    0.027391
  32 H :    0.018805
  33 H :    0.066107
Sum of atomic charges:   -0.0000000

LOEWDIN ATOMIC CHARGES
----------------------
   0 S :    0.397812
   1 C :   -0.184519
   2 C :   -0.059044
   3 C :   -0.070297
   4 C :   -0.198872
   5 H :    0.027363
   6 C :   -0.039128
   7 H :    0.034814
   8 H :    0.030126
   9 C :   -0.038648
  10 H :    0.027803
  11 H :    0.021190
  12 C :   -0.058860
  13 H :    0.030023
  14 H :    0.009598
  15 H :    0.038147
  16 S :    0.416562
  17 C :   -0.193462
  18 C :   -0.070790
  19 C :   -0.055828
  20 C :   -0.198170
  21 H :    0.026110
  22 C :   -0.030777
  23 H :    0.037749
  24 H :    0.038044
  25 C :   -0.052983
  26 H :    0.020774
  27 H :    0.028756
  28 C :   -0.066438
  29 H :    0.019877
  30 H :    0.041642
  31 H :    0.020096
  32 H :    0.020668
  33 H :    0.030665

  Mayer bond orders larger than 0.100000
B(  0-S ,  1-C ) :   1.1145 B(  0-S ,  4-C ) :   1.1434 B(  1-C ,  2-C ) :   1.6472
B(  1-C , 32-H ) :   0.9614 B(  2-C ,  3-C ) :   1.2380 B(  2-C ,  6-C ) :   1.0159
B(  3-C ,  4-C ) :   1.5868 B(  3-C ,  5-H ) :   0.9870 B(  4-C , 20-C ) :   1.0283
B(  6-C ,  7-H ) :   0.9407 B(  6-C ,  8-H ) :   0.9384 B(  6-C ,  9-C ) :   1.0548
B(  9-C , 10-H ) :   0.9486 B(  9-C , 11-H ) :   0.9597 B(  9-C , 12-C ) :   1.0862
B( 12-C , 13-H ) :   0.9756 B( 12-C , 14-H ) :   0.9755 B( 12-C , 15-H ) :   0.9706
B( 16-S , 17-C ) :   1.1600 B( 16-S , 20-C ) :   1.1631 B( 17-C , 18-C ) :   1.5924
B( 17-C , 33-H ) :   0.9723 B( 18-C , 19-C ) :   1.2305 B( 18-C , 21-H ) :   0.9975
B( 19-C , 20-C ) :   1.5905 B( 19-C , 22-C ) :   1.0278 B( 22-C , 23-H ) :   0.9388
B( 22-C , 24-H ) :   0.9328 B( 22-C , 25-C ) :   1.0804 B( 25-C , 26-H ) :   0.9492
B( 25-C , 27-H ) :   0.9477 B( 25-C , 28-C ) :   1.0725 B( 28-C , 29-H ) :   0.9726
B( 28-C , 30-H ) :   0.9716 B( 28-C , 31-H ) :   0.9726

Dispersion correction           -0.014423581
FINAL SINGLE POINT ENERGY     -1339.867141511924

DIPOLE MOMENT
-------------
                                X             Y             Z
Electronic contribution:     21.00971     -10.61804      14.74033
Nuclear contribution   :    -21.62011      11.00307     -14.80549
                        -----------------------------------------
Total Dipole Moment    :     -0.61040       0.38503      -0.06517
                        -----------------------------------------
Magnitude (a.u.)       :      0.72462
Magnitude (Debye)      :      1.84185

Rotational constants in cm-1:     0.019039     0.008321     0.006970
Rotational constants in MHz :   570.788893   249.468825   208.947330

                             ****ORCA TERMINATED NORMALLY****
TOTAL RUN TIME: 0 days 0 hours 0 minutes 21 seconds 924 msec
