                         Program Version 4.2.1 -  RELEASE  -
|  1> ! wB97X-D3 SP def2-SVP
|  2> %pal
|  3> nprocs 24
|  4> end
|  5>
|  6> * xyz 0 1
|  7> S 	 44.4842 	 -15.1358 	 -118.333
|  8> C 	 45.6097 	 -15.5418 	 -116.944
|  9> C 	 46.8728 	 -15.7157 	 -117.421
| 10> C 	 46.9155 	 -15.8369 	 -118.861
| 11> C 	 45.6627 	 -15.62 	 -119.514
| 12> H 	 47.7805 	 -16.0095 	 -119.49
| 13> C 	 48.0983 	 -15.905 	 -116.553
| 14> H 	 48.9009 	 -16.35 	 -117.142
| 15> H 	 47.7798 	 -16.5852 	 -115.766
| 16> C 	 48.6498 	 -14.661 	 -115.877
| 17> H 	 47.7929 	 -14.1958 	 -115.36
| 18> H 	 49.4325 	 -14.8448 	 -115.184
| 19> C 	 49.2158 	 -13.5832 	 -116.93
| 20> H 	 48.5619 	 -13.394 	 -117.807
| 21> H 	 49.3968 	 -12.6322 	 -116.448
| 22> H 	 50.25 	 -13.7289 	 -117.357
| 23> S 	 44.243 	 -17.0293 	 -121.476
| 24> C 	 44.4 	 -16.4849 	 -123.141
| 25> C 	 45.2248 	 -15.3742 	 -123.261
| 26> C 	 45.8224 	 -15.0043 	 -121.995
| 27> C 	 45.4073 	 -15.785 	 -120.932
| 28> H 	 45.5696 	 -14.8886 	 -124.166
| 29> C 	 46.8657 	 -13.9146 	 -121.922
| 30> H 	 47.6853 	 -14.1769 	 -122.577
| 31> H 	 47.2038 	 -13.9779 	 -120.849
| 32> C 	 46.4722 	 -12.5317 	 -122.341
| 33> H 	 45.5747 	 -12.2814 	 -121.77
| 34> H 	 46.2023 	 -12.4767 	 -123.427
| 35> C 	 47.5969 	 -11.4838 	 -122.173
| 36> H 	 48.2614 	 -11.6209 	 -121.355
| 37> H 	 47.1891 	 -10.4314 	 -122.245
| 38> H 	 48.2904 	 -11.5035 	 -123.045
| 39> H 	 45.4128 	 -15.1987 	 -115.913
| 40> H 	 43.812 	 -16.8563 	 -123.939
| 41> *
| 42>
| 43>                          ****END OF INPUT****

CARTESIAN COORDINATES (ANGSTROEM)
---------------------------------
  S     44.484200  -15.135800  -118.333000
  C     45.609700  -15.541800  -116.944000
  C     46.872800  -15.715700  -117.421000
  C     46.915500  -15.836900  -118.861000
  C     45.662700  -15.620000  -119.514000
  H     47.780500  -16.009500  -119.490000
  C     48.098300  -15.905000  -116.553000
  H     48.900900  -16.350000  -117.142000
  H     47.779800  -16.585200  -115.766000
  C     48.649800  -14.661000  -115.877000
  H     47.792900  -14.195800  -115.360000
  H     49.432500  -14.844800  -115.184000
  C     49.215800  -13.583200  -116.930000
  H     48.561900  -13.394000  -117.807000
  H     49.396800  -12.632200  -116.448000
  H     50.250000  -13.728900  -117.357000
  S     44.243000  -17.029300  -121.476000
  C     44.400000  -16.484900  -123.141000
  C     45.224800  -15.374200  -123.261000
  C     45.822400  -15.004300  -121.995000
  C     45.407300  -15.785000  -120.932000
  H     45.569600  -14.888600  -124.166000
  C     46.865700  -13.914600  -121.922000
  H     47.685300  -14.176900  -122.577000
  H     47.203800  -13.977900  -120.849000
  C     46.472200  -12.531700  -122.341000
  H     45.574700  -12.281400  -121.770000
  H     46.202300  -12.476700  -123.427000
  C     47.596900  -11.483800  -122.173000
  H     48.261400  -11.620900  -121.355000
  H     47.189100  -10.431400  -122.245000
  H     48.290400  -11.503500  -123.045000
  H     45.412800  -15.198700  -115.913000
  H     43.812000  -16.856300  -123.939000

 Total Charge           Charge          ....    0
 Multiplicity           Mult            ....    1
 Number of Electrons    NEL             ....  134
 Basis Dimension        Dim             ....  322

ORBITAL ENERGIES
----------------

  NO   OCC          E(Eh)            E(eV)
   0   2.0000     -88.967291     -2420.9231
   1   2.0000     -88.967047     -2420.9164
   2   2.0000     -10.335038      -281.2307
   3   2.0000     -10.328535      -281.0537
   4   2.0000     -10.321383      -280.8591
   5   2.0000     -10.319567      -280.8097
   6   2.0000     -10.305840      -280.4362
   7   2.0000     -10.303928      -280.3841
   8   2.0000     -10.299980      -280.2767
   9   2.0000     -10.296911      -280.1932
  10   2.0000     -10.294672      -280.1323
  11   2.0000     -10.293042      -280.0879
  12   2.0000     -10.289799      -279.9997
  13   2.0000     -10.288976      -279.9773
  14   2.0000     -10.284524      -279.8561
  15   2.0000     -10.282831      -279.8101
  16   2.0000      -8.081338      -219.9044
  17   2.0000      -8.080712      -219.8874
  18   2.0000      -6.040004      -164.3569
  19   2.0000      -6.039404      -164.3405
  20   2.0000      -6.035932      -164.2461
  21   2.0000      -6.035400      -164.2316
  22   2.0000      -6.031973      -164.1383
  23   2.0000      -6.031277      -164.1194
  24   2.0000      -1.000372       -27.2215
  25   2.0000      -0.978007       -26.6129
  26   2.0000      -0.912161       -24.8212
  27   2.0000      -0.911423       -24.8011
  28   2.0000      -0.866416       -23.5764
  29   2.0000      -0.848901       -23.0998
  30   2.0000      -0.836913       -22.7736
  31   2.0000      -0.809308       -22.0224
  32   2.0000      -0.784159       -21.3381
  33   2.0000      -0.774107       -21.0645
  34   2.0000      -0.707370       -19.2485
  35   2.0000      -0.705292       -19.1920
  36   2.0000      -0.696762       -18.9599
  37   2.0000      -0.662705       -18.0331
  38   2.0000      -0.635628       -17.2963
  39   2.0000      -0.607523       -16.5316
  40   2.0000      -0.595620       -16.2076
  41   2.0000      -0.576616       -15.6905
  42   2.0000      -0.568072       -15.4580
  43   2.0000      -0.551360       -15.0033
  44   2.0000      -0.542474       -14.7615
  45   2.0000      -0.527406       -14.3515
  46   2.0000      -0.514560       -14.0019
  47   2.0000      -0.504936       -13.7400
  48   2.0000      -0.502397       -13.6709
  49   2.0000      -0.497322       -13.5328
  50   2.0000      -0.482002       -13.1159
  51   2.0000      -0.477771       -13.0008
  52   2.0000      -0.468450       -12.7472
  53   2.0000      -0.465504       -12.6670
  54   2.0000      -0.458215       -12.4687
  55   2.0000      -0.452171       -12.3042
  56   2.0000      -0.449172       -12.2226
  57   2.0000      -0.435733       -11.8569
  58   2.0000      -0.427870       -11.6429
  59   2.0000      -0.424364       -11.5475
  60   2.0000      -0.421128       -11.4595
  61   2.0000      -0.418400       -11.3852
  62   2.0000      -0.410256       -11.1636
  63   2.0000      -0.336644        -9.1606
  64   2.0000      -0.334717        -9.1081
  65   2.0000      -0.326148        -8.8749
  66   2.0000      -0.301782        -8.2119
  67   0.0000       0.027945         0.7604
  68   0.0000       0.056398         1.5347
  69   0.0000       0.103819         2.8251
  70   0.0000       0.114312         3.1106
  71   0.0000       0.125742         3.4216

MULLIKEN ATOMIC CHARGES
-----------------------
   0 S :    0.104794
   1 C :   -0.135810
   2 C :   -0.090290
   3 C :    0.038379
   4 C :   -0.181488
   5 H :    0.016540
   6 C :    0.077295
   7 H :    0.023813
   8 H :    0.038442
   9 C :   -0.042537
  10 H :    0.027164
  11 H :    0.035079
  12 C :   -0.109080
  13 H :    0.048845
  14 H :    0.027298
  15 H :    0.031362
  16 S :    0.110361
  17 C :   -0.072537
  18 C :   -0.014135
  19 C :   -0.036444
  20 C :   -0.180667
  21 H :    0.020635
  22 C :    0.063432
  23 H :    0.024665
  24 H :    0.030702
  25 C :   -0.087915
  26 H :    0.035948
  27 H :    0.033007
  28 C :   -0.049655
  29 H :    0.026553
  30 H :    0.045273
  31 H :    0.022525
  32 H :    0.066331
  33 H :    0.052114
Sum of atomic charges:   -0.0000000

LOEWDIN ATOMIC CHARGES
----------------------
   0 S :    0.383919
   1 C :   -0.183594
   2 C :   -0.059642
   3 C :   -0.062733
   4 C :   -0.197802
   5 H :    0.028982
   6 C :   -0.031263
   7 H :    0.030049
   8 H :    0.037101
   9 C :   -0.029520
  10 H :    0.025157
  11 H :    0.022416
  12 C :   -0.083541
  13 H :    0.027843
  14 H :    0.023169
  15 H :    0.028378
  16 S :    0.391902
  17 C :   -0.168025
  18 C :   -0.069154
  19 C :   -0.047442
  20 C :   -0.200741
  21 H :    0.031324
  22 C :   -0.040173
  23 H :    0.029971
  24 H :    0.036555
  25 C :   -0.044922
  26 H :    0.025147
  27 H :    0.028241
  28 C :   -0.070262
  29 H :    0.018159
  30 H :    0.036309
  31 H :    0.026785
  32 H :    0.033884
  33 H :    0.023523

  Mayer bond orders larger than 0.100000
B(  0-S ,  1-C ) :   1.1113 B(  0-S ,  4-C ) :   1.1663 B(  1-C ,  2-C ) :   1.6325
B(  1-C , 32-H ) :   0.9578 B(  2-C ,  3-C ) :   1.2294 B(  2-C ,  6-C ) :   1.0140
B(  3-C ,  4-C ) :   1.5511 B(  3-C ,  5-H ) :   0.9905 B(  4-C , 20-C ) :   1.0500
B(  6-C ,  7-H ) :   0.9447 B(  6-C ,  8-H ) :   0.9395 B(  6-C ,  9-C ) :   1.0763
B(  9-C , 10-H ) :   0.9581 B(  9-C , 11-H ) :   0.9580 B(  9-C , 12-C ) :   1.0584
B( 12-C , 13-H ) :   0.9796 B( 12-C , 14-H ) :   0.9758 B( 12-C , 15-H ) :   0.9764
B( 16-S , 17-C ) :   1.1575 B( 16-S , 20-C ) :   1.1149 B( 17-C , 18-C ) :   1.6070
B( 17-C , 33-H ) :   0.9699 B( 18-C , 19-C ) :   1.2350 B( 18-C , 21-H ) :   0.9858
B( 19-C , 20-C ) :   1.6210 B( 19-C , 22-C ) :   1.0455 B( 22-C , 23-H ) :   0.9302
B( 22-C , 24-H ) :   0.9230 B( 22-C , 25-C ) :   1.0731 B( 25-C , 26-H ) :   0.9579
B( 25-C , 27-H ) :   0.9505 B( 25-C , 28-C ) :   1.0764 B( 28-C , 29-H ) :   0.9772
B( 28-C , 30-H ) :   0.9749 B( 28-C , 31-H ) :   0.9730

Dispersion correction           -0.014362374
FINAL SINGLE POINT ENERGY     -1339.875457002677

DIPOLE MOMENT
-------------
                                X             Y             Z
Electronic contribution:    -22.97335     -18.67796      -3.30017
Nuclear contribution   :     23.61761      19.06817       3.22146
                        -----------------------------------------
Total Dipole Moment    :      0.64426       0.39021      -0.07871
                        -----------------------------------------
Magnitude (a.u.)       :      0.75732
Magnitude (Debye)      :      1.92495

Rotational constants in cm-1:     0.017329     0.009195     0.006777
Rotational constants in MHz :   519.521014   275.653341   203.162334

                             ****ORCA TERMINATED NORMALLY****
TOTAL RUN TIME: 0 days 0 hours 0 minutes 21 seconds 641 msec
