                         Program Version 4.2.1 -  RELEASE  -
|  1> ! wB97X-D3 SP def2-SVP
|  2> %pal
|  3> nprocs 24
|  4> end
|  5>
|  6> * xyz 0 1
|  7> S 	 -78.4271 	 5.0411 	 -112.439
|  8> C 	 -79.3073 	 3.80332 	 -113.234
|  9> C 	 -80.1718 	 4.32596 	 -114.209
| 10> C 	 -79.9586 	 5.74329 	 -114.465
| 11> C 	 -79.1068 	 6.29801 	 -113.495
| 12> H 	 -80.3824 	 6.37752 	 -115.185
| 13> C 	 -81.0816 	 3.47394 	 -115.123
| 14> H 	 -80.577 	 2.90449 	 -115.876
| 15> H 	 -81.6765 	 4.08625 	 -115.868
| 16> C 	 -82.1136 	 2.57983 	 -114.45
| 17> H 	 -82.5002 	 1.96117 	 -115.205
| 18> H 	 -81.706 	 1.85081 	 -113.743
| 19> C 	 -83.232 	 3.30053 	 -113.797
| 20> H 	 -83.6207 	 4.04805 	 -114.381
| 21> H 	 -84.0799 	 2.63829 	 -113.544
| 22> H 	 -83.0097 	 3.75628 	 -112.87
| 23> S 	 -77.0981 	 8.0032 	 -114.14
| 24> C 	 -77.2475 	 9.6752 	 -113.702
| 25> C 	 -78.4301 	 9.96542 	 -113.091
| 26> C 	 -79.2909 	 8.85241 	 -113.026
| 27> C 	 -78.6081 	 7.67775 	 -113.361
| 28> H 	 -78.7085 	 10.9358 	 -112.816
| 29> C 	 -80.7135 	 8.97835 	 -112.495
| 30> H 	 -81.311 	 8.19792 	 -112.925
| 31> H 	 -81.2453 	 9.84308 	 -112.887
| 32> C 	 -80.7382 	 8.97327 	 -110.968
| 33> H 	 -80.0841 	 8.20723 	 -110.538
| 34> H 	 -81.7572 	 8.6703 	 -110.681
| 35> C 	 -80.4348 	 10.3945 	 -110.441
| 36> H 	 -79.465 	 10.8069 	 -110.84
| 37> H 	 -80.3269 	 10.3322 	 -109.408
| 38> H 	 -81.1455 	 11.1708 	 -110.8
| 39> H 	 -79.2728 	 2.77657 	 -112.828
| 40> H 	 -76.4679 	 10.3918 	 -113.947
| 41> *
| 42>
| 43>                          ****END OF INPUT****

CARTESIAN COORDINATES (ANGSTROEM)
---------------------------------
  S    -78.427100    5.041100  -112.439000
  C    -79.307300    3.803320  -113.234000
  C    -80.171800    4.325960  -114.209000
  C    -79.958600    5.743290  -114.465000
  C    -79.106800    6.298010  -113.495000
  H    -80.382400    6.377520  -115.185000
  C    -81.081600    3.473940  -115.123000
  H    -80.577000    2.904490  -115.876000
  H    -81.676500    4.086250  -115.868000
  C    -82.113600    2.579830  -114.450000
  H    -82.500200    1.961170  -115.205000
  H    -81.706000    1.850810  -113.743000
  C    -83.232000    3.300530  -113.797000
  H    -83.620700    4.048050  -114.381000
  H    -84.079900    2.638290  -113.544000
  H    -83.009700    3.756280  -112.870000
  S    -77.098100    8.003200  -114.140000
  C    -77.247500    9.675200  -113.702000
  C    -78.430100    9.965420  -113.091000
  C    -79.290900    8.852410  -113.026000
  C    -78.608100    7.677750  -113.361000
  H    -78.708500   10.935800  -112.816000
  C    -80.713500    8.978350  -112.495000
  H    -81.311000    8.197920  -112.925000
  H    -81.245300    9.843080  -112.887000
  C    -80.738200    8.973270  -110.968000
  H    -80.084100    8.207230  -110.538000
  H    -81.757200    8.670300  -110.681000
  C    -80.434800   10.394500  -110.441000
  H    -79.465000   10.806900  -110.840000
  H    -80.326900   10.332200  -109.408000
  H    -81.145500   11.170800  -110.800000
  H    -79.272800    2.776570  -112.828000
  H    -76.467900   10.391800  -113.947000

 Total Charge           Charge          ....    0
 Multiplicity           Mult            ....    1
 Number of Electrons    NEL             ....  134
 Basis Dimension        Dim             ....  322

ORBITAL ENERGIES
----------------

  NO   OCC          E(Eh)            E(eV)
   0   2.0000     -88.964364     -2420.8434
   1   2.0000     -88.964339     -2420.8427
   2   2.0000     -10.329568      -281.0818
   3   2.0000     -10.321008      -280.8489
   4   2.0000     -10.316644      -280.7302
   5   2.0000     -10.313016      -280.6314
   6   2.0000     -10.309368      -280.5322
   7   2.0000     -10.301043      -280.3056
   8   2.0000     -10.297727      -280.2154
   9   2.0000     -10.293090      -280.0892
  10   2.0000     -10.286418      -279.9077
  11   2.0000     -10.286310      -279.9047
  12   2.0000     -10.284778      -279.8630
  13   2.0000     -10.277417      -279.6627
  14   2.0000     -10.276493      -279.6376
  15   2.0000     -10.260007      -279.1890
  16   2.0000      -8.079870      -219.8644
  17   2.0000      -8.079354      -219.8504
  18   2.0000      -6.038187      -164.3074
  19   2.0000      -6.037758      -164.2957
  20   2.0000      -6.034355      -164.2032
  21   2.0000      -6.033668      -164.1845
  22   2.0000      -6.030703      -164.1038
  23   2.0000      -6.030391      -164.0953
  24   2.0000      -1.006301       -27.3828
  25   2.0000      -0.982410       -26.7327
  26   2.0000      -0.912277       -24.8243
  27   2.0000      -0.909818       -24.7574
  28   2.0000      -0.867413       -23.6035
  29   2.0000      -0.849000       -23.1025
  30   2.0000      -0.845708       -23.0129
  31   2.0000      -0.812310       -22.1041
  32   2.0000      -0.785846       -21.3840
  33   2.0000      -0.771208       -20.9856
  34   2.0000      -0.704132       -19.1604
  35   2.0000      -0.702090       -19.1048
  36   2.0000      -0.687510       -18.7081
  37   2.0000      -0.664198       -18.0738
  38   2.0000      -0.649015       -17.6606
  39   2.0000      -0.611216       -16.6320
  40   2.0000      -0.602825       -16.4037
  41   2.0000      -0.574433       -15.6311
  42   2.0000      -0.552782       -15.0420
  43   2.0000      -0.551440       -15.0055
  44   2.0000      -0.537857       -14.6358
  45   2.0000      -0.534313       -14.5394
  46   2.0000      -0.519299       -14.1308
  47   2.0000      -0.514327       -13.9955
  48   2.0000      -0.495883       -13.4937
  49   2.0000      -0.490108       -13.3365
  50   2.0000      -0.487965       -13.2782
  51   2.0000      -0.481178       -13.0935
  52   2.0000      -0.472697       -12.8627
  53   2.0000      -0.465229       -12.6595
  54   2.0000      -0.463447       -12.6110
  55   2.0000      -0.446104       -12.1391
  56   2.0000      -0.439545       -11.9606
  57   2.0000      -0.437648       -11.9090
  58   2.0000      -0.436624       -11.8811
  59   2.0000      -0.422374       -11.4934
  60   2.0000      -0.420364       -11.4387
  61   2.0000      -0.413522       -11.2525
  62   2.0000      -0.411027       -11.1846
  63   2.0000      -0.341387        -9.2896
  64   2.0000      -0.328649        -8.9430
  65   2.0000      -0.318815        -8.6754
  66   2.0000      -0.302865        -8.2414
  67   0.0000       0.042116         1.1460
  68   0.0000       0.057404         1.5620
  69   0.0000       0.114773         3.1231
  70   0.0000       0.123094         3.3496
  71   0.0000       0.123426         3.3586

MULLIKEN ATOMIC CHARGES
-----------------------
   0 S :    0.110852
   1 C :   -0.134192
   2 C :   -0.059140
   3 C :    0.079089
   4 C :   -0.199281
   5 H :    0.001399
   6 C :    0.037204
   7 H :    0.028752
   8 H :    0.012520
   9 C :   -0.048421
  10 H :    0.006896
  11 H :    0.020353
  12 C :   -0.003016
  13 H :   -0.002313
  14 H :    0.023967
  15 H :    0.020720
  16 S :    0.125899
  17 C :   -0.090890
  18 C :   -0.001282
  19 C :   -0.040860
  20 C :   -0.174425
  21 H :   -0.001892
  22 C :    0.082483
  23 H :    0.009876
  24 H :    0.017057
  25 C :   -0.049734
  26 H :    0.038122
  27 H :    0.027380
  28 C :   -0.049935
  29 H :    0.024787
  30 H :    0.027720
  31 H :    0.033731
  32 H :    0.070564
  33 H :    0.056010
Sum of atomic charges:   -0.0000000

LOEWDIN ATOMIC CHARGES
----------------------
   0 S :    0.413746
   1 C :   -0.211044
   2 C :   -0.062850
   3 C :   -0.048583
   4 C :   -0.193057
   5 H :    0.026409
   6 C :   -0.036646
   7 H :    0.029230
   8 H :    0.033806
   9 C :   -0.042220
  10 H :    0.019874
  11 H :    0.022784
  12 C :   -0.058695
  13 H :    0.011132
  14 H :    0.030879
  15 H :    0.021623
  16 S :    0.428313
  17 C :   -0.183864
  18 C :   -0.069788
  19 C :   -0.043239
  20 C :   -0.223304
  21 H :    0.020734
  22 C :   -0.031739
  23 H :    0.025718
  24 H :    0.030119
  25 C :   -0.032646
  26 H :    0.028953
  27 H :    0.025168
  28 C :   -0.066539
  29 H :    0.028427
  30 H :    0.016948
  31 H :    0.028497
  32 H :    0.034198
  33 H :    0.027655

  Mayer bond orders larger than 0.100000
B(  0-S ,  1-C ) :   1.1613 B(  0-S ,  4-C ) :   1.1660 B(  1-C ,  2-C ) :   1.5872
B(  1-C , 32-H ) :   0.9666 B(  2-C ,  3-C ) :   1.2296 B(  2-C ,  6-C ) :   1.0049
B(  3-C ,  4-C ) :   1.5820 B(  3-C ,  5-H ) :   1.0017 B(  4-C , 20-C ) :   0.9920
B(  6-C ,  7-H ) :   0.9442 B(  6-C ,  8-H ) :   0.9445 B(  6-C ,  9-C ) :   1.0883
B(  9-C , 10-H ) :   0.9469 B(  9-C , 11-H ) :   0.9529 B(  9-C , 12-C ) :   1.0886
B( 12-C , 13-H ) :   0.9701 B( 12-C , 14-H ) :   0.9700 B( 12-C , 15-H ) :   0.9718
B( 16-S , 17-C ) :   1.1695 B( 16-S , 20-C ) :   1.1674 B( 17-C , 18-C ) :   1.5903
B( 17-C , 20-C ) :   0.1018 B( 17-C , 33-H ) :   0.9661 B( 18-C , 19-C ) :   1.2560
B( 18-C , 21-H ) :   0.9919 B( 19-C , 20-C ) :   1.5848 B( 19-C , 22-C ) :   1.0542
B( 22-C , 23-H ) :   0.9256 B( 22-C , 24-H ) :   0.9358 B( 22-C , 25-C ) :   1.0666
B( 25-C , 26-H ) :   0.9560 B( 25-C , 27-H ) :   0.9539 B( 25-C , 28-C ) :   1.0757
B( 28-C , 29-H ) :   0.9694 B( 28-C , 30-H ) :   0.9724 B( 28-C , 31-H ) :   0.9746

Dispersion correction           -0.014460721
FINAL SINGLE POINT ENERGY     -1339.873171683586

DIPOLE MOMENT
-------------
                                X             Y             Z
Electronic contribution:     23.98854       0.96561      -4.23656
Nuclear contribution   :    -24.51027      -0.84994       4.07993
                        -----------------------------------------
Total Dipole Moment    :     -0.52173       0.11566      -0.15663
                        -----------------------------------------
Magnitude (a.u.)       :      0.55688
Magnitude (Debye)      :      1.41548

Rotational constants in cm-1:     0.021035     0.008008     0.006712
Rotational constants in MHz :   630.624520   240.062396   201.230432

                             ****ORCA TERMINATED NORMALLY****
TOTAL RUN TIME: 0 days 0 hours 0 minutes 21 seconds 467 msec
