                         Program Version 4.2.1 -  RELEASE  -
|  1> ! wB97X-D3 SP def2-SVP
|  2> %pal
|  3> nprocs 24
|  4> end
|  5>
|  6> * xyz 0 1
|  7> S 	 -59.8309 	 -0.0309795 	 -17.9148
|  8> C 	 -61.2576 	 0.189794 	 -16.922
|  9> C 	 -62.3695 	 -0.261915 	 -17.5292
| 10> C 	 -62.0506 	 -0.720189 	 -18.8744
| 11> C 	 -60.7228 	 -0.560533 	 -19.2639
| 12> H 	 -62.815 	 -1.13081 	 -19.5844
| 13> C 	 -63.7202 	 -0.125 	 -16.8633
| 14> H 	 -64.4583 	 0.129696 	 -17.6314
| 15> H 	 -63.6392 	 0.5855 	 -16.0306
| 16> C 	 -64.188 	 -1.34404 	 -16.1895
| 17> H 	 -64.2421 	 -2.19879 	 -16.8472
| 18> H 	 -63.4142 	 -1.61984 	 -15.4151
| 19> C 	 -65.5335 	 -1.22071 	 -15.5272
| 20> H 	 -65.5955 	 -0.534118 	 -14.6682
| 21> H 	 -66.424 	 -1.08651 	 -16.1115
| 22> H 	 -65.7803 	 -2.1673 	 -15.1293
| 23> S 	 -58.9103 	 0.393233 	 -20.9575
| 24> C 	 -58.7394 	 -0.256596 	 -22.5946
| 25> C 	 -59.7669 	 -1.17624 	 -22.8556
| 26> C 	 -60.5957 	 -1.41848 	 -21.7453
| 27> C 	 -60.2324 	 -0.70691 	 -20.6013
| 28> H 	 -59.9683 	 -1.50333 	 -23.8912
| 29> C 	 -61.583 	 -2.50779 	 -21.8062
| 30> H 	 -61.8086 	 -2.45681 	 -22.9227
| 31> H 	 -62.5352 	 -2.11883 	 -21.4298
| 32> C 	 -61.0192 	 -3.8715 	 -21.348
| 33> H 	 -61.5823 	 -4.65409 	 -21.8257
| 34> H 	 -60.9445 	 -4.09717 	 -20.2939
| 35> C 	 -59.6061 	 -4.24996 	 -21.9112
| 36> H 	 -59.3669 	 -5.29773 	 -21.6614
| 37> H 	 -58.9277 	 -3.66136 	 -21.32
| 38> H 	 -59.4495 	 -4.06428 	 -23.0139
| 39> H 	 -61.2584 	 0.772184 	 -16.0075
| 40> H 	 -58.0347 	 0.122423 	 -23.2755
| 41> *
| 42>
| 43>                          ****END OF INPUT****

CARTESIAN COORDINATES (ANGSTROEM)
---------------------------------
  S    -59.830900   -0.030979  -17.914800
  C    -61.257600    0.189794  -16.922000
  C    -62.369500   -0.261915  -17.529200
  C    -62.050600   -0.720189  -18.874400
  C    -60.722800   -0.560533  -19.263900
  H    -62.815000   -1.130810  -19.584400
  C    -63.720200   -0.125000  -16.863300
  H    -64.458300    0.129696  -17.631400
  H    -63.639200    0.585500  -16.030600
  C    -64.188000   -1.344040  -16.189500
  H    -64.242100   -2.198790  -16.847200
  H    -63.414200   -1.619840  -15.415100
  C    -65.533500   -1.220710  -15.527200
  H    -65.595500   -0.534118  -14.668200
  H    -66.424000   -1.086510  -16.111500
  H    -65.780300   -2.167300  -15.129300
  S    -58.910300    0.393233  -20.957500
  C    -58.739400   -0.256596  -22.594600
  C    -59.766900   -1.176240  -22.855600
  C    -60.595700   -1.418480  -21.745300
  C    -60.232400   -0.706910  -20.601300
  H    -59.968300   -1.503330  -23.891200
  C    -61.583000   -2.507790  -21.806200
  H    -61.808600   -2.456810  -22.922700
  H    -62.535200   -2.118830  -21.429800
  C    -61.019200   -3.871500  -21.348000
  H    -61.582300   -4.654090  -21.825700
  H    -60.944500   -4.097170  -20.293900
  C    -59.606100   -4.249960  -21.911200
  H    -59.366900   -5.297730  -21.661400
  H    -58.927700   -3.661360  -21.320000
  H    -59.449500   -4.064280  -23.013900
  H    -61.258400    0.772184  -16.007500
  H    -58.034700    0.122423  -23.275500

 Total Charge           Charge          ....    0
 Multiplicity           Mult            ....    1
 Number of Electrons    NEL             ....  134
 Basis Dimension        Dim             ....  322

ORBITAL ENERGIES
----------------

  NO   OCC          E(Eh)            E(eV)
   0   2.0000     -88.964595     -2420.8497
   1   2.0000     -88.963944     -2420.8320
   2   2.0000     -10.327907      -281.0366
   3   2.0000     -10.327236      -281.0184
   4   2.0000     -10.318088      -280.7694
   5   2.0000     -10.308302      -280.5032
   6   2.0000     -10.298960      -280.2489
   7   2.0000     -10.298426      -280.2344
   8   2.0000     -10.298002      -280.2229
   9   2.0000     -10.297434      -280.2074
  10   2.0000     -10.297113      -280.1987
  11   2.0000     -10.290077      -280.0072
  12   2.0000     -10.287960      -279.9496
  13   2.0000     -10.283426      -279.8262
  14   2.0000     -10.278283      -279.6863
  15   2.0000     -10.271912      -279.5129
  16   2.0000      -8.079650      -219.8584
  17   2.0000      -8.079100      -219.8435
  18   2.0000      -6.038230      -164.3086
  19   2.0000      -6.037549      -164.2901
  20   2.0000      -6.034022      -164.1941
  21   2.0000      -6.033535      -164.1808
  22   2.0000      -6.030250      -164.0914
  23   2.0000      -6.030033      -164.0856
  24   2.0000      -1.012721       -27.5575
  25   2.0000      -0.986632       -26.8476
  26   2.0000      -0.925540       -25.1852
  27   2.0000      -0.910120       -24.7656
  28   2.0000      -0.876804       -23.8591
  29   2.0000      -0.849875       -23.1263
  30   2.0000      -0.844381       -22.9768
  31   2.0000      -0.813558       -22.1380
  32   2.0000      -0.787392       -21.4260
  33   2.0000      -0.774949       -21.0874
  34   2.0000      -0.710297       -19.3282
  35   2.0000      -0.697309       -18.9747
  36   2.0000      -0.691641       -18.8205
  37   2.0000      -0.670813       -18.2537
  38   2.0000      -0.638879       -17.3848
  39   2.0000      -0.619826       -16.8663
  40   2.0000      -0.588038       -16.0013
  41   2.0000      -0.576375       -15.6840
  42   2.0000      -0.567940       -15.4544
  43   2.0000      -0.557079       -15.1589
  44   2.0000      -0.553432       -15.0596
  45   2.0000      -0.527400       -14.3513
  46   2.0000      -0.520552       -14.1649
  47   2.0000      -0.508313       -13.8319
  48   2.0000      -0.505130       -13.7453
  49   2.0000      -0.499901       -13.6030
  50   2.0000      -0.489263       -13.3135
  51   2.0000      -0.478931       -13.0324
  52   2.0000      -0.470682       -12.8079
  53   2.0000      -0.463416       -12.6102
  54   2.0000      -0.458851       -12.4860
  55   2.0000      -0.452708       -12.3188
  56   2.0000      -0.445289       -12.1169
  57   2.0000      -0.439324       -11.9546
  58   2.0000      -0.431154       -11.7323
  59   2.0000      -0.421485       -11.4692
  60   2.0000      -0.417661       -11.3651
  61   2.0000      -0.410590       -11.1727
  62   2.0000      -0.402774       -10.9600
  63   2.0000      -0.356931        -9.7126
  64   2.0000      -0.332827        -9.0567
  65   2.0000      -0.328746        -8.9456
  66   2.0000      -0.283094        -7.7034
  67   0.0000       0.019426         0.5286
  68   0.0000       0.082747         2.2517
  69   0.0000       0.102197         2.7809
  70   0.0000       0.120324         3.2742
  71   0.0000       0.133270         3.6265

MULLIKEN ATOMIC CHARGES
-----------------------
   0 S :    0.109967
   1 C :   -0.142280
   2 C :   -0.065269
   3 C :   -0.015927
   4 C :   -0.112126
   5 H :    0.012925
   6 C :    0.102219
   7 H :    0.025013
   8 H :    0.017056
   9 C :   -0.091266
  10 H :    0.019744
  11 H :    0.028389
  12 C :   -0.014306
  13 H :    0.028189
  14 H :    0.020688
  15 H :    0.010238
  16 S :    0.088679
  17 C :   -0.080595
  18 C :   -0.043187
  19 C :   -0.089779
  20 C :   -0.128060
  21 H :    0.034747
  22 C :    0.076825
  23 H :    0.018029
  24 H :    0.026513
  25 C :   -0.028784
  26 H :    0.025839
  27 H :    0.044587
  28 C :   -0.091642
  29 H :    0.036534
  30 H :    0.038219
  31 H :    0.043757
  32 H :    0.051108
  33 H :    0.043956
Sum of atomic charges:    0.0000000

LOEWDIN ATOMIC CHARGES
----------------------
   0 S :    0.414299
   1 C :   -0.196438
   2 C :   -0.060796
   3 C :   -0.073529
   4 C :   -0.213608
   5 H :    0.031350
   6 C :   -0.029174
   7 H :    0.032359
   8 H :    0.033988
   9 C :   -0.044714
  10 H :    0.020780
  11 H :    0.030790
  12 C :   -0.069676
  13 H :    0.025820
  14 H :    0.023965
  15 H :    0.024963
  16 S :    0.401158
  17 C :   -0.171085
  18 C :   -0.070105
  19 C :   -0.070211
  20 C :   -0.186271
  21 H :    0.037065
  22 C :   -0.039300
  23 H :    0.041469
  24 H :    0.029117
  25 C :   -0.034699
  26 H :    0.023691
  27 H :    0.029645
  28 C :   -0.066965
  29 H :    0.028111
  30 H :    0.022003
  31 H :    0.028251
  32 H :    0.029674
  33 H :    0.018076

  Mayer bond orders larger than 0.100000
B(  0-S ,  1-C ) :   1.1191 B(  0-S ,  4-C ) :   1.1532 B(  1-C ,  2-C ) :   1.6297
B(  1-C , 32-H ) :   0.9645 B(  2-C ,  3-C ) :   1.2425 B(  2-C ,  6-C ) :   1.0299
B(  3-C ,  4-C ) :   1.5495 B(  3-C ,  5-H ) :   0.9865 B(  4-C , 20-C ) :   1.0943
B(  6-C ,  7-H ) :   0.9320 B(  6-C ,  8-H ) :   0.9372 B(  6-C ,  9-C ) :   1.0795
B(  9-C , 10-H ) :   0.9518 B(  9-C , 11-H ) :   0.9480 B(  9-C , 12-C ) :   1.0953
B( 12-C , 13-H ) :   0.9713 B( 12-C , 14-H ) :   0.9692 B( 12-C , 15-H ) :   0.9652
B( 16-S , 17-C ) :   1.1610 B( 16-S , 20-C ) :   1.1443 B( 17-C , 18-C ) :   1.5733
B( 17-C , 20-C ) :   0.1124 B( 17-C , 33-H ) :   0.9769 B( 18-C , 19-C ) :   1.2767
B( 18-C , 21-H ) :   0.9786 B( 19-C , 20-C ) :   1.5447 B( 19-C , 22-C ) :   1.0464
B( 22-C , 23-H ) :   0.9254 B( 22-C , 24-H ) :   0.9329 B( 22-C , 25-C ) :   1.0460
B( 25-C , 26-H ) :   0.9596 B( 25-C , 27-H ) :   0.9611 B( 25-C , 28-C ) :   1.0787
B( 28-C , 29-H ) :   0.9739 B( 28-C , 30-H ) :   0.9721 B( 28-C , 31-H ) :   0.9723

Dispersion correction           -0.014255083
FINAL SINGLE POINT ENERGY     -1339.863147201015

DIPOLE MOMENT
-------------
                                X             Y             Z
Electronic contribution:     19.93324      16.24397      -4.12008
Nuclear contribution   :    -20.51718     -16.52455       3.98407
                        -----------------------------------------
Total Dipole Moment    :     -0.58394      -0.28058      -0.13601
                        -----------------------------------------
Magnitude (a.u.)       :      0.66197
Magnitude (Debye)      :      1.68260

Rotational constants in cm-1:     0.022334     0.007840     0.006420
Rotational constants in MHz :   669.571311   235.039382   192.472744

                             ****ORCA TERMINATED NORMALLY****
TOTAL RUN TIME: 0 days 0 hours 0 minutes 21 seconds 731 msec
