                         Program Version 4.2.1 -  RELEASE  -
|  1> ! wB97X-D3 SP def2-SVP
|  2> %pal
|  3> nprocs 24
|  4> end
|  5>
|  6> * xyz 0 1
|  7> S 	 -45.5185 	 -47.8769 	 -72.2501
|  8> C 	 -46.0446 	 -46.2009 	 -72.6012
|  9> C 	 -47.3662 	 -45.9393 	 -72.2254
| 10> C 	 -47.9399 	 -47.1226 	 -71.7355
| 11> C 	 -47.124 	 -48.249 	 -71.759
| 12> H 	 -49.0253 	 -47.2048 	 -71.4704
| 13> C 	 -48.1526 	 -44.7443 	 -72.4142
| 14> H 	 -47.9188 	 -43.9233 	 -71.6841
| 15> H 	 -49.2454 	 -44.9542 	 -72.3404
| 16> C 	 -47.8962 	 -43.9897 	 -73.7652
| 17> H 	 -48.4049 	 -43.0481 	 -73.7956
| 18> H 	 -46.7628 	 -43.813 	 -73.7516
| 19> C 	 -48.2208 	 -44.8249 	 -75.0632
| 20> H 	 -49.1761 	 -44.6983 	 -75.4952
| 21> H 	 -47.4928 	 -44.7382 	 -75.8768
| 22> H 	 -48.0631 	 -45.8543 	 -74.9732
| 23> S 	 -46.9338 	 -50.3807 	 -69.9569
| 24> C 	 -48.0572 	 -51.6662 	 -70.0902
| 25> C 	 -48.9167 	 -51.4964 	 -71.1272
| 26> C 	 -48.6766 	 -50.3792 	 -71.9271
| 27> C 	 -47.5775 	 -49.6374 	 -71.4456
| 28> H 	 -49.61 	 -52.3323 	 -71.1899
| 29> C 	 -49.6152 	 -50.1308 	 -73.0267
| 30> H 	 -49.8399 	 -51.0536 	 -73.6832
| 31> H 	 -49.0643 	 -49.3862 	 -73.5852
| 32> C 	 -51.0082 	 -49.5635 	 -72.7197
| 33> H 	 -50.9674 	 -48.6199 	 -72.2193
| 34> H 	 -51.5469 	 -50.3205 	 -72.2094
| 35> C 	 -51.883 	 -49.4637 	 -73.9802
| 36> H 	 -51.4381 	 -48.7634 	 -74.693
| 37> H 	 -52.8642 	 -49.2706 	 -73.6305
| 38> H 	 -51.854 	 -50.4771 	 -74.3027
| 39> H 	 -45.406 	 -45.4277 	 -73.018
| 40> H 	 -48.0504 	 -52.6059 	 -69.5182
| 41> *
| 42>
| 43>                          ****END OF INPUT****

CARTESIAN COORDINATES (ANGSTROEM)
---------------------------------
  S    -45.518500  -47.876900  -72.250100
  C    -46.044600  -46.200900  -72.601200
  C    -47.366200  -45.939300  -72.225400
  C    -47.939900  -47.122600  -71.735500
  C    -47.124000  -48.249000  -71.759000
  H    -49.025300  -47.204800  -71.470400
  C    -48.152600  -44.744300  -72.414200
  H    -47.918800  -43.923300  -71.684100
  H    -49.245400  -44.954200  -72.340400
  C    -47.896200  -43.989700  -73.765200
  H    -48.404900  -43.048100  -73.795600
  H    -46.762800  -43.813000  -73.751600
  C    -48.220800  -44.824900  -75.063200
  H    -49.176100  -44.698300  -75.495200
  H    -47.492800  -44.738200  -75.876800
  H    -48.063100  -45.854300  -74.973200
  S    -46.933800  -50.380700  -69.956900
  C    -48.057200  -51.666200  -70.090200
  C    -48.916700  -51.496400  -71.127200
  C    -48.676600  -50.379200  -71.927100
  C    -47.577500  -49.637400  -71.445600
  H    -49.610000  -52.332300  -71.189900
  C    -49.615200  -50.130800  -73.026700
  H    -49.839900  -51.053600  -73.683200
  H    -49.064300  -49.386200  -73.585200
  C    -51.008200  -49.563500  -72.719700
  H    -50.967400  -48.619900  -72.219300
  H    -51.546900  -50.320500  -72.209400
  C    -51.883000  -49.463700  -73.980200
  H    -51.438100  -48.763400  -74.693000
  H    -52.864200  -49.270600  -73.630500
  H    -51.854000  -50.477100  -74.302700
  H    -45.406000  -45.427700  -73.018000
  H    -48.050400  -52.605900  -69.518200

 Total Charge           Charge          ....    0
 Multiplicity           Mult            ....    1
 Number of Electrons    NEL             ....  134
 Basis Dimension        Dim             ....  322

ORBITAL ENERGIES
----------------

  NO   OCC          E(Eh)            E(eV)
   0   2.0000     -88.972557     -2421.0663
   1   2.0000     -88.964144     -2420.8374
   2   2.0000     -10.332215      -281.1539
   3   2.0000     -10.329814      -281.0885
   4   2.0000     -10.319206      -280.7999
   5   2.0000     -10.310278      -280.5569
   6   2.0000     -10.302071      -280.3336
   7   2.0000     -10.299693      -280.2689
   8   2.0000     -10.299059      -280.2516
   9   2.0000     -10.298311      -280.2313
  10   2.0000     -10.294887      -280.1381
  11   2.0000     -10.290799      -280.0269
  12   2.0000     -10.282797      -279.8091
  13   2.0000     -10.279658      -279.7237
  14   2.0000     -10.273225      -279.5487
  15   2.0000     -10.269231      -279.4400
  16   2.0000      -8.086829      -220.0538
  17   2.0000      -8.079144      -219.8447
  18   2.0000      -6.045210      -164.4985
  19   2.0000      -6.041457      -164.3964
  20   2.0000      -6.037698      -164.2941
  21   2.0000      -6.037562      -164.2904
  22   2.0000      -6.033557      -164.1814
  23   2.0000      -6.030046      -164.0859
  24   2.0000      -1.006915       -27.3996
  25   2.0000      -0.988442       -26.8969
  26   2.0000      -0.917422       -24.9643
  27   2.0000      -0.914795       -24.8928
  28   2.0000      -0.861257       -23.4360
  29   2.0000      -0.859978       -23.4012
  30   2.0000      -0.849024       -23.1031
  31   2.0000      -0.810411       -22.0524
  32   2.0000      -0.789139       -21.4736
  33   2.0000      -0.772728       -21.0270
  34   2.0000      -0.714664       -19.4470
  35   2.0000      -0.702051       -19.1038
  36   2.0000      -0.690510       -18.7897
  37   2.0000      -0.654965       -17.8225
  38   2.0000      -0.634026       -17.2527
  39   2.0000      -0.615797       -16.7567
  40   2.0000      -0.596595       -16.2342
  41   2.0000      -0.583378       -15.8745
  42   2.0000      -0.579018       -15.7559
  43   2.0000      -0.547325       -14.8935
  44   2.0000      -0.543584       -14.7917
  45   2.0000      -0.531070       -14.4512
  46   2.0000      -0.516085       -14.0434
  47   2.0000      -0.508446       -13.8355
  48   2.0000      -0.503932       -13.7127
  49   2.0000      -0.496938       -13.5224
  50   2.0000      -0.489364       -13.3163
  51   2.0000      -0.472182       -12.8487
  52   2.0000      -0.464369       -12.6361
  53   2.0000      -0.463595       -12.6151
  54   2.0000      -0.461173       -12.5492
  55   2.0000      -0.450944       -12.2708
  56   2.0000      -0.447194       -12.1688
  57   2.0000      -0.439240       -11.9523
  58   2.0000      -0.436363       -11.8741
  59   2.0000      -0.432539       -11.7700
  60   2.0000      -0.426903       -11.6166
  61   2.0000      -0.410745       -11.1769
  62   2.0000      -0.408574       -11.1179
  63   2.0000      -0.337956        -9.1962
  64   2.0000      -0.334063        -9.0903
  65   2.0000      -0.327155        -8.9024
  66   2.0000      -0.297915        -8.1067
  67   0.0000       0.031856         0.8669
  68   0.0000       0.061347         1.6693
  69   0.0000       0.108344         2.9482
  70   0.0000       0.120145         3.2693
  71   0.0000       0.125367         3.4114

MULLIKEN ATOMIC CHARGES
-----------------------
   0 S :    0.132038
   1 C :   -0.138683
   2 C :   -0.045116
   3 C :    0.007195
   4 C :   -0.173532
   5 H :    0.024242
   6 C :    0.043419
   7 H :    0.052988
   8 H :    0.033891
   9 C :   -0.101892
  10 H :    0.035352
  11 H :    0.035071
  12 C :   -0.027213
  13 H :    0.027922
  14 H :    0.017792
  15 H :    0.013815
  16 S :    0.107276
  17 C :   -0.099135
  18 C :   -0.060480
  19 C :    0.030616
  20 C :   -0.158558
  21 H :    0.014982
  22 C :    0.020109
  23 H :    0.035345
  24 H :    0.018438
  25 C :   -0.058975
  26 H :    0.024899
  27 H :    0.010817
  28 C :   -0.009007
  29 H :    0.041218
  30 H :    0.029367
  31 H :    0.010405
  32 H :    0.045371
  33 H :    0.060021
Sum of atomic charges:   -0.0000000

LOEWDIN ATOMIC CHARGES
----------------------
   0 S :    0.416614
   1 C :   -0.187106
   2 C :   -0.068616
   3 C :   -0.062216
   4 C :   -0.213374
   5 H :    0.037075
   6 C :   -0.039728
   7 H :    0.045229
   8 H :    0.033064
   9 C :   -0.032657
  10 H :    0.022201
  11 H :    0.029497
  12 C :   -0.077165
  13 H :    0.019614
  14 H :    0.031771
  15 H :    0.021356
  16 S :    0.408075
  17 C :   -0.197280
  18 C :   -0.080115
  19 C :   -0.055450
  20 C :   -0.193079
  21 H :    0.033892
  22 C :   -0.041065
  23 H :    0.041082
  24 H :    0.027998
  25 C :   -0.029576
  26 H :    0.014963
  27 H :    0.018143
  28 C :   -0.050238
  29 H :    0.025930
  30 H :    0.023185
  31 H :    0.019299
  32 H :    0.023434
  33 H :    0.035245

  Mayer bond orders larger than 0.100000
B(  0-S ,  1-C ) :   1.1433 B(  0-S ,  4-C ) :   1.1701 B(  1-C ,  2-C ) :   1.5794
B(  1-C ,  4-C ) :   0.1014 B(  1-C , 32-H ) :   0.9652 B(  2-C ,  3-C ) :   1.2625
B(  2-C ,  6-C ) :   1.0361 B(  3-C ,  4-C ) :   1.5607 B(  3-C ,  5-H ) :   0.9873
B(  4-C , 20-C ) :   0.9951 B(  6-C ,  7-H ) :   0.9218 B(  6-C ,  8-H ) :   0.9480
B(  6-C ,  9-C ) :   1.0726 B(  9-C , 10-H ) :   0.9609 B(  9-C , 11-H ) :   0.9579
B(  9-C , 12-C ) :   1.0565 B( 12-C , 13-H ) :   0.9803 B( 12-C , 14-H ) :   0.9720
B( 12-C , 15-H ) :   0.9718 B( 16-S , 17-C ) :   1.1621 B( 16-S , 20-C ) :   1.1519
B( 17-C , 18-C ) :   1.6285 B( 17-C , 33-H ) :   0.9577 B( 18-C , 19-C ) :   1.2236
B( 18-C , 21-H ) :   0.9926 B( 19-C , 20-C ) :   1.5717 B( 19-C , 22-C ) :   1.0630
B( 22-C , 23-H ) :   0.9316 B( 22-C , 24-H ) :   0.9203 B( 22-C , 25-C ) :   1.0831
B( 25-C , 26-H ) :   0.9515 B( 25-C , 27-H ) :   0.9546 B( 25-C , 28-C ) :   1.0752
B( 28-C , 29-H ) :   0.9774 B( 28-C , 30-H ) :   0.9740 B( 28-C , 31-H ) :   0.9755

Dispersion correction           -0.014521852
FINAL SINGLE POINT ENERGY     -1339.853666139594

DIPOLE MOMENT
-------------
                                X             Y             Z
Electronic contribution:     21.68768     -12.44361      17.59524
Nuclear contribution   :    -22.30225      12.60174     -17.82767
                        -----------------------------------------
Total Dipole Moment    :     -0.61457       0.15812      -0.23243
                        -----------------------------------------
Magnitude (a.u.)       :      0.67581
Magnitude (Debye)      :      1.71778

Rotational constants in cm-1:     0.017594     0.009621     0.006811
Rotational constants in MHz :   527.455358   288.422407   204.187060

                             ****ORCA TERMINATED NORMALLY****
TOTAL RUN TIME: 0 days 0 hours 0 minutes 22 seconds 207 msec
