                         Program Version 4.2.1 -  RELEASE  -
|  1> ! wB97X-D3 SP def2-SVP
|  2> %pal
|  3> nprocs 24
|  4> end
|  5>
|  6> * xyz 0 1
|  7> S 	 -115.237 	 24.1685 	 -119.29
|  8> C 	 -116.545 	 23.689 	 -120.322
|  9> C 	 -117.639 	 24.4912 	 -120.064
| 10> C 	 -117.435 	 25.385 	 -119.001
| 11> C 	 -116.146 	 25.3729 	 -118.543
| 12> H 	 -118.091 	 26.0664 	 -118.47
| 13> C 	 -118.944 	 24.4789 	 -120.823
| 14> H 	 -119.05 	 23.498 	 -121.373
| 15> H 	 -118.762 	 25.1926 	 -121.671
| 16> C 	 -120.302 	 24.8229 	 -120.127
| 17> H 	 -120.095 	 25.7003 	 -119.57
| 18> H 	 -121.027 	 25.1603 	 -120.908
| 19> C 	 -120.885 	 23.8247 	 -119.173
| 20> H 	 -121.073 	 22.8707 	 -119.624
| 21> H 	 -120.182 	 23.5401 	 -118.329
| 22> H 	 -121.862 	 24.1404 	 -118.709
| 23> S 	 -116.213 	 25.9353 	 -115.833
| 24> C 	 -115.119 	 27.1742 	 -115.227
| 25> C 	 -114.615 	 27.8774 	 -116.263
| 26> C 	 -114.989 	 27.4717 	 -117.545
| 27> C 	 -115.638 	 26.2638 	 -117.478
| 28> H 	 -114.047 	 28.7736 	 -116.068
| 29> C 	 -114.405 	 28.0519 	 -118.777
| 30> H 	 -115.175 	 27.9477 	 -119.562
| 31> H 	 -113.532 	 27.5098 	 -119.154
| 32> C 	 -113.968 	 29.5434 	 -118.757
| 33> H 	 -113.439 	 29.8078 	 -119.648
| 34> H 	 -113.29 	 29.641 	 -117.975
| 35> C 	 -115.117 	 30.5548 	 -118.468
| 36> H 	 -114.814 	 31.5085 	 -118.068
| 37> H 	 -115.811 	 30.1316 	 -117.7
| 38> H 	 -115.668 	 30.7454 	 -119.45
| 39> H 	 -116.426 	 22.9611 	 -121.152
| 40> H 	 -114.814 	 27.4774 	 -114.203
| 41> *
| 42>
| 43>                          ****END OF INPUT****

CARTESIAN COORDINATES (ANGSTROEM)
---------------------------------
  S    -115.237000   24.168500  -119.290000
  C    -116.545000   23.689000  -120.322000
  C    -117.639000   24.491200  -120.064000
  C    -117.435000   25.385000  -119.001000
  C    -116.146000   25.372900  -118.543000
  H    -118.091000   26.066400  -118.470000
  C    -118.944000   24.478900  -120.823000
  H    -119.050000   23.498000  -121.373000
  H    -118.762000   25.192600  -121.671000
  C    -120.302000   24.822900  -120.127000
  H    -120.095000   25.700300  -119.570000
  H    -121.027000   25.160300  -120.908000
  C    -120.885000   23.824700  -119.173000
  H    -121.073000   22.870700  -119.624000
  H    -120.182000   23.540100  -118.329000
  H    -121.862000   24.140400  -118.709000
  S    -116.213000   25.935300  -115.833000
  C    -115.119000   27.174200  -115.227000
  C    -114.615000   27.877400  -116.263000
  C    -114.989000   27.471700  -117.545000
  C    -115.638000   26.263800  -117.478000
  H    -114.047000   28.773600  -116.068000
  C    -114.405000   28.051900  -118.777000
  H    -115.175000   27.947700  -119.562000
  H    -113.532000   27.509800  -119.154000
  C    -113.968000   29.543400  -118.757000
  H    -113.439000   29.807800  -119.648000
  H    -113.290000   29.641000  -117.975000
  C    -115.117000   30.554800  -118.468000
  H    -114.814000   31.508500  -118.068000
  H    -115.811000   30.131600  -117.700000
  H    -115.668000   30.745400  -119.450000
  H    -116.426000   22.961100  -121.152000
  H    -114.814000   27.477400  -114.203000

 Total Charge           Charge          ....    0
 Multiplicity           Mult            ....    1
 Number of Electrons    NEL             ....  134
 Basis Dimension        Dim             ....  322

ORBITAL ENERGIES
----------------

  NO   OCC          E(Eh)            E(eV)
   0   2.0000     -88.965535     -2420.8753
   1   2.0000     -88.965290     -2420.8686
   2   2.0000     -10.325159      -280.9619
   3   2.0000     -10.320108      -280.8244
   4   2.0000     -10.315513      -280.6994
   5   2.0000     -10.313719      -280.6506
   6   2.0000     -10.300682      -280.2958
   7   2.0000     -10.298415      -280.2341
   8   2.0000     -10.297188      -280.2007
   9   2.0000     -10.290317      -280.0138
  10   2.0000     -10.288583      -279.9666
  11   2.0000     -10.286761      -279.9170
  12   2.0000     -10.284013      -279.8422
  13   2.0000     -10.283348      -279.8241
  14   2.0000     -10.282309      -279.7959
  15   2.0000     -10.280363      -279.7429
  16   2.0000      -8.081360      -219.9050
  17   2.0000      -8.079700      -219.8598
  18   2.0000      -6.039612      -164.3462
  19   2.0000      -6.038330      -164.3113
  20   2.0000      -6.035525      -164.2350
  21   2.0000      -6.034412      -164.2047
  22   2.0000      -6.032462      -164.1516
  23   2.0000      -6.030237      -164.0911
  24   2.0000      -1.015423       -27.6311
  25   2.0000      -0.993337       -27.0301
  26   2.0000      -0.908779       -24.7291
  27   2.0000      -0.908414       -24.7192
  28   2.0000      -0.870919       -23.6989
  29   2.0000      -0.851130       -23.1604
  30   2.0000      -0.846754       -23.0413
  31   2.0000      -0.816634       -22.2217
  32   2.0000      -0.782419       -21.2907
  33   2.0000      -0.772251       -21.0140
  34   2.0000      -0.709828       -19.3154
  35   2.0000      -0.701507       -19.0890
  36   2.0000      -0.691228       -18.8093
  37   2.0000      -0.658433       -17.9169
  38   2.0000      -0.641263       -17.4496
  39   2.0000      -0.617909       -16.8142
  40   2.0000      -0.598091       -16.2749
  41   2.0000      -0.567417       -15.4402
  42   2.0000      -0.552989       -15.0476
  43   2.0000      -0.547331       -14.8936
  44   2.0000      -0.538623       -14.6567
  45   2.0000      -0.531616       -14.4660
  46   2.0000      -0.519390       -14.1333
  47   2.0000      -0.518723       -14.1152
  48   2.0000      -0.498218       -13.5572
  49   2.0000      -0.495477       -13.4826
  50   2.0000      -0.486966       -13.2510
  51   2.0000      -0.483522       -13.1573
  52   2.0000      -0.473939       -12.8965
  53   2.0000      -0.463897       -12.6233
  54   2.0000      -0.457274       -12.4431
  55   2.0000      -0.445491       -12.1224
  56   2.0000      -0.443268       -12.0619
  57   2.0000      -0.441298       -12.0083
  58   2.0000      -0.435345       -11.8463
  59   2.0000      -0.424831       -11.5602
  60   2.0000      -0.417008       -11.3474
  61   2.0000      -0.415162       -11.2971
  62   2.0000      -0.412274       -11.2185
  63   2.0000      -0.334746        -9.1089
  64   2.0000      -0.332456        -9.0466
  65   2.0000      -0.323386        -8.7998
  66   2.0000      -0.307800        -8.3757
  67   0.0000       0.043358         1.1798
  68   0.0000       0.055925         1.5218
  69   0.0000       0.107715         2.9311
  70   0.0000       0.133551         3.6341
  71   0.0000       0.137147         3.7320

MULLIKEN ATOMIC CHARGES
-----------------------
   0 S :    0.127394
   1 C :   -0.149457
   2 C :   -0.045158
   3 C :    0.015131
   4 C :   -0.182144
   5 H :    0.014451
   6 C :    0.013658
   7 H :    0.022373
   8 H :    0.049365
   9 C :   -0.047217
  10 H :    0.018241
  11 H :    0.035711
  12 C :   -0.056575
  13 H :    0.018643
  14 H :    0.041282
  15 H :    0.043170
  16 S :    0.110819
  17 C :   -0.078064
  18 C :   -0.049628
  19 C :    0.009520
  20 C :   -0.194087
  21 H :    0.011288
  22 C :    0.056001
  23 H :    0.029183
  24 H :    0.048175
  25 C :   -0.046000
  26 H :    0.026189
  27 H :    0.007911
  28 C :   -0.092856
  29 H :    0.031560
  30 H :    0.045940
  31 H :    0.043560
  32 H :    0.062933
  33 H :    0.058688
Sum of atomic charges:    0.0000000

LOEWDIN ATOMIC CHARGES
----------------------
   0 S :    0.447701
   1 C :   -0.215484
   2 C :   -0.066823
   3 C :   -0.072637
   4 C :   -0.221068
   5 H :    0.033055
   6 C :   -0.039525
   7 H :    0.029960
   8 H :    0.042706
   9 C :   -0.046207
  10 H :    0.017877
  11 H :    0.033794
  12 C :   -0.073329
  13 H :    0.018171
  14 H :    0.034775
  15 H :    0.033992
  16 S :    0.392203
  17 C :   -0.187455
  18 C :   -0.076214
  19 C :   -0.061799
  20 C :   -0.182837
  21 H :    0.028325
  22 C :   -0.031825
  23 H :    0.033985
  24 H :    0.039877
  25 C :   -0.035366
  26 H :    0.024694
  27 H :    0.009983
  28 C :   -0.073816
  29 H :    0.021157
  30 H :    0.030345
  31 H :    0.032789
  32 H :    0.037237
  33 H :    0.041758

  Mayer bond orders larger than 0.100000
B(  0-S ,  1-C ) :   1.1496 B(  0-S ,  4-C ) :   1.1935 B(  1-C ,  2-C ) :   1.5828
B(  1-C , 32-H ) :   0.9695 B(  2-C ,  3-C ) :   1.2415 B(  2-C ,  6-C ) :   1.0125
B(  3-C ,  4-C ) :   1.5704 B(  3-C ,  5-H ) :   0.9972 B(  4-C , 20-C ) :   0.9856
B(  6-C ,  7-H ) :   0.9446 B(  6-C ,  8-H ) :   0.9341 B(  6-C ,  9-C ) :   1.0718
B(  9-C , 10-H ) :   0.9480 B(  9-C , 11-H ) :   0.9502 B(  9-C , 12-C ) :   1.0836
B( 12-C , 13-H ) :   0.9735 B( 12-C , 14-H ) :   0.9718 B( 12-C , 15-H ) :   0.9718
B( 16-S , 17-C ) :   1.1298 B( 16-S , 20-C ) :   1.1429 B( 17-C , 18-C ) :   1.6495
B( 17-C , 33-H ) :   0.9576 B( 18-C , 19-C ) :   1.2272 B( 18-C , 21-H ) :   0.9812
B( 19-C , 20-C ) :   1.6058 B( 19-C , 22-C ) :   1.0472 B( 22-C , 23-H ) :   0.9249
B( 22-C , 24-H ) :   0.9355 B( 22-C , 25-C ) :   1.0784 B( 25-C , 26-H ) :   0.9557
B( 25-C , 27-H ) :   0.9513 B( 25-C , 28-C ) :   1.0697 B( 28-C , 29-H ) :   0.9772
B( 28-C , 30-H ) :   0.9761 B( 28-C , 31-H ) :   0.9772

Dispersion correction           -0.014410771
FINAL SINGLE POINT ENERGY     -1339.875294841619

DIPOLE MOMENT
-------------
                                X             Y             Z
Electronic contribution:     11.54965     -12.45025      10.03771
Nuclear contribution   :    -11.62337      12.87460     -10.34814
                        -----------------------------------------
Total Dipole Moment    :     -0.07372       0.42435      -0.31043
                        -----------------------------------------
Magnitude (a.u.)       :      0.53091
Magnitude (Debye)      :      1.34948

Rotational constants in cm-1:     0.019522     0.007745     0.007423
Rotational constants in MHz :   585.240505   232.198922   222.525847

                             ****ORCA TERMINATED NORMALLY****
TOTAL RUN TIME: 0 days 0 hours 0 minutes 21 seconds 515 msec
