                         Program Version 4.2.1 -  RELEASE  -
|  1> ! wB97X-D3 SP def2-SVP
|  2> %pal
|  3> nprocs 24
|  4> end
|  5>
|  6> * xyz 0 1
|  7> S 	 -86.7978 	 -33.5109 	 -64.1215
|  8> C 	 -86.8127 	 -35.3044 	 -63.9667
|  9> C 	 -87.817 	 -35.7416 	 -63.1598
| 10> C 	 -88.4929 	 -34.6438 	 -62.5094
| 11> C 	 -88.0941 	 -33.437 	 -62.9707
| 12> H 	 -89.2567 	 -34.588 	 -61.7483
| 13> C 	 -88.1618 	 -37.1655 	 -62.7691
| 14> H 	 -89.0673 	 -37.1866 	 -62.219
| 15> H 	 -87.4041 	 -37.4817 	 -62.0761
| 16> C 	 -88.2074 	 -38.1748 	 -63.9128
| 17> H 	 -87.2328 	 -38.0597 	 -64.3479
| 18> H 	 -88.3135 	 -39.2281 	 -63.529
| 19> C 	 -89.4429 	 -38.0665 	 -64.8556
| 20> H 	 -89.3721 	 -38.8032 	 -65.6459
| 21> H 	 -90.3204 	 -38.2173 	 -64.2952
| 22> H 	 -89.5645 	 -37.1578 	 -65.3604
| 23> S 	 -87.47 	 -31.0504 	 -61.8325
| 24> C 	 -88.7146 	 -30.1118 	 -61.1451
| 25> C 	 -89.9673 	 -30.571 	 -61.4486
| 26> C 	 -89.9667 	 -31.7003 	 -62.3226
| 27> C 	 -88.6859 	 -32.1592 	 -62.5507
| 28> H 	 -90.7872 	 -30.1314 	 -61.0357
| 29> C 	 -91.2097 	 -32.3272 	 -62.8312
| 30> H 	 -91.9868 	 -32.4189 	 -62.0862
| 31> H 	 -91.1089 	 -33.386 	 -63.102
| 32> C 	 -91.6996 	 -31.6794 	 -64.1233
| 33> H 	 -92.0038 	 -30.6294 	 -64.0427
| 34> H 	 -92.5159 	 -32.1486 	 -64.5858
| 35> C 	 -90.6152 	 -31.7797 	 -65.1825
| 36> H 	 -90.8315 	 -31.4975 	 -66.1691
| 37> H 	 -90.2032 	 -32.7591 	 -65.1675
| 38> H 	 -89.6758 	 -31.0788 	 -64.9075
| 39> H 	 -86.1398 	 -35.9685 	 -64.4171
| 40> H 	 -88.442 	 -29.4184 	 -60.3078
| 41> *
| 42>
| 43>                          ****END OF INPUT****

CARTESIAN COORDINATES (ANGSTROEM)
---------------------------------
  S    -86.797800  -33.510900  -64.121500
  C    -86.812700  -35.304400  -63.966700
  C    -87.817000  -35.741600  -63.159800
  C    -88.492900  -34.643800  -62.509400
  C    -88.094100  -33.437000  -62.970700
  H    -89.256700  -34.588000  -61.748300
  C    -88.161800  -37.165500  -62.769100
  H    -89.067300  -37.186600  -62.219000
  H    -87.404100  -37.481700  -62.076100
  C    -88.207400  -38.174800  -63.912800
  H    -87.232800  -38.059700  -64.347900
  H    -88.313500  -39.228100  -63.529000
  C    -89.442900  -38.066500  -64.855600
  H    -89.372100  -38.803200  -65.645900
  H    -90.320400  -38.217300  -64.295200
  H    -89.564500  -37.157800  -65.360400
  S    -87.470000  -31.050400  -61.832500
  C    -88.714600  -30.111800  -61.145100
  C    -89.967300  -30.571000  -61.448600
  C    -89.966700  -31.700300  -62.322600
  C    -88.685900  -32.159200  -62.550700
  H    -90.787200  -30.131400  -61.035700
  C    -91.209700  -32.327200  -62.831200
  H    -91.986800  -32.418900  -62.086200
  H    -91.108900  -33.386000  -63.102000
  C    -91.699600  -31.679400  -64.123300
  H    -92.003800  -30.629400  -64.042700
  H    -92.515900  -32.148600  -64.585800
  C    -90.615200  -31.779700  -65.182500
  H    -90.831500  -31.497500  -66.169100
  H    -90.203200  -32.759100  -65.167500
  H    -89.675800  -31.078800  -64.907500
  H    -86.139800  -35.968500  -64.417100
  H    -88.442000  -29.418400  -60.307800

 Total Charge           Charge          ....    0
 Multiplicity           Mult            ....    1
 Number of Electrons    NEL             ....  134
 Basis Dimension        Dim             ....  322

ORBITAL ENERGIES
----------------

  NO   OCC          E(Eh)            E(eV)
   0   2.0000     -88.965605     -2420.8772
   1   2.0000     -88.960791     -2420.7462
   2   2.0000     -10.326909      -281.0095
   3   2.0000     -10.324374      -280.9405
   4   2.0000     -10.316179      -280.7175
   5   2.0000     -10.310387      -280.5599
   6   2.0000     -10.305358      -280.4230
   7   2.0000     -10.301810      -280.3265
   8   2.0000     -10.291181      -280.0373
   9   2.0000     -10.290551      -280.0201
  10   2.0000     -10.287829      -279.9461
  11   2.0000     -10.287220      -279.9295
  12   2.0000     -10.286526      -279.9106
  13   2.0000     -10.279151      -279.7099
  14   2.0000     -10.269539      -279.4484
  15   2.0000     -10.268079      -279.4086
  16   2.0000      -8.079865      -219.8643
  17   2.0000      -8.076406      -219.7702
  18   2.0000      -6.038499      -164.3159
  19   2.0000      -6.034688      -164.2122
  20   2.0000      -6.034606      -164.2100
  21   2.0000      -6.030801      -164.1064
  22   2.0000      -6.030369      -164.0947
  23   2.0000      -6.027320      -164.0117
  24   2.0000      -1.008606       -27.4456
  25   2.0000      -0.985692       -26.8221
  26   2.0000      -0.917335       -24.9620
  27   2.0000      -0.913565       -24.8594
  28   2.0000      -0.867246       -23.5990
  29   2.0000      -0.852313       -23.1926
  30   2.0000      -0.844805       -22.9883
  31   2.0000      -0.813782       -22.1441
  32   2.0000      -0.789183       -21.4748
  33   2.0000      -0.777745       -21.1635
  34   2.0000      -0.712001       -19.3745
  35   2.0000      -0.702986       -19.1292
  36   2.0000      -0.689713       -18.7681
  37   2.0000      -0.664597       -18.0846
  38   2.0000      -0.643229       -17.5031
  39   2.0000      -0.613424       -16.6921
  40   2.0000      -0.599417       -16.3110
  41   2.0000      -0.579842       -15.7783
  42   2.0000      -0.562518       -15.3069
  43   2.0000      -0.554285       -15.0829
  44   2.0000      -0.550535       -14.9808
  45   2.0000      -0.535985       -14.5849
  46   2.0000      -0.516885       -14.0652
  47   2.0000      -0.508537       -13.8380
  48   2.0000      -0.500498       -13.6192
  49   2.0000      -0.497185       -13.5291
  50   2.0000      -0.488646       -13.2967
  51   2.0000      -0.480219       -13.0674
  52   2.0000      -0.469847       -12.7852
  53   2.0000      -0.463312       -12.6074
  54   2.0000      -0.457229       -12.4418
  55   2.0000      -0.446804       -12.1582
  56   2.0000      -0.444983       -12.1086
  57   2.0000      -0.437183       -11.8964
  58   2.0000      -0.436163       -11.8686
  59   2.0000      -0.425553       -11.5799
  60   2.0000      -0.418119       -11.3776
  61   2.0000      -0.416925       -11.3451
  62   2.0000      -0.407804       -11.0969
  63   2.0000      -0.343376        -9.3437
  64   2.0000      -0.333543        -9.0762
  65   2.0000      -0.330631        -8.9969
  66   2.0000      -0.293886        -7.9970
  67   0.0000       0.034769         0.9461
  68   0.0000       0.067225         1.8293
  69   0.0000       0.103764         2.8236
  70   0.0000       0.121164         3.2970
  71   0.0000       0.129882         3.5343

MULLIKEN ATOMIC CHARGES
-----------------------
   0 S :    0.105915
   1 C :   -0.113732
   2 C :   -0.072854
   3 C :    0.024838
   4 C :   -0.139824
   5 H :    0.008929
   6 C :    0.101965
   7 H :    0.002724
   8 H :    0.039013
   9 C :   -0.093055
  10 H :    0.020226
  11 H :    0.035191
  12 C :   -0.008864
  13 H :    0.029395
  14 H :    0.016961
  15 H :    0.022357
  16 S :    0.092125
  17 C :   -0.097824
  18 C :   -0.001247
  19 C :   -0.023954
  20 C :   -0.163787
  21 H :   -0.020068
  22 C :    0.063278
  23 H :    0.020574
  24 H :    0.020348
  25 C :   -0.026745
  26 H :    0.026616
  27 H :    0.015667
  28 C :   -0.081472
  29 H :    0.023174
  30 H :    0.021652
  31 H :    0.049228
  32 H :    0.022602
  33 H :    0.080646
Sum of atomic charges:    0.0000000

LOEWDIN ATOMIC CHARGES
----------------------
   0 S :    0.383013
   1 C :   -0.178543
   2 C :   -0.052335
   3 C :   -0.067092
   4 C :   -0.193739
   5 H :    0.032414
   6 C :   -0.028302
   7 H :    0.021005
   8 H :    0.037193
   9 C :   -0.037071
  10 H :    0.017088
  11 H :    0.031701
  12 C :   -0.055901
  13 H :    0.027460
  14 H :    0.020055
  15 H :    0.017678
  16 S :    0.401951
  17 C :   -0.197966
  18 C :   -0.060068
  19 C :   -0.049497
  20 C :   -0.177465
  21 H :    0.015875
  22 C :   -0.033822
  23 H :    0.028870
  24 H :    0.033505
  25 C :   -0.035375
  26 H :    0.023174
  27 H :    0.018687
  28 C :   -0.066730
  29 H :    0.014126
  30 H :    0.017376
  31 H :    0.037720
  32 H :    0.015391
  33 H :    0.039623

  Mayer bond orders larger than 0.100000
B(  0-S ,  1-C ) :   1.0989 B(  0-S ,  4-C ) :   1.1379 B(  1-C ,  2-C ) :   1.6654
B(  1-C , 32-H ) :   0.9748 B(  2-C ,  3-C ) :   1.1733 B(  2-C ,  6-C ) :   1.0098
B(  3-C ,  4-C ) :   1.6447 B(  3-C ,  5-H ) :   0.9946 B(  4-C , 20-C ) :   0.9995
B(  6-C ,  7-H ) :   0.9420 B(  6-C ,  8-H ) :   0.9316 B(  6-C ,  9-C ) :   1.0793
B(  9-C , 10-H ) :   0.9577 B(  9-C , 11-H ) :   0.9565 B(  9-C , 12-C ) :   1.0695
B( 12-C , 13-H ) :   0.9756 B( 12-C , 14-H ) :   0.9734 B( 12-C , 15-H ) :   0.9784
B( 16-S , 17-C ) :   1.1681 B( 16-S , 20-C ) :   1.1394 B( 17-C , 18-C ) :   1.6041
B( 17-C , 33-H ) :   0.9585 B( 18-C , 19-C ) :   1.2196 B( 18-C , 21-H ) :   1.0131
B( 19-C , 20-C ) :   1.6119 B( 19-C , 22-C ) :   1.0537 B( 22-C , 23-H ) :   0.9325
B( 22-C , 24-H ) :   0.9356 B( 22-C , 25-C ) :   1.0684 B( 25-C , 26-H ) :   0.9557
B( 25-C , 27-H ) :   0.9550 B( 25-C , 28-C ) :   1.0752 B( 28-C , 29-H ) :   0.9752
B( 28-C , 30-H ) :   0.9736 B( 28-C , 31-H ) :   0.9667

Dispersion correction           -0.015398381
FINAL SINGLE POINT ENERGY     -1339.864469579061

DIPOLE MOMENT
-------------
                                X             Y             Z
Electronic contribution:     16.71044      16.69431       8.58235
Nuclear contribution   :    -17.26775     -17.14321      -8.30176
                        -----------------------------------------
Total Dipole Moment    :     -0.55730      -0.44890       0.28059
                        -----------------------------------------
Magnitude (a.u.)       :      0.76865
Magnitude (Debye)      :      1.95377

Rotational constants in cm-1:     0.021651     0.008676     0.007377
Rotational constants in MHz :   649.082525   260.108248   221.162992

                             ****ORCA TERMINATED NORMALLY****
TOTAL RUN TIME: 0 days 0 hours 0 minutes 22 seconds 674 msec
