                         Program Version 4.2.1 -  RELEASE  -
|  1> ! wB97X-D3 SP def2-SVP
|  2> %pal
|  3> nprocs 24
|  4> end
|  5>
|  6> * xyz 0 1
|  7> S 	 -44.4478 	 13.0918 	 33.3941
|  8> C 	 -43.4134 	 12.3396 	 34.504
|  9> C 	 -42.2645 	 13.1269 	 34.7353
| 10> C 	 -42.3045 	 14.3394 	 33.9906
| 11> C 	 -43.4672 	 14.5309 	 33.3278
| 12> H 	 -41.5898 	 15.1796 	 33.9236
| 13> C 	 -41.1028 	 12.8482 	 35.7216
| 14> H 	 -40.6294 	 11.8908 	 35.557
| 15> H 	 -41.4193 	 12.8323 	 36.7638
| 16> C 	 -39.9226 	 13.8061 	 35.6604
| 17> H 	 -39.0548 	 13.2811 	 35.9871
| 18> H 	 -39.6231 	 13.9815 	 34.6149
| 19> C 	 -40.0148 	 15.1694 	 36.4154
| 20> H 	 -40.0043 	 15.058 	 37.5096
| 21> H 	 -39.0525 	 15.6924 	 36.2694
| 22> H 	 -40.9262 	 15.6823 	 36.0596
| 23> S 	 -44.024 	 15.1124 	 30.6924
| 24> C 	 -44.466 	 16.7358 	 30.3512
| 25> C 	 -44.4156 	 17.575 	 31.4683
| 26> C 	 -43.7737 	 16.962 	 32.5911
| 27> C 	 -43.7834 	 15.5847 	 32.3705
| 28> H 	 -44.7085 	 18.6292 	 31.3826
| 29> C 	 -43.2463 	 17.6332 	 33.7817
| 30> H 	 -43.0238 	 16.93 	 34.5688
| 31> H 	 -44.1175 	 18.1989 	 34.138
| 32> C 	 -42.1409 	 18.5425 	 33.4808
| 33> H 	 -42.0501 	 19.4089 	 34.1278
| 34> H 	 -42.4841 	 18.9933 	 32.5814
| 35> C 	 -40.7692 	 17.9935 	 33.3672
| 36> H 	 -40.4829 	 17.6315 	 34.2976
| 37> H 	 -39.9046 	 18.5709 	 32.9691
| 38> H 	 -40.8072 	 17.1306 	 32.704
| 39> H 	 -43.579 	 11.4065 	 34.9754
| 40> H 	 -44.7877 	 17.0621 	 29.3953
| 41> *
| 42>
| 43>                          ****END OF INPUT****

CARTESIAN COORDINATES (ANGSTROEM)
---------------------------------
  S    -44.447800   13.091800   33.394100
  C    -43.413400   12.339600   34.504000
  C    -42.264500   13.126900   34.735300
  C    -42.304500   14.339400   33.990600
  C    -43.467200   14.530900   33.327800
  H    -41.589800   15.179600   33.923600
  C    -41.102800   12.848200   35.721600
  H    -40.629400   11.890800   35.557000
  H    -41.419300   12.832300   36.763800
  C    -39.922600   13.806100   35.660400
  H    -39.054800   13.281100   35.987100
  H    -39.623100   13.981500   34.614900
  C    -40.014800   15.169400   36.415400
  H    -40.004300   15.058000   37.509600
  H    -39.052500   15.692400   36.269400
  H    -40.926200   15.682300   36.059600
  S    -44.024000   15.112400   30.692400
  C    -44.466000   16.735800   30.351200
  C    -44.415600   17.575000   31.468300
  C    -43.773700   16.962000   32.591100
  C    -43.783400   15.584700   32.370500
  H    -44.708500   18.629200   31.382600
  C    -43.246300   17.633200   33.781700
  H    -43.023800   16.930000   34.568800
  H    -44.117500   18.198900   34.138000
  C    -42.140900   18.542500   33.480800
  H    -42.050100   19.408900   34.127800
  H    -42.484100   18.993300   32.581400
  C    -40.769200   17.993500   33.367200
  H    -40.482900   17.631500   34.297600
  H    -39.904600   18.570900   32.969100
  H    -40.807200   17.130600   32.704000
  H    -43.579000   11.406500   34.975400
  H    -44.787700   17.062100   29.395300

 Total Charge           Charge          ....    0
 Multiplicity           Mult            ....    1
 Number of Electrons    NEL             ....  134
 Basis Dimension        Dim             ....  322

ORBITAL ENERGIES
----------------

  NO   OCC          E(Eh)            E(eV)
   0   2.0000     -88.967147     -2420.9191
   1   2.0000     -88.964474     -2420.8464
   2   2.0000     -10.321844      -280.8717
   3   2.0000     -10.318485      -280.7803
   4   2.0000     -10.312797      -280.6255
   5   2.0000     -10.309923      -280.5473
   6   2.0000     -10.304310      -280.3945
   7   2.0000     -10.301515      -280.3185
   8   2.0000     -10.297022      -280.1962
   9   2.0000     -10.291182      -280.0373
  10   2.0000     -10.289127      -279.9814
  11   2.0000     -10.286220      -279.9023
  12   2.0000     -10.284518      -279.8560
  13   2.0000     -10.283440      -279.8266
  14   2.0000     -10.275694      -279.6158
  15   2.0000     -10.270903      -279.4855
  16   2.0000      -8.082254      -219.9293
  17   2.0000      -8.080263      -219.8751
  18   2.0000      -6.040576      -164.3724
  19   2.0000      -6.038563      -164.3177
  20   2.0000      -6.036928      -164.2732
  21   2.0000      -6.034534      -164.2080
  22   2.0000      -6.032975      -164.1656
  23   2.0000      -6.031277      -164.1194
  24   2.0000      -1.012121       -27.5412
  25   2.0000      -0.988767       -26.9057
  26   2.0000      -0.931187       -25.3389
  27   2.0000      -0.908175       -24.7127
  28   2.0000      -0.869525       -23.6610
  29   2.0000      -0.858274       -23.3548
  30   2.0000      -0.843986       -22.9660
  31   2.0000      -0.813631       -22.1400
  32   2.0000      -0.792374       -21.5616
  33   2.0000      -0.776074       -21.1181
  34   2.0000      -0.710361       -19.3299
  35   2.0000      -0.700005       -19.0481
  36   2.0000      -0.691867       -18.8267
  37   2.0000      -0.654682       -17.8148
  38   2.0000      -0.645627       -17.5684
  39   2.0000      -0.624885       -17.0040
  40   2.0000      -0.606884       -16.5142
  41   2.0000      -0.570307       -15.5188
  42   2.0000      -0.562000       -15.2928
  43   2.0000      -0.550926       -14.9915
  44   2.0000      -0.549214       -14.9449
  45   2.0000      -0.529911       -14.4196
  46   2.0000      -0.522413       -14.2156
  47   2.0000      -0.511210       -13.9107
  48   2.0000      -0.499584       -13.5944
  49   2.0000      -0.496844       -13.5198
  50   2.0000      -0.494148       -13.4465
  51   2.0000      -0.482550       -13.1308
  52   2.0000      -0.481522       -13.1029
  53   2.0000      -0.465610       -12.6699
  54   2.0000      -0.460761       -12.5380
  55   2.0000      -0.452179       -12.3044
  56   2.0000      -0.447074       -12.1655
  57   2.0000      -0.444965       -12.1081
  58   2.0000      -0.431243       -11.7347
  59   2.0000      -0.422922       -11.5083
  60   2.0000      -0.421692       -11.4748
  61   2.0000      -0.411121       -11.1872
  62   2.0000      -0.408723       -11.1219
  63   2.0000      -0.347198        -9.4477
  64   2.0000      -0.330678        -8.9982
  65   2.0000      -0.324276        -8.8240
  66   2.0000      -0.287467        -7.8224
  67   0.0000       0.036651         0.9973
  68   0.0000       0.065253         1.7756
  69   0.0000       0.107483         2.9248
  70   0.0000       0.126845         3.4516
  71   0.0000       0.128523         3.4973

MULLIKEN ATOMIC CHARGES
-----------------------
   0 S :    0.119863
   1 C :   -0.101932
   2 C :   -0.077469
   3 C :    0.019664
   4 C :   -0.169682
   5 H :    0.001428
   6 C :    0.097788
   7 H :    0.026691
   8 H :    0.032911
   9 C :   -0.113803
  10 H :    0.011516
  11 H :    0.025221
  12 C :   -0.059823
  13 H :    0.031001
  14 H :    0.040015
  15 H :    0.048272
  16 S :    0.130713
  17 C :   -0.082106
  18 C :   -0.036025
  19 C :   -0.075719
  20 C :   -0.164892
  21 H :    0.027155
  22 C :    0.100947
  23 H :    0.015536
  24 H :    0.030324
  25 C :   -0.029469
  26 H :    0.018727
  27 H :    0.000156
  28 C :   -0.018493
  29 H :    0.004991
  30 H :    0.043447
  31 H :    0.029165
  32 H :    0.032845
  33 H :    0.041039
Sum of atomic charges:    0.0000000

LOEWDIN ATOMIC CHARGES
----------------------
   0 S :    0.435603
   1 C :   -0.209702
   2 C :   -0.061154
   3 C :   -0.072127
   4 C :   -0.202471
   5 H :    0.034403
   6 C :   -0.032944
   7 H :    0.033120
   8 H :    0.032814
   9 C :   -0.049843
  10 H :    0.020995
  11 H :    0.024903
  12 C :   -0.071548
  13 H :    0.025407
  14 H :    0.031884
  15 H :    0.024059
  16 S :    0.416153
  17 C :   -0.191948
  18 C :   -0.069866
  19 C :   -0.049257
  20 C :   -0.198558
  21 H :    0.033005
  22 C :   -0.030755
  23 H :    0.026796
  24 H :    0.044732
  25 C :   -0.042376
  26 H :    0.024948
  27 H :    0.020536
  28 C :   -0.064210
  29 H :    0.014440
  30 H :    0.036975
  31 H :    0.024559
  32 H :    0.022527
  33 H :    0.018901

  Mayer bond orders larger than 0.100000
B(  0-S ,  1-C ) :   1.1665 B(  0-S ,  4-C ) :   1.1612 B(  1-C ,  2-C ) :   1.5797
B(  1-C , 32-H ) :   0.9797 B(  2-C ,  3-C ) :   1.2641 B(  2-C ,  6-C ) :   1.0035
B(  3-C ,  4-C ) :   1.5690 B(  3-C ,  5-H ) :   0.9756 B(  4-C , 20-C ) :   1.0256
B(  6-C ,  7-H ) :   0.9364 B(  6-C ,  8-H ) :   0.9388 B(  6-C ,  9-C ) :   1.0931
B(  9-C , 10-H ) :   0.9514 B(  9-C , 11-H ) :   0.9474 B(  9-C , 12-C ) :   1.0768
B( 12-C , 13-H ) :   0.9706 B( 12-C , 14-H ) :   0.9710 B( 12-C , 15-H ) :   0.9728
B( 16-S , 17-C ) :   1.1528 B( 16-S , 20-C ) :   1.1542 B( 17-C , 18-C ) :   1.6128
B( 17-C , 20-C ) :   0.1000 B( 17-C , 33-H ) :   0.9714 B( 18-C , 19-C ) :   1.2252
B( 18-C , 21-H ) :   0.9796 B( 19-C , 20-C ) :   1.5867 B( 19-C , 22-C ) :   1.0629
B( 22-C , 23-H ) :   0.9288 B( 22-C , 24-H ) :   0.9091 B( 22-C , 25-C ) :   1.0709
B( 25-C , 26-H ) :   0.9473 B( 25-C , 27-H ) :   0.9458 B( 25-C , 28-C ) :   1.0860
B( 28-C , 29-H ) :   0.9659 B( 28-C , 30-H ) :   0.9672 B( 28-C , 31-H ) :   0.9614

Dispersion correction           -0.016094462
FINAL SINGLE POINT ENERGY     -1339.864194226664

DIPOLE MOMENT
-------------
                                X             Y             Z
Electronic contribution:    -21.76972     -13.09159     -16.71428
Nuclear contribution   :     22.23362      13.40444      17.03328
                        -----------------------------------------
Total Dipole Moment    :      0.46389       0.31286       0.31901
                        -----------------------------------------
Magnitude (a.u.)       :      0.64408
Magnitude (Debye)      :      1.63713

Rotational constants in cm-1:     0.017661     0.011338     0.007602
Rotational constants in MHz :   529.451580   339.897759   227.908514

                             ****ORCA TERMINATED NORMALLY****
TOTAL RUN TIME: 0 days 0 hours 0 minutes 23 seconds 465 msec
