                         Program Version 4.2.1 -  RELEASE  -
|  1> ! wB97X-D3 SP def2-SVP
|  2> %pal
|  3> nprocs 24
|  4> end
|  5>
|  6> * xyz 0 1
|  7> S 	 -97.0529 	 47.351 	 -95.0066
|  8> C 	 -97.3785 	 45.7068 	 -94.7781
|  9> C 	 -96.4933 	 44.9061 	 -95.5313
| 10> C 	 -95.567 	 45.7053 	 -96.2622
| 11> C 	 -95.788 	 47.0267 	 -96.1892
| 12> H 	 -94.7562 	 45.342 	 -96.8691
| 13> C 	 -96.2719 	 43.439 	 -95.3642
| 14> H 	 -96.642 	 43.0007 	 -94.3946
| 15> H 	 -95.247 	 43.2134 	 -95.495
| 16> C 	 -97.091 	 42.5594 	 -96.4591
| 17> H 	 -98.1462 	 42.9624 	 -96.4116
| 18> H 	 -96.8996 	 42.7694 	 -97.4958
| 19> C 	 -96.9919 	 41.0253 	 -96.1816
| 20> H 	 -96.0182 	 40.6257 	 -96.1987
| 21> H 	 -97.3103 	 40.8151 	 -95.1651
| 22> H 	 -97.4857 	 40.4659 	 -96.9491
| 23> S 	 -93.8987 	 49.1331 	 -95.7567
| 24> C 	 -93.2318 	 50.0726 	 -96.9754
| 25> C 	 -93.7012 	 49.6193 	 -98.2006
| 26> C 	 -94.5157 	 48.3983 	 -98.0608
| 27> C 	 -94.8885 	 48.0957 	 -96.7644
| 28> H 	 -93.5033 	 50.1121 	 -99.1996
| 29> C 	 -95.1524 	 47.7267 	 -99.2822
| 30> H 	 -96.1496 	 47.6022 	 -98.9445
| 31> H 	 -94.7896 	 46.6958 	 -99.3127
| 32> C 	 -94.957 	 48.4241 	 -100.732
| 33> H 	 -93.903 	 48.4005 	 -101.043
| 34> H 	 -95.2913 	 49.4614 	 -100.835
| 35> C 	 -95.7407 	 47.6082 	 -101.786
| 36> H 	 -96.0392 	 47.9232 	 -102.818
| 37> H 	 -96.6383 	 47.1557 	 -101.306
| 38> H 	 -95.1782 	 46.6721 	 -101.851
| 39> H 	 -98.0466 	 45.2152 	 -94.0938
| 40> H 	 -92.6235 	 50.8839 	 -96.6941
| 41> *
| 42>
| 43>                          ****END OF INPUT****

CARTESIAN COORDINATES (ANGSTROEM)
---------------------------------
  S    -97.052900   47.351000  -95.006600
  C    -97.378500   45.706800  -94.778100
  C    -96.493300   44.906100  -95.531300
  C    -95.567000   45.705300  -96.262200
  C    -95.788000   47.026700  -96.189200
  H    -94.756200   45.342000  -96.869100
  C    -96.271900   43.439000  -95.364200
  H    -96.642000   43.000700  -94.394600
  H    -95.247000   43.213400  -95.495000
  C    -97.091000   42.559400  -96.459100
  H    -98.146200   42.962400  -96.411600
  H    -96.899600   42.769400  -97.495800
  C    -96.991900   41.025300  -96.181600
  H    -96.018200   40.625700  -96.198700
  H    -97.310300   40.815100  -95.165100
  H    -97.485700   40.465900  -96.949100
  S    -93.898700   49.133100  -95.756700
  C    -93.231800   50.072600  -96.975400
  C    -93.701200   49.619300  -98.200600
  C    -94.515700   48.398300  -98.060800
  C    -94.888500   48.095700  -96.764400
  H    -93.503300   50.112100  -99.199600
  C    -95.152400   47.726700  -99.282200
  H    -96.149600   47.602200  -98.944500
  H    -94.789600   46.695800  -99.312700
  C    -94.957000   48.424100  -100.732000
  H    -93.903000   48.400500  -101.043000
  H    -95.291300   49.461400  -100.835000
  C    -95.740700   47.608200  -101.786000
  H    -96.039200   47.923200  -102.818000
  H    -96.638300   47.155700  -101.306000
  H    -95.178200   46.672100  -101.851000
  H    -98.046600   45.215200  -94.093800
  H    -92.623500   50.883900  -96.694100

 Total Charge           Charge          ....    0
 Multiplicity           Mult            ....    1
 Number of Electrons    NEL             ....  134
 Basis Dimension        Dim             ....  322

ORBITAL ENERGIES
----------------

  NO   OCC          E(Eh)            E(eV)
   0   2.0000     -88.971029     -2421.0248
   1   2.0000     -88.957635     -2420.6603
   2   2.0000     -10.332183      -281.1530
   3   2.0000     -10.328177      -281.0440
   4   2.0000     -10.316755      -280.7332
   5   2.0000     -10.313553      -280.6460
   6   2.0000     -10.306993      -280.4675
   7   2.0000     -10.302077      -280.3338
   8   2.0000     -10.300801      -280.2990
   9   2.0000     -10.299925      -280.2752
  10   2.0000     -10.298509      -280.2367
  11   2.0000     -10.295988      -280.1681
  12   2.0000     -10.294182      -280.1189
  13   2.0000     -10.292747      -280.0799
  14   2.0000     -10.281523      -279.7745
  15   2.0000     -10.275989      -279.6239
  16   2.0000      -8.086313      -220.0398
  17   2.0000      -8.074084      -219.7070
  18   2.0000      -6.044721      -164.4852
  19   2.0000      -6.040680      -164.3753
  20   2.0000      -6.037175      -164.2799
  21   2.0000      -6.032484      -164.1522
  22   2.0000      -6.028055      -164.0317
  23   2.0000      -6.025124      -163.9520
  24   2.0000      -1.011660       -27.5287
  25   2.0000      -0.993079       -27.0231
  26   2.0000      -0.903227       -24.5780
  27   2.0000      -0.900467       -24.5030
  28   2.0000      -0.871521       -23.7153
  29   2.0000      -0.852907       -23.2088
  30   2.0000      -0.844873       -22.9902
  31   2.0000      -0.817558       -22.2469
  32   2.0000      -0.777285       -21.1510
  33   2.0000      -0.768778       -20.9195
  34   2.0000      -0.710680       -19.3386
  35   2.0000      -0.706054       -19.2127
  36   2.0000      -0.697112       -18.9694
  37   2.0000      -0.652991       -17.7688
  38   2.0000      -0.647325       -17.6146
  39   2.0000      -0.621901       -16.9228
  40   2.0000      -0.597981       -16.2719
  41   2.0000      -0.571552       -15.5527
  42   2.0000      -0.560516       -15.2524
  43   2.0000      -0.555406       -15.1134
  44   2.0000      -0.528966       -14.3939
  45   2.0000      -0.523957       -14.2576
  46   2.0000      -0.515544       -14.0287
  47   2.0000      -0.509848       -13.8737
  48   2.0000      -0.506262       -13.7761
  49   2.0000      -0.499704       -13.5976
  50   2.0000      -0.488151       -13.2833
  51   2.0000      -0.484508       -13.1841
  52   2.0000      -0.468272       -12.7423
  53   2.0000      -0.465193       -12.6585
  54   2.0000      -0.460887       -12.5414
  55   2.0000      -0.454656       -12.3718
  56   2.0000      -0.449433       -12.2297
  57   2.0000      -0.440689       -11.9917
  58   2.0000      -0.430855       -11.7242
  59   2.0000      -0.426977       -11.6186
  60   2.0000      -0.419912       -11.4264
  61   2.0000      -0.413111       -11.2413
  62   2.0000      -0.405772       -11.0416
  63   2.0000      -0.350328        -9.5329
  64   2.0000      -0.326673        -8.8892
  65   2.0000      -0.320919        -8.7326
  66   2.0000      -0.302068        -8.2197
  67   0.0000       0.035996         0.9795
  68   0.0000       0.069044         1.8788
  69   0.0000       0.116934         3.1819
  70   0.0000       0.125408         3.4125
  71   0.0000       0.134272         3.6537

MULLIKEN ATOMIC CHARGES
-----------------------
   0 S :    0.133453
   1 C :   -0.087664
   2 C :   -0.088559
   3 C :    0.042071
   4 C :   -0.169396
   5 H :    0.014709
   6 C :    0.048593
   7 H :    0.031966
   8 H :    0.024113
   9 C :   -0.114084
  10 H :    0.029962
  11 H :    0.021274
  12 C :   -0.006195
  13 H :    0.014140
  14 H :    0.024387
  15 H :    0.033821
  16 S :    0.096219
  17 C :   -0.070609
  18 C :   -0.050861
  19 C :   -0.079573
  20 C :   -0.141241
  21 H :    0.047620
  22 C :    0.046437
  23 H :    0.036942
  24 H :    0.028209
  25 C :   -0.081881
  26 H :    0.044914
  27 H :    0.045081
  28 C :   -0.059258
  29 H :    0.054939
  30 H :    0.021431
  31 H :    0.012492
  32 H :    0.044312
  33 H :    0.052238
Sum of atomic charges:   -0.0000000

LOEWDIN ATOMIC CHARGES
----------------------
   0 S :    0.435453
   1 C :   -0.208221
   2 C :   -0.069612
   3 C :   -0.052139
   4 C :   -0.198474
   5 H :    0.033498
   6 C :   -0.027388
   7 H :    0.034789
   8 H :    0.024326
   9 C :   -0.042395
  10 H :    0.026550
  11 H :    0.016350
  12 C :   -0.064395
  13 H :    0.019479
  14 H :    0.024556
  15 H :    0.027068
  16 S :    0.431451
  17 C :   -0.197030
  18 C :   -0.088512
  19 C :   -0.055514
  20 C :   -0.212295
  21 H :    0.041257
  22 C :   -0.029764
  23 H :    0.031495
  24 H :    0.033732
  25 C :   -0.039647
  26 H :    0.026975
  27 H :    0.024714
  28 C :   -0.085126
  29 H :    0.032562
  30 H :    0.027846
  31 H :    0.024120
  32 H :    0.030951
  33 H :    0.023340

  Mayer bond orders larger than 0.100000
B(  0-S ,  1-C ) :   1.1666 B(  0-S ,  4-C ) :   1.1493 B(  1-C ,  2-C ) :   1.5762
B(  1-C , 32-H ) :   0.9677 B(  2-C ,  3-C ) :   1.2574 B(  2-C ,  6-C ) :   1.0408
B(  3-C ,  4-C ) :   1.5899 B(  3-C ,  5-H ) :   0.9929 B(  4-C , 20-C ) :   1.0000
B(  6-C ,  7-H ) :   0.9503 B(  6-C ,  8-H ) :   0.9469 B(  6-C ,  9-C ) :   1.0292
B(  9-C , 10-H ) :   0.9609 B(  9-C , 11-H ) :   0.9625 B(  9-C , 12-C ) :   1.0721
B( 12-C , 13-H ) :   0.9735 B( 12-C , 14-H ) :   0.9742 B( 12-C , 15-H ) :   0.9741
B( 16-S , 17-C ) :   1.2036 B( 16-S , 20-C ) :   1.1418 B( 17-C , 18-C ) :   1.5338
B( 17-C , 33-H ) :   0.9782 B( 18-C , 19-C ) :   1.2753 B( 18-C , 21-H ) :   0.9786
B( 19-C , 20-C ) :   1.5945 B( 19-C , 22-C ) :   1.0300 B( 22-C , 23-H ) :   0.9393
B( 22-C , 24-H ) :   0.9284 B( 22-C , 25-C ) :   1.0559 B( 25-C , 26-H ) :   0.9586
B( 25-C , 27-H ) :   0.9605 B( 25-C , 28-C ) :   1.0616 B( 28-C , 29-H ) :   0.9768
B( 28-C , 30-H ) :   0.9724 B( 28-C , 31-H ) :   0.9716

Dispersion correction           -0.013313358
FINAL SINGLE POINT ENERGY     -1339.853371541104

DIPOLE MOMENT
-------------
                                X             Y             Z
Electronic contribution:      4.50139      21.95232      19.65150
Nuclear contribution   :     -4.41848     -22.44565     -19.98591
                        -----------------------------------------
Total Dipole Moment    :      0.08291      -0.49333      -0.33441
                        -----------------------------------------
Magnitude (a.u.)       :      0.60173
Magnitude (Debye)      :      1.52948

Rotational constants in cm-1:     0.017032     0.007776     0.005963
Rotational constants in MHz :   510.612333   233.122945   178.761082

                             ****ORCA TERMINATED NORMALLY****
TOTAL RUN TIME: 0 days 0 hours 0 minutes 20 seconds 567 msec
