                         Program Version 4.2.1 -  RELEASE  -
|  1> ! wB97X-D3 SP def2-SVP
|  2> %pal
|  3> nprocs 24
|  4> end
|  5>
|  6> * xyz 0 1
|  7> S 	 -92.229 	 -6.22343 	 -120.681
|  8> C 	 -93.2052 	 -6.33225 	 -122.184
|  9> C 	 -94.5587 	 -6.12119 	 -122.005
| 10> C 	 -94.7799 	 -5.81574 	 -120.648
| 11> C 	 -93.6051 	 -5.64484 	 -119.802
| 12> H 	 -95.7394 	 -5.51523 	 -120.233
| 13> C 	 -95.6783 	 -6.18511 	 -123.045
| 14> H 	 -95.3533 	 -6.90075 	 -123.85
| 15> H 	 -95.8115 	 -5.20342 	 -123.482
| 16> C 	 -97.047 	 -6.64475 	 -122.535
| 17> H 	 -97.325 	 -5.84303 	 -121.788
| 18> H 	 -97.9801 	 -6.54304 	 -123.133
| 19> C 	 -96.9309 	 -8.03478 	 -121.756
| 20> H 	 -96.079 	 -8.3029 	 -121.134
| 21> H 	 -97.8583 	 -8.17743 	 -121.15
| 22> H 	 -96.8002 	 -8.85211 	 -122.496
| 23> S 	 -92.1218 	 -4.24462 	 -117.972
| 24> C 	 -92.5662 	 -4.29402 	 -116.342
| 25> C 	 -93.7458 	 -4.92461 	 -116.158
| 26> C 	 -94.3039 	 -5.54547 	 -117.299
| 27> C 	 -93.5806 	 -5.19773 	 -118.401
| 28> H 	 -94.1038 	 -5.08916 	 -115.113
| 29> C 	 -95.3952 	 -6.50843 	 -117.075
| 30> H 	 -96.0613 	 -6.47312 	 -117.911
| 31> H 	 -96.0796 	 -6.26147 	 -116.23
| 32> C 	 -95.0777 	 -8.0739 	 -117.125
| 33> H 	 -94.5169 	 -8.30704 	 -118.02
| 34> H 	 -96.1346 	 -8.4783 	 -116.933
| 35> C 	 -94.3495 	 -8.75603 	 -115.943
| 36> H 	 -94.6205 	 -9.83191 	 -116.03
| 37> H 	 -94.5534 	 -8.35056 	 -114.939
| 38> H 	 -93.289 	 -8.57049 	 -115.979
| 39> H 	 -92.7842 	 -6.6432 	 -123.102
| 40> H 	 -92.0091 	 -3.75455 	 -115.606
| 41> *
| 42>
| 43>                          ****END OF INPUT****

CARTESIAN COORDINATES (ANGSTROEM)
---------------------------------
  S    -92.229000   -6.223430  -120.681000
  C    -93.205200   -6.332250  -122.184000
  C    -94.558700   -6.121190  -122.005000
  C    -94.779900   -5.815740  -120.648000
  C    -93.605100   -5.644840  -119.802000
  H    -95.739400   -5.515230  -120.233000
  C    -95.678300   -6.185110  -123.045000
  H    -95.353300   -6.900750  -123.850000
  H    -95.811500   -5.203420  -123.482000
  C    -97.047000   -6.644750  -122.535000
  H    -97.325000   -5.843030  -121.788000
  H    -97.980100   -6.543040  -123.133000
  C    -96.930900   -8.034780  -121.756000
  H    -96.079000   -8.302900  -121.134000
  H    -97.858300   -8.177430  -121.150000
  H    -96.800200   -8.852110  -122.496000
  S    -92.121800   -4.244620  -117.972000
  C    -92.566200   -4.294020  -116.342000
  C    -93.745800   -4.924610  -116.158000
  C    -94.303900   -5.545470  -117.299000
  C    -93.580600   -5.197730  -118.401000
  H    -94.103800   -5.089160  -115.113000
  C    -95.395200   -6.508430  -117.075000
  H    -96.061300   -6.473120  -117.911000
  H    -96.079600   -6.261470  -116.230000
  C    -95.077700   -8.073900  -117.125000
  H    -94.516900   -8.307040  -118.020000
  H    -96.134600   -8.478300  -116.933000
  C    -94.349500   -8.756030  -115.943000
  H    -94.620500   -9.831910  -116.030000
  H    -94.553400   -8.350560  -114.939000
  H    -93.289000   -8.570490  -115.979000
  H    -92.784200   -6.643200  -123.102000
  H    -92.009100   -3.754550  -115.606000

 Total Charge           Charge          ....    0
 Multiplicity           Mult            ....    1
 Number of Electrons    NEL             ....  134
 Basis Dimension        Dim             ....  322

ORBITAL ENERGIES
----------------

  NO   OCC          E(Eh)            E(eV)
   0   2.0000     -88.971021     -2421.0246
   1   2.0000     -88.963453     -2420.8186
   2   2.0000     -10.334255      -281.2094
   3   2.0000     -10.329585      -281.0823
   4   2.0000     -10.313191      -280.6362
   5   2.0000     -10.308866      -280.5185
   6   2.0000     -10.304216      -280.3920
   7   2.0000     -10.302703      -280.3508
   8   2.0000     -10.302344      -280.3410
   9   2.0000     -10.300379      -280.2876
  10   2.0000     -10.297236      -280.2020
  11   2.0000     -10.294838      -280.1368
  12   2.0000     -10.293315      -280.0953
  13   2.0000     -10.288297      -279.9588
  14   2.0000     -10.284868      -279.8655
  15   2.0000     -10.276192      -279.6294
  16   2.0000      -8.084780      -219.9981
  17   2.0000      -8.079154      -219.8450
  18   2.0000      -6.043294      -164.4464
  19   2.0000      -6.039419      -164.3410
  20   2.0000      -6.037534      -164.2896
  21   2.0000      -6.035606      -164.2372
  22   2.0000      -6.033607      -164.1828
  23   2.0000      -6.029907      -164.0821
  24   2.0000      -1.009501       -27.4699
  25   2.0000      -0.983832       -26.7714
  26   2.0000      -0.910157       -24.7666
  27   2.0000      -0.906631       -24.6707
  28   2.0000      -0.864537       -23.5253
  29   2.0000      -0.854647       -23.2561
  30   2.0000      -0.836328       -22.7577
  31   2.0000      -0.805561       -21.9204
  32   2.0000      -0.788622       -21.4595
  33   2.0000      -0.778747       -21.1908
  34   2.0000      -0.711150       -19.3514
  35   2.0000      -0.700558       -19.0631
  36   2.0000      -0.685956       -18.6658
  37   2.0000      -0.662164       -18.0184
  38   2.0000      -0.633444       -17.2369
  39   2.0000      -0.619116       -16.8470
  40   2.0000      -0.602224       -16.3873
  41   2.0000      -0.560689       -15.2571
  42   2.0000      -0.558684       -15.2026
  43   2.0000      -0.555885       -15.1264
  44   2.0000      -0.535219       -14.5640
  45   2.0000      -0.530031       -14.4229
  46   2.0000      -0.516519       -14.0552
  47   2.0000      -0.508506       -13.8371
  48   2.0000      -0.498805       -13.5732
  49   2.0000      -0.492057       -13.3895
  50   2.0000      -0.490160       -13.3379
  51   2.0000      -0.484139       -13.1741
  52   2.0000      -0.474060       -12.8998
  53   2.0000      -0.471166       -12.8211
  54   2.0000      -0.454366       -12.3639
  55   2.0000      -0.448965       -12.2170
  56   2.0000      -0.440808       -11.9950
  57   2.0000      -0.433740       -11.8027
  58   2.0000      -0.428775       -11.6676
  59   2.0000      -0.422772       -11.5042
  60   2.0000      -0.422307       -11.4915
  61   2.0000      -0.405530       -11.0350
  62   2.0000      -0.402313       -10.9475
  63   2.0000      -0.350046        -9.5252
  64   2.0000      -0.334220        -9.0946
  65   2.0000      -0.331034        -9.0079
  66   2.0000      -0.283539        -7.7155
  67   0.0000       0.022804         0.6205
  68   0.0000       0.073899         2.0109
  69   0.0000       0.105593         2.8733
  70   0.0000       0.117153         3.1879
  71   0.0000       0.130700         3.5565

MULLIKEN ATOMIC CHARGES
-----------------------
   0 S :    0.119659
   1 C :   -0.130678
   2 C :   -0.072399
   3 C :    0.004530
   4 C :   -0.154682
   5 H :    0.011331
   6 C :    0.107730
   7 H :    0.032757
   8 H :    0.048644
   9 C :   -0.111128
  10 H :    0.024306
  11 H :    0.046006
  12 C :   -0.090097
  13 H :    0.051937
  14 H :    0.044243
  15 H :    0.028892
  16 S :    0.097585
  17 C :   -0.078397
  18 C :   -0.050933
  19 C :    0.005696
  20 C :   -0.175374
  21 H :    0.026594
  22 C :    0.063996
  23 H :    0.007861
  24 H :    0.029733
  25 C :   -0.101480
  26 H :    0.053217
  27 H :    0.044320
  28 C :   -0.062934
  29 H :    0.049562
  30 H :    0.020785
  31 H :    0.031747
  32 H :    0.026026
  33 H :    0.050946
Sum of atomic charges:   -0.0000000

LOEWDIN ATOMIC CHARGES
----------------------
   0 S :    0.403457
   1 C :   -0.181101
   2 C :   -0.061461
   3 C :   -0.066616
   4 C :   -0.206607
   5 H :    0.023128
   6 C :   -0.028407
   7 H :    0.033558
   8 H :    0.036645
   9 C :   -0.052844
  10 H :    0.024449
  11 H :    0.036222
  12 C :   -0.080429
  13 H :    0.030412
  14 H :    0.030524
  15 H :    0.027014
  16 S :    0.407488
  17 C :   -0.193682
  18 C :   -0.078715
  19 C :   -0.059084
  20 C :   -0.182705
  21 H :    0.035914
  22 C :   -0.039615
  23 H :    0.029101
  24 H :    0.037227
  25 C :   -0.031686
  26 H :    0.029758
  27 H :    0.038065
  28 C :   -0.079345
  29 H :    0.034003
  30 H :    0.023122
  31 H :    0.021153
  32 H :    0.015262
  33 H :    0.025791

  Mayer bond orders larger than 0.100000
B(  0-S ,  1-C ) :   1.1404 B(  0-S ,  4-C ) :   1.1636 B(  1-C ,  2-C ) :   1.5936
B(  1-C ,  4-C ) :   0.1090 B(  1-C , 32-H ) :   0.9704 B(  2-C ,  3-C ) :   1.2818
B(  2-C ,  6-C ) :   0.9971 B(  3-C ,  4-C ) :   1.5294 B(  3-C ,  5-H ) :   0.9853
B(  4-C , 20-C ) :   1.0597 B(  6-C ,  7-H ) :   0.9454 B(  6-C ,  8-H ) :   0.9351
B(  6-C ,  9-C ) :   1.0673 B(  9-C , 10-H ) :   0.9495 B(  9-C , 11-H ) :   0.9583
B(  9-C , 12-C ) :   1.0533 B( 12-C , 13-H ) :   0.9758 B( 12-C , 14-H ) :   0.9780
B( 12-C , 15-H ) :   0.9753 B( 16-S , 17-C ) :   1.1622 B( 16-S , 20-C ) :   1.1309
B( 17-C , 18-C ) :   1.6171 B( 17-C , 33-H ) :   0.9673 B( 18-C , 19-C ) :   1.2314
B( 18-C , 21-H ) :   0.9833 B( 19-C , 20-C ) :   1.5959 B( 19-C , 22-C ) :   1.0584
B( 22-C , 23-H ) :   0.9189 B( 22-C , 24-H ) :   0.9346 B( 22-C , 25-C ) :   1.0617
B( 25-C , 26-H ) :   0.9553 B( 25-C , 27-H ) :   0.9609 B( 25-C , 28-C ) :   1.0678
B( 28-C , 29-H ) :   0.9766 B( 28-C , 30-H ) :   0.9735 B( 28-C , 31-H ) :   0.9752

Dispersion correction           -0.015031586
FINAL SINGLE POINT ENERGY     -1339.848166409345

DIPOLE MOMENT
-------------
                                X             Y             Z
Electronic contribution:     22.12867      16.43685      -0.34623
Nuclear contribution   :    -22.69265     -16.67593       0.44686
                        -----------------------------------------
Total Dipole Moment    :     -0.56398      -0.23908       0.10063
                        -----------------------------------------
Magnitude (a.u.)       :      0.62077
Magnitude (Debye)      :      1.57788

Rotational constants in cm-1:     0.018485     0.009560     0.007420
Rotational constants in MHz :   554.157495   286.608370   222.444274

                             ****ORCA TERMINATED NORMALLY****
TOTAL RUN TIME: 0 days 0 hours 0 minutes 22 seconds 407 msec
