                         Program Version 4.2.1 -  RELEASE  -
|  1> ! wB97X-D3 SP def2-SVP
|  2> %pal
|  3> nprocs 24
|  4> end
|  5>
|  6> * xyz 0 1
|  7> S 	 -78.0333 	 -4.05564 	 3.25351
|  8> C 	 -77.7247 	 -4.16719 	 1.52773
|  9> C 	 -78.1795 	 -5.36238 	 0.999338
| 10> C 	 -78.6343 	 -6.23655 	 2.09266
| 11> C 	 -78.6079 	 -5.70695 	 3.34352
| 12> H 	 -79.2224 	 -7.15859 	 1.96361
| 13> C 	 -78.4044 	 -5.59065 	 -0.444288
| 14> H 	 -78.8293 	 -4.65283 	 -0.833121
| 15> H 	 -79.1282 	 -6.38105 	 -0.636506
| 16> C 	 -77.1898 	 -6.13757 	 -1.26786
| 17> H 	 -77.3676 	 -5.99294 	 -2.34028
| 18> H 	 -76.4123 	 -5.36203 	 -1.15587
| 19> C 	 -76.8267 	 -7.54669 	 -0.85003
| 20> H 	 -77.588 	 -8.0466 	 -0.147287
| 21> H 	 -76.9851 	 -8.19317 	 -1.67192
| 22> H 	 -75.8874 	 -7.71299 	 -0.350118
| 23> S 	 -80.7232 	 -5.70519 	 5.22842
| 24> C 	 -80.6252 	 -6.87343 	 6.54682
| 25> C 	 -79.6329 	 -7.76367 	 6.32336
| 26> C 	 -78.8092 	 -7.44188 	 5.18774
| 27> C 	 -79.189 	 -6.2538 	 4.57233
| 28> H 	 -79.5138 	 -8.62009 	 7.04166
| 29> C 	 -77.5946 	 -8.28884 	 4.86525
| 30> H 	 -76.9053 	 -8.21292 	 5.62063
| 31> H 	 -77.1935 	 -7.84119 	 4.02882
| 32> C 	 -77.788 	 -9.76679 	 4.63375
| 33> H 	 -78.4179 	 -9.81425 	 3.78022
| 34> H 	 -78.2549 	 -10.2593 	 5.53565
| 35> C 	 -76.5303 	 -10.5447 	 4.20066
| 36> H 	 -76.7775 	 -11.575 	 3.89507
| 37> H 	 -75.7399 	 -10.5837 	 4.88477
| 38> H 	 -76.1889 	 -10.0208 	 3.27404
| 39> H 	 -77.6732 	 -3.37963 	 0.832296
| 40> H 	 -81.1878 	 -6.89907 	 7.37131
| 41> *
| 42>
| 43>                          ****END OF INPUT****

CARTESIAN COORDINATES (ANGSTROEM)
---------------------------------
  S    -78.033300   -4.055640    3.253510
  C    -77.724700   -4.167190    1.527730
  C    -78.179500   -5.362380    0.999338
  C    -78.634300   -6.236550    2.092660
  C    -78.607900   -5.706950    3.343520
  H    -79.222400   -7.158590    1.963610
  C    -78.404400   -5.590650   -0.444288
  H    -78.829300   -4.652830   -0.833121
  H    -79.128200   -6.381050   -0.636506
  C    -77.189800   -6.137570   -1.267860
  H    -77.367600   -5.992940   -2.340280
  H    -76.412300   -5.362030   -1.155870
  C    -76.826700   -7.546690   -0.850030
  H    -77.588000   -8.046600   -0.147287
  H    -76.985100   -8.193170   -1.671920
  H    -75.887400   -7.712990   -0.350118
  S    -80.723200   -5.705190    5.228420
  C    -80.625200   -6.873430    6.546820
  C    -79.632900   -7.763670    6.323360
  C    -78.809200   -7.441880    5.187740
  C    -79.189000   -6.253800    4.572330
  H    -79.513800   -8.620090    7.041660
  C    -77.594600   -8.288840    4.865250
  H    -76.905300   -8.212920    5.620630
  H    -77.193500   -7.841190    4.028820
  C    -77.788000   -9.766790    4.633750
  H    -78.417900   -9.814250    3.780220
  H    -78.254900  -10.259300    5.535650
  C    -76.530300  -10.544700    4.200660
  H    -76.777500  -11.575000    3.895070
  H    -75.739900  -10.583700    4.884770
  H    -76.188900  -10.020800    3.274040
  H    -77.673200   -3.379630    0.832296
  H    -81.187800   -6.899070    7.371310

 Total Charge           Charge          ....    0
 Multiplicity           Mult            ....    1
 Number of Electrons    NEL             ....  134
 Basis Dimension        Dim             ....  322

ORBITAL ENERGIES
----------------

  NO   OCC          E(Eh)            E(eV)
   0   2.0000     -88.965272     -2420.8681
   1   2.0000     -88.964748     -2420.8539
   2   2.0000     -10.328467      -281.0519
   3   2.0000     -10.328221      -281.0452
   4   2.0000     -10.310281      -280.5570
   5   2.0000     -10.309118      -280.5254
   6   2.0000     -10.304052      -280.3875
   7   2.0000     -10.304007      -280.3863
   8   2.0000     -10.297642      -280.2131
   9   2.0000     -10.294428      -280.1256
  10   2.0000     -10.294047      -280.1153
  11   2.0000     -10.291602      -280.0487
  12   2.0000     -10.285122      -279.8724
  13   2.0000     -10.280497      -279.7466
  14   2.0000     -10.278560      -279.6938
  15   2.0000     -10.272580      -279.5311
  16   2.0000      -8.079757      -219.8614
  17   2.0000      -8.079353      -219.8504
  18   2.0000      -6.038433      -164.3141
  19   2.0000      -6.037989      -164.3020
  20   2.0000      -6.034363      -164.2034
  21   2.0000      -6.033888      -164.1904
  22   2.0000      -6.030284      -164.0924
  23   2.0000      -6.029953      -164.0834
  24   2.0000      -1.006309       -27.3831
  25   2.0000      -0.984722       -26.7956
  26   2.0000      -0.914991       -24.8982
  27   2.0000      -0.914198       -24.8766
  28   2.0000      -0.873460       -23.7681
  29   2.0000      -0.849010       -23.1027
  30   2.0000      -0.843234       -22.9456
  31   2.0000      -0.821729       -22.3604
  32   2.0000      -0.785505       -21.3747
  33   2.0000      -0.775861       -21.1123
  34   2.0000      -0.709618       -19.3097
  35   2.0000      -0.707972       -19.2649
  36   2.0000      -0.700026       -19.0487
  37   2.0000      -0.655245       -17.8301
  38   2.0000      -0.641233       -17.4488
  39   2.0000      -0.612459       -16.6659
  40   2.0000      -0.598831       -16.2950
  41   2.0000      -0.578523       -15.7424
  42   2.0000      -0.577353       -15.7106
  43   2.0000      -0.553302       -15.0561
  44   2.0000      -0.545836       -14.8529
  45   2.0000      -0.525742       -14.3062
  46   2.0000      -0.519756       -14.1433
  47   2.0000      -0.511131       -13.9086
  48   2.0000      -0.504284       -13.7223
  49   2.0000      -0.501492       -13.6463
  50   2.0000      -0.496614       -13.5136
  51   2.0000      -0.476606       -12.9691
  52   2.0000      -0.471212       -12.8223
  53   2.0000      -0.464703       -12.6452
  54   2.0000      -0.460607       -12.5338
  55   2.0000      -0.450818       -12.2674
  56   2.0000      -0.440913       -11.9979
  57   2.0000      -0.432822       -11.7777
  58   2.0000      -0.429291       -11.6816
  59   2.0000      -0.426701       -11.6111
  60   2.0000      -0.422966       -11.5095
  61   2.0000      -0.415752       -11.3132
  62   2.0000      -0.411408       -11.1950
  63   2.0000      -0.341740        -9.2992
  64   2.0000      -0.327723        -8.9178
  65   2.0000      -0.325418        -8.8551
  66   2.0000      -0.306810        -8.3487
  67   0.0000       0.031133         0.8472
  68   0.0000       0.065093         1.7713
  69   0.0000       0.105347         2.8666
  70   0.0000       0.116323         3.1653
  71   0.0000       0.124763         3.3950

MULLIKEN ATOMIC CHARGES
-----------------------
   0 S :    0.105165
   1 C :   -0.062968
   2 C :   -0.118527
   3 C :    0.046694
   4 C :   -0.202344
   5 H :    0.024699
   6 C :    0.014512
   7 H :    0.032651
   8 H :    0.025569
   9 C :   -0.056196
  10 H :    0.030104
  11 H :    0.021836
  12 C :   -0.044184
  13 H :    0.025127
  14 H :    0.026141
  15 H :    0.049194
  16 S :    0.107495
  17 C :   -0.036034
  18 C :   -0.045255
  19 C :   -0.045195
  20 C :   -0.136859
  21 H :    0.038454
  22 C :    0.165652
  23 H :    0.006196
  24 H :   -0.012328
  25 C :   -0.097690
  26 H :    0.016779
  27 H :    0.036454
  28 C :   -0.039096
  29 H :    0.037504
  30 H :    0.024154
  31 H :    0.026718
  32 H :    0.032446
  33 H :    0.003138
Sum of atomic charges:   -0.0000000

LOEWDIN ATOMIC CHARGES
----------------------
   0 S :    0.403385
   1 C :   -0.191777
   2 C :   -0.057945
   3 C :   -0.063831
   4 C :   -0.198714
   5 H :    0.033605
   6 C :   -0.035617
   7 H :    0.033102
   8 H :    0.028963
   9 C :   -0.043953
  10 H :    0.026032
  11 H :    0.023665
  12 C :   -0.072238
  13 H :    0.034888
  14 H :    0.025536
  15 H :    0.030491
  16 S :    0.393212
  17 C :   -0.154614
  18 C :   -0.071786
  19 C :   -0.042894
  20 C :   -0.205702
  21 H :    0.040891
  22 C :   -0.022187
  23 H :    0.021507
  24 H :    0.018239
  25 C :   -0.036535
  26 H :    0.019816
  27 H :    0.024754
  28 C :   -0.059632
  29 H :    0.030375
  30 H :    0.012963
  31 H :    0.030384
  32 H :    0.020553
  33 H :    0.005062

  Mayer bond orders larger than 0.100000
B(  0-S ,  1-C ) :   1.1356 B(  0-S ,  4-C ) :   1.1376 B(  1-C ,  2-C ) :   1.6423
B(  1-C , 32-H ) :   0.9598 B(  2-C ,  3-C ) :   1.2166 B(  2-C ,  6-C ) :   1.0324
B(  3-C ,  4-C ) :   1.6171 B(  3-C ,  5-H ) :   0.9832 B(  4-C , 20-C ) :   1.0182
B(  6-C ,  7-H ) :   0.9404 B(  6-C ,  8-H ) :   0.9497 B(  6-C ,  9-C ) :   1.0680
B(  9-C , 10-H ) :   0.9627 B(  9-C , 11-H ) :   0.9600 B(  9-C , 12-C ) :   1.0429
B( 12-C , 13-H ) :   0.9779 B( 12-C , 14-H ) :   0.9721 B( 12-C , 15-H ) :   0.9762
B( 16-S , 17-C ) :   1.1371 B( 16-S , 20-C ) :   1.1314 B( 17-C , 18-C ) :   1.6456
B( 17-C , 33-H ) :   0.9793 B( 18-C , 19-C ) :   1.2137 B( 18-C , 21-H ) :   0.9808
B( 19-C , 20-C ) :   1.6083 B( 19-C , 22-C ) :   1.0474 B( 22-C , 23-H ) :   0.9272
B( 22-C , 24-H ) :   0.9153 B( 22-C , 25-C ) :   1.0685 B( 25-C , 26-H ) :   0.9554
B( 25-C , 27-H ) :   0.9523 B( 25-C , 28-C ) :   1.0890 B( 28-C , 29-H ) :   0.9746
B( 28-C , 30-H ) :   0.9776 B( 28-C , 31-H ) :   0.9727

Dispersion correction           -0.014177762
FINAL SINGLE POINT ENERGY     -1339.850698335882

DIPOLE MOMENT
-------------
                                X             Y             Z
Electronic contribution:    -13.17054      21.74582      16.08407
Nuclear contribution   :     13.14954     -22.31453     -16.43694
                        -----------------------------------------
Total Dipole Moment    :     -0.02100      -0.56871      -0.35287
                        -----------------------------------------
Magnitude (a.u.)       :      0.66962
Magnitude (Debye)      :      1.70203

Rotational constants in cm-1:     0.016667     0.009421     0.006704
Rotational constants in MHz :   499.656570   282.425413   200.975664

                             ****ORCA TERMINATED NORMALLY****
TOTAL RUN TIME: 0 days 0 hours 0 minutes 21 seconds 747 msec
