                         Program Version 4.2.1 -  RELEASE  -
|  1> ! wB97X-D3 SP def2-SVP
|  2> %pal
|  3> nprocs 24
|  4> end
|  5>
|  6> * xyz 0 1
|  7> S 	 -59.2796 	 16.3089 	 -100.036
|  8> C 	 -60.375 	 17.6275 	 -100.245
|  9> C 	 -60.7821 	 18.1148 	 -98.9817
| 10> C 	 -59.9617 	 17.6554 	 -97.9219
| 11> C 	 -58.9478 	 16.7352 	 -98.3997
| 12> H 	 -59.9626 	 17.921 	 -96.8839
| 13> C 	 -61.8348 	 19.1828 	 -98.7521
| 14> H 	 -61.5309 	 20.0131 	 -99.3249
| 15> H 	 -61.8684 	 19.477 	 -97.7649
| 16> C 	 -63.2549 	 18.62 	 -98.9937
| 17> H 	 -63.3152 	 18.361 	 -100.096
| 18> H 	 -63.374 	 17.6553 	 -98.4288
| 19> C 	 -64.4027 	 19.5833 	 -98.5501
| 20> H 	 -64.7228 	 20.3175 	 -99.3178
| 21> H 	 -65.3461 	 19.1099 	 -98.3253
| 22> H 	 -64.0682 	 19.9752 	 -97.605
| 23> S 	 -56.4283 	 16.9008 	 -97.1694
| 24> C 	 -55.954 	 15.5217 	 -96.0923
| 25> C 	 -56.8482 	 14.448 	 -96.2162
| 26> C 	 -57.9474 	 14.8037 	 -97.0616
| 27> C 	 -57.8886 	 16.0415 	 -97.6793
| 28> H 	 -56.7426 	 13.5829 	 -95.6102
| 29> C 	 -59.1457 	 13.8873 	 -97.1095
| 30> H 	 -60.0922 	 14.2984 	 -97.5236
| 31> H 	 -59.3946 	 13.4959 	 -96.1371
| 32> C 	 -58.9484 	 12.6559 	 -97.8959
| 33> H 	 -58.0822 	 12.1369 	 -97.622
| 34> H 	 -58.693 	 12.8392 	 -98.9728
| 35> C 	 -60.1511 	 11.7047 	 -97.9532
| 36> H 	 -61.0348 	 12.0046 	 -98.4885
| 37> H 	 -60.4398 	 11.3926 	 -96.9876
| 38> H 	 -59.7885 	 10.8623 	 -98.5412
| 39> H 	 -60.857 	 17.9288 	 -101.133
| 40> H 	 -55.1991 	 15.4645 	 -95.3414
| 41> *
| 42>
| 43>                          ****END OF INPUT****

CARTESIAN COORDINATES (ANGSTROEM)
---------------------------------
  S    -59.279600   16.308900  -100.036000
  C    -60.375000   17.627500  -100.245000
  C    -60.782100   18.114800  -98.981700
  C    -59.961700   17.655400  -97.921900
  C    -58.947800   16.735200  -98.399700
  H    -59.962600   17.921000  -96.883900
  C    -61.834800   19.182800  -98.752100
  H    -61.530900   20.013100  -99.324900
  H    -61.868400   19.477000  -97.764900
  C    -63.254900   18.620000  -98.993700
  H    -63.315200   18.361000  -100.096000
  H    -63.374000   17.655300  -98.428800
  C    -64.402700   19.583300  -98.550100
  H    -64.722800   20.317500  -99.317800
  H    -65.346100   19.109900  -98.325300
  H    -64.068200   19.975200  -97.605000
  S    -56.428300   16.900800  -97.169400
  C    -55.954000   15.521700  -96.092300
  C    -56.848200   14.448000  -96.216200
  C    -57.947400   14.803700  -97.061600
  C    -57.888600   16.041500  -97.679300
  H    -56.742600   13.582900  -95.610200
  C    -59.145700   13.887300  -97.109500
  H    -60.092200   14.298400  -97.523600
  H    -59.394600   13.495900  -96.137100
  C    -58.948400   12.655900  -97.895900
  H    -58.082200   12.136900  -97.622000
  H    -58.693000   12.839200  -98.972800
  C    -60.151100   11.704700  -97.953200
  H    -61.034800   12.004600  -98.488500
  H    -60.439800   11.392600  -96.987600
  H    -59.788500   10.862300  -98.541200
  H    -60.857000   17.928800  -101.133000
  H    -55.199100   15.464500  -95.341400

 Total Charge           Charge          ....    0
 Multiplicity           Mult            ....    1
 Number of Electrons    NEL             ....  134
 Basis Dimension        Dim             ....  322

ORBITAL ENERGIES
----------------

  NO   OCC          E(Eh)            E(eV)
   0   2.0000     -88.969072     -2420.9715
   1   2.0000     -88.968556     -2420.9575
   2   2.0000     -10.330570      -281.1091
   3   2.0000     -10.326289      -280.9926
   4   2.0000     -10.324889      -280.9545
   5   2.0000     -10.311545      -280.5914
   6   2.0000     -10.303406      -280.3699
   7   2.0000     -10.302986      -280.3585
   8   2.0000     -10.299351      -280.2596
   9   2.0000     -10.296937      -280.1939
  10   2.0000     -10.295911      -280.1660
  11   2.0000     -10.282560      -279.8027
  12   2.0000     -10.282450      -279.7997
  13   2.0000     -10.280191      -279.7382
  14   2.0000     -10.274481      -279.5828
  15   2.0000     -10.269676      -279.4521
  16   2.0000      -8.083991      -219.9766
  17   2.0000      -8.081671      -219.9135
  18   2.0000      -6.042201      -164.4167
  19   2.0000      -6.040366      -164.3667
  20   2.0000      -6.038384      -164.3128
  21   2.0000      -6.036414      -164.2592
  22   2.0000      -6.035150      -164.2248
  23   2.0000      -6.032300      -164.1472
  24   2.0000      -1.002663       -27.2838
  25   2.0000      -0.979536       -26.6545
  26   2.0000      -0.913970       -24.8704
  27   2.0000      -0.911118       -24.7928
  28   2.0000      -0.865758       -23.5585
  29   2.0000      -0.848633       -23.0925
  30   2.0000      -0.845741       -23.0138
  31   2.0000      -0.811849       -22.0915
  32   2.0000      -0.785573       -21.3765
  33   2.0000      -0.771194       -20.9853
  34   2.0000      -0.704469       -19.1696
  35   2.0000      -0.699117       -19.0239
  36   2.0000      -0.693626       -18.8745
  37   2.0000      -0.664473       -18.0812
  38   2.0000      -0.645492       -17.5647
  39   2.0000      -0.612854       -16.6766
  40   2.0000      -0.599593       -16.3158
  41   2.0000      -0.579592       -15.7715
  42   2.0000      -0.566295       -15.4097
  43   2.0000      -0.561437       -15.2775
  44   2.0000      -0.524805       -14.2807
  45   2.0000      -0.523226       -14.2377
  46   2.0000      -0.514336       -13.9958
  47   2.0000      -0.513035       -13.9604
  48   2.0000      -0.508898       -13.8478
  49   2.0000      -0.500402       -13.6166
  50   2.0000      -0.493282       -13.4229
  51   2.0000      -0.480402       -13.0724
  52   2.0000      -0.475665       -12.9435
  53   2.0000      -0.465886       -12.6774
  54   2.0000      -0.462032       -12.5725
  55   2.0000      -0.446103       -12.1391
  56   2.0000      -0.440549       -11.9880
  57   2.0000      -0.434406       -11.8208
  58   2.0000      -0.428761       -11.6672
  59   2.0000      -0.423396       -11.5212
  60   2.0000      -0.421505       -11.4697
  61   2.0000      -0.417616       -11.3639
  62   2.0000      -0.401875       -10.9356
  63   2.0000      -0.335522        -9.1300
  64   2.0000      -0.330401        -8.9907
  65   2.0000      -0.321462        -8.7474
  66   2.0000      -0.300096        -8.1660
  67   0.0000       0.032862         0.8942
  68   0.0000       0.049098         1.3360
  69   0.0000       0.106016         2.8848
  70   0.0000       0.117175         3.1885
  71   0.0000       0.129377         3.5205

MULLIKEN ATOMIC CHARGES
-----------------------
   0 S :    0.138954
   1 C :   -0.086812
   2 C :   -0.125554
   3 C :    0.063044
   4 C :   -0.217064
   5 H :    0.011288
   6 C :    0.142343
   7 H :    0.032629
   8 H :   -0.014499
   9 C :   -0.137523
  10 H :    0.033276
  11 H :    0.043640
  12 C :   -0.027832
  13 H :    0.043579
  14 H :    0.025140
  15 H :    0.021759
  16 S :    0.106293
  17 C :   -0.085069
  18 C :   -0.019593
  19 C :   -0.002646
  20 C :   -0.151537
  21 H :    0.017560
  22 C :    0.099366
  23 H :    0.028015
  24 H :    0.007877
  25 C :   -0.101253
  26 H :    0.003325
  27 H :    0.015327
  28 C :   -0.014290
  29 H :    0.030169
  30 H :    0.013969
  31 H :    0.027005
  32 H :    0.030810
  33 H :    0.048303
Sum of atomic charges:   -0.0000000

LOEWDIN ATOMIC CHARGES
----------------------
   0 S :    0.449047
   1 C :   -0.205096
   2 C :   -0.056187
   3 C :   -0.053021
   4 C :   -0.208187
   5 H :    0.030668
   6 C :   -0.022978
   7 H :    0.029696
   8 H :    0.015952
   9 C :   -0.042655
  10 H :    0.023166
  11 H :    0.031898
  12 C :   -0.071976
  13 H :    0.031529
  14 H :    0.024745
  15 H :    0.022152
  16 S :    0.380925
  17 C :   -0.159396
  18 C :   -0.062155
  19 C :   -0.047136
  20 C :   -0.211544
  21 H :    0.029253
  22 C :   -0.036640
  23 H :    0.033638
  24 H :    0.027004
  25 C :   -0.044528
  26 H :    0.011361
  27 H :    0.024621
  28 C :   -0.058026
  29 H :    0.023725
  30 H :    0.013937
  31 H :    0.031547
  32 H :    0.018560
  33 H :    0.026099

  Mayer bond orders larger than 0.100000
B(  0-S ,  1-C ) :   1.1696 B(  0-S ,  4-C ) :   1.1992 B(  1-C ,  2-C ) :   1.5366
B(  1-C ,  4-C ) :   0.1196 B(  1-C , 32-H ) :   0.9769 B(  2-C ,  3-C ) :   1.2919
B(  2-C ,  6-C ) :   1.0287 B(  3-C ,  4-C ) :   1.5018 B(  3-C ,  5-H ) :   1.0024
B(  4-C , 20-C ) :   1.0214 B(  6-C ,  7-H ) :   0.9413 B(  6-C ,  8-H ) :   0.9336
B(  6-C ,  9-C ) :   1.0474 B(  9-C , 10-H ) :   0.9620 B(  9-C , 11-H ) :   0.9586
B(  9-C , 12-C ) :   1.0706 B( 12-C , 13-H ) :   0.9760 B( 12-C , 14-H ) :   0.9765
B( 12-C , 15-H ) :   0.9731 B( 16-S , 17-C ) :   1.1492 B( 16-S , 20-C ) :   1.1061
B( 17-C , 18-C ) :   1.6244 B( 17-C , 33-H ) :   0.9674 B( 18-C , 19-C ) :   1.2251
B( 18-C , 21-H ) :   0.9906 B( 19-C , 20-C ) :   1.6245 B( 19-C , 22-C ) :   1.0492
B( 22-C , 23-H ) :   0.9331 B( 22-C , 24-H ) :   0.9293 B( 22-C , 25-C ) :   1.0633
B( 25-C , 26-H ) :   0.9535 B( 25-C , 27-H ) :   0.9442 B( 25-C , 28-C ) :   1.0895
B( 28-C , 29-H ) :   0.9749 B( 28-C , 30-H ) :   0.9730 B( 28-C , 31-H ) :   0.9715

Dispersion correction           -0.014021414
FINAL SINGLE POINT ENERGY     -1339.853566590292

DIPOLE MOMENT
-------------
                                X             Y             Z
Electronic contribution:     24.34275       5.60734      -2.05815
Nuclear contribution   :    -24.87536      -5.73854       2.42220
                        -----------------------------------------
Total Dipole Moment    :     -0.53261      -0.13120       0.36406
                        -----------------------------------------
Magnitude (a.u.)       :      0.65835
Magnitude (Debye)      :      1.67340

Rotational constants in cm-1:     0.019025     0.007677     0.006424
Rotational constants in MHz :   570.361505   230.138483   192.597571

                             ****ORCA TERMINATED NORMALLY****
TOTAL RUN TIME: 0 days 0 hours 0 minutes 21 seconds 71 msec
