                         Program Version 4.2.1 -  RELEASE  -
|  1> ! wB97X-D3 SP def2-SVP
|  2> %pal
|  3> nprocs 24
|  4> end
|  5>
|  6> * xyz 0 1
|  7> S 	 -103.392 	 24.0928 	 -110.472
|  8> C 	 -103.449 	 22.348 	 -110.696
|  9> C 	 -104.7 	 21.9701 	 -111.116
| 10> C 	 -105.628 	 23.0677 	 -110.971
| 11> C 	 -105.061 	 24.2572 	 -110.772
| 12> H 	 -106.7 	 22.9739 	 -111.193
| 13> C 	 -105.085 	 20.5997 	 -111.379
| 14> H 	 -105.591 	 20.1979 	 -110.49
| 15> H 	 -104.184 	 19.9301 	 -111.36
| 16> C 	 -105.808 	 20.3128 	 -112.704
| 17> H 	 -106.299 	 19.2773 	 -112.702
| 18> H 	 -106.703 	 21.026 	 -112.876
| 19> C 	 -104.918 	 20.5031 	 -113.915
| 20> H 	 -105.593 	 20.5032 	 -114.766
| 21> H 	 -104.4 	 21.4784 	 -113.996
| 22> H 	 -104.194 	 19.7083 	 -114.071
| 23> S 	 -105.557 	 26.2492 	 -108.995
| 24> C 	 -106.529 	 27.5613 	 -109.421
| 25> C 	 -107.125 	 27.3989 	 -110.648
| 26> C 	 -106.735 	 26.1655 	 -111.317
| 27> C 	 -105.803 	 25.4699 	 -110.549
| 28> H 	 -107.629 	 28.1576 	 -111.161
| 29> C 	 -107.159 	 25.9042 	 -112.728
| 30> H 	 -108.257 	 26.1397 	 -112.826
| 31> H 	 -107.009 	 24.8345 	 -112.779
| 32> C 	 -106.367 	 26.686 	 -113.899
| 33> H 	 -105.356 	 26.2909 	 -114
| 34> H 	 -106.169 	 27.6485 	 -113.588
| 35> C 	 -107.11 	 26.5244 	 -115.275
| 36> H 	 -107.037 	 25.5133 	 -115.654
| 37> H 	 -106.648 	 27.1405 	 -116
| 38> H 	 -108.203 	 26.7319 	 -115.291
| 39> H 	 -102.548 	 21.8161 	 -110.579
| 40> H 	 -106.605 	 28.5295 	 -108.924
| 41> *
| 42>
| 43>                          ****END OF INPUT****

CARTESIAN COORDINATES (ANGSTROEM)
---------------------------------
  S    -103.392000   24.092800  -110.472000
  C    -103.449000   22.348000  -110.696000
  C    -104.700000   21.970100  -111.116000
  C    -105.628000   23.067700  -110.971000
  C    -105.061000   24.257200  -110.772000
  H    -106.700000   22.973900  -111.193000
  C    -105.085000   20.599700  -111.379000
  H    -105.591000   20.197900  -110.490000
  H    -104.184000   19.930100  -111.360000
  C    -105.808000   20.312800  -112.704000
  H    -106.299000   19.277300  -112.702000
  H    -106.703000   21.026000  -112.876000
  C    -104.918000   20.503100  -113.915000
  H    -105.593000   20.503200  -114.766000
  H    -104.400000   21.478400  -113.996000
  H    -104.194000   19.708300  -114.071000
  S    -105.557000   26.249200  -108.995000
  C    -106.529000   27.561300  -109.421000
  C    -107.125000   27.398900  -110.648000
  C    -106.735000   26.165500  -111.317000
  C    -105.803000   25.469900  -110.549000
  H    -107.629000   28.157600  -111.161000
  C    -107.159000   25.904200  -112.728000
  H    -108.257000   26.139700  -112.826000
  H    -107.009000   24.834500  -112.779000
  C    -106.367000   26.686000  -113.899000
  H    -105.356000   26.290900  -114.000000
  H    -106.169000   27.648500  -113.588000
  C    -107.110000   26.524400  -115.275000
  H    -107.037000   25.513300  -115.654000
  H    -106.648000   27.140500  -116.000000
  H    -108.203000   26.731900  -115.291000
  H    -102.548000   21.816100  -110.579000
  H    -106.605000   28.529500  -108.924000

 Total Charge           Charge          ....    0
 Multiplicity           Mult            ....    1
 Number of Electrons    NEL             ....  134
 Basis Dimension        Dim             ....  322

ORBITAL ENERGIES
----------------

  NO   OCC          E(Eh)            E(eV)
   0   2.0000     -88.962626     -2420.7961
   1   2.0000     -88.960343     -2420.7340
   2   2.0000     -10.322459      -280.8884
   3   2.0000     -10.318408      -280.7782
   4   2.0000     -10.311837      -280.5994
   5   2.0000     -10.309994      -280.5492
   6   2.0000     -10.301364      -280.3144
   7   2.0000     -10.300524      -280.2915
   8   2.0000     -10.299210      -280.2558
   9   2.0000     -10.295351      -280.1507
  10   2.0000     -10.291243      -280.0390
  11   2.0000     -10.289411      -279.9891
  12   2.0000     -10.288649      -279.9684
  13   2.0000     -10.284771      -279.8628
  14   2.0000     -10.279876      -279.7296
  15   2.0000     -10.276279      -279.6318
  16   2.0000      -8.078502      -219.8272
  17   2.0000      -8.076412      -219.7703
  18   2.0000      -6.036948      -164.2737
  19   2.0000      -6.034836      -164.2162
  20   2.0000      -6.032787      -164.1605
  21   2.0000      -6.030795      -164.1063
  22   2.0000      -6.029311      -164.0659
  23   2.0000      -6.027106      -164.0059
  24   2.0000      -1.015291       -27.6275
  25   2.0000      -0.989440       -26.9240
  26   2.0000      -0.917634       -24.9701
  27   2.0000      -0.900122       -24.4936
  28   2.0000      -0.873115       -23.7587
  29   2.0000      -0.851766       -23.1777
  30   2.0000      -0.845666       -23.0117
  31   2.0000      -0.817437       -22.2436
  32   2.0000      -0.783097       -21.3091
  33   2.0000      -0.770902       -20.9773
  34   2.0000      -0.716016       -19.4838
  35   2.0000      -0.700631       -19.0652
  36   2.0000      -0.692849       -18.8534
  37   2.0000      -0.660693       -17.9784
  38   2.0000      -0.645513       -17.5653
  39   2.0000      -0.625092       -17.0096
  40   2.0000      -0.591487       -16.0952
  41   2.0000      -0.569228       -15.4895
  42   2.0000      -0.556959       -15.1556
  43   2.0000      -0.550795       -14.9879
  44   2.0000      -0.535622       -14.5750
  45   2.0000      -0.525245       -14.2926
  46   2.0000      -0.521091       -14.1796
  47   2.0000      -0.512247       -13.9389
  48   2.0000      -0.504625       -13.7316
  49   2.0000      -0.500955       -13.6317
  50   2.0000      -0.493713       -13.4346
  51   2.0000      -0.479056       -13.0358
  52   2.0000      -0.472378       -12.8541
  53   2.0000      -0.467541       -12.7224
  54   2.0000      -0.457570       -12.4511
  55   2.0000      -0.448288       -12.1985
  56   2.0000      -0.441307       -12.0086
  57   2.0000      -0.438460       -11.9311
  58   2.0000      -0.435509       -11.8508
  59   2.0000      -0.424666       -11.5557
  60   2.0000      -0.420072       -11.4307
  61   2.0000      -0.415869       -11.3164
  62   2.0000      -0.412534       -11.2256
  63   2.0000      -0.344987        -9.3876
  64   2.0000      -0.328856        -8.9486
  65   2.0000      -0.323757        -8.8099
  66   2.0000      -0.297917        -8.1067
  67   0.0000       0.036094         0.9822
  68   0.0000       0.077910         2.1200
  69   0.0000       0.117030         3.1845
  70   0.0000       0.118708         3.2302
  71   0.0000       0.129550         3.5252

MULLIKEN ATOMIC CHARGES
-----------------------
   0 S :    0.096268
   1 C :   -0.128020
   2 C :   -0.055063
   3 C :    0.018369
   4 C :   -0.143867
   5 H :    0.027994
   6 C :    0.058039
   7 H :    0.042782
   8 H :    0.014837
   9 C :   -0.120887
  10 H :    0.044069
  11 H :    0.037131
  12 C :   -0.046846
  13 H :    0.024063
  14 H :    0.046017
  15 H :    0.031820
  16 S :    0.121589
  17 C :   -0.080659
  18 C :   -0.023554
  19 C :   -0.054758
  20 C :   -0.167325
  21 H :   -0.002954
  22 C :    0.046899
  23 H :    0.037675
  24 H :    0.014172
  25 C :   -0.019748
  26 H :    0.029488
  27 H :    0.007952
  28 C :   -0.049381
  29 H :    0.030047
  30 H :    0.027835
  31 H :    0.035229
  32 H :    0.040370
  33 H :    0.060416
Sum of atomic charges:   -0.0000000

LOEWDIN ATOMIC CHARGES
----------------------
   0 S :    0.409034
   1 C :   -0.176050
   2 C :   -0.064641
   3 C :   -0.060869
   4 C :   -0.215505
   5 H :    0.033846
   6 C :   -0.047667
   7 H :    0.038780
   8 H :    0.034883
   9 C :   -0.050823
  10 H :    0.034281
  11 H :    0.028333
  12 C :   -0.070620
  13 H :    0.026341
  14 H :    0.031933
  15 H :    0.022317
  16 S :    0.428786
  17 C :   -0.207705
  18 C :   -0.069025
  19 C :   -0.056050
  20 C :   -0.197211
  21 H :    0.019283
  22 C :   -0.036022
  23 H :    0.037069
  24 H :    0.026458
  25 C :   -0.023380
  26 H :    0.030355
  27 H :    0.010428
  28 C :   -0.065648
  29 H :    0.026310
  30 H :    0.021539
  31 H :    0.027876
  32 H :    0.018038
  33 H :    0.035323

  Mayer bond orders larger than 0.100000
B(  0-S ,  1-C ) :   1.1359 B(  0-S ,  4-C ) :   1.1462 B(  1-C ,  2-C ) :   1.5880
B(  1-C , 32-H ) :   0.9813 B(  2-C ,  3-C ) :   1.2127 B(  2-C ,  6-C ) :   1.0521
B(  3-C ,  4-C ) :   1.6085 B(  3-C ,  5-H ) :   0.9835 B(  4-C , 20-C ) :   1.0214
B(  6-C ,  7-H ) :   0.9320 B(  6-C ,  8-H ) :   0.9368 B(  6-C ,  9-C ) :   1.0566
B(  9-C , 10-H ) :   0.9528 B(  9-C , 11-H ) :   0.9613 B(  9-C , 12-C ) :   1.0728
B( 12-C , 13-H ) :   0.9725 B( 12-C , 14-H ) :   0.9737 B( 12-C , 15-H ) :   0.9741
B( 16-S , 17-C ) :   1.1614 B( 16-S , 20-C ) :   1.1479 B( 17-C , 18-C ) :   1.6136
B( 17-C , 33-H ) :   0.9622 B( 18-C , 19-C ) :   1.2340 B( 18-C , 21-H ) :   0.9933
B( 19-C , 20-C ) :   1.6011 B( 19-C , 22-C ) :   1.0606 B( 22-C , 23-H ) :   0.9377
B( 22-C , 24-H ) :   0.9260 B( 22-C , 25-C ) :   1.0474 B( 25-C , 26-H ) :   0.9522
B( 25-C , 27-H ) :   0.9647 B( 25-C , 28-C ) :   1.0696 B( 28-C , 29-H ) :   0.9771
B( 28-C , 30-H ) :   0.9751 B( 28-C , 31-H ) :   0.9787

Dispersion correction           -0.014144351
FINAL SINGLE POINT ENERGY     -1339.875878697228

DIPOLE MOMENT
-------------
                                X             Y             Z
Electronic contribution:      9.46828      10.69704      25.64275
Nuclear contribution   :     -9.67775     -10.91967     -26.15451
                        -----------------------------------------
Total Dipole Moment    :     -0.20948      -0.22263      -0.51177
                        -----------------------------------------
Magnitude (a.u.)       :      0.59611
Magnitude (Debye)      :      1.51520

Rotational constants in cm-1:     0.016822     0.009612     0.006948
Rotational constants in MHz :   504.307060   288.156270   208.299629

                             ****ORCA TERMINATED NORMALLY****
TOTAL RUN TIME: 0 days 0 hours 0 minutes 21 seconds 670 msec
