                         Program Version 4.2.1 -  RELEASE  -
|  1> ! wB97X-D3 SP def2-SVP
|  2> %pal
|  3> nprocs 24
|  4> end
|  5>
|  6> * xyz 0 1
|  7> S 	 -142.599 	 8.30414 	 -2.62959
|  8> C 	 -143.167 	 9.68068 	 -1.6731
|  9> C 	 -143.765 	 9.30906 	 -0.454304
| 10> C 	 -143.992 	 7.88164 	 -0.398187
| 11> C 	 -143.44 	 7.20251 	 -1.46923
| 12> H 	 -144.454 	 7.3398 	 0.434407
| 13> C 	 -144.133 	 10.2613 	 0.663631
| 14> H 	 -143.287 	 10.9608 	 0.579446
| 15> H 	 -144.135 	 9.68411 	 1.5535
| 16> C 	 -145.539 	 10.9058 	 0.63059
| 17> H 	 -145.692 	 11.2662 	 -0.307216
| 18> H 	 -146.341 	 10.1895 	 0.696037
| 19> C 	 -145.716 	 11.9356 	 1.71426
| 20> H 	 -145.195 	 11.7259 	 2.66851
| 21> H 	 -145.59 	 12.9419 	 1.32282
| 22> H 	 -146.729 	 11.8471 	 2.11089
| 23> S 	 -144.454 	 4.98166 	 -2.81811
| 24> C 	 -143.814 	 3.38124 	 -2.49864
| 25> C 	 -142.823 	 3.41213 	 -1.56845
| 26> C 	 -142.515 	 4.73466 	 -1.09354
| 27> C 	 -143.411 	 5.70486 	 -1.59529
| 28> H 	 -142.337 	 2.51122 	 -1.24539
| 29> C 	 -141.33 	 4.97144 	 -0.0659007
| 30> H 	 -141.548 	 4.26601 	 0.732555
| 31> H 	 -141.549 	 5.91057 	 0.377536
| 32> C 	 -139.925 	 4.82206 	 -0.617485
| 33> H 	 -139.998 	 3.86989 	 -1.16912
| 34> H 	 -139.285 	 4.66105 	 0.276773
| 35> C 	 -139.544 	 6.06376 	 -1.50816
| 36> H 	 -140.248 	 6.08577 	 -2.31183
| 37> H 	 -138.58 	 5.92911 	 -1.95062
| 38> H 	 -139.659 	 7.07232 	 -1.07203
| 39> H 	 -142.948 	 10.6956 	 -1.9821
| 40> H 	 -144.157 	 2.48598 	 -3.00682
| 41> *
| 42>
| 43>                          ****END OF INPUT****

CARTESIAN COORDINATES (ANGSTROEM)
---------------------------------
  S    -142.599000    8.304140   -2.629590
  C    -143.167000    9.680680   -1.673100
  C    -143.765000    9.309060   -0.454304
  C    -143.992000    7.881640   -0.398187
  C    -143.440000    7.202510   -1.469230
  H    -144.454000    7.339800    0.434407
  C    -144.133000   10.261300    0.663631
  H    -143.287000   10.960800    0.579446
  H    -144.135000    9.684110    1.553500
  C    -145.539000   10.905800    0.630590
  H    -145.692000   11.266200   -0.307216
  H    -146.341000   10.189500    0.696037
  C    -145.716000   11.935600    1.714260
  H    -145.195000   11.725900    2.668510
  H    -145.590000   12.941900    1.322820
  H    -146.729000   11.847100    2.110890
  S    -144.454000    4.981660   -2.818110
  C    -143.814000    3.381240   -2.498640
  C    -142.823000    3.412130   -1.568450
  C    -142.515000    4.734660   -1.093540
  C    -143.411000    5.704860   -1.595290
  H    -142.337000    2.511220   -1.245390
  C    -141.330000    4.971440   -0.065901
  H    -141.548000    4.266010    0.732555
  H    -141.549000    5.910570    0.377536
  C    -139.925000    4.822060   -0.617485
  H    -139.998000    3.869890   -1.169120
  H    -139.285000    4.661050    0.276773
  C    -139.544000    6.063760   -1.508160
  H    -140.248000    6.085770   -2.311830
  H    -138.580000    5.929110   -1.950620
  H    -139.659000    7.072320   -1.072030
  H    -142.948000   10.695600   -1.982100
  H    -144.157000    2.485980   -3.006820

 Total Charge           Charge          ....    0
 Multiplicity           Mult            ....    1
 Number of Electrons    NEL             ....  134
 Basis Dimension        Dim             ....  322

ORBITAL ENERGIES
----------------

  NO   OCC          E(Eh)            E(eV)
   0   2.0000     -88.969380     -2420.9799
   1   2.0000     -88.962147     -2420.7831
   2   2.0000     -10.334805      -281.2244
   3   2.0000     -10.329470      -281.0792
   4   2.0000     -10.318564      -280.7824
   5   2.0000     -10.316121      -280.7159
   6   2.0000     -10.308307      -280.5033
   7   2.0000     -10.304881      -280.4101
   8   2.0000     -10.298892      -280.2471
   9   2.0000     -10.291387      -280.0429
  10   2.0000     -10.291016      -280.0328
  11   2.0000     -10.290705      -280.0243
  12   2.0000     -10.287030      -279.9243
  13   2.0000     -10.277731      -279.6713
  14   2.0000     -10.276724      -279.6439
  15   2.0000     -10.272315      -279.5239
  16   2.0000      -8.082463      -219.9350
  17   2.0000      -8.076789      -219.7806
  18   2.0000      -6.041064      -164.3857
  19   2.0000      -6.037309      -164.2835
  20   2.0000      -6.035303      -164.2290
  21   2.0000      -6.033123      -164.1696
  22   2.0000      -6.031257      -164.1189
  23   2.0000      -6.027607      -164.0195
  24   2.0000      -0.995256       -27.0823
  25   2.0000      -0.975943       -26.5568
  26   2.0000      -0.912657       -24.8347
  27   2.0000      -0.901874       -24.5412
  28   2.0000      -0.864041       -23.5118
  29   2.0000      -0.849827       -23.1250
  30   2.0000      -0.837943       -22.8016
  31   2.0000      -0.813327       -22.1317
  32   2.0000      -0.781453       -21.2644
  33   2.0000      -0.768303       -20.9066
  34   2.0000      -0.709883       -19.3169
  35   2.0000      -0.701732       -19.0951
  36   2.0000      -0.690869       -18.7995
  37   2.0000      -0.653145       -17.7730
  38   2.0000      -0.641300       -17.4507
  39   2.0000      -0.613984       -16.7073
  40   2.0000      -0.592748       -16.1295
  41   2.0000      -0.578981       -15.7549
  42   2.0000      -0.556664       -15.1476
  43   2.0000      -0.547309       -14.8930
  44   2.0000      -0.534749       -14.5512
  45   2.0000      -0.519865       -14.1462
  46   2.0000      -0.515577       -14.0296
  47   2.0000      -0.510170       -13.8824
  48   2.0000      -0.506829       -13.7915
  49   2.0000      -0.491914       -13.3857
  50   2.0000      -0.490603       -13.3500
  51   2.0000      -0.475334       -12.9345
  52   2.0000      -0.469305       -12.7704
  53   2.0000      -0.461343       -12.5538
  54   2.0000      -0.454932       -12.3793
  55   2.0000      -0.450743       -12.2653
  56   2.0000      -0.442579       -12.0432
  57   2.0000      -0.432007       -11.7555
  58   2.0000      -0.430456       -11.7133
  59   2.0000      -0.426515       -11.6061
  60   2.0000      -0.424172       -11.5423
  61   2.0000      -0.418757       -11.3949
  62   2.0000      -0.407973       -11.1015
  63   2.0000      -0.336867        -9.1666
  64   2.0000      -0.329921        -8.9776
  65   2.0000      -0.318956        -8.6792
  66   2.0000      -0.306620        -8.3435
  67   0.0000       0.040957         1.1145
  68   0.0000       0.052896         1.4394
  69   0.0000       0.100783         2.7425
  70   0.0000       0.124882         3.3982
  71   0.0000       0.128698         3.5020

MULLIKEN ATOMIC CHARGES
-----------------------
   0 S :    0.110315
   1 C :   -0.131069
   2 C :   -0.107886
   3 C :    0.043700
   4 C :   -0.149156
   5 H :    0.026485
   6 C :    0.075284
   7 H :    0.037807
   8 H :    0.010954
   9 C :   -0.009454
  10 H :   -0.006140
  11 H :    0.015231
  12 C :   -0.042996
  13 H :    0.030394
  14 H :    0.044928
  15 H :    0.019963
  16 S :    0.099601
  17 C :   -0.089593
  18 C :   -0.023169
  19 C :   -0.064905
  20 C :   -0.198171
  21 H :    0.014841
  22 C :    0.079437
  23 H :    0.024037
  24 H :    0.006581
  25 C :   -0.057164
  26 H :    0.029872
  27 H :    0.039570
  28 C :   -0.027455
  29 H :    0.017937
  30 H :    0.031631
  31 H :    0.041023
  32 H :    0.048571
  33 H :    0.058995
Sum of atomic charges:   -0.0000000

LOEWDIN ATOMIC CHARGES
----------------------
   0 S :    0.379611
   1 C :   -0.192218
   2 C :   -0.060781
   3 C :   -0.056095
   4 C :   -0.183563
   5 H :    0.038194
   6 C :   -0.026700
   7 H :    0.037596
   8 H :    0.025344
   9 C :   -0.033281
  10 H :    0.010707
  11 H :    0.025154
  12 C :   -0.069797
  13 H :    0.030318
  14 H :    0.028822
  15 H :    0.028815
  16 S :    0.398805
  17 C :   -0.178785
  18 C :   -0.078209
  19 C :   -0.049558
  20 C :   -0.208562
  21 H :    0.029165
  22 C :   -0.027730
  23 H :    0.029816
  24 H :    0.020555
  25 C :   -0.038816
  26 H :    0.027731
  27 H :    0.028057
  28 C :   -0.062984
  29 H :    0.020049
  30 H :    0.022233
  31 H :    0.031308
  32 H :    0.023829
  33 H :    0.030970

  Mayer bond orders larger than 0.100000
B(  0-S ,  1-C ) :   1.1349 B(  0-S ,  4-C ) :   1.1318 B(  1-C ,  2-C ) :   1.6155
B(  1-C , 32-H ) :   0.9691 B(  2-C ,  3-C ) :   1.2225 B(  2-C ,  6-C ) :   1.0179
B(  3-C ,  4-C ) :   1.6143 B(  3-C ,  5-H ) :   0.9855 B(  4-C , 20-C ) :   1.0073
B(  6-C ,  7-H ) :   0.9445 B(  6-C ,  8-H ) :   0.9333 B(  6-C ,  9-C ) :   1.0654
B(  9-C , 10-H ) :   0.9533 B(  9-C , 11-H ) :   0.9553 B(  9-C , 12-C ) :   1.0765
B( 12-C , 13-H ) :   0.9720 B( 12-C , 14-H ) :   0.9785 B( 12-C , 15-H ) :   0.9737
B( 16-S , 17-C ) :   1.1580 B( 16-S , 20-C ) :   1.1453 B( 17-C , 18-C ) :   1.6139
B( 17-C , 33-H ) :   0.9662 B( 18-C , 19-C ) :   1.2381 B( 18-C , 21-H ) :   0.9899
B( 19-C , 20-C ) :   1.6032 B( 19-C , 22-C ) :   1.0161 B( 22-C , 23-H ) :   0.9397
B( 22-C , 24-H ) :   0.9353 B( 22-C , 25-C ) :   1.0631 B( 25-C , 26-H ) :   0.9569
B( 25-C , 27-H ) :   0.9554 B( 25-C , 28-C ) :   1.0602 B( 28-C , 29-H ) :   0.9737
B( 28-C , 30-H ) :   0.9751 B( 28-C , 31-H ) :   0.9769

Dispersion correction           -0.014760146
FINAL SINGLE POINT ENERGY     -1339.870713636310

DIPOLE MOMENT
-------------
                                X             Y             Z
Electronic contribution:     -5.10566     -11.36958     -17.36990
Nuclear contribution   :      5.17262      11.43087      17.91816
                        -----------------------------------------
Total Dipole Moment    :      0.06696       0.06129       0.54826
                        -----------------------------------------
Magnitude (a.u.)       :      0.55572
Magnitude (Debye)      :      1.41254

Rotational constants in cm-1:     0.021499     0.007300     0.006619
Rotational constants in MHz :   644.516807   218.855246   198.439952

                             ****ORCA TERMINATED NORMALLY****
TOTAL RUN TIME: 0 days 0 hours 0 minutes 21 seconds 294 msec
