                         Program Version 4.2.1 -  RELEASE  -
|  1> ! wB97X-D3 SP def2-SVP
|  2> %pal
|  3> nprocs 24
|  4> end
|  5>
|  6> * xyz 0 1
|  7> S 	 27.1708 	 -24.9901 	 -121.863
|  8> C 	 28.5131 	 -24.7356 	 -122.964
|  9> C 	 28.0748 	 -24.2458 	 -124.172
| 10> C 	 26.6783 	 -23.837 	 -124.186
| 11> C 	 26.0877 	 -24.1125 	 -122.985
| 12> H 	 26.1342 	 -23.373 	 -124.995
| 13> C 	 28.9994 	 -23.6682 	 -125.278
| 14> H 	 30.0098 	 -23.9391 	 -125.045
| 15> H 	 29.0497 	 -22.563 	 -125.152
| 16> C 	 28.4962 	 -24.09 	 -126.667
| 17> H 	 28.4429 	 -25.2285 	 -126.633
| 18> H 	 27.5081 	 -23.6388 	 -126.945
| 19> C 	 29.4651 	 -23.6947 	 -127.767
| 20> H 	 30.4027 	 -24.3067 	 -127.659
| 21> H 	 29.027 	 -23.839 	 -128.772
| 22> H 	 29.6396 	 -22.5674 	 -127.607
| 23> S 	 23.7837 	 -25.4033 	 -122.262
| 24> C 	 22.2637 	 -24.5746 	 -122.201
| 25> C 	 22.4972 	 -23.2167 	 -122.399
| 26> C 	 23.8482 	 -22.8872 	 -122.803
| 27> C 	 24.6595 	 -23.999 	 -122.738
| 28> H 	 21.6483 	 -22.5592 	 -122.378
| 29> C 	 24.181 	 -21.4074 	 -123.144
| 30> H 	 23.2206 	 -20.934 	 -123.392
| 31> H 	 24.829 	 -21.3537 	 -123.914
| 32> C 	 24.8216 	 -20.5242 	 -122.064
| 33> H 	 24.1555 	 -20.2771 	 -121.244
| 34> H 	 25.0908 	 -19.5767 	 -122.533
| 35> C 	 26.1424 	 -21.1083 	 -121.537
| 36> H 	 26.7032 	 -20.3367 	 -120.943
| 37> H 	 26.7952 	 -21.3921 	 -122.32
| 38> H 	 26.0174 	 -21.9212 	 -120.946
| 39> H 	 29.5761 	 -25.0893 	 -122.695
| 40> H 	 21.3366 	 -24.9664 	 -121.888
| 41> *
| 42>
| 43>                          ****END OF INPUT****

CARTESIAN COORDINATES (ANGSTROEM)
---------------------------------
  S     27.170800  -24.990100  -121.863000
  C     28.513100  -24.735600  -122.964000
  C     28.074800  -24.245800  -124.172000
  C     26.678300  -23.837000  -124.186000
  C     26.087700  -24.112500  -122.985000
  H     26.134200  -23.373000  -124.995000
  C     28.999400  -23.668200  -125.278000
  H     30.009800  -23.939100  -125.045000
  H     29.049700  -22.563000  -125.152000
  C     28.496200  -24.090000  -126.667000
  H     28.442900  -25.228500  -126.633000
  H     27.508100  -23.638800  -126.945000
  C     29.465100  -23.694700  -127.767000
  H     30.402700  -24.306700  -127.659000
  H     29.027000  -23.839000  -128.772000
  H     29.639600  -22.567400  -127.607000
  S     23.783700  -25.403300  -122.262000
  C     22.263700  -24.574600  -122.201000
  C     22.497200  -23.216700  -122.399000
  C     23.848200  -22.887200  -122.803000
  C     24.659500  -23.999000  -122.738000
  H     21.648300  -22.559200  -122.378000
  C     24.181000  -21.407400  -123.144000
  H     23.220600  -20.934000  -123.392000
  H     24.829000  -21.353700  -123.914000
  C     24.821600  -20.524200  -122.064000
  H     24.155500  -20.277100  -121.244000
  H     25.090800  -19.576700  -122.533000
  C     26.142400  -21.108300  -121.537000
  H     26.703200  -20.336700  -120.943000
  H     26.795200  -21.392100  -122.320000
  H     26.017400  -21.921200  -120.946000
  H     29.576100  -25.089300  -122.695000
  H     21.336600  -24.966400  -121.888000

 Total Charge           Charge          ....    0
 Multiplicity           Mult            ....    1
 Number of Electrons    NEL             ....  134
 Basis Dimension        Dim             ....  322

ORBITAL ENERGIES
----------------

  NO   OCC          E(Eh)            E(eV)
   0   2.0000     -88.967133     -2420.9188
   1   2.0000     -88.964151     -2420.8376
   2   2.0000     -10.331066      -281.1226
   3   2.0000     -10.323730      -280.9230
   4   2.0000     -10.323129      -280.9066
   5   2.0000     -10.312793      -280.6254
   6   2.0000     -10.304845      -280.4091
   7   2.0000     -10.304080      -280.3883
   8   2.0000     -10.296292      -280.1764
   9   2.0000     -10.295541      -280.1559
  10   2.0000     -10.295051      -280.1426
  11   2.0000     -10.292800      -280.0813
  12   2.0000     -10.288575      -279.9664
  13   2.0000     -10.286740      -279.9164
  14   2.0000     -10.281473      -279.7731
  15   2.0000     -10.259119      -279.1648
  16   2.0000      -8.081275      -219.9027
  17   2.0000      -8.079668      -219.8589
  18   2.0000      -6.039946      -164.3553
  19   2.0000      -6.038234      -164.3087
  20   2.0000      -6.035933      -164.2461
  21   2.0000      -6.033934      -164.1917
  22   2.0000      -6.031822      -164.1342
  23   2.0000      -6.030443      -164.0967
  24   2.0000      -1.008095       -27.4317
  25   2.0000      -0.983055       -26.7503
  26   2.0000      -0.909424       -24.7467
  27   2.0000      -0.907428       -24.6924
  28   2.0000      -0.871160       -23.7055
  29   2.0000      -0.849132       -23.1060
  30   2.0000      -0.842492       -22.9254
  31   2.0000      -0.814201       -22.1555
  32   2.0000      -0.784600       -21.3500
  33   2.0000      -0.768343       -20.9077
  34   2.0000      -0.705935       -19.2095
  35   2.0000      -0.694984       -18.9115
  36   2.0000      -0.683708       -18.6046
  37   2.0000      -0.662046       -18.0152
  38   2.0000      -0.640770       -17.4362
  39   2.0000      -0.620759       -16.8917
  40   2.0000      -0.598264       -16.2796
  41   2.0000      -0.570181       -15.5154
  42   2.0000      -0.559006       -15.2113
  43   2.0000      -0.548888       -14.9360
  44   2.0000      -0.541694       -14.7403
  45   2.0000      -0.523105       -14.2344
  46   2.0000      -0.515920       -14.0389
  47   2.0000      -0.512435       -13.9441
  48   2.0000      -0.506808       -13.7909
  49   2.0000      -0.496089       -13.4993
  50   2.0000      -0.492924       -13.4131
  51   2.0000      -0.478086       -13.0094
  52   2.0000      -0.470281       -12.7970
  53   2.0000      -0.463134       -12.6025
  54   2.0000      -0.458143       -12.4667
  55   2.0000      -0.452786       -12.3209
  56   2.0000      -0.441433       -12.0120
  57   2.0000      -0.430541       -11.7156
  58   2.0000      -0.427926       -11.6445
  59   2.0000      -0.425226       -11.5710
  60   2.0000      -0.419402       -11.4125
  61   2.0000      -0.413478       -11.2513
  62   2.0000      -0.411824       -11.2063
  63   2.0000      -0.351336        -9.5603
  64   2.0000      -0.329008        -8.9528
  65   2.0000      -0.327824        -8.9205
  66   2.0000      -0.295697        -8.0463
  67   0.0000       0.034786         0.9466
  68   0.0000       0.066079         1.7981
  69   0.0000       0.111196         3.0258
  70   0.0000       0.113883         3.0989
  71   0.0000       0.129405         3.5213

MULLIKEN ATOMIC CHARGES
-----------------------
   0 S :    0.099763
   1 C :   -0.158998
   2 C :   -0.045561
   3 C :    0.022835
   4 C :   -0.151673
   5 H :    0.027454
   6 C :    0.045071
   7 H :    0.004776
   8 H :    0.041248
   9 C :   -0.129739
  10 H :    0.047837
  11 H :    0.045142
  12 C :   -0.063923
  13 H :    0.044614
  14 H :    0.043779
  15 H :    0.037388
  16 S :    0.115153
  17 C :   -0.081302
  18 C :   -0.041302
  19 C :   -0.058639
  20 C :   -0.159826
  21 H :    0.013903
  22 C :    0.141807
  23 H :    0.020240
  24 H :   -0.014806
  25 C :   -0.066248
  26 H :    0.024973
  27 H :    0.023974
  28 C :   -0.018052
  29 H :    0.028659
  30 H :    0.018624
  31 H :    0.014965
  32 H :    0.084380
  33 H :    0.043484
Sum of atomic charges:   -0.0000000

LOEWDIN ATOMIC CHARGES
----------------------
   0 S :    0.379165
   1 C :   -0.205580
   2 C :   -0.064387
   3 C :   -0.054376
   4 C :   -0.171496
   5 H :    0.033966
   6 C :   -0.031833
   7 H :    0.021802
   8 H :    0.033678
   9 C :   -0.053996
  10 H :    0.033441
  11 H :    0.027809
  12 C :   -0.075219
  13 H :    0.029736
  14 H :    0.026871
  15 H :    0.031648
  16 S :    0.425874
  17 C :   -0.190778
  18 C :   -0.066192
  19 C :   -0.058428
  20 C :   -0.210289
  21 H :    0.025940
  22 C :   -0.017750
  23 H :    0.034574
  24 H :    0.010673
  25 C :   -0.031666
  26 H :    0.020158
  27 H :    0.024738
  28 C :   -0.057034
  29 H :    0.031089
  30 H :    0.019730
  31 H :    0.007540
  32 H :    0.047475
  33 H :    0.023116

  Mayer bond orders larger than 0.100000
B(  0-S ,  1-C ) :   1.1175 B(  0-S ,  4-C ) :   1.1257 B(  1-C ,  2-C ) :   1.6467
B(  1-C , 32-H ) :   0.9563 B(  2-C ,  3-C ) :   1.1845 B(  2-C ,  6-C ) :   1.0284
B(  3-C ,  4-C ) :   1.6272 B(  3-C ,  5-H ) :   0.9912 B(  4-C , 20-C ) :   1.0341
B(  6-C ,  7-H ) :   0.9466 B(  6-C ,  8-H ) :   0.9443 B(  6-C ,  9-C ) :   1.0436
B(  9-C , 10-H ) :   0.9588 B(  9-C , 11-H ) :   0.9527 B(  9-C , 12-C ) :   1.0856
B( 12-C , 13-H ) :   0.9744 B( 12-C , 14-H ) :   0.9745 B( 12-C , 15-H ) :   0.9705
B( 16-S , 17-C ) :   1.1524 B( 16-S , 20-C ) :   1.1567 B( 17-C , 18-C ) :   1.6087
B( 17-C , 33-H ) :   0.9744 B( 18-C , 19-C ) :   1.2463 B( 18-C , 21-H ) :   0.9877
B( 19-C , 20-C ) :   1.5930 B( 19-C , 22-C ) :   1.0347 B( 22-C , 23-H ) :   0.9304
B( 22-C , 24-H ) :   0.9268 B( 22-C , 25-C ) :   1.0866 B( 25-C , 26-H ) :   0.9557
B( 25-C , 27-H ) :   0.9537 B( 25-C , 28-C ) :   1.0842 B( 28-C , 29-H ) :   0.9716
B( 28-C , 30-H ) :   0.9698 B( 28-C , 31-H ) :   0.9715

Dispersion correction           -0.015288862
FINAL SINGLE POINT ENERGY     -1339.873435696435

DIPOLE MOMENT
-------------
                                X             Y             Z
Electronic contribution:    -11.66997     -17.78593      14.85715
Nuclear contribution   :     11.78054      18.24642     -15.23825
                        -----------------------------------------
Total Dipole Moment    :      0.11057       0.46049      -0.38110
                        -----------------------------------------
Magnitude (a.u.)       :      0.60788
Magnitude (Debye)      :      1.54511

Rotational constants in cm-1:     0.019562     0.008384     0.007680
Rotational constants in MHz :   586.454557   251.336360   230.245731

                             ****ORCA TERMINATED NORMALLY****
TOTAL RUN TIME: 0 days 0 hours 0 minutes 22 seconds 218 msec
