                         Program Version 4.2.1 -  RELEASE  -
|  1> ! wB97X-D3 SP def2-SVP
|  2> %pal
|  3> nprocs 24
|  4> end
|  5>
|  6> * xyz 0 1
|  7> S 	 39.0881 	 -14.3551 	 -123.716
|  8> C 	 38.5944 	 -13.4836 	 -122.322
|  9> C 	 38.5989 	 -14.2665 	 -121.153
| 10> C 	 39.344 	 -15.4919 	 -121.416
| 11> C 	 39.7245 	 -15.6696 	 -122.727
| 12> H 	 39.6442 	 -16.2183 	 -120.668
| 13> C 	 38.2918 	 -13.6847 	 -119.845
| 14> H 	 37.734 	 -14.5069 	 -119.289
| 15> H 	 37.5073 	 -12.8705 	 -120.123
| 16> C 	 39.4019 	 -12.8939 	 -119.13
| 17> H 	 39.7407 	 -12.1395 	 -119.807
| 18> H 	 38.8444 	 -12.3494 	 -118.301
| 19> C 	 40.4916 	 -13.7621 	 -118.523
| 20> H 	 41.0244 	 -14.3278 	 -119.258
| 21> H 	 41.1708 	 -13.2209 	 -117.831
| 22> H 	 39.9794 	 -14.5109 	 -117.977
| 23> S 	 39.3897 	 -17.7822 	 -124.235
| 24> C 	 40.6818 	 -18.9711 	 -124.52
| 25> C 	 41.835 	 -18.474 	 -123.915
| 26> C 	 41.7228 	 -17.2543 	 -123.211
| 27> C 	 40.4242 	 -16.7492 	 -123.275
| 28> H 	 42.7367 	 -19.072 	 -123.953
| 29> C 	 42.8544 	 -16.5482 	 -122.496
| 30> H 	 43.644 	 -17.0208 	 -123.007
| 31> H 	 42.9201 	 -16.9756 	 -121.463
| 32> C 	 43.0783 	 -15.024 	 -122.696
| 33> H 	 42.1182 	 -14.5575 	 -122.368
| 34> H 	 43.2278 	 -14.8204 	 -123.744
| 35> C 	 44.1617 	 -14.3963 	 -121.808
| 36> H 	 44.2302 	 -14.913 	 -120.904
| 37> H 	 44.1895 	 -13.2758 	 -121.763
| 38> H 	 45.1368 	 -14.6612 	 -122.281
| 39> H 	 38.1206 	 -12.4603 	 -122.435
| 40> H 	 40.5615 	 -20.0956 	 -124.77
| 41> *
| 42>
| 43>                          ****END OF INPUT****

CARTESIAN COORDINATES (ANGSTROEM)
---------------------------------
  S     39.088100  -14.355100  -123.716000
  C     38.594400  -13.483600  -122.322000
  C     38.598900  -14.266500  -121.153000
  C     39.344000  -15.491900  -121.416000
  C     39.724500  -15.669600  -122.727000
  H     39.644200  -16.218300  -120.668000
  C     38.291800  -13.684700  -119.845000
  H     37.734000  -14.506900  -119.289000
  H     37.507300  -12.870500  -120.123000
  C     39.401900  -12.893900  -119.130000
  H     39.740700  -12.139500  -119.807000
  H     38.844400  -12.349400  -118.301000
  C     40.491600  -13.762100  -118.523000
  H     41.024400  -14.327800  -119.258000
  H     41.170800  -13.220900  -117.831000
  H     39.979400  -14.510900  -117.977000
  S     39.389700  -17.782200  -124.235000
  C     40.681800  -18.971100  -124.520000
  C     41.835000  -18.474000  -123.915000
  C     41.722800  -17.254300  -123.211000
  C     40.424200  -16.749200  -123.275000
  H     42.736700  -19.072000  -123.953000
  C     42.854400  -16.548200  -122.496000
  H     43.644000  -17.020800  -123.007000
  H     42.920100  -16.975600  -121.463000
  C     43.078300  -15.024000  -122.696000
  H     42.118200  -14.557500  -122.368000
  H     43.227800  -14.820400  -123.744000
  C     44.161700  -14.396300  -121.808000
  H     44.230200  -14.913000  -120.904000
  H     44.189500  -13.275800  -121.763000
  H     45.136800  -14.661200  -122.281000
  H     38.120600  -12.460300  -122.435000
  H     40.561500  -20.095600  -124.770000

 Total Charge           Charge          ....    0
 Multiplicity           Mult            ....    1
 Number of Electrons    NEL             ....  134
 Basis Dimension        Dim             ....  322

ORBITAL ENERGIES
----------------

  NO   OCC          E(Eh)            E(eV)
   0   2.0000     -88.964562     -2420.8488
   1   2.0000     -88.961809     -2420.7739
   2   2.0000     -10.325211      -280.9633
   3   2.0000     -10.324161      -280.9347
   4   2.0000     -10.321154      -280.8529
   5   2.0000     -10.318097      -280.7697
   6   2.0000     -10.304460      -280.3986
   7   2.0000     -10.301647      -280.3221
   8   2.0000     -10.300265      -280.2845
   9   2.0000     -10.297401      -280.2065
  10   2.0000     -10.295021      -280.1418
  11   2.0000     -10.291943      -280.0580
  12   2.0000     -10.291378      -280.0426
  13   2.0000     -10.286763      -279.9171
  14   2.0000     -10.278057      -279.6802
  15   2.0000     -10.274599      -279.5861
  16   2.0000      -8.079823      -219.8632
  17   2.0000      -8.076373      -219.7693
  18   2.0000      -6.038232      -164.3086
  19   2.0000      -6.034915      -164.2184
  20   2.0000      -6.034248      -164.2002
  21   2.0000      -6.030686      -164.1033
  22   2.0000      -6.030655      -164.1025
  23   2.0000      -6.027278      -164.0106
  24   2.0000      -1.009356       -27.4660
  25   2.0000      -0.982082       -26.7238
  26   2.0000      -0.916169       -24.9302
  27   2.0000      -0.905233       -24.6326
  28   2.0000      -0.874977       -23.8093
  29   2.0000      -0.850633       -23.1469
  30   2.0000      -0.848060       -23.0769
  31   2.0000      -0.815450       -22.1895
  32   2.0000      -0.781451       -21.2644
  33   2.0000      -0.766421       -20.8554
  34   2.0000      -0.710504       -19.3338
  35   2.0000      -0.703948       -19.1554
  36   2.0000      -0.690507       -18.7897
  37   2.0000      -0.660606       -17.9760
  38   2.0000      -0.640948       -17.4411
  39   2.0000      -0.610532       -16.6134
  40   2.0000      -0.585251       -15.9255
  41   2.0000      -0.570911       -15.5353
  42   2.0000      -0.563544       -15.3348
  43   2.0000      -0.545769       -14.8511
  44   2.0000      -0.536221       -14.5913
  45   2.0000      -0.527385       -14.3509
  46   2.0000      -0.518957       -14.1215
  47   2.0000      -0.515794       -14.0355
  48   2.0000      -0.503870       -13.7110
  49   2.0000      -0.497682       -13.5426
  50   2.0000      -0.491464       -13.3734
  51   2.0000      -0.482287       -13.1237
  52   2.0000      -0.474182       -12.9031
  53   2.0000      -0.463072       -12.6008
  54   2.0000      -0.454025       -12.3547
  55   2.0000      -0.444680       -12.1004
  56   2.0000      -0.442852       -12.0506
  57   2.0000      -0.438444       -11.9307
  58   2.0000      -0.435036       -11.8379
  59   2.0000      -0.424704       -11.5568
  60   2.0000      -0.419199       -11.4070
  61   2.0000      -0.416245       -11.3266
  62   2.0000      -0.397889       -10.8271
  63   2.0000      -0.342337        -9.3155
  64   2.0000      -0.327577        -8.9138
  65   2.0000      -0.324201        -8.8220
  66   2.0000      -0.294466        -8.0128
  67   0.0000       0.037328         1.0157
  68   0.0000       0.047049         1.2803
  69   0.0000       0.107621         2.9285
  70   0.0000       0.123084         3.3493
  71   0.0000       0.126756         3.4492

MULLIKEN ATOMIC CHARGES
-----------------------
   0 S :    0.129179
   1 C :   -0.155729
   2 C :   -0.067194
   3 C :    0.045871
   4 C :   -0.190652
   5 H :    0.013092
   6 C :   -0.032128
   7 H :    0.046565
   8 H :    0.034707
   9 C :   -0.033172
  10 H :    0.021561
  11 H :    0.037443
  12 C :   -0.019392
  13 H :    0.028491
  14 H :    0.044756
  15 H :    0.008757
  16 S :    0.099180
  17 C :   -0.121632
  18 C :   -0.062384
  19 C :   -0.023760
  20 C :   -0.187454
  21 H :    0.016578
  22 C :    0.090326
  23 H :   -0.005479
  24 H :    0.043500
  25 C :   -0.077401
  26 H :    0.053067
  27 H :    0.036219
  28 C :   -0.031130
  29 H :    0.016667
  30 H :    0.053252
  31 H :    0.015195
  32 H :    0.074607
  33 H :    0.098495
Sum of atomic charges:   -0.0000000

LOEWDIN ATOMIC CHARGES
----------------------
   0 S :    0.414532
   1 C :   -0.211820
   2 C :   -0.075006
   3 C :   -0.054970
   4 C :   -0.208550
   5 H :    0.031587
   6 C :   -0.050465
   7 H :    0.038333
   8 H :    0.042925
   9 C :   -0.034591
  10 H :    0.019976
  11 H :    0.032890
  12 C :   -0.064617
  13 H :    0.021915
  14 H :    0.032472
  15 H :    0.020220
  16 S :    0.403164
  17 C :   -0.206246
  18 C :   -0.074883
  19 C :   -0.059053
  20 C :   -0.197158
  21 H :    0.029135
  22 C :   -0.036311
  23 H :    0.023698
  24 H :    0.038994
  25 C :   -0.037738
  26 H :    0.028101
  27 H :    0.025999
  28 C :   -0.066707
  29 H :    0.016325
  30 H :    0.036316
  31 H :    0.026126
  32 H :    0.038217
  33 H :    0.057190

  Mayer bond orders larger than 0.100000
B(  0-S ,  1-C ) :   1.1629 B(  0-S ,  4-C ) :   1.1292 B(  1-C ,  2-C ) :   1.5793
B(  1-C ,  4-C ) :   0.1009 B(  1-C , 32-H ) :   0.9579 B(  2-C ,  3-C ) :   1.2132
B(  2-C ,  6-C ) :   1.0547 B(  3-C ,  4-C ) :   1.5990 B(  3-C ,  5-H ) :   0.9935
B(  4-C , 20-C ) :   1.0546 B(  6-C ,  7-H ) :   0.9354 B(  6-C ,  8-H ) :   0.9354
B(  6-C ,  9-C ) :   1.0634 B(  9-C , 10-H ) :   0.9503 B(  9-C , 11-H ) :   0.9521
B(  9-C , 12-C ) :   1.0779 B( 12-C , 13-H ) :   0.9720 B( 12-C , 14-H ) :   0.9724
B( 12-C , 15-H ) :   0.9701 B( 16-S , 17-C ) :   1.1465 B( 16-S , 20-C ) :   1.1636
B( 17-C , 18-C ) :   1.5999 B( 17-C , 20-C ) :   0.1129 B( 17-C , 33-H ) :   0.9516
B( 18-C , 19-C ) :   1.2689 B( 18-C , 21-H ) :   0.9812 B( 19-C , 20-C ) :   1.5608
B( 19-C , 22-C ) :   1.0235 B( 22-C , 23-H ) :   0.9228 B( 22-C , 24-H ) :   0.9224
B( 22-C , 25-C ) :   1.0574 B( 25-C , 26-H ) :   0.9565 B( 25-C , 27-H ) :   0.9582
B( 25-C , 28-C ) :   1.0789 B( 28-C , 29-H ) :   0.9729 B( 28-C , 30-H ) :   0.9741
B( 28-C , 31-H ) :   0.9724

Dispersion correction           -0.015428586
FINAL SINGLE POINT ENERGY     -1339.855992931309

DIPOLE MOMENT
-------------
                                X             Y             Z
Electronic contribution:    -15.13898     -11.74193     -21.22810
Nuclear contribution   :     15.50469      11.79438      21.82724
                        -----------------------------------------
Total Dipole Moment    :      0.36572       0.05245       0.59914
                        -----------------------------------------
Magnitude (a.u.)       :      0.70389
Magnitude (Debye)      :      1.78915

Rotational constants in cm-1:     0.018372     0.009955     0.007769
Rotational constants in MHz :   550.774482   298.447597   232.903149

                             ****ORCA TERMINATED NORMALLY****
TOTAL RUN TIME: 0 days 0 hours 0 minutes 23 seconds 266 msec
