                         Program Version 4.2.1 -  RELEASE  -
|  1> ! wB97X-D3 SP def2-SVP
|  2> %pal
|  3> nprocs 24
|  4> end
|  5>
|  6> * xyz 0 1
|  7> S 	 -124.562 	 58.1601 	 -35.9962
|  8> C 	 -123.255 	 57.0169 	 -36.0526
|  9> C 	 -122.065 	 57.6458 	 -36.0786
| 10> C 	 -122.131 	 59.0609 	 -36.0364
| 11> C 	 -123.396 	 59.564 	 -35.8322
| 12> H 	 -121.259 	 59.7225 	 -36.0029
| 13> C 	 -120.784 	 56.8908 	 -36.2251
| 14> H 	 -119.964 	 57.4404 	 -36.7522
| 15> H 	 -121.035 	 56.1254 	 -36.8748
| 16> C 	 -120.135 	 56.3191 	 -34.9541
| 17> H 	 -120.797 	 55.5789 	 -34.4729
| 18> H 	 -119.147 	 55.8921 	 -35.2628
| 19> C 	 -119.843 	 57.2785 	 -33.7814
| 20> H 	 -119.345 	 56.774 	 -32.978
| 21> H 	 -119.187 	 58.152 	 -33.9703
| 22> H 	 -120.779 	 57.6382 	 -33.4209
| 23> S 	 -124.646 	 61.6223 	 -37.1618
| 24> C 	 -125.201 	 63.0115 	 -36.1896
| 25> C 	 -124.764 	 62.9289 	 -34.8924
| 26> C 	 -123.863 	 61.8786 	 -34.6573
| 27> C 	 -123.788 	 60.9895 	 -35.7227
| 28> H 	 -125.009 	 63.7229 	 -34.2267
| 29> C 	 -123.198 	 61.7463 	 -33.3028
| 30> H 	 -123.362 	 60.716 	 -33.0574
| 31> H 	 -123.573 	 62.4356 	 -32.6106
| 32> C 	 -121.733 	 61.8924 	 -33.4488
| 33> H 	 -121.356 	 62.8429 	 -33.8289
| 34> H 	 -121.384 	 61.011 	 -34.0427
| 35> C 	 -121.124 	 61.5935 	 -32.1272
| 36> H 	 -120.056 	 61.5275 	 -32.1132
| 37> H 	 -121.469 	 60.572 	 -31.7984
| 38> H 	 -121.257 	 62.4667 	 -31.452
| 39> H 	 -123.419 	 55.9596 	 -36.2545
| 40> H 	 -125.76 	 63.8531 	 -36.6642
| 41> *
| 42>
| 43>                          ****END OF INPUT****

CARTESIAN COORDINATES (ANGSTROEM)
---------------------------------
  S    -124.562000   58.160100  -35.996200
  C    -123.255000   57.016900  -36.052600
  C    -122.065000   57.645800  -36.078600
  C    -122.131000   59.060900  -36.036400
  C    -123.396000   59.564000  -35.832200
  H    -121.259000   59.722500  -36.002900
  C    -120.784000   56.890800  -36.225100
  H    -119.964000   57.440400  -36.752200
  H    -121.035000   56.125400  -36.874800
  C    -120.135000   56.319100  -34.954100
  H    -120.797000   55.578900  -34.472900
  H    -119.147000   55.892100  -35.262800
  C    -119.843000   57.278500  -33.781400
  H    -119.345000   56.774000  -32.978000
  H    -119.187000   58.152000  -33.970300
  H    -120.779000   57.638200  -33.420900
  S    -124.646000   61.622300  -37.161800
  C    -125.201000   63.011500  -36.189600
  C    -124.764000   62.928900  -34.892400
  C    -123.863000   61.878600  -34.657300
  C    -123.788000   60.989500  -35.722700
  H    -125.009000   63.722900  -34.226700
  C    -123.198000   61.746300  -33.302800
  H    -123.362000   60.716000  -33.057400
  H    -123.573000   62.435600  -32.610600
  C    -121.733000   61.892400  -33.448800
  H    -121.356000   62.842900  -33.828900
  H    -121.384000   61.011000  -34.042700
  C    -121.124000   61.593500  -32.127200
  H    -120.056000   61.527500  -32.113200
  H    -121.469000   60.572000  -31.798400
  H    -121.257000   62.466700  -31.452000
  H    -123.419000   55.959600  -36.254500
  H    -125.760000   63.853100  -36.664200

 Total Charge           Charge          ....    0
 Multiplicity           Mult            ....    1
 Number of Electrons    NEL             ....  134
 Basis Dimension        Dim             ....  322

ORBITAL ENERGIES
----------------

  NO   OCC          E(Eh)            E(eV)
   0   2.0000     -88.963293     -2420.8143
   1   2.0000     -88.962827     -2420.8016
   2   2.0000     -10.336111      -281.2599
   3   2.0000     -10.328196      -281.0445
   4   2.0000     -10.322521      -280.8901
   5   2.0000     -10.312379      -280.6141
   6   2.0000     -10.303143      -280.3628
   7   2.0000     -10.294905      -280.1386
   8   2.0000     -10.293676      -280.1052
   9   2.0000     -10.291782      -280.0536
  10   2.0000     -10.289534      -279.9924
  11   2.0000     -10.285999      -279.8963
  12   2.0000     -10.281957      -279.7863
  13   2.0000     -10.279739      -279.7259
  14   2.0000     -10.275141      -279.6008
  15   2.0000     -10.273565      -279.5579
  16   2.0000      -8.077232      -219.7927
  17   2.0000      -8.076692      -219.7780
  18   2.0000      -6.035892      -164.2450
  19   2.0000      -6.035181      -164.2256
  20   2.0000      -6.031851      -164.1350
  21   2.0000      -6.031366      -164.1218
  22   2.0000      -6.027855      -164.0263
  23   2.0000      -6.027479      -164.0160
  24   2.0000      -1.001535       -27.2532
  25   2.0000      -0.984192       -26.7812
  26   2.0000      -0.925904       -25.1951
  27   2.0000      -0.908681       -24.7265
  28   2.0000      -0.868082       -23.6217
  29   2.0000      -0.852374       -23.1943
  30   2.0000      -0.845004       -22.9937
  31   2.0000      -0.818800       -22.2807
  32   2.0000      -0.783963       -21.3327
  33   2.0000      -0.771085       -20.9823
  34   2.0000      -0.703567       -19.1450
  35   2.0000      -0.694084       -18.8870
  36   2.0000      -0.688017       -18.7219
  37   2.0000      -0.663291       -18.0491
  38   2.0000      -0.642254       -17.4766
  39   2.0000      -0.615705       -16.7542
  40   2.0000      -0.597793       -16.2668
  41   2.0000      -0.589064       -16.0292
  42   2.0000      -0.578076       -15.7302
  43   2.0000      -0.546367       -14.8674
  44   2.0000      -0.543956       -14.8018
  45   2.0000      -0.524279       -14.2664
  46   2.0000      -0.514884       -14.0107
  47   2.0000      -0.513847       -13.9825
  48   2.0000      -0.512488       -13.9455
  49   2.0000      -0.494458       -13.4549
  50   2.0000      -0.487619       -13.2688
  51   2.0000      -0.484874       -13.1941
  52   2.0000      -0.473606       -12.8875
  53   2.0000      -0.465131       -12.6569
  54   2.0000      -0.454666       -12.3721
  55   2.0000      -0.443259       -12.0617
  56   2.0000      -0.441134       -12.0039
  57   2.0000      -0.436639       -11.8815
  58   2.0000      -0.435141       -11.8408
  59   2.0000      -0.419412       -11.4128
  60   2.0000      -0.415647       -11.3103
  61   2.0000      -0.412971       -11.2375
  62   2.0000      -0.411068       -11.1857
  63   2.0000      -0.340443        -9.2639
  64   2.0000      -0.332126        -9.0376
  65   2.0000      -0.322482        -8.7752
  66   2.0000      -0.302196        -8.2232
  67   0.0000       0.032473         0.8836
  68   0.0000       0.052190         1.4202
  69   0.0000       0.113803         3.0967
  70   0.0000       0.117658         3.2016
  71   0.0000       0.124627         3.3913

MULLIKEN ATOMIC CHARGES
-----------------------
   0 S :    0.101914
   1 C :   -0.131436
   2 C :   -0.080171
   3 C :    0.047015
   4 C :   -0.162991
   5 H :    0.030252
   6 C :    0.092055
   7 H :    0.026055
   8 H :    0.006466
   9 C :   -0.082368
  10 H :    0.030314
  11 H :    0.036326
  12 C :   -0.056058
  13 H :    0.028633
  14 H :    0.025643
  15 H :    0.029908
  16 S :    0.093715
  17 C :   -0.114069
  18 C :   -0.023394
  19 C :   -0.017842
  20 C :   -0.199158
  21 H :    0.009884
  22 C :    0.154161
  23 H :    0.022973
  24 H :    0.001377
  25 C :   -0.096425
  26 H :    0.032414
  27 H :    0.025834
  28 C :   -0.042078
  29 H :    0.016427
  30 H :    0.035557
  31 H :    0.026583
  32 H :    0.056715
  33 H :    0.075768
Sum of atomic charges:    0.0000000

LOEWDIN ATOMIC CHARGES
----------------------
   0 S :    0.375094
   1 C :   -0.191430
   2 C :   -0.076974
   3 C :   -0.056642
   4 C :   -0.176720
   5 H :    0.034666
   6 C :   -0.033189
   7 H :    0.035267
   8 H :    0.022889
   9 C :   -0.038165
  10 H :    0.025865
  11 H :    0.027783
  12 C :   -0.068904
  13 H :    0.025081
  14 H :    0.022841
  15 H :    0.019548
  16 S :    0.377026
  17 C :   -0.170024
  18 C :   -0.075583
  19 C :   -0.039034
  20 C :   -0.196068
  21 H :    0.029177
  22 C :   -0.016060
  23 H :    0.036164
  24 H :    0.021158
  25 C :   -0.043899
  26 H :    0.023952
  27 H :    0.030053
  28 C :   -0.069051
  29 H :    0.017657
  30 H :    0.031917
  31 H :    0.025031
  32 H :    0.033513
  33 H :    0.037060

  Mayer bond orders larger than 0.100000
B(  0-S ,  1-C ) :   1.1366 B(  0-S ,  4-C ) :   1.1239 B(  1-C ,  2-C ) :   1.6241
B(  1-C , 32-H ) :   0.9640 B(  2-C ,  3-C ) :   1.2366 B(  2-C ,  6-C ) :   1.0142
B(  3-C ,  4-C ) :   1.5938 B(  3-C ,  5-H ) :   0.9833 B(  4-C , 20-C ) :   1.0324
B(  6-C ,  7-H ) :   0.9443 B(  6-C ,  8-H ) :   0.9334 B(  6-C ,  9-C ) :   1.0764
B(  9-C , 10-H ) :   0.9553 B(  9-C , 11-H ) :   0.9574 B(  9-C , 12-C ) :   1.0805
B( 12-C , 13-H ) :   0.9729 B( 12-C , 14-H ) :   0.9754 B( 12-C , 15-H ) :   0.9732
B( 16-S , 17-C ) :   1.1529 B( 16-S , 20-C ) :   1.1375 B( 17-C , 18-C ) :   1.6014
B( 17-C , 20-C ) :   0.1035 B( 17-C , 33-H ) :   0.9611 B( 18-C , 19-C ) :   1.2552
B( 18-C , 21-H ) :   0.9948 B( 19-C , 20-C ) :   1.5834 B( 19-C , 22-C ) :   1.0344
B( 22-C , 23-H ) :   0.9139 B( 22-C , 24-H ) :   0.9381 B( 22-C , 25-C ) :   1.0832
B( 25-C , 26-H ) :   0.9543 B( 25-C , 27-H ) :   0.9450 B( 25-C , 28-C ) :   1.0990
B( 28-C , 29-H ) :   0.9702 B( 28-C , 30-H ) :   0.9691 B( 28-C , 31-H ) :   0.9682

Dispersion correction           -0.015049638
FINAL SINGLE POINT ENERGY     -1339.863484772285

DIPOLE MOMENT
-------------
                                X             Y             Z
Electronic contribution:    -23.58254       4.44916     -18.38438
Nuclear contribution   :     24.07417      -4.35100      18.70614
                        -----------------------------------------
Total Dipole Moment    :      0.49163       0.09816       0.32176
                        -----------------------------------------
Magnitude (a.u.)       :      0.59571
Magnitude (Debye)      :      1.51417

Rotational constants in cm-1:     0.018316     0.009911     0.007104
Rotational constants in MHz :   549.095972   297.129767   212.984193

                             ****ORCA TERMINATED NORMALLY****
TOTAL RUN TIME: 0 days 0 hours 0 minutes 22 seconds 504 msec
