                         Program Version 4.2.1 -  RELEASE  -
|  1> ! wB97X-D3 SP def2-SVP
|  2> %pal
|  3> nprocs 24
|  4> end
|  5>
|  6> * xyz 0 1
|  7> S 	 -61.8524 	 1.01207 	 -19.5651
|  8> C 	 -63.4556 	 1.12219 	 -20.3246
|  9> C 	 -63.5087 	 0.435742 	 -21.5484
| 10> C 	 -62.2915 	 -0.291167 	 -21.8358
| 11> C 	 -61.3235 	 0.0247249 	 -20.9
| 12> H 	 -62.0955 	 -0.937017 	 -22.6559
| 13> C 	 -64.7078 	 0.328526 	 -22.437
| 14> H 	 -65.3767 	 0.989789 	 -21.9727
| 15> H 	 -65.1797 	 -0.647663 	 -22.4215
| 16> C 	 -64.5017 	 0.787335 	 -23.8837
| 17> H 	 -64.0497 	 1.7159 	 -23.8676
| 18> H 	 -63.7976 	 0.147743 	 -24.4039
| 19> C 	 -65.8041 	 1.12563 	 -24.6902
| 20> H 	 -66.2965 	 0.224603 	 -24.995
| 21> H 	 -66.5765 	 1.73599 	 -24.1999
| 22> H 	 -65.5185 	 1.63455 	 -25.6467
| 23> S 	 -59.3079 	 -1.28523 	 -19.5827
| 24> C 	 -57.7843 	 -1.46939 	 -20.2702
| 25> C 	 -57.8543 	 -1.0753 	 -21.5543
| 26> C 	 -59.0766 	 -0.537871 	 -22.0488
| 27> C 	 -59.9588 	 -0.550367 	 -20.9744
| 28> H 	 -57.0646 	 -1.20067 	 -22.1676
| 29> C 	 -59.2851 	 0.000661561 	 -23.4683
| 30> H 	 -58.38 	 0.527443 	 -23.7698
| 31> H 	 -60.1184 	 0.669503 	 -23.3784
| 32> C 	 -59.6488 	 -0.987703 	 -24.5533
| 33> H 	 -60.2944 	 -1.80036 	 -24.2651
| 34> H 	 -58.7769 	 -1.55443 	 -24.6923
| 35> C 	 -60.2711 	 -0.257085 	 -25.8142
| 36> H 	 -61.2606 	 0.0275778 	 -25.5066
| 37> H 	 -60.3846 	 -0.87393 	 -26.6356
| 38> H 	 -59.7078 	 0.585143 	 -26.0785
| 39> H 	 -64.3309 	 1.57499 	 -19.9826
| 40> H 	 -57.0407 	 -2.04333 	 -19.7605
| 41> *
| 42>
| 43>                          ****END OF INPUT****

CARTESIAN COORDINATES (ANGSTROEM)
---------------------------------
  S    -61.852400    1.012070  -19.565100
  C    -63.455600    1.122190  -20.324600
  C    -63.508700    0.435742  -21.548400
  C    -62.291500   -0.291167  -21.835800
  C    -61.323500    0.024725  -20.900000
  H    -62.095500   -0.937017  -22.655900
  C    -64.707800    0.328526  -22.437000
  H    -65.376700    0.989789  -21.972700
  H    -65.179700   -0.647663  -22.421500
  C    -64.501700    0.787335  -23.883700
  H    -64.049700    1.715900  -23.867600
  H    -63.797600    0.147743  -24.403900
  C    -65.804100    1.125630  -24.690200
  H    -66.296500    0.224603  -24.995000
  H    -66.576500    1.735990  -24.199900
  H    -65.518500    1.634550  -25.646700
  S    -59.307900   -1.285230  -19.582700
  C    -57.784300   -1.469390  -20.270200
  C    -57.854300   -1.075300  -21.554300
  C    -59.076600   -0.537871  -22.048800
  C    -59.958800   -0.550367  -20.974400
  H    -57.064600   -1.200670  -22.167600
  C    -59.285100    0.000662  -23.468300
  H    -58.380000    0.527443  -23.769800
  H    -60.118400    0.669503  -23.378400
  C    -59.648800   -0.987703  -24.553300
  H    -60.294400   -1.800360  -24.265100
  H    -58.776900   -1.554430  -24.692300
  C    -60.271100   -0.257085  -25.814200
  H    -61.260600    0.027578  -25.506600
  H    -60.384600   -0.873930  -26.635600
  H    -59.707800    0.585143  -26.078500
  H    -64.330900    1.574990  -19.982600
  H    -57.040700   -2.043330  -19.760500

 Total Charge           Charge          ....    0
 Multiplicity           Mult            ....    1
 Number of Electrons    NEL             ....  134
 Basis Dimension        Dim             ....  322

ORBITAL ENERGIES
----------------

  NO   OCC          E(Eh)            E(eV)
   0   2.0000     -88.972436     -2421.0631
   1   2.0000     -88.959655     -2420.7153
   2   2.0000     -10.328206      -281.0448
   3   2.0000     -10.320978      -280.8481
   4   2.0000     -10.312010      -280.6041
   5   2.0000     -10.304439      -280.3980
   6   2.0000     -10.301800      -280.3262
   7   2.0000     -10.300091      -280.2797
   8   2.0000     -10.291012      -280.0327
   9   2.0000     -10.290677      -280.0236
  10   2.0000     -10.284642      -279.8593
  11   2.0000     -10.283781      -279.8359
  12   2.0000     -10.283485      -279.8278
  13   2.0000     -10.282607      -279.8040
  14   2.0000     -10.277986      -279.6782
  15   2.0000     -10.273972      -279.5690
  16   2.0000      -8.086277      -220.0388
  17   2.0000      -8.076993      -219.7861
  18   2.0000      -6.044901      -164.4901
  19   2.0000      -6.041005      -164.3841
  20   2.0000      -6.036878      -164.2718
  21   2.0000      -6.035225      -164.2268
  22   2.0000      -6.031044      -164.1131
  23   2.0000      -6.027984      -164.0298
  24   2.0000      -1.015441       -27.6315
  25   2.0000      -0.985664       -26.8213
  26   2.0000      -0.913586       -24.8599
  27   2.0000      -0.913001       -24.8440
  28   2.0000      -0.867433       -23.6041
  29   2.0000      -0.855274       -23.2732
  30   2.0000      -0.846910       -23.0456
  31   2.0000      -0.816347       -22.2139
  32   2.0000      -0.789133       -21.4734
  33   2.0000      -0.775710       -21.1081
  34   2.0000      -0.715419       -19.4675
  35   2.0000      -0.708513       -19.2796
  36   2.0000      -0.695734       -18.9319
  37   2.0000      -0.666417       -18.1341
  38   2.0000      -0.640304       -17.4236
  39   2.0000      -0.621655       -16.9161
  40   2.0000      -0.606427       -16.5017
  41   2.0000      -0.574591       -15.6354
  42   2.0000      -0.570568       -15.5259
  43   2.0000      -0.558081       -15.1862
  44   2.0000      -0.534639       -14.5483
  45   2.0000      -0.522370       -14.2144
  46   2.0000      -0.517061       -14.0699
  47   2.0000      -0.510273       -13.8852
  48   2.0000      -0.507746       -13.8165
  49   2.0000      -0.502676       -13.6785
  50   2.0000      -0.493838       -13.4380
  51   2.0000      -0.480898       -13.0859
  52   2.0000      -0.474152       -12.9023
  53   2.0000      -0.470927       -12.8146
  54   2.0000      -0.464966       -12.6524
  55   2.0000      -0.454243       -12.3606
  56   2.0000      -0.447457       -12.1759
  57   2.0000      -0.442098       -12.0301
  58   2.0000      -0.434087       -11.8121
  59   2.0000      -0.428614       -11.6632
  60   2.0000      -0.423710       -11.5297
  61   2.0000      -0.418626       -11.3914
  62   2.0000      -0.415992       -11.3197
  63   2.0000      -0.345706        -9.4071
  64   2.0000      -0.332710        -9.0535
  65   2.0000      -0.328679        -8.9438
  66   2.0000      -0.293430        -7.9846
  67   0.0000       0.034781         0.9464
  68   0.0000       0.079563         2.1650
  69   0.0000       0.114400         3.1130
  70   0.0000       0.123918         3.3720
  71   0.0000       0.126501         3.4423

MULLIKEN ATOMIC CHARGES
-----------------------
   0 S :    0.128557
   1 C :   -0.087529
   2 C :   -0.116383
   3 C :    0.028473
   4 C :   -0.131809
   5 H :   -0.000085
   6 C :    0.128421
   7 H :   -0.017230
   8 H :    0.039209
   9 C :   -0.071387
  10 H :    0.013189
  11 H :    0.034172
  12 C :   -0.068919
  13 H :    0.022952
  14 H :    0.040195
  15 H :    0.039224
  16 S :    0.111994
  17 C :   -0.076548
  18 C :    0.007180
  19 C :   -0.036167
  20 C :   -0.192402
  21 H :   -0.040289
  22 C :    0.091801
  23 H :    0.031864
  24 H :    0.016818
  25 C :   -0.066468
  26 H :    0.019408
  27 H :    0.003462
  28 C :    0.010530
  29 H :    0.022231
  30 H :    0.020103
  31 H :    0.024800
  32 H :    0.017171
  33 H :    0.053458
Sum of atomic charges:    0.0000000

LOEWDIN ATOMIC CHARGES
----------------------
   0 S :    0.404567
   1 C :   -0.192732
   2 C :   -0.049290
   3 C :   -0.059726
   4 C :   -0.186923
   5 H :    0.026449
   6 C :   -0.030539
   7 H :    0.021504
   8 H :    0.032890
   9 C :   -0.035173
  10 H :    0.017591
  11 H :    0.021410
  12 C :   -0.065982
  13 H :    0.017618
  14 H :    0.028074
  15 H :    0.032999
  16 S :    0.446882
  17 C :   -0.204806
  18 C :   -0.062886
  19 C :   -0.054114
  20 C :   -0.210620
  21 H :    0.007362
  22 C :   -0.024298
  23 H :    0.034705
  24 H :    0.026202
  25 C :   -0.038089
  26 H :    0.020130
  27 H :    0.014391
  28 C :   -0.043430
  29 H :    0.024863
  30 H :    0.017687
  31 H :    0.019928
  32 H :    0.015602
  33 H :    0.027754

  Mayer bond orders larger than 0.100000
B(  0-S ,  1-C ) :   1.1097 B(  0-S ,  4-C ) :   1.1575 B(  1-C ,  2-C ) :   1.6398
B(  1-C , 32-H ) :   0.9667 B(  2-C ,  3-C ) :   1.2042 B(  2-C ,  6-C ) :   1.0413
B(  3-C ,  4-C ) :   1.5765 B(  3-C ,  5-H ) :   0.9997 B(  4-C , 20-C ) :   1.0122
B(  6-C ,  7-H ) :   0.9222 B(  6-C ,  8-H ) :   0.9350 B(  6-C ,  9-C ) :   1.0634
B(  9-C , 10-H ) :   0.9560 B(  9-C , 11-H ) :   0.9535 B(  9-C , 12-C ) :   1.0789
B( 12-C , 13-H ) :   0.9769 B( 12-C , 14-H ) :   0.9761 B( 12-C , 15-H ) :   0.9768
B( 16-S , 17-C ) :   1.1596 B( 16-S , 20-C ) :   1.1925 B( 17-C , 18-C ) :   1.5644
B( 17-C , 33-H ) :   0.9770 B( 18-C , 19-C ) :   1.2747 B( 18-C , 21-H ) :   1.0074
B( 19-C , 20-C ) :   1.5563 B( 19-C , 22-C ) :   1.0373 B( 22-C , 23-H ) :   0.9309
B( 22-C , 24-H ) :   0.9301 B( 22-C , 25-C ) :   1.0589 B( 25-C , 26-H ) :   0.9554
B( 25-C , 27-H ) :   0.9506 B( 25-C , 28-C ) :   1.0694 B( 28-C , 29-H ) :   0.9748
B( 28-C , 30-H ) :   0.9739 B( 28-C , 31-H ) :   0.9760

Dispersion correction           -0.014637482
FINAL SINGLE POINT ENERGY     -1339.863876024789

DIPOLE MOMENT
-------------
                                X             Y             Z
Electronic contribution:     13.16314      -2.47818      31.27414
Nuclear contribution   :    -13.30169       2.35670     -31.96839
                        -----------------------------------------
Total Dipole Moment    :     -0.13855      -0.12148      -0.69425
                        -----------------------------------------
Magnitude (a.u.)       :      0.71828
Magnitude (Debye)      :      1.82573

Rotational constants in cm-1:     0.017923     0.009612     0.006591
Rotational constants in MHz :   537.320511   288.167017   197.585278

                             ****ORCA TERMINATED NORMALLY****
TOTAL RUN TIME: 0 days 0 hours 0 minutes 20 seconds 983 msec
