                         Program Version 4.2.1 -  RELEASE  -
|  1> ! wB97X-D3 SP def2-SVP
|  2> %pal
|  3> nprocs 24
|  4> end
|  5>
|  6> * xyz 0 1
|  7> S 	 -134.177 	 68.0892 	 -66.5926
|  8> C 	 -134.596 	 66.6892 	 -67.5566
|  9> C 	 -135.319 	 65.8125 	 -66.7969
| 10> C 	 -135.586 	 66.2908 	 -65.4637
| 11> C 	 -135.116 	 67.5294 	 -65.1782
| 12> H 	 -136.181 	 65.8299 	 -64.667
| 13> C 	 -136.02 	 64.5016 	 -67.3064
| 14> H 	 -136.542 	 64.0941 	 -66.4702
| 15> H 	 -135.264 	 63.6778 	 -67.5333
| 16> C 	 -136.869 	 64.6454 	 -68.6087
| 17> H 	 -136.179 	 64.9357 	 -69.3769
| 18> H 	 -137.287 	 63.6736 	 -68.7442
| 19> C 	 -138.08 	 65.5597 	 -68.3477
| 20> H 	 -138.7 	 65.7303 	 -69.2561
| 21> H 	 -138.725 	 65.1951 	 -67.553
| 22> H 	 -137.821 	 66.4774 	 -67.9954
| 23> S 	 -134.52 	 67.1939 	 -62.5503
| 24> C 	 -134.86 	 68.4962 	 -61.4117
| 25> C 	 -135.202 	 69.6855 	 -61.9857
| 26> C 	 -135.368 	 69.5341 	 -63.4372
| 27> C 	 -135.136 	 68.2211 	 -63.8619
| 28> H 	 -135.34 	 70.602 	 -61.4379
| 29> C 	 -135.643 	 70.657 	 -64.4323
| 30> H 	 -134.672 	 70.9889 	 -64.8272
| 31> H 	 -136.1 	 71.4728 	 -63.8664
| 32> C 	 -136.646 	 70.4664 	 -65.5991
| 33> H 	 -137.526 	 70.2186 	 -65.0541
| 34> H 	 -136.497 	 69.556 	 -66.1643
| 35> C 	 -136.877 	 71.7204 	 -66.4125
| 36> H 	 -136.233 	 71.9979 	 -67.2539
| 37> H 	 -136.623 	 72.5334 	 -65.7021
| 38> H 	 -137.936 	 71.9166 	 -66.6087
| 39> H 	 -134.311 	 66.4521 	 -68.5677
| 40> H 	 -134.54 	 68.481 	 -60.4069
| 41> *
| 42>
| 43>                          ****END OF INPUT****

CARTESIAN COORDINATES (ANGSTROEM)
---------------------------------
  S    -134.177000   68.089200  -66.592600
  C    -134.596000   66.689200  -67.556600
  C    -135.319000   65.812500  -66.796900
  C    -135.586000   66.290800  -65.463700
  C    -135.116000   67.529400  -65.178200
  H    -136.181000   65.829900  -64.667000
  C    -136.020000   64.501600  -67.306400
  H    -136.542000   64.094100  -66.470200
  H    -135.264000   63.677800  -67.533300
  C    -136.869000   64.645400  -68.608700
  H    -136.179000   64.935700  -69.376900
  H    -137.287000   63.673600  -68.744200
  C    -138.080000   65.559700  -68.347700
  H    -138.700000   65.730300  -69.256100
  H    -138.725000   65.195100  -67.553000
  H    -137.821000   66.477400  -67.995400
  S    -134.520000   67.193900  -62.550300
  C    -134.860000   68.496200  -61.411700
  C    -135.202000   69.685500  -61.985700
  C    -135.368000   69.534100  -63.437200
  C    -135.136000   68.221100  -63.861900
  H    -135.340000   70.602000  -61.437900
  C    -135.643000   70.657000  -64.432300
  H    -134.672000   70.988900  -64.827200
  H    -136.100000   71.472800  -63.866400
  C    -136.646000   70.466400  -65.599100
  H    -137.526000   70.218600  -65.054100
  H    -136.497000   69.556000  -66.164300
  C    -136.877000   71.720400  -66.412500
  H    -136.233000   71.997900  -67.253900
  H    -136.623000   72.533400  -65.702100
  H    -137.936000   71.916600  -66.608700
  H    -134.311000   66.452100  -68.567700
  H    -134.540000   68.481000  -60.406900

 Total Charge           Charge          ....    0
 Multiplicity           Mult            ....    1
 Number of Electrons    NEL             ....  134
 Basis Dimension        Dim             ....  322

ORBITAL ENERGIES
----------------

  NO   OCC          E(Eh)            E(eV)
   0   2.0000     -88.968009     -2420.9426
   1   2.0000     -88.964480     -2420.8466
   2   2.0000     -10.332357      -281.1577
   3   2.0000     -10.332243      -281.1546
   4   2.0000     -10.316408      -280.7237
   5   2.0000     -10.314916      -280.6831
   6   2.0000     -10.312558      -280.6190
   7   2.0000     -10.303111      -280.3619
   8   2.0000     -10.301281      -280.3121
   9   2.0000     -10.296363      -280.1783
  10   2.0000     -10.293821      -280.1091
  11   2.0000     -10.293407      -280.0979
  12   2.0000     -10.287133      -279.9271
  13   2.0000     -10.276937      -279.6497
  14   2.0000     -10.276780      -279.6454
  15   2.0000     -10.268024      -279.4071
  16   2.0000      -8.082098      -219.9251
  17   2.0000      -8.078199      -219.8190
  18   2.0000      -6.040671      -164.3750
  19   2.0000      -6.036932      -164.2733
  20   2.0000      -6.036852      -164.2711
  21   2.0000      -6.032784      -164.1604
  22   2.0000      -6.032655      -164.1569
  23   2.0000      -6.028815      -164.0524
  24   2.0000      -1.002837       -27.2886
  25   2.0000      -0.981306       -26.7027
  26   2.0000      -0.907874       -24.7045
  27   2.0000      -0.904743       -24.6193
  28   2.0000      -0.871128       -23.7046
  29   2.0000      -0.849167       -23.1070
  30   2.0000      -0.840355       -22.8672
  31   2.0000      -0.817458       -22.2442
  32   2.0000      -0.780568       -21.2403
  33   2.0000      -0.770433       -20.9646
  34   2.0000      -0.710609       -19.3367
  35   2.0000      -0.707627       -19.2555
  36   2.0000      -0.689154       -18.7528
  37   2.0000      -0.666495       -18.1362
  38   2.0000      -0.638465       -17.3735
  39   2.0000      -0.605673       -16.4812
  40   2.0000      -0.594981       -16.1903
  41   2.0000      -0.578671       -15.7464
  42   2.0000      -0.565213       -15.3802
  43   2.0000      -0.545587       -14.8462
  44   2.0000      -0.537630       -14.6297
  45   2.0000      -0.520631       -14.1671
  46   2.0000      -0.516674       -14.0594
  47   2.0000      -0.511292       -13.9130
  48   2.0000      -0.505987       -13.7686
  49   2.0000      -0.495930       -13.4949
  50   2.0000      -0.487050       -13.2533
  51   2.0000      -0.481197       -13.0940
  52   2.0000      -0.469769       -12.7831
  53   2.0000      -0.463921       -12.6239
  54   2.0000      -0.459964       -12.5163
  55   2.0000      -0.452782       -12.3208
  56   2.0000      -0.442148       -12.0315
  57   2.0000      -0.431539       -11.7428
  58   2.0000      -0.427398       -11.6301
  59   2.0000      -0.425051       -11.5662
  60   2.0000      -0.418728       -11.3942
  61   2.0000      -0.412589       -11.2271
  62   2.0000      -0.410328       -11.1656
  63   2.0000      -0.349210        -9.5025
  64   2.0000      -0.334585        -9.1045
  65   2.0000      -0.325015        -8.8441
  66   2.0000      -0.297932        -8.1071
  67   0.0000       0.028756         0.7825
  68   0.0000       0.068129         1.8539
  69   0.0000       0.100119         2.7244
  70   0.0000       0.119017         3.2386
  71   0.0000       0.123178         3.3518

MULLIKEN ATOMIC CHARGES
-----------------------
   0 S :    0.096123
   1 C :   -0.110601
   2 C :   -0.080957
   3 C :    0.001816
   4 C :   -0.144118
   5 H :    0.022399
   6 C :    0.024665
   7 H :    0.009805
   8 H :    0.041339
   9 C :   -0.029943
  10 H :    0.031768
  11 H :    0.027809
  12 C :   -0.027199
  13 H :    0.036795
  14 H :    0.019750
  15 H :    0.010544
  16 S :    0.105602
  17 C :   -0.060552
  18 C :   -0.025522
  19 C :   -0.045244
  20 C :   -0.155471
  21 H :    0.021732
  22 C :    0.017456
  23 H :    0.049575
  24 H :    0.018277
  25 C :   -0.050887
  26 H :    0.011523
  27 H :    0.044913
  28 C :   -0.036263
  29 H :    0.043768
  30 H :    0.004877
  31 H :    0.036438
  32 H :    0.045262
  33 H :    0.044523
Sum of atomic charges:   -0.0000000

LOEWDIN ATOMIC CHARGES
----------------------
   0 S :    0.391262
   1 C :   -0.192118
   2 C :   -0.067454
   3 C :   -0.074557
   4 C :   -0.184984
   5 H :    0.033906
   6 C :   -0.031599
   7 H :    0.020373
   8 H :    0.036904
   9 C :   -0.028680
  10 H :    0.020965
  11 H :    0.025104
  12 C :   -0.061600
  13 H :    0.029738
  14 H :    0.027577
  15 H :    0.009670
  16 S :    0.397428
  17 C :   -0.172026
  18 C :   -0.062504
  19 C :   -0.050737
  20 C :   -0.187469
  21 H :    0.033775
  22 C :   -0.037323
  23 H :    0.032722
  24 H :    0.028457
  25 C :   -0.045902
  26 H :    0.024497
  27 H :    0.015626
  28 C :   -0.071259
  29 H :    0.029167
  30 H :    0.027652
  31 H :    0.031113
  32 H :    0.030925
  33 H :    0.021349

  Mayer bond orders larger than 0.100000
B(  0-S ,  1-C ) :   1.1276 B(  0-S ,  4-C ) :   1.1238 B(  1-C ,  2-C ) :   1.6364
B(  1-C , 32-H ) :   0.9704 B(  2-C ,  3-C ) :   1.2111 B(  2-C ,  6-C ) :   1.0085
B(  3-C ,  4-C ) :   1.6176 B(  3-C ,  5-H ) :   0.9917 B(  4-C , 20-C ) :   1.0259
B(  6-C ,  7-H ) :   0.9489 B(  6-C ,  8-H ) :   0.9409 B(  6-C ,  9-C ) :   1.0727
B(  9-C , 10-H ) :   0.9579 B(  9-C , 11-H ) :   0.9546 B(  9-C , 12-C ) :   1.0703
B( 12-C , 13-H ) :   0.9748 B( 12-C , 14-H ) :   0.9718 B( 12-C , 15-H ) :   0.9776
B( 16-S , 17-C ) :   1.1424 B( 16-S , 20-C ) :   1.1308 B( 17-C , 18-C ) :   1.6429
B( 17-C , 33-H ) :   0.9636 B( 18-C , 19-C ) :   1.2189 B( 18-C , 21-H ) :   0.9905
B( 19-C , 20-C ) :   1.6099 B( 19-C , 22-C ) :   1.0373 B( 22-C , 23-H ) :   0.9348
B( 22-C , 24-H ) :   0.9325 B( 22-C , 25-C ) :   1.0639 B( 25-C , 26-H ) :   0.9500
B( 25-C , 27-H ) :   0.9504 B( 25-C , 28-C ) :   1.0805 B( 28-C , 29-H ) :   0.9738
B( 28-C , 30-H ) :   0.9668 B( 28-C , 31-H ) :   0.9735

Dispersion correction           -0.014837751
FINAL SINGLE POINT ENERGY     -1339.866103141826

DIPOLE MOMENT
-------------
                                X             Y             Z
Electronic contribution:     16.48994      -3.13104      15.38808
Nuclear contribution   :    -16.75578       3.18851     -15.40812
                        -----------------------------------------
Total Dipole Moment    :     -0.26584       0.05747      -0.02003
                        -----------------------------------------
Magnitude (a.u.)       :      0.27272
Magnitude (Debye)      :      0.69319

Rotational constants in cm-1:     0.018786     0.009092     0.007199
Rotational constants in MHz :   563.186791   272.571954   215.831091

                             ****ORCA TERMINATED NORMALLY****
TOTAL RUN TIME: 0 days 0 hours 0 minutes 22 seconds 961 msec
