                         Program Version 4.2.1 -  RELEASE  -
|  1> ! wB97X-D3 SP def2-SVP
|  2> %pal
|  3> nprocs 24
|  4> end
|  5>
|  6> * xyz 0 1
|  7> S 	 -55.3296 	 10.0963 	 -103.696
|  8> C 	 -55.3628 	 10.8576 	 -102.094
|  9> C 	 -56.3104 	 11.9373 	 -102.034
| 10> C 	 -56.9313 	 12.18 	 -103.334
| 11> C 	 -56.6338 	 11.189 	 -104.242
| 12> H 	 -57.5754 	 12.9843 	 -103.524
| 13> C 	 -56.5162 	 12.8387 	 -100.843
| 14> H 	 -56.4598 	 12.2007 	 -99.9323
| 15> H 	 -57.5607 	 13.1676 	 -100.897
| 16> C 	 -55.4356 	 13.8812 	 -100.712
| 17> H 	 -54.4909 	 13.365 	 -100.637
| 18> H 	 -55.3563 	 14.5004 	 -101.616
| 19> C 	 -55.7204 	 14.8987 	 -99.5666
| 20> H 	 -54.9415 	 15.716 	 -99.5931
| 21> H 	 -56.7198 	 15.4397 	 -99.7777
| 22> H 	 -55.7981 	 14.356 	 -98.6063
| 23> S 	 -56.0946 	 10.804 	 -107.055
| 24> C 	 -57.4303 	 11.084 	 -108.137
| 25> C 	 -58.5649 	 11.5276 	 -107.531
| 26> C 	 -58.3917 	 11.6258 	 -106.092
| 27> C 	 -57.094 	 11.2995 	 -105.622
| 28> H 	 -59.4434 	 11.6218 	 -108.134
| 29> C 	 -59.6016 	 12.0536 	 -105.285
| 30> H 	 -59.4146 	 11.8154 	 -104.247
| 31> H 	 -60.4607 	 11.3795 	 -105.5
| 32> C 	 -60.1214 	 13.5874 	 -105.432
| 33> H 	 -59.2343 	 14.2202 	 -105.421
| 34> H 	 -60.7282 	 13.8736 	 -104.557
| 35> C 	 -60.9908 	 13.9899 	 -106.695
| 36> H 	 -60.3558 	 13.6405 	 -107.488
| 37> H 	 -61.1887 	 15.0504 	 -106.717
| 38> H 	 -61.9319 	 13.4379 	 -106.629
| 39> H 	 -54.6333 	 10.6579 	 -101.264
| 40> H 	 -57.3828 	 10.7619 	 -109.132
| 41> *
| 42>
| 43>                          ****END OF INPUT****

CARTESIAN COORDINATES (ANGSTROEM)
---------------------------------
  S    -55.329600   10.096300  -103.696000
  C    -55.362800   10.857600  -102.094000
  C    -56.310400   11.937300  -102.034000
  C    -56.931300   12.180000  -103.334000
  C    -56.633800   11.189000  -104.242000
  H    -57.575400   12.984300  -103.524000
  C    -56.516200   12.838700  -100.843000
  H    -56.459800   12.200700  -99.932300
  H    -57.560700   13.167600  -100.897000
  C    -55.435600   13.881200  -100.712000
  H    -54.490900   13.365000  -100.637000
  H    -55.356300   14.500400  -101.616000
  C    -55.720400   14.898700  -99.566600
  H    -54.941500   15.716000  -99.593100
  H    -56.719800   15.439700  -99.777700
  H    -55.798100   14.356000  -98.606300
  S    -56.094600   10.804000  -107.055000
  C    -57.430300   11.084000  -108.137000
  C    -58.564900   11.527600  -107.531000
  C    -58.391700   11.625800  -106.092000
  C    -57.094000   11.299500  -105.622000
  H    -59.443400   11.621800  -108.134000
  C    -59.601600   12.053600  -105.285000
  H    -59.414600   11.815400  -104.247000
  H    -60.460700   11.379500  -105.500000
  C    -60.121400   13.587400  -105.432000
  H    -59.234300   14.220200  -105.421000
  H    -60.728200   13.873600  -104.557000
  C    -60.990800   13.989900  -106.695000
  H    -60.355800   13.640500  -107.488000
  H    -61.188700   15.050400  -106.717000
  H    -61.931900   13.437900  -106.629000
  H    -54.633300   10.657900  -101.264000
  H    -57.382800   10.761900  -109.132000

 Total Charge           Charge          ....    0
 Multiplicity           Mult            ....    1
 Number of Electrons    NEL             ....  134
 Basis Dimension        Dim             ....  322

ORBITAL ENERGIES
----------------

  NO   OCC          E(Eh)            E(eV)
   0   2.0000     -88.973637     -2421.0958
   1   2.0000     -88.965492     -2420.8741
   2   2.0000     -10.336383      -281.2673
   3   2.0000     -10.334725      -281.2222
   4   2.0000     -10.325678      -280.9760
   5   2.0000     -10.312797      -280.6255
   6   2.0000     -10.310676      -280.5678
   7   2.0000     -10.309645      -280.5397
   8   2.0000     -10.297416      -280.2069
   9   2.0000     -10.295827      -280.1637
  10   2.0000     -10.295759      -280.1619
  11   2.0000     -10.294461      -280.1265
  12   2.0000     -10.293624      -280.1038
  13   2.0000     -10.292900      -280.0841
  14   2.0000     -10.288087      -279.9531
  15   2.0000     -10.280300      -279.7412
  16   2.0000      -8.086897      -220.0557
  17   2.0000      -8.079525      -219.8551
  18   2.0000      -6.045630      -164.5100
  19   2.0000      -6.041709      -164.4033
  20   2.0000      -6.038170      -164.3069
  21   2.0000      -6.037413      -164.2864
  22   2.0000      -6.034191      -164.1987
  23   2.0000      -6.030141      -164.0885
  24   2.0000      -0.997250       -27.1365
  25   2.0000      -0.975197       -26.5365
  26   2.0000      -0.914106       -24.8741
  27   2.0000      -0.894744       -24.3472
  28   2.0000      -0.867708       -23.6115
  29   2.0000      -0.849477       -23.1155
  30   2.0000      -0.842429       -22.9237
  31   2.0000      -0.813987       -22.1497
  32   2.0000      -0.781378       -21.2624
  33   2.0000      -0.764722       -20.8092
  34   2.0000      -0.704898       -19.1812
  35   2.0000      -0.700420       -19.0594
  36   2.0000      -0.690781       -18.7971
  37   2.0000      -0.660865       -17.9830
  38   2.0000      -0.636979       -17.3331
  39   2.0000      -0.622907       -16.9502
  40   2.0000      -0.594773       -16.1846
  41   2.0000      -0.567994       -15.4559
  42   2.0000      -0.562931       -15.3181
  43   2.0000      -0.545559       -14.8454
  44   2.0000      -0.540653       -14.7119
  45   2.0000      -0.527292       -14.3483
  46   2.0000      -0.515480       -14.0269
  47   2.0000      -0.504240       -13.7211
  48   2.0000      -0.503256       -13.6943
  49   2.0000      -0.498868       -13.5749
  50   2.0000      -0.496134       -13.5005
  51   2.0000      -0.471863       -12.8400
  52   2.0000      -0.467763       -12.7285
  53   2.0000      -0.462342       -12.5810
  54   2.0000      -0.458245       -12.4695
  55   2.0000      -0.452288       -12.3074
  56   2.0000      -0.447346       -12.1729
  57   2.0000      -0.441595       -12.0164
  58   2.0000      -0.431000       -11.7281
  59   2.0000      -0.424692       -11.5564
  60   2.0000      -0.419286       -11.4094
  61   2.0000      -0.415953       -11.3186
  62   2.0000      -0.410836       -11.1794
  63   2.0000      -0.355604        -9.6765
  64   2.0000      -0.331603        -9.0234
  65   2.0000      -0.327968        -8.9245
  66   2.0000      -0.283811        -7.7229
  67   0.0000       0.018049         0.4911
  68   0.0000       0.074690         2.0324
  69   0.0000       0.098038         2.6677
  70   0.0000       0.115485         3.1425
  71   0.0000       0.129721         3.5299

MULLIKEN ATOMIC CHARGES
-----------------------
   0 S :    0.111293
   1 C :   -0.140687
   2 C :   -0.105702
   3 C :    0.016248
   4 C :   -0.114974
   5 H :    0.006857
   6 C :    0.053946
   7 H :    0.028004
   8 H :    0.025956
   9 C :   -0.060746
  10 H :    0.024223
  11 H :    0.027159
  12 C :   -0.076358
  13 H :    0.049829
  14 H :    0.041613
  15 H :    0.041250
  16 S :    0.088495
  17 C :   -0.077856
  18 C :   -0.015077
  19 C :   -0.059343
  20 C :   -0.122064
  21 H :    0.025255
  22 C :    0.033391
  23 H :    0.019778
  24 H :    0.034171
  25 C :   -0.108097
  26 H :    0.034776
  27 H :    0.033269
  28 C :   -0.040439
  29 H :    0.031142
  30 H :    0.043807
  31 H :    0.035826
  32 H :    0.072104
  33 H :    0.042951
Sum of atomic charges:    0.0000000

LOEWDIN ATOMIC CHARGES
----------------------
   0 S :    0.386564
   1 C :   -0.207559
   2 C :   -0.052355
   3 C :   -0.047450
   4 C :   -0.179224
   5 H :    0.025343
   6 C :   -0.040789
   7 H :    0.035282
   8 H :    0.030442
   9 C :   -0.042592
  10 H :    0.022998
  11 H :    0.025479
  12 C :   -0.073897
  13 H :    0.032152
  14 H :    0.033681
  15 H :    0.024645
  16 S :    0.372912
  17 C :   -0.169065
  18 C :   -0.073143
  19 C :   -0.051520
  20 C :   -0.179138
  21 H :    0.032626
  22 C :   -0.041103
  23 H :    0.026397
  24 H :    0.034900
  25 C :   -0.038482
  26 H :    0.019663
  27 H :    0.022539
  28 C :   -0.061915
  29 H :    0.021710
  30 H :    0.027796
  31 H :    0.025350
  32 H :    0.038808
  33 H :    0.018944

  Mayer bond orders larger than 0.100000
B(  0-S ,  1-C ) :   1.1286 B(  0-S ,  4-C ) :   1.1279 B(  1-C ,  2-C ) :   1.5978
B(  1-C , 32-H ) :   0.9602 B(  2-C ,  3-C ) :   1.2380 B(  2-C ,  6-C ) :   1.0355
B(  3-C ,  4-C ) :   1.5530 B(  3-C ,  5-H ) :   0.9990 B(  4-C , 20-C ) :   1.0909
B(  6-C ,  7-H ) :   0.9344 B(  6-C ,  8-H ) :   0.9410 B(  6-C ,  9-C ) :   1.0605
B(  9-C , 10-H ) :   0.9527 B(  9-C , 11-H ) :   0.9572 B(  9-C , 12-C ) :   1.0726
B( 12-C , 13-H ) :   0.9751 B( 12-C , 14-H ) :   0.9744 B( 12-C , 15-H ) :   0.9748
B( 16-S , 17-C ) :   1.1541 B( 16-S , 20-C ) :   1.1022 B( 17-C , 18-C ) :   1.6360
B( 17-C , 33-H ) :   0.9666 B( 18-C , 19-C ) :   1.2123 B( 18-C , 21-H ) :   0.9885
B( 19-C , 20-C ) :   1.5947 B( 19-C , 22-C ) :   1.0561 B( 22-C , 23-H ) :   0.9315
B( 22-C , 24-H ) :   0.9390 B( 22-C , 25-C ) :   1.0389 B( 25-C , 26-H ) :   0.9608
B( 25-C , 27-H ) :   0.9628 B( 25-C , 28-C ) :   1.0698 B( 28-C , 29-H ) :   0.9767
B( 28-C , 30-H ) :   0.9733 B( 28-C , 31-H ) :   0.9777

Dispersion correction           -0.013970495
FINAL SINGLE POINT ENERGY     -1339.870209543949

DIPOLE MOMENT
-------------
                                X             Y             Z
Electronic contribution:     14.86448     -21.64113     -14.29356
Nuclear contribution   :    -15.27502      22.08632      14.56286
                        -----------------------------------------
Total Dipole Moment    :     -0.41054       0.44520       0.26930
                        -----------------------------------------
Magnitude (a.u.)       :      0.66277
Magnitude (Debye)      :      1.68464

Rotational constants in cm-1:     0.017721     0.008281     0.006076
Rotational constants in MHz :   531.273150   248.243880   182.144690

                             ****ORCA TERMINATED NORMALLY****
TOTAL RUN TIME: 0 days 0 hours 0 minutes 20 seconds 95 msec
