                         Program Version 4.2.1 -  RELEASE  -
|  1> ! wB97X-D3 SP def2-SVP
|  2> %pal
|  3> nprocs 24
|  4> end
|  5>
|  6> * xyz 0 1
|  7> S 	 39.3881 	 -23.5249 	 -127.536
|  8> C 	 38.8814 	 -21.8719 	 -127.551
|  9> C 	 39.5744 	 -21.1878 	 -126.596
| 10> C 	 40.5817 	 -21.9009 	 -125.899
| 11> C 	 40.6608 	 -23.2134 	 -126.337
| 12> H 	 41.2574 	 -21.5515 	 -125.213
| 13> C 	 39.2122 	 -19.7409 	 -126.37
| 14> H 	 38.2136 	 -19.5814 	 -126.682
| 15> H 	 39.8049 	 -19.1837 	 -127.109
| 16> C 	 39.3379 	 -19.2341 	 -124.881
| 17> H 	 40.3453 	 -19.3659 	 -124.6
| 18> H 	 39.0053 	 -18.1567 	 -124.858
| 19> C 	 38.4725 	 -20.0218 	 -123.858
| 20> H 	 37.479 	 -20.0998 	 -124.253
| 21> H 	 38.9105 	 -21.0056 	 -123.823
| 22> H 	 38.5482 	 -19.6463 	 -122.85
| 23> S 	 42.7776 	 -24.8144 	 -127.007
| 24> C 	 43.7354 	 -25.489 	 -125.675
| 25> C 	 43.3356 	 -24.8969 	 -124.443
| 26> C 	 42.0932 	 -24.1708 	 -124.526
| 27> C 	 41.6796 	 -24.0777 	 -125.843
| 28> H 	 43.9113 	 -25.1756 	 -123.579
| 29> C 	 41.4259 	 -23.7764 	 -123.253
| 30> H 	 40.9812 	 -22.7613 	 -123.221
| 31> H 	 42.2726 	 -23.6061 	 -122.48
| 32> C 	 40.338 	 -24.7952 	 -122.751
| 33> H 	 40.6219 	 -25.8881 	 -122.691
| 34> H 	 39.422 	 -24.8029 	 -123.404
| 35> C 	 39.8139 	 -24.3358 	 -121.461
| 36> H 	 39.8386 	 -23.2678 	 -121.552
| 37> H 	 40.5256 	 -24.5 	 -120.613
| 38> H 	 38.7892 	 -24.7182 	 -121.133
| 39> H 	 38.1344 	 -21.4813 	 -128.205
| 40> H 	 44.5543 	 -26.1951 	 -125.603
| 41> *
| 42>
| 43>                          ****END OF INPUT****

CARTESIAN COORDINATES (ANGSTROEM)
---------------------------------
  S     39.388100  -23.524900  -127.536000
  C     38.881400  -21.871900  -127.551000
  C     39.574400  -21.187800  -126.596000
  C     40.581700  -21.900900  -125.899000
  C     40.660800  -23.213400  -126.337000
  H     41.257400  -21.551500  -125.213000
  C     39.212200  -19.740900  -126.370000
  H     38.213600  -19.581400  -126.682000
  H     39.804900  -19.183700  -127.109000
  C     39.337900  -19.234100  -124.881000
  H     40.345300  -19.365900  -124.600000
  H     39.005300  -18.156700  -124.858000
  C     38.472500  -20.021800  -123.858000
  H     37.479000  -20.099800  -124.253000
  H     38.910500  -21.005600  -123.823000
  H     38.548200  -19.646300  -122.850000
  S     42.777600  -24.814400  -127.007000
  C     43.735400  -25.489000  -125.675000
  C     43.335600  -24.896900  -124.443000
  C     42.093200  -24.170800  -124.526000
  C     41.679600  -24.077700  -125.843000
  H     43.911300  -25.175600  -123.579000
  C     41.425900  -23.776400  -123.253000
  H     40.981200  -22.761300  -123.221000
  H     42.272600  -23.606100  -122.480000
  C     40.338000  -24.795200  -122.751000
  H     40.621900  -25.888100  -122.691000
  H     39.422000  -24.802900  -123.404000
  C     39.813900  -24.335800  -121.461000
  H     39.838600  -23.267800  -121.552000
  H     40.525600  -24.500000  -120.613000
  H     38.789200  -24.718200  -121.133000
  H     38.134400  -21.481300  -128.205000
  H     44.554300  -26.195100  -125.603000

 Total Charge           Charge          ....    0
 Multiplicity           Mult            ....    1
 Number of Electrons    NEL             ....  134
 Basis Dimension        Dim             ....  322

ORBITAL ENERGIES
----------------

  NO   OCC          E(Eh)            E(eV)
   0   2.0000     -88.971295     -2421.0320
   1   2.0000     -88.965131     -2420.8643
   2   2.0000     -10.327198      -281.0173
   3   2.0000     -10.325608      -280.9741
   4   2.0000     -10.321723      -280.8684
   5   2.0000     -10.308268      -280.5022
   6   2.0000     -10.307541      -280.4824
   7   2.0000     -10.305215      -280.4191
   8   2.0000     -10.296467      -280.1811
   9   2.0000     -10.295549      -280.1561
  10   2.0000     -10.291967      -280.0587
  11   2.0000     -10.290268      -280.0124
  12   2.0000     -10.288539      -279.9654
  13   2.0000     -10.287645      -279.9411
  14   2.0000     -10.277423      -279.6629
  15   2.0000     -10.273798      -279.5643
  16   2.0000      -8.084999      -220.0040
  17   2.0000      -8.079741      -219.8609
  18   2.0000      -6.043617      -164.4552
  19   2.0000      -6.039703      -164.3487
  20   2.0000      -6.038220      -164.3083
  21   2.0000      -6.035636      -164.2380
  22   2.0000      -6.034197      -164.1988
  23   2.0000      -6.030600      -164.1010
  24   2.0000      -1.008028       -27.4298
  25   2.0000      -0.982376       -26.7318
  26   2.0000      -0.913411       -24.8552
  27   2.0000      -0.906797       -24.6752
  28   2.0000      -0.875045       -23.8112
  29   2.0000      -0.858108       -23.3503
  30   2.0000      -0.844781       -22.9877
  31   2.0000      -0.816427       -22.2161
  32   2.0000      -0.780166       -21.2294
  33   2.0000      -0.766501       -20.8575
  34   2.0000      -0.711633       -19.3645
  35   2.0000      -0.694093       -18.8872
  36   2.0000      -0.690637       -18.7932
  37   2.0000      -0.662494       -18.0274
  38   2.0000      -0.646915       -17.6034
  39   2.0000      -0.625012       -17.0075
  40   2.0000      -0.597959       -16.2713
  41   2.0000      -0.566432       -15.4134
  42   2.0000      -0.555291       -15.1102
  43   2.0000      -0.553245       -15.0546
  44   2.0000      -0.538125       -14.6431
  45   2.0000      -0.531229       -14.4555
  46   2.0000      -0.525747       -14.3063
  47   2.0000      -0.512873       -13.9560
  48   2.0000      -0.507795       -13.8178
  49   2.0000      -0.504861       -13.7380
  50   2.0000      -0.491518       -13.3749
  51   2.0000      -0.485720       -13.2171
  52   2.0000      -0.466862       -12.7039
  53   2.0000      -0.461725       -12.5642
  54   2.0000      -0.450242       -12.2517
  55   2.0000      -0.445842       -12.1320
  56   2.0000      -0.444636       -12.0992
  57   2.0000      -0.437505       -11.9051
  58   2.0000      -0.433032       -11.7834
  59   2.0000      -0.430563       -11.7162
  60   2.0000      -0.429496       -11.6872
  61   2.0000      -0.406887       -11.0720
  62   2.0000      -0.403609       -10.9828
  63   2.0000      -0.345815        -9.4101
  64   2.0000      -0.332347        -9.0436
  65   2.0000      -0.326549        -8.8859
  66   2.0000      -0.290446        -7.9034
  67   0.0000       0.021661         0.5894
  68   0.0000       0.072521         1.9734
  69   0.0000       0.104406         2.8410
  70   0.0000       0.119556         3.2533
  71   0.0000       0.131199         3.5701

MULLIKEN ATOMIC CHARGES
-----------------------
   0 S :    0.112351
   1 C :   -0.123008
   2 C :   -0.090526
   3 C :    0.051243
   4 C :   -0.151373
   5 H :   -0.014173
   6 C :    0.082181
   7 H :    0.003117
   8 H :    0.044173
   9 C :   -0.097359
  10 H :    0.022614
  11 H :    0.043497
  12 C :   -0.030876
  13 H :    0.031500
  14 H :    0.022235
  15 H :    0.039048
  16 S :    0.126027
  17 C :   -0.090076
  18 C :   -0.059134
  19 C :   -0.000235
  20 C :   -0.155063
  21 H :    0.018053
  22 C :    0.006969
  23 H :    0.020274
  24 H :    0.037691
  25 C :   -0.066407
  26 H :    0.042879
  27 H :    0.044179
  28 C :   -0.050363
  29 H :    0.008639
  30 H :    0.025512
  31 H :    0.050253
  32 H :    0.043199
  33 H :    0.052961
Sum of atomic charges:    0.0000000

LOEWDIN ATOMIC CHARGES
----------------------
   0 S :    0.401066
   1 C :   -0.199587
   2 C :   -0.066078
   3 C :   -0.047814
   4 C :   -0.186916
   5 H :    0.017240
   6 C :   -0.030505
   7 H :    0.019672
   8 H :    0.037112
   9 C :   -0.036106
  10 H :    0.012236
  11 H :    0.030540
  12 C :   -0.060072
  13 H :    0.023782
  14 H :    0.021397
  15 H :    0.026600
  16 S :    0.403529
  17 C :   -0.188054
  18 C :   -0.062448
  19 C :   -0.060390
  20 C :   -0.193367
  21 H :    0.027355
  22 C :   -0.038973
  23 H :    0.027814
  24 H :    0.041800
  25 C :   -0.046525
  26 H :    0.030663
  27 H :    0.035810
  28 C :   -0.076363
  29 H :    0.018576
  30 H :    0.024002
  31 H :    0.034161
  32 H :    0.027232
  33 H :    0.032614

  Mayer bond orders larger than 0.100000
B(  0-S ,  1-C ) :   1.1309 B(  0-S ,  4-C ) :   1.1497 B(  1-C ,  2-C ) :   1.6030
B(  1-C , 32-H ) :   0.9778 B(  2-C ,  3-C ) :   1.2385 B(  2-C ,  6-C ) :   1.0092
B(  3-C ,  4-C ) :   1.5447 B(  3-C ,  5-H ) :   1.0110 B(  4-C , 20-C ) :   1.0766
B(  6-C ,  7-H ) :   0.9433 B(  6-C ,  8-H ) :   0.9375 B(  6-C ,  9-C ) :   1.0660
B(  9-C , 10-H ) :   0.9571 B(  9-C , 11-H ) :   0.9591 B(  9-C , 12-C ) :   1.0757
B( 12-C , 13-H ) :   0.9755 B( 12-C , 14-H ) :   0.9720 B( 12-C , 15-H ) :   0.9746
B( 16-S , 17-C ) :   1.1378 B( 16-S , 20-C ) :   1.1358 B( 17-C , 18-C ) :   1.6330
B( 17-C , 33-H ) :   0.9667 B( 18-C , 19-C ) :   1.2287 B( 18-C , 21-H ) :   0.9847
B( 19-C , 20-C ) :   1.5792 B( 19-C , 22-C ) :   1.0533 B( 22-C , 23-H ) :   0.9227
B( 22-C , 24-H ) :   0.9387 B( 22-C , 25-C ) :   1.0500 B( 25-C , 26-H ) :   0.9572
B( 25-C , 27-H ) :   0.9506 B( 25-C , 28-C ) :   1.0805 B( 28-C , 29-H ) :   0.9660
B( 28-C , 30-H ) :   0.9708 B( 28-C , 31-H ) :   0.9718

Dispersion correction           -0.015200530
FINAL SINGLE POINT ENERGY     -1339.858189859154

DIPOLE MOMENT
-------------
                                X             Y             Z
Electronic contribution:      9.81690     -13.41068     -24.72985
Nuclear contribution   :     -9.83222      13.78106      25.25283
                        -----------------------------------------
Total Dipole Moment    :     -0.01533       0.37038       0.52298
                        -----------------------------------------
Magnitude (a.u.)       :      0.64103
Magnitude (Debye)      :      1.62938

Rotational constants in cm-1:     0.016555     0.010521     0.007640
Rotational constants in MHz :   496.295916   315.397972   229.047582

                             ****ORCA TERMINATED NORMALLY****
TOTAL RUN TIME: 0 days 0 hours 0 minutes 22 seconds 664 msec
