                         Program Version 4.2.1 -  RELEASE  -
|  1> ! wB97X-D3 SP def2-SVP
|  2> %pal
|  3> nprocs 24
|  4> end
|  5>
|  6> * xyz 0 1
|  7> S 	 -85.8553 	 -31.8876 	 -55.5123
|  8> C 	 -84.1705 	 -32.0792 	 -55.8346
|  9> C 	 -83.3492 	 -31.3261 	 -54.986
| 10> C 	 -84.065 	 -30.4506 	 -54.1534
| 11> C 	 -85.417 	 -30.8133 	 -54.1295
| 12> H 	 -83.6067 	 -29.8596 	 -53.4023
| 13> C 	 -81.8345 	 -31.2146 	 -55.0741
| 14> H 	 -81.3923 	 -32.1782 	 -55.199
| 15> H 	 -81.4775 	 -30.8827 	 -54.0958
| 16> C 	 -81.4451 	 -30.2388 	 -56.1523
| 17> H 	 -80.3746 	 -30.4012 	 -56.294
| 18> H 	 -81.7751 	 -30.5149 	 -57.1429
| 19> C 	 -81.7435 	 -28.776 	 -55.8
| 20> H 	 -81.5802 	 -28.2244 	 -56.7394
| 21> H 	 -82.738 	 -28.5259 	 -55.4871
| 22> H 	 -81.2122 	 -28.4903 	 -54.9032
| 23> S 	 -87.8979 	 -29.7248 	 -54.2275
| 24> C 	 -88.7371 	 -29.5638 	 -52.6843
| 25> C 	 -87.879 	 -29.7133 	 -51.5861
| 26> C 	 -86.526 	 -29.9721 	 -51.9564
| 27> C 	 -86.4175 	 -30.1229 	 -53.3205
| 28> H 	 -88.2717 	 -29.7577 	 -50.5372
| 29> C 	 -85.4534 	 -30.2364 	 -50.9493
| 30> H 	 -84.6951 	 -30.9778 	 -51.3556
| 31> H 	 -86.0463 	 -30.8033 	 -50.2118
| 32> C 	 -84.6577 	 -29.0744 	 -50.3733
| 33> H 	 -85.2519 	 -28.3724 	 -49.7148
| 34> H 	 -84.2714 	 -28.5581 	 -51.257
| 35> C 	 -83.5446 	 -29.47 	 -49.4786
| 36> H 	 -82.901 	 -28.6732 	 -49.0823
| 37> H 	 -82.8741 	 -30.0818 	 -50.02
| 38> H 	 -83.8741 	 -30.0267 	 -48.5639
| 39> H 	 -83.7966 	 -32.7118 	 -56.6174
| 40> H 	 -89.8652 	 -29.2773 	 -52.6345
| 41> *
| 42>
| 43>                          ****END OF INPUT****

CARTESIAN COORDINATES (ANGSTROEM)
---------------------------------
  S    -85.855300  -31.887600  -55.512300
  C    -84.170500  -32.079200  -55.834600
  C    -83.349200  -31.326100  -54.986000
  C    -84.065000  -30.450600  -54.153400
  C    -85.417000  -30.813300  -54.129500
  H    -83.606700  -29.859600  -53.402300
  C    -81.834500  -31.214600  -55.074100
  H    -81.392300  -32.178200  -55.199000
  H    -81.477500  -30.882700  -54.095800
  C    -81.445100  -30.238800  -56.152300
  H    -80.374600  -30.401200  -56.294000
  H    -81.775100  -30.514900  -57.142900
  C    -81.743500  -28.776000  -55.800000
  H    -81.580200  -28.224400  -56.739400
  H    -82.738000  -28.525900  -55.487100
  H    -81.212200  -28.490300  -54.903200
  S    -87.897900  -29.724800  -54.227500
  C    -88.737100  -29.563800  -52.684300
  C    -87.879000  -29.713300  -51.586100
  C    -86.526000  -29.972100  -51.956400
  C    -86.417500  -30.122900  -53.320500
  H    -88.271700  -29.757700  -50.537200
  C    -85.453400  -30.236400  -50.949300
  H    -84.695100  -30.977800  -51.355600
  H    -86.046300  -30.803300  -50.211800
  C    -84.657700  -29.074400  -50.373300
  H    -85.251900  -28.372400  -49.714800
  H    -84.271400  -28.558100  -51.257000
  C    -83.544600  -29.470000  -49.478600
  H    -82.901000  -28.673200  -49.082300
  H    -82.874100  -30.081800  -50.020000
  H    -83.874100  -30.026700  -48.563900
  H    -83.796600  -32.711800  -56.617400
  H    -89.865200  -29.277300  -52.634500

 Total Charge           Charge          ....    0
 Multiplicity           Mult            ....    1
 Number of Electrons    NEL             ....  134
 Basis Dimension        Dim             ....  322

ORBITAL ENERGIES
----------------

  NO   OCC          E(Eh)            E(eV)
   0   2.0000     -88.971250     -2421.0308
   1   2.0000     -88.964607     -2420.8500
   2   2.0000     -10.331707      -281.1400
   3   2.0000     -10.326325      -280.9936
   4   2.0000     -10.324102      -280.9331
   5   2.0000     -10.310320      -280.5581
   6   2.0000     -10.302637      -280.3490
   7   2.0000     -10.300599      -280.2935
   8   2.0000     -10.296426      -280.1800
   9   2.0000     -10.295947      -280.1670
  10   2.0000     -10.291185      -280.0374
  11   2.0000     -10.290704      -280.0243
  12   2.0000     -10.287186      -279.9285
  13   2.0000     -10.283230      -279.8209
  14   2.0000     -10.276843      -279.6471
  15   2.0000     -10.274952      -279.5956
  16   2.0000      -8.085116      -220.0072
  17   2.0000      -8.078910      -219.8383
  18   2.0000      -6.043534      -164.4529
  19   2.0000      -6.039888      -164.3537
  20   2.0000      -6.037391      -164.2858
  21   2.0000      -6.035872      -164.2444
  22   2.0000      -6.033638      -164.1836
  23   2.0000      -6.029567      -164.0728
  24   2.0000      -1.003198       -27.2984
  25   2.0000      -0.980188       -26.6723
  26   2.0000      -0.916891       -24.9499
  27   2.0000      -0.913842       -24.8669
  28   2.0000      -0.863059       -23.4850
  29   2.0000      -0.860193       -23.4070
  30   2.0000      -0.849175       -23.1072
  31   2.0000      -0.809130       -22.0175
  32   2.0000      -0.784602       -21.3501
  33   2.0000      -0.768282       -20.9060
  34   2.0000      -0.707792       -19.2600
  35   2.0000      -0.702010       -19.1027
  36   2.0000      -0.687504       -18.7079
  37   2.0000      -0.663888       -18.0653
  38   2.0000      -0.639903       -17.4126
  39   2.0000      -0.616436       -16.7741
  40   2.0000      -0.592350       -16.1187
  41   2.0000      -0.573514       -15.6061
  42   2.0000      -0.564879       -15.3711
  43   2.0000      -0.551522       -15.0077
  44   2.0000      -0.534385       -14.5414
  45   2.0000      -0.522521       -14.2185
  46   2.0000      -0.521035       -14.1781
  47   2.0000      -0.518588       -14.1115
  48   2.0000      -0.506937       -13.7944
  49   2.0000      -0.492925       -13.4132
  50   2.0000      -0.487255       -13.2589
  51   2.0000      -0.478654       -13.0248
  52   2.0000      -0.469150       -12.7662
  53   2.0000      -0.462561       -12.5869
  54   2.0000      -0.457653       -12.4534
  55   2.0000      -0.449240       -12.2244
  56   2.0000      -0.445474       -12.1220
  57   2.0000      -0.441975       -12.0267
  58   2.0000      -0.432519       -11.7695
  59   2.0000      -0.428336       -11.6556
  60   2.0000      -0.422095       -11.4858
  61   2.0000      -0.415452       -11.3050
  62   2.0000      -0.405701       -11.0397
  63   2.0000      -0.347964        -9.4686
  64   2.0000      -0.333849        -9.0845
  65   2.0000      -0.328122        -8.9286
  66   2.0000      -0.281033        -7.6473
  67   0.0000       0.021358         0.5812
  68   0.0000       0.067458         1.8356
  69   0.0000       0.101983         2.7751
  70   0.0000       0.119680         3.2567
  71   0.0000       0.122398         3.3306

MULLIKEN ATOMIC CHARGES
-----------------------
   0 S :    0.122800
   1 C :   -0.119663
   2 C :   -0.097570
   3 C :    0.028578
   4 C :   -0.133957
   5 H :    0.003976
   6 C :    0.083309
   7 H :    0.016155
   8 H :    0.010603
   9 C :   -0.041648
  10 H :    0.020500
  11 H :    0.015510
  12 C :   -0.038378
  13 H :    0.043836
  14 H :    0.031006
  15 H :    0.021017
  16 S :    0.092549
  17 C :   -0.141730
  18 C :   -0.043572
  19 C :   -0.013394
  20 C :   -0.162823
  21 H :    0.039703
  22 C :    0.012578
  23 H :    0.035247
  24 H :    0.022897
  25 C :   -0.046397
  26 H :    0.036270
  27 H :    0.030347
  28 C :   -0.037777
  29 H :    0.035451
  30 H :    0.007602
  31 H :    0.033729
  32 H :    0.041128
  33 H :    0.092119
Sum of atomic charges:    0.0000000

LOEWDIN ATOMIC CHARGES
----------------------
   0 S :    0.401672
   1 C :   -0.207361
   2 C :   -0.058322
   3 C :   -0.058838
   4 C :   -0.174161
   5 H :    0.024118
   6 C :   -0.028982
   7 H :    0.025898
   8 H :    0.026781
   9 C :   -0.038120
  10 H :    0.024709
  11 H :    0.021102
  12 C :   -0.064689
  13 H :    0.034958
  14 H :    0.023148
  15 H :    0.024412
  16 S :    0.378825
  17 C :   -0.198802
  18 C :   -0.075837
  19 C :   -0.058938
  20 C :   -0.181925
  21 H :    0.040870
  22 C :   -0.039378
  23 H :    0.037596
  24 H :    0.033064
  25 C :   -0.044649
  26 H :    0.031570
  27 H :    0.025070
  28 C :   -0.068532
  29 H :    0.030130
  30 H :    0.013807
  31 H :    0.030524
  32 H :    0.022674
  33 H :    0.047605

  Mayer bond orders larger than 0.100000
B(  0-S ,  1-C ) :   1.1409 B(  0-S ,  4-C ) :   1.1515 B(  1-C ,  2-C ) :   1.5865
B(  1-C , 32-H ) :   0.9680 B(  2-C ,  3-C ) :   1.2741 B(  2-C ,  6-C ) :   1.0315
B(  3-C ,  4-C ) :   1.5371 B(  3-C ,  5-H ) :   0.9816 B(  4-C , 20-C ) :   1.0622
B(  6-C ,  7-H ) :   0.9345 B(  6-C ,  8-H ) :   0.9394 B(  6-C ,  9-C ) :   1.0799
B(  9-C , 10-H ) :   0.9500 B(  9-C , 11-H ) :   0.9552 B(  9-C , 12-C ) :   1.0726
B( 12-C , 13-H ) :   0.9718 B( 12-C , 14-H ) :   0.9710 B( 12-C , 15-H ) :   0.9723
B( 16-S , 17-C ) :   1.1395 B( 16-S , 20-C ) :   1.1284 B( 17-C , 18-C ) :   1.6180
B( 17-C , 33-H ) :   0.9544 B( 18-C , 19-C ) :   1.2401 B( 18-C , 21-H ) :   0.9804
B( 19-C , 20-C ) :   1.5995 B( 19-C , 22-C ) :   1.0403 B( 22-C , 23-H ) :   0.9318
B( 22-C , 24-H ) :   0.9275 B( 22-C , 25-C ) :   1.0612 B( 25-C , 26-H ) :   0.9514
B( 25-C , 27-H ) :   0.9480 B( 25-C , 28-C ) :   1.0942 B( 28-C , 29-H ) :   0.9715
B( 28-C , 30-H ) :   0.9689 B( 28-C , 31-H ) :   0.9715

Dispersion correction           -0.014624593
FINAL SINGLE POINT ENERGY     -1339.864186721839

DIPOLE MOMENT
-------------
                                X             Y             Z
Electronic contribution:    -24.74467      -7.43496     -12.08472
Nuclear contribution   :     25.24000       7.44857      12.42661
                        -----------------------------------------
Total Dipole Moment    :      0.49533       0.01361       0.34190
                        -----------------------------------------
Magnitude (a.u.)       :      0.60202
Magnitude (Debye)      :      1.53022

Rotational constants in cm-1:     0.016571     0.010066     0.007168
Rotational constants in MHz :   496.795554   301.775845   214.882957

                             ****ORCA TERMINATED NORMALLY****
TOTAL RUN TIME: 0 days 0 hours 0 minutes 22 seconds 166 msec
