                         Program Version 4.2.1 -  RELEASE  -
|  1> ! wB97X-D3 SP def2-SVP
|  2> %pal
|  3> nprocs 24
|  4> end
|  5>
|  6> * xyz 0 1
|  7> S 	 -105.163 	 36.337 	 -19.5242
|  8> C 	 -103.688 	 35.7655 	 -18.8638
|  9> C 	 -102.941 	 35.0209 	 -19.7211
| 10> C 	 -103.626 	 34.7855 	 -20.934
| 11> C 	 -104.835 	 35.3905 	 -20.9258
| 12> H 	 -103.325 	 34.1558 	 -21.7691
| 13> C 	 -101.557 	 34.3952 	 -19.5371
| 14> H 	 -100.974 	 35.0545 	 -18.9494
| 15> H 	 -101.088 	 34.3181 	 -20.5196
| 16> C 	 -101.495 	 33.0011 	 -18.9508
| 17> H 	 -102.115 	 33.0151 	 -18.053
| 18> H 	 -102.01 	 32.3514 	 -19.6669
| 19> C 	 -100.143 	 32.4763 	 -18.4839
| 20> H 	 -100.148 	 31.5404 	 -17.8495
| 21> H 	 -99.6628 	 32.0616 	 -19.3951
| 22> H 	 -99.4219 	 33.2682 	 -18.158
| 23> S 	 -107.384 	 34.6417 	 -21.6942
| 24> C 	 -107.691 	 34.4473 	 -23.4309
| 25> C 	 -106.665 	 34.9426 	 -24.1731
| 26> C 	 -105.534 	 35.4144 	 -23.3812
| 27> C 	 -105.785 	 35.2948 	 -22.0371
| 28> H 	 -106.712 	 34.9194 	 -25.2984
| 29> C 	 -104.31 	 35.9999 	 -24.0531
| 30> H 	 -104.005 	 35.3217 	 -24.8166
| 31> H 	 -103.632 	 36.1107 	 -23.241
| 32> C 	 -104.5 	 37.3799 	 -24.6283
| 33> H 	 -104.991 	 38.0598 	 -23.9341
| 34> H 	 -105.309 	 37.4176 	 -25.3653
| 35> C 	 -103.38 	 38.0312 	 -25.3564
| 36> H 	 -102.421 	 38.3182 	 -24.8783
| 37> H 	 -103.754 	 39.0012 	 -25.6591
| 38> H 	 -103.132 	 37.4232 	 -26.2396
| 39> H 	 -103.141 	 36.1798 	 -18.0308
| 40> H 	 -108.639 	 34.1583 	 -23.8044
| 41> *
| 42>
| 43>                          ****END OF INPUT****

CARTESIAN COORDINATES (ANGSTROEM)
---------------------------------
  S    -105.163000   36.337000  -19.524200
  C    -103.688000   35.765500  -18.863800
  C    -102.941000   35.020900  -19.721100
  C    -103.626000   34.785500  -20.934000
  C    -104.835000   35.390500  -20.925800
  H    -103.325000   34.155800  -21.769100
  C    -101.557000   34.395200  -19.537100
  H    -100.974000   35.054500  -18.949400
  H    -101.088000   34.318100  -20.519600
  C    -101.495000   33.001100  -18.950800
  H    -102.115000   33.015100  -18.053000
  H    -102.010000   32.351400  -19.666900
  C    -100.143000   32.476300  -18.483900
  H    -100.148000   31.540400  -17.849500
  H    -99.662800   32.061600  -19.395100
  H    -99.421900   33.268200  -18.158000
  S    -107.384000   34.641700  -21.694200
  C    -107.691000   34.447300  -23.430900
  C    -106.665000   34.942600  -24.173100
  C    -105.534000   35.414400  -23.381200
  C    -105.785000   35.294800  -22.037100
  H    -106.712000   34.919400  -25.298400
  C    -104.310000   35.999900  -24.053100
  H    -104.005000   35.321700  -24.816600
  H    -103.632000   36.110700  -23.241000
  C    -104.500000   37.379900  -24.628300
  H    -104.991000   38.059800  -23.934100
  H    -105.309000   37.417600  -25.365300
  C    -103.380000   38.031200  -25.356400
  H    -102.421000   38.318200  -24.878300
  H    -103.754000   39.001200  -25.659100
  H    -103.132000   37.423200  -26.239600
  H    -103.141000   36.179800  -18.030800
  H    -108.639000   34.158300  -23.804400

 Total Charge           Charge          ....    0
 Multiplicity           Mult            ....    1
 Number of Electrons    NEL             ....  134
 Basis Dimension        Dim             ....  322

ORBITAL ENERGIES
----------------

  NO   OCC          E(Eh)            E(eV)
   0   2.0000     -88.970531     -2421.0112
   1   2.0000     -88.961133     -2420.7555
   2   2.0000     -10.323538      -280.9178
   3   2.0000     -10.322172      -280.8806
   4   2.0000     -10.314541      -280.6729
   5   2.0000     -10.306657      -280.4584
   6   2.0000     -10.301762      -280.3252
   7   2.0000     -10.297778      -280.2168
   8   2.0000     -10.296500      -280.1820
   9   2.0000     -10.288837      -279.9735
  10   2.0000     -10.287647      -279.9411
  11   2.0000     -10.287559      -279.9387
  12   2.0000     -10.284478      -279.8549
  13   2.0000     -10.284003      -279.8420
  14   2.0000     -10.280111      -279.7360
  15   2.0000     -10.277028      -279.6522
  16   2.0000      -8.086326      -220.0401
  17   2.0000      -8.075808      -219.7539
  18   2.0000      -6.044690      -164.4844
  19   2.0000      -6.040831      -164.3794
  20   2.0000      -6.037036      -164.2761
  21   2.0000      -6.034434      -164.2053
  22   2.0000      -6.030440      -164.0966
  23   2.0000      -6.026341      -163.9851
  24   2.0000      -1.015674       -27.6379
  25   2.0000      -0.986075       -26.8325
  26   2.0000      -0.915417       -24.9098
  27   2.0000      -0.914135       -24.8749
  28   2.0000      -0.871782       -23.7224
  29   2.0000      -0.858474       -23.3603
  30   2.0000      -0.849597       -23.1187
  31   2.0000      -0.815663       -22.1953
  32   2.0000      -0.785834       -21.3836
  33   2.0000      -0.776091       -21.1185
  34   2.0000      -0.703150       -19.1337
  35   2.0000      -0.697552       -18.9813
  36   2.0000      -0.696063       -18.9409
  37   2.0000      -0.661498       -18.0003
  38   2.0000      -0.641828       -17.4650
  39   2.0000      -0.622171       -16.9301
  40   2.0000      -0.597070       -16.2471
  41   2.0000      -0.571517       -15.5518
  42   2.0000      -0.570730       -15.5303
  43   2.0000      -0.557329       -15.1657
  44   2.0000      -0.530329       -14.4310
  45   2.0000      -0.524645       -14.2763
  46   2.0000      -0.518882       -14.1195
  47   2.0000      -0.512225       -13.9384
  48   2.0000      -0.504679       -13.7330
  49   2.0000      -0.500159       -13.6100
  50   2.0000      -0.490665       -13.3517
  51   2.0000      -0.482988       -13.1428
  52   2.0000      -0.476068       -12.9545
  53   2.0000      -0.462943       -12.5973
  54   2.0000      -0.459411       -12.5012
  55   2.0000      -0.449597       -12.2342
  56   2.0000      -0.447710       -12.1828
  57   2.0000      -0.441476       -12.0132
  58   2.0000      -0.434562       -11.8250
  59   2.0000      -0.429964       -11.6999
  60   2.0000      -0.420087       -11.4312
  61   2.0000      -0.403647       -10.9838
  62   2.0000      -0.403000       -10.9662
  63   2.0000      -0.350271        -9.5314
  64   2.0000      -0.336446        -9.1552
  65   2.0000      -0.327917        -8.9231
  66   2.0000      -0.296563        -8.0699
  67   0.0000       0.037897         1.0312
  68   0.0000       0.072446         1.9714
  69   0.0000       0.109664         2.9841
  70   0.0000       0.120985         3.2922
  71   0.0000       0.132192         3.5971

MULLIKEN ATOMIC CHARGES
-----------------------
   0 S :    0.133546
   1 C :   -0.093291
   2 C :   -0.108048
   3 C :    0.015388
   4 C :   -0.163643
   5 H :    0.023522
   6 C :    0.090039
   7 H :    0.001854
   8 H :    0.018455
   9 C :   -0.060915
  10 H :    0.023799
  11 H :    0.026361
  12 C :   -0.069822
  13 H :    0.052305
  14 H :    0.020003
  15 H :    0.044537
  16 S :    0.087858
  17 C :   -0.080351
  18 C :   -0.041311
  19 C :   -0.081757
  20 C :   -0.143705
  21 H :    0.038316
  22 C :    0.161470
  23 H :    0.016341
  24 H :    0.013545
  25 C :   -0.086457
  26 H :    0.018564
  27 H :    0.008095
  28 C :   -0.032485
  29 H :    0.032318
  30 H :    0.024317
  31 H :    0.028410
  32 H :    0.038063
  33 H :    0.044678
Sum of atomic charges:   -0.0000000

LOEWDIN ATOMIC CHARGES
----------------------
   0 S :    0.433334
   1 C :   -0.211957
   2 C :   -0.058292
   3 C :   -0.060931
   4 C :   -0.198851
   5 H :    0.037158
   6 C :   -0.025059
   7 H :    0.019466
   8 H :    0.029671
   9 C :   -0.046464
  10 H :    0.022594
  11 H :    0.025192
  12 C :   -0.081227
  13 H :    0.038082
  14 H :    0.025979
  15 H :    0.031852
  16 S :    0.378287
  17 C :   -0.169818
  18 C :   -0.073058
  19 C :   -0.055167
  20 C :   -0.195007
  21 H :    0.040061
  22 C :   -0.025040
  23 H :    0.028080
  24 H :    0.028627
  25 C :   -0.050737
  26 H :    0.026475
  27 H :    0.024643
  28 C :   -0.067004
  29 H :    0.024201
  30 H :    0.029574
  31 H :    0.025766
  32 H :    0.028185
  33 H :    0.021386

  Mayer bond orders larger than 0.100000
B(  0-S ,  1-C ) :   1.1280 B(  0-S ,  4-C ) :   1.1659 B(  1-C ,  2-C ) :   1.6549
B(  1-C , 32-H ) :   0.9556 B(  2-C ,  3-C ) :   1.2271 B(  2-C ,  6-C ) :   1.0263
B(  3-C ,  4-C ) :   1.5952 B(  3-C ,  5-H ) :   0.9962 B(  4-C , 20-C ) :   0.9916
B(  6-C ,  7-H ) :   0.9295 B(  6-C ,  8-H ) :   0.9388 B(  6-C ,  9-C ) :   1.0718
B(  9-C , 10-H ) :   0.9561 B(  9-C , 11-H ) :   0.9545 B(  9-C , 12-C ) :   1.0718
B( 12-C , 13-H ) :   0.9731 B( 12-C , 14-H ) :   0.9725 B( 12-C , 15-H ) :   0.9732
B( 16-S , 17-C ) :   1.1296 B( 16-S , 20-C ) :   1.1284 B( 17-C , 18-C ) :   1.6525
B( 17-C , 33-H ) :   0.9719 B( 18-C , 19-C ) :   1.1941 B( 18-C , 21-H ) :   0.9797
B( 19-C , 20-C ) :   1.6497 B( 19-C , 22-C ) :   1.0454 B( 22-C , 23-H ) :   0.9224
B( 22-C , 24-H ) :   0.9197 B( 22-C , 25-C ) :   1.0791 B( 25-C , 26-H ) :   0.9468
B( 25-C , 27-H ) :   0.9450 B( 25-C , 28-C ) :   1.0927 B( 28-C , 29-H ) :   0.9752
B( 28-C , 30-H ) :   0.9682 B( 28-C , 31-H ) :   0.9710

Dispersion correction           -0.013652039
FINAL SINGLE POINT ENERGY     -1339.874852661404

DIPOLE MOMENT
-------------
                                X             Y             Z
Electronic contribution:    -24.77876       1.68430       8.16088
Nuclear contribution   :     25.29900      -1.70157      -8.59416
                        -----------------------------------------
Total Dipole Moment    :      0.52024      -0.01727      -0.43328
                        -----------------------------------------
Magnitude (a.u.)       :      0.67726
Magnitude (Debye)      :      1.72146

Rotational constants in cm-1:     0.017627     0.007847     0.006675
Rotational constants in MHz :   528.435520   235.255746   200.096699

                             ****ORCA TERMINATED NORMALLY****
TOTAL RUN TIME: 0 days 0 hours 0 minutes 21 seconds 292 msec
