                         Program Version 4.2.1 -  RELEASE  -
|  1> ! wB97X-D3 SP def2-SVP
|  2> %pal
|  3> nprocs 24
|  4> end
|  5>
|  6> * xyz 0 1
|  7> S 	 35.9035 	 -25.8571 	 -113.097
|  8> C 	 37.5784 	 -26.3423 	 -112.824
|  9> C 	 38.4741 	 -25.4097 	 -113.252
| 10> C 	 37.7886 	 -24.2279 	 -113.714
| 11> C 	 36.4381 	 -24.2677 	 -113.495
| 12> H 	 38.1707 	 -23.2208 	 -114.015
| 13> C 	 39.9711 	 -25.4264 	 -113.169
| 14> H 	 40.3898 	 -24.9006 	 -114.072
| 15> H 	 40.2928 	 -26.5051 	 -113.254
| 16> C 	 40.5757 	 -24.6191 	 -112.003
| 17> H 	 41.6538 	 -24.7544 	 -111.98
| 18> H 	 40.3164 	 -23.5592 	 -112.18
| 19> C 	 40.16 	 -25.0423 	 -110.654
| 20> H 	 40.1735 	 -26.1291 	 -110.607
| 21> H 	 40.7963 	 -24.6321 	 -109.791
| 22> H 	 39.1091 	 -24.7714 	 -110.431
| 23> S 	 33.9507 	 -23.291 	 -114.413
| 24> C 	 33.529 	 -21.6217 	 -114.018
| 25> C 	 34.5522 	 -20.9475 	 -113.435
| 26> C 	 35.7135 	 -21.7797 	 -113.212
| 27> C 	 35.5023 	 -23.1143 	 -113.612
| 28> H 	 34.3547 	 -19.8967 	 -113.097
| 29> C 	 36.8647 	 -21.2024 	 -112.369
| 30> H 	 37.3817 	 -22.0257 	 -111.865
| 31> H 	 36.3442 	 -20.6666 	 -111.582
| 32> C 	 37.8238 	 -20.2944 	 -113.191
| 33> H 	 38.2903 	 -20.9043 	 -114.054
| 34> H 	 38.5346 	 -20.0199 	 -112.528
| 35> C 	 37.0996 	 -19.0457 	 -113.764
| 36> H 	 36.2569 	 -19.3826 	 -114.414
| 37> H 	 37.8892 	 -18.5107 	 -114.308
| 38> H 	 36.7011 	 -18.4245 	 -112.985
| 39> H 	 37.8198 	 -27.2884 	 -112.352
| 40> H 	 32.5295 	 -21.1266 	 -114.097
| 41> *
| 42>
| 43>                          ****END OF INPUT****

CARTESIAN COORDINATES (ANGSTROEM)
---------------------------------
  S     35.903500  -25.857100  -113.097000
  C     37.578400  -26.342300  -112.824000
  C     38.474100  -25.409700  -113.252000
  C     37.788600  -24.227900  -113.714000
  C     36.438100  -24.267700  -113.495000
  H     38.170700  -23.220800  -114.015000
  C     39.971100  -25.426400  -113.169000
  H     40.389800  -24.900600  -114.072000
  H     40.292800  -26.505100  -113.254000
  C     40.575700  -24.619100  -112.003000
  H     41.653800  -24.754400  -111.980000
  H     40.316400  -23.559200  -112.180000
  C     40.160000  -25.042300  -110.654000
  H     40.173500  -26.129100  -110.607000
  H     40.796300  -24.632100  -109.791000
  H     39.109100  -24.771400  -110.431000
  S     33.950700  -23.291000  -114.413000
  C     33.529000  -21.621700  -114.018000
  C     34.552200  -20.947500  -113.435000
  C     35.713500  -21.779700  -113.212000
  C     35.502300  -23.114300  -113.612000
  H     34.354700  -19.896700  -113.097000
  C     36.864700  -21.202400  -112.369000
  H     37.381700  -22.025700  -111.865000
  H     36.344200  -20.666600  -111.582000
  C     37.823800  -20.294400  -113.191000
  H     38.290300  -20.904300  -114.054000
  H     38.534600  -20.019900  -112.528000
  C     37.099600  -19.045700  -113.764000
  H     36.256900  -19.382600  -114.414000
  H     37.889200  -18.510700  -114.308000
  H     36.701100  -18.424500  -112.985000
  H     37.819800  -27.288400  -112.352000
  H     32.529500  -21.126600  -114.097000

 Total Charge           Charge          ....    0
 Multiplicity           Mult            ....    1
 Number of Electrons    NEL             ....  134
 Basis Dimension        Dim             ....  322

ORBITAL ENERGIES
----------------

  NO   OCC          E(Eh)            E(eV)
   0   2.0000     -88.966962     -2420.9141
   1   2.0000     -88.964451     -2420.8458
   2   2.0000     -10.332174      -281.1527
   3   2.0000     -10.328187      -281.0442
   4   2.0000     -10.318955      -280.7930
   5   2.0000     -10.314654      -280.6760
   6   2.0000     -10.307043      -280.4689
   7   2.0000     -10.303093      -280.3614
   8   2.0000     -10.300363      -280.2871
   9   2.0000     -10.296653      -280.1862
  10   2.0000     -10.294874      -280.1378
  11   2.0000     -10.292747      -280.0799
  12   2.0000     -10.289738      -279.9980
  13   2.0000     -10.287300      -279.9317
  14   2.0000     -10.280668      -279.7512
  15   2.0000     -10.277995      -279.6785
  16   2.0000      -8.081335      -219.9043
  17   2.0000      -8.079850      -219.8639
  18   2.0000      -6.039981      -164.3562
  19   2.0000      -6.038335      -164.3115
  20   2.0000      -6.035968      -164.2470
  21   2.0000      -6.034475      -164.2064
  22   2.0000      -6.031905      -164.1365
  23   2.0000      -6.030388      -164.0952
  24   2.0000      -1.007252       -27.4087
  25   2.0000      -0.984720       -26.7956
  26   2.0000      -0.917485       -24.9660
  27   2.0000      -0.907162       -24.6851
  28   2.0000      -0.869492       -23.6601
  29   2.0000      -0.850285       -23.1374
  30   2.0000      -0.842929       -22.9373
  31   2.0000      -0.815367       -22.1873
  32   2.0000      -0.783671       -21.3248
  33   2.0000      -0.773419       -21.0458
  34   2.0000      -0.708425       -19.2772
  35   2.0000      -0.695702       -18.9310
  36   2.0000      -0.686997       -18.6941
  37   2.0000      -0.655003       -17.8235
  38   2.0000      -0.638694       -17.3797
  39   2.0000      -0.616066       -16.7640
  40   2.0000      -0.589881       -16.0515
  41   2.0000      -0.569670       -15.5015
  42   2.0000      -0.552751       -15.0411
  43   2.0000      -0.550729       -14.9861
  44   2.0000      -0.546433       -14.8692
  45   2.0000      -0.540871       -14.7179
  46   2.0000      -0.524114       -14.2619
  47   2.0000      -0.511118       -13.9082
  48   2.0000      -0.499185       -13.5835
  49   2.0000      -0.494702       -13.4615
  50   2.0000      -0.490293       -13.3415
  51   2.0000      -0.478010       -13.0073
  52   2.0000      -0.471063       -12.8183
  53   2.0000      -0.467696       -12.7266
  54   2.0000      -0.457177       -12.4404
  55   2.0000      -0.446006       -12.1364
  56   2.0000      -0.439642       -11.9633
  57   2.0000      -0.435885       -11.8610
  58   2.0000      -0.430361       -11.7107
  59   2.0000      -0.425721       -11.5845
  60   2.0000      -0.423399       -11.5213
  61   2.0000      -0.416740       -11.3401
  62   2.0000      -0.415973       -11.3192
  63   2.0000      -0.350813        -9.5461
  64   2.0000      -0.331606        -9.0235
  65   2.0000      -0.330570        -8.9953
  66   2.0000      -0.292150        -7.9498
  67   0.0000       0.027884         0.7588
  68   0.0000       0.076722         2.0877
  69   0.0000       0.104118         2.8332
  70   0.0000       0.118656         3.2288
  71   0.0000       0.128961         3.5092

MULLIKEN ATOMIC CHARGES
-----------------------
   0 S :    0.106031
   1 C :   -0.131100
   2 C :   -0.056743
   3 C :    0.008602
   4 C :   -0.158320
   5 H :    0.014881
   6 C :    0.033407
   7 H :    0.039106
   8 H :    0.035652
   9 C :   -0.051991
  10 H :    0.034160
  11 H :    0.032269
  12 C :   -0.076485
  13 H :    0.018828
  14 H :    0.046577
  15 H :    0.039226
  16 S :    0.102396
  17 C :   -0.102554
  18 C :   -0.065411
  19 C :   -0.061622
  20 C :   -0.132448
  21 H :    0.044322
  22 C :    0.035236
  23 H :    0.032169
  24 H :    0.027630
  25 C :   -0.047272
  26 H :    0.048808
  27 H :    0.011062
  28 C :   -0.071014
  29 H :    0.060714
  30 H :    0.042658
  31 H :    0.026985
  32 H :    0.045360
  33 H :    0.068881
Sum of atomic charges:   -0.0000000

LOEWDIN ATOMIC CHARGES
----------------------
   0 S :    0.398915
   1 C :   -0.186223
   2 C :   -0.065375
   3 C :   -0.069644
   4 C :   -0.194112
   5 H :    0.037148
   6 C :   -0.036965
   7 H :    0.041110
   8 H :    0.034035
   9 C :   -0.046014
  10 H :    0.028531
  11 H :    0.026221
  12 C :   -0.075707
  13 H :    0.021081
  14 H :    0.035038
  15 H :    0.025808
  16 S :    0.388185
  17 C :   -0.189169
  18 C :   -0.084120
  19 C :   -0.057182
  20 C :   -0.196502
  21 H :    0.043338
  22 C :   -0.031948
  23 H :    0.028731
  24 H :    0.029745
  25 C :   -0.029999
  26 H :    0.031995
  27 H :    0.007248
  28 C :   -0.066125
  29 H :    0.033862
  30 H :    0.029972
  31 H :    0.019351
  32 H :    0.026703
  33 H :    0.042066

  Mayer bond orders larger than 0.100000
B(  0-S ,  1-C ) :   1.1226 B(  0-S ,  4-C ) :   1.1481 B(  1-C ,  2-C ) :   1.6387
B(  1-C , 32-H ) :   0.9718 B(  2-C ,  3-C ) :   1.1834 B(  2-C ,  6-C ) :   1.0303
B(  3-C ,  4-C ) :   1.6107 B(  3-C ,  5-H ) :   0.9863 B(  4-C , 20-C ) :   1.0258
B(  6-C ,  7-H ) :   0.9378 B(  6-C ,  8-H ) :   0.9408 B(  6-C ,  9-C ) :   1.0724
B(  9-C , 10-H ) :   0.9526 B(  9-C , 11-H ) :   0.9515 B(  9-C , 12-C ) :   1.0843
B( 12-C , 13-H ) :   0.9719 B( 12-C , 14-H ) :   0.9725 B( 12-C , 15-H ) :   0.9696
B( 16-S , 17-C ) :   1.1328 B( 16-S , 20-C ) :   1.1314 B( 17-C , 18-C ) :   1.6631
B( 17-C , 33-H ) :   0.9551 B( 18-C , 19-C ) :   1.2156 B( 18-C , 21-H ) :   0.9738
B( 19-C , 20-C ) :   1.6205 B( 19-C , 22-C ) :   1.0202 B( 22-C , 23-H ) :   0.9392
B( 22-C , 24-H ) :   0.9447 B( 22-C , 25-C ) :   1.0654 B( 25-C , 26-H ) :   0.9498
B( 25-C , 27-H ) :   0.9536 B( 25-C , 28-C ) :   1.0805 B( 28-C , 29-H ) :   0.9674
B( 28-C , 30-H ) :   0.9722 B( 28-C , 31-H ) :   0.9741

Dispersion correction           -0.015486345
FINAL SINGLE POINT ENERGY     -1339.879463319012

DIPOLE MOMENT
-------------
                                X             Y             Z
Electronic contribution:    -23.52479     -13.81352      -9.06380
Nuclear contribution   :     24.04926      14.29440       9.43219
                        -----------------------------------------
Total Dipole Moment    :      0.52448       0.48089       0.36839
                        -----------------------------------------
Magnitude (a.u.)       :      0.80127
Magnitude (Debye)      :      2.03667

Rotational constants in cm-1:     0.018706     0.009930     0.007005
Rotational constants in MHz :   560.801956   297.688299   210.007120

                             ****ORCA TERMINATED NORMALLY****
TOTAL RUN TIME: 0 days 0 hours 0 minutes 22 seconds 749 msec
