                         Program Version 4.2.1 -  RELEASE  -
|  1> ! wB97X-D3 SP def2-SVP
|  2> %pal
|  3> nprocs 24
|  4> end
|  5>
|  6> * xyz 0 1
|  7> S 	 -111.411 	 51.6171 	 -83.9789
|  8> C 	 -110.029 	 50.5588 	 -84.0858
|  9> C 	 -109.739 	 50.1849 	 -85.4428
| 10> C 	 -110.759 	 50.6948 	 -86.3373
| 11> C 	 -111.636 	 51.6255 	 -85.7427
| 12> H 	 -110.731 	 50.4761 	 -87.4245
| 13> C 	 -108.743 	 49.1663 	 -86.0613
| 14> H 	 -107.936 	 48.9098 	 -85.3603
| 15> H 	 -108.171 	 49.6784 	 -86.885
| 16> C 	 -109.286 	 47.8412 	 -86.5552
| 17> H 	 -109.689 	 47.3455 	 -85.5994
| 18> H 	 -110.133 	 48.1056 	 -87.1751
| 19> C 	 -108.296 	 46.947 	 -87.339
| 20> H 	 -107.989 	 47.4606 	 -88.2237
| 21> H 	 -107.439 	 46.7655 	 -86.7009
| 22> H 	 -108.711 	 46.0367 	 -87.6874
| 23> S 	 -114.366 	 52.0952 	 -85.592
| 24> C 	 -115.206 	 52.8805 	 -86.9672
| 25> C 	 -114.366 	 53.0274 	 -87.9757
| 26> C 	 -112.993 	 52.6353 	 -87.7626
| 27> C 	 -112.791 	 52.1387 	 -86.459
| 28> H 	 -114.655 	 53.5718 	 -88.89
| 29> C 	 -111.877 	 52.8327 	 -88.7911
| 30> H 	 -112.345 	 52.8999 	 -89.8213
| 31> H 	 -111.245 	 52.0013 	 -88.9163
| 32> C 	 -111.042 	 54.1223 	 -88.5132
| 33> H 	 -110.385 	 54.2308 	 -89.4264
| 34> H 	 -110.41 	 53.9885 	 -87.6092
| 35> C 	 -111.848 	 55.4017 	 -88.1924
| 36> H 	 -111.973 	 55.4193 	 -87.093
| 37> H 	 -112.813 	 55.4762 	 -88.7205
| 38> H 	 -111.31 	 56.2813 	 -88.4358
| 39> H 	 -109.522 	 50.1543 	 -83.2023
| 40> H 	 -116.175 	 53.2515 	 -86.9962
| 41> *
| 42>
| 43>                          ****END OF INPUT****

CARTESIAN COORDINATES (ANGSTROEM)
---------------------------------
  S    -111.411000   51.617100  -83.978900
  C    -110.029000   50.558800  -84.085800
  C    -109.739000   50.184900  -85.442800
  C    -110.759000   50.694800  -86.337300
  C    -111.636000   51.625500  -85.742700
  H    -110.731000   50.476100  -87.424500
  C    -108.743000   49.166300  -86.061300
  H    -107.936000   48.909800  -85.360300
  H    -108.171000   49.678400  -86.885000
  C    -109.286000   47.841200  -86.555200
  H    -109.689000   47.345500  -85.599400
  H    -110.133000   48.105600  -87.175100
  C    -108.296000   46.947000  -87.339000
  H    -107.989000   47.460600  -88.223700
  H    -107.439000   46.765500  -86.700900
  H    -108.711000   46.036700  -87.687400
  S    -114.366000   52.095200  -85.592000
  C    -115.206000   52.880500  -86.967200
  C    -114.366000   53.027400  -87.975700
  C    -112.993000   52.635300  -87.762600
  C    -112.791000   52.138700  -86.459000
  H    -114.655000   53.571800  -88.890000
  C    -111.877000   52.832700  -88.791100
  H    -112.345000   52.899900  -89.821300
  H    -111.245000   52.001300  -88.916300
  C    -111.042000   54.122300  -88.513200
  H    -110.385000   54.230800  -89.426400
  H    -110.410000   53.988500  -87.609200
  C    -111.848000   55.401700  -88.192400
  H    -111.973000   55.419300  -87.093000
  H    -112.813000   55.476200  -88.720500
  H    -111.310000   56.281300  -88.435800
  H    -109.522000   50.154300  -83.202300
  H    -116.175000   53.251500  -86.996200

 Total Charge           Charge          ....    0
 Multiplicity           Mult            ....    1
 Number of Electrons    NEL             ....  134
 Basis Dimension        Dim             ....  322

ORBITAL ENERGIES
----------------

  NO   OCC          E(Eh)            E(eV)
   0   2.0000     -88.976738     -2421.1801
   1   2.0000     -88.960660     -2420.7426
   2   2.0000     -10.336877      -281.2807
   3   2.0000     -10.333951      -281.2011
   4   2.0000     -10.328476      -281.0521
   5   2.0000     -10.315102      -280.6882
   6   2.0000     -10.309248      -280.5289
   7   2.0000     -10.306599      -280.4568
   8   2.0000     -10.303421      -280.3703
   9   2.0000     -10.299765      -280.2708
  10   2.0000     -10.295943      -280.1668
  11   2.0000     -10.292233      -280.0659
  12   2.0000     -10.291534      -280.0469
  13   2.0000     -10.290472      -280.0180
  14   2.0000     -10.278604      -279.6950
  15   2.0000     -10.273192      -279.5478
  16   2.0000      -8.090405      -220.1511
  17   2.0000      -8.074327      -219.7136
  18   2.0000      -6.049004      -164.6018
  19   2.0000      -6.044972      -164.4921
  20   2.0000      -6.041213      -164.3898
  21   2.0000      -6.033166      -164.1708
  22   2.0000      -6.029047      -164.0587
  23   2.0000      -6.024730      -163.9412
  24   2.0000      -0.999080       -27.1863
  25   2.0000      -0.976776       -26.5794
  26   2.0000      -0.910902       -24.7869
  27   2.0000      -0.900687       -24.5089
  28   2.0000      -0.871556       -23.7162
  29   2.0000      -0.850645       -23.1472
  30   2.0000      -0.836011       -22.7490
  31   2.0000      -0.812580       -22.1114
  32   2.0000      -0.783854       -21.3297
  33   2.0000      -0.774966       -21.0879
  34   2.0000      -0.708704       -19.2848
  35   2.0000      -0.696843       -18.9621
  36   2.0000      -0.684033       -18.6135
  37   2.0000      -0.659066       -17.9341
  38   2.0000      -0.637723       -17.3533
  39   2.0000      -0.622927       -16.9507
  40   2.0000      -0.595873       -16.2145
  41   2.0000      -0.564254       -15.3541
  42   2.0000      -0.562047       -15.2941
  43   2.0000      -0.552237       -15.0271
  44   2.0000      -0.539193       -14.6722
  45   2.0000      -0.523340       -14.2408
  46   2.0000      -0.511450       -13.9173
  47   2.0000      -0.506855       -13.7922
  48   2.0000      -0.506096       -13.7716
  49   2.0000      -0.500131       -13.6093
  50   2.0000      -0.488504       -13.2929
  51   2.0000      -0.478671       -13.0253
  52   2.0000      -0.474839       -12.9210
  53   2.0000      -0.465219       -12.6592
  54   2.0000      -0.457661       -12.4536
  55   2.0000      -0.451854       -12.2956
  56   2.0000      -0.440706       -11.9922
  57   2.0000      -0.435717       -11.8565
  58   2.0000      -0.428958       -11.6726
  59   2.0000      -0.422815       -11.5054
  60   2.0000      -0.419405       -11.4126
  61   2.0000      -0.415243       -11.2993
  62   2.0000      -0.407185       -11.0801
  63   2.0000      -0.356232        -9.6936
  64   2.0000      -0.333147        -9.0654
  65   2.0000      -0.327064        -8.8999
  66   2.0000      -0.286469        -7.7952
  67   0.0000       0.016647         0.4530
  68   0.0000       0.074666         2.0318
  69   0.0000       0.101927         2.7736
  70   0.0000       0.115561         3.1446
  71   0.0000       0.129900         3.5348

MULLIKEN ATOMIC CHARGES
-----------------------
   0 S :    0.124477
   1 C :   -0.134193
   2 C :   -0.053025
   3 C :   -0.028224
   4 C :   -0.119581
   5 H :    0.043699
   6 C :    0.014358
   7 H :    0.015342
   8 H :    0.032712
   9 C :   -0.098707
  10 H :    0.041349
  11 H :    0.023242
  12 C :    0.000931
  13 H :    0.020230
  14 H :    0.030559
  15 H :    0.032774
  16 S :    0.070337
  17 C :   -0.052684
  18 C :   -0.026803
  19 C :   -0.058611
  20 C :   -0.146259
  21 H :    0.025200
  22 C :    0.077417
  23 H :    0.022869
  24 H :    0.011109
  25 C :   -0.108742
  26 H :    0.039098
  27 H :    0.047497
  28 C :   -0.040786
  29 H :    0.045182
  30 H :    0.027463
  31 H :    0.025972
  32 H :    0.065818
  33 H :    0.029982
Sum of atomic charges:    0.0000000

LOEWDIN ATOMIC CHARGES
----------------------
   0 S :    0.412539
   1 C :   -0.201428
   2 C :   -0.060265
   3 C :   -0.052695
   4 C :   -0.200188
   5 H :    0.035879
   6 C :   -0.043747
   7 H :    0.025237
   8 H :    0.032367
   9 C :   -0.045485
  10 H :    0.033295
  11 H :    0.017670
  12 C :   -0.054423
  13 H :    0.023384
  14 H :    0.026238
  15 H :    0.025400
  16 S :    0.354221
  17 C :   -0.161721
  18 C :   -0.072589
  19 C :   -0.058969
  20 C :   -0.171364
  21 H :    0.034519
  22 C :   -0.033245
  23 H :    0.035219
  24 H :    0.018903
  25 C :   -0.042379
  26 H :    0.026059
  27 H :    0.030381
  28 C :   -0.068806
  29 H :    0.034642
  30 H :    0.023655
  31 H :    0.021666
  32 H :    0.034084
  33 H :    0.021946

  Mayer bond orders larger than 0.100000
B(  0-S ,  1-C ) :   1.1578 B(  0-S ,  4-C ) :   1.1405 B(  1-C ,  2-C ) :   1.5666
B(  1-C , 32-H ) :   0.9664 B(  2-C ,  3-C ) :   1.2711 B(  2-C ,  6-C ) :   1.0308
B(  3-C ,  4-C ) :   1.5345 B(  3-C ,  5-H ) :   0.9740 B(  4-C , 20-C ) :   1.0902
B(  6-C ,  7-H ) :   0.9431 B(  6-C ,  8-H ) :   0.9395 B(  6-C ,  9-C ) :   1.0550
B(  9-C , 10-H ) :   0.9529 B(  9-C , 11-H ) :   0.9564 B(  9-C , 12-C ) :   1.0781
B( 12-C , 13-H ) :   0.9715 B( 12-C , 14-H ) :   0.9761 B( 12-C , 15-H ) :   0.9737
B( 16-S , 17-C ) :   1.1092 B( 16-S , 20-C ) :   1.1180 B( 17-C , 18-C ) :   1.6657
B( 17-C , 33-H ) :   0.9719 B( 18-C , 19-C ) :   1.2291 B( 18-C , 21-H ) :   0.9746
B( 19-C , 20-C ) :   1.6007 B( 19-C , 22-C ) :   1.0400 B( 22-C , 23-H ) :   0.9332
B( 22-C , 24-H ) :   0.9395 B( 22-C , 25-C ) :   1.0655 B( 25-C , 26-H ) :   0.9607
B( 25-C , 27-H ) :   0.9605 B( 25-C , 28-C ) :   1.0671 B( 28-C , 29-H ) :   0.9745
B( 28-C , 30-H ) :   0.9778 B( 28-C , 31-H ) :   0.9734

Dispersion correction           -0.014567585
FINAL SINGLE POINT ENERGY     -1339.871871089389

DIPOLE MOMENT
-------------
                                X             Y             Z
Electronic contribution:    -17.09073       4.93106      17.66828
Nuclear contribution   :     17.51211      -5.10018     -18.21271
                        -----------------------------------------
Total Dipole Moment    :      0.42138      -0.16912      -0.54444
                        -----------------------------------------
Magnitude (a.u.)       :      0.70893
Magnitude (Debye)      :      1.80194

Rotational constants in cm-1:     0.019149     0.008054     0.007066
Rotational constants in MHz :   574.075187   241.456973   211.843235

                             ****ORCA TERMINATED NORMALLY****
TOTAL RUN TIME: 0 days 0 hours 0 minutes 20 seconds 485 msec
