                         Program Version 4.2.1 -  RELEASE  -
|  1> ! wB97X-D3 SP def2-SVP
|  2> %pal
|  3> nprocs 24
|  4> end
|  5>
|  6> * xyz 0 1
|  7> S 	 -63.101 	 15.025 	 -91.2095
|  8> C 	 -63.4675 	 15.8121 	 -92.7649
|  9> C 	 -63.6757 	 17.165 	 -92.5353
| 10> C 	 -63.5346 	 17.5532 	 -91.1849
| 11> C 	 -63.0782 	 16.5471 	 -90.3729
| 12> H 	 -63.6956 	 18.5067 	 -90.8447
| 13> C 	 -64.3632 	 18.1303 	 -93.4815
| 14> H 	 -63.9038 	 17.8831 	 -94.4357
| 15> H 	 -63.9649 	 19.1293 	 -93.4
| 16> C 	 -65.8467 	 18.1908 	 -93.6716
| 17> H 	 -66.2644 	 18.2449 	 -92.7055
| 18> H 	 -66.1542 	 19.1187 	 -94.1514
| 19> C 	 -66.5353 	 16.9338 	 -94.3711
| 20> H 	 -65.9636 	 16.013 	 -94.1401
| 21> H 	 -67.6247 	 16.8727 	 -94.1022
| 22> H 	 -66.4765 	 17.0242 	 -95.4301
| 23> S 	 -63.7406 	 15.5134 	 -87.9862
| 24> C 	 -63.2108 	 16.2423 	 -86.455
| 25> C 	 -62.3779 	 17.3314 	 -86.7019
| 26> C 	 -62.2611 	 17.5588 	 -88.1013
| 27> C 	 -62.8601 	 16.5893 	 -88.95
| 28> H 	 -62.1047 	 17.8453 	 -85.8472
| 29> C 	 -61.6384 	 18.7751 	 -88.6689
| 30> H 	 -61.1529 	 19.2707 	 -87.8199
| 31> H 	 -62.4547 	 19.541 	 -88.9496
| 32> C 	 -60.5099 	 18.5749 	 -89.7522
| 33> H 	 -60.1205 	 19.5556 	 -89.9595
| 34> H 	 -60.7822 	 18.0941 	 -90.6505
| 35> C 	 -59.3986 	 17.6873 	 -89.1934
| 36> H 	 -59.7147 	 17.1662 	 -88.3491
| 37> H 	 -58.5046 	 18.2187 	 -88.853
| 38> H 	 -59.137 	 16.9155 	 -89.9427
| 39> H 	 -63.6453 	 15.289 	 -93.7115
| 40> H 	 -63.4155 	 15.9343 	 -85.5172
| 41> *
| 42>
| 43>                          ****END OF INPUT****

CARTESIAN COORDINATES (ANGSTROEM)
---------------------------------
  S    -63.101000   15.025000  -91.209500
  C    -63.467500   15.812100  -92.764900
  C    -63.675700   17.165000  -92.535300
  C    -63.534600   17.553200  -91.184900
  C    -63.078200   16.547100  -90.372900
  H    -63.695600   18.506700  -90.844700
  C    -64.363200   18.130300  -93.481500
  H    -63.903800   17.883100  -94.435700
  H    -63.964900   19.129300  -93.400000
  C    -65.846700   18.190800  -93.671600
  H    -66.264400   18.244900  -92.705500
  H    -66.154200   19.118700  -94.151400
  C    -66.535300   16.933800  -94.371100
  H    -65.963600   16.013000  -94.140100
  H    -67.624700   16.872700  -94.102200
  H    -66.476500   17.024200  -95.430100
  S    -63.740600   15.513400  -87.986200
  C    -63.210800   16.242300  -86.455000
  C    -62.377900   17.331400  -86.701900
  C    -62.261100   17.558800  -88.101300
  C    -62.860100   16.589300  -88.950000
  H    -62.104700   17.845300  -85.847200
  C    -61.638400   18.775100  -88.668900
  H    -61.152900   19.270700  -87.819900
  H    -62.454700   19.541000  -88.949600
  C    -60.509900   18.574900  -89.752200
  H    -60.120500   19.555600  -89.959500
  H    -60.782200   18.094100  -90.650500
  C    -59.398600   17.687300  -89.193400
  H    -59.714700   17.166200  -88.349100
  H    -58.504600   18.218700  -88.853000
  H    -59.137000   16.915500  -89.942700
  H    -63.645300   15.289000  -93.711500
  H    -63.415500   15.934300  -85.517200

 Total Charge           Charge          ....    0
 Multiplicity           Mult            ....    1
 Number of Electrons    NEL             ....  134
 Basis Dimension        Dim             ....  322

ORBITAL ENERGIES
----------------

  NO   OCC          E(Eh)            E(eV)
   0   2.0000     -88.969248     -2420.9763
   1   2.0000     -88.966566     -2420.9034
   2   2.0000     -10.330009      -281.0938
   3   2.0000     -10.323871      -280.9268
   4   2.0000     -10.322133      -280.8795
   5   2.0000     -10.313189      -280.6361
   6   2.0000     -10.303982      -280.3856
   7   2.0000     -10.301737      -280.3245
   8   2.0000     -10.293578      -280.1025
   9   2.0000     -10.293504      -280.1005
  10   2.0000     -10.286407      -279.9074
  11   2.0000     -10.285764      -279.8899
  12   2.0000     -10.284753      -279.8624
  13   2.0000     -10.282262      -279.7946
  14   2.0000     -10.276619      -279.6410
  15   2.0000     -10.262511      -279.2571
  16   2.0000      -8.083715      -219.9691
  17   2.0000      -8.081719      -219.9147
  18   2.0000      -6.042284      -164.4189
  19   2.0000      -6.040149      -164.3608
  20   2.0000      -6.038262      -164.3095
  21   2.0000      -6.035888      -164.2449
  22   2.0000      -6.034415      -164.2048
  23   2.0000      -6.032801      -164.1609
  24   2.0000      -1.013584       -27.5810
  25   2.0000      -0.987031       -26.8585
  26   2.0000      -0.913062       -24.8457
  27   2.0000      -0.905276       -24.6338
  28   2.0000      -0.875363       -23.8198
  29   2.0000      -0.849778       -23.1236
  30   2.0000      -0.844384       -22.9769
  31   2.0000      -0.819291       -22.2941
  32   2.0000      -0.784923       -21.3588
  33   2.0000      -0.767077       -20.8732
  34   2.0000      -0.717224       -19.5167
  35   2.0000      -0.704423       -19.1683
  36   2.0000      -0.692527       -18.8446
  37   2.0000      -0.671169       -18.2634
  38   2.0000      -0.645973       -17.5778
  39   2.0000      -0.629207       -17.1216
  40   2.0000      -0.587124       -15.9765
  41   2.0000      -0.578362       -15.7380
  42   2.0000      -0.553340       -15.0572
  43   2.0000      -0.548797       -14.9335
  44   2.0000      -0.543293       -14.7838
  45   2.0000      -0.535161       -14.5625
  46   2.0000      -0.526154       -14.3174
  47   2.0000      -0.511157       -13.9093
  48   2.0000      -0.509493       -13.8640
  49   2.0000      -0.499546       -13.5933
  50   2.0000      -0.489436       -13.3182
  51   2.0000      -0.475468       -12.9381
  52   2.0000      -0.473035       -12.8719
  53   2.0000      -0.467440       -12.7197
  54   2.0000      -0.457367       -12.4456
  55   2.0000      -0.453783       -12.3481
  56   2.0000      -0.441948       -12.0260
  57   2.0000      -0.434458       -11.8222
  58   2.0000      -0.427157       -11.6235
  59   2.0000      -0.420297       -11.4369
  60   2.0000      -0.417275       -11.3546
  61   2.0000      -0.412474       -11.2240
  62   2.0000      -0.406755       -11.0684
  63   2.0000      -0.354700        -9.6519
  64   2.0000      -0.334587        -9.1046
  65   2.0000      -0.326356        -8.8806
  66   2.0000      -0.289955        -7.8901
  67   0.0000       0.021832         0.5941
  68   0.0000       0.068196         1.8557
  69   0.0000       0.106387         2.8949
  70   0.0000       0.118155         3.2152
  71   0.0000       0.134596         3.6625

MULLIKEN ATOMIC CHARGES
-----------------------
   0 S :    0.104335
   1 C :   -0.134917
   2 C :   -0.076756
   3 C :    0.070595
   4 C :   -0.145553
   5 H :   -0.028592
   6 C :    0.047075
   7 H :    0.004685
   8 H :    0.014463
   9 C :   -0.007470
  10 H :    0.011042
  11 H :    0.028354
  12 C :   -0.077354
  13 H :    0.032425
  14 H :    0.048386
  15 H :    0.024769
  16 S :    0.107803
  17 C :   -0.054396
  18 C :   -0.006301
  19 C :   -0.061698
  20 C :   -0.104098
  21 H :   -0.002663
  22 C :    0.003476
  23 H :    0.010924
  24 H :    0.052051
  25 C :   -0.018161
  26 H :    0.023169
  27 H :    0.037769
  28 C :   -0.055059
  29 H :    0.016962
  30 H :    0.027803
  31 H :    0.034837
  32 H :    0.064165
  33 H :    0.007931
Sum of atomic charges:   -0.0000000

LOEWDIN ATOMIC CHARGES
----------------------
   0 S :    0.404235
   1 C :   -0.189836
   2 C :   -0.061984
   3 C :   -0.046336
   4 C :   -0.192111
   5 H :    0.017276
   6 C :   -0.042169
   7 H :    0.028032
   8 H :    0.030923
   9 C :   -0.034422
  10 H :    0.017745
  11 H :    0.027964
  12 C :   -0.068171
  13 H :    0.026252
  14 H :    0.034585
  15 H :    0.017045
  16 S :    0.430949
  17 C :   -0.158687
  18 C :   -0.058999
  19 C :   -0.064106
  20 C :   -0.221730
  21 H :    0.025342
  22 C :   -0.044633
  23 H :    0.028673
  24 H :    0.037449
  25 C :   -0.031930
  26 H :    0.022944
  27 H :    0.019250
  28 C :   -0.064303
  29 H :    0.015273
  30 H :    0.024871
  31 H :    0.032197
  32 H :    0.033314
  33 H :    0.005098

  Mayer bond orders larger than 0.100000
B(  0-S ,  1-C ) :   1.1319 B(  0-S ,  4-C ) :   1.1582 B(  1-C ,  2-C ) :   1.5891
B(  1-C ,  4-C ) :   0.1005 B(  1-C , 32-H ) :   0.9673 B(  2-C ,  3-C ) :   1.2526
B(  2-C ,  6-C ) :   1.0339 B(  3-C ,  4-C ) :   1.5358 B(  3-C ,  5-H ) :   1.0137
B(  4-C , 20-C ) :   1.0437 B(  6-C ,  7-H ) :   0.9304 B(  6-C ,  8-H ) :   0.9336
B(  6-C ,  9-C ) :   1.0737 B(  9-C , 10-H ) :   0.9540 B(  9-C , 11-H ) :   0.9524
B(  9-C , 12-C ) :   1.0642 B( 12-C , 13-H ) :   0.9770 B( 12-C , 14-H ) :   0.9770
B( 12-C , 15-H ) :   0.9774 B( 16-S , 17-C ) :   1.1730 B( 16-S , 20-C ) :   1.1665
B( 17-C , 18-C ) :   1.5819 B( 17-C , 20-C ) :   0.1063 B( 17-C , 33-H ) :   0.9779
B( 18-C , 19-C ) :   1.2555 B( 18-C , 21-H ) :   1.0073 B( 19-C , 20-C ) :   1.5263
B( 19-C , 22-C ) :   1.0600 B( 22-C , 23-H ) :   0.9337 B( 22-C , 24-H ) :   0.9290
B( 22-C , 25-C ) :   1.0632 B( 25-C , 26-H ) :   0.9599 B( 25-C , 27-H ) :   0.9654
B( 25-C , 28-C ) :   1.0605 B( 28-C , 29-H ) :   0.9783 B( 28-C , 30-H ) :   0.9749
B( 28-C , 31-H ) :   0.9792

Dispersion correction           -0.015399309
FINAL SINGLE POINT ENERGY     -1339.851358367005

DIPOLE MOMENT
-------------
                                X             Y             Z
Electronic contribution:     -1.65791     -15.56913      13.07756
Nuclear contribution   :      1.50962      16.17712     -13.12042
                        -----------------------------------------
Total Dipole Moment    :     -0.14829       0.60798      -0.04286
                        -----------------------------------------
Magnitude (a.u.)       :      0.62727
Magnitude (Debye)      :      1.59440

Rotational constants in cm-1:     0.021984     0.008505     0.007507
Rotational constants in MHz :   659.065929   254.960351   225.046986

                             ****ORCA TERMINATED NORMALLY****
TOTAL RUN TIME: 0 days 0 hours 0 minutes 22 seconds 489 msec
