                         Program Version 4.2.1 -  RELEASE  -
|  1> ! wB97X-D3 SP def2-SVP
|  2> %pal
|  3> nprocs 24
|  4> end
|  5>
|  6> * xyz 0 1
|  7> S 	 -105.608 	 41.5997 	 -11.6343
|  8> C 	 -105.162 	 43.3348 	 -11.4098
|  9> C 	 -106.073 	 44.1433 	 -12.0802
| 10> C 	 -106.976 	 43.4129 	 -12.8775
| 11> C 	 -106.848 	 42.0276 	 -12.8156
| 12> H 	 -107.628 	 43.9155 	 -13.6616
| 13> C 	 -106.199 	 45.5872 	 -11.9455
| 14> H 	 -106.125 	 45.7253 	 -10.8518
| 15> H 	 -107.224 	 45.9241 	 -12.0446
| 16> C 	 -105.185 	 46.4446 	 -12.6724
| 17> H 	 -105.256 	 47.5271 	 -12.3365
| 18> H 	 -104.137 	 46.0729 	 -12.5104
| 19> C 	 -105.485 	 46.4005 	 -14.1418
| 20> H 	 -105.846 	 45.3739 	 -14.4817
| 21> H 	 -106.211 	 47.1652 	 -14.4813
| 22> H 	 -104.562 	 46.5619 	 -14.6972
| 23> S 	 -106.605 	 39.6822 	 -14.2089
| 24> C 	 -107.997 	 38.766 	 -14.591
| 25> C 	 -109.136 	 39.4426 	 -14.2999
| 26> C 	 -108.902 	 40.7136 	 -13.6577
| 27> C 	 -107.563 	 40.9845 	 -13.4723
| 28> H 	 -110.102 	 39.0043 	 -14.4902
| 29> C 	 -109.984 	 41.7003 	 -13.2952
| 30> H 	 -109.749 	 42.7615 	 -13.4425
| 31> H 	 -110.147 	 41.6513 	 -12.2057
| 32> C 	 -111.348 	 41.4261 	 -13.9849
| 33> H 	 -111.659 	 40.357 	 -13.8972
| 34> H 	 -111.371 	 41.6738 	 -15.0369
| 35> C 	 -112.528 	 42.1215 	 -13.2412
| 36> H 	 -113.512 	 42.139 	 -13.7154
| 37> H 	 -112.269 	 43.2177 	 -13.0821
| 38> H 	 -112.57 	 41.5785 	 -12.2605
| 39> H 	 -104.417 	 43.7798 	 -10.7418
| 40> H 	 -108.039 	 37.9448 	 -15.247
| 41> *
| 42>
| 43>                          ****END OF INPUT****

CARTESIAN COORDINATES (ANGSTROEM)
---------------------------------
  S    -105.608000   41.599700  -11.634300
  C    -105.162000   43.334800  -11.409800
  C    -106.073000   44.143300  -12.080200
  C    -106.976000   43.412900  -12.877500
  C    -106.848000   42.027600  -12.815600
  H    -107.628000   43.915500  -13.661600
  C    -106.199000   45.587200  -11.945500
  H    -106.125000   45.725300  -10.851800
  H    -107.224000   45.924100  -12.044600
  C    -105.185000   46.444600  -12.672400
  H    -105.256000   47.527100  -12.336500
  H    -104.137000   46.072900  -12.510400
  C    -105.485000   46.400500  -14.141800
  H    -105.846000   45.373900  -14.481700
  H    -106.211000   47.165200  -14.481300
  H    -104.562000   46.561900  -14.697200
  S    -106.605000   39.682200  -14.208900
  C    -107.997000   38.766000  -14.591000
  C    -109.136000   39.442600  -14.299900
  C    -108.902000   40.713600  -13.657700
  C    -107.563000   40.984500  -13.472300
  H    -110.102000   39.004300  -14.490200
  C    -109.984000   41.700300  -13.295200
  H    -109.749000   42.761500  -13.442500
  H    -110.147000   41.651300  -12.205700
  C    -111.348000   41.426100  -13.984900
  H    -111.659000   40.357000  -13.897200
  H    -111.371000   41.673800  -15.036900
  C    -112.528000   42.121500  -13.241200
  H    -113.512000   42.139000  -13.715400
  H    -112.269000   43.217700  -13.082100
  H    -112.570000   41.578500  -12.260500
  H    -104.417000   43.779800  -10.741800
  H    -108.039000   37.944800  -15.247000

 Total Charge           Charge          ....    0
 Multiplicity           Mult            ....    1
 Number of Electrons    NEL             ....  134
 Basis Dimension        Dim             ....  322

ORBITAL ENERGIES
----------------

  NO   OCC          E(Eh)            E(eV)
   0   2.0000     -88.968936     -2420.9678
   1   2.0000     -88.962938     -2420.8046
   2   2.0000     -10.331775      -281.1419
   3   2.0000     -10.324501      -280.9440
   4   2.0000     -10.318614      -280.7838
   5   2.0000     -10.309644      -280.5397
   6   2.0000     -10.306137      -280.4443
   7   2.0000     -10.297372      -280.2057
   8   2.0000     -10.296667      -280.1866
   9   2.0000     -10.296349      -280.1779
  10   2.0000     -10.292969      -280.0859
  11   2.0000     -10.291881      -280.0563
  12   2.0000     -10.291379      -280.0427
  13   2.0000     -10.287488      -279.9368
  14   2.0000     -10.285889      -279.8933
  15   2.0000     -10.278036      -279.6796
  16   2.0000      -8.082296      -219.9305
  17   2.0000      -8.078204      -219.8191
  18   2.0000      -6.040902      -164.3813
  19   2.0000      -6.037018      -164.2756
  20   2.0000      -6.036708      -164.2672
  21   2.0000      -6.032965      -164.1653
  22   2.0000      -6.032556      -164.1542
  23   2.0000      -6.028998      -164.0574
  24   2.0000      -1.008643       -27.4466
  25   2.0000      -0.984480       -26.7891
  26   2.0000      -0.921829       -25.0842
  27   2.0000      -0.907907       -24.7054
  28   2.0000      -0.874050       -23.7841
  29   2.0000      -0.850584       -23.1456
  30   2.0000      -0.841596       -22.9010
  31   2.0000      -0.815800       -22.1990
  32   2.0000      -0.782697       -21.2983
  33   2.0000      -0.769705       -20.9447
  34   2.0000      -0.709268       -19.3002
  35   2.0000      -0.702581       -19.1182
  36   2.0000      -0.696873       -18.9629
  37   2.0000      -0.653188       -17.7741
  38   2.0000      -0.634104       -17.2549
  39   2.0000      -0.616671       -16.7805
  40   2.0000      -0.603284       -16.4162
  41   2.0000      -0.580333       -15.7917
  42   2.0000      -0.567990       -15.4558
  43   2.0000      -0.553183       -15.0529
  44   2.0000      -0.543846       -14.7988
  45   2.0000      -0.525054       -14.2874
  46   2.0000      -0.514431       -13.9984
  47   2.0000      -0.512449       -13.9445
  48   2.0000      -0.506708       -13.7882
  49   2.0000      -0.500315       -13.6143
  50   2.0000      -0.483259       -13.1501
  51   2.0000      -0.475785       -12.9468
  52   2.0000      -0.469565       -12.7775
  53   2.0000      -0.466882       -12.7045
  54   2.0000      -0.458906       -12.4875
  55   2.0000      -0.452508       -12.3134
  56   2.0000      -0.436362       -11.8740
  57   2.0000      -0.431617       -11.7449
  58   2.0000      -0.431097       -11.7307
  59   2.0000      -0.423071       -11.5123
  60   2.0000      -0.420003       -11.4289
  61   2.0000      -0.416830       -11.3425
  62   2.0000      -0.412027       -11.2118
  63   2.0000      -0.348225        -9.4757
  64   2.0000      -0.333580        -9.0772
  65   2.0000      -0.327963        -8.9243
  66   2.0000      -0.289619        -7.8809
  67   0.0000       0.023551         0.6409
  68   0.0000       0.067155         1.8274
  69   0.0000       0.102698         2.7946
  70   0.0000       0.118865         3.2345
  71   0.0000       0.136955         3.7267

MULLIKEN ATOMIC CHARGES
-----------------------
   0 S :    0.112579
   1 C :   -0.116092
   2 C :   -0.102630
   3 C :    0.002169
   4 C :   -0.149274
   5 H :    0.045508
   6 C :    0.043935
   7 H :    0.023384
   8 H :    0.019396
   9 C :   -0.052951
  10 H :    0.041369
  11 H :    0.037381
  12 C :   -0.079329
  13 H :    0.038571
  14 H :    0.037910
  15 H :    0.029896
  16 S :    0.106373
  17 C :   -0.045779
  18 C :   -0.058557
  19 C :    0.002398
  20 C :   -0.172623
  21 H :    0.015573
  22 C :    0.064633
  23 H :    0.030454
  24 H :    0.035475
  25 C :   -0.107988
  26 H :    0.038799
  27 H :    0.038730
  28 C :   -0.091797
  29 H :    0.043619
  30 H :    0.033406
  31 H :    0.042766
  32 H :    0.049835
  33 H :    0.042862
Sum of atomic charges:    0.0000000

LOEWDIN ATOMIC CHARGES
----------------------
   0 S :    0.390435
   1 C :   -0.187346
   2 C :   -0.067937
   3 C :   -0.075425
   4 C :   -0.187561
   5 H :    0.040628
   6 C :   -0.045771
   7 H :    0.036637
   8 H :    0.031729
   9 C :   -0.043955
  10 H :    0.032854
  11 H :    0.029864
  12 C :   -0.076303
  13 H :    0.031518
  14 H :    0.026879
  15 H :    0.025245
  16 S :    0.411656
  17 C :   -0.188177
  18 C :   -0.072672
  19 C :   -0.048992
  20 C :   -0.197950
  21 H :    0.029585
  22 C :   -0.033508
  23 H :    0.031972
  24 H :    0.039325
  25 C :   -0.044302
  26 H :    0.025617
  27 H :    0.020743
  28 C :   -0.074156
  29 H :    0.025440
  30 H :    0.025624
  31 H :    0.030185
  32 H :    0.033005
  33 H :    0.025114

  Mayer bond orders larger than 0.100000
B(  0-S ,  1-C ) :   1.1221 B(  0-S ,  4-C ) :   1.1511 B(  1-C ,  2-C ) :   1.6108
B(  1-C ,  4-C ) :   0.1082 B(  1-C , 32-H ) :   0.9639 B(  2-C ,  3-C ) :   1.2551
B(  2-C ,  6-C ) :   1.0175 B(  3-C ,  4-C ) :   1.5616 B(  3-C ,  5-H ) :   0.9729
B(  4-C , 20-C ) :   1.0697 B(  6-C ,  7-H ) :   0.9281 B(  6-C ,  8-H ) :   0.9452
B(  6-C ,  9-C ) :   1.0719 B(  9-C , 10-H ) :   0.9527 B(  9-C , 11-H ) :   0.9597
B(  9-C , 12-C ) :   1.0685 B( 12-C , 13-H ) :   0.9744 B( 12-C , 14-H ) :   0.9748
B( 12-C , 15-H ) :   0.9728 B( 16-S , 17-C ) :   1.1618 B( 16-S , 20-C ) :   1.1334
B( 17-C , 18-C ) :   1.6126 B( 17-C , 33-H ) :   0.9621 B( 18-C , 19-C ) :   1.2428
B( 18-C , 21-H ) :   0.9888 B( 19-C , 20-C ) :   1.5931 B( 19-C , 22-C ) :   1.0303
B( 22-C , 23-H ) :   0.9408 B( 22-C , 24-H ) :   0.9237 B( 22-C , 25-C ) :   1.0615
B( 25-C , 26-H ) :   0.9542 B( 25-C , 27-H ) :   0.9603 B( 25-C , 28-C ) :   1.0672
B( 28-C , 29-H ) :   0.9753 B( 28-C , 30-H ) :   0.9755 B( 28-C , 31-H ) :   0.9793

Dispersion correction           -0.013793347
FINAL SINGLE POINT ENERGY     -1339.875522841087

DIPOLE MOMENT
-------------
                                X             Y             Z
Electronic contribution:     15.80532     -21.54776       2.75301
Nuclear contribution   :    -16.31889      22.02593      -2.84917
                        -----------------------------------------
Total Dipole Moment    :     -0.51357       0.47817      -0.09617
                        -----------------------------------------
Magnitude (a.u.)       :      0.70828
Magnitude (Debye)      :      1.80029

Rotational constants in cm-1:     0.017722     0.008452     0.006577
Rotational constants in MHz :   531.300488   253.376577   197.181609

                             ****ORCA TERMINATED NORMALLY****
TOTAL RUN TIME: 0 days 0 hours 0 minutes 21 seconds 421 msec
