                         Program Version 4.2.1 -  RELEASE  -
|  1> ! wB97X-D3 SP def2-SVP
|  2> %pal
|  3> nprocs 24
|  4> end
|  5>
|  6> * xyz 0 1
|  7> S 	 -120.388 	 25.8082 	 -15.6759
|  8> C 	 -119.359 	 25.9153 	 -17.1423
|  9> C 	 -118.389 	 26.8262 	 -16.8229
| 10> C 	 -118.367 	 27.217 	 -15.4453
| 11> C 	 -119.399 	 26.8234 	 -14.6562
| 12> H 	 -117.625 	 27.7094 	 -14.9693
| 13> C 	 -117.35 	 27.4327 	 -17.8127
| 14> H 	 -117.478 	 26.7255 	 -18.6419
| 15> H 	 -116.4 	 27.2464 	 -17.3313
| 16> C 	 -117.524 	 28.9171 	 -18.3077
| 17> H 	 -118.555 	 29.0803 	 -18.5515
| 18> H 	 -117.215 	 29.6832 	 -17.5721
| 19> C 	 -116.558 	 29.1407 	 -19.5085
| 20> H 	 -115.576 	 28.8904 	 -19.0985
| 21> H 	 -116.705 	 28.4046 	 -20.2439
| 22> H 	 -116.605 	 30.0655 	 -20.0203
| 23> S 	 -119.367 	 25.7419 	 -12.1257
| 24> C 	 -119.614 	 26.8016 	 -10.7391
| 25> C 	 -119.452 	 28.1409 	 -11.1407
| 26> C 	 -119.52 	 28.2889 	 -12.5563
| 27> C 	 -119.504 	 27.089 	 -13.2455
| 28> H 	 -119.384 	 28.9848 	 -10.4577
| 29> C 	 -119.412 	 29.6715 	 -13.2424
| 30> H 	 -118.848 	 29.5285 	 -14.1198
| 31> H 	 -118.868 	 30.1814 	 -12.5487
| 32> C 	 -120.735 	 30.4108 	 -13.5947
| 33> H 	 -121.321 	 29.8628 	 -14.2772
| 34> H 	 -120.565 	 31.4146 	 -14.0814
| 35> C 	 -121.738 	 30.5408 	 -12.4822
| 36> H 	 -122.749 	 30.7838 	 -12.8466
| 37> H 	 -121.411 	 31.1758 	 -11.6258
| 38> H 	 -121.85 	 29.5957 	 -11.9862
| 39> H 	 -119.61 	 25.5319 	 -18.1449
| 40> H 	 -119.923 	 26.3671 	 -9.78636
| 41> *
| 42>
| 43>                          ****END OF INPUT****

CARTESIAN COORDINATES (ANGSTROEM)
---------------------------------
  S    -120.388000   25.808200  -15.675900
  C    -119.359000   25.915300  -17.142300
  C    -118.389000   26.826200  -16.822900
  C    -118.367000   27.217000  -15.445300
  C    -119.399000   26.823400  -14.656200
  H    -117.625000   27.709400  -14.969300
  C    -117.350000   27.432700  -17.812700
  H    -117.478000   26.725500  -18.641900
  H    -116.400000   27.246400  -17.331300
  C    -117.524000   28.917100  -18.307700
  H    -118.555000   29.080300  -18.551500
  H    -117.215000   29.683200  -17.572100
  C    -116.558000   29.140700  -19.508500
  H    -115.576000   28.890400  -19.098500
  H    -116.705000   28.404600  -20.243900
  H    -116.605000   30.065500  -20.020300
  S    -119.367000   25.741900  -12.125700
  C    -119.614000   26.801600  -10.739100
  C    -119.452000   28.140900  -11.140700
  C    -119.520000   28.288900  -12.556300
  C    -119.504000   27.089000  -13.245500
  H    -119.384000   28.984800  -10.457700
  C    -119.412000   29.671500  -13.242400
  H    -118.848000   29.528500  -14.119800
  H    -118.868000   30.181400  -12.548700
  C    -120.735000   30.410800  -13.594700
  H    -121.321000   29.862800  -14.277200
  H    -120.565000   31.414600  -14.081400
  C    -121.738000   30.540800  -12.482200
  H    -122.749000   30.783800  -12.846600
  H    -121.411000   31.175800  -11.625800
  H    -121.850000   29.595700  -11.986200
  H    -119.610000   25.531900  -18.144900
  H    -119.923000   26.367100   -9.786360

 Total Charge           Charge          ....    0
 Multiplicity           Mult            ....    1
 Number of Electrons    NEL             ....  134
 Basis Dimension        Dim             ....  322

ORBITAL ENERGIES
----------------

  NO   OCC          E(Eh)            E(eV)
   0   2.0000     -88.965424     -2420.8723
   1   2.0000     -88.961089     -2420.7543
   2   2.0000     -10.327191      -281.0171
   3   2.0000     -10.326979      -281.0114
   4   2.0000     -10.326890      -281.0090
   5   2.0000     -10.323043      -280.9043
   6   2.0000     -10.306335      -280.4496
   7   2.0000     -10.303242      -280.3655
   8   2.0000     -10.302529      -280.3461
   9   2.0000     -10.298056      -280.2243
  10   2.0000     -10.294002      -280.1140
  11   2.0000     -10.284470      -279.8546
  12   2.0000     -10.282955      -279.8134
  13   2.0000     -10.281662      -279.7782
  14   2.0000     -10.273624      -279.5595
  15   2.0000     -10.271416      -279.4994
  16   2.0000      -8.080146      -219.8720
  17   2.0000      -8.075372      -219.7420
  18   2.0000      -6.038623      -164.3193
  19   2.0000      -6.034632      -164.2107
  20   2.0000      -6.034100      -164.1962
  21   2.0000      -6.030951      -164.1105
  22   2.0000      -6.029780      -164.0786
  23   2.0000      -6.026007      -163.9760
  24   2.0000      -1.008650       -27.4468
  25   2.0000      -0.984732       -26.7959
  26   2.0000      -0.908227       -24.7141
  27   2.0000      -0.905866       -24.6499
  28   2.0000      -0.875051       -23.8113
  29   2.0000      -0.851592       -23.1730
  30   2.0000      -0.842784       -22.9333
  31   2.0000      -0.816787       -22.2259
  32   2.0000      -0.785196       -21.3663
  33   2.0000      -0.772422       -21.0187
  34   2.0000      -0.710750       -19.3405
  35   2.0000      -0.704907       -19.1815
  36   2.0000      -0.692827       -18.8528
  37   2.0000      -0.668662       -18.1952
  38   2.0000      -0.647837       -17.6285
  39   2.0000      -0.616742       -16.7824
  40   2.0000      -0.590937       -16.0802
  41   2.0000      -0.573629       -15.6092
  42   2.0000      -0.562703       -15.3119
  43   2.0000      -0.555329       -15.1113
  44   2.0000      -0.544450       -14.8152
  45   2.0000      -0.528873       -14.3914
  46   2.0000      -0.526589       -14.3292
  47   2.0000      -0.520087       -14.1523
  48   2.0000      -0.511096       -13.9076
  49   2.0000      -0.496830       -13.5194
  50   2.0000      -0.488240       -13.2857
  51   2.0000      -0.481811       -13.1107
  52   2.0000      -0.469479       -12.7752
  53   2.0000      -0.467911       -12.7325
  54   2.0000      -0.457388       -12.4461
  55   2.0000      -0.446048       -12.1376
  56   2.0000      -0.442442       -12.0395
  57   2.0000      -0.434153       -11.8139
  58   2.0000      -0.433511       -11.7964
  59   2.0000      -0.428916       -11.6714
  60   2.0000      -0.425763       -11.5856
  61   2.0000      -0.409479       -11.1425
  62   2.0000      -0.403816       -10.9884
  63   2.0000      -0.339853        -9.2479
  64   2.0000      -0.333525        -9.0757
  65   2.0000      -0.323701        -8.8084
  66   2.0000      -0.303416        -8.2564
  67   0.0000       0.023929         0.6511
  68   0.0000       0.065823         1.7911
  69   0.0000       0.104510         2.8439
  70   0.0000       0.124810         3.3963
  71   0.0000       0.129094         3.5128

MULLIKEN ATOMIC CHARGES
-----------------------
   0 S :    0.083881
   1 C :   -0.127847
   2 C :   -0.098850
   3 C :    0.070351
   4 C :   -0.138898
   5 H :   -0.028919
   6 C :    0.042997
   7 H :    0.015346
   8 H :    0.033858
   9 C :   -0.047405
  10 H :    0.030144
  11 H :    0.038285
  12 C :   -0.021787
  13 H :    0.022886
  14 H :    0.008782
  15 H :    0.035422
  16 S :    0.109859
  17 C :   -0.114121
  18 C :   -0.021435
  19 C :   -0.097260
  20 C :   -0.163653
  21 H :    0.026448
  22 C :    0.174495
  23 H :    0.006379
  24 H :   -0.005253
  25 C :   -0.045082
  26 H :    0.018484
  27 H :    0.038035
  28 C :   -0.074359
  29 H :    0.038315
  30 H :    0.023032
  31 H :    0.024524
  32 H :    0.067151
  33 H :    0.076195
Sum of atomic charges:    0.0000000

LOEWDIN ATOMIC CHARGES
----------------------
   0 S :    0.383811
   1 C :   -0.186475
   2 C :   -0.066956
   3 C :   -0.055095
   4 C :   -0.195704
   5 H :    0.010466
   6 C :   -0.028283
   7 H :    0.029058
   8 H :    0.029660
   9 C :   -0.032706
  10 H :    0.020130
  11 H :    0.027955
  12 C :   -0.059102
  13 H :    0.028340
  14 H :    0.015637
  15 H :    0.021842
  16 S :    0.404590
  17 C :   -0.176596
  18 C :   -0.070413
  19 C :   -0.051308
  20 C :   -0.199437
  21 H :    0.032201
  22 C :   -0.011434
  23 H :    0.025207
  24 H :    0.016783
  25 C :   -0.038649
  26 H :    0.022269
  27 H :    0.030413
  28 C :   -0.072615
  29 H :    0.029861
  30 H :    0.021324
  31 H :    0.022278
  32 H :    0.040477
  33 H :    0.032470

  Mayer bond orders larger than 0.100000
B(  0-S ,  1-C ) :   1.1219 B(  0-S ,  4-C ) :   1.1300 B(  1-C ,  2-C ) :   1.6215
B(  1-C , 32-H ) :   0.9670 B(  2-C ,  3-C ) :   1.2212 B(  2-C ,  6-C ) :   1.0113
B(  3-C ,  4-C ) :   1.5910 B(  3-C ,  5-H ) :   1.0032 B(  4-C , 20-C ) :   1.0468
B(  6-C ,  7-H ) :   0.9467 B(  6-C ,  8-H ) :   0.9409 B(  6-C ,  9-C ) :   1.0536
B(  9-C , 10-H ) :   0.9600 B(  9-C , 11-H ) :   0.9576 B(  9-C , 12-C ) :   1.0708
B( 12-C , 13-H ) :   0.9745 B( 12-C , 14-H ) :   0.9773 B( 12-C , 15-H ) :   0.9760
B( 16-S , 17-C ) :   1.1723 B( 16-S , 20-C ) :   1.1473 B( 17-C , 18-C ) :   1.5564
B( 17-C , 20-C ) :   0.1092 B( 17-C , 33-H ) :   0.9718 B( 18-C , 19-C ) :   1.2657
B( 18-C , 21-H ) :   0.9859 B( 19-C , 20-C ) :   1.5867 B( 19-C , 22-C ) :   1.0163
B( 22-C , 23-H ) :   0.9279 B( 22-C , 24-H ) :   0.9302 B( 22-C , 25-C ) :   1.0667
B( 25-C , 26-H ) :   0.9544 B( 25-C , 27-H ) :   0.9564 B( 25-C , 28-C ) :   1.0828
B( 28-C , 29-H ) :   0.9744 B( 28-C , 30-H ) :   0.9740 B( 28-C , 31-H ) :   0.9673

Dispersion correction           -0.014266661
FINAL SINGLE POINT ENERGY     -1339.849948561989

DIPOLE MOMENT
-------------
                                X             Y             Z
Electronic contribution:     -5.39510     -23.19320      12.76188
Nuclear contribution   :      5.71754      23.73409     -12.95360
                        -----------------------------------------
Total Dipole Moment    :      0.32243       0.54089      -0.19172
                        -----------------------------------------
Magnitude (a.u.)       :      0.65824
Magnitude (Debye)      :      1.67312

Rotational constants in cm-1:     0.019072     0.008199     0.006735
Rotational constants in MHz :   571.769729   245.811998   201.903013

                             ****ORCA TERMINATED NORMALLY****
TOTAL RUN TIME: 0 days 0 hours 0 minutes 20 seconds 396 msec
