                         Program Version 4.2.1 -  RELEASE  -
|  1> ! wB97X-D3 SP def2-SVP
|  2> %pal
|  3> nprocs 24
|  4> end
|  5>
|  6> * xyz 0 1
|  7> S 	 40.0703 	 -10.5428 	 -124.911
|  8> C 	 41.0067 	 -10.5416 	 -123.453
|  9> C 	 42.0221 	 -11.4914 	 -123.47
| 10> C 	 42.0929 	 -12.2075 	 -124.62
| 11> C 	 41.1226 	 -11.8969 	 -125.52
| 12> H 	 42.807 	 -12.9807 	 -124.766
| 13> C 	 42.977 	 -11.8049 	 -122.351
| 14> H 	 43.4207 	 -12.7861 	 -122.68
| 15> H 	 42.4872 	 -12.1496 	 -121.503
| 16> C 	 43.9576 	 -10.6588 	 -122.035
| 17> H 	 43.5145 	 -9.64353 	 -121.781
| 18> H 	 44.5608 	 -11.0155 	 -121.175
| 19> C 	 44.8663 	 -10.2674 	 -123.192
| 20> H 	 45.4741 	 -11.1674 	 -123.445
| 21> H 	 44.3523 	 -9.96057 	 -124.143
| 22> H 	 45.4744 	 -9.44399 	 -122.805
| 23> S 	 39.2342 	 -13.069 	 -127.1
| 24> C 	 39.7781 	 -13.8771 	 -128.528
| 25> C 	 41.1366 	 -13.7715 	 -128.742
| 26> C 	 41.7853 	 -12.9522 	 -127.774
| 27> C 	 40.8836 	 -12.55 	 -126.807
| 28> H 	 41.5432 	 -14.2874 	 -129.564
| 29> C 	 43.2188 	 -12.6563 	 -127.914
| 30> H 	 43.3887 	 -11.9345 	 -127.172
| 31> H 	 43.4367 	 -12.0348 	 -128.794
| 32> C 	 44.1189 	 -13.9134 	 -127.835
| 33> H 	 43.7743 	 -14.578 	 -128.627
| 34> H 	 43.877 	 -14.3156 	 -126.875
| 35> C 	 45.5761 	 -13.5193 	 -127.729
| 36> H 	 46.2722 	 -14.376 	 -127.623
| 37> H 	 45.6325 	 -12.8585 	 -126.831
| 38> H 	 45.9246 	 -12.9512 	 -128.581
| 39> H 	 40.7212 	 -9.91862 	 -122.623
| 40> H 	 39.23 	 -14.6266 	 -128.999
| 41> *
| 42>
| 43>                          ****END OF INPUT****

CARTESIAN COORDINATES (ANGSTROEM)
---------------------------------
  S     40.070300  -10.542800  -124.911000
  C     41.006700  -10.541600  -123.453000
  C     42.022100  -11.491400  -123.470000
  C     42.092900  -12.207500  -124.620000
  C     41.122600  -11.896900  -125.520000
  H     42.807000  -12.980700  -124.766000
  C     42.977000  -11.804900  -122.351000
  H     43.420700  -12.786100  -122.680000
  H     42.487200  -12.149600  -121.503000
  C     43.957600  -10.658800  -122.035000
  H     43.514500   -9.643530  -121.781000
  H     44.560800  -11.015500  -121.175000
  C     44.866300  -10.267400  -123.192000
  H     45.474100  -11.167400  -123.445000
  H     44.352300   -9.960570  -124.143000
  H     45.474400   -9.443990  -122.805000
  S     39.234200  -13.069000  -127.100000
  C     39.778100  -13.877100  -128.528000
  C     41.136600  -13.771500  -128.742000
  C     41.785300  -12.952200  -127.774000
  C     40.883600  -12.550000  -126.807000
  H     41.543200  -14.287400  -129.564000
  C     43.218800  -12.656300  -127.914000
  H     43.388700  -11.934500  -127.172000
  H     43.436700  -12.034800  -128.794000
  C     44.118900  -13.913400  -127.835000
  H     43.774300  -14.578000  -128.627000
  H     43.877000  -14.315600  -126.875000
  C     45.576100  -13.519300  -127.729000
  H     46.272200  -14.376000  -127.623000
  H     45.632500  -12.858500  -126.831000
  H     45.924600  -12.951200  -128.581000
  H     40.721200   -9.918620  -122.623000
  H     39.230000  -14.626600  -128.999000

 Total Charge           Charge          ....    0
 Multiplicity           Mult            ....    1
 Number of Electrons    NEL             ....  134
 Basis Dimension        Dim             ....  322

ORBITAL ENERGIES
----------------

  NO   OCC          E(Eh)            E(eV)
   0   2.0000     -88.967416     -2420.9265
   1   2.0000     -88.965136     -2420.8644
   2   2.0000     -10.328788      -281.0606
   3   2.0000     -10.324297      -280.9384
   4   2.0000     -10.310504      -280.5631
   5   2.0000     -10.307292      -280.4757
   6   2.0000     -10.298118      -280.2260
   7   2.0000     -10.293593      -280.1029
   8   2.0000     -10.290029      -280.0059
   9   2.0000     -10.288316      -279.9593
  10   2.0000     -10.287253      -279.9304
  11   2.0000     -10.286693      -279.9151
  12   2.0000     -10.283476      -279.8276
  13   2.0000     -10.283036      -279.8156
  14   2.0000     -10.282387      -279.7980
  15   2.0000     -10.280072      -279.7350
  16   2.0000      -8.081465      -219.9079
  17   2.0000      -8.080423      -219.8795
  18   2.0000      -6.039864      -164.3531
  19   2.0000      -6.038779      -164.3235
  20   2.0000      -6.036150      -164.2520
  21   2.0000      -6.034963      -164.2197
  22   2.0000      -6.032324      -164.1479
  23   2.0000      -6.031205      -164.1174
  24   2.0000      -1.008560       -27.4443
  25   2.0000      -0.987920       -26.8827
  26   2.0000      -0.918186       -24.9851
  27   2.0000      -0.910181       -24.7673
  28   2.0000      -0.867321       -23.6010
  29   2.0000      -0.858915       -23.3723
  30   2.0000      -0.853727       -23.2311
  31   2.0000      -0.814699       -22.1691
  32   2.0000      -0.784119       -21.3370
  33   2.0000      -0.768778       -20.9195
  34   2.0000      -0.708707       -19.2849
  35   2.0000      -0.703854       -19.1528
  36   2.0000      -0.690927       -18.8011
  37   2.0000      -0.665263       -18.1027
  38   2.0000      -0.642714       -17.4891
  39   2.0000      -0.623754       -16.9732
  40   2.0000      -0.600521       -16.3410
  41   2.0000      -0.572908       -15.5896
  42   2.0000      -0.569719       -15.5029
  43   2.0000      -0.554925       -15.1003
  44   2.0000      -0.538728       -14.6595
  45   2.0000      -0.528836       -14.3904
  46   2.0000      -0.514256       -13.9936
  47   2.0000      -0.513156       -13.9637
  48   2.0000      -0.506460       -13.7815
  49   2.0000      -0.494138       -13.4462
  50   2.0000      -0.491467       -13.3735
  51   2.0000      -0.473412       -12.8822
  52   2.0000      -0.472013       -12.8441
  53   2.0000      -0.469262       -12.7693
  54   2.0000      -0.460348       -12.5267
  55   2.0000      -0.447124       -12.1669
  56   2.0000      -0.443113       -12.0577
  57   2.0000      -0.437870       -11.9150
  58   2.0000      -0.435196       -11.8423
  59   2.0000      -0.429846       -11.6967
  60   2.0000      -0.423969       -11.5368
  61   2.0000      -0.420804       -11.4507
  62   2.0000      -0.405391       -11.0312
  63   2.0000      -0.351355        -9.5609
  64   2.0000      -0.335425        -9.1274
  65   2.0000      -0.331480        -9.0200
  66   2.0000      -0.283659        -7.7188
  67   0.0000       0.028417         0.7733
  68   0.0000       0.066984         1.8227
  69   0.0000       0.104877         2.8539
  70   0.0000       0.118611         3.2276
  71   0.0000       0.131059         3.5663

MULLIKEN ATOMIC CHARGES
-----------------------
   0 S :    0.105982
   1 C :   -0.130712
   2 C :   -0.081943
   3 C :    0.027609
   4 C :   -0.145697
   5 H :   -0.007250
   6 C :    0.104047
   7 H :    0.012282
   8 H :    0.014048
   9 C :   -0.090139
  10 H :    0.042809
  11 H :    0.036963
  12 C :   -0.084482
  13 H :    0.027765
  14 H :    0.057764
  15 H :    0.041145
  16 S :    0.110510
  17 C :   -0.059644
  18 C :   -0.043931
  19 C :   -0.026600
  20 C :   -0.155414
  21 H :    0.004033
  22 C :    0.076231
  23 H :   -0.010586
  24 H :    0.030813
  25 C :   -0.061079
  26 H :    0.036687
  27 H :    0.021058
  28 C :   -0.035242
  29 H :    0.042691
  30 H :    0.032961
  31 H :    0.027206
  32 H :    0.044345
  33 H :    0.035769
Sum of atomic charges:    0.0000000

LOEWDIN ATOMIC CHARGES
----------------------
   0 S :    0.386025
   1 C :   -0.198038
   2 C :   -0.068624
   3 C :   -0.064045
   4 C :   -0.167262
   5 H :    0.028659
   6 C :   -0.031015
   7 H :    0.035067
   8 H :    0.022408
   9 C :   -0.045786
  10 H :    0.032452
  11 H :    0.027337
  12 C :   -0.073795
  13 H :    0.022458
  14 H :    0.032141
  15 H :    0.028084
  16 S :    0.411567
  17 C :   -0.182297
  18 C :   -0.059850
  19 C :   -0.054126
  20 C :   -0.194373
  21 H :    0.023631
  22 C :   -0.035428
  23 H :    0.019928
  24 H :    0.035152
  25 C :   -0.033295
  26 H :    0.023528
  27 H :    0.022095
  28 C :   -0.064611
  29 H :    0.029006
  30 H :    0.032654
  31 H :    0.021296
  32 H :    0.023487
  33 H :    0.015571

  Mayer bond orders larger than 0.100000
B(  0-S ,  1-C ) :   1.1466 B(  0-S ,  4-C ) :   1.1493 B(  1-C ,  2-C ) :   1.5746
B(  1-C ,  4-C ) :   0.1101 B(  1-C , 32-H ) :   0.9721 B(  2-C ,  3-C ) :   1.2903
B(  2-C ,  6-C ) :   1.0047 B(  3-C ,  4-C ) :   1.5517 B(  3-C ,  5-H ) :   0.9988
B(  4-C , 20-C ) :   1.0284 B(  6-C ,  7-H ) :   0.9435 B(  6-C ,  8-H ) :   0.9314
B(  6-C ,  9-C ) :   1.0617 B(  9-C , 10-H ) :   0.9614 B(  9-C , 11-H ) :   0.9554
B(  9-C , 12-C ) :   1.0698 B( 12-C , 13-H ) :   0.9758 B( 12-C , 14-H ) :   0.9722
B( 12-C , 15-H ) :   0.9749 B( 16-S , 17-C ) :   1.1496 B( 16-S , 20-C ) :   1.1471
B( 17-C , 18-C ) :   1.6372 B( 17-C , 33-H ) :   0.9674 B( 18-C , 19-C ) :   1.2074
B( 18-C , 21-H ) :   0.9964 B( 19-C , 20-C ) :   1.5998 B( 19-C , 22-C ) :   1.0570
B( 22-C , 23-H ) :   0.9195 B( 22-C , 24-H ) :   0.9248 B( 22-C , 25-C ) :   1.0457
B( 25-C , 26-H ) :   0.9582 B( 25-C , 27-H ) :   0.9540 B( 25-C , 28-C ) :   1.0813
B( 28-C , 29-H ) :   0.9743 B( 28-C , 30-H ) :   0.9717 B( 28-C , 31-H ) :   0.9742

Dispersion correction           -0.014833275
FINAL SINGLE POINT ENERGY     -1339.871530894168

DIPOLE MOMENT
-------------
                                X             Y             Z
Electronic contribution:    -30.38405       1.60832      -5.33694
Nuclear contribution   :     30.99011      -1.90852       5.48667
                        -----------------------------------------
Total Dipole Moment    :      0.60606      -0.30020       0.14973
                        -----------------------------------------
Magnitude (a.u.)       :      0.69271
Magnitude (Debye)      :      1.76074

Rotational constants in cm-1:     0.017229     0.010192     0.006881
Rotational constants in MHz :   516.498510   305.539395   206.292900

                             ****ORCA TERMINATED NORMALLY****
TOTAL RUN TIME: 0 days 0 hours 0 minutes 22 seconds 266 msec
