                         Program Version 4.2.1 -  RELEASE  -
|  1> ! wB97X-D3 SP def2-SVP
|  2> %pal
|  3> nprocs 24
|  4> end
|  5>
|  6> * xyz 0 1
|  7> S 	 -136.451 	 4.99698 	 3.46124
|  8> C 	 -137.009 	 5.50507 	 1.89673
|  9> C 	 -136.688 	 6.86103 	 1.66453
| 10> C 	 -135.873 	 7.37867 	 2.71527
| 11> C 	 -135.516 	 6.45502 	 3.70817
| 12> H 	 -135.559 	 8.36871 	 2.81516
| 13> C 	 -137.248 	 7.75806 	 0.569788
| 14> H 	 -137.111 	 7.0774 	 -0.248932
| 15> H 	 -136.533 	 8.63777 	 0.384976
| 16> C 	 -138.664 	 8.25533 	 0.629692
| 17> H 	 -138.731 	 8.87013 	 -0.270137
| 18> H 	 -139.389 	 7.39636 	 0.567258
| 19> C 	 -138.957 	 9.21416 	 1.80443
| 20> H 	 -139.06 	 8.68641 	 2.76729
| 21> H 	 -138.121 	 9.86748 	 1.89758
| 22> H 	 -139.81 	 9.77629 	 1.55614
| 23> S 	 -135.688 	 6.94816 	 6.3838
| 24> C 	 -134.175 	 7.07845 	 7.25437
| 25> C 	 -133.095 	 6.8451 	 6.39503
| 26> C 	 -133.424 	 6.58337 	 5.03185
| 27> C 	 -134.745 	 6.58913 	 4.90602
| 28> H 	 -132.137 	 6.97085 	 6.89147
| 29> C 	 -132.467 	 6.37383 	 3.96354
| 30> H 	 -132.966 	 5.90033 	 3.11138
| 31> H 	 -131.7 	 5.69459 	 4.37784
| 32> C 	 -131.625 	 7.5663 	 3.46485
| 33> H 	 -131.402 	 7.35509 	 2.42238
| 34> H 	 -130.65 	 7.62046 	 3.95565
| 35> C 	 -132.203 	 8.98985 	 3.53105
| 36> H 	 -131.454 	 9.75459 	 3.24861
| 37> H 	 -132.506 	 9.24694 	 4.61805
| 38> H 	 -133.091 	 9.24237 	 2.9089
| 39> H 	 -137.742 	 4.95434 	 1.2283
| 40> H 	 -134.112 	 7.4222 	 8.27706
| 41> *
| 42>
| 43>                          ****END OF INPUT****

CARTESIAN COORDINATES (ANGSTROEM)
---------------------------------
  S    -136.451000    4.996980    3.461240
  C    -137.009000    5.505070    1.896730
  C    -136.688000    6.861030    1.664530
  C    -135.873000    7.378670    2.715270
  C    -135.516000    6.455020    3.708170
  H    -135.559000    8.368710    2.815160
  C    -137.248000    7.758060    0.569788
  H    -137.111000    7.077400   -0.248932
  H    -136.533000    8.637770    0.384976
  C    -138.664000    8.255330    0.629692
  H    -138.731000    8.870130   -0.270137
  H    -139.389000    7.396360    0.567258
  C    -138.957000    9.214160    1.804430
  H    -139.060000    8.686410    2.767290
  H    -138.121000    9.867480    1.897580
  H    -139.810000    9.776290    1.556140
  S    -135.688000    6.948160    6.383800
  C    -134.175000    7.078450    7.254370
  C    -133.095000    6.845100    6.395030
  C    -133.424000    6.583370    5.031850
  C    -134.745000    6.589130    4.906020
  H    -132.137000    6.970850    6.891470
  C    -132.467000    6.373830    3.963540
  H    -132.966000    5.900330    3.111380
  H    -131.700000    5.694590    4.377840
  C    -131.625000    7.566300    3.464850
  H    -131.402000    7.355090    2.422380
  H    -130.650000    7.620460    3.955650
  C    -132.203000    8.989850    3.531050
  H    -131.454000    9.754590    3.248610
  H    -132.506000    9.246940    4.618050
  H    -133.091000    9.242370    2.908900
  H    -137.742000    4.954340    1.228300
  H    -134.112000    7.422200    8.277060

 Total Charge           Charge          ....    0
 Multiplicity           Mult            ....    1
 Number of Electrons    NEL             ....  134
 Basis Dimension        Dim             ....  322

ORBITAL ENERGIES
----------------

  NO   OCC          E(Eh)            E(eV)
   0   2.0000     -88.964477     -2420.8465
   1   2.0000     -88.962853     -2420.8023
   2   2.0000     -10.322960      -280.9020
   3   2.0000     -10.319127      -280.7977
   4   2.0000     -10.318740      -280.7872
   5   2.0000     -10.317461      -280.7524
   6   2.0000     -10.300899      -280.3017
   7   2.0000     -10.296512      -280.1823
   8   2.0000     -10.294377      -280.1242
   9   2.0000     -10.293059      -280.0884
  10   2.0000     -10.289624      -279.9949
  11   2.0000     -10.289353      -279.9875
  12   2.0000     -10.289335      -279.9870
  13   2.0000     -10.288268      -279.9580
  14   2.0000     -10.285275      -279.8766
  15   2.0000     -10.271364      -279.4980
  16   2.0000      -8.079199      -219.8462
  17   2.0000      -8.077429      -219.7980
  18   2.0000      -6.037617      -164.2919
  19   2.0000      -6.035941      -164.2463
  20   2.0000      -6.033575      -164.1819
  21   2.0000      -6.032127      -164.1425
  22   2.0000      -6.030185      -164.0897
  23   2.0000      -6.028025      -164.0309
  24   2.0000      -1.008342       -27.4384
  25   2.0000      -0.981876       -26.7182
  26   2.0000      -0.912704       -24.8359
  27   2.0000      -0.911526       -24.8039
  28   2.0000      -0.867986       -23.6191
  29   2.0000      -0.850695       -23.1486
  30   2.0000      -0.844519       -22.9805
  31   2.0000      -0.810220       -22.0472
  32   2.0000      -0.787650       -21.4330
  33   2.0000      -0.774403       -21.0726
  34   2.0000      -0.706056       -19.2127
  35   2.0000      -0.697230       -18.9726
  36   2.0000      -0.693697       -18.8765
  37   2.0000      -0.661748       -18.0071
  38   2.0000      -0.637406       -17.3447
  39   2.0000      -0.609412       -16.5829
  40   2.0000      -0.591221       -16.0879
  41   2.0000      -0.574546       -15.6342
  42   2.0000      -0.558939       -15.2095
  43   2.0000      -0.551888       -15.0176
  44   2.0000      -0.542851       -14.7717
  45   2.0000      -0.537296       -14.6206
  46   2.0000      -0.522014       -14.2047
  47   2.0000      -0.504399       -13.7254
  48   2.0000      -0.495649       -13.4873
  49   2.0000      -0.494990       -13.4694
  50   2.0000      -0.492830       -13.4106
  51   2.0000      -0.471670       -12.8348
  52   2.0000      -0.469622       -12.7791
  53   2.0000      -0.465433       -12.6651
  54   2.0000      -0.462654       -12.5895
  55   2.0000      -0.443150       -12.0587
  56   2.0000      -0.439491       -11.9592
  57   2.0000      -0.436745       -11.8844
  58   2.0000      -0.435401       -11.8479
  59   2.0000      -0.424661       -11.5556
  60   2.0000      -0.419261       -11.4087
  61   2.0000      -0.413309       -11.2467
  62   2.0000      -0.410322       -11.1654
  63   2.0000      -0.334905        -9.1132
  64   2.0000      -0.328344        -8.9347
  65   2.0000      -0.322165        -8.7666
  66   2.0000      -0.302707        -8.2371
  67   0.0000       0.041441         1.1277
  68   0.0000       0.052439         1.4270
  69   0.0000       0.116091         3.1590
  70   0.0000       0.119163         3.2426
  71   0.0000       0.125914         3.4263

MULLIKEN ATOMIC CHARGES
-----------------------
   0 S :    0.119723
   1 C :   -0.138119
   2 C :   -0.100339
   3 C :    0.074242
   4 C :   -0.212454
   5 H :   -0.018344
   6 C :    0.024498
   7 H :    0.024549
   8 H :    0.033908
   9 C :   -0.063398
  10 H :    0.030161
  11 H :    0.034760
  12 C :   -0.019969
  13 H :    0.049783
  14 H :    0.011409
  15 H :    0.028587
  16 S :    0.110332
  17 C :   -0.104369
  18 C :   -0.047570
  19 C :    0.016776
  20 C :   -0.194392
  21 H :    0.014971
  22 C :    0.112415
  23 H :    0.040496
  24 H :    0.032866
  25 C :   -0.068367
  26 H :    0.029654
  27 H :    0.028620
  28 C :   -0.095838
  29 H :    0.036943
  30 H :    0.044385
  31 H :    0.036417
  32 H :    0.067944
  33 H :    0.059718
Sum of atomic charges:    0.0000000

LOEWDIN ATOMIC CHARGES
----------------------
   0 S :    0.420862
   1 C :   -0.219333
   2 C :   -0.068716
   3 C :   -0.054888
   4 C :   -0.201852
   5 H :    0.018148
   6 C :   -0.043106
   7 H :    0.031629
   8 H :    0.036438
   9 C :   -0.040447
  10 H :    0.028201
  11 H :    0.027091
  12 C :   -0.057702
  13 H :    0.032222
  14 H :    0.019316
  15 H :    0.021277
  16 S :    0.382851
  17 C :   -0.179954
  18 C :   -0.069987
  19 C :   -0.055693
  20 C :   -0.191762
  21 H :    0.030069
  22 C :   -0.031993
  23 H :    0.038200
  24 H :    0.043819
  25 C :   -0.041628
  26 H :    0.028529
  27 H :    0.025991
  28 C :   -0.082638
  29 H :    0.028939
  30 H :    0.033411
  31 H :    0.023244
  32 H :    0.040701
  33 H :    0.028763

  Mayer bond orders larger than 0.100000
B(  0-S ,  1-C ) :   1.1617 B(  0-S ,  4-C ) :   1.1636 B(  1-C ,  2-C ) :   1.5702
B(  1-C ,  4-C ) :   0.1124 B(  1-C , 32-H ) :   0.9605 B(  2-C ,  3-C ) :   1.2684
B(  2-C ,  6-C ) :   1.0044 B(  3-C ,  4-C ) :   1.5496 B(  3-C ,  5-H ) :   1.0056
B(  4-C , 20-C ) :   1.0153 B(  6-C ,  7-H ) :   0.9320 B(  6-C ,  8-H ) :   0.9423
B(  6-C ,  9-C ) :   1.0918 B(  9-C , 10-H ) :   0.9500 B(  9-C , 11-H ) :   0.9518
B(  9-C , 12-C ) :   1.0755 B( 12-C , 13-H ) :   0.9752 B( 12-C , 14-H ) :   0.9724
B( 12-C , 15-H ) :   0.9746 B( 16-S , 17-C ) :   1.1380 B( 16-S , 20-C ) :   1.1286
B( 17-C , 18-C ) :   1.6447 B( 17-C , 33-H ) :   0.9684 B( 18-C , 19-C ) :   1.1616
B( 18-C , 21-H ) :   0.9923 B( 19-C , 20-C ) :   1.6505 B( 19-C , 22-C ) :   1.0852
B( 22-C , 23-H ) :   0.9163 B( 22-C , 24-H ) :   0.9248 B( 22-C , 25-C ) :   1.0551
B( 25-C , 26-H ) :   0.9562 B( 25-C , 27-H ) :   0.9527 B( 25-C , 28-C ) :   1.0943
B( 28-C , 29-H ) :   0.9716 B( 28-C , 30-H ) :   0.9646 B( 28-C , 31-H ) :   0.9748

Dispersion correction           -0.015424045
FINAL SINGLE POINT ENERGY     -1339.872706960652

DIPOLE MOMENT
-------------
                                X             Y             Z
Electronic contribution:     -3.98467     -15.90232      15.60815
Nuclear contribution   :      4.22865      16.35943     -15.90257
                        -----------------------------------------
Total Dipole Moment    :      0.24398       0.45711      -0.29442
                        -----------------------------------------
Magnitude (a.u.)       :      0.59596
Magnitude (Debye)      :      1.51480

Rotational constants in cm-1:     0.019936     0.008710     0.007800
Rotational constants in MHz :   597.671103   261.117061   233.832832

                             ****ORCA TERMINATED NORMALLY****
TOTAL RUN TIME: 0 days 0 hours 0 minutes 22 seconds 291 msec
