                         Program Version 4.2.1 -  RELEASE  -
|  1> ! wB97X-D3 SP def2-SVP
|  2> %pal
|  3> nprocs 24
|  4> end
|  5>
|  6> * xyz 0 1
|  7> S 	 30.9599 	 -29.4229 	 -107.322
|  8> C 	 32.271 	 -29.7452 	 -106.203
|  9> C 	 33.3838 	 -30.17 	 -106.852
| 10> C 	 33.2111 	 -30.4246 	 -108.245
| 11> C 	 31.9205 	 -30.1438 	 -108.647
| 12> H 	 33.9323 	 -30.6572 	 -108.992
| 13> C 	 34.7398 	 -30.3357 	 -106.23
| 14> H 	 35.3597 	 -31.1161 	 -106.77
| 15> H 	 34.5982 	 -30.927 	 -105.354
| 16> C 	 35.5595 	 -28.9973 	 -106.089
| 17> H 	 35.151 	 -28.2554 	 -105.4
| 18> H 	 36.5769 	 -29.3252 	 -105.82
| 19> C 	 35.8548 	 -28.2483 	 -107.358
| 20> H 	 34.9363 	 -27.8331 	 -107.825
| 21> H 	 36.5687 	 -27.5069 	 -107.319
| 22> H 	 36.2698 	 -28.9153 	 -108.072
| 23> S 	 31.1904 	 -28.5109 	 -110.711
| 24> C 	 30.7438 	 -29.1857 	 -112.231
| 25> C 	 30.7314 	 -30.5941 	 -112.113
| 26> C 	 31.1513 	 -31.0833 	 -110.876
| 27> C 	 31.5012 	 -30.0973 	 -110.022
| 28> H 	 30.5047 	 -31.0865 	 -113.016
| 29> C 	 31.0166 	 -32.5873 	 -110.438
| 30> H 	 29.9887 	 -32.8667 	 -110.421
| 31> H 	 31.4979 	 -32.5803 	 -109.443
| 32> C 	 31.8205 	 -33.6008 	 -111.306
| 33> H 	 32.8705 	 -33.2989 	 -111.208
| 34> H 	 31.5453 	 -33.5661 	 -112.353
| 35> C 	 31.6147 	 -34.9877 	 -110.794
| 36> H 	 32.0336 	 -35.102 	 -109.79
| 37> H 	 32.0999 	 -35.7324 	 -111.46
| 38> H 	 30.526 	 -35.2311 	 -110.745
| 39> H 	 32.343 	 -29.3317 	 -105.224
| 40> H 	 30.52 	 -28.5961 	 -113.146
| 41> *
| 42>
| 43>                          ****END OF INPUT****

CARTESIAN COORDINATES (ANGSTROEM)
---------------------------------
  S     30.959900  -29.422900  -107.322000
  C     32.271000  -29.745200  -106.203000
  C     33.383800  -30.170000  -106.852000
  C     33.211100  -30.424600  -108.245000
  C     31.920500  -30.143800  -108.647000
  H     33.932300  -30.657200  -108.992000
  C     34.739800  -30.335700  -106.230000
  H     35.359700  -31.116100  -106.770000
  H     34.598200  -30.927000  -105.354000
  C     35.559500  -28.997300  -106.089000
  H     35.151000  -28.255400  -105.400000
  H     36.576900  -29.325200  -105.820000
  C     35.854800  -28.248300  -107.358000
  H     34.936300  -27.833100  -107.825000
  H     36.568700  -27.506900  -107.319000
  H     36.269800  -28.915300  -108.072000
  S     31.190400  -28.510900  -110.711000
  C     30.743800  -29.185700  -112.231000
  C     30.731400  -30.594100  -112.113000
  C     31.151300  -31.083300  -110.876000
  C     31.501200  -30.097300  -110.022000
  H     30.504700  -31.086500  -113.016000
  C     31.016600  -32.587300  -110.438000
  H     29.988700  -32.866700  -110.421000
  H     31.497900  -32.580300  -109.443000
  C     31.820500  -33.600800  -111.306000
  H     32.870500  -33.298900  -111.208000
  H     31.545300  -33.566100  -112.353000
  C     31.614700  -34.987700  -110.794000
  H     32.033600  -35.102000  -109.790000
  H     32.099900  -35.732400  -111.460000
  H     30.526000  -35.231100  -110.745000
  H     32.343000  -29.331700  -105.224000
  H     30.520000  -28.596100  -113.146000

 Total Charge           Charge          ....    0
 Multiplicity           Mult            ....    1
 Number of Electrons    NEL             ....  134
 Basis Dimension        Dim             ....  322

ORBITAL ENERGIES
----------------

  NO   OCC          E(Eh)            E(eV)
   0   2.0000     -88.966343     -2420.8973
   1   2.0000     -88.963049     -2420.8076
   2   2.0000     -10.327629      -281.0291
   3   2.0000     -10.319850      -280.8174
   4   2.0000     -10.318067      -280.7689
   5   2.0000     -10.308700      -280.5140
   6   2.0000     -10.297988      -280.2225
   7   2.0000     -10.296312      -280.1769
   8   2.0000     -10.294935      -280.1394
   9   2.0000     -10.291457      -280.0448
  10   2.0000     -10.291406      -280.0434
  11   2.0000     -10.290721      -280.0248
  12   2.0000     -10.288060      -279.9524
  13   2.0000     -10.282214      -279.7933
  14   2.0000     -10.278310      -279.6870
  15   2.0000     -10.265324      -279.3337
  16   2.0000      -8.080440      -219.8800
  17   2.0000      -8.078280      -219.8212
  18   2.0000      -6.039007      -164.3297
  19   2.0000      -6.036619      -164.2648
  20   2.0000      -6.035176      -164.2255
  21   2.0000      -6.032637      -164.1564
  22   2.0000      -6.031031      -164.1127
  23   2.0000      -6.029272      -164.0648
  24   2.0000      -1.009427       -27.4679
  25   2.0000      -0.985592       -26.8193
  26   2.0000      -0.909364       -24.7450
  27   2.0000      -0.907027       -24.6815
  28   2.0000      -0.872647       -23.7459
  29   2.0000      -0.854194       -23.2438
  30   2.0000      -0.848982       -23.1020
  31   2.0000      -0.815058       -22.1789
  32   2.0000      -0.781018       -21.2526
  33   2.0000      -0.770822       -20.9751
  34   2.0000      -0.704469       -19.1696
  35   2.0000      -0.700430       -19.0597
  36   2.0000      -0.693066       -18.8593
  37   2.0000      -0.659904       -17.9569
  38   2.0000      -0.644541       -17.5389
  39   2.0000      -0.613968       -16.7069
  40   2.0000      -0.591466       -16.0946
  41   2.0000      -0.576775       -15.6949
  42   2.0000      -0.572441       -15.5769
  43   2.0000      -0.551705       -15.0127
  44   2.0000      -0.543154       -14.7800
  45   2.0000      -0.526946       -14.3389
  46   2.0000      -0.515190       -14.0190
  47   2.0000      -0.512089       -13.9346
  48   2.0000      -0.502878       -13.6840
  49   2.0000      -0.498565       -13.5666
  50   2.0000      -0.487013       -13.2523
  51   2.0000      -0.480700       -13.0805
  52   2.0000      -0.472540       -12.8585
  53   2.0000      -0.463364       -12.6088
  54   2.0000      -0.461097       -12.5471
  55   2.0000      -0.450541       -12.2598
  56   2.0000      -0.439761       -11.9665
  57   2.0000      -0.435933       -11.8624
  58   2.0000      -0.426572       -11.6076
  59   2.0000      -0.424311       -11.5461
  60   2.0000      -0.420623       -11.4457
  61   2.0000      -0.416074       -11.3220
  62   2.0000      -0.405722       -11.0403
  63   2.0000      -0.339636        -9.2420
  64   2.0000      -0.335388        -9.1264
  65   2.0000      -0.325168        -8.8483
  66   2.0000      -0.300886        -8.1875
  67   0.0000       0.036146         0.9836
  68   0.0000       0.057003         1.5511
  69   0.0000       0.116254         3.1634
  70   0.0000       0.123647         3.3646
  71   0.0000       0.129030         3.5111

MULLIKEN ATOMIC CHARGES
-----------------------
   0 S :    0.105316
   1 C :   -0.092610
   2 C :   -0.093137
   3 C :    0.053192
   4 C :   -0.177701
   5 H :    0.010907
   6 C :    0.051133
   7 H :    0.021396
   8 H :    0.023396
   9 C :   -0.054970
  10 H :    0.039005
  11 H :    0.028524
  12 C :   -0.030940
  13 H :    0.040909
  14 H :    0.017452
  15 H :    0.003989
  16 S :    0.113751
  17 C :   -0.125257
  18 C :   -0.036733
  19 C :    0.016358
  20 C :   -0.191715
  21 H :    0.000521
  22 C :    0.068690
  23 H :    0.034416
  24 H :    0.034936
  25 C :   -0.089992
  26 H :    0.028548
  27 H :    0.029297
  28 C :   -0.044337
  29 H :    0.030624
  30 H :    0.038060
  31 H :    0.030727
  32 H :    0.040880
  33 H :    0.075365
Sum of atomic charges:    0.0000000

LOEWDIN ATOMIC CHARGES
----------------------
   0 S :    0.387431
   1 C :   -0.193506
   2 C :   -0.066600
   3 C :   -0.050657
   4 C :   -0.181517
   5 H :    0.031286
   6 C :   -0.038702
   7 H :    0.036395
   8 H :    0.029839
   9 C :   -0.035084
  10 H :    0.024729
  11 H :    0.028879
  12 C :   -0.063076
  13 H :    0.028957
  14 H :    0.017150
  15 H :    0.018549
  16 S :    0.415021
  17 C :   -0.197800
  18 C :   -0.072633
  19 C :   -0.059055
  20 C :   -0.203857
  21 H :    0.022273
  22 C :   -0.015838
  23 H :    0.026138
  24 H :    0.034068
  25 C :   -0.045108
  26 H :    0.025462
  27 H :    0.019432
  28 C :   -0.068568
  29 H :    0.025203
  30 H :    0.028742
  31 H :    0.027502
  32 H :    0.025916
  33 H :    0.039030

  Mayer bond orders larger than 0.100000
B(  0-S ,  1-C ) :   1.1197 B(  0-S ,  4-C ) :   1.1417 B(  1-C ,  2-C ) :   1.6502
B(  1-C , 32-H ) :   0.9641 B(  2-C ,  3-C ) :   1.2183 B(  2-C ,  6-C ) :   1.0169
B(  3-C ,  4-C ) :   1.5849 B(  3-C ,  5-H ) :   0.9994 B(  4-C , 20-C ) :   1.0353
B(  6-C ,  7-H ) :   0.9433 B(  6-C ,  8-H ) :   0.9407 B(  6-C ,  9-C ) :   1.0592
B(  9-C , 10-H ) :   0.9623 B(  9-C , 11-H ) :   0.9558 B(  9-C , 12-C ) :   1.0843
B( 12-C , 13-H ) :   0.9697 B( 12-C , 14-H ) :   0.9718 B( 12-C , 15-H ) :   0.9693
B( 16-S , 17-C ) :   1.1731 B( 16-S , 20-C ) :   1.1490 B( 17-C , 18-C ) :   1.5812
B( 17-C , 20-C ) :   0.1062 B( 17-C , 33-H ) :   0.9648 B( 18-C , 19-C ) :   1.2405
B( 18-C , 21-H ) :   1.0037 B( 19-C , 20-C ) :   1.6084 B( 19-C , 22-C ) :   1.0188
B( 22-C , 23-H ) :   0.9454 B( 22-C , 24-H ) :   0.9309 B( 22-C , 25-C ) :   1.0643
B( 25-C , 26-H ) :   0.9529 B( 25-C , 27-H ) :   0.9572 B( 25-C , 28-C ) :   1.0967
B( 28-C , 29-H ) :   0.9719 B( 28-C , 30-H ) :   0.9718 B( 28-C , 31-H ) :   0.9707

Dispersion correction           -0.014403160
FINAL SINGLE POINT ENERGY     -1339.871785029713

DIPOLE MOMENT
-------------
                                X             Y             Z
Electronic contribution:    -16.06635      15.12523      -1.03197
Nuclear contribution   :     16.52860     -15.36421       0.89374
                        -----------------------------------------
Total Dipole Moment    :      0.46225      -0.23898      -0.13823
                        -----------------------------------------
Magnitude (a.u.)       :      0.53842
Magnitude (Debye)      :      1.36854

Rotational constants in cm-1:     0.017759     0.008626     0.007228
Rotational constants in MHz :   532.395151   258.599928   216.692752

                             ****ORCA TERMINATED NORMALLY****
TOTAL RUN TIME: 0 days 0 hours 0 minutes 20 seconds 390 msec
