                         Program Version 4.2.1 -  RELEASE  -
|  1> ! wB97X-D3 SP def2-SVP
|  2> %pal
|  3> nprocs 24
|  4> end
|  5>
|  6> * xyz 0 1
|  7> S 	 -122.137 	 34.877 	 -112.304
|  8> C 	 -120.36 	 35.0804 	 -112.281
|  9> C 	 -119.746 	 33.8477 	 -112.066
| 10> C 	 -120.696 	 32.7609 	 -112.055
| 11> C 	 -122.007 	 33.122 	 -112.109
| 12> H 	 -120.426 	 31.8324 	 -111.789
| 13> C 	 -118.273 	 33.629 	 -111.755
| 14> H 	 -117.967 	 33.0878 	 -110.835
| 15> H 	 -117.798 	 34.6031 	 -111.601
| 16> C 	 -117.49 	 32.7802 	 -112.834
| 17> H 	 -117.755 	 33.0715 	 -113.883
| 18> H 	 -116.396 	 32.9565 	 -112.663
| 19> C 	 -117.614 	 31.2119 	 -112.587
| 20> H 	 -117.316 	 31.0316 	 -111.568
| 21> H 	 -118.71 	 30.9479 	 -112.781
| 22> H 	 -116.962 	 30.6477 	 -113.231
| 23> S 	 -124.391 	 32.6998 	 -110.726
| 24> C 	 -125.302 	 31.254 	 -111.043
| 25> C 	 -124.68 	 30.4542 	 -111.997
| 26> C 	 -123.406 	 30.9814 	 -112.479
| 27> C 	 -123.114 	 32.2186 	 -111.836
| 28> H 	 -125.09 	 29.4906 	 -112.379
| 29> C 	 -122.631 	 30.4394 	 -113.694
| 30> H 	 -122.757 	 29.3212 	 -113.704
| 31> H 	 -121.548 	 30.6964 	 -113.739
| 32> C 	 -123.312 	 30.8816 	 -115.045
| 33> H 	 -122.575 	 30.6428 	 -115.8
| 34> H 	 -123.397 	 32.0326 	 -114.92
| 35> C 	 -124.634 	 30.3163 	 -115.494
| 36> H 	 -125.394 	 30.4564 	 -114.74
| 37> H 	 -124.391 	 29.3136 	 -115.612
| 38> H 	 -125.011 	 30.7615 	 -116.423
| 39> H 	 -119.707 	 35.9603 	 -112.165
| 40> H 	 -126.097 	 30.8572 	 -110.505
| 41> *
| 42>
| 43>                          ****END OF INPUT****

CARTESIAN COORDINATES (ANGSTROEM)
---------------------------------
  S    -122.137000   34.877000  -112.304000
  C    -120.360000   35.080400  -112.281000
  C    -119.746000   33.847700  -112.066000
  C    -120.696000   32.760900  -112.055000
  C    -122.007000   33.122000  -112.109000
  H    -120.426000   31.832400  -111.789000
  C    -118.273000   33.629000  -111.755000
  H    -117.967000   33.087800  -110.835000
  H    -117.798000   34.603100  -111.601000
  C    -117.490000   32.780200  -112.834000
  H    -117.755000   33.071500  -113.883000
  H    -116.396000   32.956500  -112.663000
  C    -117.614000   31.211900  -112.587000
  H    -117.316000   31.031600  -111.568000
  H    -118.710000   30.947900  -112.781000
  H    -116.962000   30.647700  -113.231000
  S    -124.391000   32.699800  -110.726000
  C    -125.302000   31.254000  -111.043000
  C    -124.680000   30.454200  -111.997000
  C    -123.406000   30.981400  -112.479000
  C    -123.114000   32.218600  -111.836000
  H    -125.090000   29.490600  -112.379000
  C    -122.631000   30.439400  -113.694000
  H    -122.757000   29.321200  -113.704000
  H    -121.548000   30.696400  -113.739000
  C    -123.312000   30.881600  -115.045000
  H    -122.575000   30.642800  -115.800000
  H    -123.397000   32.032600  -114.920000
  C    -124.634000   30.316300  -115.494000
  H    -125.394000   30.456400  -114.740000
  H    -124.391000   29.313600  -115.612000
  H    -125.011000   30.761500  -116.423000
  H    -119.707000   35.960300  -112.165000
  H    -126.097000   30.857200  -110.505000

 Total Charge           Charge          ....    0
 Multiplicity           Mult            ....    1
 Number of Electrons    NEL             ....  134
 Basis Dimension        Dim             ....  322

ORBITAL ENERGIES
----------------

  NO   OCC          E(Eh)            E(eV)
   0   2.0000     -88.972676     -2421.0696
   1   2.0000     -88.970749     -2421.0172
   2   2.0000     -10.333053      -281.1767
   3   2.0000     -10.331830      -281.1434
   4   2.0000     -10.319695      -280.8132
   5   2.0000     -10.316862      -280.7361
   6   2.0000     -10.313563      -280.6463
   7   2.0000     -10.304843      -280.4090
   8   2.0000     -10.304641      -280.4035
   9   2.0000     -10.304042      -280.3872
  10   2.0000     -10.300094      -280.2798
  11   2.0000     -10.298380      -280.2332
  12   2.0000     -10.288083      -279.9530
  13   2.0000     -10.286716      -279.9158
  14   2.0000     -10.283382      -279.8250
  15   2.0000     -10.270391      -279.4716
  16   2.0000      -8.086973      -220.0577
  17   2.0000      -8.084057      -219.9784
  18   2.0000      -6.045522      -164.5070
  19   2.0000      -6.042914      -164.4361
  20   2.0000      -6.041479      -164.3970
  21   2.0000      -6.038791      -164.3238
  22   2.0000      -6.037779      -164.2963
  23   2.0000      -6.034485      -164.2067
  24   2.0000      -1.003231       -27.2993
  25   2.0000      -0.979371       -26.6500
  26   2.0000      -0.905770       -24.6473
  27   2.0000      -0.903289       -24.5797
  28   2.0000      -0.869160       -23.6511
  29   2.0000      -0.849927       -23.1277
  30   2.0000      -0.840244       -22.8642
  31   2.0000      -0.817562       -22.2470
  32   2.0000      -0.785486       -21.3742
  33   2.0000      -0.772192       -21.0124
  34   2.0000      -0.708572       -19.2812
  35   2.0000      -0.691597       -18.8193
  36   2.0000      -0.682610       -18.5748
  37   2.0000      -0.659723       -17.9520
  38   2.0000      -0.640123       -17.4186
  39   2.0000      -0.625735       -17.0271
  40   2.0000      -0.594288       -16.1714
  41   2.0000      -0.575044       -15.6478
  42   2.0000      -0.558443       -15.1960
  43   2.0000      -0.545728       -14.8500
  44   2.0000      -0.540142       -14.6980
  45   2.0000      -0.532766       -14.4973
  46   2.0000      -0.518361       -14.1053
  47   2.0000      -0.506257       -13.7759
  48   2.0000      -0.500091       -13.6082
  49   2.0000      -0.498514       -13.5653
  50   2.0000      -0.488851       -13.3023
  51   2.0000      -0.485663       -13.2156
  52   2.0000      -0.473512       -12.8849
  53   2.0000      -0.464789       -12.6476
  54   2.0000      -0.458876       -12.4867
  55   2.0000      -0.446520       -12.1504
  56   2.0000      -0.443322       -12.0634
  57   2.0000      -0.437384       -11.9018
  58   2.0000      -0.435463       -11.8495
  59   2.0000      -0.425852       -11.5880
  60   2.0000      -0.420501       -11.4424
  61   2.0000      -0.409609       -11.1460
  62   2.0000      -0.404345       -11.0028
  63   2.0000      -0.352264        -9.5856
  64   2.0000      -0.332459        -9.0467
  65   2.0000      -0.329145        -8.9565
  66   2.0000      -0.290149        -7.8954
  67   0.0000       0.023256         0.6328
  68   0.0000       0.067227         1.8293
  69   0.0000       0.109795         2.9877
  70   0.0000       0.117995         3.2108
  71   0.0000       0.123395         3.3577

MULLIKEN ATOMIC CHARGES
-----------------------
   0 S :    0.107156
   1 C :   -0.112747
   2 C :   -0.089014
   3 C :    0.072073
   4 C :   -0.123094
   5 H :   -0.033969
   6 C :    0.049101
   7 H :    0.033976
   8 H :    0.016455
   9 C :   -0.122975
  10 H :    0.047566
  11 H :    0.036593
  12 C :   -0.068006
  13 H :    0.028562
  14 H :    0.049604
  15 H :    0.039171
  16 S :    0.124843
  17 C :   -0.061461
  18 C :   -0.056636
  19 C :   -0.042686
  20 C :   -0.171826
  21 H :    0.036354
  22 C :    0.038905
  23 H :    0.025341
  24 H :    0.048170
  25 C :   -0.123771
  26 H :    0.029724
  27 H :    0.041712
  28 C :   -0.001814
  29 H :    0.032435
  30 H :    0.011397
  31 H :    0.043611
  32 H :    0.055401
  33 H :    0.039847
Sum of atomic charges:    0.0000000

LOEWDIN ATOMIC CHARGES
----------------------
   0 S :    0.383012
   1 C :   -0.199020
   2 C :   -0.055989
   3 C :   -0.053535
   4 C :   -0.180324
   5 H :    0.007022
   6 C :   -0.038267
   7 H :    0.035836
   8 H :    0.028544
   9 C :   -0.043297
  10 H :    0.025609
  11 H :    0.026678
  12 C :   -0.067741
  13 H :    0.020240
  14 H :    0.030459
  15 H :    0.023593
  16 S :    0.416950
  17 C :   -0.187603
  18 C :   -0.071160
  19 C :   -0.052115
  20 C :   -0.198140
  21 H :    0.036033
  22 C :   -0.036990
  23 H :    0.030649
  24 H :    0.037757
  25 C :   -0.042838
  26 H :    0.020933
  27 H :    0.029927
  28 C :   -0.060636
  29 H :    0.023733
  30 H :    0.015758
  31 H :    0.034853
  32 H :    0.038932
  33 H :    0.021138

  Mayer bond orders larger than 0.100000
B(  0-S ,  1-C ) :   1.1131 B(  0-S ,  4-C ) :   1.1216 B(  1-C ,  2-C ) :   1.6451
B(  1-C , 32-H ) :   0.9561 B(  2-C ,  3-C ) :   1.2222 B(  2-C ,  6-C ) :   1.0360
B(  3-C ,  4-C ) :   1.5948 B(  3-C ,  5-H ) :   0.9983 B(  4-C , 20-C ) :   1.0658
B(  6-C ,  7-H ) :   0.9460 B(  6-C ,  8-H ) :   0.9405 B(  6-C ,  9-C ) :   1.0466
B(  9-C , 10-H ) :   0.9613 B(  9-C , 11-H ) :   0.9590 B(  9-C , 12-C ) :   1.0652
B( 12-C , 13-H ) :   0.9746 B( 12-C , 14-H ) :   0.9738 B( 12-C , 15-H ) :   0.9748
B( 16-S , 17-C ) :   1.1507 B( 16-S , 20-C ) :   1.1455 B( 17-C , 18-C ) :   1.6010
B( 17-C , 33-H ) :   0.9729 B( 18-C , 19-C ) :   1.2617 B( 18-C , 21-H ) :   0.9736
B( 19-C , 20-C ) :   1.5565 B( 19-C , 22-C ) :   1.0527 B( 22-C , 23-H ) :   0.9325
B( 22-C , 24-H ) :   0.9355 B( 22-C , 25-C ) :   1.0566 B( 25-C , 26-H ) :   0.9589
B( 25-C , 27-H ) :   0.9552 B( 25-C , 28-C ) :   1.0792 B( 28-C , 29-H ) :   0.9702
B( 28-C , 30-H ) :   0.9728 B( 28-C , 31-H ) :   0.9688

Dispersion correction           -0.014855885
FINAL SINGLE POINT ENERGY     -1339.860941014116

DIPOLE MOMENT
-------------
                                X             Y             Z
Electronic contribution:    -15.83260      15.29618      13.99752
Nuclear contribution   :     16.23676     -15.81412     -14.07504
                        -----------------------------------------
Total Dipole Moment    :      0.40416      -0.51794      -0.07752
                        -----------------------------------------
Magnitude (a.u.)       :      0.66152
Magnitude (Debye)      :      1.68146

Rotational constants in cm-1:     0.018374     0.008903     0.007301
Rotational constants in MHz :   550.851376   266.917724   218.885759

                             ****ORCA TERMINATED NORMALLY****
TOTAL RUN TIME: 0 days 0 hours 0 minutes 21 seconds 10 msec
