                         Program Version 4.2.1 -  RELEASE  -
|  1> ! wB97X-D3 SP def2-SVP
|  2> %pal
|  3> nprocs 24
|  4> end
|  5>
|  6> * xyz 0 1
|  7> S 	 -122.57 	 30.7951 	 -114.062
|  8> C 	 -120.965 	 30.7821 	 -114.662
|  9> C 	 -120.143 	 31.5006 	 -113.779
| 10> C 	 -120.893 	 32.0967 	 -112.752
| 11> C 	 -122.222 	 31.7161 	 -112.69
| 12> H 	 -120.571 	 32.8991 	 -112.032
| 13> C 	 -118.658 	 31.7128 	 -114.058
| 14> H 	 -118.49 	 32.753 	 -113.72
| 15> H 	 -118.426 	 31.6068 	 -115.149
| 16> C 	 -117.685 	 30.8209 	 -113.353
| 17> H 	 -117.724 	 29.7431 	 -113.671
| 18> H 	 -116.724 	 31.2796 	 -113.55
| 19> C 	 -117.958 	 30.7485 	 -111.909
| 20> H 	 -118.228 	 31.7049 	 -111.444
| 21> H 	 -118.853 	 30.1568 	 -111.634
| 22> H 	 -117.152 	 30.3323 	 -111.373
| 23> S 	 -124.556 	 33.2154 	 -112.675
| 24> C 	 -125.1 	 34.0251 	 -111.261
| 25> C 	 -124.321 	 33.6361 	 -110.191
| 26> C 	 -123.239 	 32.8226 	 -110.525
| 27> C 	 -123.228 	 32.4885 	 -111.887
| 28> H 	 -124.557 	 34.1642 	 -109.316
| 29> C 	 -122.071 	 32.5548 	 -109.44
| 30> H 	 -122.304 	 33.0181 	 -108.377
| 31> H 	 -121.187 	 33.0312 	 -109.855
| 32> C 	 -121.647 	 31.0904 	 -109.209
| 33> H 	 -120.897 	 30.9817 	 -108.448
| 34> H 	 -121.232 	 30.7098 	 -110.163
| 35> C 	 -122.779 	 30.2056 	 -108.71
| 36> H 	 -122.561 	 29.1273 	 -108.78
| 37> H 	 -123.66 	 30.3109 	 -109.419
| 38> H 	 -123.187 	 30.3374 	 -107.704
| 39> H 	 -120.501 	 30.2967 	 -115.503
| 40> H 	 -125.846 	 34.7274 	 -111.079
| 41> *
| 42>
| 43>                          ****END OF INPUT****

CARTESIAN COORDINATES (ANGSTROEM)
---------------------------------
  S    -122.570000   30.795100  -114.062000
  C    -120.965000   30.782100  -114.662000
  C    -120.143000   31.500600  -113.779000
  C    -120.893000   32.096700  -112.752000
  C    -122.222000   31.716100  -112.690000
  H    -120.571000   32.899100  -112.032000
  C    -118.658000   31.712800  -114.058000
  H    -118.490000   32.753000  -113.720000
  H    -118.426000   31.606800  -115.149000
  C    -117.685000   30.820900  -113.353000
  H    -117.724000   29.743100  -113.671000
  H    -116.724000   31.279600  -113.550000
  C    -117.958000   30.748500  -111.909000
  H    -118.228000   31.704900  -111.444000
  H    -118.853000   30.156800  -111.634000
  H    -117.152000   30.332300  -111.373000
  S    -124.556000   33.215400  -112.675000
  C    -125.100000   34.025100  -111.261000
  C    -124.321000   33.636100  -110.191000
  C    -123.239000   32.822600  -110.525000
  C    -123.228000   32.488500  -111.887000
  H    -124.557000   34.164200  -109.316000
  C    -122.071000   32.554800  -109.440000
  H    -122.304000   33.018100  -108.377000
  H    -121.187000   33.031200  -109.855000
  C    -121.647000   31.090400  -109.209000
  H    -120.897000   30.981700  -108.448000
  H    -121.232000   30.709800  -110.163000
  C    -122.779000   30.205600  -108.710000
  H    -122.561000   29.127300  -108.780000
  H    -123.660000   30.310900  -109.419000
  H    -123.187000   30.337400  -107.704000
  H    -120.501000   30.296700  -115.503000
  H    -125.846000   34.727400  -111.079000

 Total Charge           Charge          ....    0
 Multiplicity           Mult            ....    1
 Number of Electrons    NEL             ....  134
 Basis Dimension        Dim             ....  322

ORBITAL ENERGIES
----------------

  NO   OCC          E(Eh)            E(eV)
   0   2.0000     -88.972487     -2421.0644
   1   2.0000     -88.969795     -2420.9912
   2   2.0000     -10.332074      -281.1500
   3   2.0000     -10.329175      -281.0711
   4   2.0000     -10.314732      -280.6781
   5   2.0000     -10.308504      -280.5087
   6   2.0000     -10.308135      -280.4986
   7   2.0000     -10.307326      -280.4766
   8   2.0000     -10.301517      -280.3185
   9   2.0000     -10.297156      -280.1999
  10   2.0000     -10.295572      -280.1568
  11   2.0000     -10.284577      -279.8576
  12   2.0000     -10.283648      -279.8323
  13   2.0000     -10.282516      -279.8015
  14   2.0000     -10.272340      -279.5246
  15   2.0000     -10.267999      -279.4065
  16   2.0000      -8.088208      -220.0913
  17   2.0000      -8.085303      -220.0123
  18   2.0000      -6.046549      -164.5350
  19   2.0000      -6.043662      -164.4564
  20   2.0000      -6.042334      -164.4203
  21   2.0000      -6.039480      -164.3426
  22   2.0000      -6.039303      -164.3378
  23   2.0000      -6.036382      -164.2583
  24   2.0000      -1.019280       -27.7360
  25   2.0000      -0.997867       -27.1533
  26   2.0000      -0.924315       -25.1519
  27   2.0000      -0.899177       -24.4679
  28   2.0000      -0.873554       -23.7706
  29   2.0000      -0.852008       -23.1843
  30   2.0000      -0.846432       -23.0326
  31   2.0000      -0.818606       -22.2754
  32   2.0000      -0.785269       -21.3683
  33   2.0000      -0.773294       -21.0424
  34   2.0000      -0.707682       -19.2570
  35   2.0000      -0.699452       -19.0330
  36   2.0000      -0.682675       -18.5765
  37   2.0000      -0.661531       -18.0012
  38   2.0000      -0.639171       -17.3927
  39   2.0000      -0.620082       -16.8733
  40   2.0000      -0.586543       -15.9606
  41   2.0000      -0.580776       -15.8037
  42   2.0000      -0.558333       -15.1930
  43   2.0000      -0.553699       -15.0669
  44   2.0000      -0.551085       -14.9958
  45   2.0000      -0.540834       -14.7169
  46   2.0000      -0.520056       -14.1515
  47   2.0000      -0.514306       -13.9950
  48   2.0000      -0.509225       -13.8567
  49   2.0000      -0.497155       -13.5283
  50   2.0000      -0.485096       -13.2001
  51   2.0000      -0.483785       -13.1645
  52   2.0000      -0.474504       -12.9119
  53   2.0000      -0.460808       -12.5392
  54   2.0000      -0.459492       -12.5034
  55   2.0000      -0.440572       -11.9886
  56   2.0000      -0.437343       -11.9007
  57   2.0000      -0.434499       -11.8233
  58   2.0000      -0.433070       -11.7844
  59   2.0000      -0.426456       -11.6045
  60   2.0000      -0.415312       -11.3012
  61   2.0000      -0.408272       -11.1096
  62   2.0000      -0.406871       -11.0715
  63   2.0000      -0.352987        -9.6053
  64   2.0000      -0.335892        -9.1401
  65   2.0000      -0.332668        -9.0524
  66   2.0000      -0.293456        -7.9854
  67   0.0000       0.030282         0.8240
  68   0.0000       0.072431         1.9709
  69   0.0000       0.114840         3.1249
  70   0.0000       0.125197         3.4068
  71   0.0000       0.130418         3.5488

MULLIKEN ATOMIC CHARGES
-----------------------
   0 S :    0.126279
   1 C :   -0.098821
   2 C :   -0.107433
   3 C :   -0.020681
   4 C :   -0.127374
   5 H :    0.038675
   6 C :    0.036646
   7 H :    0.032705
   8 H :    0.031878
   9 C :   -0.032719
  10 H :    0.035026
  11 H :    0.030016
  12 C :   -0.055524
  13 H :    0.007029
  14 H :    0.043517
  15 H :    0.024140
  16 S :    0.132973
  17 C :   -0.076179
  18 C :   -0.044233
  19 C :   -0.014152
  20 C :   -0.160083
  21 H :   -0.001281
  22 C :    0.026191
  23 H :    0.046457
  24 H :    0.034782
  25 C :   -0.056597
  26 H :    0.026276
  27 H :    0.043130
  28 C :   -0.090655
  29 H :    0.030510
  30 H :    0.037275
  31 H :    0.031254
  32 H :    0.042684
  33 H :    0.028290
Sum of atomic charges:    0.0000000

LOEWDIN ATOMIC CHARGES
----------------------
   0 S :    0.459195
   1 C :   -0.210859
   2 C :   -0.068277
   3 C :   -0.072372
   4 C :   -0.225171
   5 H :    0.038506
   6 C :   -0.033702
   7 H :    0.034852
   8 H :    0.034623
   9 C :   -0.045590
  10 H :    0.032535
  11 H :    0.026718
  12 C :   -0.069523
  13 H :    0.018342
  14 H :    0.031015
  15 H :    0.019773
  16 S :    0.448990
  17 C :   -0.194651
  18 C :   -0.069337
  19 C :   -0.061773
  20 C :   -0.210932
  21 H :    0.024559
  22 C :   -0.028898
  23 H :    0.041500
  24 H :    0.025817
  25 C :   -0.048262
  26 H :    0.022561
  27 H :    0.028004
  28 C :   -0.080243
  29 H :    0.026542
  30 H :    0.029952
  31 H :    0.022159
  32 H :    0.031971
  33 H :    0.021976

  Mayer bond orders larger than 0.100000
B(  0-S ,  1-C ) :   1.1696 B(  0-S ,  4-C ) :   1.1871 B(  1-C ,  2-C ) :   1.5531
B(  1-C , 32-H ) :   0.9696 B(  2-C ,  3-C ) :   1.3059 B(  2-C ,  6-C ) :   1.0142
B(  3-C ,  4-C ) :   1.5154 B(  3-C ,  5-H ) :   0.9765 B(  4-C , 20-C ) :   1.0133
B(  6-C ,  7-H ) :   0.9392 B(  6-C ,  8-H ) :   0.9450 B(  6-C ,  9-C ) :   1.0865
B(  9-C , 10-H ) :   0.9473 B(  9-C , 11-H ) :   0.9509 B(  9-C , 12-C ) :   1.0971
B( 12-C , 13-H ) :   0.9708 B( 12-C , 14-H ) :   0.9616 B( 12-C , 15-H ) :   0.9681
B( 16-S , 17-C ) :   1.1708 B( 16-S , 20-C ) :   1.1785 B( 17-C , 18-C ) :   1.5930
B( 17-C , 20-C ) :   0.1035 B( 17-C , 33-H ) :   0.9732 B( 18-C , 19-C ) :   1.2855
B( 18-C , 21-H ) :   0.9986 B( 19-C , 20-C ) :   1.5523 B( 19-C , 22-C ) :   0.9996
B( 22-C , 23-H ) :   0.9503 B( 22-C , 24-H ) :   0.9413 B( 22-C , 25-C ) :   1.0727
B( 25-C , 26-H ) :   0.9554 B( 25-C , 27-H ) :   0.9470 B( 25-C , 28-C ) :   1.0768
B( 28-C , 29-H ) :   0.9742 B( 28-C , 30-H ) :   0.9722 B( 28-C , 31-H ) :   0.9764

Dispersion correction           -0.015643806
FINAL SINGLE POINT ENERGY     -1339.862179579682

DIPOLE MOMENT
-------------
                                X             Y             Z
Electronic contribution:    -21.34943       6.47399     -15.77001
Nuclear contribution   :     21.90527      -6.24759      15.95904
                        -----------------------------------------
Total Dipole Moment    :      0.55584       0.22640       0.18903
                        -----------------------------------------
Magnitude (a.u.)       :      0.62925
Magnitude (Debye)      :      1.59942

Rotational constants in cm-1:     0.019313     0.009837     0.007603
Rotational constants in MHz :   578.992421   294.906541   227.924146

                             ****ORCA TERMINATED NORMALLY****
TOTAL RUN TIME: 0 days 0 hours 0 minutes 22 seconds 940 msec
