                         Program Version 4.2.1 -  RELEASE  -
|  1> ! wB97X-D3 SP def2-SVP
|  2> %pal
|  3> nprocs 24
|  4> end
|  5>
|  6> * xyz 0 1
|  7> S 	 -99.8126 	 66.2594 	 -6.98547
|  8> C 	 -99.3193 	 65.1318 	 -5.69371
|  9> C 	 -100.124 	 64.0375 	 -5.6602
| 10> C 	 -101.048 	 64.0225 	 -6.75142
| 11> C 	 -100.953 	 65.154 	 -7.5849
| 12> H 	 -101.755 	 63.2271 	 -6.95275
| 13> C 	 -100.14 	 62.9553 	 -4.59533
| 14> H 	 -99.1331 	 62.714 	 -4.64553
| 15> H 	 -100.937 	 62.2524 	 -4.86323
| 16> C 	 -100.373 	 63.4807 	 -3.16724
| 17> H 	 -99.5498 	 64.1604 	 -2.84588
| 18> H 	 -101.166 	 64.2257 	 -3.17681
| 19> C 	 -100.615 	 62.3514 	 -2.25529
| 20> H 	 -101.548 	 61.9127 	 -2.48325
| 21> H 	 -99.8272 	 61.6042 	 -2.12164
| 22> H 	 -100.662 	 62.578 	 -1.23185
| 23> S 	 -100.462 	 65.8731 	 -10.2585
| 24> C 	 -101.833 	 65.8249 	 -11.3623
| 25> C 	 -103.002 	 65.7317 	 -10.7015
| 26> C 	 -102.854 	 65.3552 	 -9.28017
| 27> C 	 -101.538 	 65.3613 	 -8.907
| 28> H 	 -103.866 	 65.6873 	 -11.3845
| 29> C 	 -104.063 	 65.0706 	 -8.4059
| 30> H 	 -103.862 	 64.3141 	 -7.72476
| 31> H 	 -104.751 	 64.6025 	 -9.0389
| 32> C 	 -104.682 	 66.3432 	 -7.78114
| 33> H 	 -105.651 	 66.1516 	 -7.35108
| 34> H 	 -104.817 	 67.0909 	 -8.57101
| 35> C 	 -103.891 	 67.0076 	 -6.66554
| 36> H 	 -104.313 	 67.9221 	 -6.24921
| 37> H 	 -102.906 	 67.3597 	 -6.89507
| 38> H 	 -103.917 	 66.3751 	 -5.79647
| 39> H 	 -98.6963 	 65.5092 	 -4.82577
| 40> H 	 -101.813 	 65.9914 	 -12.4323
| 41> *
| 42>
| 43>                          ****END OF INPUT****

CARTESIAN COORDINATES (ANGSTROEM)
---------------------------------
  S    -99.812600   66.259400   -6.985470
  C    -99.319300   65.131800   -5.693710
  C    -100.124000   64.037500   -5.660200
  C    -101.048000   64.022500   -6.751420
  C    -100.953000   65.154000   -7.584900
  H    -101.755000   63.227100   -6.952750
  C    -100.140000   62.955300   -4.595330
  H    -99.133100   62.714000   -4.645530
  H    -100.937000   62.252400   -4.863230
  C    -100.373000   63.480700   -3.167240
  H    -99.549800   64.160400   -2.845880
  H    -101.166000   64.225700   -3.176810
  C    -100.615000   62.351400   -2.255290
  H    -101.548000   61.912700   -2.483250
  H    -99.827200   61.604200   -2.121640
  H    -100.662000   62.578000   -1.231850
  S    -100.462000   65.873100  -10.258500
  C    -101.833000   65.824900  -11.362300
  C    -103.002000   65.731700  -10.701500
  C    -102.854000   65.355200   -9.280170
  C    -101.538000   65.361300   -8.907000
  H    -103.866000   65.687300  -11.384500
  C    -104.063000   65.070600   -8.405900
  H    -103.862000   64.314100   -7.724760
  H    -104.751000   64.602500   -9.038900
  C    -104.682000   66.343200   -7.781140
  H    -105.651000   66.151600   -7.351080
  H    -104.817000   67.090900   -8.571010
  C    -103.891000   67.007600   -6.665540
  H    -104.313000   67.922100   -6.249210
  H    -102.906000   67.359700   -6.895070
  H    -103.917000   66.375100   -5.796470
  H    -98.696300   65.509200   -4.825770
  H    -101.813000   65.991400  -12.432300

 Total Charge           Charge          ....    0
 Multiplicity           Mult            ....    1
 Number of Electrons    NEL             ....  134
 Basis Dimension        Dim             ....  322

ORBITAL ENERGIES
----------------

  NO   OCC          E(Eh)            E(eV)
   0   2.0000     -88.964952     -2420.8594
   1   2.0000     -88.961792     -2420.7734
   2   2.0000     -10.328162      -281.0436
   3   2.0000     -10.327969      -281.0383
   4   2.0000     -10.314445      -280.6703
   5   2.0000     -10.313242      -280.6376
   6   2.0000     -10.306971      -280.4669
   7   2.0000     -10.298380      -280.2332
   8   2.0000     -10.294232      -280.1203
   9   2.0000     -10.293205      -280.0923
  10   2.0000     -10.288066      -279.9525
  11   2.0000     -10.287011      -279.9238
  12   2.0000     -10.285027      -279.8698
  13   2.0000     -10.284328      -279.8508
  14   2.0000     -10.269525      -279.4480
  15   2.0000     -10.264637      -279.3150
  16   2.0000      -8.079987      -219.8676
  17   2.0000      -8.075897      -219.7563
  18   2.0000      -6.038453      -164.3147
  19   2.0000      -6.034689      -164.2122
  20   2.0000      -6.034408      -164.2046
  21   2.0000      -6.030805      -164.1066
  22   2.0000      -6.030669      -164.1029
  23   2.0000      -6.026197      -163.9811
  24   2.0000      -1.005762       -27.3682
  25   2.0000      -0.981509       -26.7082
  26   2.0000      -0.921700       -25.0807
  27   2.0000      -0.907716       -24.7002
  28   2.0000      -0.874077       -23.7849
  29   2.0000      -0.850946       -23.1554
  30   2.0000      -0.841654       -22.9026
  31   2.0000      -0.814162       -22.1545
  32   2.0000      -0.789896       -21.4942
  33   2.0000      -0.777967       -21.1696
  34   2.0000      -0.710781       -19.3413
  35   2.0000      -0.705348       -19.1935
  36   2.0000      -0.694686       -18.9034
  37   2.0000      -0.654622       -17.8132
  38   2.0000      -0.632968       -17.2239
  39   2.0000      -0.618138       -16.8204
  40   2.0000      -0.596736       -16.2380
  41   2.0000      -0.585292       -15.9266
  42   2.0000      -0.562650       -15.3105
  43   2.0000      -0.549381       -14.9494
  44   2.0000      -0.545421       -14.8417
  45   2.0000      -0.523303       -14.2398
  46   2.0000      -0.522058       -14.2059
  47   2.0000      -0.513509       -13.9733
  48   2.0000      -0.506053       -13.7704
  49   2.0000      -0.495690       -13.4884
  50   2.0000      -0.491220       -13.3668
  51   2.0000      -0.478505       -13.0208
  52   2.0000      -0.475068       -12.9273
  53   2.0000      -0.462484       -12.5848
  54   2.0000      -0.457928       -12.4608
  55   2.0000      -0.450616       -12.2619
  56   2.0000      -0.440036       -11.9740
  57   2.0000      -0.437579       -11.9071
  58   2.0000      -0.427678       -11.6377
  59   2.0000      -0.420784       -11.4501
  60   2.0000      -0.419045       -11.4028
  61   2.0000      -0.416215       -11.3258
  62   2.0000      -0.412270       -11.2184
  63   2.0000      -0.349134        -9.5004
  64   2.0000      -0.330970        -9.0062
  65   2.0000      -0.326456        -8.8833
  66   2.0000      -0.292229        -7.9519
  67   0.0000       0.032327         0.8797
  68   0.0000       0.066959         1.8221
  69   0.0000       0.106503         2.8981
  70   0.0000       0.126856         3.4519
  71   0.0000       0.134191         3.6515

MULLIKEN ATOMIC CHARGES
-----------------------
   0 S :    0.105318
   1 C :   -0.169978
   2 C :   -0.104166
   3 C :    0.025020
   4 C :   -0.161424
   5 H :    0.009807
   6 C :    0.132480
   7 H :    0.028049
   8 H :    0.026679
   9 C :   -0.095063
  10 H :    0.020169
  11 H :    0.024836
  12 C :    0.007352
  13 H :    0.021657
  14 H :    0.023585
  15 H :    0.007126
  16 S :    0.094201
  17 C :   -0.095072
  18 C :   -0.032714
  19 C :   -0.085204
  20 C :   -0.133204
  21 H :    0.029469
  22 C :    0.180598
  23 H :   -0.011416
  24 H :   -0.000203
  25 C :   -0.054574
  26 H :    0.024488
  27 H :    0.025973
  28 C :   -0.029938
  29 H :    0.015811
  30 H :    0.024889
  31 H :    0.017203
  32 H :    0.071723
  33 H :    0.056522
Sum of atomic charges:    0.0000000

LOEWDIN ATOMIC CHARGES
----------------------
   0 S :    0.417524
   1 C :   -0.211186
   2 C :   -0.058621
   3 C :   -0.071397
   4 C :   -0.198909
   5 H :    0.026393
   6 C :   -0.018267
   7 H :    0.032487
   8 H :    0.033846
   9 C :   -0.043547
  10 H :    0.024291
  11 H :    0.023812
  12 C :   -0.066775
  13 H :    0.022959
  14 H :    0.031325
  15 H :    0.022759
  16 S :    0.364799
  17 C :   -0.174717
  18 C :   -0.078008
  19 C :   -0.047163
  20 C :   -0.182161
  21 H :    0.036746
  22 C :   -0.019461
  23 H :    0.019414
  24 H :    0.026885
  25 C :   -0.031073
  26 H :    0.023489
  27 H :    0.025465
  28 C :   -0.067693
  29 H :    0.026853
  30 H :    0.018377
  31 H :    0.021534
  32 H :    0.037484
  33 H :    0.032539

  Mayer bond orders larger than 0.100000
B(  0-S ,  1-C ) :   1.1175 B(  0-S ,  4-C ) :   1.1829 B(  1-C ,  2-C ) :   1.6143
B(  1-C , 32-H ) :   0.9597 B(  2-C ,  3-C ) :   1.2625 B(  2-C ,  6-C ) :   0.9946
B(  3-C ,  4-C ) :   1.5452 B(  3-C ,  5-H ) :   0.9905 B(  4-C , 20-C ) :   1.0369
B(  6-C ,  7-H ) :   0.9230 B(  6-C ,  8-H ) :   0.9494 B(  6-C ,  9-C ) :   1.0674
B(  9-C , 10-H ) :   0.9473 B(  9-C , 11-H ) :   0.9578 B(  9-C , 12-C ) :   1.0973
B( 12-C , 13-H ) :   0.9710 B( 12-C , 14-H ) :   0.9672 B( 12-C , 15-H ) :   0.9631
B( 16-S , 17-C ) :   1.1204 B( 16-S , 20-C ) :   1.1037 B( 17-C , 18-C ) :   1.7052
B( 17-C , 33-H ) :   0.9621 B( 18-C , 19-C ) :   1.1700 B( 18-C , 21-H ) :   0.9762
B( 19-C , 20-C ) :   1.6593 B( 19-C , 22-C ) :   1.0393 B( 22-C , 23-H ) :   0.9260
B( 22-C , 24-H ) :   0.9164 B( 22-C , 25-C ) :   1.0706 B( 25-C , 26-H ) :   0.9544
B( 25-C , 27-H ) :   0.9558 B( 25-C , 28-C ) :   1.0886 B( 28-C , 29-H ) :   0.9682
B( 28-C , 30-H ) :   0.9714 B( 28-C , 31-H ) :   0.9735

Dispersion correction           -0.014907150
FINAL SINGLE POINT ENERGY     -1339.859356494224

DIPOLE MOMENT
-------------
                                X             Y             Z
Electronic contribution:     13.21001       8.09162     -22.48349
Nuclear contribution   :    -13.77157      -8.40545      22.89272
                        -----------------------------------------
Total Dipole Moment    :     -0.56156      -0.31383       0.40922
                        -----------------------------------------
Magnitude (a.u.)       :      0.76243
Magnitude (Debye)      :      1.93795

Rotational constants in cm-1:     0.022726     0.007996     0.006850
Rotational constants in MHz :   681.312644   239.711325   205.369157

                             ****ORCA TERMINATED NORMALLY****
TOTAL RUN TIME: 0 days 0 hours 0 minutes 22 seconds 140 msec
