                         Program Version 4.2.1 -  RELEASE  -
|  1> ! wB97X-D3 SP def2-SVP
|  2> %pal
|  3> nprocs 24
|  4> end
|  5>
|  6> * xyz 0 1
|  7> S 	 -94.7353 	 -26.2568 	 -63.5628
|  8> C 	 -94.191 	 -24.7929 	 -64.1835
|  9> C 	 -94.858 	 -23.6804 	 -63.6173
| 10> C 	 -95.7833 	 -24.1074 	 -62.6159
| 11> C 	 -95.895 	 -25.4709 	 -62.5118
| 12> H 	 -96.3354 	 -23.462 	 -61.9182
| 13> C 	 -94.7272 	 -22.1575 	 -63.9792
| 14> H 	 -95.0994 	 -22.0506 	 -65.0068
| 15> H 	 -93.7001 	 -21.8488 	 -63.9482
| 16> C 	 -95.5862 	 -21.1277 	 -63.3007
| 17> H 	 -96.6565 	 -21.4359 	 -63.2602
| 18> H 	 -95.1862 	 -21.0856 	 -62.2844
| 19> C 	 -95.2731 	 -19.763 	 -63.995
| 20> H 	 -94.9115 	 -19.7874 	 -65.0083
| 21> H 	 -96.1165 	 -19.2599 	 -64.1383
| 22> H 	 -94.7056 	 -19.1421 	 -63.3898
| 23> S 	 -95.9675 	 -27.69 	 -60.9421
| 24> C 	 -97.4608 	 -28.0467 	 -60.0854
| 25> C 	 -98.4411 	 -27.0797 	 -60.1353
| 26> C 	 -98.0003 	 -26.0138 	 -61.0518
| 27> C 	 -96.7146 	 -26.2088 	 -61.5654
| 28> H 	 -99.3579 	 -27.2272 	 -59.6059
| 29> C 	 -98.9648 	 -24.9228 	 -61.4495
| 30> H 	 -99.9406 	 -25.3375 	 -61.468
| 31> H 	 -98.6776 	 -24.5662 	 -62.4627
| 32> C 	 -99.1929 	 -23.8152 	 -60.3754
| 33> H 	 -98.2469 	 -23.2234 	 -60.434
| 34> H 	 -99.2679 	 -24.1043 	 -59.3012
| 35> C 	 -100.274 	 -22.817 	 -60.6657
| 36> H 	 -101.193 	 -23.3108 	 -60.9042
| 37> H 	 -100.047 	 -22.3599 	 -61.6563
| 38> H 	 -100.402 	 -22.1611 	 -59.8693
| 39> H 	 -93.6629 	 -24.6659 	 -65.0436
| 40> H 	 -97.6556 	 -28.9439 	 -59.558
| 41> *
| 42>
| 43>                          ****END OF INPUT****

CARTESIAN COORDINATES (ANGSTROEM)
---------------------------------
  S    -94.735300  -26.256800  -63.562800
  C    -94.191000  -24.792900  -64.183500
  C    -94.858000  -23.680400  -63.617300
  C    -95.783300  -24.107400  -62.615900
  C    -95.895000  -25.470900  -62.511800
  H    -96.335400  -23.462000  -61.918200
  C    -94.727200  -22.157500  -63.979200
  H    -95.099400  -22.050600  -65.006800
  H    -93.700100  -21.848800  -63.948200
  C    -95.586200  -21.127700  -63.300700
  H    -96.656500  -21.435900  -63.260200
  H    -95.186200  -21.085600  -62.284400
  C    -95.273100  -19.763000  -63.995000
  H    -94.911500  -19.787400  -65.008300
  H    -96.116500  -19.259900  -64.138300
  H    -94.705600  -19.142100  -63.389800
  S    -95.967500  -27.690000  -60.942100
  C    -97.460800  -28.046700  -60.085400
  C    -98.441100  -27.079700  -60.135300
  C    -98.000300  -26.013800  -61.051800
  C    -96.714600  -26.208800  -61.565400
  H    -99.357900  -27.227200  -59.605900
  C    -98.964800  -24.922800  -61.449500
  H    -99.940600  -25.337500  -61.468000
  H    -98.677600  -24.566200  -62.462700
  C    -99.192900  -23.815200  -60.375400
  H    -98.246900  -23.223400  -60.434000
  H    -99.267900  -24.104300  -59.301200
  C    -100.274000  -22.817000  -60.665700
  H    -101.193000  -23.310800  -60.904200
  H    -100.047000  -22.359900  -61.656300
  H    -100.402000  -22.161100  -59.869300
  H    -93.662900  -24.665900  -65.043600
  H    -97.655600  -28.943900  -59.558000

 Total Charge           Charge          ....    0
 Multiplicity           Mult            ....    1
 Number of Electrons    NEL             ....  134
 Basis Dimension        Dim             ....  322

ORBITAL ENERGIES
----------------

  NO   OCC          E(Eh)            E(eV)
   0   2.0000     -88.968856     -2420.9657
   1   2.0000     -88.965021     -2420.8613
   2   2.0000     -10.328286      -281.0470
   3   2.0000     -10.326407      -280.9958
   4   2.0000     -10.313304      -280.6393
   5   2.0000     -10.308709      -280.5142
   6   2.0000     -10.305140      -280.4171
   7   2.0000     -10.304798      -280.4078
   8   2.0000     -10.296337      -280.1776
   9   2.0000     -10.292373      -280.0697
  10   2.0000     -10.292086      -280.0619
  11   2.0000     -10.291706      -280.0516
  12   2.0000     -10.291374      -280.0425
  13   2.0000     -10.289070      -279.9798
  14   2.0000     -10.272484      -279.5285
  15   2.0000     -10.265490      -279.3382
  16   2.0000      -8.084461      -219.9894
  17   2.0000      -8.079418      -219.8521
  18   2.0000      -6.042872      -164.4349
  19   2.0000      -6.038707      -164.3216
  20   2.0000      -6.037983      -164.3019
  21   2.0000      -6.035430      -164.2324
  22   2.0000      -6.034177      -164.1983
  23   2.0000      -6.029940      -164.0830
  24   2.0000      -1.008205       -27.4347
  25   2.0000      -0.980841       -26.6900
  26   2.0000      -0.915426       -24.9100
  27   2.0000      -0.909917       -24.7601
  28   2.0000      -0.872260       -23.7354
  29   2.0000      -0.856798       -23.3147
  30   2.0000      -0.848269       -23.0826
  31   2.0000      -0.816795       -22.2261
  32   2.0000      -0.787221       -21.4214
  33   2.0000      -0.773792       -21.0559
  34   2.0000      -0.710912       -19.3449
  35   2.0000      -0.697608       -18.9829
  36   2.0000      -0.690443       -18.7879
  37   2.0000      -0.663932       -18.0665
  38   2.0000      -0.641651       -17.4602
  39   2.0000      -0.622229       -16.9317
  40   2.0000      -0.594069       -16.1654
  41   2.0000      -0.580598       -15.7989
  42   2.0000      -0.571374       -15.5479
  43   2.0000      -0.561300       -15.2737
  44   2.0000      -0.539226       -14.6731
  45   2.0000      -0.523206       -14.2372
  46   2.0000      -0.520522       -14.1641
  47   2.0000      -0.505967       -13.7681
  48   2.0000      -0.502212       -13.6659
  49   2.0000      -0.499034       -13.5794
  50   2.0000      -0.496975       -13.5234
  51   2.0000      -0.482332       -13.1249
  52   2.0000      -0.473059       -12.8726
  53   2.0000      -0.472238       -12.8502
  54   2.0000      -0.457805       -12.4575
  55   2.0000      -0.455488       -12.3945
  56   2.0000      -0.444029       -12.0826
  57   2.0000      -0.439694       -11.9647
  58   2.0000      -0.438174       -11.9233
  59   2.0000      -0.426756       -11.6126
  60   2.0000      -0.419024       -11.4022
  61   2.0000      -0.415714       -11.3122
  62   2.0000      -0.403586       -10.9821
  63   2.0000      -0.357443        -9.7265
  64   2.0000      -0.331689        -9.0257
  65   2.0000      -0.327084        -8.9004
  66   2.0000      -0.282086        -7.6759
  67   0.0000       0.026979         0.7341
  68   0.0000       0.076761         2.0888
  69   0.0000       0.103380         2.8131
  70   0.0000       0.119425         3.2497
  71   0.0000       0.122642         3.3372

MULLIKEN ATOMIC CHARGES
-----------------------
   0 S :    0.126666
   1 C :   -0.068756
   2 C :   -0.089198
   3 C :   -0.021320
   4 C :   -0.128240
   5 H :    0.021304
   6 C :    0.022076
   7 H :    0.033949
   8 H :    0.040471
   9 C :   -0.111239
  10 H :    0.046335
  11 H :    0.034630
  12 C :    0.045464
  13 H :    0.022023
  14 H :   -0.010836
  15 H :    0.021281
  16 S :    0.094098
  17 C :   -0.072358
  18 C :   -0.023932
  19 C :   -0.046145
  20 C :   -0.133947
  21 H :    0.018711
  22 C :    0.072632
  23 H :    0.005623
  24 H :    0.040869
  25 C :   -0.125647
  26 H :    0.020745
  27 H :    0.039196
  28 C :    0.009009
  29 H :    0.010363
  30 H :    0.021489
  31 H :    0.033573
  32 H :    0.012344
  33 H :    0.038771
Sum of atomic charges:   -0.0000000

LOEWDIN ATOMIC CHARGES
----------------------
   0 S :    0.439856
   1 C :   -0.211288
   2 C :   -0.055729
   3 C :   -0.071815
   4 C :   -0.199225
   5 H :    0.033625
   6 C :   -0.035940
   7 H :    0.032838
   8 H :    0.029297
   9 C :   -0.040519
  10 H :    0.026950
  11 H :    0.024924
  12 C :   -0.048951
  13 H :    0.028971
  14 H :    0.013062
  15 H :    0.023064
  16 S :    0.382324
  17 C :   -0.170930
  18 C :   -0.063460
  19 C :   -0.049472
  20 C :   -0.187528
  21 H :    0.032642
  22 C :   -0.032160
  23 H :    0.023477
  24 H :    0.036114
  25 C :   -0.048860
  26 H :    0.020928
  27 H :    0.029005
  28 C :   -0.059601
  29 H :    0.017845
  30 H :    0.030113
  31 H :    0.020874
  32 H :    0.009941
  33 H :    0.019630

  Mayer bond orders larger than 0.100000
B(  0-S ,  1-C ) :   1.1608 B(  0-S ,  4-C ) :   1.1596 B(  1-C ,  2-C ) :   1.5868
B(  1-C , 32-H ) :   0.9783 B(  2-C ,  3-C ) :   1.2824 B(  2-C ,  6-C ) :   0.9859
B(  3-C ,  4-C ) :   1.5407 B(  3-C ,  5-H ) :   0.9839 B(  4-C , 20-C ) :   1.0617
B(  6-C ,  7-H ) :   0.9414 B(  6-C ,  8-H ) :   0.9497 B(  6-C ,  9-C ) :   1.0868
B(  9-C , 10-H ) :   0.9538 B(  9-C , 11-H ) :   0.9539 B(  9-C , 12-C ) :   1.0618
B( 12-C , 13-H ) :   0.9729 B( 12-C , 14-H ) :   0.9622 B( 12-C , 15-H ) :   0.9725
B( 16-S , 17-C ) :   1.1367 B( 16-S , 20-C ) :   1.1090 B( 17-C , 18-C ) :   1.6676
B( 17-C , 33-H ) :   0.9662 B( 18-C , 19-C ) :   1.1833 B( 18-C , 21-H ) :   0.9922
B( 19-C , 20-C ) :   1.6307 B( 19-C , 22-C ) :   1.0597 B( 22-C , 23-H ) :   0.9304
B( 22-C , 24-H ) :   0.9346 B( 22-C , 25-C ) :   1.0428 B( 25-C , 26-H ) :   0.9515
B( 25-C , 27-H ) :   0.9584 B( 25-C , 28-C ) :   1.0915 B( 28-C , 29-H ) :   0.9703
B( 28-C , 30-H ) :   0.9685 B( 28-C , 31-H ) :   0.9724

Dispersion correction           -0.013777471
FINAL SINGLE POINT ENERGY     -1339.847380980521

DIPOLE MOMENT
-------------
                                X             Y             Z
Electronic contribution:     13.36584     -31.24991       0.46834
Nuclear contribution   :    -13.82239      31.90864      -0.49634
                        -----------------------------------------
Total Dipole Moment    :     -0.45655       0.65873      -0.02801
                        -----------------------------------------
Magnitude (a.u.)       :      0.80196
Magnitude (Debye)      :      2.03843

Rotational constants in cm-1:     0.016154     0.009706     0.006303
Rotational constants in MHz :   484.298466   290.968655   188.960757

                             ****ORCA TERMINATED NORMALLY****
TOTAL RUN TIME: 0 days 0 hours 0 minutes 20 seconds 413 msec
