                         Program Version 4.2.1 -  RELEASE  -
|  1> ! wB97X-D3 SP def2-SVP
|  2> %pal
|  3> nprocs 24
|  4> end
|  5>
|  6> * xyz 0 1
|  7> S 	 -43.2655 	 20.8458 	 -98.4349
|  8> C 	 -44.4896 	 20.6206 	 -97.2338
|  9> C 	 -45.395 	 19.6545 	 -97.618
| 10> C 	 -45.1172 	 19.1317 	 -98.9329
| 11> C 	 -44.0089 	 19.6496 	 -99.4975
| 12> H 	 -45.6572 	 18.4234 	 -99.4754
| 13> C 	 -46.6362 	 19.2932 	 -96.7107
| 14> H 	 -47.2415 	 18.5877 	 -97.324
| 15> H 	 -47.2026 	 20.1828 	 -96.6185
| 16> C 	 -46.4122 	 18.6189 	 -95.3744
| 17> H 	 -45.8646 	 19.2037 	 -94.6646
| 18> H 	 -47.4246 	 18.5078 	 -94.9626
| 19> C 	 -45.7836 	 17.2217 	 -95.4802
| 20> H 	 -46.384 	 16.4734 	 -95.8828
| 21> H 	 -44.8751 	 17.3271 	 -96.0598
| 22> H 	 -45.5757 	 16.9627 	 -94.4664
| 23> S 	 -42.8577 	 20.5597 	 -101.862
| 24> C 	 -42.4928 	 19.441 	 -103.117
| 25> C 	 -42.7052 	 18.1449 	 -102.649
| 26> C 	 -43.2747 	 18.0362 	 -101.322
| 27> C 	 -43.4471 	 19.3262 	 -100.768
| 28> H 	 -42.4316 	 17.3025 	 -103.25
| 29> C 	 -43.5922 	 16.7265 	 -100.736
| 30> H 	 -44.416 	 16.3203 	 -101.347
| 31> H 	 -44.0943 	 16.9467 	 -99.8073
| 32> C 	 -42.5998 	 15.6429 	 -100.467
| 33> H 	 -41.8921 	 15.4344 	 -101.249
| 34> H 	 -43.0014 	 14.6534 	 -100.18
| 35> C 	 -41.7302 	 15.9721 	 -99.2424
| 36> H 	 -40.8066 	 15.4146 	 -99.26
| 37> H 	 -42.2595 	 15.659 	 -98.3193
| 38> H 	 -41.431 	 17.0642 	 -99.1646
| 39> H 	 -44.4479 	 21.2437 	 -96.3122
| 40> H 	 -42.0102 	 19.6092 	 -104.119
| 41> *
| 42>
| 43>                          ****END OF INPUT****

CARTESIAN COORDINATES (ANGSTROEM)
---------------------------------
  S    -43.265500   20.845800  -98.434900
  C    -44.489600   20.620600  -97.233800
  C    -45.395000   19.654500  -97.618000
  C    -45.117200   19.131700  -98.932900
  C    -44.008900   19.649600  -99.497500
  H    -45.657200   18.423400  -99.475400
  C    -46.636200   19.293200  -96.710700
  H    -47.241500   18.587700  -97.324000
  H    -47.202600   20.182800  -96.618500
  C    -46.412200   18.618900  -95.374400
  H    -45.864600   19.203700  -94.664600
  H    -47.424600   18.507800  -94.962600
  C    -45.783600   17.221700  -95.480200
  H    -46.384000   16.473400  -95.882800
  H    -44.875100   17.327100  -96.059800
  H    -45.575700   16.962700  -94.466400
  S    -42.857700   20.559700  -101.862000
  C    -42.492800   19.441000  -103.117000
  C    -42.705200   18.144900  -102.649000
  C    -43.274700   18.036200  -101.322000
  C    -43.447100   19.326200  -100.768000
  H    -42.431600   17.302500  -103.250000
  C    -43.592200   16.726500  -100.736000
  H    -44.416000   16.320300  -101.347000
  H    -44.094300   16.946700  -99.807300
  C    -42.599800   15.642900  -100.467000
  H    -41.892100   15.434400  -101.249000
  H    -43.001400   14.653400  -100.180000
  C    -41.730200   15.972100  -99.242400
  H    -40.806600   15.414600  -99.260000
  H    -42.259500   15.659000  -98.319300
  H    -41.431000   17.064200  -99.164600
  H    -44.447900   21.243700  -96.312200
  H    -42.010200   19.609200  -104.119000

 Total Charge           Charge          ....    0
 Multiplicity           Mult            ....    1
 Number of Electrons    NEL             ....  134
 Basis Dimension        Dim             ....  322

ORBITAL ENERGIES
----------------

  NO   OCC          E(Eh)            E(eV)
   0   2.0000     -88.968350     -2420.9519
   1   2.0000     -88.961631     -2420.7691
   2   2.0000     -10.327643      -281.0295
   3   2.0000     -10.323978      -280.9297
   4   2.0000     -10.321452      -280.8610
   5   2.0000     -10.315425      -280.6970
   6   2.0000     -10.306159      -280.4449
   7   2.0000     -10.305096      -280.4159
   8   2.0000     -10.292560      -280.0748
   9   2.0000     -10.292231      -280.0658
  10   2.0000     -10.289835      -280.0007
  11   2.0000     -10.287540      -279.9382
  12   2.0000     -10.285310      -279.8775
  13   2.0000     -10.283903      -279.8392
  14   2.0000     -10.274448      -279.5819
  15   2.0000     -10.266846      -279.3751
  16   2.0000      -8.083241      -219.9562
  17   2.0000      -8.077011      -219.7867
  18   2.0000      -6.041870      -164.4076
  19   2.0000      -6.037582      -164.2910
  20   2.0000      -6.035496      -164.2342
  21   2.0000      -6.033998      -164.1934
  22   2.0000      -6.031388      -164.1224
  23   2.0000      -6.027809      -164.0250
  24   2.0000      -1.009758       -27.4769
  25   2.0000      -0.984807       -26.7980
  26   2.0000      -0.917252       -24.9597
  27   2.0000      -0.909924       -24.7603
  28   2.0000      -0.874444       -23.7948
  29   2.0000      -0.853198       -23.2167
  30   2.0000      -0.845134       -22.9973
  31   2.0000      -0.815195       -22.1826
  32   2.0000      -0.785882       -21.3849
  33   2.0000      -0.772239       -21.0137
  34   2.0000      -0.706527       -19.2256
  35   2.0000      -0.699885       -19.0448
  36   2.0000      -0.693804       -18.8794
  37   2.0000      -0.659529       -17.9467
  38   2.0000      -0.643041       -17.4980
  39   2.0000      -0.617074       -16.7914
  40   2.0000      -0.596630       -16.2351
  41   2.0000      -0.572110       -15.5679
  42   2.0000      -0.558214       -15.1898
  43   2.0000      -0.556322       -15.1383
  44   2.0000      -0.545732       -14.8501
  45   2.0000      -0.535968       -14.5844
  46   2.0000      -0.522968       -14.2307
  47   2.0000      -0.514350       -13.9962
  48   2.0000      -0.504528       -13.7289
  49   2.0000      -0.499389       -13.5891
  50   2.0000      -0.490041       -13.3347
  51   2.0000      -0.483420       -13.1545
  52   2.0000      -0.469567       -12.7776
  53   2.0000      -0.466033       -12.6814
  54   2.0000      -0.455150       -12.3853
  55   2.0000      -0.443352       -12.0642
  56   2.0000      -0.442372       -12.0376
  57   2.0000      -0.436873       -11.8879
  58   2.0000      -0.433195       -11.7878
  59   2.0000      -0.427512       -11.6332
  60   2.0000      -0.417686       -11.3658
  61   2.0000      -0.414925       -11.2907
  62   2.0000      -0.407281       -11.0827
  63   2.0000      -0.354823        -9.6552
  64   2.0000      -0.331004        -9.0071
  65   2.0000      -0.327839        -8.9209
  66   2.0000      -0.289183        -7.8691
  67   0.0000       0.028478         0.7749
  68   0.0000       0.076288         2.0759
  69   0.0000       0.114873         3.1259
  70   0.0000       0.120990         3.2923
  71   0.0000       0.131136         3.5684

MULLIKEN ATOMIC CHARGES
-----------------------
   0 S :    0.101556
   1 C :   -0.149398
   2 C :   -0.090576
   3 C :    0.044551
   4 C :   -0.155591
   5 H :   -0.008849
   6 C :    0.076290
   7 H :    0.013636
   8 H :    0.032223
   9 C :   -0.069440
  10 H :    0.023007
  11 H :    0.026556
  12 C :   -0.019575
  13 H :    0.017551
  14 H :    0.040135
  15 H :    0.023628
  16 S :    0.124109
  17 C :   -0.106846
  18 C :   -0.040605
  19 C :   -0.047697
  20 C :   -0.146068
  21 H :    0.010187
  22 C :    0.083971
  23 H :    0.036911
  24 H :   -0.000383
  25 C :   -0.030537
  26 H :    0.021389
  27 H :    0.030096
  28 C :   -0.101155
  29 H :    0.025065
  30 H :    0.034554
  31 H :    0.050988
  32 H :    0.069600
  33 H :    0.080718
Sum of atomic charges:    0.0000000

LOEWDIN ATOMIC CHARGES
----------------------
   0 S :    0.397920
   1 C :   -0.203554
   2 C :   -0.065523
   3 C :   -0.060115
   4 C :   -0.184334
   5 H :    0.022887
   6 C :   -0.027814
   7 H :    0.030323
   8 H :    0.027053
   9 C :   -0.038248
  10 H :    0.017918
  11 H :    0.028027
  12 C :   -0.053957
  13 H :    0.014888
  14 H :    0.027676
  15 H :    0.025231
  16 S :    0.422965
  17 C :   -0.210491
  18 C :   -0.069181
  19 C :   -0.050150
  20 C :   -0.204537
  21 H :    0.024721
  22 C :   -0.043706
  23 H :    0.040383
  24 H :    0.030036
  25 C :   -0.041671
  26 H :    0.019148
  27 H :    0.033334
  28 C :   -0.071345
  29 H :    0.020621
  30 H :    0.024610
  31 H :    0.032433
  32 H :    0.036264
  33 H :    0.048188

  Mayer bond orders larger than 0.100000
B(  0-S ,  1-C ) :   1.1423 B(  0-S ,  4-C ) :   1.1365 B(  1-C ,  2-C ) :   1.6080
B(  1-C , 32-H ) :   0.9704 B(  2-C ,  3-C ) :   1.2218 B(  2-C ,  6-C ) :   0.9959
B(  3-C ,  4-C ) :   1.5908 B(  3-C ,  5-H ) :   1.0052 B(  4-C , 20-C ) :   1.0681
B(  6-C ,  7-H ) :   0.9435 B(  6-C ,  8-H ) :   0.9436 B(  6-C ,  9-C ) :   1.0828
B(  9-C , 10-H ) :   0.9593 B(  9-C , 11-H ) :   0.9498 B(  9-C , 12-C ) :   1.0774
B( 12-C , 13-H ) :   0.9757 B( 12-C , 14-H ) :   0.9771 B( 12-C , 15-H ) :   0.9733
B( 16-S , 17-C ) :   1.1541 B( 16-S , 20-C ) :   1.1459 B( 17-C , 18-C ) :   1.5974
B( 17-C , 33-H ) :   0.9607 B( 18-C , 19-C ) :   1.2517 B( 18-C , 21-H ) :   0.9907
B( 19-C , 20-C ) :   1.5382 B( 19-C , 22-C ) :   1.0610 B( 22-C , 23-H ) :   0.9179
B( 22-C , 24-H ) :   0.9137 B( 22-C , 25-C ) :   1.0779 B( 25-C , 26-H ) :   0.9612
B( 25-C , 27-H ) :   0.9517 B( 25-C , 28-C ) :   1.0695 B( 28-C , 29-H ) :   0.9752
B( 28-C , 30-H ) :   0.9772 B( 28-C , 31-H ) :   0.9788

Dispersion correction           -0.014624272
FINAL SINGLE POINT ENERGY     -1339.882781535174

DIPOLE MOMENT
-------------
                                X             Y             Z
Electronic contribution:      6.83728      23.19837     -15.69707
Nuclear contribution   :     -7.10418     -23.78485      15.85890
                        -----------------------------------------
Total Dipole Moment    :     -0.26691      -0.58648       0.16183
                        -----------------------------------------
Magnitude (a.u.)       :      0.66437
Magnitude (Debye)      :      1.68869

Rotational constants in cm-1:     0.019695     0.009118     0.007046
Rotational constants in MHz :   590.432249   273.359663   211.221607

                             ****ORCA TERMINATED NORMALLY****
TOTAL RUN TIME: 0 days 0 hours 0 minutes 22 seconds 190 msec
