                         Program Version 4.2.1 -  RELEASE  -
|  1> ! wB97X-D3 SP def2-SVP
|  2> %pal
|  3> nprocs 24
|  4> end
|  5>
|  6> * xyz 0 1
|  7> S 	 -47.4301 	 13.5783 	 -98.6565
|  8> C 	 -47.3804 	 11.8318 	 -98.4559
|  9> C 	 -48.5411 	 11.2908 	 -98.9744
| 10> C 	 -49.2959 	 12.189 	 -99.7472
| 11> C 	 -48.7974 	 13.4434 	 -99.7207
| 12> H 	 -50.1597 	 11.9206 	 -100.388
| 13> C 	 -48.9605 	 9.81589 	 -99.0393
| 14> H 	 -48.352 	 9.2563 	 -98.3687
| 15> H 	 -48.8593 	 9.37986 	 -100.03
| 16> C 	 -50.3981 	 9.42297 	 -98.546
| 17> H 	 -51.146 	 9.93315 	 -99.1507
| 18> H 	 -50.551 	 8.41072 	 -98.7833
| 19> C 	 -50.6378 	 9.83679 	 -97.1529
| 20> H 	 -49.8781 	 9.40797 	 -96.5163
| 21> H 	 -50.4893 	 10.8951 	 -97.0818
| 22> H 	 -51.6585 	 9.58365 	 -96.8677
| 23> S 	 -50.3548 	 15.7256 	 -99.284
| 24> C 	 -50.7855 	 16.7068 	 -100.688
| 25> C 	 -50.4391 	 16.2368 	 -101.868
| 26> C 	 -49.6972 	 14.9611 	 -101.682
| 27> C 	 -49.4392 	 14.6163 	 -100.338
| 28> H 	 -50.6097 	 16.8597 	 -102.769
| 29> C 	 -49.2049 	 14.1536 	 -102.851
| 30> H 	 -48.8005 	 13.1242 	 -102.61
| 31> H 	 -48.2696 	 14.7493 	 -103.041
| 32> C 	 -50.244 	 14.0239 	 -104.033
| 33> H 	 -50.3942 	 14.9773 	 -104.435
| 34> H 	 -51.1708 	 13.6268 	 -103.602
| 35> C 	 -49.7672 	 13.1603 	 -105.218
| 36> H 	 -50.2728 	 13.3 	 -106.172
| 37> H 	 -49.9045 	 12.0965 	 -105.011
| 38> H 	 -48.7635 	 13.5275 	 -105.346
| 39> H 	 -46.5673 	 11.3658 	 -97.971
| 40> H 	 -51.3391 	 17.62 	 -100.567
| 41> *
| 42>
| 43>                          ****END OF INPUT****

CARTESIAN COORDINATES (ANGSTROEM)
---------------------------------
  S    -47.430100   13.578300  -98.656500
  C    -47.380400   11.831800  -98.455900
  C    -48.541100   11.290800  -98.974400
  C    -49.295900   12.189000  -99.747200
  C    -48.797400   13.443400  -99.720700
  H    -50.159700   11.920600  -100.388000
  C    -48.960500    9.815890  -99.039300
  H    -48.352000    9.256300  -98.368700
  H    -48.859300    9.379860  -100.030000
  C    -50.398100    9.422970  -98.546000
  H    -51.146000    9.933150  -99.150700
  H    -50.551000    8.410720  -98.783300
  C    -50.637800    9.836790  -97.152900
  H    -49.878100    9.407970  -96.516300
  H    -50.489300   10.895100  -97.081800
  H    -51.658500    9.583650  -96.867700
  S    -50.354800   15.725600  -99.284000
  C    -50.785500   16.706800  -100.688000
  C    -50.439100   16.236800  -101.868000
  C    -49.697200   14.961100  -101.682000
  C    -49.439200   14.616300  -100.338000
  H    -50.609700   16.859700  -102.769000
  C    -49.204900   14.153600  -102.851000
  H    -48.800500   13.124200  -102.610000
  H    -48.269600   14.749300  -103.041000
  C    -50.244000   14.023900  -104.033000
  H    -50.394200   14.977300  -104.435000
  H    -51.170800   13.626800  -103.602000
  C    -49.767200   13.160300  -105.218000
  H    -50.272800   13.300000  -106.172000
  H    -49.904500   12.096500  -105.011000
  H    -48.763500   13.527500  -105.346000
  H    -46.567300   11.365800  -97.971000
  H    -51.339100   17.620000  -100.567000

 Total Charge           Charge          ....    0
 Multiplicity           Mult            ....    1
 Number of Electrons    NEL             ....  134
 Basis Dimension        Dim             ....  322

ORBITAL ENERGIES
----------------

  NO   OCC          E(Eh)            E(eV)
   0   2.0000     -88.965093     -2420.8633
   1   2.0000     -88.958137     -2420.6740
   2   2.0000     -10.326700      -281.0038
   3   2.0000     -10.325394      -280.9683
   4   2.0000     -10.316181      -280.7175
   5   2.0000     -10.312352      -280.6134
   6   2.0000     -10.311044      -280.5778
   7   2.0000     -10.301633      -280.3217
   8   2.0000     -10.297512      -280.2095
   9   2.0000     -10.296250      -280.1752
  10   2.0000     -10.289851      -280.0011
  11   2.0000     -10.288318      -279.9594
  12   2.0000     -10.287249      -279.9303
  13   2.0000     -10.277493      -279.6648
  14   2.0000     -10.277257      -279.6584
  15   2.0000     -10.266393      -279.3628
  16   2.0000      -8.080215      -219.8738
  17   2.0000      -8.072676      -219.6687
  18   2.0000      -6.038635      -164.3196
  19   2.0000      -6.034723      -164.2132
  20   2.0000      -6.031340      -164.1211
  21   2.0000      -6.030983      -164.1114
  22   2.0000      -6.027407      -164.0141
  23   2.0000      -6.023091      -163.8966
  24   2.0000      -1.007335       -27.4110
  25   2.0000      -0.982309       -26.7300
  26   2.0000      -0.914003       -24.8713
  27   2.0000      -0.902891       -24.5689
  28   2.0000      -0.872999       -23.7555
  29   2.0000      -0.851827       -23.1794
  30   2.0000      -0.845101       -22.9964
  31   2.0000      -0.820504       -22.3271
  32   2.0000      -0.782096       -21.2819
  33   2.0000      -0.765163       -20.8211
  34   2.0000      -0.706715       -19.2307
  35   2.0000      -0.698629       -19.0107
  36   2.0000      -0.695160       -18.9163
  37   2.0000      -0.647726       -17.6255
  38   2.0000      -0.644153       -17.5283
  39   2.0000      -0.625088       -17.0095
  40   2.0000      -0.593634       -16.1536
  41   2.0000      -0.570805       -15.5324
  42   2.0000      -0.568009       -15.4563
  43   2.0000      -0.556323       -15.1383
  44   2.0000      -0.542369       -14.7586
  45   2.0000      -0.525202       -14.2915
  46   2.0000      -0.519978       -14.1493
  47   2.0000      -0.518469       -14.1083
  48   2.0000      -0.503651       -13.7050
  49   2.0000      -0.500232       -13.6120
  50   2.0000      -0.483981       -13.1698
  51   2.0000      -0.476819       -12.9749
  52   2.0000      -0.468095       -12.7375
  53   2.0000      -0.462482       -12.5848
  54   2.0000      -0.458421       -12.4743
  55   2.0000      -0.453879       -12.3507
  56   2.0000      -0.447663       -12.1815
  57   2.0000      -0.436021       -11.8647
  58   2.0000      -0.433610       -11.7991
  59   2.0000      -0.419595       -11.4178
  60   2.0000      -0.416156       -11.3242
  61   2.0000      -0.411743       -11.2041
  62   2.0000      -0.410144       -11.1606
  63   2.0000      -0.344532        -9.3752
  64   2.0000      -0.331225        -9.0131
  65   2.0000      -0.321344        -8.7442
  66   2.0000      -0.299854        -8.1595
  67   0.0000       0.042524         1.1571
  68   0.0000       0.062629         1.7042
  69   0.0000       0.116160         3.1609
  70   0.0000       0.120827         3.2879
  71   0.0000       0.126715         3.4481

MULLIKEN ATOMIC CHARGES
-----------------------
   0 S :    0.109766
   1 C :   -0.117078
   2 C :   -0.062251
   3 C :    0.032237
   4 C :   -0.171478
   5 H :    0.032841
   6 C :    0.050457
   7 H :    0.000957
   8 H :    0.039719
   9 C :   -0.066318
  10 H :    0.011952
  11 H :    0.016142
  12 C :   -0.014358
  13 H :    0.017060
  14 H :    0.034738
  15 H :    0.035559
  16 S :    0.084330
  17 C :   -0.078301
  18 C :   -0.026865
  19 C :   -0.051541
  20 C :   -0.140088
  21 H :    0.043459
  22 C :   -0.004499
  23 H :    0.037217
  24 H :    0.051153
  25 C :   -0.064262
  26 H :    0.019448
  27 H :    0.037408
  28 C :   -0.044183
  29 H :    0.032127
  30 H :    0.038303
  31 H :    0.030346
  32 H :    0.038738
  33 H :    0.047268
Sum of atomic charges:    0.0000000

LOEWDIN ATOMIC CHARGES
----------------------
   0 S :    0.407786
   1 C :   -0.180184
   2 C :   -0.066263
   3 C :   -0.060719
   4 C :   -0.199860
   5 H :    0.041956
   6 C :   -0.027056
   7 H :    0.019343
   8 H :    0.032067
   9 C :   -0.037918
  10 H :    0.017885
  11 H :    0.016938
  12 C :   -0.058380
  13 H :    0.021279
  14 H :    0.027431
  15 H :    0.028130
  16 S :    0.366130
  17 C :   -0.163975
  18 C :   -0.081102
  19 C :   -0.045618
  20 C :   -0.198725
  21 H :    0.045584
  22 C :   -0.048238
  23 H :    0.033512
  24 H :    0.043701
  25 C :   -0.033398
  26 H :    0.014262
  27 H :    0.025663
  28 C :   -0.066117
  29 H :    0.026562
  30 H :    0.026261
  31 H :    0.026736
  32 H :    0.021128
  33 H :    0.025199

  Mayer bond orders larger than 0.100000
B(  0-S ,  1-C ) :   1.1377 B(  0-S ,  4-C ) :   1.1575 B(  1-C ,  2-C ) :   1.5941
B(  1-C , 32-H ) :   0.9836 B(  2-C ,  3-C ) :   1.2216 B(  2-C ,  6-C ) :   1.0233
B(  3-C ,  4-C ) :   1.5931 B(  3-C ,  5-H ) :   0.9958 B(  4-C , 20-C ) :   1.0085
B(  6-C ,  7-H ) :   0.9413 B(  6-C ,  8-H ) :   0.9474 B(  6-C ,  9-C ) :   1.0753
B(  9-C , 10-H ) :   0.9497 B(  9-C , 11-H ) :   0.9550 B(  9-C , 12-C ) :   1.0808
B( 12-C , 13-H ) :   0.9740 B( 12-C , 14-H ) :   0.9696 B( 12-C , 15-H ) :   0.9708
B( 16-S , 17-C ) :   1.1342 B( 16-S , 20-C ) :   1.1059 B( 17-C , 18-C ) :   1.7004
B( 17-C , 33-H ) :   0.9584 B( 18-C , 19-C ) :   1.1548 B( 18-C , 21-H ) :   0.9832
B( 19-C , 20-C ) :   1.6643 B( 19-C , 22-C ) :   1.0431 B( 22-C , 23-H ) :   0.9448
B( 22-C , 24-H ) :   0.9308 B( 22-C , 25-C ) :   1.0457 B( 25-C , 26-H ) :   0.9510
B( 25-C , 27-H ) :   0.9642 B( 25-C , 28-C ) :   1.0823 B( 28-C , 29-H ) :   0.9765
B( 28-C , 30-H ) :   0.9772 B( 28-C , 31-H ) :   0.9739

Dispersion correction           -0.014079353
FINAL SINGLE POINT ENERGY     -1339.864163632658

DIPOLE MOMENT
-------------
                                X             Y             Z
Electronic contribution:      7.37317      18.77150      13.50837
Nuclear contribution   :     -7.56276     -19.11959     -14.07189
                        -----------------------------------------
Total Dipole Moment    :     -0.18959      -0.34809      -0.56352
                        -----------------------------------------
Magnitude (a.u.)       :      0.68896
Magnitude (Debye)      :      1.75121

Rotational constants in cm-1:     0.016947     0.008552     0.007092
Rotational constants in MHz :   508.057920   256.380558   212.618069

                             ****ORCA TERMINATED NORMALLY****
TOTAL RUN TIME: 0 days 0 hours 0 minutes 21 seconds 337 msec
