                         Program Version 4.2.1 -  RELEASE  -
|  1> ! wB97X-D3 SP def2-SVP
|  2> %pal
|  3> nprocs 24
|  4> end
|  5>
|  6> * xyz 0 1
|  7> S 	 31.8176 	 -25.0351 	 -126.578
|  8> C 	 32.045 	 -26.1166 	 -128.028
|  9> C 	 31.3754 	 -27.3241 	 -127.912
| 10> C 	 30.6041 	 -27.3529 	 -126.722
| 11> C 	 30.6308 	 -26.2482 	 -125.888
| 12> H 	 29.9457 	 -28.2141 	 -126.437
| 13> C 	 31.1647 	 -28.2874 	 -129.035
| 14> H 	 31.4014 	 -29.311 	 -128.617
| 15> H 	 31.9271 	 -28.1468 	 -129.782
| 16> C 	 29.7986 	 -28.1383 	 -129.707
| 17> H 	 29.1243 	 -28.0663 	 -128.875
| 18> H 	 29.6306 	 -27.2611 	 -130.363
| 19> C 	 29.4849 	 -29.3212 	 -130.597
| 20> H 	 30.3878 	 -29.4687 	 -131.164
| 21> H 	 29.2598 	 -30.2652 	 -130.082
| 22> H 	 28.5938 	 -29.0686 	 -131.146
| 23> S 	 29.8003 	 -26.8858 	 -123.389
| 24> C 	 28.6563 	 -25.9329 	 -122.514
| 25> C 	 28.2059 	 -24.8824 	 -123.299
| 26> C 	 28.8547 	 -24.8864 	 -124.615
| 27> C 	 29.8662 	 -25.8596 	 -124.73
| 28> H 	 27.3952 	 -24.2185 	 -123.057
| 29> C 	 28.609 	 -23.8392 	 -125.686
| 30> H 	 27.5947 	 -24.0371 	 -125.997
| 31> H 	 29.1908 	 -24.1128 	 -126.603
| 32> C 	 28.773 	 -22.448 	 -125.42
| 33> H 	 28.1118 	 -22.1231 	 -124.599
| 34> H 	 28.3956 	 -21.8516 	 -126.251
| 35> C 	 30.1845 	 -22.0194 	 -125.145
| 36> H 	 30.7075 	 -22.5321 	 -124.314
| 37> H 	 30.3007 	 -20.9585 	 -124.888
| 38> H 	 30.8018 	 -22.3127 	 -126.003
| 39> H 	 32.6171 	 -25.8617 	 -128.978
| 40> H 	 28.1562 	 -26.0221 	 -121.459
| 41> *
| 42>
| 43>                          ****END OF INPUT****

CARTESIAN COORDINATES (ANGSTROEM)
---------------------------------
  S     31.817600  -25.035100  -126.578000
  C     32.045000  -26.116600  -128.028000
  C     31.375400  -27.324100  -127.912000
  C     30.604100  -27.352900  -126.722000
  C     30.630800  -26.248200  -125.888000
  H     29.945700  -28.214100  -126.437000
  C     31.164700  -28.287400  -129.035000
  H     31.401400  -29.311000  -128.617000
  H     31.927100  -28.146800  -129.782000
  C     29.798600  -28.138300  -129.707000
  H     29.124300  -28.066300  -128.875000
  H     29.630600  -27.261100  -130.363000
  C     29.484900  -29.321200  -130.597000
  H     30.387800  -29.468700  -131.164000
  H     29.259800  -30.265200  -130.082000
  H     28.593800  -29.068600  -131.146000
  S     29.800300  -26.885800  -123.389000
  C     28.656300  -25.932900  -122.514000
  C     28.205900  -24.882400  -123.299000
  C     28.854700  -24.886400  -124.615000
  C     29.866200  -25.859600  -124.730000
  H     27.395200  -24.218500  -123.057000
  C     28.609000  -23.839200  -125.686000
  H     27.594700  -24.037100  -125.997000
  H     29.190800  -24.112800  -126.603000
  C     28.773000  -22.448000  -125.420000
  H     28.111800  -22.123100  -124.599000
  H     28.395600  -21.851600  -126.251000
  C     30.184500  -22.019400  -125.145000
  H     30.707500  -22.532100  -124.314000
  H     30.300700  -20.958500  -124.888000
  H     30.801800  -22.312700  -126.003000
  H     32.617100  -25.861700  -128.978000
  H     28.156200  -26.022100  -121.459000

 Total Charge           Charge          ....    0
 Multiplicity           Mult            ....    1
 Number of Electrons    NEL             ....  134
 Basis Dimension        Dim             ....  322

ORBITAL ENERGIES
----------------

  NO   OCC          E(Eh)            E(eV)
   0   2.0000     -88.968267     -2420.9496
   1   2.0000     -88.967058     -2420.9167
   2   2.0000     -10.337952      -281.3100
   3   2.0000     -10.326972      -281.0112
   4   2.0000     -10.325720      -280.9771
   5   2.0000     -10.323487      -280.9164
   6   2.0000     -10.306770      -280.4615
   7   2.0000     -10.302152      -280.3358
   8   2.0000     -10.301092      -280.3070
   9   2.0000     -10.297554      -280.2107
  10   2.0000     -10.296379      -280.1787
  11   2.0000     -10.286134      -279.8999
  12   2.0000     -10.279436      -279.7177
  13   2.0000     -10.275517      -279.6110
  14   2.0000     -10.275291      -279.6049
  15   2.0000     -10.268107      -279.4094
  16   2.0000      -8.083995      -219.9767
  17   2.0000      -8.078991      -219.8405
  18   2.0000      -6.042541      -164.4259
  19   2.0000      -6.038091      -164.3048
  20   2.0000      -6.037728      -164.2949
  21   2.0000      -6.034909      -164.2182
  22   2.0000      -6.033960      -164.1924
  23   2.0000      -6.029586      -164.0734
  24   2.0000      -1.008684       -27.4477
  25   2.0000      -0.978617       -26.6295
  26   2.0000      -0.921614       -25.0784
  27   2.0000      -0.916863       -24.9491
  28   2.0000      -0.873325       -23.7644
  29   2.0000      -0.847793       -23.0696
  30   2.0000      -0.841944       -22.9105
  31   2.0000      -0.815063       -22.1790
  32   2.0000      -0.784328       -21.3427
  33   2.0000      -0.769030       -20.9264
  34   2.0000      -0.709727       -19.3127
  35   2.0000      -0.698620       -19.0104
  36   2.0000      -0.687901       -18.7187
  37   2.0000      -0.658638       -17.9224
  38   2.0000      -0.635167       -17.2838
  39   2.0000      -0.619003       -16.8439
  40   2.0000      -0.594164       -16.1680
  41   2.0000      -0.568501       -15.4697
  42   2.0000      -0.564007       -15.3474
  43   2.0000      -0.560101       -15.2411
  44   2.0000      -0.546939       -14.8830
  45   2.0000      -0.536341       -14.5946
  46   2.0000      -0.521449       -14.1894
  47   2.0000      -0.506710       -13.7883
  48   2.0000      -0.499680       -13.5970
  49   2.0000      -0.495696       -13.4886
  50   2.0000      -0.492796       -13.4097
  51   2.0000      -0.480451       -13.0737
  52   2.0000      -0.465365       -12.6632
  53   2.0000      -0.456957       -12.4344
  54   2.0000      -0.454567       -12.3694
  55   2.0000      -0.445413       -12.1203
  56   2.0000      -0.442015       -12.0278
  57   2.0000      -0.441424       -12.0117
  58   2.0000      -0.437639       -11.9088
  59   2.0000      -0.423095       -11.5130
  60   2.0000      -0.416509       -11.3338
  61   2.0000      -0.409376       -11.1397
  62   2.0000      -0.399885       -10.8814
  63   2.0000      -0.343379        -9.3438
  64   2.0000      -0.332598        -9.0505
  65   2.0000      -0.326134        -8.8745
  66   2.0000      -0.297343        -8.0911
  67   0.0000       0.029350         0.7987
  68   0.0000       0.065382         1.7791
  69   0.0000       0.098201         2.6722
  70   0.0000       0.115719         3.1489
  71   0.0000       0.127992         3.4828

MULLIKEN ATOMIC CHARGES
-----------------------
   0 S :    0.082290
   1 C :   -0.143075
   2 C :   -0.074588
   3 C :    0.021119
   4 C :   -0.172036
   5 H :    0.030386
   6 C :    0.043015
   7 H :    0.042166
   8 H :    0.010424
   9 C :   -0.068347
  10 H :    0.018757
  11 H :    0.039843
  12 C :   -0.029263
  13 H :    0.027948
  14 H :    0.030233
  15 H :    0.034582
  16 S :    0.127092
  17 C :   -0.116375
  18 C :   -0.029425
  19 C :   -0.062928
  20 C :   -0.144711
  21 H :    0.020771
  22 C :    0.057378
  23 H :    0.018005
  24 H :    0.030457
  25 C :   -0.019198
  26 H :    0.012305
  27 H :    0.023526
  28 C :   -0.063281
  29 H :    0.030663
  30 H :    0.034050
  31 H :    0.023159
  32 H :    0.070260
  33 H :    0.094802
Sum of atomic charges:    0.0000000

LOEWDIN ATOMIC CHARGES
----------------------
   0 S :    0.356199
   1 C :   -0.179862
   2 C :   -0.073746
   3 C :   -0.062237
   4 C :   -0.163442
   5 H :    0.038198
   6 C :   -0.034331
   7 H :    0.040771
   8 H :    0.024282
   9 C :   -0.038248
  10 H :    0.018592
  11 H :    0.033137
  12 C :   -0.061323
  13 H :    0.023764
  14 H :    0.024647
  15 H :    0.026168
  16 S :    0.450841
  17 C :   -0.216686
  18 C :   -0.074806
  19 C :   -0.042479
  20 C :   -0.240287
  21 H :    0.029474
  22 C :   -0.046091
  23 H :    0.033654
  24 H :    0.030243
  25 C :   -0.049505
  26 H :    0.020635
  27 H :    0.030420
  28 C :   -0.073456
  29 H :    0.026156
  30 H :    0.026860
  31 H :    0.018532
  32 H :    0.042185
  33 H :    0.061742

  Mayer bond orders larger than 0.100000
B(  0-S ,  1-C ) :   1.1209 B(  0-S ,  4-C ) :   1.1053 B(  1-C ,  2-C ) :   1.6420
B(  1-C , 32-H ) :   0.9527 B(  2-C ,  3-C ) :   1.2133 B(  2-C ,  6-C ) :   1.0460
B(  3-C ,  4-C ) :   1.6373 B(  3-C ,  5-H ) :   0.9763 B(  4-C , 20-C ) :   1.0281
B(  6-C ,  7-H ) :   0.9392 B(  6-C ,  8-H ) :   0.9310 B(  6-C ,  9-C ) :   1.0514
B(  9-C , 10-H ) :   0.9574 B(  9-C , 11-H ) :   0.9558 B(  9-C , 12-C ) :   1.0797
B( 12-C , 13-H ) :   0.9734 B( 12-C , 14-H ) :   0.9760 B( 12-C , 15-H ) :   0.9748
B( 16-S , 17-C ) :   1.1730 B( 16-S , 20-C ) :   1.1508 B( 17-C , 18-C ) :   1.5836
B( 17-C , 33-H ) :   0.9521 B( 18-C , 19-C ) :   1.2688 B( 18-C , 21-H ) :   0.9885
B( 19-C , 20-C ) :   1.5398 B( 19-C , 22-C ) :   1.0446 B( 22-C , 23-H ) :   0.9107
B( 22-C , 24-H ) :   0.9292 B( 22-C , 25-C ) :   1.1083 B( 25-C , 26-H ) :   0.9418
B( 25-C , 27-H ) :   0.9382 B( 25-C , 28-C ) :   1.0781 B( 28-C , 29-H ) :   0.9746
B( 28-C , 30-H ) :   0.9717 B( 28-C , 31-H ) :   0.9669

Dispersion correction           -0.014970966
FINAL SINGLE POINT ENERGY     -1339.865066948273

DIPOLE MOMENT
-------------
                                X             Y             Z
Electronic contribution:      7.18908      -2.45611      17.68151
Nuclear contribution   :     -7.74400       2.37086     -18.10660
                        -----------------------------------------
Total Dipole Moment    :     -0.55492      -0.08524      -0.42509
                        -----------------------------------------
Magnitude (a.u.)       :      0.70420
Magnitude (Debye)      :      1.78995

Rotational constants in cm-1:     0.020212     0.008232     0.007191
Rotational constants in MHz :   605.954328   246.782870   215.566494

                             ****ORCA TERMINATED NORMALLY****
TOTAL RUN TIME: 0 days 0 hours 0 minutes 21 seconds 955 msec
