                         Program Version 4.2.1 -  RELEASE  -
|  1> ! wB97X-D3 SP def2-SVP
|  2> %pal
|  3> nprocs 24
|  4> end
|  5>
|  6> * xyz 0 1
|  7> S 	 -101.473 	 3.0038 	 -108.167
|  8> C 	 -102.82 	 4.10299 	 -108.341
|  9> C 	 -103.638 	 4.07051 	 -107.211
| 10> C 	 -103.063 	 3.18725 	 -106.239
| 11> C 	 -102.002 	 2.42257 	 -106.65
| 12> H 	 -103.428 	 3.10162 	 -105.208
| 13> C 	 -104.904 	 4.95402 	 -106.912
| 14> H 	 -105.071 	 5.69498 	 -107.708
| 15> H 	 -104.722 	 5.46615 	 -105.914
| 16> C 	 -106.16 	 4.10693 	 -106.97
| 17> H 	 -106.175 	 3.64681 	 -107.935
| 18> H 	 -106.177 	 3.33508 	 -106.132
| 19> C 	 -107.4 	 5.02617 	 -106.914
| 20> H 	 -108.195 	 4.48351 	 -106.441
| 21> H 	 -107.296 	 5.88482 	 -106.332
| 22> H 	 -107.686 	 5.45769 	 -107.907
| 23> S 	 -99.6085 	 1.34566 	 -105.773
| 24> C 	 -99.5268 	 0.0596176 	 -104.655
| 25> C 	 -100.784 	 -0.504187 	 -104.462
| 26> C 	 -101.846 	 0.350409 	 -104.98
| 27> C 	 -101.398 	 1.35698 	 -105.849
| 28> H 	 -100.928 	 -1.31344 	 -103.833
| 29> C 	 -103.286 	 -0.123139 	 -104.801
| 30> H 	 -103.948 	 0.765494 	 -104.831
| 31> H 	 -103.3 	 -0.425173 	 -103.802
| 32> C 	 -103.738 	 -1.27485 	 -105.708
| 33> H 	 -103.326 	 -2.23073 	 -105.381
| 34> H 	 -103.388 	 -1.1627 	 -106.723
| 35> C 	 -105.233 	 -1.6405 	 -105.79
| 36> H 	 -105.64 	 -1.78043 	 -104.838
| 37> H 	 -105.566 	 -2.38457 	 -106.517
| 38> H 	 -105.72 	 -0.766235 	 -106.207
| 39> H 	 -103.072 	 4.65623 	 -109.183
| 40> H 	 -98.6569 	 -0.433213 	 -104.243
| 41> *
| 42>
| 43>                          ****END OF INPUT****

CARTESIAN COORDINATES (ANGSTROEM)
---------------------------------
  S    -101.473000    3.003800  -108.167000
  C    -102.820000    4.102990  -108.341000
  C    -103.638000    4.070510  -107.211000
  C    -103.063000    3.187250  -106.239000
  C    -102.002000    2.422570  -106.650000
  H    -103.428000    3.101620  -105.208000
  C    -104.904000    4.954020  -106.912000
  H    -105.071000    5.694980  -107.708000
  H    -104.722000    5.466150  -105.914000
  C    -106.160000    4.106930  -106.970000
  H    -106.175000    3.646810  -107.935000
  H    -106.177000    3.335080  -106.132000
  C    -107.400000    5.026170  -106.914000
  H    -108.195000    4.483510  -106.441000
  H    -107.296000    5.884820  -106.332000
  H    -107.686000    5.457690  -107.907000
  S    -99.608500    1.345660  -105.773000
  C    -99.526800    0.059618  -104.655000
  C    -100.784000   -0.504187  -104.462000
  C    -101.846000    0.350409  -104.980000
  C    -101.398000    1.356980  -105.849000
  H    -100.928000   -1.313440  -103.833000
  C    -103.286000   -0.123139  -104.801000
  H    -103.948000    0.765494  -104.831000
  H    -103.300000   -0.425173  -103.802000
  C    -103.738000   -1.274850  -105.708000
  H    -103.326000   -2.230730  -105.381000
  H    -103.388000   -1.162700  -106.723000
  C    -105.233000   -1.640500  -105.790000
  H    -105.640000   -1.780430  -104.838000
  H    -105.566000   -2.384570  -106.517000
  H    -105.720000   -0.766235  -106.207000
  H    -103.072000    4.656230  -109.183000
  H    -98.656900   -0.433213  -104.243000

 Total Charge           Charge          ....    0
 Multiplicity           Mult            ....    1
 Number of Electrons    NEL             ....  134
 Basis Dimension        Dim             ....  322

ORBITAL ENERGIES
----------------

  NO   OCC          E(Eh)            E(eV)
   0   2.0000     -88.968272     -2420.9498
   1   2.0000     -88.963386     -2420.8168
   2   2.0000     -10.335243      -281.2363
   3   2.0000     -10.329167      -281.0709
   4   2.0000     -10.317863      -280.7633
   5   2.0000     -10.312098      -280.6064
   6   2.0000     -10.310332      -280.5584
   7   2.0000     -10.304786      -280.4075
   8   2.0000     -10.303516      -280.3729
   9   2.0000     -10.291567      -280.0478
  10   2.0000     -10.291463      -280.0449
  11   2.0000     -10.290414      -280.0164
  12   2.0000     -10.290297      -280.0132
  13   2.0000     -10.283514      -279.8286
  14   2.0000     -10.274773      -279.5908
  15   2.0000     -10.270702      -279.4800
  16   2.0000      -8.083529      -219.9640
  17   2.0000      -8.078457      -219.8260
  18   2.0000      -6.042079      -164.4133
  19   2.0000      -6.037869      -164.2988
  20   2.0000      -6.036992      -164.2749
  21   2.0000      -6.034301      -164.2017
  22   2.0000      -6.032756      -164.1596
  23   2.0000      -6.029334      -164.0665
  24   2.0000      -1.008918       -27.4541
  25   2.0000      -0.985666       -26.8213
  26   2.0000      -0.913597       -24.8603
  27   2.0000      -0.906865       -24.6771
  28   2.0000      -0.871496       -23.7146
  29   2.0000      -0.852230       -23.1903
  30   2.0000      -0.844284       -22.9741
  31   2.0000      -0.814154       -22.1542
  32   2.0000      -0.783483       -21.3197
  33   2.0000      -0.776209       -21.1217
  34   2.0000      -0.708468       -19.2784
  35   2.0000      -0.697276       -18.9738
  36   2.0000      -0.696497       -18.9526
  37   2.0000      -0.665101       -18.0983
  38   2.0000      -0.642371       -17.4798
  39   2.0000      -0.622119       -16.9287
  40   2.0000      -0.591104       -16.0848
  41   2.0000      -0.571593       -15.5538
  42   2.0000      -0.570189       -15.5156
  43   2.0000      -0.562029       -15.2936
  44   2.0000      -0.530055       -14.4235
  45   2.0000      -0.525023       -14.2866
  46   2.0000      -0.518968       -14.1218
  47   2.0000      -0.512893       -13.9565
  48   2.0000      -0.503320       -13.6960
  49   2.0000      -0.502453       -13.6724
  50   2.0000      -0.495539       -13.4843
  51   2.0000      -0.489302       -13.3146
  52   2.0000      -0.473421       -12.8825
  53   2.0000      -0.466879       -12.7044
  54   2.0000      -0.458284       -12.4705
  55   2.0000      -0.448617       -12.2075
  56   2.0000      -0.443114       -12.0578
  57   2.0000      -0.437672       -11.9097
  58   2.0000      -0.433784       -11.8039
  59   2.0000      -0.428509       -11.6603
  60   2.0000      -0.413926       -11.2635
  61   2.0000      -0.411417       -11.1952
  62   2.0000      -0.406331       -11.0568
  63   2.0000      -0.354187        -9.6379
  64   2.0000      -0.330518        -8.9938
  65   2.0000      -0.328347        -8.9348
  66   2.0000      -0.290027        -7.8920
  67   0.0000       0.027626         0.7517
  68   0.0000       0.073571         2.0020
  69   0.0000       0.113166         3.0794
  70   0.0000       0.116111         3.1595
  71   0.0000       0.128975         3.5096

MULLIKEN ATOMIC CHARGES
-----------------------
   0 S :    0.120396
   1 C :   -0.094953
   2 C :   -0.089822
   3 C :   -0.009972
   4 C :   -0.111384
   5 H :    0.020974
   6 C :    0.036983
   7 H :    0.020439
   8 H :    0.055115
   9 C :   -0.088417
  10 H :    0.032648
  11 H :    0.043566
  12 C :   -0.023467
  13 H :    0.029419
  14 H :    0.009118
  15 H :    0.036850
  16 S :    0.092196
  17 C :   -0.070560
  18 C :   -0.020103
  19 C :   -0.097117
  20 C :   -0.127783
  21 H :   -0.002954
  22 C :    0.112793
  23 H :    0.013838
  24 H :    0.003232
  25 C :   -0.058553
  26 H :    0.018832
  27 H :    0.031762
  28 C :   -0.035482
  29 H :    0.018258
  30 H :    0.038500
  31 H :    0.013911
  32 H :    0.021254
  33 H :    0.060482
Sum of atomic charges:   -0.0000000

LOEWDIN ATOMIC CHARGES
----------------------
   0 S :    0.425847
   1 C :   -0.192740
   2 C :   -0.058907
   3 C :   -0.070278
   4 C :   -0.213170
   5 H :    0.030018
   6 C :   -0.030486
   7 H :    0.029294
   8 H :    0.039736
   9 C :   -0.041325
  10 H :    0.025658
  11 H :    0.028475
  12 C :   -0.066668
  13 H :    0.026350
  14 H :    0.014300
  15 H :    0.031625
  16 S :    0.404877
  17 C :   -0.191937
  18 C :   -0.065299
  19 C :   -0.050055
  20 C :   -0.181217
  21 H :    0.017941
  22 C :   -0.029034
  23 H :    0.029231
  24 H :    0.023045
  25 C :   -0.037817
  26 H :    0.022581
  27 H :    0.025525
  28 C :   -0.064799
  29 H :    0.014423
  30 H :    0.032395
  31 H :    0.022403
  32 H :    0.015868
  33 H :    0.034138

  Mayer bond orders larger than 0.100000
B(  0-S ,  1-C ) :   1.1406 B(  0-S ,  4-C ) :   1.1545 B(  1-C ,  2-C ) :   1.6030
B(  1-C , 32-H ) :   0.9767 B(  2-C ,  3-C ) :   1.2549 B(  2-C ,  6-C ) :   1.0148
B(  3-C ,  4-C ) :   1.5630 B(  3-C ,  5-H ) :   0.9869 B(  4-C , 20-C ) :   1.0460
B(  6-C ,  7-H ) :   0.9470 B(  6-C ,  8-H ) :   0.9436 B(  6-C ,  9-C ) :   1.0612
B(  9-C , 10-H ) :   0.9561 B(  9-C , 11-H ) :   0.9612 B(  9-C , 12-C ) :   1.0764
B( 12-C , 13-H ) :   0.9741 B( 12-C , 14-H ) :   0.9730 B( 12-C , 15-H ) :   0.9741
B( 16-S , 17-C ) :   1.1746 B( 16-S , 20-C ) :   1.1229 B( 17-C , 18-C ) :   1.5980
B( 17-C , 33-H ) :   0.9655 B( 18-C , 19-C ) :   1.2382 B( 18-C , 21-H ) :   0.9946
B( 19-C , 20-C ) :   1.5917 B( 19-C , 22-C ) :   1.0601 B( 22-C , 23-H ) :   0.9379
B( 22-C , 24-H ) :   0.9152 B( 22-C , 25-C ) :   1.0544 B( 25-C , 26-H ) :   0.9534
B( 25-C , 27-H ) :   0.9620 B( 25-C , 28-C ) :   1.0832 B( 28-C , 29-H ) :   0.9761
B( 28-C , 30-H ) :   0.9735 B( 28-C , 31-H ) :   0.9730

Dispersion correction           -0.013578305
FINAL SINGLE POINT ENERGY     -1339.861094490944

DIPOLE MOMENT
-------------
                                X             Y             Z
Electronic contribution:     31.64280       2.62798      -4.16101
Nuclear contribution   :    -32.30218      -2.71047       4.44438
                        -----------------------------------------
Total Dipole Moment    :     -0.65937      -0.08249       0.28337
                        -----------------------------------------
Magnitude (a.u.)       :      0.72241
Magnitude (Debye)      :      1.83622

Rotational constants in cm-1:     0.017198     0.008774     0.006446
Rotational constants in MHz :   515.584905   263.031873   193.232369

                             ****ORCA TERMINATED NORMALLY****
TOTAL RUN TIME: 0 days 0 hours 0 minutes 21 seconds 51 msec
