                         Program Version 4.2.1 -  RELEASE  -
|  1> ! wB97X-D3 SP def2-SVP
|  2> %pal
|  3> nprocs 24
|  4> end
|  5>
|  6> * xyz 0 1
|  7> S 	 -37.1796 	 0.449035 	 -5.71204
|  8> C 	 -36.898 	 0.851918 	 -4.0608
|  9> C 	 -37.8426 	 1.7886 	 -3.623
| 10> C 	 -38.879 	 2.06282 	 -4.54352
| 11> C 	 -38.7545 	 1.33566 	 -5.6942
| 12> H 	 -39.6465 	 2.82602 	 -4.41254
| 13> C 	 -37.933 	 2.23349 	 -2.26513
| 14> H 	 -37.658 	 1.44833 	 -1.54877
| 15> H 	 -38.9417 	 2.62715 	 -1.94764
| 16> C 	 -37.0549 	 3.4895 	 -2.05965
| 17> H 	 -35.9664 	 3.2754 	 -2.35994
| 18> H 	 -37.411 	 4.33077 	 -2.63485
| 19> C 	 -37.2919 	 3.89395 	 -0.580224
| 20> H 	 -38.2342 	 4.37884 	 -0.303363
| 21> H 	 -37.0799 	 3.07686 	 0.0852092
| 22> H 	 -36.5395 	 4.68678 	 -0.365594
| 23> S 	 -38.6686 	 1.68227 	 -8.38652
| 24> C 	 -40.1607 	 1.76586 	 -9.27471
| 25> C 	 -41.1394 	 1.32622 	 -8.47372
| 26> C 	 -40.8809 	 1.1278 	 -7.15067
| 27> C 	 -39.5445 	 1.38498 	 -6.9248
| 28> H 	 -42.0709 	 1.20036 	 -8.97004
| 29> C 	 -42.0367 	 0.841972 	 -6.17225
| 30> H 	 -42.9343 	 0.855881 	 -6.79944
| 31> H 	 -42.1975 	 1.63468 	 -5.46885
| 32> C 	 -41.8671 	 -0.435754 	 -5.30952
| 33> H 	 -41.1642 	 -0.300068 	 -4.42422
| 34> H 	 -41.2836 	 -1.18929 	 -5.78516
| 35> C 	 -43.2112 	 -1.03455 	 -4.74004
| 36> H 	 -42.9431 	 -1.49568 	 -3.7337
| 37> H 	 -43.7017 	 -1.7684 	 -5.36878
| 38> H 	 -43.9633 	 -0.250059 	 -4.58436
| 39> H 	 -36.273 	 0.307873 	 -3.41546
| 40> H 	 -40.2462 	 1.9842 	 -10.2892
| 41> *
| 42>
| 43>                          ****END OF INPUT****

CARTESIAN COORDINATES (ANGSTROEM)
---------------------------------
  S    -37.179600    0.449035   -5.712040
  C    -36.898000    0.851918   -4.060800
  C    -37.842600    1.788600   -3.623000
  C    -38.879000    2.062820   -4.543520
  C    -38.754500    1.335660   -5.694200
  H    -39.646500    2.826020   -4.412540
  C    -37.933000    2.233490   -2.265130
  H    -37.658000    1.448330   -1.548770
  H    -38.941700    2.627150   -1.947640
  C    -37.054900    3.489500   -2.059650
  H    -35.966400    3.275400   -2.359940
  H    -37.411000    4.330770   -2.634850
  C    -37.291900    3.893950   -0.580224
  H    -38.234200    4.378840   -0.303363
  H    -37.079900    3.076860    0.085209
  H    -36.539500    4.686780   -0.365594
  S    -38.668600    1.682270   -8.386520
  C    -40.160700    1.765860   -9.274710
  C    -41.139400    1.326220   -8.473720
  C    -40.880900    1.127800   -7.150670
  C    -39.544500    1.384980   -6.924800
  H    -42.070900    1.200360   -8.970040
  C    -42.036700    0.841972   -6.172250
  H    -42.934300    0.855881   -6.799440
  H    -42.197500    1.634680   -5.468850
  C    -41.867100   -0.435754   -5.309520
  H    -41.164200   -0.300068   -4.424220
  H    -41.283600   -1.189290   -5.785160
  C    -43.211200   -1.034550   -4.740040
  H    -42.943100   -1.495680   -3.733700
  H    -43.701700   -1.768400   -5.368780
  H    -43.963300   -0.250059   -4.584360
  H    -36.273000    0.307873   -3.415460
  H    -40.246200    1.984200  -10.289200

 Total Charge           Charge          ....    0
 Multiplicity           Mult            ....    1
 Number of Electrons    NEL             ....  134
 Basis Dimension        Dim             ....  322

ORBITAL ENERGIES
----------------

  NO   OCC          E(Eh)            E(eV)
   0   2.0000     -88.963230     -2420.8125
   1   2.0000     -88.963181     -2420.8112
   2   2.0000     -10.330938      -281.1191
   3   2.0000     -10.323413      -280.9143
   4   2.0000     -10.307654      -280.4855
   5   2.0000     -10.303562      -280.3742
   6   2.0000     -10.296432      -280.1802
   7   2.0000     -10.295850      -280.1643
   8   2.0000     -10.293454      -280.0991
   9   2.0000     -10.292979      -280.0862
  10   2.0000     -10.291429      -280.0440
  11   2.0000     -10.287102      -279.9263
  12   2.0000     -10.286999      -279.9235
  13   2.0000     -10.283759      -279.8353
  14   2.0000     -10.278505      -279.6923
  15   2.0000     -10.277959      -279.6775
  16   2.0000      -8.078759      -219.8342
  17   2.0000      -8.077671      -219.8046
  18   2.0000      -6.037149      -164.2792
  19   2.0000      -6.036216      -164.2538
  20   2.0000      -6.033214      -164.1721
  21   2.0000      -6.032279      -164.1467
  22   2.0000      -6.029516      -164.0715
  23   2.0000      -6.028353      -164.0398
  24   2.0000      -1.014868       -27.6160
  25   2.0000      -0.990264       -26.9464
  26   2.0000      -0.916624       -24.9426
  27   2.0000      -0.900875       -24.5141
  28   2.0000      -0.871098       -23.7038
  29   2.0000      -0.852707       -23.2033
  30   2.0000      -0.847454       -23.0604
  31   2.0000      -0.818187       -22.2640
  32   2.0000      -0.780343       -21.2342
  33   2.0000      -0.764050       -20.7909
  34   2.0000      -0.711228       -19.3535
  35   2.0000      -0.697779       -18.9875
  36   2.0000      -0.696107       -18.9420
  37   2.0000      -0.663459       -18.0536
  38   2.0000      -0.644881       -17.5481
  39   2.0000      -0.625290       -17.0150
  40   2.0000      -0.604593       -16.4518
  41   2.0000      -0.572091       -15.5674
  42   2.0000      -0.559678       -15.2296
  43   2.0000      -0.546529       -14.8718
  44   2.0000      -0.529225       -14.4010
  45   2.0000      -0.523970       -14.2580
  46   2.0000      -0.517187       -14.0734
  47   2.0000      -0.515501       -14.0275
  48   2.0000      -0.504779       -13.7357
  49   2.0000      -0.498573       -13.5669
  50   2.0000      -0.490215       -13.3394
  51   2.0000      -0.484191       -13.1755
  52   2.0000      -0.470889       -12.8135
  53   2.0000      -0.463921       -12.6239
  54   2.0000      -0.456398       -12.4192
  55   2.0000      -0.450226       -12.2513
  56   2.0000      -0.445972       -12.1355
  57   2.0000      -0.440897       -11.9974
  58   2.0000      -0.436198       -11.8695
  59   2.0000      -0.424254       -11.5445
  60   2.0000      -0.417292       -11.3551
  61   2.0000      -0.407762       -11.0958
  62   2.0000      -0.404782       -11.0147
  63   2.0000      -0.352018        -9.5789
  64   2.0000      -0.334837        -9.1114
  65   2.0000      -0.323260        -8.7964
  66   2.0000      -0.286005        -7.7826
  67   0.0000       0.031547         0.8584
  68   0.0000       0.059477         1.6184
  69   0.0000       0.108142         2.9427
  70   0.0000       0.125528         3.4158
  71   0.0000       0.136395         3.7115

MULLIKEN ATOMIC CHARGES
-----------------------
   0 S :    0.092967
   1 C :   -0.096614
   2 C :   -0.047757
   3 C :    0.037078
   4 C :   -0.139974
   5 H :    0.020228
   6 C :    0.002681
   7 H :    0.033023
   8 H :    0.025099
   9 C :   -0.104709
  10 H :    0.048802
  11 H :    0.030969
  12 C :   -0.050106
  13 H :    0.041351
  14 H :    0.026037
  15 H :    0.029336
  16 S :    0.108907
  17 C :   -0.069707
  18 C :   -0.043549
  19 C :    0.010813
  20 C :   -0.183145
  21 H :   -0.002134
  22 C :    0.115444
  23 H :    0.016512
  24 H :    0.029653
  25 C :   -0.104233
  26 H :    0.041580
  27 H :    0.024159
  28 C :   -0.071212
  29 H :    0.043478
  30 H :    0.041098
  31 H :    0.030051
  32 H :    0.035049
  33 H :    0.028824
Sum of atomic charges:    0.0000000

LOEWDIN ATOMIC CHARGES
----------------------
   0 S :    0.386196
   1 C :   -0.202128
   2 C :   -0.064004
   3 C :   -0.059580
   4 C :   -0.165622
   5 H :    0.037132
   6 C :   -0.042960
   7 H :    0.031615
   8 H :    0.034244
   9 C :   -0.035809
  10 H :    0.031635
  11 H :    0.023030
  12 C :   -0.072918
  13 H :    0.027349
  14 H :    0.019407
  15 H :    0.028765
  16 S :    0.418853
  17 C :   -0.180071
  18 C :   -0.071753
  19 C :   -0.063347
  20 C :   -0.197531
  21 H :    0.026077
  22 C :   -0.022364
  23 H :    0.031220
  24 H :    0.030623
  25 C :   -0.049280
  26 H :    0.033862
  27 H :    0.019428
  28 C :   -0.071222
  29 H :    0.035598
  30 H :    0.022837
  31 H :    0.023040
  32 H :    0.018990
  33 H :    0.018686

  Mayer bond orders larger than 0.100000
B(  0-S ,  1-C ) :   1.1320 B(  0-S ,  4-C ) :   1.1403 B(  1-C ,  2-C ) :   1.5820
B(  1-C ,  4-C ) :   0.1014 B(  1-C , 32-H ) :   0.9746 B(  2-C ,  3-C ) :   1.2435
B(  2-C ,  6-C ) :   1.0430 B(  3-C ,  4-C ) :   1.5856 B(  3-C ,  5-H ) :   0.9922
B(  4-C , 20-C ) :   1.0289 B(  6-C ,  7-H ) :   0.9461 B(  6-C ,  8-H ) :   0.9486
B(  6-C ,  9-C ) :   1.0422 B(  9-C , 10-H ) :   0.9594 B(  9-C , 11-H ) :   0.9561
B(  9-C , 12-C ) :   1.0729 B( 12-C , 13-H ) :   0.9736 B( 12-C , 14-H ) :   0.9744
B( 12-C , 15-H ) :   0.9724 B( 16-S , 17-C ) :   1.1400 B( 16-S , 20-C ) :   1.1740
B( 17-C , 18-C ) :   1.6062 B( 17-C , 20-C ) :   0.1061 B( 17-C , 33-H ) :   0.9786
B( 18-C , 19-C ) :   1.2667 B( 18-C , 21-H ) :   0.9902 B( 19-C , 20-C ) :   1.5593
B( 19-C , 22-C ) :   1.0300 B( 22-C , 23-H ) :   0.9427 B( 22-C , 24-H ) :   0.9313
B( 22-C , 25-C ) :   1.0385 B( 25-C , 26-H ) :   0.9587 B( 25-C , 27-H ) :   0.9659
B( 25-C , 28-C ) :   1.0613 B( 28-C , 29-H ) :   0.9793 B( 28-C , 30-H ) :   0.9796
B( 28-C , 31-H ) :   0.9776

Dispersion correction           -0.013798307
FINAL SINGLE POINT ENERGY     -1339.856693223857

DIPOLE MOMENT
-------------
                                X             Y             Z
Electronic contribution:     12.31955      -2.58697     -24.62739
Nuclear contribution   :    -12.79798       2.74156      25.03685
                        -----------------------------------------
Total Dipole Moment    :     -0.47843       0.15459       0.40946
                        -----------------------------------------
Magnitude (a.u.)       :      0.64843
Magnitude (Debye)      :      1.64817

Rotational constants in cm-1:     0.018179     0.008266     0.006657
Rotational constants in MHz :   545.003367   247.815010   199.570189

                             ****ORCA TERMINATED NORMALLY****
TOTAL RUN TIME: 0 days 0 hours 0 minutes 20 seconds 213 msec
