                         Program Version 4.2.1 -  RELEASE  -
|  1> ! wB97X-D3 SP def2-SVP
|  2> %pal
|  3> nprocs 24
|  4> end
|  5>
|  6> * xyz 0 1
|  7> S 	 -38.4823 	 15.4446 	 14.7931
|  8> C 	 -39.0826 	 15.2083 	 16.4093
|  9> C 	 -39.473 	 16.4508 	 16.9876
| 10> C 	 -39.0416 	 17.4755 	 16.1354
| 11> C 	 -38.3916 	 17.0956 	 14.9505
| 12> H 	 -39.1081 	 18.5592 	 16.1776
| 13> C 	 -39.8472 	 16.719 	 18.4259
| 14> H 	 -39.4662 	 17.6906 	 18.7205
| 15> H 	 -39.3645 	 15.9967 	 19.1624
| 16> C 	 -41.3526 	 16.7486 	 18.6511
| 17> H 	 -41.8248 	 17.6198 	 18.1598
| 18> H 	 -41.9054 	 15.8394 	 18.1817
| 19> C 	 -41.9119 	 16.9658 	 20.1331
| 20> H 	 -41.7842 	 16.0121 	 20.7052
| 21> H 	 -41.3325 	 17.6356 	 20.7335
| 22> H 	 -42.9074 	 17.4453 	 20.2007
| 23> S 	 -38.1684 	 17.2356 	 12.2047
| 24> C 	 -38.0577 	 18.7783 	 11.5059
| 25> C 	 -37.8409 	 19.7593 	 12.433
| 26> C 	 -37.8667 	 19.2986 	 13.7514
| 27> C 	 -38.2149 	 17.9849 	 13.798
| 28> H 	 -37.6771 	 20.7405 	 12.0796
| 29> C 	 -37.652 	 20.2193 	 14.9079
| 30> H 	 -36.719 	 20.6844 	 14.7463
| 31> H 	 -37.4862 	 19.806 	 15.9172
| 32> C 	 -38.765 	 21.2891 	 14.9801
| 33> H 	 -38.6469 	 21.935 	 14.0877
| 34> H 	 -38.4213 	 21.9598 	 15.737
| 35> C 	 -40.1889 	 20.8336 	 15.0654
| 36> H 	 -40.8628 	 21.6457 	 14.9645
| 37> H 	 -40.3947 	 20.2394 	 15.9277
| 38> H 	 -40.3828 	 20.2726 	 14.1813
| 39> H 	 -39.195 	 14.2398 	 16.9018
| 40> H 	 -38.2389 	 18.9492 	 10.4615
| 41> *
| 42>
| 43>                          ****END OF INPUT****

CARTESIAN COORDINATES (ANGSTROEM)
---------------------------------
  S    -38.482300   15.444600   14.793100
  C    -39.082600   15.208300   16.409300
  C    -39.473000   16.450800   16.987600
  C    -39.041600   17.475500   16.135400
  C    -38.391600   17.095600   14.950500
  H    -39.108100   18.559200   16.177600
  C    -39.847200   16.719000   18.425900
  H    -39.466200   17.690600   18.720500
  H    -39.364500   15.996700   19.162400
  C    -41.352600   16.748600   18.651100
  H    -41.824800   17.619800   18.159800
  H    -41.905400   15.839400   18.181700
  C    -41.911900   16.965800   20.133100
  H    -41.784200   16.012100   20.705200
  H    -41.332500   17.635600   20.733500
  H    -42.907400   17.445300   20.200700
  S    -38.168400   17.235600   12.204700
  C    -38.057700   18.778300   11.505900
  C    -37.840900   19.759300   12.433000
  C    -37.866700   19.298600   13.751400
  C    -38.214900   17.984900   13.798000
  H    -37.677100   20.740500   12.079600
  C    -37.652000   20.219300   14.907900
  H    -36.719000   20.684400   14.746300
  H    -37.486200   19.806000   15.917200
  C    -38.765000   21.289100   14.980100
  H    -38.646900   21.935000   14.087700
  H    -38.421300   21.959800   15.737000
  C    -40.188900   20.833600   15.065400
  H    -40.862800   21.645700   14.964500
  H    -40.394700   20.239400   15.927700
  H    -40.382800   20.272600   14.181300
  H    -39.195000   14.239800   16.901800
  H    -38.238900   18.949200   10.461500

 Total Charge           Charge          ....    0
 Multiplicity           Mult            ....    1
 Number of Electrons    NEL             ....  134
 Basis Dimension        Dim             ....  322

ORBITAL ENERGIES
----------------

  NO   OCC          E(Eh)            E(eV)
   0   2.0000     -88.967893     -2420.9394
   1   2.0000     -88.963370     -2420.8164
   2   2.0000     -10.323683      -280.9217
   3   2.0000     -10.319253      -280.8011
   4   2.0000     -10.317983      -280.7666
   5   2.0000     -10.309290      -280.5300
   6   2.0000     -10.305956      -280.4393
   7   2.0000     -10.300272      -280.2846
   8   2.0000     -10.296744      -280.1887
   9   2.0000     -10.295786      -280.1626
  10   2.0000     -10.289304      -279.9862
  11   2.0000     -10.287488      -279.9368
  12   2.0000     -10.285876      -279.8929
  13   2.0000     -10.283918      -279.8396
  14   2.0000     -10.283533      -279.8292
  15   2.0000     -10.267875      -279.4031
  16   2.0000      -8.084201      -219.9823
  17   2.0000      -8.079470      -219.8536
  18   2.0000      -6.042398      -164.4220
  19   2.0000      -6.038390      -164.3129
  20   2.0000      -6.037898      -164.2996
  21   2.0000      -6.035300      -164.2289
  22   2.0000      -6.034031      -164.1943
  23   2.0000      -6.030008      -164.0849
  24   2.0000      -1.019548       -27.7433
  25   2.0000      -0.995376       -27.0855
  26   2.0000      -0.919040       -25.0084
  27   2.0000      -0.909672       -24.7534
  28   2.0000      -0.866908       -23.5898
  29   2.0000      -0.858485       -23.3606
  30   2.0000      -0.845490       -23.0070
  31   2.0000      -0.811736       -22.0884
  32   2.0000      -0.793065       -21.5804
  33   2.0000      -0.779604       -21.2141
  34   2.0000      -0.706888       -19.2354
  35   2.0000      -0.697888       -18.9905
  36   2.0000      -0.693324       -18.8663
  37   2.0000      -0.665051       -18.0969
  38   2.0000      -0.641963       -17.4687
  39   2.0000      -0.621759       -16.9189
  40   2.0000      -0.605549       -16.4778
  41   2.0000      -0.570162       -15.5149
  42   2.0000      -0.561781       -15.2868
  43   2.0000      -0.552214       -15.0265
  44   2.0000      -0.544501       -14.8166
  45   2.0000      -0.527723       -14.3601
  46   2.0000      -0.518588       -14.1115
  47   2.0000      -0.512771       -13.9532
  48   2.0000      -0.501393       -13.6436
  49   2.0000      -0.495707       -13.4889
  50   2.0000      -0.492374       -13.3982
  51   2.0000      -0.484147       -13.1743
  52   2.0000      -0.474790       -12.9197
  53   2.0000      -0.469272       -12.7695
  54   2.0000      -0.462564       -12.5870
  55   2.0000      -0.455920       -12.4062
  56   2.0000      -0.451791       -12.2938
  57   2.0000      -0.439352       -11.9554
  58   2.0000      -0.431751       -11.7486
  59   2.0000      -0.423371       -11.5205
  60   2.0000      -0.416212       -11.3257
  61   2.0000      -0.409465       -11.1421
  62   2.0000      -0.405246       -11.0273
  63   2.0000      -0.358860        -9.7651
  64   2.0000      -0.338218        -9.2034
  65   2.0000      -0.329224        -8.9586
  66   2.0000      -0.278471        -7.5776
  67   0.0000       0.024692         0.6719
  68   0.0000       0.079583         2.1656
  69   0.0000       0.098430         2.6784
  70   0.0000       0.116878         3.1804
  71   0.0000       0.134176         3.6511

MULLIKEN ATOMIC CHARGES
-----------------------
   0 S :    0.104049
   1 C :   -0.130436
   2 C :   -0.018661
   3 C :   -0.020380
   4 C :   -0.093215
   5 H :   -0.026895
   6 C :    0.063648
   7 H :    0.022101
   8 H :    0.042703
   9 C :   -0.132509
  10 H :    0.032177
  11 H :    0.048857
  12 C :   -0.062228
  13 H :    0.037841
  14 H :    0.011356
  15 H :    0.047524
  16 S :    0.095745
  17 C :   -0.080995
  18 C :   -0.029493
  19 C :   -0.040390
  20 C :   -0.142053
  21 H :   -0.001196
  22 C :    0.064896
  23 H :    0.013517
  24 H :    0.035134
  25 C :   -0.094354
  26 H :    0.017469
  27 H :    0.015850
  28 C :    0.015935
  29 H :    0.021946
  30 H :    0.043178
  31 H :    0.031130
  32 H :    0.055687
  33 H :    0.052063
Sum of atomic charges:    0.0000000

LOEWDIN ATOMIC CHARGES
----------------------
   0 S :    0.454463
   1 C :   -0.202106
   2 C :   -0.060354
   3 C :   -0.070278
   4 C :   -0.224724
   5 H :    0.023426
   6 C :   -0.033607
   7 H :    0.030752
   8 H :    0.038877
   9 C :   -0.053192
  10 H :    0.024842
  11 H :    0.032692
  12 C :   -0.079520
  13 H :    0.028281
  14 H :    0.017349
  15 H :    0.033113
  16 S :    0.407274
  17 C :   -0.191900
  18 C :   -0.065889
  19 C :   -0.063415
  20 C :   -0.182566
  21 H :    0.025085
  22 C :   -0.032789
  23 H :    0.030987
  24 H :    0.032649
  25 C :   -0.038688
  26 H :    0.023736
  27 H :    0.017990
  28 C :   -0.057671
  29 H :    0.026985
  30 H :    0.021470
  31 H :    0.030007
  32 H :    0.030136
  33 H :    0.026585

  Mayer bond orders larger than 0.100000
B(  0-S ,  1-C ) :   1.1854 B(  0-S ,  4-C ) :   1.1741 B(  1-C ,  2-C ) :   1.5118
B(  1-C ,  4-C ) :   0.1038 B(  1-C , 32-H ) :   0.9730 B(  2-C ,  3-C ) :   1.3025
B(  2-C ,  6-C ) :   1.0205 B(  3-C ,  4-C ) :   1.5172 B(  3-C ,  5-H ) :   0.9839
B(  4-C , 20-C ) :   1.0566 B(  6-C ,  7-H ) :   0.9429 B(  6-C ,  8-H ) :   0.9522
B(  6-C ,  9-C ) :   1.0468 B(  9-C , 10-H ) :   0.9594 B(  9-C , 11-H ) :   0.9632
B(  9-C , 12-C ) :   1.0621 B( 12-C , 13-H ) :   0.9762 B( 12-C , 14-H ) :   0.9727
B( 12-C , 15-H ) :   0.9791 B( 16-S , 17-C ) :   1.1621 B( 16-S , 20-C ) :   1.1311
B( 17-C , 18-C ) :   1.6097 B( 17-C , 33-H ) :   0.9690 B( 18-C , 19-C ) :   1.2236
B( 18-C , 21-H ) :   1.0058 B( 19-C , 20-C ) :   1.6075 B( 19-C , 22-C ) :   1.0461
B( 22-C , 23-H ) :   0.9174 B( 22-C , 24-H ) :   0.9315 B( 22-C , 25-C ) :   1.0832
B( 25-C , 26-H ) :   0.9511 B( 25-C , 27-H ) :   0.9533 B( 25-C , 28-C ) :   1.0839
B( 28-C , 29-H ) :   0.9635 B( 28-C , 30-H ) :   0.9646 B( 28-C , 31-H ) :   0.9635

Dispersion correction           -0.014832512
FINAL SINGLE POINT ENERGY     -1339.858302472389

DIPOLE MOMENT
-------------
                                X             Y             Z
Electronic contribution:     13.41322     -15.90335     -23.21598
Nuclear contribution   :    -13.52526      16.51881      23.53094
                        -----------------------------------------
Total Dipole Moment    :     -0.11204       0.61546       0.31496
                        -----------------------------------------
Magnitude (a.u.)       :      0.70039
Magnitude (Debye)      :      1.78025

Rotational constants in cm-1:     0.020484     0.008926     0.006675
Rotational constants in MHz :   614.087577   267.582717   200.103595

                             ****ORCA TERMINATED NORMALLY****
TOTAL RUN TIME: 0 days 0 hours 0 minutes 21 seconds 228 msec
