                         Program Version 4.2.1 -  RELEASE  -
|  1> ! wB97X-D3 SP def2-SVP
|  2> %pal
|  3> nprocs 24
|  4> end
|  5>
|  6> * xyz 0 1
|  7> S 	 -105.117 	 45.4659 	 -8.04612
|  8> C 	 -106.017 	 46.9978 	 -8.14437
|  9> C 	 -106.015 	 47.5657 	 -9.41201
| 10> C 	 -105.42 	 46.7265 	 -10.3935
| 11> C 	 -104.862 	 45.5726 	 -9.84566
| 12> H 	 -105.311 	 46.9258 	 -11.435
| 13> C 	 -106.668 	 48.8594 	 -9.78074
| 14> H 	 -105.887 	 49.4734 	 -10.2695
| 15> H 	 -107.154 	 49.2156 	 -8.84973
| 16> C 	 -107.811 	 48.7268 	 -10.7609
| 17> H 	 -108.263 	 49.6861 	 -10.9862
| 18> H 	 -107.515 	 48.3573 	 -11.7183
| 19> C 	 -108.928 	 47.7633 	 -10.2134
| 20> H 	 -108.55 	 46.7173 	 -10.1183
| 21> H 	 -109.081 	 48.0975 	 -9.18637
| 22> H 	 -109.911 	 47.6921 	 -10.7129
| 23> S 	 -102.501 	 44.8119 	 -11.0754
| 24> C 	 -102.364 	 43.2194 	 -11.7738
| 25> C 	 -103.552 	 42.5897 	 -11.8278
| 26> C 	 -104.616 	 43.2969 	 -11.0838
| 27> C 	 -104.173 	 44.4903 	 -10.5828
| 28> H 	 -103.53 	 41.6781 	 -12.3695
| 29> C 	 -106.013 	 42.7406 	 -10.7968
| 30> H 	 -106.283 	 42.9056 	 -9.78939
| 31> H 	 -105.904 	 41.6491 	 -10.9364
| 32> C 	 -107.125 	 43.306 	 -11.7228
| 33> H 	 -106.642 	 43.3169 	 -12.6407
| 34> H 	 -107.206 	 44.305 	 -11.4048
| 35> C 	 -108.388 	 42.5215 	 -11.8032
| 36> H 	 -109.214 	 43.0653 	 -12.3209
| 37> H 	 -108.646 	 42.0641 	 -10.8424
| 38> H 	 -108.21 	 41.5992 	 -12.3119
| 39> H 	 -106.262 	 47.5073 	 -7.2522
| 40> H 	 -101.456 	 42.8799 	 -12.1914
| 41> *
| 42>
| 43>                          ****END OF INPUT****

CARTESIAN COORDINATES (ANGSTROEM)
---------------------------------
  S    -105.117000   45.465900   -8.046120
  C    -106.017000   46.997800   -8.144370
  C    -106.015000   47.565700   -9.412010
  C    -105.420000   46.726500  -10.393500
  C    -104.862000   45.572600   -9.845660
  H    -105.311000   46.925800  -11.435000
  C    -106.668000   48.859400   -9.780740
  H    -105.887000   49.473400  -10.269500
  H    -107.154000   49.215600   -8.849730
  C    -107.811000   48.726800  -10.760900
  H    -108.263000   49.686100  -10.986200
  H    -107.515000   48.357300  -11.718300
  C    -108.928000   47.763300  -10.213400
  H    -108.550000   46.717300  -10.118300
  H    -109.081000   48.097500   -9.186370
  H    -109.911000   47.692100  -10.712900
  S    -102.501000   44.811900  -11.075400
  C    -102.364000   43.219400  -11.773800
  C    -103.552000   42.589700  -11.827800
  C    -104.616000   43.296900  -11.083800
  C    -104.173000   44.490300  -10.582800
  H    -103.530000   41.678100  -12.369500
  C    -106.013000   42.740600  -10.796800
  H    -106.283000   42.905600   -9.789390
  H    -105.904000   41.649100  -10.936400
  C    -107.125000   43.306000  -11.722800
  H    -106.642000   43.316900  -12.640700
  H    -107.206000   44.305000  -11.404800
  C    -108.388000   42.521500  -11.803200
  H    -109.214000   43.065300  -12.320900
  H    -108.646000   42.064100  -10.842400
  H    -108.210000   41.599200  -12.311900
  H    -106.262000   47.507300   -7.252200
  H    -101.456000   42.879900  -12.191400

 Total Charge           Charge          ....    0
 Multiplicity           Mult            ....    1
 Number of Electrons    NEL             ....  134
 Basis Dimension        Dim             ....  322

ORBITAL ENERGIES
----------------

  NO   OCC          E(Eh)            E(eV)
   0   2.0000     -88.969147     -2420.9736
   1   2.0000     -88.958430     -2420.6820
   2   2.0000     -10.338386      -281.3218
   3   2.0000     -10.325076      -280.9596
   4   2.0000     -10.315505      -280.6992
   5   2.0000     -10.311604      -280.5930
   6   2.0000     -10.308531      -280.5094
   7   2.0000     -10.302469      -280.3444
   8   2.0000     -10.297816      -280.2178
   9   2.0000     -10.296886      -280.1925
  10   2.0000     -10.293572      -280.1023
  11   2.0000     -10.286899      -279.9208
  12   2.0000     -10.286308      -279.9047
  13   2.0000     -10.279342      -279.7151
  14   2.0000     -10.274755      -279.5903
  15   2.0000     -10.269380      -279.4440
  16   2.0000      -8.082223      -219.9285
  17   2.0000      -8.073614      -219.6942
  18   2.0000      -6.040710      -164.3761
  19   2.0000      -6.037124      -164.2785
  20   2.0000      -6.032940      -164.1646
  21   2.0000      -6.032157      -164.1433
  22   2.0000      -6.028152      -164.0343
  23   2.0000      -6.024213      -163.9272
  24   2.0000      -1.000396       -27.2222
  25   2.0000      -0.980089       -26.6696
  26   2.0000      -0.915390       -24.9090
  27   2.0000      -0.909702       -24.7542
  28   2.0000      -0.867973       -23.6187
  29   2.0000      -0.848073       -23.0772
  30   2.0000      -0.844118       -22.9696
  31   2.0000      -0.816437       -22.2164
  32   2.0000      -0.781285       -21.2598
  33   2.0000      -0.771199       -20.9854
  34   2.0000      -0.711832       -19.3699
  35   2.0000      -0.701528       -19.0895
  36   2.0000      -0.693294       -18.8655
  37   2.0000      -0.661968       -18.0131
  38   2.0000      -0.643797       -17.5186
  39   2.0000      -0.622661       -16.9435
  40   2.0000      -0.595817       -16.2130
  41   2.0000      -0.568057       -15.4576
  42   2.0000      -0.564276       -15.3547
  43   2.0000      -0.560143       -15.2423
  44   2.0000      -0.539859       -14.6903
  45   2.0000      -0.526498       -14.3267
  46   2.0000      -0.519751       -14.1432
  47   2.0000      -0.513228       -13.9657
  48   2.0000      -0.505101       -13.7445
  49   2.0000      -0.496962       -13.5230
  50   2.0000      -0.486932       -13.2501
  51   2.0000      -0.473474       -12.8839
  52   2.0000      -0.466440       -12.6925
  53   2.0000      -0.462999       -12.5988
  54   2.0000      -0.455620       -12.3981
  55   2.0000      -0.451560       -12.2876
  56   2.0000      -0.447904       -12.1881
  57   2.0000      -0.439391       -11.9564
  58   2.0000      -0.426895       -11.6164
  59   2.0000      -0.424435       -11.5495
  60   2.0000      -0.417766       -11.3680
  61   2.0000      -0.417171       -11.3518
  62   2.0000      -0.414243       -11.2721
  63   2.0000      -0.338429        -9.2091
  64   2.0000      -0.331423        -9.0185
  65   2.0000      -0.323542        -8.8040
  66   2.0000      -0.308377        -8.3914
  67   0.0000       0.041007         1.1159
  68   0.0000       0.053861         1.4656
  69   0.0000       0.105716         2.8767
  70   0.0000       0.113771         3.0959
  71   0.0000       0.127780         3.4771

MULLIKEN ATOMIC CHARGES
-----------------------
   0 S :    0.100875
   1 C :   -0.113050
   2 C :   -0.096844
   3 C :    0.059236
   4 C :   -0.170252
   5 H :    0.012880
   6 C :    0.084378
   7 H :    0.048046
   8 H :    0.024600
   9 C :   -0.060117
  10 H :    0.030574
  11 H :    0.018645
  12 C :   -0.090677
  13 H :    0.053447
  14 H :    0.014599
  15 H :    0.046043
  16 S :    0.090051
  17 C :   -0.078106
  18 C :   -0.022416
  19 C :   -0.030233
  20 C :   -0.182145
  21 H :    0.009189
  22 C :    0.069713
  23 H :    0.018288
  24 H :    0.014238
  25 C :   -0.026310
  26 H :    0.006807
  27 H :    0.019563
  28 C :   -0.013883
  29 H :    0.051637
  30 H :    0.019177
  31 H :    0.009847
  32 H :    0.040018
  33 H :    0.042183
Sum of atomic charges:    0.0000000

LOEWDIN ATOMIC CHARGES
----------------------
   0 S :    0.368331
   1 C :   -0.182434
   2 C :   -0.062387
   3 C :   -0.050480
   4 C :   -0.167516
   5 H :    0.031556
   6 C :   -0.030231
   7 H :    0.041669
   8 H :    0.034459
   9 C :   -0.038269
  10 H :    0.024949
  11 H :    0.014717
  12 C :   -0.073641
  13 H :    0.030851
  14 H :    0.019750
  15 H :    0.028145
  16 S :    0.384141
  17 C :   -0.169113
  18 C :   -0.071631
  19 C :   -0.046564
  20 C :   -0.197906
  21 H :    0.029409
  22 C :   -0.022449
  23 H :    0.020503
  24 H :    0.027689
  25 C :   -0.034835
  26 H :    0.015788
  27 H :    0.018322
  28 C :   -0.067722
  29 H :    0.036176
  30 H :    0.027034
  31 H :    0.022945
  32 H :    0.017492
  33 H :    0.021251

  Mayer bond orders larger than 0.100000
B(  0-S ,  1-C ) :   1.1281 B(  0-S ,  4-C ) :   1.1371 B(  1-C ,  2-C ) :   1.6283
B(  1-C , 32-H ) :   0.9659 B(  2-C ,  3-C ) :   1.2041 B(  2-C ,  6-C ) :   1.0308
B(  3-C ,  4-C ) :   1.6113 B(  3-C ,  5-H ) :   0.9953 B(  4-C , 20-C ) :   1.0068
B(  6-C ,  7-H ) :   0.9306 B(  6-C ,  8-H ) :   0.9405 B(  6-C ,  9-C ) :   1.0800
B(  9-C , 10-H ) :   0.9574 B(  9-C , 11-H ) :   0.9530 B(  9-C , 12-C ) :   1.0570
B( 12-C , 13-H ) :   0.9717 B( 12-C , 14-H ) :   0.9763 B( 12-C , 15-H ) :   0.9773
B( 16-S , 17-C ) :   1.1400 B( 16-S , 20-C ) :   1.1274 B( 17-C , 18-C ) :   1.6648
B( 17-C , 33-H ) :   0.9709 B( 18-C , 19-C ) :   1.1698 B( 18-C , 21-H ) :   0.9983
B( 19-C , 20-C ) :   1.6547 B( 19-C , 22-C ) :   1.0428 B( 22-C , 23-H ) :   0.9311
B( 22-C , 24-H ) :   0.9369 B( 22-C , 25-C ) :   1.0560 B( 25-C , 26-H ) :   0.9529
B( 25-C , 27-H ) :   0.9537 B( 25-C , 28-C ) :   1.0913 B( 28-C , 29-H ) :   0.9716
B( 28-C , 30-H ) :   0.9691 B( 28-C , 31-H ) :   0.9655

Dispersion correction           -0.015458261
FINAL SINGLE POINT ENERGY     -1339.874699441242

DIPOLE MOMENT
-------------
                                X             Y             Z
Electronic contribution:     25.70576      -2.02833       8.31917
Nuclear contribution   :    -26.04052       2.07179      -8.69522
                        -----------------------------------------
Total Dipole Moment    :     -0.33476       0.04346      -0.37605
                        -----------------------------------------
Magnitude (a.u.)       :      0.50534
Magnitude (Debye)      :      1.28447

Rotational constants in cm-1:     0.017473     0.009687     0.007684
Rotational constants in MHz :   523.837071   290.397247   230.349926

                             ****ORCA TERMINATED NORMALLY****
TOTAL RUN TIME: 0 days 0 hours 0 minutes 22 seconds 437 msec
