                         Program Version 4.2.1 -  RELEASE  -
|  1> ! wB97X-D3 SP def2-SVP
|  2> %pal
|  3> nprocs 24
|  4> end
|  5>
|  6> * xyz 0 1
|  7> S 	 -116.321 	 52.8645 	 -37.3646
|  8> C 	 -116.242 	 51.2733 	 -38.155
|  9> C 	 -116.795 	 51.3719 	 -39.3869
| 10> C 	 -117.258 	 52.6607 	 -39.7553
| 11> C 	 -117.064 	 53.5797 	 -38.8074
| 12> H 	 -117.823 	 52.8481 	 -40.6636
| 13> C 	 -117.05 	 50.2412 	 -40.3119
| 14> H 	 -118.145 	 50.0422 	 -40.3472
| 15> H 	 -116.784 	 49.3127 	 -39.7828
| 16> C 	 -116.433 	 50.3597 	 -41.7907
| 17> H 	 -116.516 	 49.3222 	 -42.2101
| 18> H 	 -117.054 	 50.9493 	 -42.4434
| 19> C 	 -114.969 	 50.8573 	 -41.961
| 20> H 	 -114.739 	 51.8055 	 -41.4635
| 21> H 	 -114.135 	 50.1289 	 -41.6767
| 22> H 	 -114.722 	 51.097 	 -42.9932
| 23> S 	 -118.92 	 55.3589 	 -37.6781
| 24> C 	 -118.942 	 57.0045 	 -38.2648
| 25> C 	 -118.152 	 57.1486 	 -39.3526
| 26> C 	 -117.411 	 55.9805 	 -39.716
| 27> C 	 -117.512 	 54.9511 	 -38.7777
| 28> H 	 -118.229 	 58.0553 	 -39.9618
| 29> C 	 -116.382 	 55.918 	 -40.8519
| 30> H 	 -116.815 	 56.3706 	 -41.7285
| 31> H 	 -116.117 	 54.9107 	 -41.1002
| 32> C 	 -115.104 	 56.762 	 -40.4882
| 33> H 	 -114.541 	 56.2986 	 -39.7124
| 34> H 	 -115.501 	 57.6539 	 -40.0321
| 35> C 	 -114.027 	 56.8682 	 -41.6708
| 36> H 	 -113.103 	 57.24 	 -41.3323
| 37> H 	 -114.456 	 57.6583 	 -42.3765
| 38> H 	 -113.938 	 55.9643 	 -42.2402
| 39> H 	 -115.685 	 50.4196 	 -37.8298
| 40> H 	 -119.738 	 57.7877 	 -38.0159
| 41> *
| 42>
| 43>                          ****END OF INPUT****

CARTESIAN COORDINATES (ANGSTROEM)
---------------------------------
  S    -116.321000   52.864500  -37.364600
  C    -116.242000   51.273300  -38.155000
  C    -116.795000   51.371900  -39.386900
  C    -117.258000   52.660700  -39.755300
  C    -117.064000   53.579700  -38.807400
  H    -117.823000   52.848100  -40.663600
  C    -117.050000   50.241200  -40.311900
  H    -118.145000   50.042200  -40.347200
  H    -116.784000   49.312700  -39.782800
  C    -116.433000   50.359700  -41.790700
  H    -116.516000   49.322200  -42.210100
  H    -117.054000   50.949300  -42.443400
  C    -114.969000   50.857300  -41.961000
  H    -114.739000   51.805500  -41.463500
  H    -114.135000   50.128900  -41.676700
  H    -114.722000   51.097000  -42.993200
  S    -118.920000   55.358900  -37.678100
  C    -118.942000   57.004500  -38.264800
  C    -118.152000   57.148600  -39.352600
  C    -117.411000   55.980500  -39.716000
  C    -117.512000   54.951100  -38.777700
  H    -118.229000   58.055300  -39.961800
  C    -116.382000   55.918000  -40.851900
  H    -116.815000   56.370600  -41.728500
  H    -116.117000   54.910700  -41.100200
  C    -115.104000   56.762000  -40.488200
  H    -114.541000   56.298600  -39.712400
  H    -115.501000   57.653900  -40.032100
  C    -114.027000   56.868200  -41.670800
  H    -113.103000   57.240000  -41.332300
  H    -114.456000   57.658300  -42.376500
  H    -113.938000   55.964300  -42.240200
  H    -115.685000   50.419600  -37.829800
  H    -119.738000   57.787700  -38.015900

 Total Charge           Charge          ....    0
 Multiplicity           Mult            ....    1
 Number of Electrons    NEL             ....  134
 Basis Dimension        Dim             ....  322

ORBITAL ENERGIES
----------------

  NO   OCC          E(Eh)            E(eV)
   0   2.0000     -88.962425     -2420.7907
   1   2.0000     -88.962058     -2420.7807
   2   2.0000     -10.330078      -281.0957
   3   2.0000     -10.327676      -281.0304
   4   2.0000     -10.321410      -280.8599
   5   2.0000     -10.311757      -280.5972
   6   2.0000     -10.308417      -280.5063
   7   2.0000     -10.300593      -280.2934
   8   2.0000     -10.297348      -280.2051
   9   2.0000     -10.293504      -280.1005
  10   2.0000     -10.293337      -280.0960
  11   2.0000     -10.291146      -280.0363
  12   2.0000     -10.288720      -279.9703
  13   2.0000     -10.285274      -279.8765
  14   2.0000     -10.284702      -279.8610
  15   2.0000     -10.282188      -279.7926
  16   2.0000      -8.076368      -219.7692
  17   2.0000      -8.076262      -219.7663
  18   2.0000      -6.035106      -164.2236
  19   2.0000      -6.034915      -164.2184
  20   2.0000      -6.031065      -164.1136
  21   2.0000      -6.030970      -164.1110
  22   2.0000      -6.026851      -163.9990
  23   2.0000      -6.026727      -163.9956
  24   2.0000      -1.006620       -27.3915
  25   2.0000      -0.983204       -26.7543
  26   2.0000      -0.904192       -24.6043
  27   2.0000      -0.899315       -24.4716
  28   2.0000      -0.869842       -23.6696
  29   2.0000      -0.845008       -22.9938
  30   2.0000      -0.839303       -22.8386
  31   2.0000      -0.818602       -22.2753
  32   2.0000      -0.782745       -21.2996
  33   2.0000      -0.771010       -20.9802
  34   2.0000      -0.712341       -19.3838
  35   2.0000      -0.701382       -19.0856
  36   2.0000      -0.699085       -19.0231
  37   2.0000      -0.653508       -17.7829
  38   2.0000      -0.640910       -17.4400
  39   2.0000      -0.624723       -16.9996
  40   2.0000      -0.593341       -16.1456
  41   2.0000      -0.565493       -15.3878
  42   2.0000      -0.555272       -15.1097
  43   2.0000      -0.543283       -14.7835
  44   2.0000      -0.533872       -14.5274
  45   2.0000      -0.524029       -14.2595
  46   2.0000      -0.517530       -14.0827
  47   2.0000      -0.509318       -13.8593
  48   2.0000      -0.505064       -13.7435
  49   2.0000      -0.496879       -13.5208
  50   2.0000      -0.490052       -13.3350
  51   2.0000      -0.476896       -12.9770
  52   2.0000      -0.469935       -12.7876
  53   2.0000      -0.461660       -12.5624
  54   2.0000      -0.457993       -12.4626
  55   2.0000      -0.447930       -12.1888
  56   2.0000      -0.446306       -12.1446
  57   2.0000      -0.438981       -11.9453
  58   2.0000      -0.437102       -11.8941
  59   2.0000      -0.425119       -11.5681
  60   2.0000      -0.418102       -11.3771
  61   2.0000      -0.412977       -11.2377
  62   2.0000      -0.405041       -11.0217
  63   2.0000      -0.347899        -9.4668
  64   2.0000      -0.330304        -8.9880
  65   2.0000      -0.325923        -8.8688
  66   2.0000      -0.299471        -8.1490
  67   0.0000       0.031329         0.8525
  68   0.0000       0.061337         1.6691
  69   0.0000       0.107628         2.9287
  70   0.0000       0.118713         3.2303
  71   0.0000       0.126960         3.4548

MULLIKEN ATOMIC CHARGES
-----------------------
   0 S :    0.092804
   1 C :   -0.108134
   2 C :   -0.098333
   3 C :    0.043443
   4 C :   -0.154684
   5 H :    0.019229
   6 C :    0.054394
   7 H :    0.043674
   8 H :    0.005860
   9 C :   -0.073228
  10 H :    0.040018
  11 H :    0.030870
  12 C :   -0.075350
  13 H :    0.040310
  14 H :    0.041783
  15 H :    0.026395
  16 S :    0.086125
  17 C :   -0.096617
  18 C :   -0.048500
  19 C :   -0.046987
  20 C :   -0.133769
  21 H :    0.026793
  22 C :    0.091270
  23 H :    0.016441
  24 H :    0.014348
  25 C :   -0.074107
  26 H :    0.023817
  27 H :    0.022614
  28 C :   -0.042154
  29 H :    0.034292
  30 H :    0.032827
  31 H :    0.036055
  32 H :    0.043835
  33 H :    0.084666
Sum of atomic charges:   -0.0000000

LOEWDIN ATOMIC CHARGES
----------------------
   0 S :    0.378641
   1 C :   -0.182993
   2 C :   -0.071616
   3 C :   -0.057549
   4 C :   -0.181481
   5 H :    0.036675
   6 C :   -0.039734
   7 H :    0.041672
   8 H :    0.028134
   9 C :   -0.041914
  10 H :    0.034040
  11 H :    0.020842
  12 C :   -0.080050
  13 H :    0.026220
  14 H :    0.032928
  15 H :    0.026402
  16 S :    0.370315
  17 C :   -0.190716
  18 C :   -0.086281
  19 C :   -0.046793
  20 C :   -0.176833
  21 H :    0.035074
  22 C :   -0.023327
  23 H :    0.026169
  24 H :    0.022298
  25 C :   -0.032731
  26 H :    0.019642
  27 H :    0.020822
  28 C :   -0.061404
  29 H :    0.019348
  30 H :    0.031044
  31 H :    0.023584
  32 H :    0.029335
  33 H :    0.050240

  Mayer bond orders larger than 0.100000
B(  0-S ,  1-C ) :   1.1073 B(  0-S ,  4-C ) :   1.1348 B(  1-C ,  2-C ) :   1.6506
B(  1-C , 32-H ) :   0.9662 B(  2-C ,  3-C ) :   1.2007 B(  2-C ,  6-C ) :   1.0397
B(  3-C ,  4-C ) :   1.6142 B(  3-C ,  5-H ) :   0.9994 B(  4-C , 20-C ) :   1.0265
B(  6-C ,  7-H ) :   0.9387 B(  6-C ,  8-H ) :   0.9396 B(  6-C ,  9-C ) :   1.0413
B(  9-C , 10-H ) :   0.9581 B(  9-C , 11-H ) :   0.9586 B(  9-C , 12-C ) :   1.0737
B( 12-C , 13-H ) :   0.9714 B( 12-C , 14-H ) :   0.9773 B( 12-C , 15-H ) :   0.9739
B( 16-S , 17-C ) :   1.1462 B( 16-S , 20-C ) :   1.1187 B( 17-C , 18-C ) :   1.6378
B( 17-C , 33-H ) :   0.9522 B( 18-C , 19-C ) :   1.2254 B( 18-C , 21-H ) :   0.9824
B( 19-C , 20-C ) :   1.6037 B( 19-C , 22-C ) :   1.0600 B( 22-C , 23-H ) :   0.9327
B( 22-C , 24-H ) :   0.9346 B( 22-C , 25-C ) :   1.0532 B( 25-C , 26-H ) :   0.9604
B( 25-C , 27-H ) :   0.9629 B( 25-C , 28-C ) :   1.0592 B( 28-C , 29-H ) :   0.9792
B( 28-C , 30-H ) :   0.9791 B( 28-C , 31-H ) :   0.9773

Dispersion correction           -0.014526677
FINAL SINGLE POINT ENERGY     -1339.867516971970

DIPOLE MOMENT
-------------
                                X             Y             Z
Electronic contribution:    -14.57202       3.17136      24.42519
Nuclear contribution   :     14.58116      -3.26113     -25.24616
                        -----------------------------------------
Total Dipole Moment    :      0.00914      -0.08977      -0.82096
                        -----------------------------------------
Magnitude (a.u.)       :      0.82591
Magnitude (Debye)      :      2.09929

Rotational constants in cm-1:     0.016474     0.009670     0.007212
Rotational constants in MHz :   493.876291   289.905860   216.205363

                             ****ORCA TERMINATED NORMALLY****
TOTAL RUN TIME: 0 days 0 hours 0 minutes 20 seconds 530 msec
