                         Program Version 4.2.1 -  RELEASE  -
|  1> ! wB97X-D3 SP def2-SVP
|  2> %pal
|  3> nprocs 24
|  4> end
|  5>
|  6> * xyz 0 1
|  7> S 	 -52.2553 	 14.1984 	 -107.955
|  8> C 	 -52.7628 	 12.5937 	 -107.277
|  9> C 	 -51.8307 	 12.0996 	 -106.462
| 10> C 	 -50.8366 	 13.062 	 -106.121
| 11> C 	 -50.8623 	 14.203 	 -106.872
| 12> H 	 -50.073 	 12.9173 	 -105.396
| 13> C 	 -51.8638 	 10.7475 	 -105.848
| 14> H 	 -50.9111 	 10.2539 	 -105.714
| 15> H 	 -52.414 	 10.2302 	 -106.641
| 16> C 	 -52.8324 	 10.4937 	 -104.685
| 17> H 	 -53.9154 	 10.8026 	 -104.784
| 18> H 	 -52.994 	 9.38426 	 -104.588
| 19> C 	 -52.2362 	 10.8551 	 -103.274
| 20> H 	 -51.8009 	 11.8675 	 -103.418
| 21> H 	 -52.9948 	 10.899 	 -102.523
| 22> H 	 -51.4199 	 10.1883 	 -102.89
| 23> S 	 -49.1521 	 15.635 	 -105.215
| 24> C 	 -48.37 	 17.0057 	 -105.812
| 25> C 	 -48.7145 	 17.3012 	 -107.138
| 26> C 	 -49.6752 	 16.3737 	 -107.662
| 27> C 	 -49.9947 	 15.3774 	 -106.718
| 28> H 	 -48.4233 	 18.1873 	 -107.735
| 29> C 	 -50.2243 	 16.6064 	 -109.039
| 30> H 	 -50.6334 	 15.7216 	 -109.576
| 31> H 	 -49.2782 	 16.7939 	 -109.642
| 32> C 	 -51.2654 	 17.6384 	 -109.286
| 33> H 	 -50.9509 	 18.5473 	 -108.789
| 34> H 	 -52.1645 	 17.3044 	 -108.827
| 35> C 	 -51.4581 	 17.9655 	 -110.75
| 36> H 	 -52.1851 	 18.7903 	 -110.942
| 37> H 	 -51.9027 	 16.993 	 -111.187
| 38> H 	 -50.5309 	 18.3009 	 -111.166
| 39> H 	 -53.6164 	 12.113 	 -107.774
| 40> H 	 -47.7007 	 17.7582 	 -105.338
| 41> *
| 42>
| 43>                          ****END OF INPUT****

CARTESIAN COORDINATES (ANGSTROEM)
---------------------------------
  S    -52.255300   14.198400  -107.955000
  C    -52.762800   12.593700  -107.277000
  C    -51.830700   12.099600  -106.462000
  C    -50.836600   13.062000  -106.121000
  C    -50.862300   14.203000  -106.872000
  H    -50.073000   12.917300  -105.396000
  C    -51.863800   10.747500  -105.848000
  H    -50.911100   10.253900  -105.714000
  H    -52.414000   10.230200  -106.641000
  C    -52.832400   10.493700  -104.685000
  H    -53.915400   10.802600  -104.784000
  H    -52.994000    9.384260  -104.588000
  C    -52.236200   10.855100  -103.274000
  H    -51.800900   11.867500  -103.418000
  H    -52.994800   10.899000  -102.523000
  H    -51.419900   10.188300  -102.890000
  S    -49.152100   15.635000  -105.215000
  C    -48.370000   17.005700  -105.812000
  C    -48.714500   17.301200  -107.138000
  C    -49.675200   16.373700  -107.662000
  C    -49.994700   15.377400  -106.718000
  H    -48.423300   18.187300  -107.735000
  C    -50.224300   16.606400  -109.039000
  H    -50.633400   15.721600  -109.576000
  H    -49.278200   16.793900  -109.642000
  C    -51.265400   17.638400  -109.286000
  H    -50.950900   18.547300  -108.789000
  H    -52.164500   17.304400  -108.827000
  C    -51.458100   17.965500  -110.750000
  H    -52.185100   18.790300  -110.942000
  H    -51.902700   16.993000  -111.187000
  H    -50.530900   18.300900  -111.166000
  H    -53.616400   12.113000  -107.774000
  H    -47.700700   17.758200  -105.338000

 Total Charge           Charge          ....    0
 Multiplicity           Mult            ....    1
 Number of Electrons    NEL             ....  134
 Basis Dimension        Dim             ....  322

ORBITAL ENERGIES
----------------

  NO   OCC          E(Eh)            E(eV)
   0   2.0000     -88.974557     -2421.1208
   1   2.0000     -88.963789     -2420.8278
   2   2.0000     -10.331231      -281.1271
   3   2.0000     -10.329203      -281.0719
   4   2.0000     -10.320262      -280.8286
   5   2.0000     -10.314525      -280.6725
   6   2.0000     -10.304473      -280.3990
   7   2.0000     -10.298136      -280.2265
   8   2.0000     -10.296897      -280.1928
   9   2.0000     -10.296569      -280.1839
  10   2.0000     -10.292171      -280.0642
  11   2.0000     -10.291897      -280.0568
  12   2.0000     -10.286826      -279.9188
  13   2.0000     -10.283853      -279.8379
  14   2.0000     -10.279237      -279.7123
  15   2.0000     -10.276044      -279.6254
  16   2.0000      -8.089759      -220.1335
  17   2.0000      -8.077213      -219.7922
  18   2.0000      -6.048278      -164.5820
  19   2.0000      -6.044094      -164.4682
  20   2.0000      -6.040607      -164.3733
  21   2.0000      -6.035936      -164.2462
  22   2.0000      -6.032057      -164.1406
  23   2.0000      -6.027700      -164.0221
  24   2.0000      -1.009613       -27.4730
  25   2.0000      -0.987961       -26.8838
  26   2.0000      -0.919872       -25.0310
  27   2.0000      -0.911707       -24.8088
  28   2.0000      -0.866782       -23.5863
  29   2.0000      -0.858501       -23.3610
  30   2.0000      -0.841296       -22.8928
  31   2.0000      -0.813367       -22.1328
  32   2.0000      -0.784068       -21.3356
  33   2.0000      -0.772168       -21.0118
  34   2.0000      -0.704321       -19.1656
  35   2.0000      -0.700064       -19.0497
  36   2.0000      -0.689026       -18.7494
  37   2.0000      -0.666669       -18.1410
  38   2.0000      -0.637945       -17.3594
  39   2.0000      -0.615909       -16.7597
  40   2.0000      -0.602235       -16.3876
  41   2.0000      -0.575371       -15.6566
  42   2.0000      -0.568905       -15.4807
  43   2.0000      -0.547664       -14.9027
  44   2.0000      -0.536183       -14.5903
  45   2.0000      -0.519775       -14.1438
  46   2.0000      -0.519232       -14.1290
  47   2.0000      -0.516379       -14.0514
  48   2.0000      -0.505637       -13.7591
  49   2.0000      -0.495450       -13.4819
  50   2.0000      -0.488985       -13.3060
  51   2.0000      -0.480354       -13.0711
  52   2.0000      -0.471985       -12.8434
  53   2.0000      -0.465832       -12.6759
  54   2.0000      -0.455762       -12.4019
  55   2.0000      -0.454199       -12.3594
  56   2.0000      -0.445130       -12.1126
  57   2.0000      -0.440880       -11.9970
  58   2.0000      -0.431969       -11.7545
  59   2.0000      -0.428051       -11.6479
  60   2.0000      -0.419959       -11.4277
  61   2.0000      -0.404340       -11.0026
  62   2.0000      -0.396866       -10.7993
  63   2.0000      -0.358854        -9.7649
  64   2.0000      -0.334735        -9.1086
  65   2.0000      -0.329965        -8.9788
  66   2.0000      -0.284736        -7.7481
  67   0.0000       0.023362         0.6357
  68   0.0000       0.081491         2.2175
  69   0.0000       0.097706         2.6587
  70   0.0000       0.116568         3.1720
  71   0.0000       0.134434         3.6581

MULLIKEN ATOMIC CHARGES
-----------------------
   0 S :    0.064278
   1 C :   -0.158596
   2 C :   -0.017886
   3 C :   -0.031505
   4 C :   -0.077080
   5 H :   -0.000331
   6 C :    0.075249
   7 H :    0.036929
   8 H :    0.021344
   9 C :   -0.105738
  10 H :    0.042766
  11 H :    0.030052
  12 C :   -0.067328
  13 H :    0.031708
  14 H :    0.030077
  15 H :    0.041288
  16 S :    0.133228
  17 C :   -0.083548
  18 C :   -0.059528
  19 C :   -0.028895
  20 C :   -0.131862
  21 H :    0.030929
  22 C :   -0.031419
  23 H :    0.019305
  24 H :    0.031434
  25 C :   -0.004723
  26 H :    0.007478
  27 H :    0.020469
  28 C :   -0.062795
  29 H :    0.043162
  30 H :    0.043612
  31 H :    0.027981
  32 H :    0.059428
  33 H :    0.070516
Sum of atomic charges:    0.0000000

LOEWDIN ATOMIC CHARGES
----------------------
   0 S :    0.370538
   1 C :   -0.172934
   2 C :   -0.062157
   3 C :   -0.076241
   4 C :   -0.166785
   5 H :    0.019984
   6 C :   -0.034685
   7 H :    0.034902
   8 H :    0.041662
   9 C :   -0.047685
  10 H :    0.033545
  11 H :    0.026529
  12 C :   -0.075346
  13 H :    0.025430
  14 H :    0.020059
  15 H :    0.028697
  16 S :    0.450188
  17 C :   -0.217828
  18 C :   -0.074510
  19 C :   -0.056519
  20 C :   -0.202938
  21 H :    0.036001
  22 C :   -0.052528
  23 H :    0.021912
  24 H :    0.038252
  25 C :   -0.041312
  26 H :    0.017023
  27 H :    0.018470
  28 C :   -0.063308
  29 H :    0.031178
  30 H :    0.035872
  31 H :    0.020224
  32 H :    0.029807
  33 H :    0.044500

  Mayer bond orders larger than 0.100000
B(  0-S ,  1-C ) :   1.1031 B(  0-S ,  4-C ) :   1.1294 B(  1-C ,  2-C ) :   1.6507
B(  1-C , 32-H ) :   0.9652 B(  2-C ,  3-C ) :   1.1943 B(  2-C ,  6-C ) :   1.0233
B(  3-C ,  4-C ) :   1.5935 B(  3-C ,  5-H ) :   0.9962 B(  4-C , 20-C ) :   1.0739
B(  6-C ,  7-H ) :   0.9460 B(  6-C ,  8-H ) :   0.9251 B(  6-C ,  9-C ) :   1.0740
B(  9-C , 10-H ) :   0.9576 B(  9-C , 11-H ) :   0.9562 B(  9-C , 12-C ) :   1.0628
B( 12-C , 13-H ) :   0.9794 B( 12-C , 14-H ) :   0.9759 B( 12-C , 15-H ) :   0.9782
B( 16-S , 17-C ) :   1.1736 B( 16-S , 20-C ) :   1.1458 B( 17-C , 18-C ) :   1.5772
B( 17-C , 33-H ) :   0.9592 B( 18-C , 19-C ) :   1.2864 B( 18-C , 21-H ) :   0.9794
B( 19-C , 20-C ) :   1.5398 B( 19-C , 22-C ) :   1.0419 B( 22-C , 23-H ) :   0.9277
B( 22-C , 24-H ) :   0.9303 B( 22-C , 25-C ) :   1.0674 B( 25-C , 26-H ) :   0.9480
B( 25-C , 27-H ) :   0.9473 B( 25-C , 28-C ) :   1.0828 B( 28-C , 29-H ) :   0.9735
B( 28-C , 30-H ) :   0.9730 B( 28-C , 31-H ) :   0.9742

Dispersion correction           -0.013940326
FINAL SINGLE POINT ENERGY     -1339.868956440901

DIPOLE MOMENT
-------------
                                X             Y             Z
Electronic contribution:      7.30607       4.63075       3.42449
Nuclear contribution   :     -7.30365      -4.70884      -3.47424
                        -----------------------------------------
Total Dipole Moment    :      0.00242      -0.07809      -0.04974
                        -----------------------------------------
Magnitude (a.u.)       :      0.09262
Magnitude (Debye)      :      0.23542

Rotational constants in cm-1:     0.022138     0.008051     0.006125
Rotational constants in MHz :   663.681267   241.359529   183.626297

                             ****ORCA TERMINATED NORMALLY****
TOTAL RUN TIME: 0 days 0 hours 0 minutes 21 seconds 186 msec
