                         Program Version 4.2.1 -  RELEASE  -
|  1> ! wB97X-D3 SP def2-SVP
|  2> %pal
|  3> nprocs 24
|  4> end
|  5>
|  6> * xyz 0 1
|  7> S 	 -47.2639 	 19.7682 	 23.4247
|  8> C 	 -47.3335 	 18.598 	 22.0838
|  9> C 	 -47.0127 	 17.3217 	 22.5708
| 10> C 	 -46.5678 	 17.439 	 23.9007
| 11> C 	 -46.5016 	 18.6797 	 24.5124
| 12> H 	 -46.2613 	 16.5834 	 24.491
| 13> C 	 -46.9872 	 16.063 	 21.7492
| 14> H 	 -47.3567 	 16.2633 	 20.8195
| 15> H 	 -47.8337 	 15.3784 	 22.0224
| 16> C 	 -45.7333 	 15.2327 	 21.7493
| 17> H 	 -45.6565 	 15.0057 	 22.8337
| 18> H 	 -46.0213 	 14.2973 	 21.346
| 19> C 	 -44.5184 	 15.9467 	 21.2216
| 20> H 	 -44.6122 	 16.1963 	 20.1621
| 21> H 	 -44.2757 	 16.855 	 21.8157
| 22> H 	 -43.6554 	 15.3068 	 21.3023
| 23> S 	 -46.9944 	 20.1997 	 26.8612
| 24> C 	 -45.9214 	 20.0705 	 28.2222
| 25> C 	 -44.7157 	 19.4268 	 27.7711
| 26> C 	 -44.8268 	 18.8742 	 26.4388
| 27> C 	 -46.012 	 19.137 	 25.8051
| 28> H 	 -43.9082 	 19.3243 	 28.505
| 29> C 	 -43.6153 	 18.1006 	 25.7759
| 30> H 	 -43.1251 	 18.7833 	 25.0268
| 31> H 	 -44.0514 	 17.2898 	 25.1586
| 32> C 	 -42.5017 	 17.6608 	 26.721
| 33> H 	 -42.1309 	 18.3878 	 27.3763
| 34> H 	 -41.5901 	 17.4951 	 26.083
| 35> C 	 -42.8085 	 16.3047 	 27.3637
| 36> H 	 -41.9862 	 15.9838 	 28.021
| 37> H 	 -42.7107 	 15.5721 	 26.534
| 38> H 	 -43.8225 	 16.0835 	 27.7232
| 39> H 	 -47.7697 	 18.6883 	 21.1604
| 40> H 	 -46.0922 	 20.5076 	 29.2318
| 41> *
| 42>
| 43>                          ****END OF INPUT****

CARTESIAN COORDINATES (ANGSTROEM)
---------------------------------
  S    -47.263900   19.768200   23.424700
  C    -47.333500   18.598000   22.083800
  C    -47.012700   17.321700   22.570800
  C    -46.567800   17.439000   23.900700
  C    -46.501600   18.679700   24.512400
  H    -46.261300   16.583400   24.491000
  C    -46.987200   16.063000   21.749200
  H    -47.356700   16.263300   20.819500
  H    -47.833700   15.378400   22.022400
  C    -45.733300   15.232700   21.749300
  H    -45.656500   15.005700   22.833700
  H    -46.021300   14.297300   21.346000
  C    -44.518400   15.946700   21.221600
  H    -44.612200   16.196300   20.162100
  H    -44.275700   16.855000   21.815700
  H    -43.655400   15.306800   21.302300
  S    -46.994400   20.199700   26.861200
  C    -45.921400   20.070500   28.222200
  C    -44.715700   19.426800   27.771100
  C    -44.826800   18.874200   26.438800
  C    -46.012000   19.137000   25.805100
  H    -43.908200   19.324300   28.505000
  C    -43.615300   18.100600   25.775900
  H    -43.125100   18.783300   25.026800
  H    -44.051400   17.289800   25.158600
  C    -42.501700   17.660800   26.721000
  H    -42.130900   18.387800   27.376300
  H    -41.590100   17.495100   26.083000
  C    -42.808500   16.304700   27.363700
  H    -41.986200   15.983800   28.021000
  H    -42.710700   15.572100   26.534000
  H    -43.822500   16.083500   27.723200
  H    -47.769700   18.688300   21.160400
  H    -46.092200   20.507600   29.231800

 Total Charge           Charge          ....    0
 Multiplicity           Mult            ....    1
 Number of Electrons    NEL             ....  134
 Basis Dimension        Dim             ....  322

ORBITAL ENERGIES
----------------

  NO   OCC          E(Eh)            E(eV)
   0   2.0000     -88.967216     -2420.9210
   1   2.0000     -88.964516     -2420.8476
   2   2.0000     -10.331605      -281.1373
   3   2.0000     -10.331387      -281.1313
   4   2.0000     -10.330229      -281.0998
   5   2.0000     -10.312057      -280.6053
   6   2.0000     -10.311258      -280.5836
   7   2.0000     -10.303894      -280.3832
   8   2.0000     -10.301424      -280.3160
   9   2.0000     -10.301329      -280.3134
  10   2.0000     -10.291222      -280.0384
  11   2.0000     -10.288543      -279.9655
  12   2.0000     -10.285443      -279.8811
  13   2.0000     -10.284339      -279.8511
  14   2.0000     -10.280748      -279.7534
  15   2.0000     -10.277741      -279.6715
  16   2.0000      -8.081408      -219.9063
  17   2.0000      -8.079263      -219.8479
  18   2.0000      -6.040055      -164.3583
  19   2.0000      -6.037814      -164.2973
  20   2.0000      -6.035810      -164.2427
  21   2.0000      -6.033622      -164.1832
  22   2.0000      -6.032211      -164.1448
  23   2.0000      -6.030114      -164.0877
  24   2.0000      -1.006704       -27.3938
  25   2.0000      -0.982294       -26.7296
  26   2.0000      -0.922062       -25.0906
  27   2.0000      -0.906773       -24.6745
  28   2.0000      -0.871353       -23.7107
  29   2.0000      -0.848395       -23.0860
  30   2.0000      -0.836219       -22.7547
  31   2.0000      -0.814259       -22.1571
  32   2.0000      -0.789164       -21.4743
  33   2.0000      -0.777238       -21.1497
  34   2.0000      -0.714991       -19.4559
  35   2.0000      -0.702723       -19.1221
  36   2.0000      -0.697773       -18.9874
  37   2.0000      -0.652726       -17.7616
  38   2.0000      -0.647452       -17.6181
  39   2.0000      -0.622590       -16.9415
  40   2.0000      -0.595936       -16.2162
  41   2.0000      -0.574324       -15.6281
  42   2.0000      -0.553770       -15.0688
  43   2.0000      -0.550163       -14.9707
  44   2.0000      -0.540467       -14.7068
  45   2.0000      -0.528945       -14.3933
  46   2.0000      -0.522632       -14.2215
  47   2.0000      -0.516824       -14.0635
  48   2.0000      -0.508806       -13.8453
  49   2.0000      -0.504025       -13.7152
  50   2.0000      -0.492938       -13.4135
  51   2.0000      -0.479246       -13.0409
  52   2.0000      -0.472761       -12.8645
  53   2.0000      -0.469755       -12.7827
  54   2.0000      -0.454376       -12.3642
  55   2.0000      -0.449371       -12.2280
  56   2.0000      -0.442033       -12.0283
  57   2.0000      -0.435024       -11.8376
  58   2.0000      -0.432054       -11.7568
  59   2.0000      -0.427257       -11.6263
  60   2.0000      -0.415407       -11.3038
  61   2.0000      -0.414825       -11.2880
  62   2.0000      -0.402121       -10.9423
  63   2.0000      -0.348612        -9.4862
  64   2.0000      -0.330319        -8.9884
  65   2.0000      -0.327839        -8.9210
  66   2.0000      -0.290110        -7.8943
  67   0.0000       0.024930         0.6784
  68   0.0000       0.061235         1.6663
  69   0.0000       0.111786         3.0418
  70   0.0000       0.117284         3.1915
  71   0.0000       0.126940         3.4542

MULLIKEN ATOMIC CHARGES
-----------------------
   0 S :    0.101680
   1 C :   -0.073894
   2 C :   -0.109060
   3 C :    0.008374
   4 C :   -0.162969
   5 H :    0.007338
   6 C :    0.095029
   7 H :   -0.029203
   8 H :    0.029798
   9 C :   -0.042328
  10 H :    0.018644
  11 H :    0.014341
  12 C :   -0.026645
  13 H :    0.031951
  14 H :    0.050306
  15 H :    0.027287
  16 S :    0.107771
  17 C :   -0.117069
  18 C :   -0.060576
  19 C :   -0.037485
  20 C :   -0.125485
  21 H :    0.034326
  22 C :    0.056886
  23 H :    0.050920
  24 H :    0.022075
  25 C :   -0.062177
  26 H :    0.020985
  27 H :    0.028242
  28 C :   -0.057937
  29 H :    0.036847
  30 H :    0.017314
  31 H :    0.046772
  32 H :    0.014035
  33 H :    0.083907
Sum of atomic charges:   -0.0000000

LOEWDIN ATOMIC CHARGES
----------------------
   0 S :    0.412650
   1 C :   -0.176116
   2 C :   -0.059023
   3 C :   -0.073018
   4 C :   -0.198395
   5 H :    0.024214
   6 C :   -0.034484
   7 H :    0.011725
   8 H :    0.042855
   9 C :   -0.040622
  10 H :    0.026873
  11 H :    0.021693
  12 C :   -0.064172
  13 H :    0.027139
  14 H :    0.035981
  15 H :    0.024601
  16 S :    0.397898
  17 C :   -0.192870
  18 C :   -0.079583
  19 C :   -0.052421
  20 C :   -0.197833
  21 H :    0.032981
  22 C :   -0.029388
  23 H :    0.042234
  24 H :    0.031424
  25 C :   -0.046341
  26 H :    0.013867
  27 H :    0.035077
  28 C :   -0.074994
  29 H :    0.028261
  30 H :    0.027638
  31 H :    0.027768
  32 H :    0.011158
  33 H :    0.043222

  Mayer bond orders larger than 0.100000
B(  0-S ,  1-C ) :   1.1503 B(  0-S ,  4-C ) :   1.1584 B(  1-C ,  2-C ) :   1.5730
B(  1-C ,  4-C ) :   0.1130 B(  1-C , 32-H ) :   0.9725 B(  2-C ,  3-C ) :   1.2700
B(  2-C ,  6-C ) :   1.0341 B(  3-C ,  4-C ) :   1.5580 B(  3-C ,  5-H ) :   0.9892
B(  4-C , 20-C ) :   1.0450 B(  6-C ,  7-H ) :   0.9225 B(  6-C ,  8-H ) :   0.9244
B(  6-C ,  9-C ) :   1.0784 B(  9-C , 10-H ) :   0.9492 B(  9-C , 11-H ) :   0.9471
B(  9-C , 12-C ) :   1.0760 B( 12-C , 13-H ) :   0.9743 B( 12-C , 14-H ) :   0.9693
B( 12-C , 15-H ) :   0.9720 B( 16-S , 17-C ) :   1.1779 B( 16-S , 20-C ) :   1.1225
B( 17-C , 18-C ) :   1.5719 B( 17-C , 20-C ) :   0.1076 B( 17-C , 33-H ) :   0.9629
B( 18-C , 19-C ) :   1.2519 B( 18-C , 21-H ) :   0.9842 B( 19-C , 20-C ) :   1.6059
B( 19-C , 22-C ) :   1.0149 B( 22-C , 23-H ) :   0.9360 B( 22-C , 24-H ) :   0.9386
B( 22-C , 25-C ) :   1.0806 B( 25-C , 26-H ) :   0.9512 B( 25-C , 27-H ) :   0.9517
B( 25-C , 28-C ) :   1.0692 B( 28-C , 29-H ) :   0.9733 B( 28-C , 30-H ) :   0.9724
B( 28-C , 31-H ) :   0.9798

Dispersion correction           -0.014453666
FINAL SINGLE POINT ENERGY     -1339.855633297487

DIPOLE MOMENT
-------------
                                X             Y             Z
Electronic contribution:    -19.11793      22.91215       6.28781
Nuclear contribution   :     19.59432     -23.53285      -6.34452
                        -----------------------------------------
Total Dipole Moment    :      0.47638      -0.62070      -0.05670
                        -----------------------------------------
Magnitude (a.u.)       :      0.78449
Magnitude (Debye)      :      1.99401

Rotational constants in cm-1:     0.017392     0.009797     0.006749
Rotational constants in MHz :   521.396898   293.695349   202.333019

                             ****ORCA TERMINATED NORMALLY****
TOTAL RUN TIME: 0 days 0 hours 0 minutes 22 seconds 66 msec
