                         Program Version 4.2.1 -  RELEASE  -
|  1> ! wB97X-D3 SP def2-SVP
|  2> %pal
|  3> nprocs 24
|  4> end
|  5>
|  6> * xyz 0 1
|  7> S 	 -67.0679 	 19.6666 	 -75.7806
|  8> C 	 -67.833 	 19.8119 	 -74.2071
|  9> C 	 -68.9727 	 19.0328 	 -74.17
| 10> C 	 -69.2039 	 18.3595 	 -75.434
| 11> C 	 -68.1037 	 18.3321 	 -76.2631
| 12> H 	 -70.0591 	 17.8286 	 -75.8332
| 13> C 	 -69.966 	 18.8245 	 -73.0149
| 14> H 	 -69.5186 	 18.3319 	 -72.1339
| 15> H 	 -70.6871 	 18.0703 	 -73.3715
| 16> C 	 -70.7778 	 20.0645 	 -72.4306
| 17> H 	 -70.1023 	 20.9046 	 -72.302
| 18> H 	 -71.496 	 20.1072 	 -73.269
| 19> C 	 -71.4739 	 19.6546 	 -71.1734
| 20> H 	 -72.0726 	 18.7922 	 -71.4091
| 21> H 	 -70.6808 	 19.3464 	 -70.4352
| 22> H 	 -72.1067 	 20.4376 	 -70.6629
| 23> S 	 -69.2248 	 17.7353 	 -78.6251
| 24> C 	 -68.3614 	 16.9094 	 -79.8963
| 25> C 	 -67.1894 	 16.4883 	 -79.3597
| 26> C 	 -66.8876 	 16.9921 	 -78.0329
| 27> C 	 -67.9609 	 17.6769 	 -77.5108
| 28> H 	 -66.6268 	 15.8951 	 -79.9761
| 29> C 	 -65.5628 	 16.775 	 -77.4246
| 30> H 	 -65.3358 	 17.582 	 -76.7336
| 31> H 	 -64.7995 	 16.9046 	 -78.1498
| 32> C 	 -65.2309 	 15.4289 	 -76.7728
| 33> H 	 -64.2154 	 15.3323 	 -76.4436
| 34> H 	 -65.3194 	 14.6423 	 -77.4884
| 35> C 	 -66.1009 	 15.0784 	 -75.5518
| 36> H 	 -67.0466 	 15.3168 	 -75.9046
| 37> H 	 -65.9342 	 15.7193 	 -74.5911
| 38> H 	 -66.1392 	 13.9751 	 -75.3252
| 39> H 	 -67.513 	 20.4445 	 -73.3699
| 40> H 	 -68.7102 	 16.7608 	 -80.9499
| 41> *
| 42>
| 43>                          ****END OF INPUT****

CARTESIAN COORDINATES (ANGSTROEM)
---------------------------------
  S    -67.067900   19.666600  -75.780600
  C    -67.833000   19.811900  -74.207100
  C    -68.972700   19.032800  -74.170000
  C    -69.203900   18.359500  -75.434000
  C    -68.103700   18.332100  -76.263100
  H    -70.059100   17.828600  -75.833200
  C    -69.966000   18.824500  -73.014900
  H    -69.518600   18.331900  -72.133900
  H    -70.687100   18.070300  -73.371500
  C    -70.777800   20.064500  -72.430600
  H    -70.102300   20.904600  -72.302000
  H    -71.496000   20.107200  -73.269000
  C    -71.473900   19.654600  -71.173400
  H    -72.072600   18.792200  -71.409100
  H    -70.680800   19.346400  -70.435200
  H    -72.106700   20.437600  -70.662900
  S    -69.224800   17.735300  -78.625100
  C    -68.361400   16.909400  -79.896300
  C    -67.189400   16.488300  -79.359700
  C    -66.887600   16.992100  -78.032900
  C    -67.960900   17.676900  -77.510800
  H    -66.626800   15.895100  -79.976100
  C    -65.562800   16.775000  -77.424600
  H    -65.335800   17.582000  -76.733600
  H    -64.799500   16.904600  -78.149800
  C    -65.230900   15.428900  -76.772800
  H    -64.215400   15.332300  -76.443600
  H    -65.319400   14.642300  -77.488400
  C    -66.100900   15.078400  -75.551800
  H    -67.046600   15.316800  -75.904600
  H    -65.934200   15.719300  -74.591100
  H    -66.139200   13.975100  -75.325200
  H    -67.513000   20.444500  -73.369900
  H    -68.710200   16.760800  -80.949900

 Total Charge           Charge          ....    0
 Multiplicity           Mult            ....    1
 Number of Electrons    NEL             ....  134
 Basis Dimension        Dim             ....  322

ORBITAL ENERGIES
----------------

  NO   OCC          E(Eh)            E(eV)
   0   2.0000     -88.965458     -2420.8732
   1   2.0000     -88.962923     -2420.8042
   2   2.0000     -10.326777      -281.0059
   3   2.0000     -10.322006      -280.8761
   4   2.0000     -10.320853      -280.8447
   5   2.0000     -10.317952      -280.7657
   6   2.0000     -10.308155      -280.4992
   7   2.0000     -10.303960      -280.3850
   8   2.0000     -10.296757      -280.1890
   9   2.0000     -10.295750      -280.1616
  10   2.0000     -10.289148      -279.9820
  11   2.0000     -10.288697      -279.9697
  12   2.0000     -10.284081      -279.8441
  13   2.0000     -10.281954      -279.7862
  14   2.0000     -10.278223      -279.6847
  15   2.0000     -10.271848      -279.5112
  16   2.0000      -8.079737      -219.8608
  17   2.0000      -8.079208      -219.8464
  18   2.0000      -6.038458      -164.3148
  19   2.0000      -6.037714      -164.2945
  20   2.0000      -6.034397      -164.2043
  21   2.0000      -6.033341      -164.1756
  22   2.0000      -6.030176      -164.0894
  23   2.0000      -6.030011      -164.0850
  24   2.0000      -1.019037       -27.7294
  25   2.0000      -0.988893       -26.9091
  26   2.0000      -0.911852       -24.8128
  27   2.0000      -0.909837       -24.7579
  28   2.0000      -0.881989       -24.0001
  29   2.0000      -0.850771       -23.1506
  30   2.0000      -0.843386       -22.9497
  31   2.0000      -0.819686       -22.3048
  32   2.0000      -0.781086       -21.2544
  33   2.0000      -0.769803       -20.9474
  34   2.0000      -0.710386       -19.3306
  35   2.0000      -0.696832       -18.9618
  36   2.0000      -0.695185       -18.9170
  37   2.0000      -0.667950       -18.1758
  38   2.0000      -0.639960       -17.4142
  39   2.0000      -0.614918       -16.7328
  40   2.0000      -0.598468       -16.2851
  41   2.0000      -0.579533       -15.7699
  42   2.0000      -0.568690       -15.4748
  43   2.0000      -0.551895       -15.0178
  44   2.0000      -0.543723       -14.7955
  45   2.0000      -0.521881       -14.2011
  46   2.0000      -0.520759       -14.1706
  47   2.0000      -0.513459       -13.9719
  48   2.0000      -0.507370       -13.8062
  49   2.0000      -0.502177       -13.6649
  50   2.0000      -0.493570       -13.4307
  51   2.0000      -0.481851       -13.1118
  52   2.0000      -0.472590       -12.8598
  53   2.0000      -0.465750       -12.6737
  54   2.0000      -0.458268       -12.4701
  55   2.0000      -0.447747       -12.1838
  56   2.0000      -0.437343       -11.9007
  57   2.0000      -0.432926       -11.7805
  58   2.0000      -0.429364       -11.6836
  59   2.0000      -0.424263       -11.5448
  60   2.0000      -0.417486       -11.3604
  61   2.0000      -0.410673       -11.1750
  62   2.0000      -0.407706       -11.0942
  63   2.0000      -0.353182        -9.6106
  64   2.0000      -0.327161        -8.9025
  65   2.0000      -0.323793        -8.8108
  66   2.0000      -0.296523        -8.0688
  67   0.0000       0.027255         0.7416
  68   0.0000       0.071593         1.9481
  69   0.0000       0.104614         2.8467
  70   0.0000       0.115786         3.1507
  71   0.0000       0.127274         3.4633

MULLIKEN ATOMIC CHARGES
-----------------------
   0 S :    0.105674
   1 C :   -0.120278
   2 C :   -0.050661
   3 C :   -0.004891
   4 C :   -0.138752
   5 H :    0.017860
   6 C :   -0.003043
   7 H :    0.030872
   8 H :    0.023115
   9 C :   -0.057313
  10 H :    0.037463
  11 H :    0.039075
  12 C :   -0.064682
  13 H :    0.028357
  14 H :    0.033061
  15 H :    0.051754
  16 S :    0.101737
  17 C :   -0.112378
  18 C :    0.001868
  19 C :   -0.047545
  20 C :   -0.132147
  21 H :   -0.017231
  22 C :    0.096865
  23 H :    0.011551
  24 H :    0.012214
  25 C :   -0.038527
  26 H :    0.021322
  27 H :    0.009246
  28 C :   -0.068895
  29 H :    0.010691
  30 H :    0.049295
  31 H :    0.037944
  32 H :    0.055856
  33 H :    0.080524
Sum of atomic charges:    0.0000000

LOEWDIN ATOMIC CHARGES
----------------------
   0 S :    0.405153
   1 C :   -0.196725
   2 C :   -0.062979
   3 C :   -0.064136
   4 C :   -0.186831
   5 H :    0.027635
   6 C :   -0.037901
   7 H :    0.028229
   8 H :    0.029516
   9 C :   -0.040716
  10 H :    0.021147
  11 H :    0.030543
  12 C :   -0.072363
  13 H :    0.023769
  14 H :    0.028673
  15 H :    0.033439
  16 S :    0.431814
  17 C :   -0.189858
  18 C :   -0.059178
  19 C :   -0.055898
  20 C :   -0.221276
  21 H :    0.015849
  22 C :   -0.036455
  23 H :    0.024595
  24 H :    0.031384
  25 C :   -0.033745
  26 H :    0.021269
  27 H :    0.018284
  28 C :   -0.074347
  29 H :    0.011292
  30 H :    0.037153
  31 H :    0.030634
  32 H :    0.035556
  33 H :    0.046471

  Mayer bond orders larger than 0.100000
B(  0-S ,  1-C ) :   1.1271 B(  0-S ,  4-C ) :   1.1366 B(  1-C ,  2-C ) :   1.6202
B(  1-C , 32-H ) :   0.9713 B(  2-C ,  3-C ) :   1.2136 B(  2-C ,  6-C ) :   1.0135
B(  3-C ,  4-C ) :   1.5902 B(  3-C ,  5-H ) :   0.9938 B(  4-C , 20-C ) :   1.0733
B(  6-C ,  7-H ) :   0.9456 B(  6-C ,  8-H ) :   0.9493 B(  6-C ,  9-C ) :   1.0324
B(  9-C , 10-H ) :   0.9626 B(  9-C , 11-H ) :   0.9594 B(  9-C , 12-C ) :   1.0836
B( 12-C , 13-H ) :   0.9714 B( 12-C , 14-H ) :   0.9720 B( 12-C , 15-H ) :   0.9718
B( 16-S , 17-C ) :   1.1462 B( 16-S , 20-C ) :   1.1530 B( 17-C , 18-C ) :   1.6159
B( 17-C , 33-H ) :   0.9645 B( 18-C , 19-C ) :   1.2187 B( 18-C , 21-H ) :   1.0068
B( 19-C , 20-C ) :   1.5502 B( 19-C , 22-C ) :   1.0698 B( 22-C , 23-H ) :   0.9199
B( 22-C , 24-H ) :   0.9202 B( 22-C , 25-C ) :   1.0807 B( 25-C , 26-H ) :   0.9537
B( 25-C , 27-H ) :   0.9525 B( 25-C , 28-C ) :   1.0692 B( 28-C , 29-H ) :   0.9771
B( 28-C , 30-H ) :   0.9737 B( 28-C , 31-H ) :   0.9732

Dispersion correction           -0.014342587
FINAL SINGLE POINT ENERGY     -1339.854468367876

DIPOLE MOMENT
-------------
                                X             Y             Z
Electronic contribution:      1.80662       7.38309     -20.07941
Nuclear contribution   :     -1.84723      -7.60832      20.13158
                        -----------------------------------------
Total Dipole Moment    :     -0.04061      -0.22524       0.05217
                        -----------------------------------------
Magnitude (a.u.)       :      0.23474
Magnitude (Debye)      :      0.59666

Rotational constants in cm-1:     0.022753     0.007446     0.006657
Rotational constants in MHz :   682.120813   223.213450   199.561798

                             ****ORCA TERMINATED NORMALLY****
TOTAL RUN TIME: 0 days 0 hours 0 minutes 21 seconds 461 msec
