                         Program Version 4.2.1 -  RELEASE  -
|  1> ! wB97X-D3 SP def2-SVP
|  2> %pal
|  3> nprocs 24
|  4> end
|  5>
|  6> * xyz 0 1
|  7> S 	 -53.5602 	 -50.3308 	 -77.9522
|  8> C 	 -53.2276 	 -52.0211 	 -77.5561
|  9> C 	 -54.1927 	 -52.8587 	 -78.1208
| 10> C 	 -55.0396 	 -52.1613 	 -79.086
| 11> C 	 -54.7898 	 -50.8199 	 -79.147
| 12> H 	 -55.8515 	 -52.7194 	 -79.5842
| 13> C 	 -54.3165 	 -54.3259 	 -77.988
| 14> H 	 -53.3293 	 -54.7698 	 -77.6602
| 15> H 	 -54.5419 	 -54.7455 	 -78.9468
| 16> C 	 -55.3647 	 -54.8105 	 -76.9235
| 17> H 	 -55.1279 	 -55.8116 	 -76.5153
| 18> H 	 -55.2618 	 -54.1504 	 -76.1279
| 19> C 	 -56.799 	 -54.7987 	 -77.4795
| 20> H 	 -57.1068 	 -53.9011 	 -77.9962
| 21> H 	 -56.8066 	 -55.6398 	 -78.0577
| 22> H 	 -57.5772 	 -55.0919 	 -76.7829
| 23> S 	 -55.6548 	 -48.2447 	 -79.2699
| 24> C 	 -56.1569 	 -47.6855 	 -80.8469
| 25> C 	 -56.2976 	 -48.6718 	 -81.8144
| 26> C 	 -55.8418 	 -49.9303 	 -81.2735
| 27> C 	 -55.4527 	 -49.818 	 -79.9308
| 28> H 	 -56.7786 	 -48.5381 	 -82.7794
| 29> C 	 -55.7149 	 -51.1445 	 -82.1961
| 30> H 	 -56.5614 	 -51.0045 	 -82.9908
| 31> H 	 -55.8864 	 -52.0816 	 -81.6761
| 32> C 	 -54.4009 	 -51.2731 	 -83.0602
| 33> H 	 -53.5841 	 -51.2173 	 -82.3028
| 34> H 	 -54.421 	 -50.3238 	 -83.6164
| 35> C 	 -54.4778 	 -52.5716 	 -83.8563
| 36> H 	 -54.5709 	 -53.4404 	 -83.1831
| 37> H 	 -53.6469 	 -52.6282 	 -84.5457
| 38> H 	 -55.3952 	 -52.5724 	 -84.4677
| 39> H 	 -52.4983 	 -52.3703 	 -76.941
| 40> H 	 -56.5383 	 -46.717 	 -80.901
| 41> *
| 42>
| 43>                          ****END OF INPUT****

CARTESIAN COORDINATES (ANGSTROEM)
---------------------------------
  S    -53.560200  -50.330800  -77.952200
  C    -53.227600  -52.021100  -77.556100
  C    -54.192700  -52.858700  -78.120800
  C    -55.039600  -52.161300  -79.086000
  C    -54.789800  -50.819900  -79.147000
  H    -55.851500  -52.719400  -79.584200
  C    -54.316500  -54.325900  -77.988000
  H    -53.329300  -54.769800  -77.660200
  H    -54.541900  -54.745500  -78.946800
  C    -55.364700  -54.810500  -76.923500
  H    -55.127900  -55.811600  -76.515300
  H    -55.261800  -54.150400  -76.127900
  C    -56.799000  -54.798700  -77.479500
  H    -57.106800  -53.901100  -77.996200
  H    -56.806600  -55.639800  -78.057700
  H    -57.577200  -55.091900  -76.782900
  S    -55.654800  -48.244700  -79.269900
  C    -56.156900  -47.685500  -80.846900
  C    -56.297600  -48.671800  -81.814400
  C    -55.841800  -49.930300  -81.273500
  C    -55.452700  -49.818000  -79.930800
  H    -56.778600  -48.538100  -82.779400
  C    -55.714900  -51.144500  -82.196100
  H    -56.561400  -51.004500  -82.990800
  H    -55.886400  -52.081600  -81.676100
  C    -54.400900  -51.273100  -83.060200
  H    -53.584100  -51.217300  -82.302800
  H    -54.421000  -50.323800  -83.616400
  C    -54.477800  -52.571600  -83.856300
  H    -54.570900  -53.440400  -83.183100
  H    -53.646900  -52.628200  -84.545700
  H    -55.395200  -52.572400  -84.467700
  H    -52.498300  -52.370300  -76.941000
  H    -56.538300  -46.717000  -80.901000

 Total Charge           Charge          ....    0
 Multiplicity           Mult            ....    1
 Number of Electrons    NEL             ....  134
 Basis Dimension        Dim             ....  322

ORBITAL ENERGIES
----------------

  NO   OCC          E(Eh)            E(eV)
   0   2.0000     -88.970461     -2421.0093
   1   2.0000     -88.965548     -2420.8756
   2   2.0000     -10.330069      -281.0955
   3   2.0000     -10.323578      -280.9188
   4   2.0000     -10.314848      -280.6813
   5   2.0000     -10.309842      -280.5451
   6   2.0000     -10.305414      -280.4246
   7   2.0000     -10.301159      -280.3088
   8   2.0000     -10.300109      -280.2802
   9   2.0000     -10.298353      -280.2324
  10   2.0000     -10.294822      -280.1363
  11   2.0000     -10.292565      -280.0749
  12   2.0000     -10.290022      -280.0057
  13   2.0000     -10.284508      -279.8557
  14   2.0000     -10.282640      -279.8048
  15   2.0000     -10.268276      -279.4140
  16   2.0000      -8.085862      -220.0275
  17   2.0000      -8.079552      -219.8558
  18   2.0000      -6.044200      -164.4710
  19   2.0000      -6.040423      -164.3683
  20   2.0000      -6.038230      -164.3086
  21   2.0000      -6.036634      -164.2652
  22   2.0000      -6.034344      -164.2029
  23   2.0000      -6.029991      -164.0844
  24   2.0000      -1.008315       -27.4376
  25   2.0000      -0.980109       -26.6701
  26   2.0000      -0.911639       -24.8070
  27   2.0000      -0.904971       -24.6255
  28   2.0000      -0.871120       -23.7044
  29   2.0000      -0.855280       -23.2733
  30   2.0000      -0.844643       -22.9839
  31   2.0000      -0.814679       -22.1685
  32   2.0000      -0.781318       -21.2608
  33   2.0000      -0.768833       -20.9210
  34   2.0000      -0.709772       -19.3139
  35   2.0000      -0.704992       -19.1838
  36   2.0000      -0.691402       -18.8140
  37   2.0000      -0.667816       -18.1722
  38   2.0000      -0.639461       -17.4006
  39   2.0000      -0.620950       -16.8969
  40   2.0000      -0.598176       -16.2772
  41   2.0000      -0.572088       -15.5673
  42   2.0000      -0.562546       -15.3077
  43   2.0000      -0.548755       -14.9324
  44   2.0000      -0.541975       -14.7479
  45   2.0000      -0.522542       -14.2191
  46   2.0000      -0.513656       -13.9773
  47   2.0000      -0.511213       -13.9108
  48   2.0000      -0.507887       -13.8203
  49   2.0000      -0.497109       -13.5270
  50   2.0000      -0.495888       -13.4938
  51   2.0000      -0.479032       -13.0351
  52   2.0000      -0.469122       -12.7655
  53   2.0000      -0.464360       -12.6359
  54   2.0000      -0.460553       -12.5323
  55   2.0000      -0.454889       -12.3782
  56   2.0000      -0.443790       -12.0762
  57   2.0000      -0.433714       -11.8020
  58   2.0000      -0.427691       -11.6381
  59   2.0000      -0.425630       -11.5820
  60   2.0000      -0.422778       -11.5044
  61   2.0000      -0.419988       -11.4285
  62   2.0000      -0.414771       -11.2865
  63   2.0000      -0.356892        -9.7115
  64   2.0000      -0.335377        -9.1261
  65   2.0000      -0.325918        -8.8687
  66   2.0000      -0.281862        -7.6698
  67   0.0000       0.023421         0.6373
  68   0.0000       0.069675         1.8959
  69   0.0000       0.094671         2.5761
  70   0.0000       0.110875         3.0171
  71   0.0000       0.137871         3.7517

MULLIKEN ATOMIC CHARGES
-----------------------
   0 S :    0.092917
   1 C :   -0.071005
   2 C :   -0.087027
   3 C :   -0.019000
   4 C :   -0.106495
   5 H :    0.034955
   6 C :    0.026670
   7 H :    0.028833
   8 H :    0.019365
   9 C :   -0.031999
  10 H :    0.029854
  11 H :    0.010982
  12 C :   -0.031237
  13 H :    0.043066
  14 H :    0.002508
  15 H :    0.024610
  16 S :    0.114885
  17 C :   -0.077091
  18 C :   -0.017985
  19 C :   -0.046112
  20 C :   -0.131263
  21 H :    0.029852
  22 C :   -0.011163
  23 H :    0.029288
  24 H :    0.011327
  25 C :   -0.072165
  26 H :    0.046720
  27 H :    0.030145
  28 C :   -0.017309
  29 H :    0.037680
  30 H :    0.040761
  31 H :    0.023529
  32 H :    0.004048
  33 H :    0.037861
Sum of atomic charges:   -0.0000000

LOEWDIN ATOMIC CHARGES
----------------------
   0 S :    0.376069
   1 C :   -0.177797
   2 C :   -0.054791
   3 C :   -0.072020
   4 C :   -0.172524
   5 H :    0.033842
   6 C :   -0.033733
   7 H :    0.037135
   8 H :    0.023404
   9 C :   -0.026594
  10 H :    0.027178
  11 H :    0.011326
  12 C :   -0.065307
  13 H :    0.025235
  14 H :    0.014506
  15 H :    0.029359
  16 S :    0.422036
  17 C :   -0.172988
  18 C :   -0.061905
  19 C :   -0.055670
  20 C :   -0.211509
  21 H :    0.036451
  22 C :   -0.038629
  23 H :    0.034899
  24 H :    0.017835
  25 C :   -0.039697
  26 H :    0.029872
  27 H :    0.024710
  28 C :   -0.063639
  29 H :    0.030441
  30 H :    0.026746
  31 H :    0.027293
  32 H :    0.007397
  33 H :    0.011073

  Mayer bond orders larger than 0.100000
B(  0-S ,  1-C ) :   1.1121 B(  0-S ,  4-C ) :   1.1230 B(  1-C ,  2-C ) :   1.6269
B(  1-C , 32-H ) :   0.9807 B(  2-C ,  3-C ) :   1.2147 B(  2-C ,  6-C ) :   1.0458
B(  3-C ,  4-C ) :   1.5886 B(  3-C ,  5-H ) :   0.9784 B(  4-C , 20-C ) :   1.0813
B(  6-C ,  7-H ) :   0.9402 B(  6-C ,  8-H ) :   0.9475 B(  6-C ,  9-C ) :   1.0496
B(  9-C , 10-H ) :   0.9598 B(  9-C , 11-H ) :   0.9569 B(  9-C , 12-C ) :   1.0725
B( 12-C , 13-H ) :   0.9755 B( 12-C , 14-H ) :   0.9734 B( 12-C , 15-H ) :   0.9680
B( 16-S , 17-C ) :   1.1608 B( 16-S , 20-C ) :   1.1424 B( 17-C , 18-C ) :   1.5933
B( 17-C , 33-H ) :   0.9730 B( 18-C , 19-C ) :   1.2504 B( 18-C , 21-H ) :   0.9881
B( 19-C , 20-C ) :   1.5767 B( 19-C , 22-C ) :   1.0438 B( 22-C , 23-H ) :   0.9372
B( 22-C , 24-H ) :   0.9393 B( 22-C , 25-C ) :   1.0440 B( 25-C , 26-H ) :   0.9575
B( 25-C , 27-H ) :   0.9561 B( 25-C , 28-C ) :   1.0717 B( 28-C , 29-H ) :   0.9731
B( 28-C , 30-H ) :   0.9735 B( 28-C , 31-H ) :   0.9713

Dispersion correction           -0.014320832
FINAL SINGLE POINT ENERGY     -1339.868639770652

DIPOLE MOMENT
-------------
                                X             Y             Z
Electronic contribution:      4.57463      25.64527      10.73522
Nuclear contribution   :     -4.81471     -26.17281     -11.06517
                        -----------------------------------------
Total Dipole Moment    :     -0.24007      -0.52754      -0.32995
                        -----------------------------------------
Magnitude (a.u.)       :      0.66693
Magnitude (Debye)      :      1.69521

Rotational constants in cm-1:     0.016807     0.009409     0.007348
Rotational constants in MHz :   503.848098   282.069652   220.287730

                             ****ORCA TERMINATED NORMALLY****
TOTAL RUN TIME: 0 days 0 hours 0 minutes 20 seconds 884 msec
