                         Program Version 4.2.1 -  RELEASE  -
|  1> ! wB97X-D3 SP def2-SVP
|  2> %pal
|  3> nprocs 24
|  4> end
|  5>
|  6> * xyz 0 1
|  7> S 	 -109.19 	 54.1128 	 -72.751
|  8> C 	 -109.111 	 52.8899 	 -74.0226
|  9> C 	 -107.883 	 52.8486 	 -74.631
| 10> C 	 -106.942 	 53.6639 	 -73.8598
| 11> C 	 -107.461 	 54.3759 	 -72.8447
| 12> H 	 -105.869 	 53.8964 	 -74.0428
| 13> C 	 -107.484 	 51.9693 	 -75.8131
| 14> H 	 -107.421 	 50.9392 	 -75.514
| 15> H 	 -106.514 	 52.1629 	 -76.089
| 16> C 	 -108.102 	 52.1897 	 -77.2348
| 17> H 	 -109.142 	 51.8218 	 -77.1881
| 18> H 	 -108.069 	 53.2475 	 -77.3281
| 19> C 	 -107.326 	 51.4232 	 -78.3493
| 20> H 	 -107.129 	 50.3824 	 -78.1698
| 21> H 	 -107.673 	 51.6156 	 -79.4029
| 22> H 	 -106.266 	 51.8314 	 -78.5168
| 23> S 	 -105.09 	 54.8081 	 -71.458
| 24> C 	 -105.019 	 56.0116 	 -70.1331
| 25> C 	 -106.219 	 56.7522 	 -70.1919
| 26> C 	 -107.124 	 56.468 	 -71.2899
| 27> C 	 -106.72 	 55.3073 	 -71.9871
| 28> H 	 -106.448 	 57.4392 	 -69.4343
| 29> C 	 -108.425 	 57.2086 	 -71.4301
| 30> H 	 -109.008 	 56.8412 	 -72.2931
| 31> H 	 -108.28 	 58.2699 	 -71.7485
| 32> C 	 -109.211 	 57.0687 	 -70.0615
| 33> H 	 -108.66 	 57.5204 	 -69.2963
| 34> H 	 -109.335 	 55.9409 	 -69.8762
| 35> C 	 -110.624 	 57.5923 	 -70.2257
| 36> H 	 -111.157 	 57.1904 	 -71.0348
| 37> H 	 -110.814 	 58.6318 	 -70.3673
| 38> H 	 -111.237 	 57.3464 	 -69.3317
| 39> H 	 -109.928 	 52.3313 	 -74.4222
| 40> H 	 -104.258 	 56.085 	 -69.3907
| 41> *
| 42>
| 43>                          ****END OF INPUT****

CARTESIAN COORDINATES (ANGSTROEM)
---------------------------------
  S    -109.190000   54.112800  -72.751000
  C    -109.111000   52.889900  -74.022600
  C    -107.883000   52.848600  -74.631000
  C    -106.942000   53.663900  -73.859800
  C    -107.461000   54.375900  -72.844700
  H    -105.869000   53.896400  -74.042800
  C    -107.484000   51.969300  -75.813100
  H    -107.421000   50.939200  -75.514000
  H    -106.514000   52.162900  -76.089000
  C    -108.102000   52.189700  -77.234800
  H    -109.142000   51.821800  -77.188100
  H    -108.069000   53.247500  -77.328100
  C    -107.326000   51.423200  -78.349300
  H    -107.129000   50.382400  -78.169800
  H    -107.673000   51.615600  -79.402900
  H    -106.266000   51.831400  -78.516800
  S    -105.090000   54.808100  -71.458000
  C    -105.019000   56.011600  -70.133100
  C    -106.219000   56.752200  -70.191900
  C    -107.124000   56.468000  -71.289900
  C    -106.720000   55.307300  -71.987100
  H    -106.448000   57.439200  -69.434300
  C    -108.425000   57.208600  -71.430100
  H    -109.008000   56.841200  -72.293100
  H    -108.280000   58.269900  -71.748500
  C    -109.211000   57.068700  -70.061500
  H    -108.660000   57.520400  -69.296300
  H    -109.335000   55.940900  -69.876200
  C    -110.624000   57.592300  -70.225700
  H    -111.157000   57.190400  -71.034800
  H    -110.814000   58.631800  -70.367300
  H    -111.237000   57.346400  -69.331700
  H    -109.928000   52.331300  -74.422200
  H    -104.258000   56.085000  -69.390700

 Total Charge           Charge          ....    0
 Multiplicity           Mult            ....    1
 Number of Electrons    NEL             ....  134
 Basis Dimension        Dim             ....  322

ORBITAL ENERGIES
----------------

  NO   OCC          E(Eh)            E(eV)
   0   2.0000     -88.968195     -2420.9477
   1   2.0000     -88.965316     -2420.8693
   2   2.0000     -10.334687      -281.2211
   3   2.0000     -10.328097      -281.0418
   4   2.0000     -10.324924      -280.9555
   5   2.0000     -10.314523      -280.6724
   6   2.0000     -10.308763      -280.5157
   7   2.0000     -10.308337      -280.5041
   8   2.0000     -10.297360      -280.2054
   9   2.0000     -10.297231      -280.2019
  10   2.0000     -10.294354      -280.1236
  11   2.0000     -10.294184      -280.1190
  12   2.0000     -10.293238      -280.0932
  13   2.0000     -10.291654      -280.0501
  14   2.0000     -10.285409      -279.8802
  15   2.0000     -10.269573      -279.4493
  16   2.0000      -8.082226      -219.9285
  17   2.0000      -8.078655      -219.8314
  18   2.0000      -6.040953      -164.3827
  19   2.0000      -6.037387      -164.2857
  20   2.0000      -6.036908      -164.2726
  21   2.0000      -6.033260      -164.1734
  22   2.0000      -6.032730      -164.1589
  23   2.0000      -6.029360      -164.0672
  24   2.0000      -1.003828       -27.3156
  25   2.0000      -0.976492       -26.5717
  26   2.0000      -0.909712       -24.7545
  27   2.0000      -0.906306       -24.6618
  28   2.0000      -0.869672       -23.6650
  29   2.0000      -0.849668       -23.1206
  30   2.0000      -0.842128       -22.9155
  31   2.0000      -0.812669       -22.1138
  32   2.0000      -0.783075       -21.3086
  33   2.0000      -0.771680       -20.9985
  34   2.0000      -0.711238       -19.3538
  35   2.0000      -0.707802       -19.2603
  36   2.0000      -0.699314       -19.0293
  37   2.0000      -0.666622       -18.1397
  38   2.0000      -0.636299       -17.3146
  39   2.0000      -0.610780       -16.6202
  40   2.0000      -0.597104       -16.2480
  41   2.0000      -0.573739       -15.6122
  42   2.0000      -0.566355       -15.4113
  43   2.0000      -0.561583       -15.2814
  44   2.0000      -0.528180       -14.3725
  45   2.0000      -0.523886       -14.2557
  46   2.0000      -0.517471       -14.0811
  47   2.0000      -0.512496       -13.9457
  48   2.0000      -0.504192       -13.7198
  49   2.0000      -0.497740       -13.5442
  50   2.0000      -0.492772       -13.4090
  51   2.0000      -0.477578       -12.9956
  52   2.0000      -0.468586       -12.7509
  53   2.0000      -0.465550       -12.6683
  54   2.0000      -0.455910       -12.4059
  55   2.0000      -0.452325       -12.3084
  56   2.0000      -0.445696       -12.1280
  57   2.0000      -0.439618       -11.9626
  58   2.0000      -0.430483       -11.7140
  59   2.0000      -0.427773       -11.6403
  60   2.0000      -0.420186       -11.4338
  61   2.0000      -0.411639       -11.2013
  62   2.0000      -0.408271       -11.1096
  63   2.0000      -0.356800        -9.7090
  64   2.0000      -0.330806        -9.0017
  65   2.0000      -0.325602        -8.8601
  66   2.0000      -0.287527        -7.8240
  67   0.0000       0.022904         0.6232
  68   0.0000       0.071674         1.9504
  69   0.0000       0.101167         2.7529
  70   0.0000       0.115903         3.1539
  71   0.0000       0.128494         3.4965

MULLIKEN ATOMIC CHARGES
-----------------------
   0 S :    0.098417
   1 C :   -0.102138
   2 C :   -0.074694
   3 C :   -0.020557
   4 C :   -0.100711
   5 H :    0.026937
   6 C :    0.080803
   7 H :    0.036477
   8 H :   -0.016772
   9 C :   -0.048070
  10 H :    0.036560
  11 H :    0.034458
  12 C :   -0.097530
  13 H :    0.041065
  14 H :    0.047935
  15 H :    0.028322
  16 S :    0.080213
  17 C :   -0.079234
  18 C :   -0.031838
  19 C :   -0.040305
  20 C :   -0.136098
  21 H :    0.006886
  22 C :    0.021836
  23 H :    0.022258
  24 H :    0.043941
  25 C :   -0.078596
  26 H :    0.030124
  27 H :    0.053317
  28 C :   -0.018610
  29 H :    0.013217
  30 H :    0.016138
  31 H :    0.029552
  32 H :    0.038841
  33 H :    0.057856
Sum of atomic charges:    0.0000000

LOEWDIN ATOMIC CHARGES
----------------------
   0 S :    0.397575
   1 C :   -0.181560
   2 C :   -0.056239
   3 C :   -0.073468
   4 C :   -0.189880
   5 H :    0.034268
   6 C :   -0.034348
   7 H :    0.031554
   8 H :    0.018949
   9 C :   -0.029229
  10 H :    0.022539
  11 H :    0.024694
  12 C :   -0.081602
  13 H :    0.023885
  14 H :    0.036092
  15 H :    0.032037
  16 S :    0.377250
  17 C :   -0.170475
  18 C :   -0.059252
  19 C :   -0.057598
  20 C :   -0.180899
  21 H :    0.019006
  22 C :   -0.043007
  23 H :    0.022163
  24 H :    0.037776
  25 C :   -0.028296
  26 H :    0.014683
  27 H :    0.040075
  28 C :   -0.071305
  29 H :    0.019906
  30 H :    0.019967
  31 H :    0.030821
  32 H :    0.025803
  33 H :    0.028116

  Mayer bond orders larger than 0.100000
B(  0-S ,  1-C ) :   1.1223 B(  0-S ,  4-C ) :   1.1121 B(  1-C ,  2-C ) :   1.6464
B(  1-C , 32-H ) :   0.9712 B(  2-C ,  3-C ) :   1.1996 B(  2-C ,  6-C ) :   1.0241
B(  3-C ,  4-C ) :   1.6197 B(  3-C ,  5-H ) :   0.9849 B(  4-C , 20-C ) :   1.0599
B(  6-C ,  7-H ) :   0.9389 B(  6-C ,  8-H ) :   0.9368 B(  6-C ,  9-C ) :   1.0415
B(  9-C , 10-H ) :   0.9591 B(  9-C , 11-H ) :   0.9601 B(  9-C , 12-C ) :   1.0769
B( 12-C , 13-H ) :   0.9780 B( 12-C , 14-H ) :   0.9744 B( 12-C , 15-H ) :   0.9690
B( 16-S , 17-C ) :   1.1325 B( 16-S , 20-C ) :   1.1341 B( 17-C , 18-C ) :   1.6073
B( 17-C , 33-H ) :   0.9757 B( 18-C , 19-C ) :   1.2270 B( 18-C , 21-H ) :   0.9933
B( 19-C , 20-C ) :   1.5676 B( 19-C , 22-C ) :   1.0581 B( 22-C , 23-H ) :   0.9390
B( 22-C , 24-H ) :   0.9286 B( 22-C , 25-C ) :   1.0423 B( 25-C , 26-H ) :   0.9586
B( 25-C , 27-H ) :   0.9555 B( 25-C , 28-C ) :   1.0840 B( 28-C , 29-H ) :   0.9713
B( 28-C , 30-H ) :   0.9716 B( 28-C , 31-H ) :   0.9720

Dispersion correction           -0.013703502
FINAL SINGLE POINT ENERGY     -1339.853619642302

DIPOLE MOMENT
-------------
                                X             Y             Z
Electronic contribution:      9.92539      -0.01683      11.89755
Nuclear contribution   :    -10.05853       0.10803     -12.07313
                        -----------------------------------------
Total Dipole Moment    :     -0.13313       0.09120      -0.17559
                        -----------------------------------------
Magnitude (a.u.)       :      0.23848
Magnitude (Debye)      :      0.60616

Rotational constants in cm-1:     0.022401     0.007154     0.005731
Rotational constants in MHz :   671.558838   214.476536   171.809024

                             ****ORCA TERMINATED NORMALLY****
TOTAL RUN TIME: 0 days 0 hours 0 minutes 19 seconds 614 msec
