                         Program Version 4.2.1 -  RELEASE  -
|  1> ! wB97X-D3 SP def2-SVP
|  2> %pal
|  3> nprocs 24
|  4> end
|  5>
|  6> * xyz 0 1
|  7> S 	 -123.666 	 59.7572 	 -47.3012
|  8> C 	 -124.298 	 58.2832 	 -47.8656
|  9> C 	 -125.301 	 58.5067 	 -48.8185
| 10> C 	 -125.408 	 59.8839 	 -49.2414
| 11> C 	 -124.56 	 60.7133 	 -48.5116
| 12> H 	 -125.932 	 60.2562 	 -50.0883
| 13> C 	 -126.238 	 57.387 	 -49.3056
| 14> H 	 -125.61 	 56.477 	 -49.3265
| 15> H 	 -126.725 	 57.728 	 -50.1987
| 16> C 	 -127.357 	 56.9574 	 -48.3234
| 17> H 	 -127.931 	 56.1886 	 -48.9181
| 18> H 	 -126.936 	 56.5218 	 -47.4702
| 19> C 	 -128.468 	 57.9965 	 -47.9617
| 20> H 	 -128.15 	 58.7441 	 -47.2918
| 21> H 	 -128.965 	 58.4479 	 -48.8146
| 22> H 	 -129.316 	 57.4486 	 -47.4405
| 23> S 	 -123.692 	 62.8299 	 -49.9999
| 24> C 	 -123.958 	 64.4311 	 -49.5211
| 25> C 	 -124.716 	 64.4609 	 -48.3513
| 26> C 	 -125.011 	 63.1252 	 -47.8274
| 27> C 	 -124.49 	 62.121 	 -48.6339
| 28> H 	 -125.071 	 65.4336 	 -47.9977
| 29> C 	 -126.045 	 62.8861 	 -46.7028
| 30> H 	 -125.648 	 62.3017 	 -45.9035
| 31> H 	 -126.862 	 62.3472 	 -47.194
| 32> C 	 -126.581 	 64.1737 	 -46.0444
| 33> H 	 -126.955 	 64.7596 	 -46.9164
| 34> H 	 -125.807 	 64.7756 	 -45.5245
| 35> C 	 -127.774 	 63.9523 	 -45.0932
| 36> H 	 -127.397 	 63.2217 	 -44.2919
| 37> H 	 -128.798 	 63.6315 	 -45.497
| 38> H 	 -128.02 	 64.8084 	 -44.5109
| 39> H 	 -124.215 	 57.2819 	 -47.4593
| 40> H 	 -123.716 	 65.3618 	 -50.087
| 41> *
| 42>
| 43>                          ****END OF INPUT****

CARTESIAN COORDINATES (ANGSTROEM)
---------------------------------
  S    -123.666000   59.757200  -47.301200
  C    -124.298000   58.283200  -47.865600
  C    -125.301000   58.506700  -48.818500
  C    -125.408000   59.883900  -49.241400
  C    -124.560000   60.713300  -48.511600
  H    -125.932000   60.256200  -50.088300
  C    -126.238000   57.387000  -49.305600
  H    -125.610000   56.477000  -49.326500
  H    -126.725000   57.728000  -50.198700
  C    -127.357000   56.957400  -48.323400
  H    -127.931000   56.188600  -48.918100
  H    -126.936000   56.521800  -47.470200
  C    -128.468000   57.996500  -47.961700
  H    -128.150000   58.744100  -47.291800
  H    -128.965000   58.447900  -48.814600
  H    -129.316000   57.448600  -47.440500
  S    -123.692000   62.829900  -49.999900
  C    -123.958000   64.431100  -49.521100
  C    -124.716000   64.460900  -48.351300
  C    -125.011000   63.125200  -47.827400
  C    -124.490000   62.121000  -48.633900
  H    -125.071000   65.433600  -47.997700
  C    -126.045000   62.886100  -46.702800
  H    -125.648000   62.301700  -45.903500
  H    -126.862000   62.347200  -47.194000
  C    -126.581000   64.173700  -46.044400
  H    -126.955000   64.759600  -46.916400
  H    -125.807000   64.775600  -45.524500
  C    -127.774000   63.952300  -45.093200
  H    -127.397000   63.221700  -44.291900
  H    -128.798000   63.631500  -45.497000
  H    -128.020000   64.808400  -44.510900
  H    -124.215000   57.281900  -47.459300
  H    -123.716000   65.361800  -50.087000

 Total Charge           Charge          ....    0
 Multiplicity           Mult            ....    1
 Number of Electrons    NEL             ....  134
 Basis Dimension        Dim             ....  322

ORBITAL ENERGIES
----------------

  NO   OCC          E(Eh)            E(eV)
   0   2.0000     -88.968732     -2420.9623
   1   2.0000     -88.963556     -2420.8214
   2   2.0000     -10.328325      -281.0480
   3   2.0000     -10.319488      -280.8076
   4   2.0000     -10.317138      -280.7436
   5   2.0000     -10.312465      -280.6164
   6   2.0000     -10.307738      -280.4878
   7   2.0000     -10.301488      -280.3177
   8   2.0000     -10.296589      -280.1844
   9   2.0000     -10.296068      -280.1702
  10   2.0000     -10.293953      -280.1127
  11   2.0000     -10.292498      -280.0731
  12   2.0000     -10.290713      -280.0245
  13   2.0000     -10.289264      -279.9851
  14   2.0000     -10.287152      -279.9276
  15   2.0000     -10.277772      -279.6724
  16   2.0000      -8.083280      -219.9572
  17   2.0000      -8.079531      -219.8552
  18   2.0000      -6.041776      -164.4051
  19   2.0000      -6.037951      -164.3010
  20   2.0000      -6.037675      -164.2935
  21   2.0000      -6.034183      -164.1985
  22   2.0000      -6.033625      -164.1833
  23   2.0000      -6.030542      -164.0994
  24   2.0000      -1.008884       -27.4531
  25   2.0000      -0.985364       -26.8131
  26   2.0000      -0.906540       -24.6682
  27   2.0000      -0.904961       -24.6252
  28   2.0000      -0.875066       -23.8118
  29   2.0000      -0.846116       -23.0240
  30   2.0000      -0.842353       -22.9216
  31   2.0000      -0.813308       -22.1312
  32   2.0000      -0.782576       -21.2950
  33   2.0000      -0.769945       -20.9513
  34   2.0000      -0.705494       -19.1975
  35   2.0000      -0.698617       -19.0103
  36   2.0000      -0.696718       -18.9587
  37   2.0000      -0.647617       -17.6226
  38   2.0000      -0.640026       -17.4160
  39   2.0000      -0.610774       -16.6200
  40   2.0000      -0.593426       -16.1479
  41   2.0000      -0.579630       -15.7725
  42   2.0000      -0.569589       -15.4993
  43   2.0000      -0.551824       -15.0159
  44   2.0000      -0.537789       -14.6340
  45   2.0000      -0.520207       -14.1556
  46   2.0000      -0.512530       -13.9467
  47   2.0000      -0.508690       -13.8421
  48   2.0000      -0.506417       -13.7803
  49   2.0000      -0.500392       -13.6164
  50   2.0000      -0.488953       -13.3051
  51   2.0000      -0.482616       -13.1326
  52   2.0000      -0.469798       -12.7839
  53   2.0000      -0.464132       -12.6297
  54   2.0000      -0.460434       -12.5290
  55   2.0000      -0.451009       -12.2726
  56   2.0000      -0.448827       -12.2132
  57   2.0000      -0.432696       -11.7743
  58   2.0000      -0.431274       -11.7356
  59   2.0000      -0.427101       -11.6220
  60   2.0000      -0.417415       -11.3584
  61   2.0000      -0.408961       -11.1284
  62   2.0000      -0.408088       -11.1046
  63   2.0000      -0.339175        -9.2294
  64   2.0000      -0.328428        -8.9370
  65   2.0000      -0.322223        -8.7681
  66   2.0000      -0.301102        -8.1934
  67   0.0000       0.038825         1.0565
  68   0.0000       0.057855         1.5743
  69   0.0000       0.113196         3.0802
  70   0.0000       0.120707         3.2846
  71   0.0000       0.130937         3.5630

MULLIKEN ATOMIC CHARGES
-----------------------
   0 S :    0.134024
   1 C :   -0.099619
   2 C :   -0.123649
   3 C :    0.054981
   4 C :   -0.173452
   5 H :    0.011038
   6 C :    0.088623
   7 H :    0.033406
   8 H :    0.015048
   9 C :   -0.073918
  10 H :    0.036253
  11 H :    0.016447
  12 C :   -0.062828
  13 H :    0.037511
  14 H :    0.026188
  15 H :    0.034193
  16 S :    0.128523
  17 C :   -0.099383
  18 C :   -0.075153
  19 C :   -0.030297
  20 C :   -0.194963
  21 H :    0.025695
  22 C :    0.107969
  23 H :    0.020374
  24 H :    0.042704
  25 C :   -0.129292
  26 H :    0.034583
  27 H :    0.046851
  28 C :   -0.056595
  29 H :    0.032075
  30 H :    0.049107
  31 H :    0.023403
  32 H :    0.045693
  33 H :    0.074459
Sum of atomic charges:   -0.0000000

LOEWDIN ATOMIC CHARGES
----------------------
   0 S :    0.423703
   1 C :   -0.219726
   2 C :   -0.065865
   3 C :   -0.050864
   4 C :   -0.193029
   5 H :    0.029306
   6 C :   -0.029571
   7 H :    0.038311
   8 H :    0.025384
   9 C :   -0.034777
  10 H :    0.031903
  11 H :    0.012073
  12 C :   -0.069988
  13 H :    0.017452
  14 H :    0.022837
  15 H :    0.034309
  16 S :    0.443613
  17 C :   -0.215252
  18 C :   -0.084219
  19 C :   -0.049500
  20 C :   -0.222628
  21 H :    0.031366
  22 C :   -0.027095
  23 H :    0.024608
  24 H :    0.039461
  25 C :   -0.050149
  26 H :    0.025049
  27 H :    0.030103
  28 C :   -0.077774
  29 H :    0.031560
  30 H :    0.034418
  31 H :    0.020097
  32 H :    0.031316
  33 H :    0.043567

  Mayer bond orders larger than 0.100000
B(  0-S ,  1-C ) :   1.1518 B(  0-S ,  4-C ) :   1.1436 B(  1-C ,  2-C ) :   1.5945
B(  1-C , 32-H ) :   0.9643 B(  2-C ,  3-C ) :   1.2469 B(  2-C ,  6-C ) :   1.0304
B(  3-C ,  4-C ) :   1.5635 B(  3-C ,  5-H ) :   0.9960 B(  4-C , 20-C ) :   1.0622
B(  6-C ,  7-H ) :   0.9365 B(  6-C ,  8-H ) :   0.9407 B(  6-C ,  9-C ) :   1.0744
B(  9-C , 10-H ) :   0.9588 B(  9-C , 11-H ) :   0.9575 B(  9-C , 12-C ) :   1.0726
B( 12-C , 13-H ) :   0.9783 B( 12-C , 14-H ) :   0.9753 B( 12-C , 15-H ) :   0.9743
B( 16-S , 17-C ) :   1.1832 B( 16-S , 20-C ) :   1.1546 B( 17-C , 18-C ) :   1.5808
B( 17-C , 33-H ) :   0.9583 B( 18-C , 19-C ) :   1.2564 B( 18-C , 21-H ) :   0.9854
B( 19-C , 20-C ) :   1.5791 B( 19-C , 22-C ) :   1.0291 B( 22-C , 23-H ) :   0.9226
B( 22-C , 24-H ) :   0.9380 B( 22-C , 25-C ) :   1.0829 B( 25-C , 26-H ) :   0.9460
B( 25-C , 27-H ) :   0.9537 B( 25-C , 28-C ) :   1.0820 B( 28-C , 29-H ) :   0.9706
B( 28-C , 30-H ) :   0.9747 B( 28-C , 31-H ) :   0.9720

Dispersion correction           -0.014133640
FINAL SINGLE POINT ENERGY     -1339.872167964961

DIPOLE MOMENT
-------------
                                X             Y             Z
Electronic contribution:     24.77340       3.95640     -10.80845
Nuclear contribution   :    -25.43235      -3.96227      10.89802
                        -----------------------------------------
Total Dipole Moment    :     -0.65895      -0.00587       0.08957
                        -----------------------------------------
Magnitude (a.u.)       :      0.66503
Magnitude (Debye)      :      1.69038

Rotational constants in cm-1:     0.017006     0.008806     0.006910
Rotational constants in MHz :   509.829027   263.990591   207.156642

                             ****ORCA TERMINATED NORMALLY****
TOTAL RUN TIME: 0 days 0 hours 0 minutes 22 seconds 204 msec
