                         Program Version 4.2.1 -  RELEASE  -
|  1> ! wB97X-D3 SP def2-SVP
|  2> %pal
|  3> nprocs 24
|  4> end
|  5>
|  6> * xyz 0 1
|  7> S 	 -81.861 	 -22.7533 	 -52.4986
|  8> C 	 -81.0845 	 -22.1926 	 -51.0676
|  9> C 	 -80.758 	 -23.2526 	 -50.2295
| 10> C 	 -81.1107 	 -24.5565 	 -50.8294
| 11> C 	 -81.5288 	 -24.5108 	 -52.105
| 12> H 	 -81.0004 	 -25.5118 	 -50.4878
| 13> C 	 -80.1242 	 -23.1183 	 -48.8652
| 14> H 	 -79.2702 	 -22.4104 	 -49.027
| 15> H 	 -79.6367 	 -24.1146 	 -48.6723
| 16> C 	 -81.1006 	 -22.6467 	 -47.8205
| 17> H 	 -81.5876 	 -21.6622 	 -48.1037
| 18> H 	 -81.9114 	 -23.3562 	 -47.6965
| 19> C 	 -80.3317 	 -22.4343 	 -46.451
| 20> H 	 -80.9576 	 -22.0208 	 -45.6548
| 21> H 	 -79.7728 	 -23.3252 	 -46.1124
| 22> H 	 -79.5269 	 -21.7278 	 -46.6885
| 23> S 	 -83.7642 	 -25.7623 	 -52.9916
| 24> C 	 -83.695 	 -27.3881 	 -53.6447
| 25> C 	 -82.3763 	 -27.7369 	 -53.7529
| 26> C 	 -81.4133 	 -26.8059 	 -53.2956
| 27> C 	 -82.0317 	 -25.6197 	 -52.9028
| 28> H 	 -82.0521 	 -28.7307 	 -54.0412
| 29> C 	 -79.9296 	 -27.3021 	 -53.3182
| 30> H 	 -79.9263 	 -28.2708 	 -52.9094
| 31> H 	 -79.5163 	 -26.5881 	 -52.7756
| 32> C 	 -79.2126 	 -27.3063 	 -54.6507
| 33> H 	 -79.4855 	 -28.1871 	 -55.2048
| 34> H 	 -78.145 	 -27.4358 	 -54.548
| 35> C 	 -79.5393 	 -26.068 	 -55.4358
| 36> H 	 -80.6496 	 -25.9047 	 -55.6064
| 37> H 	 -78.9283 	 -26.0573 	 -56.4105
| 38> H 	 -79.2267 	 -25.2301 	 -54.8125
| 39> H 	 -80.9948 	 -21.1275 	 -50.7681
| 40> H 	 -84.5147 	 -28.0136 	 -53.8648
| 41> *
| 42>
| 43>                          ****END OF INPUT****

CARTESIAN COORDINATES (ANGSTROEM)
---------------------------------
  S    -81.861000  -22.753300  -52.498600
  C    -81.084500  -22.192600  -51.067600
  C    -80.758000  -23.252600  -50.229500
  C    -81.110700  -24.556500  -50.829400
  C    -81.528800  -24.510800  -52.105000
  H    -81.000400  -25.511800  -50.487800
  C    -80.124200  -23.118300  -48.865200
  H    -79.270200  -22.410400  -49.027000
  H    -79.636700  -24.114600  -48.672300
  C    -81.100600  -22.646700  -47.820500
  H    -81.587600  -21.662200  -48.103700
  H    -81.911400  -23.356200  -47.696500
  C    -80.331700  -22.434300  -46.451000
  H    -80.957600  -22.020800  -45.654800
  H    -79.772800  -23.325200  -46.112400
  H    -79.526900  -21.727800  -46.688500
  S    -83.764200  -25.762300  -52.991600
  C    -83.695000  -27.388100  -53.644700
  C    -82.376300  -27.736900  -53.752900
  C    -81.413300  -26.805900  -53.295600
  C    -82.031700  -25.619700  -52.902800
  H    -82.052100  -28.730700  -54.041200
  C    -79.929600  -27.302100  -53.318200
  H    -79.926300  -28.270800  -52.909400
  H    -79.516300  -26.588100  -52.775600
  C    -79.212600  -27.306300  -54.650700
  H    -79.485500  -28.187100  -55.204800
  H    -78.145000  -27.435800  -54.548000
  C    -79.539300  -26.068000  -55.435800
  H    -80.649600  -25.904700  -55.606400
  H    -78.928300  -26.057300  -56.410500
  H    -79.226700  -25.230100  -54.812500
  H    -80.994800  -21.127500  -50.768100
  H    -84.514700  -28.013600  -53.864800

 Total Charge           Charge          ....    0
 Multiplicity           Mult            ....    1
 Number of Electrons    NEL             ....  134
 Basis Dimension        Dim             ....  322

ORBITAL ENERGIES
----------------

  NO   OCC          E(Eh)            E(eV)
   0   2.0000     -88.965781     -2420.8820
   1   2.0000     -88.959480     -2420.7105
   2   2.0000     -10.329697      -281.0853
   3   2.0000     -10.329085      -281.0687
   4   2.0000     -10.317602      -280.7562
   5   2.0000     -10.316477      -280.7256
   6   2.0000     -10.305132      -280.4169
   7   2.0000     -10.304486      -280.3993
   8   2.0000     -10.297532      -280.2101
   9   2.0000     -10.294555      -280.1291
  10   2.0000     -10.290087      -280.0075
  11   2.0000     -10.288872      -279.9744
  12   2.0000     -10.282845      -279.8104
  13   2.0000     -10.280710      -279.7523
  14   2.0000     -10.278563      -279.6939
  15   2.0000     -10.277655      -279.6692
  16   2.0000      -8.080738      -219.8881
  17   2.0000      -8.073898      -219.7019
  18   2.0000      -6.039323      -164.3383
  19   2.0000      -6.035104      -164.2235
  20   2.0000      -6.032553      -164.1541
  21   2.0000      -6.031482      -164.1250
  22   2.0000      -6.028511      -164.0441
  23   2.0000      -6.024447      -163.9336
  24   2.0000      -1.007172       -27.4065
  25   2.0000      -0.982379       -26.7319
  26   2.0000      -0.917872       -24.9766
  27   2.0000      -0.910098       -24.7650
  28   2.0000      -0.874746       -23.8030
  29   2.0000      -0.847883       -23.0721
  30   2.0000      -0.840338       -22.8668
  31   2.0000      -0.817283       -22.2394
  32   2.0000      -0.782941       -21.3049
  33   2.0000      -0.765364       -20.8266
  34   2.0000      -0.704823       -19.1792
  35   2.0000      -0.701821       -19.0975
  36   2.0000      -0.696639       -18.9565
  37   2.0000      -0.663773       -18.0622
  38   2.0000      -0.649683       -17.6788
  39   2.0000      -0.613392       -16.6913
  40   2.0000      -0.597593       -16.2613
  41   2.0000      -0.565879       -15.3983
  42   2.0000      -0.562113       -15.2959
  43   2.0000      -0.555225       -15.1084
  44   2.0000      -0.549188       -14.9442
  45   2.0000      -0.526268       -14.3205
  46   2.0000      -0.519219       -14.1287
  47   2.0000      -0.511181       -13.9099
  48   2.0000      -0.508138       -13.8271
  49   2.0000      -0.499628       -13.5956
  50   2.0000      -0.497383       -13.5345
  51   2.0000      -0.475557       -12.9406
  52   2.0000      -0.465281       -12.6610
  53   2.0000      -0.458935       -12.4882
  54   2.0000      -0.454814       -12.3761
  55   2.0000      -0.449461       -12.2305
  56   2.0000      -0.445722       -12.1287
  57   2.0000      -0.438731       -11.9385
  58   2.0000      -0.429684       -11.6923
  59   2.0000      -0.425636       -11.5821
  60   2.0000      -0.420293       -11.4367
  61   2.0000      -0.409435       -11.1413
  62   2.0000      -0.407208       -11.0807
  63   2.0000      -0.350315        -9.5326
  64   2.0000      -0.331062        -9.0086
  65   2.0000      -0.320909        -8.7324
  66   2.0000      -0.301409        -8.2018
  67   0.0000       0.036275         0.9871
  68   0.0000       0.058544         1.5931
  69   0.0000       0.116359         3.1663
  70   0.0000       0.125536         3.4160
  71   0.0000       0.127138         3.4596

MULLIKEN ATOMIC CHARGES
-----------------------
   0 S :    0.080851
   1 C :   -0.108137
   2 C :   -0.110212
   3 C :    0.092621
   4 C :   -0.174246
   5 H :   -0.023702
   6 C :    0.030942
   7 H :    0.038461
   8 H :    0.033510
   9 C :   -0.073214
  10 H :    0.038675
  11 H :    0.034530
  12 C :   -0.048679
  13 H :    0.045302
  14 H :    0.032377
  15 H :    0.021238
  16 S :    0.110658
  17 C :   -0.069917
  18 C :   -0.022240
  19 C :   -0.117434
  20 C :   -0.163134
  21 H :    0.009931
  22 C :    0.194040
  23 H :    0.020861
  24 H :   -0.023479
  25 C :   -0.050308
  26 H :    0.010786
  27 H :    0.028211
  28 C :   -0.087460
  29 H :    0.064985
  30 H :    0.045379
  31 H :    0.026897
  32 H :    0.066213
  33 H :    0.045692
Sum of atomic charges:   -0.0000000

LOEWDIN ATOMIC CHARGES
----------------------
   0 S :    0.367945
   1 C :   -0.203013
   2 C :   -0.065788
   3 C :   -0.045933
   4 C :   -0.175163
   5 H :    0.017938
   6 C :   -0.043180
   7 H :    0.036591
   8 H :    0.036150
   9 C :   -0.039280
  10 H :    0.031208
  11 H :    0.023700
  12 C :   -0.071101
  13 H :    0.026063
  14 H :    0.026191
  15 H :    0.023899
  16 S :    0.418242
  17 C :   -0.176101
  18 C :   -0.073268
  19 C :   -0.050543
  20 C :   -0.208351
  21 H :    0.026793
  22 C :   -0.005699
  23 H :    0.028534
  24 H :    0.007873
  25 C :   -0.041716
  26 H :    0.015738
  27 H :    0.026662
  28 C :   -0.072780
  29 H :    0.036961
  30 H :    0.033403
  31 H :    0.023548
  32 H :    0.039220
  33 H :    0.025258

  Mayer bond orders larger than 0.100000
B(  0-S ,  1-C ) :   1.1396 B(  0-S ,  4-C ) :   1.1050 B(  1-C ,  2-C ) :   1.6334
B(  1-C , 32-H ) :   0.9629 B(  2-C ,  3-C ) :   1.1893 B(  2-C ,  6-C ) :   1.0153
B(  3-C ,  4-C ) :   1.6431 B(  3-C ,  5-H ) :   1.0035 B(  4-C , 20-C ) :   1.0103
B(  6-C ,  7-H ) :   0.9424 B(  6-C ,  8-H ) :   0.9425 B(  6-C ,  9-C ) :   1.0611
B(  9-C , 10-H ) :   0.9573 B(  9-C , 11-H ) :   0.9562 B(  9-C , 12-C ) :   1.0671
B( 12-C , 13-H ) :   0.9766 B( 12-C , 14-H ) :   0.9754 B( 12-C , 15-H ) :   0.9753
B( 16-S , 17-C ) :   1.1512 B( 16-S , 20-C ) :   1.1636 B( 17-C , 18-C ) :   1.5880
B( 17-C , 33-H ) :   0.9776 B( 18-C , 19-C ) :   1.2618 B( 18-C , 21-H ) :   0.9866
B( 19-C , 20-C ) :   1.5898 B( 19-C , 22-C ) :   1.0144 B( 22-C , 23-H ) :   0.9350
B( 22-C , 24-H ) :   0.9146 B( 22-C , 25-C ) :   1.0811 B( 25-C , 26-H ) :   0.9476
B( 25-C , 27-H ) :   0.9526 B( 25-C , 28-C ) :   1.0855 B( 28-C , 29-H ) :   0.9628
B( 28-C , 30-H ) :   0.9705 B( 28-C , 31-H ) :   0.9766

Dispersion correction           -0.014316097
FINAL SINGLE POINT ENERGY     -1339.858553910844

DIPOLE MOMENT
-------------
                                X             Y             Z
Electronic contribution:    -17.22298       1.76561     -10.85178
Nuclear contribution   :     17.59169      -2.20029      11.30403
                        -----------------------------------------
Total Dipole Moment    :      0.36871      -0.43468       0.45225
                        -----------------------------------------
Magnitude (a.u.)       :      0.72762
Magnitude (Debye)      :      1.84945

Rotational constants in cm-1:     0.021874     0.007163     0.006687
Rotational constants in MHz :   655.778252   214.731225   200.477380

                             ****ORCA TERMINATED NORMALLY****
TOTAL RUN TIME: 0 days 0 hours 0 minutes 21 seconds 389 msec
