                         Program Version 4.2.1 -  RELEASE  -
|  1> ! wB97X-D3 SP def2-SVP
|  2> %pal
|  3> nprocs 24
|  4> end
|  5>
|  6> * xyz 0 1
|  7> S 	 -37.6249 	 9.97128 	 25.3893
|  8> C 	 -39.2874 	 9.74465 	 24.9964
|  9> C 	 -40.0711 	 10.0343 	 26.11
| 10> C 	 -39.2936 	 10.5104 	 27.258
| 11> C 	 -37.9189 	 10.3651 	 27.0922
| 12> H 	 -39.6031 	 10.8264 	 28.2498
| 13> C 	 -41.5408 	 9.89403 	 26.0878
| 14> H 	 -41.7515 	 8.82758 	 26.0283
| 15> H 	 -41.8699 	 10.334 	 25.1722
| 16> C 	 -42.3566 	 10.3589 	 27.4472
| 17> H 	 -41.8123 	 9.96622 	 28.2742
| 18> H 	 -42.5387 	 11.3896 	 27.5227
| 19> C 	 -43.797 	 9.73317 	 27.407
| 20> H 	 -44.2831 	 9.84105 	 28.3339
| 21> H 	 -44.4264 	 10.2248 	 26.6291
| 22> H 	 -43.7681 	 8.68934 	 27.3028
| 23> S 	 -36.3335 	 12.5097 	 27.8259
| 24> C 	 -35.3215 	 12.3393 	 29.2618
| 25> C 	 -35.5818 	 11.1292 	 29.929
| 26> C 	 -36.5241 	 10.3011 	 29.2698
| 27> C 	 -36.9376 	 10.8582 	 28.0573
| 28> H 	 -35.0948 	 10.9308 	 30.8148
| 29> C 	 -36.8168 	 8.91717 	 29.8434
| 30> H 	 -35.8541 	 8.39819 	 29.904
| 31> H 	 -37.3905 	 8.21689 	 29.2331
| 32> C 	 -37.4312 	 9.00394 	 31.2583
| 33> H 	 -36.7142 	 9.46994 	 31.9688
| 34> H 	 -37.5507 	 8.03874 	 31.7027
| 35> C 	 -38.7845 	 9.75777 	 31.4236
| 36> H 	 -39.4757 	 9.03684 	 31.013
| 37> H 	 -38.7992 	 10.7392 	 30.9545
| 38> H 	 -39.0483 	 9.99049 	 32.4702
| 39> H 	 -39.6969 	 9.49146 	 24.0619
| 40> H 	 -34.6482 	 13.0375 	 29.6741
| 41> *
| 42>
| 43>                          ****END OF INPUT****

CARTESIAN COORDINATES (ANGSTROEM)
---------------------------------
  S    -37.624900    9.971280   25.389300
  C    -39.287400    9.744650   24.996400
  C    -40.071100   10.034300   26.110000
  C    -39.293600   10.510400   27.258000
  C    -37.918900   10.365100   27.092200
  H    -39.603100   10.826400   28.249800
  C    -41.540800    9.894030   26.087800
  H    -41.751500    8.827580   26.028300
  H    -41.869900   10.334000   25.172200
  C    -42.356600   10.358900   27.447200
  H    -41.812300    9.966220   28.274200
  H    -42.538700   11.389600   27.522700
  C    -43.797000    9.733170   27.407000
  H    -44.283100    9.841050   28.333900
  H    -44.426400   10.224800   26.629100
  H    -43.768100    8.689340   27.302800
  S    -36.333500   12.509700   27.825900
  C    -35.321500   12.339300   29.261800
  C    -35.581800   11.129200   29.929000
  C    -36.524100   10.301100   29.269800
  C    -36.937600   10.858200   28.057300
  H    -35.094800   10.930800   30.814800
  C    -36.816800    8.917170   29.843400
  H    -35.854100    8.398190   29.904000
  H    -37.390500    8.216890   29.233100
  C    -37.431200    9.003940   31.258300
  H    -36.714200    9.469940   31.968800
  H    -37.550700    8.038740   31.702700
  C    -38.784500    9.757770   31.423600
  H    -39.475700    9.036840   31.013000
  H    -38.799200   10.739200   30.954500
  H    -39.048300    9.990490   32.470200
  H    -39.696900    9.491460   24.061900
  H    -34.648200   13.037500   29.674100

 Total Charge           Charge          ....    0
 Multiplicity           Mult            ....    1
 Number of Electrons    NEL             ....  134
 Basis Dimension        Dim             ....  322

ORBITAL ENERGIES
----------------

  NO   OCC          E(Eh)            E(eV)
   0   2.0000     -88.968263     -2420.9495
   1   2.0000     -88.962269     -2420.7864
   2   2.0000     -10.328413      -281.0504
   3   2.0000     -10.326688      -281.0035
   4   2.0000     -10.317624      -280.7568
   5   2.0000     -10.308566      -280.5103
   6   2.0000     -10.306617      -280.4573
   7   2.0000     -10.300971      -280.3037
   8   2.0000     -10.296500      -280.1820
   9   2.0000     -10.295755      -280.1617
  10   2.0000     -10.291067      -280.0342
  11   2.0000     -10.290785      -280.0265
  12   2.0000     -10.289056      -279.9794
  13   2.0000     -10.288090      -279.9532
  14   2.0000     -10.277887      -279.6755
  15   2.0000     -10.273865      -279.5661
  16   2.0000      -8.082095      -219.9250
  17   2.0000      -8.076840      -219.7820
  18   2.0000      -6.040608      -164.3733
  19   2.0000      -6.036755      -164.2685
  20   2.0000      -6.035407      -164.2318
  21   2.0000      -6.032878      -164.1630
  22   2.0000      -6.031206      -164.1175
  23   2.0000      -6.027698      -164.0220
  24   2.0000      -1.000060       -27.2130
  25   2.0000      -0.979256       -26.6469
  26   2.0000      -0.905828       -24.6488
  27   2.0000      -0.900844       -24.5132
  28   2.0000      -0.869037       -23.6477
  29   2.0000      -0.846632       -23.0380
  30   2.0000      -0.844185       -22.9715
  31   2.0000      -0.814301       -22.1582
  32   2.0000      -0.783366       -21.3165
  33   2.0000      -0.766304       -20.8522
  34   2.0000      -0.716537       -19.4980
  35   2.0000      -0.698640       -19.0110
  36   2.0000      -0.692830       -18.8529
  37   2.0000      -0.661436       -17.9986
  38   2.0000      -0.642445       -17.4818
  39   2.0000      -0.611203       -16.6317
  40   2.0000      -0.597836       -16.2679
  41   2.0000      -0.572134       -15.5686
  42   2.0000      -0.565963       -15.4006
  43   2.0000      -0.549359       -14.9488
  44   2.0000      -0.545361       -14.8400
  45   2.0000      -0.522629       -14.2215
  46   2.0000      -0.520663       -14.1680
  47   2.0000      -0.510444       -13.8899
  48   2.0000      -0.501925       -13.6581
  49   2.0000      -0.494685       -13.4611
  50   2.0000      -0.484385       -13.1808
  51   2.0000      -0.482697       -13.1349
  52   2.0000      -0.466488       -12.6938
  53   2.0000      -0.461989       -12.5714
  54   2.0000      -0.457837       -12.4584
  55   2.0000      -0.450867       -12.2687
  56   2.0000      -0.446321       -12.1450
  57   2.0000      -0.442601       -12.0438
  58   2.0000      -0.440090       -11.9755
  59   2.0000      -0.423457       -11.5228
  60   2.0000      -0.422569       -11.4987
  61   2.0000      -0.409904       -11.1541
  62   2.0000      -0.407264       -11.0822
  63   2.0000      -0.336737        -9.1631
  64   2.0000      -0.328728        -8.9451
  65   2.0000      -0.315079        -8.5737
  66   2.0000      -0.304140        -8.2761
  67   0.0000       0.037551         1.0218
  68   0.0000       0.055920         1.5217
  69   0.0000       0.115282         3.1370
  70   0.0000       0.124456         3.3866
  71   0.0000       0.128195         3.4884

MULLIKEN ATOMIC CHARGES
-----------------------
   0 S :    0.108281
   1 C :   -0.096995
   2 C :   -0.082887
   3 C :    0.027435
   4 C :   -0.167451
   5 H :    0.017893
   6 C :    0.040096
   7 H :    0.036110
   8 H :    0.027899
   9 C :   -0.062454
  10 H :    0.035450
  11 H :    0.035944
  12 C :   -0.042011
  13 H :    0.018129
  14 H :    0.041782
  15 H :    0.017112
  16 S :    0.123297
  17 C :   -0.076576
  18 C :   -0.021463
  19 C :    0.001715
  20 C :   -0.192354
  21 H :   -0.009152
  22 C :    0.089009
  23 H :    0.038129
  24 H :    0.027761
  25 C :   -0.109300
  26 H :    0.022916
  27 H :    0.022102
  28 C :   -0.055920
  29 H :    0.033470
  30 H :    0.047561
  31 H :    0.035001
  32 H :    0.028060
  33 H :    0.041408
Sum of atomic charges:   -0.0000000

LOEWDIN ATOMIC CHARGES
----------------------
   0 S :    0.408408
   1 C :   -0.201540
   2 C :   -0.065468
   3 C :   -0.058546
   4 C :   -0.202881
   5 H :    0.031424
   6 C :   -0.033319
   7 H :    0.035989
   8 H :    0.027950
   9 C :   -0.020563
  10 H :    0.020360
  11 H :    0.018684
  12 C :   -0.061418
  13 H :    0.019601
  14 H :    0.031270
  15 H :    0.015227
  16 S :    0.400932
  17 C :   -0.173086
  18 C :   -0.058651
  19 C :   -0.048423
  20 C :   -0.196907
  21 H :    0.017266
  22 C :   -0.028175
  23 H :    0.039668
  24 H :    0.030618
  25 C :   -0.044302
  26 H :    0.020109
  27 H :    0.020373
  28 C :   -0.067154
  29 H :    0.024132
  30 H :    0.024916
  31 H :    0.029925
  32 H :    0.022085
  33 H :    0.021496

  Mayer bond orders larger than 0.100000
B(  0-S ,  1-C ) :   1.1461 B(  0-S ,  4-C ) :   1.1483 B(  1-C ,  2-C ) :   1.5941
B(  1-C , 32-H ) :   0.9819 B(  2-C ,  3-C ) :   1.2317 B(  2-C ,  6-C ) :   1.0171
B(  3-C ,  4-C ) :   1.5738 B(  3-C ,  5-H ) :   0.9897 B(  4-C , 20-C ) :   1.0253
B(  6-C ,  7-H ) :   0.9423 B(  6-C ,  8-H ) :   0.9410 B(  6-C ,  9-C ) :   1.0644
B(  9-C , 10-H ) :   0.9531 B(  9-C , 11-H ) :   0.9620 B(  9-C , 12-C ) :   1.0882
B( 12-C , 13-H ) :   0.9724 B( 12-C , 14-H ) :   0.9777 B( 12-C , 15-H ) :   0.9759
B( 16-S , 17-C ) :   1.1518 B( 16-S , 20-C ) :   1.1454 B( 17-C , 18-C ) :   1.6123
B( 17-C , 20-C ) :   0.1024 B( 17-C , 33-H ) :   0.9720 B( 18-C , 19-C ) :   1.2334
B( 18-C , 21-H ) :   0.9997 B( 19-C , 20-C ) :   1.5966 B( 19-C , 22-C ) :   1.0353
B( 22-C , 23-H ) :   0.9371 B( 22-C , 24-H ) :   0.9419 B( 22-C , 25-C ) :   1.0644
B( 25-C , 26-H ) :   0.9580 B( 25-C , 27-H ) :   0.9579 B( 25-C , 28-C ) :   1.0669
B( 28-C , 29-H ) :   0.9794 B( 28-C , 30-H ) :   0.9726 B( 28-C , 31-H ) :   0.9734

Dispersion correction           -0.014491189
FINAL SINGLE POINT ENERGY     -1339.862661444044

DIPOLE MOMENT
-------------
                                X             Y             Z
Electronic contribution:     22.62232       9.78708     -16.09802
Nuclear contribution   :    -23.05457     -10.01674      16.62893
                        -----------------------------------------
Total Dipole Moment    :     -0.43224      -0.22966       0.53091
                        -----------------------------------------
Magnitude (a.u.)       :      0.72211
Magnitude (Debye)      :      1.83546

Rotational constants in cm-1:     0.017330     0.009003     0.006995
Rotational constants in MHz :   519.530533   269.917227   209.691734

                             ****ORCA TERMINATED NORMALLY****
TOTAL RUN TIME: 0 days 0 hours 0 minutes 20 seconds 561 msec
