                         Program Version 4.2.1 -  RELEASE  -
|  1> ! wB97X-D3 SP def2-SVP
|  2> %pal
|  3> nprocs 24
|  4> end
|  5>
|  6> * xyz 0 1
|  7> S 	 -104.614 	 22.1182 	 -118.708
|  8> C 	 -104.1 	 21.1954 	 -117.341
|  9> C 	 -104.23 	 19.828 	 -117.567
| 10> C 	 -104.567 	 19.5487 	 -118.933
| 11> C 	 -104.746 	 20.6618 	 -119.705
| 12> H 	 -104.733 	 18.6004 	 -119.251
| 13> C 	 -104.178 	 18.7698 	 -116.438
| 14> H 	 -104.594 	 17.8966 	 -116.951
| 15> H 	 -104.843 	 19.1894 	 -115.711
| 16> C 	 -102.845 	 18.5941 	 -115.763
| 17> H 	 -102.46 	 19.5548 	 -115.457
| 18> H 	 -102.961 	 18.1439 	 -114.782
| 19> C 	 -101.826 	 17.7513 	 -116.624
| 20> H 	 -100.867 	 17.827 	 -116.165
| 21> H 	 -102.078 	 16.7124 	 -116.767
| 22> H 	 -101.856 	 18.1153 	 -117.668
| 23> S 	 -103.591 	 20.2503 	 -122.066
| 24> C 	 -104.377 	 20.6385 	 -123.559
| 25> C 	 -105.744 	 20.836 	 -123.361
| 26> C 	 -106.125 	 20.9166 	 -121.969
| 27> C 	 -105.031 	 20.6351 	 -121.143
| 28> H 	 -106.444 	 20.9336 	 -124.177
| 29> C 	 -107.426 	 21.3653 	 -121.401
| 30> H 	 -108.064 	 21.4906 	 -122.268
| 31> H 	 -107.284 	 22.3949 	 -120.91
| 32> C 	 -108.286 	 20.5319 	 -120.4
| 33> H 	 -107.778 	 20.5819 	 -119.457
| 34> H 	 -108.283 	 19.4527 	 -120.641
| 35> C 	 -109.7 	 21.1045 	 -120.231
| 36> H 	 -109.42 	 22.0226 	 -119.71
| 37> H 	 -110.361 	 20.5539 	 -119.483
| 38> H 	 -110.279 	 21.3424 	 -121.149
| 39> H 	 -103.714 	 21.6139 	 -116.406
| 40> H 	 -104.073 	 20.3619 	 -124.559
| 41> *
| 42>
| 43>                          ****END OF INPUT****

CARTESIAN COORDINATES (ANGSTROEM)
---------------------------------
  S    -104.614000   22.118200  -118.708000
  C    -104.100000   21.195400  -117.341000
  C    -104.230000   19.828000  -117.567000
  C    -104.567000   19.548700  -118.933000
  C    -104.746000   20.661800  -119.705000
  H    -104.733000   18.600400  -119.251000
  C    -104.178000   18.769800  -116.438000
  H    -104.594000   17.896600  -116.951000
  H    -104.843000   19.189400  -115.711000
  C    -102.845000   18.594100  -115.763000
  H    -102.460000   19.554800  -115.457000
  H    -102.961000   18.143900  -114.782000
  C    -101.826000   17.751300  -116.624000
  H    -100.867000   17.827000  -116.165000
  H    -102.078000   16.712400  -116.767000
  H    -101.856000   18.115300  -117.668000
  S    -103.591000   20.250300  -122.066000
  C    -104.377000   20.638500  -123.559000
  C    -105.744000   20.836000  -123.361000
  C    -106.125000   20.916600  -121.969000
  C    -105.031000   20.635100  -121.143000
  H    -106.444000   20.933600  -124.177000
  C    -107.426000   21.365300  -121.401000
  H    -108.064000   21.490600  -122.268000
  H    -107.284000   22.394900  -120.910000
  C    -108.286000   20.531900  -120.400000
  H    -107.778000   20.581900  -119.457000
  H    -108.283000   19.452700  -120.641000
  C    -109.700000   21.104500  -120.231000
  H    -109.420000   22.022600  -119.710000
  H    -110.361000   20.553900  -119.483000
  H    -110.279000   21.342400  -121.149000
  H    -103.714000   21.613900  -116.406000
  H    -104.073000   20.361900  -124.559000

 Total Charge           Charge          ....    0
 Multiplicity           Mult            ....    1
 Number of Electrons    NEL             ....  134
 Basis Dimension        Dim             ....  322

ORBITAL ENERGIES
----------------

  NO   OCC          E(Eh)            E(eV)
   0   2.0000     -88.968463     -2420.9550
   1   2.0000     -88.965564     -2420.8761
   2   2.0000     -10.329591      -281.0825
   3   2.0000     -10.325372      -280.9677
   4   2.0000     -10.314781      -280.6795
   5   2.0000     -10.313327      -280.6399
   6   2.0000     -10.306597      -280.4568
   7   2.0000     -10.299647      -280.2676
   8   2.0000     -10.297752      -280.2161
   9   2.0000     -10.295738      -280.1613
  10   2.0000     -10.292238      -280.0660
  11   2.0000     -10.287801      -279.9453
  12   2.0000     -10.287523      -279.9377
  13   2.0000     -10.285429      -279.8808
  14   2.0000     -10.284812      -279.8640
  15   2.0000     -10.276694      -279.6431
  16   2.0000      -8.082888      -219.9466
  17   2.0000      -8.080348      -219.8774
  18   2.0000      -6.041424      -164.3955
  19   2.0000      -6.038869      -164.3260
  20   2.0000      -6.037421      -164.2866
  21   2.0000      -6.034715      -164.2129
  22   2.0000      -6.033665      -164.1844
  23   2.0000      -6.031215      -164.1177
  24   2.0000      -1.006159       -27.3790
  25   2.0000      -0.983758       -26.7694
  26   2.0000      -0.910881       -24.7863
  27   2.0000      -0.906090       -24.6560
  28   2.0000      -0.868637       -23.6368
  29   2.0000      -0.851876       -23.1807
  30   2.0000      -0.846970       -23.0472
  31   2.0000      -0.813458       -22.1353
  32   2.0000      -0.781392       -21.2628
  33   2.0000      -0.766804       -20.8658
  34   2.0000      -0.710530       -19.3345
  35   2.0000      -0.705432       -19.1958
  36   2.0000      -0.688199       -18.7268
  37   2.0000      -0.663276       -18.0487
  38   2.0000      -0.646946       -17.6043
  39   2.0000      -0.613168       -16.6851
  40   2.0000      -0.590421       -16.0662
  41   2.0000      -0.569589       -15.4993
  42   2.0000      -0.564588       -15.3632
  43   2.0000      -0.557419       -15.1681
  44   2.0000      -0.537510       -14.6264
  45   2.0000      -0.520944       -14.1756
  46   2.0000      -0.517723       -14.0879
  47   2.0000      -0.514912       -14.0115
  48   2.0000      -0.503368       -13.6973
  49   2.0000      -0.491002       -13.3609
  50   2.0000      -0.481904       -13.1133
  51   2.0000      -0.481240       -13.0952
  52   2.0000      -0.471385       -12.8270
  53   2.0000      -0.466519       -12.6946
  54   2.0000      -0.459739       -12.5101
  55   2.0000      -0.453040       -12.3278
  56   2.0000      -0.447345       -12.1729
  57   2.0000      -0.441568       -12.0157
  58   2.0000      -0.431207       -11.7337
  59   2.0000      -0.428415       -11.6578
  60   2.0000      -0.416173       -11.3246
  61   2.0000      -0.413499       -11.2519
  62   2.0000      -0.406778       -11.0690
  63   2.0000      -0.337616        -9.1870
  64   2.0000      -0.332091        -9.0367
  65   2.0000      -0.322772        -8.7831
  66   2.0000      -0.300923        -8.1885
  67   0.0000       0.038375         1.0442
  68   0.0000       0.052202         1.4205
  69   0.0000       0.105020         2.8577
  70   0.0000       0.118531         3.2254
  71   0.0000       0.124138         3.3780

MULLIKEN ATOMIC CHARGES
-----------------------
   0 S :    0.126020
   1 C :   -0.142892
   2 C :   -0.115784
   3 C :    0.073918
   4 C :   -0.140498
   5 H :   -0.032257
   6 C :    0.090008
   7 H :    0.022066
   8 H :    0.031612
   9 C :   -0.046659
  10 H :    0.012594
  11 H :    0.021007
  12 C :   -0.045094
  13 H :    0.036813
  14 H :    0.026787
  15 H :    0.035465
  16 S :    0.121589
  17 C :   -0.068824
  18 C :   -0.061883
  19 C :   -0.004435
  20 C :   -0.194683
  21 H :    0.018034
  22 C :    0.013473
  23 H :    0.007125
  24 H :    0.051532
  25 C :   -0.044472
  26 H :    0.030481
  27 H :    0.027339
  28 C :   -0.085274
  29 H :    0.027709
  30 H :    0.049285
  31 H :    0.046715
  32 H :    0.055114
  33 H :    0.058071
Sum of atomic charges:    0.0000000

LOEWDIN ATOMIC CHARGES
----------------------
   0 S :    0.409312
   1 C :   -0.208577
   2 C :   -0.063072
   3 C :   -0.052143
   4 C :   -0.199604
   5 H :    0.013560
   6 C :   -0.025872
   7 H :    0.030733
   8 H :    0.033968
   9 C :   -0.039209
  10 H :    0.021221
  11 H :    0.022916
  12 C :   -0.062801
  13 H :    0.023344
  14 H :    0.023280
  15 H :    0.030164
  16 S :    0.427896
  17 C :   -0.201743
  18 C :   -0.065505
  19 C :   -0.059587
  20 C :   -0.193201
  21 H :    0.028815
  22 C :   -0.041506
  23 H :    0.025769
  24 H :    0.044111
  25 C :   -0.041282
  26 H :    0.021842
  27 H :    0.020666
  28 C :   -0.076023
  29 H :    0.028426
  30 H :    0.035915
  31 H :    0.027312
  32 H :    0.030116
  33 H :    0.030755

  Mayer bond orders larger than 0.100000
B(  0-S ,  1-C ) :   1.1529 B(  0-S ,  4-C ) :   1.1353 B(  1-C ,  2-C ) :   1.6004
B(  1-C , 32-H ) :   0.9646 B(  2-C ,  3-C ) :   1.2515 B(  2-C ,  6-C ) :   0.9959
B(  3-C ,  4-C ) :   1.5632 B(  3-C ,  5-H ) :   1.0118 B(  4-C , 20-C ) :   1.0164
B(  6-C ,  7-H ) :   0.9476 B(  6-C ,  8-H ) :   0.9356 B(  6-C ,  9-C ) :   1.0842
B(  9-C , 10-H ) :   0.9537 B(  9-C , 11-H ) :   0.9516 B(  9-C , 12-C ) :   1.0627
B( 12-C , 13-H ) :   0.9766 B( 12-C , 14-H ) :   0.9767 B( 12-C , 15-H ) :   0.9794
B( 16-S , 17-C ) :   1.1607 B( 16-S , 20-C ) :   1.1627 B( 17-C , 18-C ) :   1.6021
B( 17-C , 20-C ) :   0.1006 B( 17-C , 33-H ) :   0.9590 B( 18-C , 19-C ) :   1.2561
B( 18-C , 21-H ) :   0.9841 B( 19-C , 20-C ) :   1.5681 B( 19-C , 22-C ) :   1.0515
B( 22-C , 23-H ) :   0.9306 B( 22-C , 24-H ) :   0.9304 B( 22-C , 25-C ) :   1.0552
B( 25-C , 26-H ) :   0.9531 B( 25-C , 27-H ) :   0.9580 B( 25-C , 28-C ) :   1.0668
B( 28-C , 29-H ) :   0.9765 B( 28-C , 30-H ) :   0.9730 B( 28-C , 31-H ) :   0.9773

Dispersion correction           -0.014494329
FINAL SINGLE POINT ENERGY     -1339.867307619468

DIPOLE MOMENT
-------------
                                X             Y             Z
Electronic contribution:      9.83455       9.56734     -12.99227
Nuclear contribution   :    -10.13617      -9.88606      13.29059
                        -----------------------------------------
Total Dipole Moment    :     -0.30162      -0.31873       0.29832
                        -----------------------------------------
Magnitude (a.u.)       :      0.53062
Magnitude (Debye)      :      1.34873

Rotational constants in cm-1:     0.018681     0.008501     0.006858
Rotational constants in MHz :   560.054349   254.853014   205.608661

                             ****ORCA TERMINATED NORMALLY****
TOTAL RUN TIME: 0 days 0 hours 0 minutes 20 seconds 360 msec
