                         Program Version 4.2.1 -  RELEASE  -
|  1> ! wB97X-D3 SP def2-SVP
|  2> %pal
|  3> nprocs 24
|  4> end
|  5>
|  6> * xyz 0 1
|  7> S 	 -137.258 	 24.7432 	 -21.3798
|  8> C 	 -137.579 	 23.127 	 -21.9355
|  9> C 	 -136.456 	 22.3163 	 -22.0379
| 10> C 	 -135.301 	 23.0085 	 -21.6772
| 11> C 	 -135.545 	 24.281 	 -21.2178
| 12> H 	 -134.272 	 22.6531 	 -21.7647
| 13> C 	 -136.444 	 20.8892 	 -22.6397
| 14> H 	 -136.02 	 21.0464 	 -23.6596
| 15> H 	 -137.432 	 20.5183 	 -22.8169
| 16> C 	 -135.595 	 19.7966 	 -21.9642
| 17> H 	 -135.525 	 18.9797 	 -22.6465
| 18> H 	 -134.718 	 20.2206 	 -21.73
| 19> C 	 -136.287 	 19.3829 	 -20.633
| 20> H 	 -137.305 	 18.9696 	 -20.8643
| 21> H 	 -135.793 	 18.5004 	 -20.0624
| 22> H 	 -136.521 	 20.0881 	 -19.8925
| 23> S 	 -134.377 	 26.753 	 -21.5955
| 24> C 	 -132.987 	 27.2355 	 -20.7414
| 25> C 	 -132.716 	 26.3321 	 -19.744
| 26> C 	 -133.595 	 25.16 	 -19.7576
| 27> C 	 -134.525 	 25.2426 	 -20.76
| 28> H 	 -131.909 	 26.4955 	 -19.1501
| 29> C 	 -133.452 	 24.0337 	 -18.8357
| 30> H 	 -134.415 	 23.6063 	 -18.581
| 31> H 	 -133.121 	 24.3761 	 -17.8135
| 32> C 	 -132.454 	 22.9225 	 -19.4195
| 33> H 	 -131.519 	 23.1464 	 -18.9942
| 34> H 	 -132.301 	 22.9934 	 -20.4577
| 35> C 	 -132.729 	 21.4471 	 -18.9545
| 36> H 	 -132.326 	 21.2478 	 -17.9226
| 37> H 	 -132.253 	 20.6743 	 -19.5754
| 38> H 	 -133.735 	 21.2663 	 -19.1332
| 39> H 	 -138.462 	 22.7982 	 -22.4306
| 40> H 	 -132.282 	 27.9699 	 -21.0264
| 41> *
| 42>
| 43>                          ****END OF INPUT****

CARTESIAN COORDINATES (ANGSTROEM)
---------------------------------
  S    -137.258000   24.743200  -21.379800
  C    -137.579000   23.127000  -21.935500
  C    -136.456000   22.316300  -22.037900
  C    -135.301000   23.008500  -21.677200
  C    -135.545000   24.281000  -21.217800
  H    -134.272000   22.653100  -21.764700
  C    -136.444000   20.889200  -22.639700
  H    -136.020000   21.046400  -23.659600
  H    -137.432000   20.518300  -22.816900
  C    -135.595000   19.796600  -21.964200
  H    -135.525000   18.979700  -22.646500
  H    -134.718000   20.220600  -21.730000
  C    -136.287000   19.382900  -20.633000
  H    -137.305000   18.969600  -20.864300
  H    -135.793000   18.500400  -20.062400
  H    -136.521000   20.088100  -19.892500
  S    -134.377000   26.753000  -21.595500
  C    -132.987000   27.235500  -20.741400
  C    -132.716000   26.332100  -19.744000
  C    -133.595000   25.160000  -19.757600
  C    -134.525000   25.242600  -20.760000
  H    -131.909000   26.495500  -19.150100
  C    -133.452000   24.033700  -18.835700
  H    -134.415000   23.606300  -18.581000
  H    -133.121000   24.376100  -17.813500
  C    -132.454000   22.922500  -19.419500
  H    -131.519000   23.146400  -18.994200
  H    -132.301000   22.993400  -20.457700
  C    -132.729000   21.447100  -18.954500
  H    -132.326000   21.247800  -17.922600
  H    -132.253000   20.674300  -19.575400
  H    -133.735000   21.266300  -19.133200
  H    -138.462000   22.798200  -22.430600
  H    -132.282000   27.969900  -21.026400

 Total Charge           Charge          ....    0
 Multiplicity           Mult            ....    1
 Number of Electrons    NEL             ....  134
 Basis Dimension        Dim             ....  322

ORBITAL ENERGIES
----------------

  NO   OCC          E(Eh)            E(eV)
   0   2.0000     -88.970895     -2421.0211
   1   2.0000     -88.960226     -2420.7308
   2   2.0000     -10.331543      -281.1356
   3   2.0000     -10.321375      -280.8589
   4   2.0000     -10.309723      -280.5418
   5   2.0000     -10.309557      -280.5373
   6   2.0000     -10.301308      -280.3128
   7   2.0000     -10.300950      -280.3031
   8   2.0000     -10.295806      -280.1631
   9   2.0000     -10.293373      -280.0969
  10   2.0000     -10.293149      -280.0908
  11   2.0000     -10.286281      -279.9039
  12   2.0000     -10.284512      -279.8558
  13   2.0000     -10.284135      -279.8455
  14   2.0000     -10.282178      -279.7923
  15   2.0000     -10.278998      -279.7057
  16   2.0000      -8.085043      -220.0052
  17   2.0000      -8.076471      -219.7719
  18   2.0000      -6.043432      -164.4501
  19   2.0000      -6.039812      -164.3516
  20   2.0000      -6.035791      -164.2422
  21   2.0000      -6.034930      -164.2188
  22   2.0000      -6.030651      -164.1024
  23   2.0000      -6.027296      -164.0111
  24   2.0000      -1.010106       -27.4864
  25   2.0000      -0.988500       -26.8985
  26   2.0000      -0.911936       -24.8150
  27   2.0000      -0.905283       -24.6340
  28   2.0000      -0.869080       -23.6489
  29   2.0000      -0.851904       -23.1815
  30   2.0000      -0.847723       -23.0677
  31   2.0000      -0.816811       -22.2266
  32   2.0000      -0.780750       -21.2453
  33   2.0000      -0.771415       -20.9913
  34   2.0000      -0.715299       -19.4643
  35   2.0000      -0.707479       -19.2515
  36   2.0000      -0.696068       -18.9410
  37   2.0000      -0.665890       -18.1198
  38   2.0000      -0.641683       -17.4611
  39   2.0000      -0.627785       -17.0829
  40   2.0000      -0.598435       -16.2842
  41   2.0000      -0.574497       -15.6329
  42   2.0000      -0.561328       -15.2745
  43   2.0000      -0.547344       -14.8940
  44   2.0000      -0.545165       -14.8347
  45   2.0000      -0.525959       -14.3121
  46   2.0000      -0.517239       -14.0748
  47   2.0000      -0.508312       -13.8319
  48   2.0000      -0.507571       -13.8117
  49   2.0000      -0.495699       -13.4887
  50   2.0000      -0.486624       -13.2417
  51   2.0000      -0.478838       -13.0299
  52   2.0000      -0.475900       -12.9499
  53   2.0000      -0.466368       -12.6905
  54   2.0000      -0.459196       -12.4953
  55   2.0000      -0.456338       -12.4176
  56   2.0000      -0.441725       -12.0199
  57   2.0000      -0.432294       -11.7633
  58   2.0000      -0.429840       -11.6965
  59   2.0000      -0.429079       -11.6758
  60   2.0000      -0.426110       -11.5951
  61   2.0000      -0.424211       -11.5434
  62   2.0000      -0.413491       -11.2517
  63   2.0000      -0.346196        -9.4205
  64   2.0000      -0.333765        -9.0822
  65   2.0000      -0.324416        -8.8278
  66   2.0000      -0.295061        -8.0290
  67   0.0000       0.034821         0.9475
  68   0.0000       0.065911         1.7935
  69   0.0000       0.113926         3.1001
  70   0.0000       0.122336         3.3289
  71   0.0000       0.128461         3.4956

MULLIKEN ATOMIC CHARGES
-----------------------
   0 S :    0.124598
   1 C :   -0.099855
   2 C :   -0.084316
   3 C :    0.018753
   4 C :   -0.155238
   5 H :    0.017523
   6 C :    0.034009
   7 H :    0.043449
   8 H :    0.007736
   9 C :    0.041451
  10 H :    0.032268
  11 H :   -0.004538
  12 C :   -0.103705
  13 H :    0.018473
  14 H :    0.041529
  15 H :    0.036888
  16 S :    0.108079
  17 C :   -0.071776
  18 C :   -0.003446
  19 C :   -0.038028
  20 C :   -0.167429
  21 H :   -0.024201
  22 C :    0.057056
  23 H :    0.027906
  24 H :    0.029873
  25 C :   -0.055094
  26 H :    0.014831
  27 H :    0.027679
  28 C :   -0.052151
  29 H :    0.046875
  30 H :    0.026472
  31 H :    0.021994
  32 H :    0.032354
  33 H :    0.049982
Sum of atomic charges:   -0.0000000

LOEWDIN ATOMIC CHARGES
----------------------
   0 S :    0.402235
   1 C :   -0.200816
   2 C :   -0.062378
   3 C :   -0.062851
   4 C :   -0.178696
   5 H :    0.035239
   6 C :   -0.025610
   7 H :    0.038311
   8 H :    0.021252
   9 C :   -0.018746
  10 H :    0.029072
  11 H :    0.004422
  12 C :   -0.076163
  13 H :    0.026184
  14 H :    0.032829
  15 H :    0.018363
  16 S :    0.425481
  17 C :   -0.192595
  18 C :   -0.059030
  19 C :   -0.055821
  20 C :   -0.208698
  21 H :    0.011639
  22 C :   -0.033236
  23 H :    0.029127
  24 H :    0.037328
  25 C :   -0.029172
  26 H :    0.019034
  27 H :    0.014769
  28 C :   -0.066167
  29 H :    0.034258
  30 H :    0.028148
  31 H :    0.012851
  32 H :    0.021487
  33 H :    0.027951

  Mayer bond orders larger than 0.100000
B(  0-S ,  1-C ) :   1.1391 B(  0-S ,  4-C ) :   1.1472 B(  1-C ,  2-C ) :   1.6216
B(  1-C ,  4-C ) :   0.1006 B(  1-C , 32-H ) :   0.9604 B(  2-C ,  3-C ) :   1.2458
B(  2-C ,  6-C ) :   1.0140 B(  3-C ,  4-C ) :   1.5899 B(  3-C ,  5-H ) :   0.9875
B(  4-C , 20-C ) :   1.0181 B(  6-C ,  7-H ) :   0.9364 B(  6-C ,  8-H ) :   0.9445
B(  6-C ,  9-C ) :   1.0784 B(  9-C , 10-H ) :   0.9515 B(  9-C , 11-H ) :   0.9543
B(  9-C , 12-C ) :   1.0634 B( 12-C , 13-H ) :   0.9735 B( 12-C , 14-H ) :   0.9767
B( 12-C , 15-H ) :   0.9792 B( 16-S , 17-C ) :   1.1646 B( 16-S , 20-C ) :   1.1453
B( 17-C , 18-C ) :   1.6085 B( 17-C , 33-H ) :   0.9703 B( 18-C , 19-C ) :   1.2198
B( 18-C , 21-H ) :   1.0076 B( 19-C , 20-C ) :   1.6033 B( 19-C , 22-C ) :   1.0749
B( 22-C , 23-H ) :   0.9388 B( 22-C , 24-H ) :   0.9359 B( 22-C , 25-C ) :   1.0204
B( 25-C , 26-H ) :   0.9535 B( 25-C , 27-H ) :   0.9666 B( 25-C , 28-C ) :   1.0750
B( 28-C , 29-H ) :   0.9767 B( 28-C , 30-H ) :   0.9733 B( 28-C , 31-H ) :   0.9785

Dispersion correction           -0.015747963
FINAL SINGLE POINT ENERGY     -1339.857249395259

DIPOLE MOMENT
-------------
                                X             Y             Z
Electronic contribution:     -8.38305      30.06664      -7.44428
Nuclear contribution   :      8.85443     -30.62314       7.40783
                        -----------------------------------------
Total Dipole Moment    :      0.47139      -0.55651      -0.03646
                        -----------------------------------------
Magnitude (a.u.)       :      0.73023
Magnitude (Debye)      :      1.85609

Rotational constants in cm-1:     0.018876     0.010161     0.007234
Rotational constants in MHz :   565.885698   304.616832   216.871705

                             ****ORCA TERMINATED NORMALLY****
TOTAL RUN TIME: 0 days 0 hours 0 minutes 22 seconds 943 msec
