                         Program Version 4.2.1 -  RELEASE  -
|  1> ! wB97X-D3 SP def2-SVP
|  2> %pal
|  3> nprocs 24
|  4> end
|  5>
|  6> * xyz 0 1
|  7> S 	 -0.711129 	 -25.3457 	 -106.27
|  8> C 	 0.191612 	 -25.083 	 -107.7
|  9> C 	 -0.573793 	 -24.5576 	 -108.734
| 10> C 	 -1.93998 	 -24.3334 	 -108.304
| 11> C 	 -2.19204 	 -24.7427 	 -107.017
| 12> H 	 -2.76268 	 -23.9989 	 -108.992
| 13> C 	 -0.0105982 	 -24.2544 	 -110.107
| 14> H 	 0.986841 	 -24.706 	 -110.23
| 15> H 	 0.089666 	 -23.1449 	 -110.128
| 16> C 	 -0.947388 	 -24.6789 	 -111.26
| 17> H 	 -1.18843 	 -25.7114 	 -111.096
| 18> H 	 -1.81957 	 -24.1224 	 -111.136
| 19> C 	 -0.243204 	 -24.5217 	 -112.608
| 20> H 	 0.586526 	 -25.1822 	 -112.903
| 21> H 	 -0.980983 	 -24.856 	 -113.417
| 22> H 	 -0.0488433 	 -23.4761 	 -112.851
| 23> S 	 -3.2601 	 -24.2093 	 -104.529
| 24> C 	 -4.9963 	 -24.3241 	 -104.258
| 25> C 	 -5.62026 	 -24.5881 	 -105.439
| 26> C 	 -4.73945 	 -24.7074 	 -106.58
| 27> C 	 -3.40003 	 -24.5749 	 -106.268
| 28> H 	 -6.71673 	 -24.7405 	 -105.552
| 29> C 	 -5.28401 	 -25.0066 	 -107.959
| 30> H 	 -4.93463 	 -24.3622 	 -108.77
| 31> H 	 -6.34891 	 -24.7785 	 -107.789
| 32> C 	 -5.17004 	 -26.4666 	 -108.45
| 33> H 	 -4.13773 	 -26.5006 	 -108.697
| 34> H 	 -5.8014 	 -26.5452 	 -109.4
| 35> C 	 -5.46505 	 -27.5973 	 -107.47
| 36> H 	 -6.56048 	 -27.7205 	 -107.212
| 37> H 	 -5.02393 	 -27.3671 	 -106.471
| 38> H 	 -5.11778 	 -28.6843 	 -107.634
| 39> H 	 1.23464 	 -25.1517 	 -107.899
| 40> H 	 -5.49988 	 -24.1736 	 -103.342
| 41> *
| 42>
| 43>                          ****END OF INPUT****

CARTESIAN COORDINATES (ANGSTROEM)
---------------------------------
  S     -0.711129  -25.345700  -106.270000
  C      0.191612  -25.083000  -107.700000
  C     -0.573793  -24.557600  -108.734000
  C     -1.939980  -24.333400  -108.304000
  C     -2.192040  -24.742700  -107.017000
  H     -2.762680  -23.998900  -108.992000
  C     -0.010598  -24.254400  -110.107000
  H      0.986841  -24.706000  -110.230000
  H      0.089666  -23.144900  -110.128000
  C     -0.947388  -24.678900  -111.260000
  H     -1.188430  -25.711400  -111.096000
  H     -1.819570  -24.122400  -111.136000
  C     -0.243204  -24.521700  -112.608000
  H      0.586526  -25.182200  -112.903000
  H     -0.980983  -24.856000  -113.417000
  H     -0.048843  -23.476100  -112.851000
  S     -3.260100  -24.209300  -104.529000
  C     -4.996300  -24.324100  -104.258000
  C     -5.620260  -24.588100  -105.439000
  C     -4.739450  -24.707400  -106.580000
  C     -3.400030  -24.574900  -106.268000
  H     -6.716730  -24.740500  -105.552000
  C     -5.284010  -25.006600  -107.959000
  H     -4.934630  -24.362200  -108.770000
  H     -6.348910  -24.778500  -107.789000
  C     -5.170040  -26.466600  -108.450000
  H     -4.137730  -26.500600  -108.697000
  H     -5.801400  -26.545200  -109.400000
  C     -5.465050  -27.597300  -107.470000
  H     -6.560480  -27.720500  -107.212000
  H     -5.023930  -27.367100  -106.471000
  H     -5.117780  -28.684300  -107.634000
  H      1.234640  -25.151700  -107.899000
  H     -5.499880  -24.173600  -103.342000

 Total Charge           Charge          ....    0
 Multiplicity           Mult            ....    1
 Number of Electrons    NEL             ....  134
 Basis Dimension        Dim             ....  322

ORBITAL ENERGIES
----------------

  NO   OCC          E(Eh)            E(eV)
   0   2.0000     -88.970125     -2421.0002
   1   2.0000     -88.964207     -2420.8391
   2   2.0000     -10.332266      -281.1552
   3   2.0000     -10.329657      -281.0842
   4   2.0000     -10.317553      -280.7549
   5   2.0000     -10.308593      -280.5111
   6   2.0000     -10.304001      -280.3861
   7   2.0000     -10.301426      -280.3161
   8   2.0000     -10.301206      -280.3101
   9   2.0000     -10.298377      -280.2331
  10   2.0000     -10.295606      -280.1577
  11   2.0000     -10.294630      -280.1311
  12   2.0000     -10.289390      -279.9885
  13   2.0000     -10.287322      -279.9323
  14   2.0000     -10.285464      -279.8817
  15   2.0000     -10.284801      -279.8637
  16   2.0000      -8.084906      -220.0015
  17   2.0000      -8.078473      -219.8264
  18   2.0000      -6.043492      -164.4518
  19   2.0000      -6.039402      -164.3405
  20   2.0000      -6.037194      -164.2804
  21   2.0000      -6.035567      -164.2361
  22   2.0000      -6.032989      -164.1660
  23   2.0000      -6.029074      -164.0594
  24   2.0000      -1.009087       -27.4586
  25   2.0000      -0.984714       -26.7954
  26   2.0000      -0.914887       -24.8953
  27   2.0000      -0.907591       -24.6968
  28   2.0000      -0.876250       -23.8440
  29   2.0000      -0.849953       -23.1284
  30   2.0000      -0.839511       -22.8443
  31   2.0000      -0.818246       -22.2656
  32   2.0000      -0.780888       -21.2490
  33   2.0000      -0.772406       -21.0182
  34   2.0000      -0.719394       -19.5757
  35   2.0000      -0.700961       -19.0741
  36   2.0000      -0.687614       -18.7109
  37   2.0000      -0.666018       -18.1233
  38   2.0000      -0.638747       -17.3812
  39   2.0000      -0.620344       -16.8804
  40   2.0000      -0.591705       -16.1011
  41   2.0000      -0.576507       -15.6876
  42   2.0000      -0.564295       -15.3553
  43   2.0000      -0.556236       -15.1360
  44   2.0000      -0.537342       -14.6218
  45   2.0000      -0.518879       -14.1194
  46   2.0000      -0.515870       -14.0375
  47   2.0000      -0.513077       -13.9615
  48   2.0000      -0.505120       -13.7450
  49   2.0000      -0.496809       -13.5189
  50   2.0000      -0.490614       -13.3503
  51   2.0000      -0.481108       -13.0916
  52   2.0000      -0.476454       -12.9650
  53   2.0000      -0.464836       -12.6488
  54   2.0000      -0.460317       -12.5259
  55   2.0000      -0.452354       -12.3092
  56   2.0000      -0.447622       -12.1804
  57   2.0000      -0.437767       -11.9122
  58   2.0000      -0.431260       -11.7352
  59   2.0000      -0.428486       -11.6597
  60   2.0000      -0.413195       -11.2436
  61   2.0000      -0.411382       -11.1943
  62   2.0000      -0.403676       -10.9846
  63   2.0000      -0.360961        -9.8223
  64   2.0000      -0.331801        -9.0288
  65   2.0000      -0.328562        -8.9406
  66   2.0000      -0.287789        -7.8311
  67   0.0000       0.021490         0.5848
  68   0.0000       0.078249         2.1293
  69   0.0000       0.108241         2.9454
  70   0.0000       0.117750         3.2041
  71   0.0000       0.128753         3.5035

MULLIKEN ATOMIC CHARGES
-----------------------
   0 S :    0.126202
   1 C :   -0.091554
   2 C :   -0.118541
   3 C :   -0.000584
   4 C :   -0.133287
   5 H :    0.025944
   6 C :    0.052991
   7 H :    0.022570
   8 H :    0.044638
   9 C :   -0.054322
  10 H :    0.031527
  11 H :    0.021491
  12 C :   -0.070446
  13 H :    0.045132
  14 H :    0.029627
  15 H :    0.035703
  16 S :    0.085443
  17 C :   -0.067798
  18 C :   -0.032051
  19 C :   -0.084981
  20 C :   -0.126832
  21 H :    0.033220
  22 C :    0.044654
  23 H :    0.042583
  24 H :    0.012149
  25 C :   -0.037940
  26 H :    0.026914
  27 H :    0.044423
  28 C :   -0.110329
  29 H :    0.028739
  30 H :    0.045425
  31 H :    0.051741
  32 H :    0.030659
  33 H :    0.046890
Sum of atomic charges:   -0.0000000

LOEWDIN ATOMIC CHARGES
----------------------
   0 S :    0.419423
   1 C :   -0.211939
   2 C :   -0.063338
   3 C :   -0.069387
   4 C :   -0.189575
   5 H :    0.036281
   6 C :   -0.032937
   7 H :    0.029241
   8 H :    0.036696
   9 C :   -0.034012
  10 H :    0.025500
  11 H :    0.016030
  12 C :   -0.075387
  13 H :    0.031094
  14 H :    0.034308
  15 H :    0.025371
  16 S :    0.382714
  17 C :   -0.173468
  18 C :   -0.074342
  19 C :   -0.063162
  20 C :   -0.181632
  21 H :    0.037445
  22 C :   -0.033562
  23 H :    0.031160
  24 H :    0.028397
  25 C :   -0.042582
  26 H :    0.020810
  27 H :    0.033383
  28 C :   -0.090603
  29 H :    0.025313
  30 H :    0.031234
  31 H :    0.038204
  32 H :    0.026525
  33 H :    0.026797

  Mayer bond orders larger than 0.100000
B(  0-S ,  1-C ) :   1.1342 B(  0-S ,  4-C ) :   1.1382 B(  1-C ,  2-C ) :   1.6271
B(  1-C , 32-H ) :   0.9637 B(  2-C ,  3-C ) :   1.2394 B(  2-C ,  6-C ) :   1.0270
B(  3-C ,  4-C ) :   1.5704 B(  3-C ,  5-H ) :   0.9765 B(  4-C , 20-C ) :   1.0936
B(  6-C ,  7-H ) :   0.9459 B(  6-C ,  8-H ) :   0.9316 B(  6-C ,  9-C ) :   1.0605
B(  9-C , 10-H ) :   0.9606 B(  9-C , 11-H ) :   0.9483 B(  9-C , 12-C ) :   1.0938
B( 12-C , 13-H ) :   0.9746 B( 12-C , 14-H ) :   0.9706 B( 12-C , 15-H ) :   0.9733
B( 16-S , 17-C ) :   1.1394 B( 16-S , 20-C ) :   1.1181 B( 17-C , 18-C ) :   1.6146
B( 17-C , 33-H ) :   0.9734 B( 18-C , 19-C ) :   1.2515 B( 18-C , 21-H ) :   0.9758
B( 19-C , 20-C ) :   1.5915 B( 19-C , 22-C ) :   1.0348 B( 22-C , 23-H ) :   0.9415
B( 22-C , 24-H ) :   0.9260 B( 22-C , 25-C ) :   1.0589 B( 25-C , 26-H ) :   0.9533
B( 25-C , 27-H ) :   0.9559 B( 25-C , 28-C ) :   1.0716 B( 28-C , 29-H ) :   0.9753
B( 28-C , 30-H ) :   0.9670 B( 28-C , 31-H ) :   0.9762

Dispersion correction           -0.014760068
FINAL SINGLE POINT ENERGY     -1339.880428799506

DIPOLE MOMENT
-------------
                                X             Y             Z
Electronic contribution:      5.55158       5.99099      27.58456
Nuclear contribution   :     -5.76761      -5.97186     -28.22225
                        -----------------------------------------
Total Dipole Moment    :     -0.21603       0.01913      -0.63769
                        -----------------------------------------
Magnitude (a.u.)       :      0.67356
Magnitude (Debye)      :      1.71205

Rotational constants in cm-1:     0.020328     0.008658     0.006864
Rotational constants in MHz :   609.408908   259.550986   205.773941

                             ****ORCA TERMINATED NORMALLY****
TOTAL RUN TIME: 0 days 0 hours 0 minutes 21 seconds 64 msec
