                         Program Version 4.2.1 -  RELEASE  -
|  1> ! wB97X-D3 SP def2-SVP
|  2> %pal
|  3> nprocs 24
|  4> end
|  5>
|  6> * xyz 0 1
|  7> S 	 -132.436 	 9.41453 	 -7.70545
|  8> C 	 -131.162 	 9.90882 	 -6.64581
|  9> C 	 -130.341 	 10.788 	 -7.26744
| 10> C 	 -130.884 	 11.2042 	 -8.56294
| 11> C 	 -131.932 	 10.4849 	 -8.9771
| 12> H 	 -130.445 	 11.8689 	 -9.22322
| 13> C 	 -129.184 	 11.4601 	 -6.71367
| 14> H 	 -129.577 	 11.991 	 -5.84576
| 15> H 	 -128.987 	 12.2105 	 -7.54087
| 16> C 	 -127.926 	 10.6868 	 -6.33849
| 17> H 	 -127.384 	 11.4155 	 -5.71546
| 18> H 	 -128.137 	 9.95048 	 -5.58405
| 19> C 	 -127.041 	 10.0968 	 -7.4806
| 20> H 	 -126.502 	 10.9909 	 -7.87589
| 21> H 	 -126.408 	 9.286 	 -7.01424
| 22> H 	 -127.593 	 9.56251 	 -8.30121
| 23> S 	 -134.397 	 10.5664 	 -10.1182
| 24> C 	 -134.532 	 10.8848 	 -11.7831
| 25> C 	 -133.362 	 10.8457 	 -12.4815
| 26> C 	 -132.246 	 10.6759 	 -11.556
| 27> C 	 -132.639 	 10.614 	 -10.249
| 28> H 	 -133.423 	 10.7775 	 -13.5684
| 29> C 	 -130.827 	 10.5891 	 -12.1236
| 30> H 	 -130.825 	 9.81728 	 -12.9151
| 31> H 	 -130.157 	 10.3174 	 -11.3714
| 32> C 	 -130.288 	 11.8957 	 -12.7264
| 33> H 	 -130.548 	 12.7618 	 -12.1474
| 34> H 	 -130.725 	 12.1268 	 -13.691
| 35> C 	 -128.77 	 11.9599 	 -12.8919
| 36> H 	 -128.316 	 12.2444 	 -11.9155
| 37> H 	 -128.41 	 12.6195 	 -13.6557
| 38> H 	 -128.419 	 10.9641 	 -13.1094
| 39> H 	 -130.888 	 9.51156 	 -5.68213
| 40> H 	 -135.486 	 10.9418 	 -12.3523
| 41> *
| 42>
| 43>                          ****END OF INPUT****

CARTESIAN COORDINATES (ANGSTROEM)
---------------------------------
  S    -132.436000    9.414530   -7.705450
  C    -131.162000    9.908820   -6.645810
  C    -130.341000   10.788000   -7.267440
  C    -130.884000   11.204200   -8.562940
  C    -131.932000   10.484900   -8.977100
  H    -130.445000   11.868900   -9.223220
  C    -129.184000   11.460100   -6.713670
  H    -129.577000   11.991000   -5.845760
  H    -128.987000   12.210500   -7.540870
  C    -127.926000   10.686800   -6.338490
  H    -127.384000   11.415500   -5.715460
  H    -128.137000    9.950480   -5.584050
  C    -127.041000   10.096800   -7.480600
  H    -126.502000   10.990900   -7.875890
  H    -126.408000    9.286000   -7.014240
  H    -127.593000    9.562510   -8.301210
  S    -134.397000   10.566400  -10.118200
  C    -134.532000   10.884800  -11.783100
  C    -133.362000   10.845700  -12.481500
  C    -132.246000   10.675900  -11.556000
  C    -132.639000   10.614000  -10.249000
  H    -133.423000   10.777500  -13.568400
  C    -130.827000   10.589100  -12.123600
  H    -130.825000    9.817280  -12.915100
  H    -130.157000   10.317400  -11.371400
  C    -130.288000   11.895700  -12.726400
  H    -130.548000   12.761800  -12.147400
  H    -130.725000   12.126800  -13.691000
  C    -128.770000   11.959900  -12.891900
  H    -128.316000   12.244400  -11.915500
  H    -128.410000   12.619500  -13.655700
  H    -128.419000   10.964100  -13.109400
  H    -130.888000    9.511560   -5.682130
  H    -135.486000   10.941800  -12.352300

 Total Charge           Charge          ....    0
 Multiplicity           Mult            ....    1
 Number of Electrons    NEL             ....  134
 Basis Dimension        Dim             ....  322

ORBITAL ENERGIES
----------------

  NO   OCC          E(Eh)            E(eV)
   0   2.0000     -88.963504     -2420.8200
   1   2.0000     -88.961717     -2420.7714
   2   2.0000     -10.326418      -280.9961
   3   2.0000     -10.322976      -280.9025
   4   2.0000     -10.314006      -280.6584
   5   2.0000     -10.308101      -280.4977
   6   2.0000     -10.305653      -280.4311
   7   2.0000     -10.293531      -280.1012
   8   2.0000     -10.292332      -280.0686
   9   2.0000     -10.291585      -280.0483
  10   2.0000     -10.291215      -280.0382
  11   2.0000     -10.289331      -279.9869
  12   2.0000     -10.288823      -279.9731
  13   2.0000     -10.281982      -279.7870
  14   2.0000     -10.281065      -279.7620
  15   2.0000     -10.276637      -279.6415
  16   2.0000      -8.079358      -219.8505
  17   2.0000      -8.077207      -219.7920
  18   2.0000      -6.037800      -164.2969
  19   2.0000      -6.035892      -164.2450
  20   2.0000      -6.033926      -164.1915
  21   2.0000      -6.031615      -164.1286
  22   2.0000      -6.029892      -164.0817
  23   2.0000      -6.027717      -164.0225
  24   2.0000      -1.013366       -27.5751
  25   2.0000      -0.991129       -26.9700
  26   2.0000      -0.915874       -24.9222
  27   2.0000      -0.910896       -24.7867
  28   2.0000      -0.872426       -23.7399
  29   2.0000      -0.854296       -23.2466
  30   2.0000      -0.846057       -23.0224
  31   2.0000      -0.820673       -22.3316
  32   2.0000      -0.783413       -21.3178
  33   2.0000      -0.774118       -21.0648
  34   2.0000      -0.710290       -19.3280
  35   2.0000      -0.705278       -19.1916
  36   2.0000      -0.695135       -18.9156
  37   2.0000      -0.661099       -17.9894
  38   2.0000      -0.640137       -17.4190
  39   2.0000      -0.614924       -16.7329
  40   2.0000      -0.595107       -16.1937
  41   2.0000      -0.573424       -15.6037
  42   2.0000      -0.566407       -15.4127
  43   2.0000      -0.553567       -15.0633
  44   2.0000      -0.540831       -14.7168
  45   2.0000      -0.525630       -14.3031
  46   2.0000      -0.520672       -14.1682
  47   2.0000      -0.515722       -14.0335
  48   2.0000      -0.505082       -13.7440
  49   2.0000      -0.502496       -13.6736
  50   2.0000      -0.491840       -13.3836
  51   2.0000      -0.478640       -13.0245
  52   2.0000      -0.469892       -12.7864
  53   2.0000      -0.467488       -12.7210
  54   2.0000      -0.462730       -12.5915
  55   2.0000      -0.453222       -12.3328
  56   2.0000      -0.440997       -12.0001
  57   2.0000      -0.439163       -11.9502
  58   2.0000      -0.429614       -11.6904
  59   2.0000      -0.427798       -11.6410
  60   2.0000      -0.421505       -11.4697
  61   2.0000      -0.415231       -11.2990
  62   2.0000      -0.406871       -11.0715
  63   2.0000      -0.355235        -9.6664
  64   2.0000      -0.330199        -8.9852
  65   2.0000      -0.324556        -8.8316
  66   2.0000      -0.295775        -8.0484
  67   0.0000       0.037448         1.0190
  68   0.0000       0.075952         2.0668
  69   0.0000       0.110192         2.9985
  70   0.0000       0.117882         3.2077
  71   0.0000       0.129362         3.5201

MULLIKEN ATOMIC CHARGES
-----------------------
   0 S :    0.104168
   1 C :   -0.102571
   2 C :   -0.097869
   3 C :    0.031944
   4 C :   -0.113188
   5 H :   -0.023291
   6 C :    0.033923
   7 H :    0.042406
   8 H :    0.019922
   9 C :   -0.054849
  10 H :    0.024927
  11 H :    0.011769
  12 C :   -0.079196
  13 H :    0.049801
  14 H :    0.049652
  15 H :    0.052717
  16 S :    0.108391
  17 C :   -0.088724
  18 C :   -0.046093
  19 C :   -0.048475
  20 C :   -0.155466
  21 H :    0.029222
  22 C :    0.105763
  23 H :    0.035475
  24 H :    0.002397
  25 C :   -0.077755
  26 H :    0.022645
  27 H :    0.018352
  28 C :   -0.044414
  29 H :    0.031594
  30 H :    0.035204
  31 H :    0.020125
  32 H :    0.037913
  33 H :    0.063581
Sum of atomic charges:    0.0000000

LOEWDIN ATOMIC CHARGES
----------------------
   0 S :    0.405793
   1 C :   -0.202132
   2 C :   -0.068225
   3 C :   -0.063934
   4 C :   -0.191743
   5 H :    0.016755
   6 C :   -0.044153
   7 H :    0.040480
   8 H :    0.036592
   9 C :   -0.046530
  10 H :    0.029277
  11 H :    0.016944
  12 C :   -0.074532
  13 H :    0.032825
  14 H :    0.036410
  15 H :    0.032291
  16 S :    0.412563
  17 C :   -0.196694
  18 C :   -0.078386
  19 C :   -0.046173
  20 C :   -0.190853
  21 H :    0.037091
  22 C :   -0.022805
  23 H :    0.037577
  24 H :    0.018373
  25 C :   -0.043258
  26 H :    0.020470
  27 H :    0.019869
  28 C :   -0.062380
  29 H :    0.027053
  30 H :    0.024888
  31 H :    0.020443
  32 H :    0.029606
  33 H :    0.036499

  Mayer bond orders larger than 0.100000
B(  0-S ,  1-C ) :   1.1176 B(  0-S ,  4-C ) :   1.1374 B(  1-C ,  2-C ) :   1.6439
B(  1-C , 32-H ) :   0.9673 B(  2-C ,  3-C ) :   1.1998 B(  2-C ,  6-C ) :   1.0221
B(  3-C ,  4-C ) :   1.6244 B(  3-C ,  5-H ) :   1.0026 B(  4-C , 20-C ) :   1.0228
B(  6-C ,  7-H ) :   0.9310 B(  6-C ,  8-H ) :   0.9426 B(  6-C ,  9-C ) :   1.0778
B(  9-C , 10-H ) :   0.9524 B(  9-C , 11-H ) :   0.9558 B(  9-C , 12-C ) :   1.0552
B( 12-C , 13-H ) :   0.9763 B( 12-C , 14-H ) :   0.9745 B( 12-C , 15-H ) :   0.9793
B( 16-S , 17-C ) :   1.1609 B( 16-S , 20-C ) :   1.1182 B( 17-C , 18-C ) :   1.6556
B( 17-C , 33-H ) :   0.9561 B( 18-C , 19-C ) :   1.1865 B( 18-C , 21-H ) :   0.9893
B( 19-C , 20-C ) :   1.6503 B( 19-C , 22-C ) :   1.0568 B( 22-C , 23-H ) :   0.9264
B( 22-C , 24-H ) :   0.9347 B( 22-C , 25-C ) :   1.0585 B( 25-C , 26-H ) :   0.9601
B( 25-C , 27-H ) :   0.9526 B( 25-C , 28-C ) :   1.0851 B( 28-C , 29-H ) :   0.9767
B( 28-C , 30-H ) :   0.9753 B( 28-C , 31-H ) :   0.9744

Dispersion correction           -0.014034153
FINAL SINGLE POINT ENERGY     -1339.872057778657

DIPOLE MOMENT
-------------
                                X             Y             Z
Electronic contribution:    -30.09561      -6.97590       5.72147
Nuclear contribution   :     30.67068       7.12863      -5.97611
                        -----------------------------------------
Total Dipole Moment    :      0.57507       0.15273      -0.25463
                        -----------------------------------------
Magnitude (a.u.)       :      0.64720
Magnitude (Debye)      :      1.64506

Rotational constants in cm-1:     0.017340     0.009607     0.006530
Rotational constants in MHz :   519.839578   288.009459   195.753888

                             ****ORCA TERMINATED NORMALLY****
TOTAL RUN TIME: 0 days 0 hours 0 minutes 21 seconds 793 msec
