                         Program Version 4.2.1 -  RELEASE  -
|  1> ! wB97X-D3 SP def2-SVP
|  2> %pal
|  3> nprocs 24
|  4> end
|  5>
|  6> * xyz 0 1
|  7> S 	 -115.028 	 22.6319 	 -114.215
|  8> C 	 -116.636 	 21.9827 	 -114.482
|  9> C 	 -117.516 	 22.321 	 -113.499
| 10> C 	 -116.872 	 23.0615 	 -112.446
| 11> C 	 -115.555 	 23.4103 	 -112.708
| 12> H 	 -117.246 	 23.5208 	 -111.559
| 13> C 	 -119.072 	 22.106 	 -113.541
| 14> H 	 -119.449 	 22.1999 	 -114.601
| 15> H 	 -119.609 	 22.9561 	 -113.118
| 16> C 	 -119.637 	 20.8828 	 -112.709
| 17> H 	 -119.014 	 19.9873 	 -112.683
| 18> H 	 -119.737 	 21.168 	 -111.645
| 19> C 	 -121.031 	 20.5795 	 -113.227
| 20> H 	 -121.824 	 21.2982 	 -113.035
| 21> H 	 -121.064 	 20.3814 	 -114.343
| 22> H 	 -121.509 	 19.7356 	 -112.606
| 23> S 	 -113.797 	 25.5006 	 -112.832
| 24> C 	 -112.947 	 25.9579 	 -111.361
| 25> C 	 -113.497 	 25.3662 	 -110.248
| 26> C 	 -114.328 	 24.2434 	 -110.599
| 27> C 	 -114.648 	 24.2446 	 -111.974
| 28> H 	 -113.041 	 25.5724 	 -109.238
| 29> C 	 -114.836 	 23.3277 	 -109.561
| 30> H 	 -115.843 	 23.083 	 -109.682
| 31> H 	 -114.652 	 23.8203 	 -108.65
| 32> C 	 -114.015 	 22.0364 	 -109.389
| 33> H 	 -114.24 	 21.4493 	 -108.535
| 34> H 	 -113.007 	 22.3607 	 -109.031
| 35> C 	 -113.98 	 21.0682 	 -110.547
| 36> H 	 -114.973 	 20.5685 	 -110.736
| 37> H 	 -113.253 	 20.2474 	 -110.492
| 38> H 	 -113.638 	 21.6856 	 -111.398
| 39> H 	 -117.022 	 21.3985 	 -115.37
| 40> H 	 -112.318 	 26.9104 	 -111.393
| 41> *
| 42>
| 43>                          ****END OF INPUT****

CARTESIAN COORDINATES (ANGSTROEM)
---------------------------------
  S    -115.028000   22.631900  -114.215000
  C    -116.636000   21.982700  -114.482000
  C    -117.516000   22.321000  -113.499000
  C    -116.872000   23.061500  -112.446000
  C    -115.555000   23.410300  -112.708000
  H    -117.246000   23.520800  -111.559000
  C    -119.072000   22.106000  -113.541000
  H    -119.449000   22.199900  -114.601000
  H    -119.609000   22.956100  -113.118000
  C    -119.637000   20.882800  -112.709000
  H    -119.014000   19.987300  -112.683000
  H    -119.737000   21.168000  -111.645000
  C    -121.031000   20.579500  -113.227000
  H    -121.824000   21.298200  -113.035000
  H    -121.064000   20.381400  -114.343000
  H    -121.509000   19.735600  -112.606000
  S    -113.797000   25.500600  -112.832000
  C    -112.947000   25.957900  -111.361000
  C    -113.497000   25.366200  -110.248000
  C    -114.328000   24.243400  -110.599000
  C    -114.648000   24.244600  -111.974000
  H    -113.041000   25.572400  -109.238000
  C    -114.836000   23.327700  -109.561000
  H    -115.843000   23.083000  -109.682000
  H    -114.652000   23.820300  -108.650000
  C    -114.015000   22.036400  -109.389000
  H    -114.240000   21.449300  -108.535000
  H    -113.007000   22.360700  -109.031000
  C    -113.980000   21.068200  -110.547000
  H    -114.973000   20.568500  -110.736000
  H    -113.253000   20.247400  -110.492000
  H    -113.638000   21.685600  -111.398000
  H    -117.022000   21.398500  -115.370000
  H    -112.318000   26.910400  -111.393000

 Total Charge           Charge          ....    0
 Multiplicity           Mult            ....    1
 Number of Electrons    NEL             ....  134
 Basis Dimension        Dim             ....  322

ORBITAL ENERGIES
----------------

  NO   OCC          E(Eh)            E(eV)
   0   2.0000     -88.967384     -2420.9256
   1   2.0000     -88.965531     -2420.8752
   2   2.0000     -10.328779      -281.0604
   3   2.0000     -10.327560      -281.0272
   4   2.0000     -10.324256      -280.9373
   5   2.0000     -10.316685      -280.7313
   6   2.0000     -10.306363      -280.4504
   7   2.0000     -10.305100      -280.4160
   8   2.0000     -10.304148      -280.3901
   9   2.0000     -10.302253      -280.3386
  10   2.0000     -10.294352      -280.1235
  11   2.0000     -10.294220      -280.1200
  12   2.0000     -10.287845      -279.9465
  13   2.0000     -10.282125      -279.7908
  14   2.0000     -10.279953      -279.7317
  15   2.0000     -10.271776      -279.5092
  16   2.0000      -8.082265      -219.9296
  17   2.0000      -8.079604      -219.8572
  18   2.0000      -6.040666      -164.3749
  19   2.0000      -6.038217      -164.3082
  20   2.0000      -6.036736      -164.2679
  21   2.0000      -6.034187      -164.1986
  22   2.0000      -6.033133      -164.1699
  23   2.0000      -6.030291      -164.0926
  24   2.0000      -1.006881       -27.3986
  25   2.0000      -0.982161       -26.7260
  26   2.0000      -0.914369       -24.8812
  27   2.0000      -0.903017       -24.5723
  28   2.0000      -0.872527       -23.7427
  29   2.0000      -0.849435       -23.1143
  30   2.0000      -0.842881       -22.9359
  31   2.0000      -0.812812       -22.1177
  32   2.0000      -0.783018       -21.3070
  33   2.0000      -0.768473       -20.9112
  34   2.0000      -0.706487       -19.2245
  35   2.0000      -0.698917       -19.0185
  36   2.0000      -0.689389       -18.7592
  37   2.0000      -0.661195       -17.9920
  38   2.0000      -0.639929       -17.4133
  39   2.0000      -0.614347       -16.7172
  40   2.0000      -0.594986       -16.1904
  41   2.0000      -0.566709       -15.4209
  42   2.0000      -0.556721       -15.1491
  43   2.0000      -0.552290       -15.0286
  44   2.0000      -0.546378       -14.8677
  45   2.0000      -0.519021       -14.1233
  46   2.0000      -0.507951       -13.8221
  47   2.0000      -0.505356       -13.7514
  48   2.0000      -0.501303       -13.6412
  49   2.0000      -0.494428       -13.4541
  50   2.0000      -0.492117       -13.3912
  51   2.0000      -0.479675       -13.0526
  52   2.0000      -0.470621       -12.8062
  53   2.0000      -0.465829       -12.6759
  54   2.0000      -0.457868       -12.4592
  55   2.0000      -0.447213       -12.1693
  56   2.0000      -0.443260       -12.0617
  57   2.0000      -0.438102       -11.9214
  58   2.0000      -0.430928       -11.7261
  59   2.0000      -0.422448       -11.4954
  60   2.0000      -0.419561       -11.4168
  61   2.0000      -0.407118       -11.0782
  62   2.0000      -0.403164       -10.9706
  63   2.0000      -0.349937        -9.5223
  64   2.0000      -0.332780        -9.0554
  65   2.0000      -0.330388        -8.9903
  66   2.0000      -0.290276        -7.8988
  67   0.0000       0.025197         0.6856
  68   0.0000       0.070073         1.9068
  69   0.0000       0.103883         2.8268
  70   0.0000       0.122214         3.3256
  71   0.0000       0.124482         3.3873

MULLIKEN ATOMIC CHARGES
-----------------------
   0 S :    0.108541
   1 C :   -0.131245
   2 C :   -0.050469
   3 C :    0.051446
   4 C :   -0.177820
   5 H :    0.003224
   6 C :    0.009617
   7 H :    0.037199
   8 H :    0.027163
   9 C :   -0.046523
  10 H :    0.043096
  11 H :    0.034162
  12 C :   -0.101827
  13 H :    0.027290
  14 H :    0.047134
  15 H :    0.035823
  16 S :    0.111868
  17 C :   -0.125858
  18 C :   -0.039527
  19 C :   -0.079347
  20 C :   -0.153537
  21 H :    0.048852
  22 C :    0.163737
  23 H :    0.007414
  24 H :    0.001326
  25 C :   -0.077616
  26 H :    0.011215
  27 H :    0.008339
  28 C :   -0.054630
  29 H :    0.041698
  30 H :    0.030937
  31 H :    0.036108
  32 H :    0.064741
  33 H :    0.087469
Sum of atomic charges:    0.0000000

LOEWDIN ATOMIC CHARGES
----------------------
   0 S :    0.390290
   1 C :   -0.202921
   2 C :   -0.068351
   3 C :   -0.058737
   4 C :   -0.183895
   5 H :    0.026754
   6 C :   -0.035272
   7 H :    0.035103
   8 H :    0.033051
   9 C :   -0.042688
  10 H :    0.025692
  11 H :    0.029292
  12 C :   -0.082971
  13 H :    0.022212
  14 H :    0.030296
  15 H :    0.033930
  16 S :    0.409440
  17 C :   -0.192477
  18 C :   -0.076658
  19 C :   -0.050437
  20 C :   -0.209711
  21 H :    0.043734
  22 C :   -0.021463
  23 H :    0.020158
  24 H :    0.031258
  25 C :   -0.042963
  26 H :    0.016636
  27 H :    0.024243
  28 C :   -0.074139
  29 H :    0.031559
  30 H :    0.026154
  31 H :    0.026383
  32 H :    0.044181
  33 H :    0.042316

  Mayer bond orders larger than 0.100000
B(  0-S ,  1-C ) :   1.1257 B(  0-S ,  4-C ) :   1.1251 B(  1-C ,  2-C ) :   1.6585
B(  1-C , 32-H ) :   0.9557 B(  2-C ,  3-C ) :   1.2049 B(  2-C ,  6-C ) :   1.0036
B(  3-C ,  4-C ) :   1.6106 B(  3-C ,  5-H ) :   0.9928 B(  4-C , 20-C ) :   1.0703
B(  6-C ,  7-H ) :   0.9607 B(  6-C ,  8-H ) :   0.9467 B(  6-C ,  9-C ) :   1.0323
B(  9-C , 10-H ) :   0.9651 B(  9-C , 11-H ) :   0.9531 B(  9-C , 12-C ) :   1.0788
B( 12-C , 13-H ) :   0.9735 B( 12-C , 14-H ) :   0.9769 B( 12-C , 15-H ) :   0.9702
B( 16-S , 17-C ) :   1.1553 B( 16-S , 20-C ) :   1.1512 B( 17-C , 18-C ) :   1.6179
B( 17-C , 33-H ) :   0.9538 B( 18-C , 19-C ) :   1.2533 B( 18-C , 21-H ) :   0.9688
B( 19-C , 20-C ) :   1.5528 B( 19-C , 22-C ) :   1.0574 B( 22-C , 23-H ) :   0.9328
B( 22-C , 24-H ) :   0.9126 B( 22-C , 25-C ) :   1.0718 B( 25-C , 26-H ) :   0.9530
B( 25-C , 27-H ) :   0.9484 B( 25-C , 28-C ) :   1.0828 B( 28-C , 29-H ) :   0.9724
B( 28-C , 30-H ) :   0.9711 B( 28-C , 31-H ) :   0.9709

Dispersion correction           -0.014963690
FINAL SINGLE POINT ENERGY     -1339.863738200148

DIPOLE MOMENT
-------------
                                X             Y             Z
Electronic contribution:     17.73435      17.13035     -11.62599
Nuclear contribution   :    -18.17038     -17.14482      12.13710
                        -----------------------------------------
Total Dipole Moment    :     -0.43603      -0.01448       0.51111
                        -----------------------------------------
Magnitude (a.u.)       :      0.67198
Magnitude (Debye)      :      1.70805

Rotational constants in cm-1:     0.021893     0.007923     0.006908
Rotational constants in MHz :   656.331095   237.514099   207.091133

                             ****ORCA TERMINATED NORMALLY****
TOTAL RUN TIME: 0 days 0 hours 0 minutes 21 seconds 956 msec
