                         Program Version 4.2.1 -  RELEASE  -
|  1> ! wB97X-D3 SP def2-SVP
|  2> %pal
|  3> nprocs 24
|  4> end
|  5>
|  6> * xyz 0 1
|  7> S 	 -38.3678 	 4.83395 	 -2.65788
|  8> C 	 -39.9248 	 4.12387 	 -3.12613
|  9> C 	 -40.3797 	 3.154 	 -2.2225
| 10> C 	 -39.382 	 2.94307 	 -1.23112
| 11> C 	 -38.2596 	 3.74975 	 -1.31312
| 12> H 	 -39.4756 	 2.27778 	 -0.343559
| 13> C 	 -41.6948 	 2.39964 	 -2.30998
| 14> H 	 -42.1742 	 2.67635 	 -3.28395
| 15> H 	 -42.4066 	 2.91441 	 -1.59827
| 16> C 	 -41.7045 	 0.95871 	 -2.05587
| 17> H 	 -41.2719 	 0.733756 	 -1.09957
| 18> H 	 -42.7483 	 0.641154 	 -2.07278
| 19> C 	 -41.0336 	 0.0802342 	 -3.19213
| 20> H 	 -40.8642 	 -0.877784 	 -2.74351
| 21> H 	 -41.7319 	 -0.00414314 	 -4.07724
| 22> H 	 -40.1631 	 0.524349 	 -3.58832
| 23> S 	 -35.6404 	 2.66119 	 -0.965604
| 24> C 	 -34.625 	 3.02989 	 0.376044
| 25> C 	 -35.2925 	 3.99293 	 1.14185
| 26> C 	 -36.5665 	 4.38319 	 0.622822
| 27> C 	 -36.9731 	 3.76404 	 -0.566764
| 28> H 	 -34.9166 	 4.35246 	 2.13203
| 29> C 	 -37.4384 	 5.29947 	 1.46919
| 30> H 	 -38.381 	 5.50035 	 0.93353
| 31> H 	 -36.8174 	 6.16425 	 1.45008
| 32> C 	 -37.921 	 4.82403 	 2.80444
| 33> H 	 -38.4002 	 5.71893 	 3.24561
| 34> H 	 -37.0383 	 4.70857 	 3.47325
| 35> C 	 -38.6692 	 3.49271 	 2.97293
| 36> H 	 -38.1271 	 2.72315 	 2.4381
| 37> H 	 -39.6683 	 3.54582 	 2.55273
| 38> H 	 -38.8573 	 3.16737 	 4.00224
| 39> H 	 -40.5659 	 4.3582 	 -3.93532
| 40> H 	 -33.7073 	 2.5757 	 0.660433
| 41> *
| 42>
| 43>                          ****END OF INPUT****

CARTESIAN COORDINATES (ANGSTROEM)
---------------------------------
  S    -38.367800    4.833950   -2.657880
  C    -39.924800    4.123870   -3.126130
  C    -40.379700    3.154000   -2.222500
  C    -39.382000    2.943070   -1.231120
  C    -38.259600    3.749750   -1.313120
  H    -39.475600    2.277780   -0.343559
  C    -41.694800    2.399640   -2.309980
  H    -42.174200    2.676350   -3.283950
  H    -42.406600    2.914410   -1.598270
  C    -41.704500    0.958710   -2.055870
  H    -41.271900    0.733756   -1.099570
  H    -42.748300    0.641154   -2.072780
  C    -41.033600    0.080234   -3.192130
  H    -40.864200   -0.877784   -2.743510
  H    -41.731900   -0.004143   -4.077240
  H    -40.163100    0.524349   -3.588320
  S    -35.640400    2.661190   -0.965604
  C    -34.625000    3.029890    0.376044
  C    -35.292500    3.992930    1.141850
  C    -36.566500    4.383190    0.622822
  C    -36.973100    3.764040   -0.566764
  H    -34.916600    4.352460    2.132030
  C    -37.438400    5.299470    1.469190
  H    -38.381000    5.500350    0.933530
  H    -36.817400    6.164250    1.450080
  C    -37.921000    4.824030    2.804440
  H    -38.400200    5.718930    3.245610
  H    -37.038300    4.708570    3.473250
  C    -38.669200    3.492710    2.972930
  H    -38.127100    2.723150    2.438100
  H    -39.668300    3.545820    2.552730
  H    -38.857300    3.167370    4.002240
  H    -40.565900    4.358200   -3.935320
  H    -33.707300    2.575700    0.660433

 Total Charge           Charge          ....    0
 Multiplicity           Mult            ....    1
 Number of Electrons    NEL             ....  134
 Basis Dimension        Dim             ....  322

ORBITAL ENERGIES
----------------

  NO   OCC          E(Eh)            E(eV)
   0   2.0000     -88.969330     -2420.9786
   1   2.0000     -88.962865     -2420.8026
   2   2.0000     -10.332606      -281.1645
   3   2.0000     -10.331008      -281.1210
   4   2.0000     -10.320654      -280.8393
   5   2.0000     -10.314928      -280.6834
   6   2.0000     -10.303993      -280.3859
   7   2.0000     -10.302740      -280.3518
   8   2.0000     -10.299631      -280.2672
   9   2.0000     -10.298556      -280.2380
  10   2.0000     -10.296832      -280.1910
  11   2.0000     -10.287742      -279.9437
  12   2.0000     -10.286076      -279.8984
  13   2.0000     -10.284539      -279.8565
  14   2.0000     -10.278115      -279.6817
  15   2.0000     -10.276507      -279.6380
  16   2.0000      -8.083653      -219.9674
  17   2.0000      -8.077481      -219.7994
  18   2.0000      -6.042107      -164.4141
  19   2.0000      -6.038120      -164.3056
  20   2.0000      -6.035984      -164.2475
  21   2.0000      -6.034585      -164.2094
  22   2.0000      -6.031711      -164.1312
  23   2.0000      -6.028486      -164.0434
  24   2.0000      -1.003635       -27.3103
  25   2.0000      -0.984292       -26.7840
  26   2.0000      -0.917940       -24.9784
  27   2.0000      -0.910233       -24.7687
  28   2.0000      -0.866120       -23.5683
  29   2.0000      -0.844418       -22.9778
  30   2.0000      -0.842327       -22.9209
  31   2.0000      -0.813336       -22.1320
  32   2.0000      -0.787205       -21.4209
  33   2.0000      -0.779183       -21.2027
  34   2.0000      -0.711762       -19.3680
  35   2.0000      -0.696931       -18.9645
  36   2.0000      -0.691187       -18.8082
  37   2.0000      -0.656823       -17.8731
  38   2.0000      -0.637619       -17.3505
  39   2.0000      -0.618401       -16.8275
  40   2.0000      -0.595308       -16.1992
  41   2.0000      -0.573446       -15.6043
  42   2.0000      -0.559130       -15.2147
  43   2.0000      -0.554176       -15.0799
  44   2.0000      -0.542266       -14.7558
  45   2.0000      -0.536305       -14.5936
  46   2.0000      -0.520619       -14.1668
  47   2.0000      -0.513717       -13.9790
  48   2.0000      -0.503057       -13.6889
  49   2.0000      -0.491542       -13.3755
  50   2.0000      -0.485891       -13.2218
  51   2.0000      -0.478852       -13.0302
  52   2.0000      -0.473604       -12.8874
  53   2.0000      -0.464586       -12.6420
  54   2.0000      -0.462109       -12.5746
  55   2.0000      -0.453498       -12.3403
  56   2.0000      -0.449002       -12.2180
  57   2.0000      -0.440294       -11.9810
  58   2.0000      -0.435375       -11.8471
  59   2.0000      -0.424200       -11.5431
  60   2.0000      -0.412860       -11.2345
  61   2.0000      -0.400958       -10.9106
  62   2.0000      -0.399837       -10.8801
  63   2.0000      -0.335894        -9.1401
  64   2.0000      -0.325071        -8.8456
  65   2.0000      -0.320537        -8.7222
  66   2.0000      -0.315008        -8.5718
  67   0.0000       0.043816         1.1923
  68   0.0000       0.049088         1.3357
  69   0.0000       0.115686         3.1480
  70   0.0000       0.123211         3.3527
  71   0.0000       0.130432         3.5492

MULLIKEN ATOMIC CHARGES
-----------------------
   0 S :    0.129752
   1 C :   -0.094848
   2 C :   -0.108201
   3 C :    0.033690
   4 C :   -0.196637
   5 H :    0.024486
   6 C :    0.053929
   7 H :    0.013346
   8 H :    0.046765
   9 C :   -0.063006
  10 H :    0.030153
  11 H :    0.031681
  12 C :   -0.046684
  13 H :    0.036888
  14 H :    0.030849
  15 H :    0.034216
  16 S :    0.106802
  17 C :   -0.074961
  18 C :   -0.056233
  19 C :   -0.067763
  20 C :   -0.149628
  21 H :    0.034338
  22 C :    0.084113
  23 H :    0.024199
  24 H :    0.033034
  25 C :   -0.085590
  26 H :    0.031880
  27 H :    0.013113
  28 C :   -0.031062
  29 H :    0.041756
  30 H :    0.022813
  31 H :    0.037547
  32 H :    0.024269
  33 H :    0.054992
Sum of atomic charges:   -0.0000000

LOEWDIN ATOMIC CHARGES
----------------------
   0 S :    0.420186
   1 C :   -0.187424
   2 C :   -0.064068
   3 C :   -0.063123
   4 C :   -0.204529
   5 H :    0.036772
   6 C :   -0.041480
   7 H :    0.032095
   8 H :    0.042585
   9 C :   -0.041738
  10 H :    0.020659
  11 H :    0.031398
  12 C :   -0.057536
  13 H :    0.024822
  14 H :    0.030003
  15 H :    0.018376
  16 S :    0.415452
  17 C :   -0.186058
  18 C :   -0.086826
  19 C :   -0.058707
  20 C :   -0.216335
  21 H :    0.035735
  22 C :   -0.034610
  23 H :    0.031864
  24 H :    0.034672
  25 C :   -0.048672
  26 H :    0.029527
  27 H :    0.019731
  28 C :   -0.063251
  29 H :    0.028102
  30 H :    0.021343
  31 H :    0.031266
  32 H :    0.019485
  33 H :    0.030285

  Mayer bond orders larger than 0.100000
B(  0-S ,  1-C ) :   1.1479 B(  0-S ,  4-C ) :   1.1657 B(  1-C ,  2-C ) :   1.6108
B(  1-C ,  4-C ) :   0.1027 B(  1-C , 32-H ) :   0.9644 B(  2-C ,  3-C ) :   1.2387
B(  2-C ,  6-C ) :   1.0192 B(  3-C ,  4-C ) :   1.6044 B(  3-C ,  5-H ) :   0.9868
B(  4-C , 20-C ) :   0.9871 B(  6-C ,  7-H ) :   0.9362 B(  6-C ,  8-H ) :   0.9275
B(  6-C ,  9-C ) :   1.0914 B(  9-C , 10-H ) :   0.9531 B(  9-C , 11-H ) :   0.9494
B(  9-C , 12-C ) :   1.0664 B( 12-C , 13-H ) :   0.9772 B( 12-C , 14-H ) :   0.9761
B( 12-C , 15-H ) :   0.9823 B( 16-S , 17-C ) :   1.1900 B( 16-S , 20-C ) :   1.1369
B( 17-C , 18-C ) :   1.5494 B( 17-C , 20-C ) :   0.1043 B( 17-C , 33-H ) :   0.9744
B( 18-C , 19-C ) :   1.2844 B( 18-C , 21-H ) :   0.9831 B( 19-C , 20-C ) :   1.5682
B( 19-C , 22-C ) :   1.0292 B( 22-C , 23-H ) :   0.9333 B( 22-C , 24-H ) :   0.9316
B( 22-C , 25-C ) :   1.0840 B( 25-C , 26-H ) :   0.9519 B( 25-C , 27-H ) :   0.9499
B( 25-C , 28-C ) :   1.0684 B( 28-C , 29-H ) :   0.9717 B( 28-C , 30-H ) :   0.9736
B( 28-C , 31-H ) :   0.9731

Dispersion correction           -0.014943175
FINAL SINGLE POINT ENERGY     -1339.872966032033

DIPOLE MOMENT
-------------
                                X             Y             Z
Electronic contribution:     17.82657       8.48822     -11.17462
Nuclear contribution   :    -18.29515      -8.65272      11.64975
                        -----------------------------------------
Total Dipole Moment    :     -0.46858      -0.16450       0.47513
                        -----------------------------------------
Magnitude (a.u.)       :      0.68729
Magnitude (Debye)      :      1.74695

Rotational constants in cm-1:     0.019258     0.008237     0.007592
Rotational constants in MHz :   577.335894   246.952119   227.602664

                             ****ORCA TERMINATED NORMALLY****
TOTAL RUN TIME: 0 days 0 hours 0 minutes 21 seconds 567 msec
