                         Program Version 4.2.1 -  RELEASE  -
|  1> ! wB97X-D3 SP def2-SVP
|  2> %pal
|  3> nprocs 24
|  4> end
|  5>
|  6> * xyz 0 1
|  7> S 	 -137.286 	 14.459 	 -2.15658
|  8> C 	 -135.94 	 15.4888 	 -2.42872
|  9> C 	 -134.806 	 15.142 	 -1.74726
| 10> C 	 -135.034 	 13.94 	 -0.9857
| 11> C 	 -136.224 	 13.3604 	 -1.33767
| 12> H 	 -134.37 	 13.4276 	 -0.340705
| 13> C 	 -133.47 	 15.8223 	 -1.68564
| 14> H 	 -133.219 	 15.6901 	 -0.652975
| 15> H 	 -133.592 	 16.8399 	 -1.865
| 16> C 	 -132.396 	 15.1369 	 -2.55805
| 17> H 	 -131.42 	 15.4537 	 -2.28302
| 18> H 	 -132.424 	 14.1055 	 -2.41281
| 19> C 	 -132.596 	 15.3849 	 -4.11041
| 20> H 	 -132.506 	 16.4959 	 -4.27566
| 21> H 	 -131.95 	 14.8171 	 -4.71403
| 22> H 	 -133.604 	 15.1167 	 -4.40545
| 23> S 	 -138.287 	 11.9154 	 -0.141797
| 24> C 	 -138.285 	 10.1485 	 -0.316896
| 25> C 	 -136.998 	 9.73466 	 -0.57043
| 26> C 	 -136.166 	 10.769 	 -0.989811
| 27> C 	 -136.725 	 12.0436 	 -0.918259
| 28> H 	 -136.758 	 8.64251 	 -0.643543
| 29> C 	 -134.735 	 10.5606 	 -1.58163
| 30> H 	 -134.466 	 9.55427 	 -1.2351
| 31> H 	 -134.02 	 11.3381 	 -1.18828
| 32> C 	 -134.738 	 10.5703 	 -3.06169
| 33> H 	 -135.005 	 11.5447 	 -3.47197
| 34> H 	 -135.454 	 9.87699 	 -3.43424
| 35> C 	 -133.334 	 10.231 	 -3.62516
| 36> H 	 -133.027 	 9.43647 	 -3.01465
| 37> H 	 -132.622 	 11.0579 	 -3.56046
| 38> H 	 -133.532 	 9.86591 	 -4.7015
| 39> H 	 -135.968 	 16.4581 	 -2.96127
| 40> H 	 -138.984 	 9.49012 	 0.0678549
| 41> *
| 42>
| 43>                          ****END OF INPUT****

CARTESIAN COORDINATES (ANGSTROEM)
---------------------------------
  S    -137.286000   14.459000   -2.156580
  C    -135.940000   15.488800   -2.428720
  C    -134.806000   15.142000   -1.747260
  C    -135.034000   13.940000   -0.985700
  C    -136.224000   13.360400   -1.337670
  H    -134.370000   13.427600   -0.340705
  C    -133.470000   15.822300   -1.685640
  H    -133.219000   15.690100   -0.652975
  H    -133.592000   16.839900   -1.865000
  C    -132.396000   15.136900   -2.558050
  H    -131.420000   15.453700   -2.283020
  H    -132.424000   14.105500   -2.412810
  C    -132.596000   15.384900   -4.110410
  H    -132.506000   16.495900   -4.275660
  H    -131.950000   14.817100   -4.714030
  H    -133.604000   15.116700   -4.405450
  S    -138.287000   11.915400   -0.141797
  C    -138.285000   10.148500   -0.316896
  C    -136.998000    9.734660   -0.570430
  C    -136.166000   10.769000   -0.989811
  C    -136.725000   12.043600   -0.918259
  H    -136.758000    8.642510   -0.643543
  C    -134.735000   10.560600   -1.581630
  H    -134.466000    9.554270   -1.235100
  H    -134.020000   11.338100   -1.188280
  C    -134.738000   10.570300   -3.061690
  H    -135.005000   11.544700   -3.471970
  H    -135.454000    9.876990   -3.434240
  C    -133.334000   10.231000   -3.625160
  H    -133.027000    9.436470   -3.014650
  H    -132.622000   11.057900   -3.560460
  H    -133.532000    9.865910   -4.701500
  H    -135.968000   16.458100   -2.961270
  H    -138.984000    9.490120    0.067855

 Total Charge           Charge          ....    0
 Multiplicity           Mult            ....    1
 Number of Electrons    NEL             ....  134
 Basis Dimension        Dim             ....  322

ORBITAL ENERGIES
----------------

  NO   OCC          E(Eh)            E(eV)
   0   2.0000     -88.967655     -2420.9330
   1   2.0000     -88.964199     -2420.8389
   2   2.0000     -10.327891      -281.0362
   3   2.0000     -10.324953      -280.9562
   4   2.0000     -10.313042      -280.6321
   5   2.0000     -10.310808      -280.5714
   6   2.0000     -10.299530      -280.2645
   7   2.0000     -10.298909      -280.2476
   8   2.0000     -10.295796      -280.1629
   9   2.0000     -10.292954      -280.0855
  10   2.0000     -10.291891      -280.0566
  11   2.0000     -10.287557      -279.9387
  12   2.0000     -10.284862      -279.8653
  13   2.0000     -10.278109      -279.6816
  14   2.0000     -10.277578      -279.6671
  15   2.0000     -10.274186      -279.5748
  16   2.0000      -8.083374      -219.9598
  17   2.0000      -8.078600      -219.8299
  18   2.0000      -6.041758      -164.4046
  19   2.0000      -6.037999      -164.3023
  20   2.0000      -6.037099      -164.2778
  21   2.0000      -6.033934      -164.1917
  22   2.0000      -6.033215      -164.1721
  23   2.0000      -6.029324      -164.0663
  24   2.0000      -1.012576       -27.5536
  25   2.0000      -0.989520       -26.9262
  26   2.0000      -0.915283       -24.9061
  27   2.0000      -0.911821       -24.8119
  28   2.0000      -0.869065       -23.6485
  29   2.0000      -0.852397       -23.1949
  30   2.0000      -0.844181       -22.9713
  31   2.0000      -0.815892       -22.2015
  32   2.0000      -0.784817       -21.3560
  33   2.0000      -0.769315       -20.9341
  34   2.0000      -0.713565       -19.4171
  35   2.0000      -0.701749       -19.0956
  36   2.0000      -0.689486       -18.7619
  37   2.0000      -0.662997       -18.0411
  38   2.0000      -0.643663       -17.5150
  39   2.0000      -0.623958       -16.9788
  40   2.0000      -0.593367       -16.1463
  41   2.0000      -0.570847       -15.5335
  42   2.0000      -0.569609       -15.4999
  43   2.0000      -0.551204       -14.9990
  44   2.0000      -0.545070       -14.8321
  45   2.0000      -0.523805       -14.2535
  46   2.0000      -0.518583       -14.1114
  47   2.0000      -0.513803       -13.9813
  48   2.0000      -0.500013       -13.6060
  49   2.0000      -0.494538       -13.4571
  50   2.0000      -0.490426       -13.3452
  51   2.0000      -0.486667       -13.2429
  52   2.0000      -0.470677       -12.8078
  53   2.0000      -0.466235       -12.6869
  54   2.0000      -0.459325       -12.4989
  55   2.0000      -0.454019       -12.3545
  56   2.0000      -0.447363       -12.1734
  57   2.0000      -0.439087       -11.9482
  58   2.0000      -0.434361       -11.8196
  59   2.0000      -0.427731       -11.6391
  60   2.0000      -0.424995       -11.5647
  61   2.0000      -0.422732       -11.5031
  62   2.0000      -0.403673       -10.9845
  63   2.0000      -0.346330        -9.4241
  64   2.0000      -0.332492        -9.0476
  65   2.0000      -0.330469        -8.9925
  66   2.0000      -0.291815        -7.9407
  67   0.0000       0.023912         0.6507
  68   0.0000       0.071675         1.9504
  69   0.0000       0.101554         2.7634
  70   0.0000       0.117497         3.1972
  71   0.0000       0.132133         3.5955

MULLIKEN ATOMIC CHARGES
-----------------------
   0 S :    0.132302
   1 C :   -0.113970
   2 C :   -0.127812
   3 C :    0.039211
   4 C :   -0.160403
   5 H :    0.006746
   6 C :    0.121681
   7 H :    0.021428
   8 H :    0.004277
   9 C :   -0.025353
  10 H :    0.022153
  11 H :    0.006844
  12 C :   -0.055207
  13 H :    0.032213
  14 H :    0.029863
  15 H :    0.029662
  16 S :    0.094141
  17 C :   -0.063657
  18 C :   -0.065421
  19 C :   -0.040381
  20 C :   -0.157243
  21 H :    0.037890
  22 C :    0.063419
  23 H :    0.010665
  24 H :    0.027233
  25 C :   -0.062961
  26 H :    0.033055
  27 H :    0.016350
  28 C :   -0.038430
  29 H :    0.010370
  30 H :    0.040372
  31 H :    0.047483
  32 H :    0.048053
  33 H :    0.035427
Sum of atomic charges:   -0.0000000

LOEWDIN ATOMIC CHARGES
----------------------
   0 S :    0.425684
   1 C :   -0.215058
   2 C :   -0.060329
   3 C :   -0.052340
   4 C :   -0.193058
   5 H :    0.024753
   6 C :   -0.020309
   7 H :    0.034342
   8 H :    0.019582
   9 C :   -0.023784
  10 H :    0.018652
  11 H :    0.013454
  12 C :   -0.060187
  13 H :    0.028768
  14 H :    0.017732
  15 H :    0.022859
  16 S :    0.392855
  17 C :   -0.168929
  18 C :   -0.076227
  19 C :   -0.062326
  20 C :   -0.198384
  21 H :    0.041061
  22 C :   -0.029552
  23 H :    0.025409
  24 H :    0.030460
  25 C :   -0.041150
  26 H :    0.024526
  27 H :    0.019861
  28 C :   -0.061839
  29 H :    0.012336
  30 H :    0.024069
  31 H :    0.038754
  32 H :    0.032735
  33 H :    0.015578

  Mayer bond orders larger than 0.100000
B(  0-S ,  1-C ) :   1.1304 B(  0-S ,  4-C ) :   1.1539 B(  1-C ,  2-C ) :   1.6432
B(  1-C , 32-H ) :   0.9578 B(  2-C ,  3-C ) :   1.2100 B(  2-C ,  6-C ) :   1.0205
B(  3-C ,  4-C ) :   1.5864 B(  3-C ,  5-H ) :   0.9961 B(  4-C , 20-C ) :   1.0370
B(  6-C ,  7-H ) :   0.9320 B(  6-C ,  8-H ) :   0.9393 B(  6-C ,  9-C ) :   1.0678
B(  9-C , 10-H ) :   0.9574 B(  9-C , 11-H ) :   0.9558 B(  9-C , 12-C ) :   1.0699
B( 12-C , 13-H ) :   0.9784 B( 12-C , 14-H ) :   0.9768 B( 12-C , 15-H ) :   0.9770
B( 16-S , 17-C ) :   1.1509 B( 16-S , 20-C ) :   1.1521 B( 17-C , 18-C ) :   1.5969
B( 17-C , 20-C ) :   0.1102 B( 17-C , 33-H ) :   0.9698 B( 18-C , 19-C ) :   1.2881
B( 18-C , 21-H ) :   0.9756 B( 19-C , 20-C ) :   1.5794 B( 19-C , 22-C ) :   1.0301
B( 22-C , 23-H ) :   0.9258 B( 22-C , 24-H ) :   0.9356 B( 22-C , 25-C ) :   1.0895
B( 25-C , 26-H ) :   0.9515 B( 25-C , 27-H ) :   0.9504 B( 25-C , 28-C ) :   1.0766
B( 28-C , 29-H ) :   0.9739 B( 28-C , 30-H ) :   0.9764 B( 28-C , 31-H ) :   0.9752

Dispersion correction           -0.015397035
FINAL SINGLE POINT ENERGY     -1339.866771309087

DIPOLE MOMENT
-------------
                                X             Y             Z
Electronic contribution:    -27.58954       1.90280      13.28776
Nuclear contribution   :     28.20299      -2.02551     -13.31137
                        -----------------------------------------
Total Dipole Moment    :      0.61344      -0.12270      -0.02361
                        -----------------------------------------
Magnitude (a.u.)       :      0.62604
Magnitude (Debye)      :      1.59127

Rotational constants in cm-1:     0.019386     0.009997     0.007358
Rotational constants in MHz :   581.183124   299.699617   220.587600

                             ****ORCA TERMINATED NORMALLY****
TOTAL RUN TIME: 0 days 0 hours 0 minutes 23 seconds 126 msec
