                         Program Version 4.2.1 -  RELEASE  -
|  1> ! wB97X-D3 SP def2-SVP
|  2> %pal
|  3> nprocs 24
|  4> end
|  5>
|  6> * xyz 0 1
|  7> S 	 -130.455 	 23.8337 	 -19.151
|  8> C 	 -129.987 	 24.9645 	 -17.9292
|  9> C 	 -128.63 	 25.3456 	 -18.0652
| 10> C 	 -128.034 	 24.8353 	 -19.2752
| 11> C 	 -128.89 	 23.9844 	 -19.9686
| 12> H 	 -127.077 	 24.965 	 -19.5888
| 13> C 	 -127.945 	 26.2213 	 -16.9749
| 14> H 	 -128.482 	 26.3203 	 -16.0166
| 15> H 	 -127.984 	 27.1818 	 -17.3901
| 16> C 	 -126.509 	 25.8297 	 -16.7455
| 17> H 	 -126.421 	 24.7515 	 -16.4539
| 18> H 	 -125.945 	 25.9343 	 -17.6647
| 19> C 	 -125.794 	 26.8321 	 -15.7781
| 20> H 	 -124.808 	 26.96 	 -16.2598
| 21> H 	 -126.268 	 27.7946 	 -15.5732
| 22> H 	 -125.613 	 26.4311 	 -14.7955
| 23> S 	 -129.8 	 23.683 	 -22.5186
| 24> C 	 -128.834 	 22.7152 	 -23.7102
| 25> C 	 -127.579 	 22.3071 	 -23.1366
| 26> C 	 -127.526 	 22.635 	 -21.7574
| 27> C 	 -128.577 	 23.3979 	 -21.2646
| 28> H 	 -126.823 	 21.9192 	 -23.7792
| 29> C 	 -126.225 	 22.3482 	 -21.0264
| 30> H 	 -126.447 	 22.2954 	 -19.9495
| 31> H 	 -125.446 	 23.1669 	 -21.2627
| 32> C 	 -125.532 	 21.0371 	 -21.3498
| 33> H 	 -125.327 	 20.9148 	 -22.405
| 34> H 	 -126.253 	 20.2659 	 -21.0167
| 35> C 	 -124.25 	 20.9494 	 -20.5121
| 36> H 	 -124.148 	 20.124 	 -19.9526
| 37> H 	 -124.13 	 21.8794 	 -19.9004
| 38> H 	 -123.3 	 20.8908 	 -21.0307
| 39> H 	 -130.624 	 25.3209 	 -17.0649
| 40> H 	 -128.954 	 22.6296 	 -24.7603
| 41> *
| 42>
| 43>                          ****END OF INPUT****

CARTESIAN COORDINATES (ANGSTROEM)
---------------------------------
  S    -130.455000   23.833700  -19.151000
  C    -129.987000   24.964500  -17.929200
  C    -128.630000   25.345600  -18.065200
  C    -128.034000   24.835300  -19.275200
  C    -128.890000   23.984400  -19.968600
  H    -127.077000   24.965000  -19.588800
  C    -127.945000   26.221300  -16.974900
  H    -128.482000   26.320300  -16.016600
  H    -127.984000   27.181800  -17.390100
  C    -126.509000   25.829700  -16.745500
  H    -126.421000   24.751500  -16.453900
  H    -125.945000   25.934300  -17.664700
  C    -125.794000   26.832100  -15.778100
  H    -124.808000   26.960000  -16.259800
  H    -126.268000   27.794600  -15.573200
  H    -125.613000   26.431100  -14.795500
  S    -129.800000   23.683000  -22.518600
  C    -128.834000   22.715200  -23.710200
  C    -127.579000   22.307100  -23.136600
  C    -127.526000   22.635000  -21.757400
  C    -128.577000   23.397900  -21.264600
  H    -126.823000   21.919200  -23.779200
  C    -126.225000   22.348200  -21.026400
  H    -126.447000   22.295400  -19.949500
  H    -125.446000   23.166900  -21.262700
  C    -125.532000   21.037100  -21.349800
  H    -125.327000   20.914800  -22.405000
  H    -126.253000   20.265900  -21.016700
  C    -124.250000   20.949400  -20.512100
  H    -124.148000   20.124000  -19.952600
  H    -124.130000   21.879400  -19.900400
  H    -123.300000   20.890800  -21.030700
  H    -130.624000   25.320900  -17.064900
  H    -128.954000   22.629600  -24.760300

 Total Charge           Charge          ....    0
 Multiplicity           Mult            ....    1
 Number of Electrons    NEL             ....  134
 Basis Dimension        Dim             ....  322

ORBITAL ENERGIES
----------------

  NO   OCC          E(Eh)            E(eV)
   0   2.0000     -88.969663     -2420.9876
   1   2.0000     -88.968823     -2420.9647
   2   2.0000     -10.331960      -281.1469
   3   2.0000     -10.330189      -281.0987
   4   2.0000     -10.323725      -280.9228
   5   2.0000     -10.317886      -280.7639
   6   2.0000     -10.306306      -280.4489
   7   2.0000     -10.303325      -280.3677
   8   2.0000     -10.297890      -280.2198
   9   2.0000     -10.295697      -280.1602
  10   2.0000     -10.292722      -280.0792
  11   2.0000     -10.289836      -280.0007
  12   2.0000     -10.289523      -279.9921
  13   2.0000     -10.285695      -279.8880
  14   2.0000     -10.279894      -279.7301
  15   2.0000     -10.269319      -279.4424
  16   2.0000      -8.083927      -219.9748
  17   2.0000      -8.081841      -219.9181
  18   2.0000      -6.042379      -164.4215
  19   2.0000      -6.040542      -164.3715
  20   2.0000      -6.038494      -164.3158
  21   2.0000      -6.036487      -164.2612
  22   2.0000      -6.034772      -164.2145
  23   2.0000      -6.032578      -164.1548
  24   2.0000      -0.999808       -27.2061
  25   2.0000      -0.974661       -26.5219
  26   2.0000      -0.912670       -24.8350
  27   2.0000      -0.908957       -24.7340
  28   2.0000      -0.866154       -23.5692
  29   2.0000      -0.851077       -23.1590
  30   2.0000      -0.843685       -22.9578
  31   2.0000      -0.812563       -22.1110
  32   2.0000      -0.779834       -21.2204
  33   2.0000      -0.769011       -20.9258
  34   2.0000      -0.711268       -19.3546
  35   2.0000      -0.699218       -19.0267
  36   2.0000      -0.689406       -18.7597
  37   2.0000      -0.660035       -17.9605
  38   2.0000      -0.644629       -17.5412
  39   2.0000      -0.621041       -16.8994
  40   2.0000      -0.594866       -16.1871
  41   2.0000      -0.571843       -15.5606
  42   2.0000      -0.568336       -15.4652
  43   2.0000      -0.565153       -15.3786
  44   2.0000      -0.528160       -14.3720
  45   2.0000      -0.518833       -14.1182
  46   2.0000      -0.515272       -14.0213
  47   2.0000      -0.510389       -13.8884
  48   2.0000      -0.500989       -13.6326
  49   2.0000      -0.498140       -13.5551
  50   2.0000      -0.488406       -13.2902
  51   2.0000      -0.480782       -13.0828
  52   2.0000      -0.471524       -12.8308
  53   2.0000      -0.465971       -12.6797
  54   2.0000      -0.455169       -12.3858
  55   2.0000      -0.448908       -12.2154
  56   2.0000      -0.445189       -12.1142
  57   2.0000      -0.443729       -12.0745
  58   2.0000      -0.427150       -11.6233
  59   2.0000      -0.421560       -11.4712
  60   2.0000      -0.420019       -11.4293
  61   2.0000      -0.419223       -11.4076
  62   2.0000      -0.407359       -11.0848
  63   2.0000      -0.345901        -9.4124
  64   2.0000      -0.330873        -9.0035
  65   2.0000      -0.326146        -8.8749
  66   2.0000      -0.288360        -7.8467
  67   0.0000       0.025226         0.6864
  68   0.0000       0.063289         1.7222
  69   0.0000       0.104011         2.8303
  70   0.0000       0.118549         3.2259
  71   0.0000       0.129364         3.5202

MULLIKEN ATOMIC CHARGES
-----------------------
   0 S :    0.129982
   1 C :   -0.153176
   2 C :   -0.093677
   3 C :    0.068829
   4 C :   -0.156768
   5 H :   -0.026334
   6 C :    0.099191
   7 H :    0.028333
   8 H :    0.022365
   9 C :   -0.120575
  10 H :    0.047714
  11 H :    0.030787
  12 C :   -0.048761
  13 H :    0.033494
  14 H :    0.035712
  15 H :    0.030512
  16 S :    0.102587
  17 C :   -0.080602
  18 C :   -0.058805
  19 C :    0.004285
  20 C :   -0.153306
  21 H :    0.025018
  22 C :   -0.020372
  23 H :    0.040906
  24 H :    0.056857
  25 C :   -0.084246
  26 H :    0.033254
  27 H :    0.039655
  28 C :   -0.003103
  29 H :    0.005290
  30 H :    0.029019
  31 H :    0.016042
  32 H :    0.072952
  33 H :    0.046940
Sum of atomic charges:   -0.0000000

LOEWDIN ATOMIC CHARGES
----------------------
   0 S :    0.411120
   1 C :   -0.221860
   2 C :   -0.056168
   3 C :   -0.045562
   4 C :   -0.192366
   5 H :    0.013577
   6 C :   -0.030866
   7 H :    0.031554
   8 H :    0.026111
   9 C :   -0.044139
  10 H :    0.031830
  11 H :    0.020631
  12 C :   -0.068963
  13 H :    0.031901
  14 H :    0.026759
  15 H :    0.023087
  16 S :    0.383843
  17 C :   -0.166261
  18 C :   -0.060808
  19 C :   -0.064034
  20 C :   -0.188152
  21 H :    0.029495
  22 C :   -0.041814
  23 H :    0.032600
  24 H :    0.038083
  25 C :   -0.042604
  26 H :    0.018836
  27 H :    0.031578
  28 C :   -0.063086
  29 H :    0.010523
  30 H :    0.031980
  31 H :    0.028308
  32 H :    0.043062
  33 H :    0.021802

  Mayer bond orders larger than 0.100000
B(  0-S ,  1-C ) :   1.1454 B(  0-S ,  4-C ) :   1.1520 B(  1-C ,  2-C ) :   1.5964
B(  1-C , 32-H ) :   0.9609 B(  2-C ,  3-C ) :   1.2464 B(  2-C ,  6-C ) :   1.0041
B(  3-C ,  4-C ) :   1.5492 B(  3-C ,  5-H ) :   1.0073 B(  4-C , 20-C ) :   1.0529
B(  6-C ,  7-H ) :   0.9509 B(  6-C ,  8-H ) :   0.9288 B(  6-C ,  9-C ) :   1.0753
B(  9-C , 10-H ) :   0.9611 B(  9-C , 11-H ) :   0.9613 B(  9-C , 12-C ) :   1.0560
B( 12-C , 13-H ) :   0.9828 B( 12-C , 14-H ) :   0.9777 B( 12-C , 15-H ) :   0.9775
B( 16-S , 17-C ) :   1.1503 B( 16-S , 20-C ) :   1.1283 B( 17-C , 18-C ) :   1.6072
B( 17-C , 20-C ) :   0.1080 B( 17-C , 33-H ) :   0.9675 B( 18-C , 19-C ) :   1.2362
B( 18-C , 21-H ) :   0.9888 B( 19-C , 20-C ) :   1.5963 B( 19-C , 22-C ) :   1.0459
B( 22-C , 23-H ) :   0.9345 B( 22-C , 24-H ) :   0.9343 B( 22-C , 25-C ) :   1.0760
B( 25-C , 26-H ) :   0.9543 B( 25-C , 27-H ) :   0.9618 B( 25-C , 28-C ) :   1.0631
B( 28-C , 29-H ) :   0.9719 B( 28-C , 30-H ) :   0.9760 B( 28-C , 31-H ) :   0.9689

Dispersion correction           -0.013362428
FINAL SINGLE POINT ENERGY     -1339.848348231272

DIPOLE MOMENT
-------------
                                X             Y             Z
Electronic contribution:    -28.37699      -1.04488     -14.57230
Nuclear contribution   :     29.15471       1.18936      14.79700
                        -----------------------------------------
Total Dipole Moment    :      0.77772       0.14448       0.22470
                        -----------------------------------------
Magnitude (a.u.)       :      0.82232
Magnitude (Debye)      :      2.09017

Rotational constants in cm-1:     0.016000     0.008797     0.006215
Rotational constants in MHz :   479.667992   263.720879   186.317610

                             ****ORCA TERMINATED NORMALLY****
TOTAL RUN TIME: 0 days 0 hours 0 minutes 19 seconds 967 msec
