                         Program Version 4.2.1 -  RELEASE  -
|  1> ! wB97X-D3 SP def2-SVP
|  2> %pal
|  3> nprocs 24
|  4> end
|  5>
|  6> * xyz 0 1
|  7> S 	 -76.174 	 -2.75441 	 9.73896
|  8> C 	 -77.8048 	 -2.43093 	 9.32617
|  9> C 	 -78.4417 	 -1.68458 	 10.3097
| 10> C 	 -77.5481 	 -1.26702 	 11.3242
| 11> C 	 -76.2207 	 -1.72635 	 11.1229
| 12> H 	 -77.8416 	 -0.661065 	 12.2133
| 13> C 	 -79.8396 	 -1.2583 	 10.4628
| 14> H 	 -79.976 	 -0.614414 	 9.54197
| 15> H 	 -79.9402 	 -0.624487 	 11.3449
| 16> C 	 -80.9266 	 -2.24457 	 10.4196
| 17> H 	 -81.8473 	 -1.89954 	 9.98892
| 18> H 	 -80.6562 	 -3.06614 	 9.75852
| 19> C 	 -81.0368 	 -3.09085 	 11.672
| 20> H 	 -80.2519 	 -3.76311 	 11.7893
| 21> H 	 -81.0547 	 -2.48927 	 12.5565
| 22> H 	 -81.9336 	 -3.72325 	 11.5266
| 23> S 	 -74.052 	 -2.89085 	 12.4295
| 24> C 	 -73.0945 	 -1.92069 	 13.6012
| 25> C 	 -73.6632 	 -0.684529 	 13.7431
| 26> C 	 -74.8522 	 -0.511626 	 12.9129
| 27> C 	 -75.1338 	 -1.56722 	 12.0606
| 28> H 	 -73.3178 	 0.00863308 	 14.5356
| 29> C 	 -75.5507 	 0.868293 	 12.9751
| 30> H 	 -75.7282 	 1.28047 	 13.9967
| 31> H 	 -76.5421 	 0.803966 	 12.5911
| 32> C 	 -74.7938 	 1.92903 	 12.1605
| 33> H 	 -73.7258 	 1.97037 	 12.3875
| 34> H 	 -75.2313 	 2.84243 	 12.4734
| 35> C 	 -74.9812 	 1.67859 	 10.6359
| 36> H 	 -74.8347 	 0.582923 	 10.303
| 37> H 	 -74.3386 	 2.34831 	 10.1037
| 38> H 	 -75.9958 	 1.96116 	 10.3562
| 39> H 	 -78.306 	 -2.80934 	 8.43017
| 40> H 	 -72.2584 	 -2.35993 	 14.1106
| 41> *
| 42>
| 43>                          ****END OF INPUT****

CARTESIAN COORDINATES (ANGSTROEM)
---------------------------------
  S    -76.174000   -2.754410    9.738960
  C    -77.804800   -2.430930    9.326170
  C    -78.441700   -1.684580   10.309700
  C    -77.548100   -1.267020   11.324200
  C    -76.220700   -1.726350   11.122900
  H    -77.841600   -0.661065   12.213300
  C    -79.839600   -1.258300   10.462800
  H    -79.976000   -0.614414    9.541970
  H    -79.940200   -0.624487   11.344900
  C    -80.926600   -2.244570   10.419600
  H    -81.847300   -1.899540    9.988920
  H    -80.656200   -3.066140    9.758520
  C    -81.036800   -3.090850   11.672000
  H    -80.251900   -3.763110   11.789300
  H    -81.054700   -2.489270   12.556500
  H    -81.933600   -3.723250   11.526600
  S    -74.052000   -2.890850   12.429500
  C    -73.094500   -1.920690   13.601200
  C    -73.663200   -0.684529   13.743100
  C    -74.852200   -0.511626   12.912900
  C    -75.133800   -1.567220   12.060600
  H    -73.317800    0.008633   14.535600
  C    -75.550700    0.868293   12.975100
  H    -75.728200    1.280470   13.996700
  H    -76.542100    0.803966   12.591100
  C    -74.793800    1.929030   12.160500
  H    -73.725800    1.970370   12.387500
  H    -75.231300    2.842430   12.473400
  C    -74.981200    1.678590   10.635900
  H    -74.834700    0.582923   10.303000
  H    -74.338600    2.348310   10.103700
  H    -75.995800    1.961160   10.356200
  H    -78.306000   -2.809340    8.430170
  H    -72.258400   -2.359930   14.110600

 Total Charge           Charge          ....    0
 Multiplicity           Mult            ....    1
 Number of Electrons    NEL             ....  134
 Basis Dimension        Dim             ....  322

ORBITAL ENERGIES
----------------

  NO   OCC          E(Eh)            E(eV)
   0   2.0000     -88.972937     -2421.0767
   1   2.0000     -88.961499     -2420.7655
   2   2.0000     -10.331819      -281.1431
   3   2.0000     -10.329407      -281.0775
   4   2.0000     -10.320867      -280.8451
   5   2.0000     -10.314936      -280.6837
   6   2.0000     -10.305462      -280.4259
   7   2.0000     -10.299668      -280.2682
   8   2.0000     -10.299304      -280.2583
   9   2.0000     -10.296922      -280.1935
  10   2.0000     -10.289635      -279.9952
  11   2.0000     -10.289247      -279.9846
  12   2.0000     -10.280360      -279.7428
  13   2.0000     -10.277604      -279.6678
  14   2.0000     -10.272994      -279.5424
  15   2.0000     -10.268353      -279.4161
  16   2.0000      -8.088115      -220.0888
  17   2.0000      -8.075934      -219.7573
  18   2.0000      -6.046530      -164.5345
  19   2.0000      -6.042375      -164.4214
  20   2.0000      -6.039152      -164.3337
  21   2.0000      -6.034643      -164.2110
  22   2.0000      -6.030504      -164.0983
  23   2.0000      -6.026473      -163.9887
  24   2.0000      -1.010562       -27.4988
  25   2.0000      -0.984002       -26.7760
  26   2.0000      -0.927034       -25.2259
  27   2.0000      -0.903220       -24.5779
  28   2.0000      -0.873559       -23.7708
  29   2.0000      -0.857987       -23.3470
  30   2.0000      -0.835438       -22.7334
  31   2.0000      -0.811209       -22.0741
  32   2.0000      -0.785308       -21.3693
  33   2.0000      -0.771652       -20.9977
  34   2.0000      -0.711109       -19.3503
  35   2.0000      -0.702012       -19.1027
  36   2.0000      -0.691496       -18.8166
  37   2.0000      -0.661219       -17.9927
  38   2.0000      -0.638425       -17.3724
  39   2.0000      -0.615316       -16.7436
  40   2.0000      -0.599124       -16.3030
  41   2.0000      -0.579261       -15.7625
  42   2.0000      -0.562355       -15.3024
  43   2.0000      -0.548709       -14.9311
  44   2.0000      -0.545633       -14.8474
  45   2.0000      -0.527995       -14.3675
  46   2.0000      -0.520133       -14.1535
  47   2.0000      -0.510951       -13.9037
  48   2.0000      -0.503385       -13.6978
  49   2.0000      -0.502613       -13.6768
  50   2.0000      -0.492298       -13.3961
  51   2.0000      -0.482573       -13.1315
  52   2.0000      -0.470022       -12.7900
  53   2.0000      -0.468359       -12.7447
  54   2.0000      -0.459258       -12.4970
  55   2.0000      -0.442864       -12.0509
  56   2.0000      -0.440565       -11.9884
  57   2.0000      -0.436861       -11.8876
  58   2.0000      -0.430942       -11.7265
  59   2.0000      -0.424837       -11.5604
  60   2.0000      -0.416620       -11.3368
  61   2.0000      -0.408790       -11.1237
  62   2.0000      -0.405608       -11.0372
  63   2.0000      -0.358617        -9.7585
  64   2.0000      -0.331730        -9.0268
  65   2.0000      -0.325967        -8.8700
  66   2.0000      -0.284595        -7.7442
  67   0.0000       0.021545         0.5863
  68   0.0000       0.078160         2.1268
  69   0.0000       0.103902         2.8273
  70   0.0000       0.117839         3.2066
  71   0.0000       0.138636         3.7725

MULLIKEN ATOMIC CHARGES
-----------------------
   0 S :    0.133817
   1 C :   -0.131924
   2 C :   -0.074904
   3 C :   -0.023408
   4 C :   -0.158308
   5 H :    0.042386
   6 C :    0.066180
   7 H :    0.042461
   8 H :    0.018870
   9 C :   -0.057625
  10 H :    0.024738
  11 H :    0.011764
  12 C :   -0.025512
  13 H :    0.024578
  14 H :    0.016483
  15 H :    0.033191
  16 S :    0.074921
  17 C :   -0.097208
  18 C :   -0.013969
  19 C :   -0.078031
  20 C :   -0.103837
  21 H :    0.039690
  22 C :    0.059385
  23 H :    0.028662
  24 H :   -0.013002
  25 C :   -0.046078
  26 H :    0.029989
  27 H :    0.015373
  28 C :   -0.064020
  29 H :    0.065230
  30 H :    0.025790
  31 H :    0.022049
  32 H :    0.052123
  33 H :    0.060147
Sum of atomic charges:   -0.0000000

LOEWDIN ATOMIC CHARGES
----------------------
   0 S :    0.447242
   1 C :   -0.219639
   2 C :   -0.063769
   3 C :   -0.065297
   4 C :   -0.206364
   5 H :    0.037104
   6 C :   -0.038673
   7 H :    0.047928
   8 H :    0.028131
   9 C :   -0.050043
  10 H :    0.022610
  11 H :    0.028882
  12 C :   -0.053844
  13 H :    0.018406
  14 H :    0.015089
  15 H :    0.033100
  16 S :    0.372804
  17 C :   -0.163606
  18 C :   -0.069601
  19 C :   -0.057377
  20 C :   -0.199873
  21 H :    0.040737
  22 C :   -0.033068
  23 H :    0.032671
  24 H :    0.017093
  25 C :   -0.032324
  26 H :    0.021855
  27 H :    0.017535
  28 C :   -0.068085
  29 H :    0.040310
  30 H :    0.019175
  31 H :    0.021422
  32 H :    0.031979
  33 H :    0.027490

  Mayer bond orders larger than 0.100000
B(  0-S ,  1-C ) :   1.1534 B(  0-S ,  4-C ) :   1.1791 B(  1-C ,  2-C ) :   1.5521
B(  1-C ,  4-C ) :   0.1042 B(  1-C , 32-H ) :   0.9675 B(  2-C ,  3-C ) :   1.3021
B(  2-C ,  6-C ) :   1.0236 B(  3-C ,  4-C ) :   1.4957 B(  3-C ,  5-H ) :   0.9771
B(  4-C , 20-C ) :   1.0738 B(  6-C ,  7-H ) :   0.9183 B(  6-C ,  8-H ) :   0.9468
B(  6-C ,  9-C ) :   1.0901 B(  9-C , 10-H ) :   0.9553 B(  9-C , 11-H ) :   0.9518
B(  9-C , 12-C ) :   1.0603 B( 12-C , 13-H ) :   0.9789 B( 12-C , 14-H ) :   0.9775
B( 12-C , 15-H ) :   0.9726 B( 16-S , 17-C ) :   1.1328 B( 16-S , 20-C ) :   1.1183
B( 17-C , 18-C ) :   1.6199 B( 17-C , 33-H ) :   0.9741 B( 18-C , 19-C ) :   1.2218
B( 18-C , 21-H ) :   0.9846 B( 19-C , 20-C ) :   1.6105 B( 19-C , 22-C ) :   1.0487
B( 22-C , 23-H ) :   0.9400 B( 22-C , 24-H ) :   0.9290 B( 22-C , 25-C ) :   1.0720
B( 25-C , 26-H ) :   0.9615 B( 25-C , 27-H ) :   0.9527 B( 25-C , 28-C ) :   1.0709
B( 28-C , 29-H ) :   0.9742 B( 28-C , 30-H ) :   0.9745 B( 28-C , 31-H ) :   0.9740

Dispersion correction           -0.015182130
FINAL SINGLE POINT ENERGY     -1339.872723790404

DIPOLE MOMENT
-------------
                                X             Y             Z
Electronic contribution:     17.87225     -14.26871      -1.10799
Nuclear contribution   :    -18.33224      14.66620       1.29931
                        -----------------------------------------
Total Dipole Moment    :     -0.45999       0.39749       0.19133
                        -----------------------------------------
Magnitude (a.u.)       :      0.63734
Magnitude (Debye)      :      1.61998

Rotational constants in cm-1:     0.020774     0.008556     0.007539
Rotational constants in MHz :   622.784062   256.487595   226.006121

                             ****ORCA TERMINATED NORMALLY****
TOTAL RUN TIME: 0 days 0 hours 0 minutes 22 seconds 502 msec
