                         Program Version 4.2.1 -  RELEASE  -
|  1> ! wB97X-D3 SP def2-SVP
|  2> %pal
|  3> nprocs 24
|  4> end
|  5>
|  6> * xyz 0 1
|  7> S 	 45.0708 	 -15.4706 	 -116.913
|  8> C 	 45.9784 	 -16.4491 	 -115.826
|  9> C 	 46.9184 	 -17.1571 	 -116.542
| 10> C 	 46.8024 	 -16.9481 	 -117.927
| 11> C 	 45.8472 	 -16.0488 	 -118.291
| 12> H 	 47.4861 	 -17.3852 	 -118.613
| 13> C 	 47.8955 	 -18.1139 	 -115.868
| 14> H 	 48.4845 	 -18.5972 	 -116.702
| 15> H 	 47.3064 	 -18.8381 	 -115.399
| 16> C 	 48.8785 	 -17.4958 	 -114.883
| 17> H 	 48.3777 	 -16.8209 	 -114.117
| 18> H 	 49.2665 	 -18.2942 	 -114.358
| 19> C 	 49.9979 	 -16.8237 	 -115.564
| 20> H 	 50.8339 	 -16.5116 	 -114.878
| 21> H 	 50.4332 	 -17.5254 	 -116.336
| 22> H 	 49.6851 	 -15.996 	 -116.162
| 23> S 	 43.833 	 -16.0189 	 -120.152
| 24> C 	 44.1062 	 -15.1958 	 -121.678
| 25> C 	 45.4202 	 -14.84 	 -121.79
| 26> C 	 46.2471 	 -15.197 	 -120.66
| 27> C 	 45.4837 	 -15.6903 	 -119.624
| 28> H 	 45.7566 	 -14.3385 	 -122.652
| 29> C 	 47.7597 	 -14.9757 	 -120.601
| 30> H 	 48.2466 	 -15.3367 	 -121.502
| 31> H 	 48.1909 	 -15.6884 	 -119.881
| 32> C 	 48.2188 	 -13.5309 	 -120.423
| 33> H 	 47.7831 	 -13.2267 	 -119.485
| 34> H 	 47.7799 	 -12.9653 	 -121.24
| 35> C 	 49.7779 	 -13.2923 	 -120.409
| 36> H 	 50.2034 	 -14.238 	 -119.943
| 37> H 	 50.0548 	 -12.5583 	 -119.702
| 38> H 	 50.3609 	 -13.1244 	 -121.289
| 39> H 	 45.8915 	 -16.5112 	 -114.778
| 40> H 	 43.4827 	 -14.6306 	 -122.289
| 41> *
| 42>
| 43>                          ****END OF INPUT****

CARTESIAN COORDINATES (ANGSTROEM)
---------------------------------
  S     45.070800  -15.470600  -116.913000
  C     45.978400  -16.449100  -115.826000
  C     46.918400  -17.157100  -116.542000
  C     46.802400  -16.948100  -117.927000
  C     45.847200  -16.048800  -118.291000
  H     47.486100  -17.385200  -118.613000
  C     47.895500  -18.113900  -115.868000
  H     48.484500  -18.597200  -116.702000
  H     47.306400  -18.838100  -115.399000
  C     48.878500  -17.495800  -114.883000
  H     48.377700  -16.820900  -114.117000
  H     49.266500  -18.294200  -114.358000
  C     49.997900  -16.823700  -115.564000
  H     50.833900  -16.511600  -114.878000
  H     50.433200  -17.525400  -116.336000
  H     49.685100  -15.996000  -116.162000
  S     43.833000  -16.018900  -120.152000
  C     44.106200  -15.195800  -121.678000
  C     45.420200  -14.840000  -121.790000
  C     46.247100  -15.197000  -120.660000
  C     45.483700  -15.690300  -119.624000
  H     45.756600  -14.338500  -122.652000
  C     47.759700  -14.975700  -120.601000
  H     48.246600  -15.336700  -121.502000
  H     48.190900  -15.688400  -119.881000
  C     48.218800  -13.530900  -120.423000
  H     47.783100  -13.226700  -119.485000
  H     47.779900  -12.965300  -121.240000
  C     49.777900  -13.292300  -120.409000
  H     50.203400  -14.238000  -119.943000
  H     50.054800  -12.558300  -119.702000
  H     50.360900  -13.124400  -121.289000
  H     45.891500  -16.511200  -114.778000
  H     43.482700  -14.630600  -122.289000

 Total Charge           Charge          ....    0
 Multiplicity           Mult            ....    1
 Number of Electrons    NEL             ....  134
 Basis Dimension        Dim             ....  322

ORBITAL ENERGIES
----------------

  NO   OCC          E(Eh)            E(eV)
   0   2.0000     -88.966915     -2420.9128
   1   2.0000     -88.963839     -2420.8291
   2   2.0000     -10.325585      -280.9734
   3   2.0000     -10.319886      -280.8184
   4   2.0000     -10.308200      -280.5004
   5   2.0000     -10.307497      -280.4812
   6   2.0000     -10.303996      -280.3860
   7   2.0000     -10.295005      -280.1413
   8   2.0000     -10.291098      -280.0350
   9   2.0000     -10.290684      -280.0237
  10   2.0000     -10.289469      -279.9907
  11   2.0000     -10.287824      -279.9459
  12   2.0000     -10.286488      -279.9096
  13   2.0000     -10.282434      -279.7993
  14   2.0000     -10.279461      -279.7184
  15   2.0000     -10.278253      -279.6855
  16   2.0000      -8.083216      -219.9555
  17   2.0000      -8.078296      -219.8216
  18   2.0000      -6.041561      -164.3992
  19   2.0000      -6.037242      -164.2817
  20   2.0000      -6.037047      -164.2764
  21   2.0000      -6.034295      -164.2015
  22   2.0000      -6.032824      -164.1615
  23   2.0000      -6.028822      -164.0526
  24   2.0000      -1.019573       -27.7440
  25   2.0000      -0.988865       -26.9084
  26   2.0000      -0.922595       -25.1051
  27   2.0000      -0.905078       -24.6284
  28   2.0000      -0.878270       -23.8990
  29   2.0000      -0.855049       -23.2671
  30   2.0000      -0.843270       -22.9465
  31   2.0000      -0.820441       -22.3253
  32   2.0000      -0.785678       -21.3794
  33   2.0000      -0.775388       -21.0994
  34   2.0000      -0.712439       -19.3865
  35   2.0000      -0.705679       -19.2025
  36   2.0000      -0.699083       -19.0230
  37   2.0000      -0.662447       -18.0261
  38   2.0000      -0.645281       -17.5590
  39   2.0000      -0.620868       -16.8947
  40   2.0000      -0.594315       -16.1721
  41   2.0000      -0.581551       -15.8248
  42   2.0000      -0.563783       -15.3413
  43   2.0000      -0.562745       -15.3131
  44   2.0000      -0.549250       -14.9459
  45   2.0000      -0.521503       -14.1908
  46   2.0000      -0.518268       -14.1028
  47   2.0000      -0.509329       -13.8595
  48   2.0000      -0.507950       -13.8220
  49   2.0000      -0.506848       -13.7920
  50   2.0000      -0.494490       -13.4557
  51   2.0000      -0.482336       -13.1250
  52   2.0000      -0.474900       -12.9227
  53   2.0000      -0.465946       -12.6790
  54   2.0000      -0.458699       -12.4818
  55   2.0000      -0.449249       -12.2247
  56   2.0000      -0.446265       -12.1435
  57   2.0000      -0.434615       -11.8265
  58   2.0000      -0.431946       -11.7538
  59   2.0000      -0.426539       -11.6067
  60   2.0000      -0.419523       -11.4158
  61   2.0000      -0.416386       -11.3304
  62   2.0000      -0.413450       -11.2505
  63   2.0000      -0.342981        -9.3330
  64   2.0000      -0.333441        -9.0734
  65   2.0000      -0.328346        -8.9347
  66   2.0000      -0.300146        -8.1674
  67   0.0000       0.028228         0.7681
  68   0.0000       0.072916         1.9841
  69   0.0000       0.112446         3.0598
  70   0.0000       0.127537         3.4705
  71   0.0000       0.133595         3.6353

MULLIKEN ATOMIC CHARGES
-----------------------
   0 S :    0.136395
   1 C :   -0.109644
   2 C :   -0.105015
   3 C :    0.044755
   4 C :   -0.158970
   5 H :   -0.001323
   6 C :    0.061928
   7 H :    0.021159
   8 H :    0.026335
   9 C :   -0.027553
  10 H :    0.034995
  11 H :    0.009108
  12 C :   -0.061911
  13 H :    0.046128
  14 H :    0.019054
  15 H :    0.029337
  16 S :    0.107007
  17 C :   -0.040956
  18 C :   -0.057930
  19 C :   -0.019794
  20 C :   -0.173109
  21 H :    0.004145
  22 C :    0.073764
  23 H :    0.015872
  24 H :    0.005399
  25 C :   -0.050366
  26 H :    0.030647
  27 H :    0.028888
  28 C :   -0.043623
  29 H :    0.019756
  30 H :    0.026768
  31 H :    0.038907
  32 H :    0.028775
  33 H :    0.041072
Sum of atomic charges:   -0.0000000

LOEWDIN ATOMIC CHARGES
----------------------
   0 S :    0.458719
   1 C :   -0.200805
   2 C :   -0.066016
   3 C :   -0.062357
   4 C :   -0.225044
   5 H :    0.023674
   6 C :   -0.023446
   7 H :    0.033773
   8 H :    0.025508
   9 C :   -0.042336
  10 H :    0.030034
  11 H :    0.015963
  12 C :   -0.068362
  13 H :    0.032487
  14 H :    0.027612
  15 H :    0.020593
  16 S :    0.394461
  17 C :   -0.187753
  18 C :   -0.056159
  19 C :   -0.052626
  20 C :   -0.187524
  21 H :    0.022725
  22 C :   -0.038003
  23 H :    0.028664
  24 H :    0.026456
  25 C :   -0.032863
  26 H :    0.025785
  27 H :    0.023323
  28 C :   -0.070083
  29 H :    0.031608
  30 H :    0.023307
  31 H :    0.022903
  32 H :    0.020846
  33 H :    0.024937

  Mayer bond orders larger than 0.100000
B(  0-S ,  1-C ) :   1.1606 B(  0-S ,  4-C ) :   1.1856 B(  1-C ,  2-C ) :   1.5615
B(  1-C , 32-H ) :   0.9790 B(  2-C ,  3-C ) :   1.3045 B(  2-C ,  6-C ) :   1.0043
B(  3-C ,  4-C ) :   1.5176 B(  3-C ,  5-H ) :   0.9975 B(  4-C , 20-C ) :   1.0355
B(  6-C ,  7-H ) :   0.9439 B(  6-C ,  8-H ) :   0.9365 B(  6-C ,  9-C ) :   1.0820
B(  9-C , 10-H ) :   0.9503 B(  9-C , 11-H ) :   0.9461 B(  9-C , 12-C ) :   1.0835
B( 12-C , 13-H ) :   0.9714 B( 12-C , 14-H ) :   0.9678 B( 12-C , 15-H ) :   0.9766
B( 16-S , 17-C ) :   1.1235 B( 16-S , 20-C ) :   1.1403 B( 17-C , 18-C ) :   1.6594
B( 17-C , 33-H ) :   0.9599 B( 18-C , 19-C ) :   1.2112 B( 18-C , 21-H ) :   0.9903
B( 19-C , 20-C ) :   1.6150 B( 19-C , 22-C ) :   1.0516 B( 22-C , 23-H ) :   0.9294
B( 22-C , 24-H ) :   0.9221 B( 22-C , 25-C ) :   1.0657 B( 25-C , 26-H ) :   0.9572
B( 25-C , 27-H ) :   0.9591 B( 25-C , 28-C ) :   1.0652 B( 28-C , 29-H ) :   0.9746
B( 28-C , 30-H ) :   0.9767 B( 28-C , 31-H ) :   0.9788

Dispersion correction           -0.014226747
FINAL SINGLE POINT ENERGY     -1339.866396961975

DIPOLE MOMENT
-------------
                                X             Y             Z
Electronic contribution:    -29.91647      -1.77711      -4.10126
Nuclear contribution   :     30.61558       1.78790       4.21652
                        -----------------------------------------
Total Dipole Moment    :      0.69911       0.01078       0.11526
                        -----------------------------------------
Magnitude (a.u.)       :      0.70863
Magnitude (Debye)      :      1.80120

Rotational constants in cm-1:     0.017888     0.009391     0.006831
Rotational constants in MHz :   536.268250   281.520156   204.776476

                             ****ORCA TERMINATED NORMALLY****
TOTAL RUN TIME: 0 days 0 hours 0 minutes 21 seconds 976 msec
