                         Program Version 4.2.1 -  RELEASE  -
|  1> ! wB97X-D3 SP def2-SVP
|  2> %pal
|  3> nprocs 24
|  4> end
|  5>
|  6> * xyz 0 1
|  7> S 	 -92.8169 	 -31.965 	 -64.2522
|  8> C 	 -94.4253 	 -32.5513 	 -63.9009
|  9> C 	 -95.3316 	 -32.1426 	 -64.8892
| 10> C 	 -94.6795 	 -31.2977 	 -65.8089
| 11> C 	 -93.3342 	 -31.0365 	 -65.5752
| 12> H 	 -95.2224 	 -30.748 	 -66.5475
| 13> C 	 -96.859 	 -32.3783 	 -64.8718
| 14> H 	 -97.3327 	 -31.4507 	 -64.7392
| 15> H 	 -97.1511 	 -32.9268 	 -63.9839
| 16> C 	 -97.4854 	 -33.1972 	 -66.0351
| 17> H 	 -97.1232 	 -34.2174 	 -66.0372
| 18> H 	 -98.5173 	 -33.3959 	 -65.8231
| 19> C 	 -97.4142 	 -32.666 	 -67.4358
| 20> H 	 -97.7336 	 -33.3353 	 -68.1699
| 21> H 	 -97.9004 	 -31.7307 	 -67.4038
| 22> H 	 -96.3322 	 -32.4818 	 -67.74
| 23> S 	 -91.003 	 -29.5072 	 -65.6159
| 24> C 	 -90.4209 	 -28.937 	 -67.1633
| 25> C 	 -91.3834 	 -29.0215 	 -68.1299
| 26> C 	 -92.4914 	 -29.8668 	 -67.7978
| 27> C 	 -92.4586 	 -30.2131 	 -66.4437
| 28> H 	 -91.2348 	 -28.5683 	 -69.0778
| 29> C 	 -93.5272 	 -30.1635 	 -68.8834
| 30> H 	 -94.1194 	 -31.105 	 -68.7782
| 31> H 	 -93.017 	 -30.3224 	 -69.856
| 32> C 	 -94.5245 	 -29.0333 	 -69.1002
| 33> H 	 -93.9362 	 -28.1462 	 -69.3182
| 34> H 	 -95.0611 	 -28.8017 	 -68.1703
| 35> C 	 -95.4968 	 -29.1887 	 -70.237
| 36> H 	 -96.143 	 -30.1026 	 -70.2832
| 37> H 	 -94.9664 	 -29.0741 	 -71.2167
| 38> H 	 -96.2294 	 -28.3881 	 -70.2312
| 39> H 	 -94.6387 	 -33.2016 	 -63.0568
| 40> H 	 -89.4989 	 -28.425 	 -67.2282
| 41> *
| 42>
| 43>                          ****END OF INPUT****

CARTESIAN COORDINATES (ANGSTROEM)
---------------------------------
  S    -92.816900  -31.965000  -64.252200
  C    -94.425300  -32.551300  -63.900900
  C    -95.331600  -32.142600  -64.889200
  C    -94.679500  -31.297700  -65.808900
  C    -93.334200  -31.036500  -65.575200
  H    -95.222400  -30.748000  -66.547500
  C    -96.859000  -32.378300  -64.871800
  H    -97.332700  -31.450700  -64.739200
  H    -97.151100  -32.926800  -63.983900
  C    -97.485400  -33.197200  -66.035100
  H    -97.123200  -34.217400  -66.037200
  H    -98.517300  -33.395900  -65.823100
  C    -97.414200  -32.666000  -67.435800
  H    -97.733600  -33.335300  -68.169900
  H    -97.900400  -31.730700  -67.403800
  H    -96.332200  -32.481800  -67.740000
  S    -91.003000  -29.507200  -65.615900
  C    -90.420900  -28.937000  -67.163300
  C    -91.383400  -29.021500  -68.129900
  C    -92.491400  -29.866800  -67.797800
  C    -92.458600  -30.213100  -66.443700
  H    -91.234800  -28.568300  -69.077800
  C    -93.527200  -30.163500  -68.883400
  H    -94.119400  -31.105000  -68.778200
  H    -93.017000  -30.322400  -69.856000
  C    -94.524500  -29.033300  -69.100200
  H    -93.936200  -28.146200  -69.318200
  H    -95.061100  -28.801700  -68.170300
  C    -95.496800  -29.188700  -70.237000
  H    -96.143000  -30.102600  -70.283200
  H    -94.966400  -29.074100  -71.216700
  H    -96.229400  -28.388100  -70.231200
  H    -94.638700  -33.201600  -63.056800
  H    -89.498900  -28.425000  -67.228200

 Total Charge           Charge          ....    0
 Multiplicity           Mult            ....    1
 Number of Electrons    NEL             ....  134
 Basis Dimension        Dim             ....  322

ORBITAL ENERGIES
----------------

  NO   OCC          E(Eh)            E(eV)
   0   2.0000     -88.967614     -2420.9318
   1   2.0000     -88.964106     -2420.8364
   2   2.0000     -10.337811      -281.3061
   3   2.0000     -10.327387      -281.0225
   4   2.0000     -10.315763      -280.7062
   5   2.0000     -10.315541      -280.7001
   6   2.0000     -10.310572      -280.5649
   7   2.0000     -10.303500      -280.3725
   8   2.0000     -10.299217      -280.2559
   9   2.0000     -10.294244      -280.1206
  10   2.0000     -10.292618      -280.0764
  11   2.0000     -10.287067      -279.9253
  12   2.0000     -10.286547      -279.9112
  13   2.0000     -10.284192      -279.8471
  14   2.0000     -10.282167      -279.7920
  15   2.0000     -10.271866      -279.5117
  16   2.0000      -8.083033      -219.9505
  17   2.0000      -8.078265      -219.8208
  18   2.0000      -6.041387      -164.3945
  19   2.0000      -6.037314      -164.2837
  20   2.0000      -6.036780      -164.2691
  21   2.0000      -6.034037      -164.1945
  22   2.0000      -6.033074      -164.1683
  23   2.0000      -6.028845      -164.0532
  24   2.0000      -1.007028       -27.4026
  25   2.0000      -0.983747       -26.7691
  26   2.0000      -0.913365       -24.8539
  27   2.0000      -0.910923       -24.7875
  28   2.0000      -0.868253       -23.6264
  29   2.0000      -0.854741       -23.2587
  30   2.0000      -0.846202       -23.0263
  31   2.0000      -0.813752       -22.1433
  32   2.0000      -0.789299       -21.4779
  33   2.0000      -0.777445       -21.1554
  34   2.0000      -0.703607       -19.1461
  35   2.0000      -0.701065       -19.0769
  36   2.0000      -0.691952       -18.8290
  37   2.0000      -0.665125       -18.0990
  38   2.0000      -0.640364       -17.4252
  39   2.0000      -0.622637       -16.9428
  40   2.0000      -0.604153       -16.4398
  41   2.0000      -0.572672       -15.5832
  42   2.0000      -0.567287       -15.4367
  43   2.0000      -0.552785       -15.0420
  44   2.0000      -0.541372       -14.7315
  45   2.0000      -0.520763       -14.1707
  46   2.0000      -0.518108       -14.0984
  47   2.0000      -0.516046       -14.0423
  48   2.0000      -0.507809       -13.8182
  49   2.0000      -0.497014       -13.5244
  50   2.0000      -0.496444       -13.5089
  51   2.0000      -0.482423       -13.1274
  52   2.0000      -0.471838       -12.8394
  53   2.0000      -0.465721       -12.6729
  54   2.0000      -0.459203       -12.4955
  55   2.0000      -0.453686       -12.3454
  56   2.0000      -0.441866       -12.0238
  57   2.0000      -0.436153       -11.8683
  58   2.0000      -0.432261       -11.7624
  59   2.0000      -0.429922       -11.6988
  60   2.0000      -0.421514       -11.4700
  61   2.0000      -0.415182       -11.2977
  62   2.0000      -0.409780       -11.1507
  63   2.0000      -0.354205        -9.6384
  64   2.0000      -0.333545        -9.0762
  65   2.0000      -0.331591        -9.0231
  66   2.0000      -0.285233        -7.7616
  67   0.0000       0.022003         0.5987
  68   0.0000       0.083319         2.2672
  69   0.0000       0.097975         2.6660
  70   0.0000       0.119513         3.2521
  71   0.0000       0.125868         3.4251

MULLIKEN ATOMIC CHARGES
-----------------------
   0 S :    0.120478
   1 C :   -0.143298
   2 C :   -0.058907
   3 C :   -0.014762
   4 C :   -0.092274
   5 H :   -0.008168
   6 C :    0.094586
   7 H :    0.026283
   8 H :    0.011350
   9 C :   -0.072162
  10 H :    0.016583
  11 H :    0.017130
  12 C :   -0.029486
  13 H :    0.026930
  14 H :    0.022428
  15 H :    0.031409
  16 S :    0.078933
  17 C :   -0.071660
  18 C :   -0.017452
  19 C :   -0.022777
  20 C :   -0.143573
  21 H :    0.009920
  22 C :    0.035581
  23 H :    0.033438
  24 H :    0.022043
  25 C :   -0.072010
  26 H :    0.018599
  27 H :    0.032644
  28 C :   -0.051190
  29 H :    0.037221
  30 H :    0.033499
  31 H :    0.028702
  32 H :    0.051713
  33 H :    0.048248
Sum of atomic charges:   -0.0000000

LOEWDIN ATOMIC CHARGES
----------------------
   0 S :    0.435884
   1 C :   -0.200288
   2 C :   -0.058914
   3 C :   -0.071215
   4 C :   -0.214335
   5 H :    0.022109
   6 C :   -0.020791
   7 H :    0.025862
   8 H :    0.033182
   9 C :   -0.041812
  10 H :    0.023168
  11 H :    0.022059
  12 C :   -0.062829
  13 H :    0.021108
  14 H :    0.018632
  15 H :    0.030038
  16 S :    0.367444
  17 C :   -0.168991
  18 C :   -0.063596
  19 C :   -0.051170
  20 C :   -0.163706
  21 H :    0.026151
  22 C :   -0.036307
  23 H :    0.031830
  24 H :    0.032699
  25 C :   -0.046798
  26 H :    0.025061
  27 H :    0.023670
  28 C :   -0.072171
  29 H :    0.027979
  30 H :    0.029280
  31 H :    0.027421
  32 H :    0.028223
  33 H :    0.021123

  Mayer bond orders larger than 0.100000
B(  0-S ,  1-C ) :   1.1591 B(  0-S ,  4-C ) :   1.1737 B(  1-C ,  2-C ) :   1.5636
B(  1-C ,  4-C ) :   0.1023 B(  1-C , 32-H ) :   0.9699 B(  2-C ,  3-C ) :   1.2919
B(  2-C ,  6-C ) :   1.0137 B(  3-C ,  4-C ) :   1.5263 B(  3-C ,  5-H ) :   0.9968
B(  4-C , 20-C ) :   1.0513 B(  6-C ,  7-H ) :   0.9446 B(  6-C ,  8-H ) :   0.9356
B(  6-C ,  9-C ) :   1.0748 B(  9-C , 10-H ) :   0.9503 B(  9-C , 11-H ) :   0.9516
B(  9-C , 12-C ) :   1.0950 B( 12-C , 13-H ) :   0.9676 B( 12-C , 14-H ) :   0.9736
B( 12-C , 15-H ) :   0.9670 B( 16-S , 17-C ) :   1.1418 B( 16-S , 20-C ) :   1.1243
B( 17-C , 18-C ) :   1.6276 B( 17-C , 33-H ) :   0.9733 B( 18-C , 19-C ) :   1.2155
B( 18-C , 21-H ) :   0.9895 B( 19-C , 20-C ) :   1.6196 B( 19-C , 22-C ) :   1.0413
B( 22-C , 23-H ) :   0.9386 B( 22-C , 24-H ) :   0.9303 B( 22-C , 25-C ) :   1.0658
B( 25-C , 26-H ) :   0.9472 B( 25-C , 27-H ) :   0.9518 B( 25-C , 28-C ) :   1.0891
B( 28-C , 29-H ) :   0.9734 B( 28-C , 30-H ) :   0.9722 B( 28-C , 31-H ) :   0.9706

Dispersion correction           -0.014694142
FINAL SINGLE POINT ENERGY     -1339.883767587862

DIPOLE MOMENT
-------------
                                X             Y             Z
Electronic contribution:     26.47566       1.70948      20.10097
Nuclear contribution   :    -27.06198      -1.64037     -20.56712
                        -----------------------------------------
Total Dipole Moment    :     -0.58632       0.06911      -0.46615
                        -----------------------------------------
Magnitude (a.u.)       :      0.75223
Magnitude (Debye)      :      1.91201

Rotational constants in cm-1:     0.016069     0.010731     0.006664
Rotational constants in MHz :   481.723834   321.719295   199.790269

                             ****ORCA TERMINATED NORMALLY****
TOTAL RUN TIME: 0 days 0 hours 0 minutes 22 seconds 37 msec
