                         Program Version 4.2.1 -  RELEASE  -
|  1> ! wB97X-D3 SP def2-SVP
|  2> %pal
|  3> nprocs 24
|  4> end
|  5>
|  6> * xyz 0 1
|  7> S 	 -143.422 	 13.6305 	 -4.89758
|  8> C 	 -143.335 	 14.2297 	 -6.4541
|  9> C 	 -143.615 	 13.2308 	 -7.40392
| 10> C 	 -143.908 	 11.9761 	 -6.84006
| 11> C 	 -143.962 	 12.0259 	 -5.46458
| 12> H 	 -144.108 	 11.0924 	 -7.41285
| 13> C 	 -143.517 	 13.3645 	 -8.92841
| 14> H 	 -143.336 	 14.3873 	 -9.27333
| 15> H 	 -144.511 	 13.0991 	 -9.2707
| 16> C 	 -142.358 	 12.5113 	 -9.52091
| 17> H 	 -141.408 	 12.7799 	 -9.03459
| 18> H 	 -142.546 	 11.4753 	 -9.40089
| 19> C 	 -142.06 	 12.7151 	 -11.0148
| 20> H 	 -141.442 	 13.5929 	 -11.1555
| 21> H 	 -141.403 	 11.9416 	 -11.3284
| 22> H 	 -142.897 	 12.8271 	 -11.6108
| 23> S 	 -143.271 	 10.4253 	 -3.31934
| 24> C 	 -144.517 	 9.22206 	 -2.74841
| 25> C 	 -145.637 	 9.26443 	 -3.48838
| 26> C 	 -145.593 	 10.201 	 -4.57072
| 27> C 	 -144.442 	 11.0012 	 -4.56522
| 28> H 	 -146.495 	 8.67121 	 -3.23948
| 29> C 	 -146.811 	 10.3441 	 -5.49322
| 30> H 	 -147.239 	 11.275 	 -5.5756
| 31> H 	 -147.573 	 9.85974 	 -4.90151
| 32> C 	 -146.789 	 9.45391 	 -6.68903
| 33> H 	 -146.397 	 8.49156 	 -6.39888
| 34> H 	 -145.985 	 9.74022 	 -7.49521
| 35> C 	 -148.055 	 9.43999 	 -7.46442
| 36> H 	 -148.355 	 10.4155 	 -7.84801
| 37> H 	 -148.926 	 9.05744 	 -6.91988
| 38> H 	 -147.882 	 8.78958 	 -8.3215
| 39> H 	 -143.125 	 15.2284 	 -6.74849
| 40> H 	 -144.412 	 8.5565 	 -1.92804
| 41> *
| 42>
| 43>                          ****END OF INPUT****

CARTESIAN COORDINATES (ANGSTROEM)
---------------------------------
  S    -143.422000   13.630500   -4.897580
  C    -143.335000   14.229700   -6.454100
  C    -143.615000   13.230800   -7.403920
  C    -143.908000   11.976100   -6.840060
  C    -143.962000   12.025900   -5.464580
  H    -144.108000   11.092400   -7.412850
  C    -143.517000   13.364500   -8.928410
  H    -143.336000   14.387300   -9.273330
  H    -144.511000   13.099100   -9.270700
  C    -142.358000   12.511300   -9.520910
  H    -141.408000   12.779900   -9.034590
  H    -142.546000   11.475300   -9.400890
  C    -142.060000   12.715100  -11.014800
  H    -141.442000   13.592900  -11.155500
  H    -141.403000   11.941600  -11.328400
  H    -142.897000   12.827100  -11.610800
  S    -143.271000   10.425300   -3.319340
  C    -144.517000    9.222060   -2.748410
  C    -145.637000    9.264430   -3.488380
  C    -145.593000   10.201000   -4.570720
  C    -144.442000   11.001200   -4.565220
  H    -146.495000    8.671210   -3.239480
  C    -146.811000   10.344100   -5.493220
  H    -147.239000   11.275000   -5.575600
  H    -147.573000    9.859740   -4.901510
  C    -146.789000    9.453910   -6.689030
  H    -146.397000    8.491560   -6.398880
  H    -145.985000    9.740220   -7.495210
  C    -148.055000    9.439990   -7.464420
  H    -148.355000   10.415500   -7.848010
  H    -148.926000    9.057440   -6.919880
  H    -147.882000    8.789580   -8.321500
  H    -143.125000   15.228400   -6.748490
  H    -144.412000    8.556500   -1.928040

 Total Charge           Charge          ....    0
 Multiplicity           Mult            ....    1
 Number of Electrons    NEL             ....  134
 Basis Dimension        Dim             ....  322

ORBITAL ENERGIES
----------------

  NO   OCC          E(Eh)            E(eV)
   0   2.0000     -88.966627     -2420.9050
   1   2.0000     -88.962488     -2420.7924
   2   2.0000     -10.330776      -281.1147
   3   2.0000     -10.327533      -281.0264
   4   2.0000     -10.316733      -280.7326
   5   2.0000     -10.308387      -280.5055
   6   2.0000     -10.306809      -280.4625
   7   2.0000     -10.296824      -280.1908
   8   2.0000     -10.292658      -280.0775
   9   2.0000     -10.291118      -280.0356
  10   2.0000     -10.290303      -280.0134
  11   2.0000     -10.289107      -279.9808
  12   2.0000     -10.283982      -279.8414
  13   2.0000     -10.282453      -279.7998
  14   2.0000     -10.277381      -279.6618
  15   2.0000     -10.267158      -279.3836
  16   2.0000      -8.082138      -219.9261
  17   2.0000      -8.075642      -219.7494
  18   2.0000      -6.040496      -164.3702
  19   2.0000      -6.036460      -164.2604
  20   2.0000      -6.034397      -164.2043
  21   2.0000      -6.033078      -164.1684
  22   2.0000      -6.030504      -164.0984
  23   2.0000      -6.026100      -163.9785
  24   2.0000      -1.005037       -27.3485
  25   2.0000      -0.979660       -26.6579
  26   2.0000      -0.917971       -24.9793
  27   2.0000      -0.906852       -24.6767
  28   2.0000      -0.873334       -23.7646
  29   2.0000      -0.855650       -23.2834
  30   2.0000      -0.847678       -23.0665
  31   2.0000      -0.817562       -22.2470
  32   2.0000      -0.783490       -21.3199
  33   2.0000      -0.770006       -20.9529
  34   2.0000      -0.709120       -19.2961
  35   2.0000      -0.699446       -19.0329
  36   2.0000      -0.694620       -18.9016
  37   2.0000      -0.663230       -18.0474
  38   2.0000      -0.644199       -17.5295
  39   2.0000      -0.624261       -16.9870
  40   2.0000      -0.601301       -16.3622
  41   2.0000      -0.567219       -15.4348
  42   2.0000      -0.565246       -15.3811
  43   2.0000      -0.558733       -15.2039
  44   2.0000      -0.534928       -14.5561
  45   2.0000      -0.532102       -14.4792
  46   2.0000      -0.518900       -14.1200
  47   2.0000      -0.509321       -13.8593
  48   2.0000      -0.506015       -13.7694
  49   2.0000      -0.505399       -13.7526
  50   2.0000      -0.500138       -13.6094
  51   2.0000      -0.472818       -12.8660
  52   2.0000      -0.471610       -12.8332
  53   2.0000      -0.465304       -12.6616
  54   2.0000      -0.457842       -12.4585
  55   2.0000      -0.453181       -12.3317
  56   2.0000      -0.450524       -12.2594
  57   2.0000      -0.440067       -11.9748
  58   2.0000      -0.434431       -11.8215
  59   2.0000      -0.424778       -11.5588
  60   2.0000      -0.420524       -11.4430
  61   2.0000      -0.412597       -11.2273
  62   2.0000      -0.397581       -10.8187
  63   2.0000      -0.350256        -9.5310
  64   2.0000      -0.332503        -9.0479
  65   2.0000      -0.326992        -8.8979
  66   2.0000      -0.289167        -7.8686
  67   0.0000       0.029790         0.8106
  68   0.0000       0.066262         1.8031
  69   0.0000       0.105672         2.8755
  70   0.0000       0.125133         3.4051
  71   0.0000       0.131282         3.5724

MULLIKEN ATOMIC CHARGES
-----------------------
   0 S :    0.130410
   1 C :   -0.089346
   2 C :   -0.117770
   3 C :    0.045083
   4 C :   -0.154087
   5 H :    0.007881
   6 C :    0.083137
   7 H :    0.010718
   8 H :    0.028067
   9 C :   -0.095888
  10 H :    0.036313
  11 H :    0.024963
  12 C :   -0.005929
  13 H :    0.017522
  14 H :    0.024818
  15 H :    0.017553
  16 S :    0.074823
  17 C :   -0.062434
  18 C :   -0.020169
  19 C :   -0.048539
  20 C :   -0.149225
  21 H :    0.017678
  22 C :    0.133213
  23 H :    0.011840
  24 H :   -0.009910
  25 C :   -0.090234
  26 H :    0.018553
  27 H :    0.022864
  28 C :   -0.025739
  29 H :    0.030386
  30 H :    0.027031
  31 H :    0.032394
  32 H :    0.033098
  33 H :    0.040925
Sum of atomic charges:    0.0000000

LOEWDIN ATOMIC CHARGES
----------------------
   0 S :    0.432564
   1 C :   -0.219589
   2 C :   -0.066256
   3 C :   -0.050103
   4 C :   -0.192126
   5 H :    0.029515
   6 C :   -0.030022
   7 H :    0.025735
   8 H :    0.028707
   9 C :   -0.035037
  10 H :    0.031378
  11 H :    0.015093
  12 C :   -0.057297
  13 H :    0.023873
  14 H :    0.026337
  15 H :    0.012936
  16 S :    0.346086
  17 C :   -0.151078
  18 C :   -0.070362
  19 C :   -0.047906
  20 C :   -0.175798
  21 H :    0.032454
  22 C :   -0.027977
  23 H :    0.021473
  24 H :    0.032562
  25 C :   -0.046217
  26 H :    0.022589
  27 H :    0.025523
  28 C :   -0.064316
  29 H :    0.026713
  30 H :    0.021944
  31 H :    0.030136
  32 H :    0.024320
  33 H :    0.024147

  Mayer bond orders larger than 0.100000
B(  0-S ,  1-C ) :   1.1639 B(  0-S ,  4-C ) :   1.1575 B(  1-C ,  2-C ) :   1.5747
B(  1-C ,  4-C ) :   0.1016 B(  1-C , 32-H ) :   0.9714 B(  2-C ,  3-C ) :   1.2691
B(  2-C ,  6-C ) :   1.0261 B(  3-C ,  4-C ) :   1.5412 B(  3-C ,  5-H ) :   1.0001
B(  4-C , 20-C ) :   1.0461 B(  6-C ,  7-H ) :   0.9476 B(  6-C ,  8-H ) :   0.9347
B(  6-C ,  9-C ) :   1.0591 B(  9-C , 10-H ) :   0.9586 B(  9-C , 11-H ) :   0.9604
B(  9-C , 12-C ) :   1.0908 B( 12-C , 13-H ) :   0.9745 B( 12-C , 14-H ) :   0.9726
B( 12-C , 15-H ) :   0.9754 B( 16-S , 17-C ) :   1.1157 B( 16-S , 20-C ) :   1.1162
B( 17-C , 18-C ) :   1.6672 B( 17-C , 33-H ) :   0.9661 B( 18-C , 19-C ) :   1.2151
B( 18-C , 21-H ) :   0.9830 B( 19-C , 20-C ) :   1.6339 B( 19-C , 22-C ) :   1.0267
B( 22-C , 23-H ) :   0.9417 B( 22-C , 24-H ) :   0.9225 B( 22-C , 25-C ) :   1.0580
B( 25-C , 26-H ) :   0.9483 B( 25-C , 27-H ) :   0.9430 B( 25-C , 28-C ) :   1.0913
B( 28-C , 29-H ) :   0.9701 B( 28-C , 30-H ) :   0.9720 B( 28-C , 31-H ) :   0.9707

Dispersion correction           -0.013921639
FINAL SINGLE POINT ENERGY     -1339.865786047435

DIPOLE MOMENT
-------------
                                X             Y             Z
Electronic contribution:      9.44113       5.43633      28.32619
Nuclear contribution   :     -9.87456      -5.65314     -28.89006
                        -----------------------------------------
Total Dipole Moment    :     -0.43343      -0.21681      -0.56387
                        -----------------------------------------
Magnitude (a.u.)       :      0.74352
Magnitude (Debye)      :      1.88987

Rotational constants in cm-1:     0.016708     0.008835     0.006710
Rotational constants in MHz :   500.886334   264.872990   201.146631

                             ****ORCA TERMINATED NORMALLY****
TOTAL RUN TIME: 0 days 0 hours 0 minutes 21 seconds 407 msec
