                         Program Version 4.2.1 -  RELEASE  -
|  1> ! wB97X-D3 SP def2-SVP
|  2> %pal
|  3> nprocs 24
|  4> end
|  5>
|  6> * xyz 0 1
|  7> S 	 3.29054 	 -20.1116 	 -115.906
|  8> C 	 3.28891 	 -18.3694 	 -115.887
|  9> C 	 2.09907 	 -17.8709 	 -115.365
| 10> C 	 1.29133 	 -18.9083 	 -114.909
| 11> C 	 1.78534 	 -20.1767 	 -115.03
| 12> H 	 0.261635 	 -18.7872 	 -114.468
| 13> C 	 1.69848 	 -16.4042 	 -115.35
| 14> H 	 2.23792 	 -16.1241 	 -116.282
| 15> H 	 2.16258 	 -15.9184 	 -114.541
| 16> C 	 0.230231 	 -16.0766 	 -115.678
| 17> H 	 -0.579454 	 -16.5977 	 -115.095
| 18> H 	 0.189105 	 -15.007 	 -115.387
| 19> C 	 -0.137891 	 -16.3874 	 -117.196
| 20> H 	 -0.0559474 	 -17.5249 	 -117.302
| 21> H 	 -1.18897 	 -16.1665 	 -117.395
| 22> H 	 0.534409 	 -15.8874 	 -117.934
| 23> S 	 2.09279 	 -21.9316 	 -112.957
| 24> C 	 0.924793 	 -23.148 	 -112.526
| 25> C 	 -0.0291215 	 -23.1474 	 -113.497
| 26> C 	 0.12069 	 -22.1103 	 -114.51
| 27> C 	 1.34456 	 -21.4202 	 -114.423
| 28> H 	 -0.775536 	 -23.8393 	 -113.484
| 29> C 	 -1.04125 	 -21.8781 	 -115.507
| 30> H 	 -0.922915 	 -20.9375 	 -115.971
| 31> H 	 -1.95494 	 -21.7737 	 -114.927
| 32> C 	 -1.24613 	 -22.8812 	 -116.512
| 33> H 	 -2.16611 	 -22.6991 	 -117.073
| 34> H 	 -1.45305 	 -23.837 	 -115.931
| 35> C 	 -0.103464 	 -22.9167 	 -117.574
| 36> H 	 0.824632 	 -23.4077 	 -117.196
| 37> H 	 0.16217 	 -21.9219 	 -117.915
| 38> H 	 -0.392733 	 -23.5461 	 -118.373
| 39> H 	 3.95879 	 -17.7112 	 -116.459
| 40> H 	 0.842197 	 -23.853 	 -111.709
| 41> *
| 42>
| 43>                          ****END OF INPUT****

CARTESIAN COORDINATES (ANGSTROEM)
---------------------------------
  S      3.290540  -20.111600  -115.906000
  C      3.288910  -18.369400  -115.887000
  C      2.099070  -17.870900  -115.365000
  C      1.291330  -18.908300  -114.909000
  C      1.785340  -20.176700  -115.030000
  H      0.261635  -18.787200  -114.468000
  C      1.698480  -16.404200  -115.350000
  H      2.237920  -16.124100  -116.282000
  H      2.162580  -15.918400  -114.541000
  C      0.230231  -16.076600  -115.678000
  H     -0.579454  -16.597700  -115.095000
  H      0.189105  -15.007000  -115.387000
  C     -0.137891  -16.387400  -117.196000
  H     -0.055947  -17.524900  -117.302000
  H     -1.188970  -16.166500  -117.395000
  H      0.534409  -15.887400  -117.934000
  S      2.092790  -21.931600  -112.957000
  C      0.924793  -23.148000  -112.526000
  C     -0.029121  -23.147400  -113.497000
  C      0.120690  -22.110300  -114.510000
  C      1.344560  -21.420200  -114.423000
  H     -0.775536  -23.839300  -113.484000
  C     -1.041250  -21.878100  -115.507000
  H     -0.922915  -20.937500  -115.971000
  H     -1.954940  -21.773700  -114.927000
  C     -1.246130  -22.881200  -116.512000
  H     -2.166110  -22.699100  -117.073000
  H     -1.453050  -23.837000  -115.931000
  C     -0.103464  -22.916700  -117.574000
  H      0.824632  -23.407700  -117.196000
  H      0.162170  -21.921900  -117.915000
  H     -0.392733  -23.546100  -118.373000
  H      3.958790  -17.711200  -116.459000
  H      0.842197  -23.853000  -111.709000

 Total Charge           Charge          ....    0
 Multiplicity           Mult            ....    1
 Number of Electrons    NEL             ....  134
 Basis Dimension        Dim             ....  322

ORBITAL ENERGIES
----------------

  NO   OCC          E(Eh)            E(eV)
   0   2.0000     -88.966033     -2420.8888
   1   2.0000     -88.961161     -2420.7563
   2   2.0000     -10.326704      -281.0039
   3   2.0000     -10.326487      -280.9980
   4   2.0000     -10.316550      -280.7276
   5   2.0000     -10.314487      -280.6715
   6   2.0000     -10.306844      -280.4635
   7   2.0000     -10.301617      -280.3212
   8   2.0000     -10.297296      -280.2037
   9   2.0000     -10.293916      -280.1117
  10   2.0000     -10.292705      -280.0787
  11   2.0000     -10.292343      -280.0689
  12   2.0000     -10.284978      -279.8685
  13   2.0000     -10.283655      -279.8325
  14   2.0000     -10.279908      -279.7305
  15   2.0000     -10.272023      -279.5160
  16   2.0000      -8.080941      -219.8936
  17   2.0000      -8.076485      -219.7723
  18   2.0000      -6.039337      -164.3387
  19   2.0000      -6.035351      -164.2302
  20   2.0000      -6.035134      -164.2243
  21   2.0000      -6.031877      -164.1357
  22   2.0000      -6.030677      -164.1031
  23   2.0000      -6.027214      -164.0088
  24   2.0000      -1.010754       -27.5040
  25   2.0000      -0.988742       -26.9050
  26   2.0000      -0.917798       -24.9745
  27   2.0000      -0.911514       -24.8036
  28   2.0000      -0.872116       -23.7315
  29   2.0000      -0.843453       -22.9515
  30   2.0000      -0.837009       -22.7762
  31   2.0000      -0.818244       -22.2655
  32   2.0000      -0.784991       -21.3607
  33   2.0000      -0.775305       -21.0971
  34   2.0000      -0.713719       -19.4213
  35   2.0000      -0.693331       -18.8665
  36   2.0000      -0.690388       -18.7864
  37   2.0000      -0.656585       -17.8666
  38   2.0000      -0.640579       -17.4310
  39   2.0000      -0.621680       -16.9168
  40   2.0000      -0.598194       -16.2777
  41   2.0000      -0.575625       -15.6635
  42   2.0000      -0.564036       -15.3482
  43   2.0000      -0.557571       -15.1723
  44   2.0000      -0.543589       -14.7918
  45   2.0000      -0.530037       -14.4230
  46   2.0000      -0.514360       -13.9965
  47   2.0000      -0.512740       -13.9524
  48   2.0000      -0.507605       -13.8126
  49   2.0000      -0.499391       -13.5891
  50   2.0000      -0.480501       -13.0751
  51   2.0000      -0.476549       -12.9675
  52   2.0000      -0.471471       -12.8294
  53   2.0000      -0.460926       -12.5424
  54   2.0000      -0.459220       -12.4960
  55   2.0000      -0.447189       -12.1686
  56   2.0000      -0.445355       -12.1187
  57   2.0000      -0.438387       -11.9291
  58   2.0000      -0.429772       -11.6947
  59   2.0000      -0.423986       -11.5372
  60   2.0000      -0.418552       -11.3894
  61   2.0000      -0.412780       -11.2323
  62   2.0000      -0.400942       -10.9102
  63   2.0000      -0.344594        -9.3769
  64   2.0000      -0.330711        -8.9991
  65   2.0000      -0.320211        -8.7134
  66   2.0000      -0.304213        -8.2781
  67   0.0000       0.038555         1.0491
  68   0.0000       0.060027         1.6334
  69   0.0000       0.116965         3.1828
  70   0.0000       0.119681         3.2567
  71   0.0000       0.135303         3.6818

MULLIKEN ATOMIC CHARGES
-----------------------
   0 S :    0.120835
   1 C :   -0.122410
   2 C :   -0.133040
   3 C :    0.040816
   4 C :   -0.200728
   5 H :    0.024915
   6 C :    0.092850
   7 H :    0.020507
   8 H :    0.045564
   9 C :   -0.101013
  10 H :    0.044146
  11 H :    0.040147
  12 C :   -0.095674
  13 H :    0.053169
  14 H :    0.042342
  15 H :    0.048497
  16 S :    0.106592
  17 C :   -0.069627
  18 C :   -0.012534
  19 C :   -0.074706
  20 C :   -0.114566
  21 H :   -0.020543
  22 C :    0.110334
  23 H :   -0.004517
  24 H :    0.021840
  25 C :   -0.080905
  26 H :    0.025771
  27 H :    0.026209
  28 C :   -0.037677
  29 H :    0.039951
  30 H :    0.031356
  31 H :    0.023673
  32 H :    0.052786
  33 H :    0.055640
Sum of atomic charges:   -0.0000000

LOEWDIN ATOMIC CHARGES
----------------------
   0 S :    0.421150
   1 C :   -0.206155
   2 C :   -0.072554
   3 C :   -0.066573
   4 C :   -0.205954
   5 H :    0.039150
   6 C :   -0.030769
   7 H :    0.039956
   8 H :    0.028487
   9 C :   -0.046440
  10 H :    0.027333
  11 H :    0.029635
  12 C :   -0.072511
  13 H :    0.036353
  14 H :    0.025986
  15 H :    0.027528
  16 S :    0.426852
  17 C :   -0.186573
  18 C :   -0.066156
  19 C :   -0.044378
  20 C :   -0.221625
  21 H :    0.010504
  22 C :   -0.035530
  23 H :    0.018630
  24 H :    0.032731
  25 C :   -0.046125
  26 H :    0.025109
  27 H :    0.027197
  28 C :   -0.061392
  29 H :    0.031591
  30 H :    0.025475
  31 H :    0.019520
  32 H :    0.030898
  33 H :    0.038650

  Mayer bond orders larger than 0.100000
B(  0-S ,  1-C ) :   1.1592 B(  0-S ,  4-C ) :   1.1642 B(  1-C ,  2-C ) :   1.5918
B(  1-C ,  4-C ) :   0.1089 B(  1-C , 32-H ) :   0.9607 B(  2-C ,  3-C ) :   1.2804
B(  2-C ,  6-C ) :   0.9761 B(  3-C ,  4-C ) :   1.5706 B(  3-C ,  5-H ) :   0.9850
B(  4-C , 20-C ) :   0.9983 B(  6-C ,  7-H ) :   0.9425 B(  6-C ,  8-H ) :   0.9449
B(  6-C ,  9-C ) :   1.0634 B(  9-C , 10-H ) :   0.9555 B(  9-C , 11-H ) :   0.9561
B(  9-C , 12-C ) :   1.0622 B( 12-C , 13-H ) :   0.9743 B( 12-C , 14-H ) :   0.9768
B( 12-C , 15-H ) :   0.9748 B( 16-S , 17-C ) :   1.1574 B( 16-S , 20-C ) :   1.1482
B( 17-C , 18-C ) :   1.6087 B( 17-C , 33-H ) :   0.9677 B( 18-C , 19-C ) :   1.2457
B( 18-C , 21-H ) :   1.0016 B( 19-C , 20-C ) :   1.5788 B( 19-C , 22-C ) :   1.0325
B( 22-C , 23-H ) :   0.9271 B( 22-C , 24-H ) :   0.9301 B( 22-C , 25-C ) :   1.1043
B( 25-C , 26-H ) :   0.9479 B( 25-C , 27-H ) :   0.9504 B( 25-C , 28-C ) :   1.0660
B( 28-C , 29-H ) :   0.9746 B( 28-C , 30-H ) :   0.9743 B( 28-C , 31-H ) :   0.9756

Dispersion correction           -0.014973691
FINAL SINGLE POINT ENERGY     -1339.860202157994

DIPOLE MOMENT
-------------
                                X             Y             Z
Electronic contribution:     17.86732      -9.39285      14.32884
Nuclear contribution   :    -18.54308       9.71231     -14.46506
                        -----------------------------------------
Total Dipole Moment    :     -0.67576       0.31947      -0.13622
                        -----------------------------------------
Magnitude (a.u.)       :      0.75978
Magnitude (Debye)      :      1.93122

Rotational constants in cm-1:     0.018765     0.008989     0.007672
Rotational constants in MHz :   562.557835   269.478868   229.995050

                             ****ORCA TERMINATED NORMALLY****
TOTAL RUN TIME: 0 days 0 hours 0 minutes 22 seconds 185 msec
