                         Program Version 4.2.1 -  RELEASE  -
|  1> ! wB97X-D3 SP def2-SVP
|  2> %pal
|  3> nprocs 24
|  4> end
|  5>
|  6> * xyz 0 1
|  7> S 	 -64.1181 	 10.2304 	 -17.9598
|  8> C 	 -65.3228 	 8.89347 	 -17.9076
|  9> C 	 -64.6668 	 7.64666 	 -17.7459
| 10> C 	 -63.2282 	 7.8169 	 -17.5341
| 11> C 	 -62.8118 	 9.1051 	 -17.5957
| 12> H 	 -62.5351 	 7.03215 	 -17.3402
| 13> C 	 -65.3211 	 6.22143 	 -17.8713
| 14> H 	 -65.6278 	 5.79494 	 -16.8706
| 15> H 	 -64.5387 	 5.53846 	 -18.2296
| 16> C 	 -66.5296 	 6.24579 	 -18.7986
| 17> H 	 -67.3812 	 6.86334 	 -18.353
| 18> H 	 -66.2762 	 6.74242 	 -19.8239
| 19> C 	 -67.0094 	 4.8439 	 -19.0879
| 20> H 	 -66.1441 	 4.23752 	 -19.5537
| 21> H 	 -67.3543 	 4.28164 	 -18.2225
| 22> H 	 -67.8687 	 4.77311 	 -19.738
| 23> S 	 -60.8681 	 10.7113 	 -18.7712
| 24> C 	 -59.4553 	 11.0185 	 -17.8078
| 25> C 	 -59.2471 	 10.0912 	 -16.7848
| 26> C 	 -60.3645 	 9.23894 	 -16.668
| 27> C 	 -61.4413 	 9.5755 	 -17.4559
| 28> H 	 -58.3081 	 10.0041 	 -16.2641
| 29> C 	 -60.2937 	 8.03863 	 -15.7402
| 30> H 	 -61.2877 	 7.63462 	 -15.5608
| 31> H 	 -60.0247 	 8.48563 	 -14.7451
| 32> C 	 -59.2943 	 6.96676 	 -16.1616
| 33> H 	 -59.1039 	 6.20484 	 -15.3376
| 34> H 	 -58.3586 	 7.52432 	 -16.2842
| 35> C 	 -59.6934 	 6.09516 	 -17.3878
| 36> H 	 -59.1341 	 5.25262 	 -17.553
| 37> H 	 -59.7416 	 6.61821 	 -18.334
| 38> H 	 -60.7119 	 5.81197 	 -17.2121
| 39> H 	 -66.3577 	 8.94419 	 -18.1583
| 40> H 	 -58.6424 	 11.7244 	 -18.1528
| 41> *
| 42>
| 43>                          ****END OF INPUT****

CARTESIAN COORDINATES (ANGSTROEM)
---------------------------------
  S    -64.118100   10.230400  -17.959800
  C    -65.322800    8.893470  -17.907600
  C    -64.666800    7.646660  -17.745900
  C    -63.228200    7.816900  -17.534100
  C    -62.811800    9.105100  -17.595700
  H    -62.535100    7.032150  -17.340200
  C    -65.321100    6.221430  -17.871300
  H    -65.627800    5.794940  -16.870600
  H    -64.538700    5.538460  -18.229600
  C    -66.529600    6.245790  -18.798600
  H    -67.381200    6.863340  -18.353000
  H    -66.276200    6.742420  -19.823900
  C    -67.009400    4.843900  -19.087900
  H    -66.144100    4.237520  -19.553700
  H    -67.354300    4.281640  -18.222500
  H    -67.868700    4.773110  -19.738000
  S    -60.868100   10.711300  -18.771200
  C    -59.455300   11.018500  -17.807800
  C    -59.247100   10.091200  -16.784800
  C    -60.364500    9.238940  -16.668000
  C    -61.441300    9.575500  -17.455900
  H    -58.308100   10.004100  -16.264100
  C    -60.293700    8.038630  -15.740200
  H    -61.287700    7.634620  -15.560800
  H    -60.024700    8.485630  -14.745100
  C    -59.294300    6.966760  -16.161600
  H    -59.103900    6.204840  -15.337600
  H    -58.358600    7.524320  -16.284200
  C    -59.693400    6.095160  -17.387800
  H    -59.134100    5.252620  -17.553000
  H    -59.741600    6.618210  -18.334000
  H    -60.711900    5.811970  -17.212100
  H    -66.357700    8.944190  -18.158300
  H    -58.642400   11.724400  -18.152800

 Total Charge           Charge          ....    0
 Multiplicity           Mult            ....    1
 Number of Electrons    NEL             ....  134
 Basis Dimension        Dim             ....  322

ORBITAL ENERGIES
----------------

  NO   OCC          E(Eh)            E(eV)
   0   2.0000     -88.967771     -2420.9361
   1   2.0000     -88.965228     -2420.8669
   2   2.0000     -10.329172      -281.0710
   3   2.0000     -10.328903      -281.0637
   4   2.0000     -10.323095      -280.9057
   5   2.0000     -10.318893      -280.7914
   6   2.0000     -10.311765      -280.5974
   7   2.0000     -10.304795      -280.4077
   8   2.0000     -10.303304      -280.3672
   9   2.0000     -10.300872      -280.3010
  10   2.0000     -10.297182      -280.2006
  11   2.0000     -10.294643      -280.1315
  12   2.0000     -10.294345      -280.1234
  13   2.0000     -10.292072      -280.0615
  14   2.0000     -10.283193      -279.8199
  15   2.0000     -10.272226      -279.5215
  16   2.0000      -8.081251      -219.9020
  17   2.0000      -8.079293      -219.8487
  18   2.0000      -6.040072      -164.3587
  19   2.0000      -6.037745      -164.2954
  20   2.0000      -6.035956      -164.2467
  21   2.0000      -6.034259      -164.2005
  22   2.0000      -6.031712      -164.1312
  23   2.0000      -6.029790      -164.0789
  24   2.0000      -1.001437       -27.2505
  25   2.0000      -0.976488       -26.5716
  26   2.0000      -0.910677       -24.7808
  27   2.0000      -0.908646       -24.7255
  28   2.0000      -0.864471       -23.5235
  29   2.0000      -0.851543       -23.1716
  30   2.0000      -0.842852       -22.9352
  31   2.0000      -0.810520       -22.0554
  32   2.0000      -0.787014       -21.4157
  33   2.0000      -0.771030       -20.9808
  34   2.0000      -0.709111       -19.2959
  35   2.0000      -0.701213       -19.0810
  36   2.0000      -0.684920       -18.6376
  37   2.0000      -0.660984       -17.9863
  38   2.0000      -0.639296       -17.3961
  39   2.0000      -0.615226       -16.7412
  40   2.0000      -0.592980       -16.1358
  41   2.0000      -0.568606       -15.4726
  42   2.0000      -0.563291       -15.3279
  43   2.0000      -0.555613       -15.1190
  44   2.0000      -0.542771       -14.7696
  45   2.0000      -0.524336       -14.2679
  46   2.0000      -0.517962       -14.0945
  47   2.0000      -0.507568       -13.8116
  48   2.0000      -0.501882       -13.6569
  49   2.0000      -0.496129       -13.5004
  50   2.0000      -0.487146       -13.2559
  51   2.0000      -0.476559       -12.9678
  52   2.0000      -0.469822       -12.7845
  53   2.0000      -0.461754       -12.5650
  54   2.0000      -0.458670       -12.4810
  55   2.0000      -0.453026       -12.3275
  56   2.0000      -0.448702       -12.2098
  57   2.0000      -0.440634       -11.9903
  58   2.0000      -0.432494       -11.7688
  59   2.0000      -0.423503       -11.5241
  60   2.0000      -0.418928       -11.3996
  61   2.0000      -0.417645       -11.3647
  62   2.0000      -0.413366       -11.2483
  63   2.0000      -0.346418        -9.4265
  64   2.0000      -0.332172        -9.0389
  65   2.0000      -0.327237        -8.9046
  66   2.0000      -0.288110        -7.8399
  67   0.0000       0.023266         0.6331
  68   0.0000       0.065879         1.7927
  69   0.0000       0.092623         2.5204
  70   0.0000       0.117186         3.1888
  71   0.0000       0.125828         3.4240

MULLIKEN ATOMIC CHARGES
-----------------------
   0 S :    0.109405
   1 C :   -0.109774
   2 C :   -0.087788
   3 C :    0.048399
   4 C :   -0.120865
   5 H :   -0.036065
   6 C :    0.056691
   7 H :    0.051149
   8 H :    0.029300
   9 C :   -0.150410
  10 H :    0.048411
  11 H :    0.056690
  12 C :   -0.048859
  13 H :    0.039303
  14 H :    0.025483
  15 H :    0.030862
  16 S :    0.091034
  17 C :   -0.100956
  18 C :   -0.040234
  19 C :   -0.029484
  20 C :   -0.154946
  21 H :    0.023520
  22 C :    0.045780
  23 H :    0.015760
  24 H :    0.036406
  25 C :   -0.081808
  26 H :    0.043083
  27 H :    0.025812
  28 C :   -0.006742
  29 H :    0.019074
  30 H :    0.036310
  31 H :    0.018083
  32 H :    0.041496
  33 H :    0.075881
Sum of atomic charges:   -0.0000000

LOEWDIN ATOMIC CHARGES
----------------------
   0 S :    0.384305
   1 C :   -0.187150
   2 C :   -0.050060
   3 C :   -0.064000
   4 C :   -0.187100
   5 H :    0.021265
   6 C :   -0.034627
   7 H :    0.039939
   8 H :    0.030785
   9 C :   -0.058833
  10 H :    0.029761
  11 H :    0.037421
  12 C :   -0.074759
  13 H :    0.034082
  14 H :    0.022508
  15 H :    0.023679
  16 S :    0.373598
  17 C :   -0.185408
  18 C :   -0.074859
  19 C :   -0.054962
  20 C :   -0.171767
  21 H :    0.033248
  22 C :   -0.034993
  23 H :    0.023624
  24 H :    0.039378
  25 C :   -0.038545
  26 H :    0.033895
  27 H :    0.020995
  28 C :   -0.057405
  29 H :    0.016467
  30 H :    0.028859
  31 H :    0.020632
  32 H :    0.022162
  33 H :    0.037865

  Mayer bond orders larger than 0.100000
B(  0-S ,  1-C ) :   1.1126 B(  0-S ,  4-C ) :   1.1294 B(  1-C ,  2-C ) :   1.6405
B(  1-C , 32-H ) :   0.9667 B(  2-C ,  3-C ) :   1.2136 B(  2-C ,  6-C ) :   1.0014
B(  3-C ,  4-C ) :   1.6029 B(  3-C ,  5-H ) :   0.9952 B(  4-C , 20-C ) :   1.0527
B(  6-C ,  7-H ) :   0.9334 B(  6-C ,  8-H ) :   0.9510 B(  6-C ,  9-C ) :   1.0636
B(  9-C , 10-H ) :   0.9441 B(  9-C , 11-H ) :   0.9583 B(  9-C , 12-C ) :   1.0883
B( 12-C , 13-H ) :   0.9725 B( 12-C , 14-H ) :   0.9706 B( 12-C , 15-H ) :   0.9724
B( 16-S , 17-C ) :   1.1610 B( 16-S , 20-C ) :   1.1146 B( 17-C , 18-C ) :   1.6012
B( 17-C , 20-C ) :   0.1037 B( 17-C , 33-H ) :   0.9570 B( 18-C , 19-C ) :   1.2290
B( 18-C , 21-H ) :   0.9925 B( 19-C , 20-C ) :   1.6177 B( 19-C , 22-C ) :   1.0343
B( 22-C , 23-H ) :   0.9389 B( 22-C , 24-H ) :   0.9330 B( 22-C , 25-C ) :   1.0727
B( 25-C , 26-H ) :   0.9561 B( 25-C , 27-H ) :   0.9545 B( 25-C , 28-C ) :   1.0669
B( 28-C , 29-H ) :   0.9706 B( 28-C , 30-H ) :   0.9764 B( 28-C , 31-H ) :   0.9676

Dispersion correction           -0.014473587
FINAL SINGLE POINT ENERGY     -1339.868587128489

DIPOLE MOMENT
-------------
                                X             Y             Z
Electronic contribution:      4.28832      27.72246      -2.66713
Nuclear contribution   :     -4.11612     -28.49860       2.77573
                        -----------------------------------------
Total Dipole Moment    :      0.17220      -0.77614       0.10860
                        -----------------------------------------
Magnitude (a.u.)       :      0.80239
Magnitude (Debye)      :      2.03952

Rotational constants in cm-1:     0.021146     0.007998     0.006311
Rotational constants in MHz :   633.933451   239.782059   189.204773

                             ****ORCA TERMINATED NORMALLY****
TOTAL RUN TIME: 0 days 0 hours 0 minutes 20 seconds 511 msec
