                         Program Version 4.2.1 -  RELEASE  -
|  1> ! wB97X-D3 SP def2-SVP
|  2> %pal
|  3> nprocs 24
|  4> end
|  5>
|  6> * xyz 0 1
|  7> S 	 -36.2738 	 -11.7444 	 18.4635
|  8> C 	 -36.3554 	 -9.98023 	 18.5699
|  9> C 	 -35.2766 	 -9.32649 	 17.9481
| 10> C 	 -34.4118 	 -10.296 	 17.3703
| 11> C 	 -34.8297 	 -11.6606 	 17.5078
| 12> H 	 -33.5718 	 -10.055 	 16.7108
| 13> C 	 -35.1412 	 -7.82148 	 17.7338
| 14> H 	 -34.0724 	 -7.75491 	 17.9273
| 15> H 	 -35.6786 	 -7.12133 	 18.429
| 16> C 	 -35.5068 	 -7.20531 	 16.3683
| 17> H 	 -35.0792 	 -6.23422 	 16.2895
| 18> H 	 -34.9411 	 -7.71635 	 15.5617
| 19> C 	 -37.0126 	 -7.14158 	 16.1825
| 20> H 	 -37.3953 	 -6.89561 	 15.2092
| 21> H 	 -37.2907 	 -8.21061 	 16.4072
| 22> H 	 -37.5472 	 -6.4117 	 16.8401
| 23> S 	 -33.5074 	 -13.8435 	 18.3429
| 24> C 	 -32.5751 	 -14.8653 	 17.3187
| 25> C 	 -32.7122 	 -14.4819 	 16.0354
| 26> C 	 -33.4968 	 -13.3318 	 15.8495
| 27> C 	 -34.0646 	 -12.8466 	 17.0744
| 28> H 	 -32.3552 	 -15.1182 	 15.2193
| 29> C 	 -33.6614 	 -12.6326 	 14.5413
| 30> H 	 -32.7854 	 -12.8746 	 13.8991
| 31> H 	 -33.4981 	 -11.6049 	 14.6717
| 32> C 	 -34.9544 	 -12.7846 	 13.8118
| 33> H 	 -35.8348 	 -12.6256 	 14.3621
| 34> H 	 -35.1449 	 -13.8725 	 13.5131
| 35> C 	 -35.064 	 -11.816 	 12.6603
| 36> H 	 -35.821 	 -12.0076 	 11.9099
| 37> H 	 -34.2427 	 -11.7563 	 12.0219
| 38> H 	 -35.1322 	 -10.8243 	 13.1296
| 39> H 	 -37.1484 	 -9.43879 	 19.1223
| 40> H 	 -31.9348 	 -15.748 	 17.6656
| 41> *
| 42>
| 43>                          ****END OF INPUT****

CARTESIAN COORDINATES (ANGSTROEM)
---------------------------------
  S    -36.273800  -11.744400   18.463500
  C    -36.355400   -9.980230   18.569900
  C    -35.276600   -9.326490   17.948100
  C    -34.411800  -10.296000   17.370300
  C    -34.829700  -11.660600   17.507800
  H    -33.571800  -10.055000   16.710800
  C    -35.141200   -7.821480   17.733800
  H    -34.072400   -7.754910   17.927300
  H    -35.678600   -7.121330   18.429000
  C    -35.506800   -7.205310   16.368300
  H    -35.079200   -6.234220   16.289500
  H    -34.941100   -7.716350   15.561700
  C    -37.012600   -7.141580   16.182500
  H    -37.395300   -6.895610   15.209200
  H    -37.290700   -8.210610   16.407200
  H    -37.547200   -6.411700   16.840100
  S    -33.507400  -13.843500   18.342900
  C    -32.575100  -14.865300   17.318700
  C    -32.712200  -14.481900   16.035400
  C    -33.496800  -13.331800   15.849500
  C    -34.064600  -12.846600   17.074400
  H    -32.355200  -15.118200   15.219300
  C    -33.661400  -12.632600   14.541300
  H    -32.785400  -12.874600   13.899100
  H    -33.498100  -11.604900   14.671700
  C    -34.954400  -12.784600   13.811800
  H    -35.834800  -12.625600   14.362100
  H    -35.144900  -13.872500   13.513100
  C    -35.064000  -11.816000   12.660300
  H    -35.821000  -12.007600   11.909900
  H    -34.242700  -11.756300   12.021900
  H    -35.132200  -10.824300   13.129600
  H    -37.148400   -9.438790   19.122300
  H    -31.934800  -15.748000   17.665600

 Total Charge           Charge          ....    0
 Multiplicity           Mult            ....    1
 Number of Electrons    NEL             ....  134
 Basis Dimension        Dim             ....  322

ORBITAL ENERGIES
----------------

  NO   OCC          E(Eh)            E(eV)
   0   2.0000     -88.974164     -2421.1101
   1   2.0000     -88.963382     -2420.8167
   2   2.0000     -10.337841      -281.3070
   3   2.0000     -10.328130      -281.0427
   4   2.0000     -10.321405      -280.8597
   5   2.0000     -10.316572      -280.7282
   6   2.0000     -10.308828      -280.5175
   7   2.0000     -10.303249      -280.3657
   8   2.0000     -10.301416      -280.3158
   9   2.0000     -10.299814      -280.2722
  10   2.0000     -10.288753      -279.9712
  11   2.0000     -10.288166      -279.9552
  12   2.0000     -10.283772      -279.8357
  13   2.0000     -10.281229      -279.7665
  14   2.0000     -10.279092      -279.7083
  15   2.0000     -10.268491      -279.4199
  16   2.0000      -8.088327      -220.0946
  17   2.0000      -8.079462      -219.8533
  18   2.0000      -6.046709      -164.5393
  19   2.0000      -6.042816      -164.4334
  20   2.0000      -6.039358      -164.3393
  21   2.0000      -6.037755      -164.2957
  22   2.0000      -6.033493      -164.1797
  23   2.0000      -6.030635      -164.1019
  24   2.0000      -1.010649       -27.5012
  25   2.0000      -0.985961       -26.8294
  26   2.0000      -0.917169       -24.9574
  27   2.0000      -0.914072       -24.8732
  28   2.0000      -0.870895       -23.6983
  29   2.0000      -0.852559       -23.1993
  30   2.0000      -0.849545       -23.1173
  31   2.0000      -0.810462       -22.0538
  32   2.0000      -0.783560       -21.3217
  33   2.0000      -0.771448       -20.9922
  34   2.0000      -0.710470       -19.3329
  35   2.0000      -0.701908       -19.0999
  36   2.0000      -0.692991       -18.8572
  37   2.0000      -0.657913       -17.9027
  38   2.0000      -0.635626       -17.2963
  39   2.0000      -0.623040       -16.9538
  40   2.0000      -0.601990       -16.3810
  41   2.0000      -0.570754       -15.5310
  42   2.0000      -0.563828       -15.3425
  43   2.0000      -0.559117       -15.2143
  44   2.0000      -0.538862       -14.6632
  45   2.0000      -0.529432       -14.4066
  46   2.0000      -0.518677       -14.1139
  47   2.0000      -0.505190       -13.7469
  48   2.0000      -0.501328       -13.6418
  49   2.0000      -0.497599       -13.5403
  50   2.0000      -0.486366       -13.2347
  51   2.0000      -0.479581       -13.0501
  52   2.0000      -0.471544       -12.8314
  53   2.0000      -0.464621       -12.6430
  54   2.0000      -0.455998       -12.4083
  55   2.0000      -0.451734       -12.2923
  56   2.0000      -0.446658       -12.1542
  57   2.0000      -0.441548       -12.0151
  58   2.0000      -0.440077       -11.9751
  59   2.0000      -0.422732       -11.5031
  60   2.0000      -0.420707       -11.4480
  61   2.0000      -0.411910       -11.2086
  62   2.0000      -0.403654       -10.9840
  63   2.0000      -0.346103        -9.4179
  64   2.0000      -0.335123        -9.1192
  65   2.0000      -0.325390        -8.8543
  66   2.0000      -0.293502        -7.9866
  67   0.0000       0.030811         0.8384
  68   0.0000       0.063523         1.7286
  69   0.0000       0.115743         3.1495
  70   0.0000       0.118544         3.2258
  71   0.0000       0.126535         3.4432

MULLIKEN ATOMIC CHARGES
-----------------------
   0 S :    0.130285
   1 C :   -0.138374
   2 C :   -0.069697
   3 C :    0.028069
   4 C :   -0.168032
   5 H :    0.021512
   6 C :    0.022732
   7 H :    0.033698
   8 H :    0.033648
   9 C :   -0.036466
  10 H :    0.018649
  11 H :    0.021561
  12 C :   -0.069516
  13 H :    0.030811
  14 H :    0.045615
  15 H :    0.035844
  16 S :    0.114672
  17 C :   -0.118179
  18 C :   -0.040838
  19 C :   -0.034764
  20 C :   -0.159929
  21 H :    0.025821
  22 C :    0.087707
  23 H :    0.016934
  24 H :   -0.009861
  25 C :   -0.042438
  26 H :    0.020613
  27 H :    0.020707
  28 C :   -0.027329
  29 H :    0.029426
  30 H :    0.000581
  31 H :    0.030454
  32 H :    0.061981
  33 H :    0.084102
Sum of atomic charges:    0.0000000

LOEWDIN ATOMIC CHARGES
----------------------
   0 S :    0.420108
   1 C :   -0.199619
   2 C :   -0.066598
   3 C :   -0.062056
   4 C :   -0.211059
   5 H :    0.030604
   6 C :   -0.035291
   7 H :    0.035293
   8 H :    0.036875
   9 C :   -0.043117
  10 H :    0.018837
  11 H :    0.024532
  12 C :   -0.073732
  13 H :    0.022135
  14 H :    0.036139
  15 H :    0.029170
  16 S :    0.446519
  17 C :   -0.209935
  18 C :   -0.082881
  19 C :   -0.055278
  20 C :   -0.218011
  21 H :    0.037569
  22 C :   -0.035500
  23 H :    0.036371
  24 H :    0.022114
  25 C :   -0.041492
  26 H :    0.021279
  27 H :    0.026563
  28 C :   -0.063648
  29 H :    0.028742
  30 H :    0.012538
  31 H :    0.029808
  32 H :    0.033495
  33 H :    0.049522

  Mayer bond orders larger than 0.100000
B(  0-S ,  1-C ) :   1.1534 B(  0-S ,  4-C ) :   1.1718 B(  1-C ,  2-C ) :   1.5701
B(  1-C ,  4-C ) :   0.1074 B(  1-C , 32-H ) :   0.9627 B(  2-C ,  3-C ) :   1.2774
B(  2-C ,  6-C ) :   1.0149 B(  3-C ,  4-C ) :   1.5367 B(  3-C ,  5-H ) :   0.9842
B(  4-C , 20-C ) :   1.0204 B(  6-C ,  7-H ) :   0.9330 B(  6-C ,  8-H ) :   0.9491
B(  6-C ,  9-C ) :   1.0743 B(  9-C , 10-H ) :   0.9511 B(  9-C , 11-H ) :   0.9529
B(  9-C , 12-C ) :   1.0633 B( 12-C , 13-H ) :   0.9744 B( 12-C , 14-H ) :   0.9772
B( 12-C , 15-H ) :   0.9730 B( 16-S , 17-C ) :   1.1789 B( 16-S , 20-C ) :   1.1864
B( 17-C , 18-C ) :   1.5667 B( 17-C , 20-C ) :   0.1044 B( 17-C , 33-H ) :   0.9564
B( 18-C , 19-C ) :   1.3078 B( 18-C , 21-H ) :   0.9877 B( 19-C , 20-C ) :   1.5269
B( 19-C , 22-C ) :   1.0430 B( 22-C , 23-H ) :   0.9253 B( 22-C , 24-H ) :   0.9283
B( 22-C , 25-C ) :   1.0661 B( 25-C , 26-H ) :   0.9559 B( 25-C , 27-H ) :   0.9485
B( 25-C , 28-C ) :   1.0754 B( 28-C , 29-H ) :   0.9711 B( 28-C , 30-H ) :   0.9729
B( 28-C , 31-H ) :   0.9735

Dispersion correction           -0.014333162
FINAL SINGLE POINT ENERGY     -1339.865347160552

DIPOLE MOMENT
-------------
                                X             Y             Z
Electronic contribution:      4.16701     -19.42970      21.97991
Nuclear contribution   :     -4.00518      19.81219     -22.43857
                        -----------------------------------------
Total Dipole Moment    :      0.16183       0.38249      -0.45866
                        -----------------------------------------
Magnitude (a.u.)       :      0.61876
Magnitude (Debye)      :      1.57276

Rotational constants in cm-1:     0.018474     0.009114     0.006947
Rotational constants in MHz :   553.848674   273.234503   208.267445

                             ****ORCA TERMINATED NORMALLY****
TOTAL RUN TIME: 0 days 0 hours 0 minutes 21 seconds 796 msec
