                         Program Version 4.2.1 -  RELEASE  -
|  1> ! wB97X-D3 SP def2-SVP
|  2> %pal
|  3> nprocs 24
|  4> end
|  5>
|  6> * xyz 0 1
|  7> S 	 -46.8661 	 -51.6343 	 -74.9221
|  8> C 	 -46.3528 	 -49.9411 	 -74.9157
|  9> C 	 -46.3351 	 -49.3917 	 -73.5994
| 10> C 	 -46.8038 	 -50.3898 	 -72.6311
| 11> C 	 -47.1241 	 -51.6363 	 -73.1337
| 12> H 	 -46.8462 	 -50.1971 	 -71.5653
| 13> C 	 -45.9027 	 -48.0068 	 -73.3396
| 14> H 	 -46.1744 	 -47.6595 	 -72.3431
| 15> H 	 -46.4522 	 -47.3269 	 -73.9825
| 16> C 	 -44.373 	 -47.735 	 -73.3929
| 17> H 	 -43.8026 	 -48.1205 	 -72.5995
| 18> H 	 -43.9753 	 -48.2151 	 -74.3191
| 19> C 	 -43.9951 	 -46.2726 	 -73.5371
| 20> H 	 -44.2528 	 -45.7284 	 -72.63
| 21> H 	 -42.9256 	 -46.2126 	 -73.4538
| 22> H 	 -44.372 	 -45.8059 	 -74.3868
| 23> S 	 -47.5231 	 -54.3561 	 -73.1412
| 24> C 	 -48.641 	 -55.0815 	 -72.0386
| 25> C 	 -49.1442 	 -54.1208 	 -71.1711
| 26> C 	 -48.6491 	 -52.7802 	 -71.3315
| 27> C 	 -47.7262 	 -52.765 	 -72.4177
| 28> H 	 -49.9033 	 -54.3779 	 -70.3578
| 29> C 	 -49.0505 	 -51.664 	 -70.3066
| 30> H 	 -49.9167 	 -51.9633 	 -69.6853
| 31> H 	 -49.3454 	 -50.748 	 -70.8237
| 32> C 	 -47.989 	 -51.3817 	 -69.2651
| 33> H 	 -48.2894 	 -50.4474 	 -68.743
| 34> H 	 -47.0673 	 -51.1935 	 -69.7758
| 35> C 	 -47.8484 	 -52.5562 	 -68.1706
| 36> H 	 -47.9141 	 -53.5286 	 -68.6024
| 37> H 	 -48.7404 	 -52.5596 	 -67.3977
| 38> H 	 -47.0029 	 -52.4432 	 -67.4706
| 39> H 	 -46.0696 	 -49.4407 	 -75.8337
| 40> H 	 -49.0199 	 -56.1101 	 -71.9388
| 41> *
| 42>
| 43>                          ****END OF INPUT****

CARTESIAN COORDINATES (ANGSTROEM)
---------------------------------
  S    -46.866100  -51.634300  -74.922100
  C    -46.352800  -49.941100  -74.915700
  C    -46.335100  -49.391700  -73.599400
  C    -46.803800  -50.389800  -72.631100
  C    -47.124100  -51.636300  -73.133700
  H    -46.846200  -50.197100  -71.565300
  C    -45.902700  -48.006800  -73.339600
  H    -46.174400  -47.659500  -72.343100
  H    -46.452200  -47.326900  -73.982500
  C    -44.373000  -47.735000  -73.392900
  H    -43.802600  -48.120500  -72.599500
  H    -43.975300  -48.215100  -74.319100
  C    -43.995100  -46.272600  -73.537100
  H    -44.252800  -45.728400  -72.630000
  H    -42.925600  -46.212600  -73.453800
  H    -44.372000  -45.805900  -74.386800
  S    -47.523100  -54.356100  -73.141200
  C    -48.641000  -55.081500  -72.038600
  C    -49.144200  -54.120800  -71.171100
  C    -48.649100  -52.780200  -71.331500
  C    -47.726200  -52.765000  -72.417700
  H    -49.903300  -54.377900  -70.357800
  C    -49.050500  -51.664000  -70.306600
  H    -49.916700  -51.963300  -69.685300
  H    -49.345400  -50.748000  -70.823700
  C    -47.989000  -51.381700  -69.265100
  H    -48.289400  -50.447400  -68.743000
  H    -47.067300  -51.193500  -69.775800
  C    -47.848400  -52.556200  -68.170600
  H    -47.914100  -53.528600  -68.602400
  H    -48.740400  -52.559600  -67.397700
  H    -47.002900  -52.443200  -67.470600
  H    -46.069600  -49.440700  -75.833700
  H    -49.019900  -56.110100  -71.938800

 Total Charge           Charge          ....    0
 Multiplicity           Mult            ....    1
 Number of Electrons    NEL             ....  134
 Basis Dimension        Dim             ....  322

ORBITAL ENERGIES
----------------

  NO   OCC          E(Eh)            E(eV)
   0   2.0000     -88.972986     -2421.0780
   1   2.0000     -88.967067     -2420.9170
   2   2.0000     -10.337247      -281.2908
   3   2.0000     -10.336535      -281.2714
   4   2.0000     -10.320285      -280.8292
   5   2.0000     -10.319483      -280.8074
   6   2.0000     -10.314035      -280.6592
   7   2.0000     -10.309367      -280.5321
   8   2.0000     -10.301171      -280.3091
   9   2.0000     -10.300120      -280.2805
  10   2.0000     -10.299151      -280.2541
  11   2.0000     -10.294695      -280.1329
  12   2.0000     -10.291681      -280.0509
  13   2.0000     -10.290381      -280.0155
  14   2.0000     -10.283950      -279.8405
  15   2.0000     -10.270418      -279.4723
  16   2.0000      -8.087365      -220.0684
  17   2.0000      -8.080462      -219.8806
  18   2.0000      -6.045940      -164.5184
  19   2.0000      -6.041839      -164.4068
  20   2.0000      -6.039188      -164.3347
  21   2.0000      -6.038167      -164.3069
  22   2.0000      -6.035169      -164.2253
  23   2.0000      -6.031070      -164.1138
  24   2.0000      -1.000785       -27.2327
  25   2.0000      -0.974772       -26.5249
  26   2.0000      -0.912651       -24.8345
  27   2.0000      -0.907693       -24.6996
  28   2.0000      -0.867331       -23.6013
  29   2.0000      -0.848905       -23.0999
  30   2.0000      -0.840885       -22.8816
  31   2.0000      -0.813137       -22.1266
  32   2.0000      -0.783086       -21.3089
  33   2.0000      -0.769811       -20.9476
  34   2.0000      -0.707946       -19.2642
  35   2.0000      -0.703391       -19.1402
  36   2.0000      -0.689519       -18.7628
  37   2.0000      -0.659312       -17.9408
  38   2.0000      -0.638682       -17.3794
  39   2.0000      -0.617404       -16.8004
  40   2.0000      -0.595576       -16.2064
  41   2.0000      -0.573377       -15.6024
  42   2.0000      -0.561555       -15.2807
  43   2.0000      -0.551959       -15.0196
  44   2.0000      -0.544667       -14.8211
  45   2.0000      -0.525318       -14.2946
  46   2.0000      -0.514553       -14.0017
  47   2.0000      -0.506881       -13.7929
  48   2.0000      -0.504661       -13.7325
  49   2.0000      -0.498016       -13.5517
  50   2.0000      -0.483335       -13.1522
  51   2.0000      -0.480134       -13.0651
  52   2.0000      -0.468097       -12.7376
  53   2.0000      -0.465414       -12.6646
  54   2.0000      -0.455049       -12.3825
  55   2.0000      -0.451579       -12.2881
  56   2.0000      -0.445533       -12.1236
  57   2.0000      -0.441908       -12.0249
  58   2.0000      -0.435982       -11.8637
  59   2.0000      -0.424525       -11.5519
  60   2.0000      -0.420847       -11.4518
  61   2.0000      -0.417590       -11.3632
  62   2.0000      -0.407580       -11.0908
  63   2.0000      -0.357188        -9.7196
  64   2.0000      -0.335856        -9.1391
  65   2.0000      -0.327468        -8.9109
  66   2.0000      -0.281936        -7.6719
  67   0.0000       0.018282         0.4975
  68   0.0000       0.072617         1.9760
  69   0.0000       0.100871         2.7448
  70   0.0000       0.120024         3.2660
  71   0.0000       0.128484         3.4962

MULLIKEN ATOMIC CHARGES
-----------------------
   0 S :    0.094557
   1 C :   -0.129493
   2 C :   -0.074568
   3 C :   -0.000286
   4 C :   -0.084151
   5 H :   -0.004483
   6 C :    0.075922
   7 H :    0.008648
   8 H :    0.029762
   9 C :   -0.079380
  10 H :    0.021957
  11 H :    0.024687
  12 C :   -0.016260
  13 H :    0.015841
  14 H :    0.022846
  15 H :    0.027926
  16 S :    0.118640
  17 C :   -0.088750
  18 C :   -0.074074
  19 C :   -0.037459
  20 C :   -0.166866
  21 H :    0.041405
  22 C :    0.048610
  23 H :    0.023022
  24 H :    0.041440
  25 C :   -0.068630
  26 H :    0.038277
  27 H :    0.042196
  28 C :   -0.092564
  29 H :    0.043180
  30 H :    0.028856
  31 H :    0.045656
  32 H :    0.056932
  33 H :    0.066603
Sum of atomic charges:   -0.0000000

LOEWDIN ATOMIC CHARGES
----------------------
   0 S :    0.372262
   1 C :   -0.187342
   2 C :   -0.056887
   3 C :   -0.067242
   4 C :   -0.175336
   5 H :    0.027841
   6 C :   -0.038979
   7 H :    0.029077
   8 H :    0.034743
   9 C :   -0.033123
  10 H :    0.019030
  11 H :    0.024072
  12 C :   -0.058313
  13 H :    0.023315
  14 H :    0.028242
  15 H :    0.015099
  16 S :    0.421830
  17 C :   -0.209856
  18 C :   -0.082257
  19 C :   -0.051098
  20 C :   -0.193720
  21 H :    0.039441
  22 C :   -0.031695
  23 H :    0.034195
  24 H :    0.032912
  25 C :   -0.037760
  26 H :    0.029996
  27 H :    0.015645
  28 C :   -0.074882
  29 H :    0.019929
  30 H :    0.032409
  31 H :    0.029182
  32 H :    0.027165
  33 H :    0.042105

  Mayer bond orders larger than 0.100000
B(  0-S ,  1-C ) :   1.1400 B(  0-S ,  4-C ) :   1.1216 B(  1-C ,  2-C ) :   1.5838
B(  1-C , 32-H ) :   0.9701 B(  2-C ,  3-C ) :   1.2421 B(  2-C ,  6-C ) :   1.0446
B(  3-C ,  4-C ) :   1.5784 B(  3-C ,  5-H ) :   0.9924 B(  4-C , 20-C ) :   1.0780
B(  6-C ,  7-H ) :   0.9331 B(  6-C ,  8-H ) :   0.9409 B(  6-C ,  9-C ) :   1.0495
B(  9-C , 10-H ) :   0.9574 B(  9-C , 11-H ) :   0.9607 B(  9-C , 12-C ) :   1.0929
B( 12-C , 13-H ) :   0.9693 B( 12-C , 14-H ) :   0.9694 B( 12-C , 15-H ) :   0.9776
B( 16-S , 17-C ) :   1.1471 B( 16-S , 20-C ) :   1.1543 B( 17-C , 18-C ) :   1.6022
B( 17-C , 33-H ) :   0.9632 B( 18-C , 19-C ) :   1.2852 B( 18-C , 21-H ) :   0.9680
B( 19-C , 20-C ) :   1.5351 B( 19-C , 22-C ) :   1.0343 B( 22-C , 23-H ) :   0.9396
B( 22-C , 24-H ) :   0.9335 B( 22-C , 25-C ) :   1.0705 B( 25-C , 26-H ) :   0.9565
B( 25-C , 27-H ) :   0.9532 B( 25-C , 28-C ) :   1.0552 B( 28-C , 29-H ) :   0.9800
B( 28-C , 30-H ) :   0.9744 B( 28-C , 31-H ) :   0.9775

Dispersion correction           -0.014027421
FINAL SINGLE POINT ENERGY     -1339.872469543103

DIPOLE MOMENT
-------------
                                X             Y             Z
Electronic contribution:     -5.90461     -21.86104     -18.14140
Nuclear contribution   :      5.83247      22.34813      18.66555
                        -----------------------------------------
Total Dipole Moment    :     -0.07214       0.48709       0.52415
                        -----------------------------------------
Magnitude (a.u.)       :      0.71916
Magnitude (Debye)      :      1.82796

Rotational constants in cm-1:     0.020376     0.007868     0.006008
Rotational constants in MHz :   610.866059   235.874734   180.124902

                             ****ORCA TERMINATED NORMALLY****
TOTAL RUN TIME: 0 days 0 hours 0 minutes 20 seconds 43 msec
