                         Program Version 4.2.1 -  RELEASE  -
|  1> ! wB97X-D3 SP def2-SVP
|  2> %pal
|  3> nprocs 24
|  4> end
|  5>
|  6> * xyz 0 1
|  7> S 	 -106.651 	 54.8544 	 -102.903
|  8> C 	 -108.259 	 54.7925 	 -103.622
|  9> C 	 -109.235 	 55.399 	 -102.893
| 10> C 	 -108.578 	 56.0948 	 -101.818
| 11> C 	 -107.219 	 56.0577 	 -101.716
| 12> H 	 -109.096 	 56.6796 	 -101.068
| 13> C 	 -110.694 	 55.4816 	 -103.276
| 14> H 	 -110.891 	 54.8802 	 -104.128
| 15> H 	 -110.9 	 56.5087 	 -103.573
| 16> C 	 -111.693 	 55.0672 	 -102.155
| 17> H 	 -111.608 	 54.0509 	 -101.727
| 18> H 	 -111.586 	 55.7612 	 -101.277
| 19> C 	 -113.205 	 55.1561 	 -102.607
| 20> H 	 -113.431 	 54.2893 	 -103.113
| 21> H 	 -113.743 	 55.0816 	 -101.68
| 22> H 	 -113.501 	 56.0998 	 -103.103
| 23> S 	 -105.576 	 55.5272 	 -99.5394
| 24> C 	 -104.719 	 56.8563 	 -98.8064
| 25> C 	 -105.084 	 58.0862 	 -99.2757
| 26> C 	 -106.105 	 58.0068 	 -100.287
| 27> C 	 -106.465 	 56.6656 	 -100.612
| 28> H 	 -104.502 	 59.009 	 -98.9116
| 29> C 	 -106.474 	 59.2238 	 -101.151
| 30> H 	 -107.055 	 58.8662 	 -102.019
| 31> H 	 -105.565 	 59.6463 	 -101.554
| 32> C 	 -107.341 	 60.2287 	 -100.451
| 33> H 	 -107.278 	 61.1528 	 -100.94
| 34> H 	 -106.983 	 60.4723 	 -99.4321
| 35> C 	 -108.789 	 59.8001 	 -100.444
| 36> H 	 -109.405 	 60.583 	 -100.041
| 37> H 	 -108.925 	 58.8585 	 -99.9357
| 38> H 	 -109.141 	 59.6648 	 -101.454
| 39> H 	 -108.556 	 54.0976 	 -104.399
| 40> H 	 -103.926 	 56.735 	 -98.071
| 41> *
| 42>
| 43>                          ****END OF INPUT****

CARTESIAN COORDINATES (ANGSTROEM)
---------------------------------
  S    -106.651000   54.854400  -102.903000
  C    -108.259000   54.792500  -103.622000
  C    -109.235000   55.399000  -102.893000
  C    -108.578000   56.094800  -101.818000
  C    -107.219000   56.057700  -101.716000
  H    -109.096000   56.679600  -101.068000
  C    -110.694000   55.481600  -103.276000
  H    -110.891000   54.880200  -104.128000
  H    -110.900000   56.508700  -103.573000
  C    -111.693000   55.067200  -102.155000
  H    -111.608000   54.050900  -101.727000
  H    -111.586000   55.761200  -101.277000
  C    -113.205000   55.156100  -102.607000
  H    -113.431000   54.289300  -103.113000
  H    -113.743000   55.081600  -101.680000
  H    -113.501000   56.099800  -103.103000
  S    -105.576000   55.527200  -99.539400
  C    -104.719000   56.856300  -98.806400
  C    -105.084000   58.086200  -99.275700
  C    -106.105000   58.006800  -100.287000
  C    -106.465000   56.665600  -100.612000
  H    -104.502000   59.009000  -98.911600
  C    -106.474000   59.223800  -101.151000
  H    -107.055000   58.866200  -102.019000
  H    -105.565000   59.646300  -101.554000
  C    -107.341000   60.228700  -100.451000
  H    -107.278000   61.152800  -100.940000
  H    -106.983000   60.472300  -99.432100
  C    -108.789000   59.800100  -100.444000
  H    -109.405000   60.583000  -100.041000
  H    -108.925000   58.858500  -99.935700
  H    -109.141000   59.664800  -101.454000
  H    -108.556000   54.097600  -104.399000
  H    -103.926000   56.735000  -98.071000

 Total Charge           Charge          ....    0
 Multiplicity           Mult            ....    1
 Number of Electrons    NEL             ....  134
 Basis Dimension        Dim             ....  322

ORBITAL ENERGIES
----------------

  NO   OCC          E(Eh)            E(eV)
   0   2.0000     -88.965061     -2420.8624
   1   2.0000     -88.964487     -2420.8468
   2   2.0000     -10.334288      -281.2103
   3   2.0000     -10.329114      -281.0695
   4   2.0000     -10.316889      -280.7368
   5   2.0000     -10.312703      -280.6229
   6   2.0000     -10.311868      -280.6002
   7   2.0000     -10.300212      -280.2830
   8   2.0000     -10.299636      -280.2673
   9   2.0000     -10.296914      -280.1933
  10   2.0000     -10.296592      -280.1845
  11   2.0000     -10.291177      -280.0372
  12   2.0000     -10.287534      -279.9380
  13   2.0000     -10.276697      -279.6431
  14   2.0000     -10.275795      -279.6186
  15   2.0000     -10.268885      -279.4306
  16   2.0000      -8.079101      -219.8435
  17   2.0000      -8.078753      -219.8340
  18   2.0000      -6.037732      -164.2950
  19   2.0000      -6.037219      -164.2811
  20   2.0000      -6.033940      -164.1918
  21   2.0000      -6.033358      -164.1760
  22   2.0000      -6.029549      -164.0724
  23   2.0000      -6.029506      -164.0712
  24   2.0000      -1.000674       -27.2297
  25   2.0000      -0.980250       -26.6740
  26   2.0000      -0.914074       -24.8732
  27   2.0000      -0.907704       -24.6999
  28   2.0000      -0.869089       -23.6491
  29   2.0000      -0.847106       -23.0509
  30   2.0000      -0.844141       -22.9702
  31   2.0000      -0.814608       -22.1666
  32   2.0000      -0.784799       -21.3555
  33   2.0000      -0.773380       -21.0447
  34   2.0000      -0.709165       -19.2974
  35   2.0000      -0.697279       -18.9739
  36   2.0000      -0.691605       -18.8195
  37   2.0000      -0.647931       -17.6311
  38   2.0000      -0.641221       -17.4485
  39   2.0000      -0.617803       -16.8113
  40   2.0000      -0.596511       -16.2319
  41   2.0000      -0.570969       -15.5369
  42   2.0000      -0.564300       -15.3554
  43   2.0000      -0.559125       -15.2146
  44   2.0000      -0.537955       -14.6385
  45   2.0000      -0.523783       -14.2529
  46   2.0000      -0.513013       -13.9598
  47   2.0000      -0.511525       -13.9193
  48   2.0000      -0.503029       -13.6881
  49   2.0000      -0.495485       -13.4828
  50   2.0000      -0.489620       -13.3232
  51   2.0000      -0.478621       -13.0239
  52   2.0000      -0.468184       -12.7399
  53   2.0000      -0.463338       -12.6081
  54   2.0000      -0.459659       -12.5080
  55   2.0000      -0.446715       -12.1557
  56   2.0000      -0.444824       -12.1043
  57   2.0000      -0.439750       -11.9662
  58   2.0000      -0.433626       -11.7996
  59   2.0000      -0.425942       -11.5905
  60   2.0000      -0.422005       -11.4833
  61   2.0000      -0.417067       -11.3490
  62   2.0000      -0.411650       -11.2016
  63   2.0000      -0.340415        -9.2632
  64   2.0000      -0.332507        -9.0480
  65   2.0000      -0.326515        -8.8849
  66   2.0000      -0.298740        -8.1291
  67   0.0000       0.032278         0.8783
  68   0.0000       0.062574         1.7027
  69   0.0000       0.116667         3.1747
  70   0.0000       0.119647         3.2558
  71   0.0000       0.126357         3.4384

MULLIKEN ATOMIC CHARGES
-----------------------
   0 S :    0.104209
   1 C :   -0.121660
   2 C :   -0.063044
   3 C :    0.018799
   4 C :   -0.132026
   5 H :    0.000362
   6 C :    0.122115
   7 H :    0.004972
   8 H :    0.038625
   9 C :   -0.151200
  10 H :    0.040217
  11 H :    0.039041
  12 C :   -0.025058
  13 H :    0.022670
  14 H :    0.025134
  15 H :    0.041467
  16 S :    0.097627
  17 C :   -0.094043
  18 C :   -0.055858
  19 C :   -0.034381
  20 C :   -0.184792
  21 H :    0.053310
  22 C :    0.057505
  23 H :    0.024665
  24 H :    0.032715
  25 C :   -0.044422
  26 H :    0.008579
  27 H :    0.022837
  28 C :   -0.036238
  29 H :    0.028199
  30 H :    0.039449
  31 H :    0.017632
  32 H :    0.044518
  33 H :    0.058076
Sum of atomic charges:   -0.0000000

LOEWDIN ATOMIC CHARGES
----------------------
   0 S :    0.379217
   1 C :   -0.183226
   2 C :   -0.067347
   3 C :   -0.052936
   4 C :   -0.196896
   5 H :    0.024686
   6 C :   -0.024422
   7 H :    0.024492
   8 H :    0.037359
   9 C :   -0.041039
  10 H :    0.029004
  11 H :    0.024083
  12 C :   -0.060118
  13 H :    0.013273
  14 H :    0.027770
  15 H :    0.028204
  16 S :    0.385838
  17 C :   -0.183392
  18 C :   -0.086493
  19 C :   -0.046754
  20 C :   -0.185550
  21 H :    0.049627
  22 C :   -0.027207
  23 H :    0.032991
  24 H :    0.030761
  25 C :   -0.041144
  26 H :    0.017202
  27 H :    0.023655
  28 C :   -0.057609
  29 H :    0.024643
  30 H :    0.021865
  31 H :    0.021659
  32 H :    0.027490
  33 H :    0.030314

  Mayer bond orders larger than 0.100000
B(  0-S ,  1-C ) :   1.1380 B(  0-S ,  4-C ) :   1.1031 B(  1-C ,  2-C ) :   1.6437
B(  1-C , 32-H ) :   0.9548 B(  2-C ,  3-C ) :   1.2112 B(  2-C ,  6-C ) :   1.0324
B(  3-C ,  4-C ) :   1.6177 B(  3-C ,  5-H ) :   0.9902 B(  4-C , 20-C ) :   1.0543
B(  6-C ,  7-H ) :   0.9382 B(  6-C ,  8-H ) :   0.9361 B(  6-C ,  9-C ) :   1.0498
B(  9-C , 10-H ) :   0.9597 B(  9-C , 11-H ) :   0.9625 B(  9-C , 12-C ) :   1.0804
B( 12-C , 13-H ) :   0.9784 B( 12-C , 14-H ) :   0.9741 B( 12-C , 15-H ) :   0.9759
B( 16-S , 17-C ) :   1.1528 B( 16-S , 20-C ) :   1.1282 B( 17-C , 18-C ) :   1.6421
B( 17-C , 33-H ) :   0.9621 B( 18-C , 19-C ) :   1.2284 B( 18-C , 21-H ) :   0.9744
B( 19-C , 20-C ) :   1.5951 B( 19-C , 22-C ) :   1.0392 B( 22-C , 23-H ) :   0.9377
B( 22-C , 24-H ) :   0.9424 B( 22-C , 25-C ) :   1.0689 B( 25-C , 26-H ) :   0.9474
B( 25-C , 27-H ) :   0.9555 B( 25-C , 28-C ) :   1.0873 B( 28-C , 29-H ) :   0.9689
B( 28-C , 30-H ) :   0.9730 B( 28-C , 31-H ) :   0.9704

Dispersion correction           -0.014300548
FINAL SINGLE POINT ENERGY     -1339.875895964285

DIPOLE MOMENT
-------------
                                X             Y             Z
Electronic contribution:     25.50854     -13.96322       2.20026
Nuclear contribution   :    -25.96671      14.37838      -2.24055
                        -----------------------------------------
Total Dipole Moment    :     -0.45817       0.41517      -0.04029
                        -----------------------------------------
Magnitude (a.u.)       :      0.61960
Magnitude (Debye)      :      1.57491

Rotational constants in cm-1:     0.018330     0.008396     0.006732
Rotational constants in MHz :   549.508701   251.709808   201.826012

                             ****ORCA TERMINATED NORMALLY****
TOTAL RUN TIME: 0 days 0 hours 0 minutes 21 seconds 588 msec
