                         Program Version 4.2.1 -  RELEASE  -
|  1> ! wB97X-D3 SP def2-SVP
|  2> %pal
|  3> nprocs 24
|  4> end
|  5>
|  6> * xyz 0 1
|  7> S 	 -100.472 	 11.9743 	 -123.699
|  8> C 	 -99.4949 	 13.3343 	 -123.335
|  9> C 	 -99.7622 	 13.9906 	 -122.177
| 10> C 	 -100.99 	 13.4532 	 -121.588
| 11> C 	 -101.571 	 12.4407 	 -122.334
| 12> H 	 -101.541 	 13.6701 	 -120.661
| 13> C 	 -98.8753 	 15.008 	 -121.516
| 14> H 	 -98.0306 	 15.2041 	 -122.238
| 15> H 	 -98.3657 	 14.546 	 -120.673
| 16> C 	 -99.6047 	 16.3281 	 -121.288
| 17> H 	 -100.185 	 16.5355 	 -122.173
| 18> H 	 -100.278 	 16.0696 	 -120.463
| 19> C 	 -98.6499 	 17.4625 	 -120.968
| 20> H 	 -98.1209 	 17.3809 	 -119.994
| 21> H 	 -97.9811 	 17.7392 	 -121.819
| 22> H 	 -99.2517 	 18.3557 	 -120.795
| 23> S 	 -104.242 	 12.911 	 -122.41
| 24> C 	 -105.326 	 11.8304 	 -121.656
| 25> C 	 -104.673 	 10.7816 	 -121.011
| 26> C 	 -103.26 	 10.8042 	 -121.244
| 27> C 	 -102.879 	 11.8983 	 -122.053
| 28> H 	 -105.209 	 10.0581 	 -120.461
| 29> C 	 -102.314 	 9.84019 	 -120.675
| 30> H 	 -101.328 	 9.96296 	 -121.172
| 31> H 	 -102.691 	 8.81661 	 -120.685
| 32> C 	 -101.939 	 10.1468 	 -119.204
| 33> H 	 -102.861 	 10.0142 	 -118.62
| 34> H 	 -101.627 	 11.1752 	 -119.018
| 35> C 	 -100.82 	 9.16674 	 -118.727
| 36> H 	 -99.8246 	 9.42141 	 -119.133
| 37> H 	 -100.954 	 8.07326 	 -118.816
| 38> H 	 -100.629 	 9.37188 	 -117.669
| 39> H 	 -98.6621 	 13.6037 	 -123.991
| 40> H 	 -106.346 	 11.9461 	 -121.411
| 41> *
| 42>
| 43>                          ****END OF INPUT****

CARTESIAN COORDINATES (ANGSTROEM)
---------------------------------
  S    -100.472000   11.974300  -123.699000
  C    -99.494900   13.334300  -123.335000
  C    -99.762200   13.990600  -122.177000
  C    -100.990000   13.453200  -121.588000
  C    -101.571000   12.440700  -122.334000
  H    -101.541000   13.670100  -120.661000
  C    -98.875300   15.008000  -121.516000
  H    -98.030600   15.204100  -122.238000
  H    -98.365700   14.546000  -120.673000
  C    -99.604700   16.328100  -121.288000
  H    -100.185000   16.535500  -122.173000
  H    -100.278000   16.069600  -120.463000
  C    -98.649900   17.462500  -120.968000
  H    -98.120900   17.380900  -119.994000
  H    -97.981100   17.739200  -121.819000
  H    -99.251700   18.355700  -120.795000
  S    -104.242000   12.911000  -122.410000
  C    -105.326000   11.830400  -121.656000
  C    -104.673000   10.781600  -121.011000
  C    -103.260000   10.804200  -121.244000
  C    -102.879000   11.898300  -122.053000
  H    -105.209000   10.058100  -120.461000
  C    -102.314000    9.840190  -120.675000
  H    -101.328000    9.962960  -121.172000
  H    -102.691000    8.816610  -120.685000
  C    -101.939000   10.146800  -119.204000
  H    -102.861000   10.014200  -118.620000
  H    -101.627000   11.175200  -119.018000
  C    -100.820000    9.166740  -118.727000
  H    -99.824600    9.421410  -119.133000
  H    -100.954000    8.073260  -118.816000
  H    -100.629000    9.371880  -117.669000
  H    -98.662100   13.603700  -123.991000
  H    -106.346000   11.946100  -121.411000

 Total Charge           Charge          ....    0
 Multiplicity           Mult            ....    1
 Number of Electrons    NEL             ....  134
 Basis Dimension        Dim             ....  322

ORBITAL ENERGIES
----------------

  NO   OCC          E(Eh)            E(eV)
   0   2.0000     -88.967407     -2420.9262
   1   2.0000     -88.963613     -2420.8230
   2   2.0000     -10.327803      -281.0338
   3   2.0000     -10.320330      -280.8305
   4   2.0000     -10.310712      -280.5687
   5   2.0000     -10.310195      -280.5547
   6   2.0000     -10.300651      -280.2950
   7   2.0000     -10.299735      -280.2700
   8   2.0000     -10.299081      -280.2523
   9   2.0000     -10.291938      -280.0579
  10   2.0000     -10.289478      -279.9909
  11   2.0000     -10.289345      -279.9873
  12   2.0000     -10.286301      -279.9045
  13   2.0000     -10.285634      -279.8863
  14   2.0000     -10.283047      -279.8159
  15   2.0000     -10.281011      -279.7605
  16   2.0000      -8.082730      -219.9423
  17   2.0000      -8.078181      -219.8185
  18   2.0000      -6.041154      -164.3882
  19   2.0000      -6.036988      -164.2748
  20   2.0000      -6.036608      -164.2645
  21   2.0000      -6.033707      -164.1855
  22   2.0000      -6.032963      -164.1653
  23   2.0000      -6.028789      -164.0517
  24   2.0000      -1.005847       -27.3705
  25   2.0000      -0.983677       -26.7672
  26   2.0000      -0.913674       -24.8623
  27   2.0000      -0.909920       -24.7602
  28   2.0000      -0.873180       -23.7604
  29   2.0000      -0.848532       -23.0897
  30   2.0000      -0.846282       -23.0285
  31   2.0000      -0.813657       -22.1407
  32   2.0000      -0.779791       -21.2192
  33   2.0000      -0.766891       -20.8682
  34   2.0000      -0.708430       -19.2774
  35   2.0000      -0.697616       -18.9831
  36   2.0000      -0.689280       -18.7563
  37   2.0000      -0.661698       -18.0057
  38   2.0000      -0.644933       -17.5495
  39   2.0000      -0.613120       -16.6838
  40   2.0000      -0.595483       -16.2039
  41   2.0000      -0.575682       -15.6651
  42   2.0000      -0.567579       -15.4446
  43   2.0000      -0.558338       -15.1932
  44   2.0000      -0.522541       -14.2191
  45   2.0000      -0.516588       -14.0571
  46   2.0000      -0.514381       -13.9970
  47   2.0000      -0.508622       -13.8403
  48   2.0000      -0.503171       -13.6920
  49   2.0000      -0.500540       -13.6204
  50   2.0000      -0.490386       -13.3441
  51   2.0000      -0.476033       -12.9535
  52   2.0000      -0.470865       -12.8129
  53   2.0000      -0.467525       -12.7220
  54   2.0000      -0.460396       -12.5280
  55   2.0000      -0.445874       -12.1328
  56   2.0000      -0.443060       -12.0563
  57   2.0000      -0.439220       -11.9518
  58   2.0000      -0.434869       -11.8334
  59   2.0000      -0.427008       -11.6195
  60   2.0000      -0.425489       -11.5782
  61   2.0000      -0.413212       -11.2441
  62   2.0000      -0.412625       -11.2281
  63   2.0000      -0.335906        -9.1405
  64   2.0000      -0.327816        -8.9203
  65   2.0000      -0.321122        -8.7382
  66   2.0000      -0.302259        -8.2249
  67   0.0000       0.044700         1.2164
  68   0.0000       0.052787         1.4364
  69   0.0000       0.105548         2.8721
  70   0.0000       0.126492         3.4420
  71   0.0000       0.129963         3.5365

MULLIKEN ATOMIC CHARGES
-----------------------
   0 S :    0.112387
   1 C :   -0.128334
   2 C :   -0.073610
   3 C :    0.027423
   4 C :   -0.201680
   5 H :    0.029766
   6 C :    0.062803
   7 H :    0.007392
   8 H :    0.043451
   9 C :   -0.079583
  10 H :    0.037042
  11 H :    0.034284
  12 C :   -0.047194
  13 H :    0.037198
  14 H :    0.044888
  15 H :    0.025623
  16 S :    0.137177
  17 C :   -0.062412
  18 C :   -0.044827
  19 C :    0.003568
  20 C :   -0.187289
  21 H :    0.001394
  22 C :    0.065912
  23 H :    0.028068
  24 H :    0.029340
  25 C :   -0.086793
  26 H :    0.023502
  27 H :    0.029227
  28 C :   -0.061162
  29 H :    0.033390
  30 H :    0.041951
  31 H :    0.025341
  32 H :    0.050953
  33 H :    0.040807
Sum of atomic charges:    0.0000000

LOEWDIN ATOMIC CHARGES
----------------------
   0 S :    0.384352
   1 C :   -0.198717
   2 C :   -0.070742
   3 C :   -0.055160
   4 C :   -0.189363
   5 H :    0.036066
   6 C :   -0.034600
   7 H :    0.028774
   8 H :    0.032840
   9 C :   -0.041425
  10 H :    0.028600
  11 H :    0.026828
  12 C :   -0.073907
  13 H :    0.030662
  14 H :    0.031692
  15 H :    0.026830
  16 S :    0.447098
  17 C :   -0.198052
  18 C :   -0.067836
  19 C :   -0.048028
  20 C :   -0.218591
  21 H :    0.022930
  22 C :   -0.038175
  23 H :    0.034305
  24 H :    0.032990
  25 C :   -0.032813
  26 H :    0.019595
  27 H :    0.024513
  28 C :   -0.076394
  29 H :    0.028066
  30 H :    0.027769
  31 H :    0.026675
  32 H :    0.028735
  33 H :    0.024483

  Mayer bond orders larger than 0.100000
B(  0-S ,  1-C ) :   1.1441 B(  0-S ,  4-C ) :   1.1031 B(  1-C ,  2-C ) :   1.6593
B(  1-C , 32-H ) :   0.9567 B(  2-C ,  3-C ) :   1.1680 B(  2-C ,  6-C ) :   1.0306
B(  3-C ,  4-C ) :   1.6414 B(  3-C ,  5-H ) :   0.9851 B(  4-C , 20-C ) :   1.0385
B(  6-C ,  7-H ) :   0.9385 B(  6-C ,  8-H ) :   0.9380 B(  6-C ,  9-C ) :   1.0444
B(  9-C , 10-H ) :   0.9572 B(  9-C , 11-H ) :   0.9537 B(  9-C , 12-C ) :   1.0979
B( 12-C , 13-H ) :   0.9703 B( 12-C , 14-H ) :   0.9719 B( 12-C , 15-H ) :   0.9711
B( 16-S , 17-C ) :   1.1805 B( 16-S , 20-C ) :   1.1549 B( 17-C , 18-C ) :   1.5831
B( 17-C , 33-H ) :   0.9660 B( 18-C , 19-C ) :   1.2640 B( 18-C , 21-H ) :   0.9959
B( 19-C , 20-C ) :   1.5510 B( 19-C , 22-C ) :   1.0735 B( 22-C , 23-H ) :   0.9258
B( 22-C , 24-H ) :   0.9313 B( 22-C , 25-C ) :   1.0611 B( 25-C , 26-H ) :   0.9574
B( 25-C , 27-H ) :   0.9540 B( 25-C , 28-C ) :   1.0783 B( 28-C , 29-H ) :   0.9738
B( 28-C , 30-H ) :   0.9760 B( 28-C , 31-H ) :   0.9722

Dispersion correction           -0.014261665
FINAL SINGLE POINT ENERGY     -1339.880744944448

DIPOLE MOMENT
-------------
                                X             Y             Z
Electronic contribution:    -14.28683      -4.92787     -18.51823
Nuclear contribution   :     14.47886       5.09600      19.16463
                        -----------------------------------------
Total Dipole Moment    :      0.19202       0.16813       0.64641
                        -----------------------------------------
Magnitude (a.u.)       :      0.69497
Magnitude (Debye)      :      1.76647

Rotational constants in cm-1:     0.017439     0.008064     0.007217
Rotational constants in MHz :   522.796046   241.744637   216.371501

                             ****ORCA TERMINATED NORMALLY****
TOTAL RUN TIME: 0 days 0 hours 0 minutes 21 seconds 289 msec
