                         Program Version 4.2.1 -  RELEASE  -
|  1> ! wB97X-D3 SP def2-SVP
|  2> %pal
|  3> nprocs 24
|  4> end
|  5>
|  6> * xyz 0 1
|  7> S 	 -119.968 	 51.8504 	 -31.7924
|  8> C 	 -120.453 	 50.2735 	 -32.3703
|  9> C 	 -121.713 	 49.9173 	 -31.9379
| 10> C 	 -122.388 	 51.0525 	 -31.371
| 11> C 	 -121.592 	 52.134 	 -31.1873
| 12> H 	 -123.38 	 51.186 	 -30.9774
| 13> C 	 -122.404 	 48.5711 	 -32.1975
| 14> H 	 -123.042 	 48.2199 	 -31.345
| 15> H 	 -121.631 	 47.7663 	 -32.2616
| 16> C 	 -123.22 	 48.4745 	 -33.5238
| 17> H 	 -123.962 	 47.6962 	 -33.2533
| 18> H 	 -123.793 	 49.292 	 -33.6522
| 19> C 	 -122.512 	 48.0513 	 -34.8266
| 20> H 	 -122.076 	 48.9024 	 -35.3029
| 21> H 	 -121.845 	 47.2343 	 -34.7228
| 22> H 	 -123.12 	 47.8336 	 -35.6091
| 23> S 	 -120.763 	 54.1969 	 -29.5626
| 24> C 	 -121.866 	 55.5139 	 -29.1497
| 25> C 	 -122.951 	 55.3481 	 -29.9253
| 26> C 	 -123.116 	 54.1527 	 -30.6384
| 27> C 	 -121.997 	 53.3728 	 -30.5276
| 28> H 	 -123.593 	 56.1614 	 -30.0511
| 29> C 	 -124.286 	 53.9073 	 -31.6313
| 30> H 	 -124.071 	 53.0461 	 -32.2414
| 31> H 	 -124.182 	 54.7497 	 -32.3385
| 32> C 	 -125.691 	 53.8374 	 -31.0445
| 33> H 	 -126 	 54.8011 	 -30.6532
| 34> H 	 -125.756 	 53.0187 	 -30.2712
| 35> C 	 -126.687 	 53.512 	 -32.1694
| 36> H 	 -127.645 	 53.6252 	 -31.7871
| 37> H 	 -126.576 	 52.5078 	 -32.6133
| 38> H 	 -126.774 	 54.3353 	 -32.9403
| 39> H 	 -119.768 	 49.6885 	 -32.9814
| 40> H 	 -121.579 	 56.4939 	 -28.7693
| 41> *
| 42>
| 43>                          ****END OF INPUT****

CARTESIAN COORDINATES (ANGSTROEM)
---------------------------------
  S    -119.968000   51.850400  -31.792400
  C    -120.453000   50.273500  -32.370300
  C    -121.713000   49.917300  -31.937900
  C    -122.388000   51.052500  -31.371000
  C    -121.592000   52.134000  -31.187300
  H    -123.380000   51.186000  -30.977400
  C    -122.404000   48.571100  -32.197500
  H    -123.042000   48.219900  -31.345000
  H    -121.631000   47.766300  -32.261600
  C    -123.220000   48.474500  -33.523800
  H    -123.962000   47.696200  -33.253300
  H    -123.793000   49.292000  -33.652200
  C    -122.512000   48.051300  -34.826600
  H    -122.076000   48.902400  -35.302900
  H    -121.845000   47.234300  -34.722800
  H    -123.120000   47.833600  -35.609100
  S    -120.763000   54.196900  -29.562600
  C    -121.866000   55.513900  -29.149700
  C    -122.951000   55.348100  -29.925300
  C    -123.116000   54.152700  -30.638400
  C    -121.997000   53.372800  -30.527600
  H    -123.593000   56.161400  -30.051100
  C    -124.286000   53.907300  -31.631300
  H    -124.071000   53.046100  -32.241400
  H    -124.182000   54.749700  -32.338500
  C    -125.691000   53.837400  -31.044500
  H    -126.000000   54.801100  -30.653200
  H    -125.756000   53.018700  -30.271200
  C    -126.687000   53.512000  -32.169400
  H    -127.645000   53.625200  -31.787100
  H    -126.576000   52.507800  -32.613300
  H    -126.774000   54.335300  -32.940300
  H    -119.768000   49.688500  -32.981400
  H    -121.579000   56.493900  -28.769300

 Total Charge           Charge          ....    0
 Multiplicity           Mult            ....    1
 Number of Electrons    NEL             ....  134
 Basis Dimension        Dim             ....  322

ORBITAL ENERGIES
----------------

  NO   OCC          E(Eh)            E(eV)
   0   2.0000     -88.965453     -2420.8730
   1   2.0000     -88.959033     -2420.6983
   2   2.0000     -10.326918      -281.0097
   3   2.0000     -10.325586      -280.9735
   4   2.0000     -10.316276      -280.7201
   5   2.0000     -10.312160      -280.6081
   6   2.0000     -10.306449      -280.4527
   7   2.0000     -10.301804      -280.3263
   8   2.0000     -10.298139      -280.2266
   9   2.0000     -10.293898      -280.1112
  10   2.0000     -10.293834      -280.1095
  11   2.0000     -10.290906      -280.0298
  12   2.0000     -10.282708      -279.8067
  13   2.0000     -10.282698      -279.8064
  14   2.0000     -10.279386      -279.7163
  15   2.0000     -10.267173      -279.3840
  16   2.0000      -8.080320      -219.8767
  17   2.0000      -8.073679      -219.6960
  18   2.0000      -6.038825      -164.3248
  19   2.0000      -6.034905      -164.2181
  20   2.0000      -6.032329      -164.1480
  21   2.0000      -6.030980      -164.1113
  22   2.0000      -6.028316      -164.0388
  23   2.0000      -6.024160      -163.9257
  24   2.0000      -1.009637       -27.4736
  25   2.0000      -0.987057       -26.8592
  26   2.0000      -0.909382       -24.7455
  27   2.0000      -0.906861       -24.6769
  28   2.0000      -0.873316       -23.7641
  29   2.0000      -0.854268       -23.2458
  30   2.0000      -0.845437       -23.0055
  31   2.0000      -0.819195       -22.2914
  32   2.0000      -0.787567       -21.4308
  33   2.0000      -0.777318       -21.1519
  34   2.0000      -0.711716       -19.3668
  35   2.0000      -0.700101       -19.0507
  36   2.0000      -0.697845       -18.9893
  37   2.0000      -0.662838       -18.0367
  38   2.0000      -0.646202       -17.5841
  39   2.0000      -0.618271       -16.8240
  40   2.0000      -0.596964       -16.2442
  41   2.0000      -0.571240       -15.5442
  42   2.0000      -0.570044       -15.5117
  43   2.0000      -0.549914       -14.9639
  44   2.0000      -0.534082       -14.5331
  45   2.0000      -0.525983       -14.3127
  46   2.0000      -0.521805       -14.1990
  47   2.0000      -0.513053       -13.9609
  48   2.0000      -0.504262       -13.7217
  49   2.0000      -0.495682       -13.4882
  50   2.0000      -0.488333       -13.2882
  51   2.0000      -0.485234       -13.2039
  52   2.0000      -0.476960       -12.9787
  53   2.0000      -0.468752       -12.7554
  54   2.0000      -0.461911       -12.5692
  55   2.0000      -0.449946       -12.2437
  56   2.0000      -0.440143       -11.9769
  57   2.0000      -0.438247       -11.9253
  58   2.0000      -0.433908       -11.8072
  59   2.0000      -0.432478       -11.7683
  60   2.0000      -0.427091       -11.6217
  61   2.0000      -0.410564       -11.1720
  62   2.0000      -0.407151       -11.0791
  63   2.0000      -0.357690        -9.7333
  64   2.0000      -0.332645        -9.0517
  65   2.0000      -0.326891        -8.8952
  66   2.0000      -0.289356        -7.8738
  67   0.0000       0.028362         0.7718
  68   0.0000       0.071572         1.9476
  69   0.0000       0.113490         3.0882
  70   0.0000       0.119873         3.2619
  71   0.0000       0.126605         3.4451

MULLIKEN ATOMIC CHARGES
-----------------------
   0 S :    0.109468
   1 C :   -0.133111
   2 C :   -0.036048
   3 C :    0.001627
   4 C :   -0.127029
   5 H :    0.007316
   6 C :    0.025795
   7 H :    0.042040
   8 H :    0.022650
   9 C :   -0.035579
  10 H :    0.020793
  11 H :   -0.003879
  12 C :    0.018782
  13 H :    0.015891
  14 H :    0.024748
  15 H :    0.000195
  16 S :    0.070332
  17 C :   -0.071081
  18 C :   -0.030750
  19 C :   -0.016516
  20 C :   -0.157390
  21 H :   -0.008036
  22 C :    0.050503
  23 H :    0.014187
  24 H :    0.033264
  25 C :   -0.071887
  26 H :    0.029239
  27 H :    0.044122
  28 C :   -0.041905
  29 H :    0.010765
  30 H :    0.044299
  31 H :    0.028017
  32 H :    0.054052
  33 H :    0.065128
Sum of atomic charges:    0.0000000

LOEWDIN ATOMIC CHARGES
----------------------
   0 S :    0.396281
   1 C :   -0.189010
   2 C :   -0.062046
   3 C :   -0.064470
   4 C :   -0.187563
   5 H :    0.031326
   6 C :   -0.034345
   7 H :    0.038249
   8 H :    0.032393
   9 C :   -0.029491
  10 H :    0.028358
  11 H :    0.006442
  12 C :   -0.059093
  13 H :    0.028196
  14 H :    0.022106
  15 H :    0.018299
  16 S :    0.377037
  17 C :   -0.186130
  18 C :   -0.064063
  19 C :   -0.067133
  20 C :   -0.176350
  21 H :    0.019533
  22 C :   -0.030224
  23 H :    0.024909
  24 H :    0.036936
  25 C :   -0.037985
  26 H :    0.024306
  27 H :    0.031467
  28 C :   -0.069135
  29 H :    0.016147
  30 H :    0.027767
  31 H :    0.032042
  32 H :    0.028582
  33 H :    0.036663

  Mayer bond orders larger than 0.100000
B(  0-S ,  1-C ) :   1.1376 B(  0-S ,  4-C ) :   1.1298 B(  1-C ,  2-C ) :   1.6168
B(  1-C , 32-H ) :   0.9710 B(  2-C ,  3-C ) :   1.1957 B(  2-C ,  6-C ) :   1.0315
B(  3-C ,  4-C ) :   1.6107 B(  3-C ,  5-H ) :   0.9978 B(  4-C , 20-C ) :   1.0482
B(  6-C ,  7-H ) :   0.9489 B(  6-C ,  8-H ) :   0.9423 B(  6-C ,  9-C ) :   1.0564
B(  9-C , 10-H ) :   0.9563 B(  9-C , 11-H ) :   0.9574 B(  9-C , 12-C ) :   1.0875
B( 12-C , 13-H ) :   0.9666 B( 12-C , 14-H ) :   0.9750 B( 12-C , 15-H ) :   0.9636
B( 16-S , 17-C ) :   1.1204 B( 16-S , 20-C ) :   1.1384 B( 17-C , 18-C ) :   1.6384
B( 17-C , 33-H ) :   0.9620 B( 18-C , 19-C ) :   1.2467 B( 18-C , 21-H ) :   0.9885
B( 19-C , 20-C ) :   1.5983 B( 19-C , 22-C ) :   1.0241 B( 22-C , 23-H ) :   0.9394
B( 22-C , 24-H ) :   0.9349 B( 22-C , 25-C ) :   1.0643 B( 25-C , 26-H ) :   0.9509
B( 25-C , 27-H ) :   0.9552 B( 25-C , 28-C ) :   1.0949 B( 28-C , 29-H ) :   0.9703
B( 28-C , 30-H ) :   0.9743 B( 28-C , 31-H ) :   0.9692

Dispersion correction           -0.013781248
FINAL SINGLE POINT ENERGY     -1339.857900459994

DIPOLE MOMENT
-------------
                                X             Y             Z
Electronic contribution:     24.57129      12.66957      14.72824
Nuclear contribution   :    -25.28866     -12.78421     -15.23790
                        -----------------------------------------
Total Dipole Moment    :     -0.71737      -0.11464      -0.50966
                        -----------------------------------------
Magnitude (a.u.)       :      0.88742
Magnitude (Debye)      :      2.25563

Rotational constants in cm-1:     0.017369     0.009088     0.006310
Rotational constants in MHz :   520.700265   272.450812   189.183473

                             ****ORCA TERMINATED NORMALLY****
TOTAL RUN TIME: 0 days 0 hours 0 minutes 21 seconds 318 msec
