                         Program Version 4.2.1 -  RELEASE  -
|  1> ! wB97X-D3 SP def2-SVP
|  2> %pal
|  3> nprocs 24
|  4> end
|  5>
|  6> * xyz 0 1
|  7> S 	 42.1428 	 -19.6259 	 -106.178
|  8> C 	 41.3518 	 -19.7469 	 -107.719
|  9> C 	 39.962 	 -19.6831 	 -107.542
| 10> C 	 39.5625 	 -19.5484 	 -106.189
| 11> C 	 40.6787 	 -19.3451 	 -105.34
| 12> H 	 38.568 	 -19.569 	 -105.737
| 13> C 	 38.8842 	 -19.9411 	 -108.62
| 14> H 	 39.3326 	 -19.8423 	 -109.586
| 15> H 	 38.1766 	 -19.1041 	 -108.402
| 16> C 	 38.1506 	 -21.2672 	 -108.625
| 17> H 	 37.8119 	 -21.4053 	 -109.653
| 18> H 	 39.0054 	 -21.9424 	 -108.505
| 19> C 	 37.0803 	 -21.5384 	 -107.552
| 20> H 	 36.1849 	 -20.9586 	 -107.742
| 21> H 	 36.8547 	 -22.5975 	 -107.592
| 22> H 	 37.5007 	 -21.3478 	 -106.629
| 23> S 	 40.3578 	 -17.2902 	 -103.582
| 24> C 	 40.4574 	 -17.5462 	 -101.86
| 25> C 	 41.0198 	 -18.7678 	 -101.597
| 26> C 	 41.0658 	 -19.6338 	 -102.74
| 27> C 	 40.6903 	 -19.0053 	 -103.92
| 28> H 	 41.2777 	 -18.9515 	 -100.629
| 29> C 	 41.5261 	 -21.0778 	 -102.618
| 30> H 	 42.6631 	 -21.1247 	 -102.779
| 31> H 	 41.0222 	 -21.4931 	 -103.437
| 32> C 	 41.2203 	 -21.6943 	 -101.296
| 33> H 	 40.1356 	 -21.4835 	 -101.151
| 34> H 	 41.7243 	 -21.1327 	 -100.557
| 35> C 	 41.3514 	 -23.1711 	 -101.153
| 36> H 	 40.7205 	 -23.569 	 -101.966
| 37> H 	 40.9913 	 -23.5572 	 -100.148
| 38> H 	 42.3433 	 -23.4286 	 -101.488
| 39> H 	 41.8605 	 -20.0066 	 -108.637
| 40> H 	 40.3793 	 -16.8301 	 -101.034
| 41> *
| 42>
| 43>                          ****END OF INPUT****

CARTESIAN COORDINATES (ANGSTROEM)
---------------------------------
  S     42.142800  -19.625900  -106.178000
  C     41.351800  -19.746900  -107.719000
  C     39.962000  -19.683100  -107.542000
  C     39.562500  -19.548400  -106.189000
  C     40.678700  -19.345100  -105.340000
  H     38.568000  -19.569000  -105.737000
  C     38.884200  -19.941100  -108.620000
  H     39.332600  -19.842300  -109.586000
  H     38.176600  -19.104100  -108.402000
  C     38.150600  -21.267200  -108.625000
  H     37.811900  -21.405300  -109.653000
  H     39.005400  -21.942400  -108.505000
  C     37.080300  -21.538400  -107.552000
  H     36.184900  -20.958600  -107.742000
  H     36.854700  -22.597500  -107.592000
  H     37.500700  -21.347800  -106.629000
  S     40.357800  -17.290200  -103.582000
  C     40.457400  -17.546200  -101.860000
  C     41.019800  -18.767800  -101.597000
  C     41.065800  -19.633800  -102.740000
  C     40.690300  -19.005300  -103.920000
  H     41.277700  -18.951500  -100.629000
  C     41.526100  -21.077800  -102.618000
  H     42.663100  -21.124700  -102.779000
  H     41.022200  -21.493100  -103.437000
  C     41.220300  -21.694300  -101.296000
  H     40.135600  -21.483500  -101.151000
  H     41.724300  -21.132700  -100.557000
  C     41.351400  -23.171100  -101.153000
  H     40.720500  -23.569000  -101.966000
  H     40.991300  -23.557200  -100.148000
  H     42.343300  -23.428600  -101.488000
  H     41.860500  -20.006600  -108.637000
  H     40.379300  -16.830100  -101.034000

 Total Charge           Charge          ....    0
 Multiplicity           Mult            ....    1
 Number of Electrons    NEL             ....  134
 Basis Dimension        Dim             ....  322

ORBITAL ENERGIES
----------------

  NO   OCC          E(Eh)            E(eV)
   0   2.0000     -88.968770     -2420.9633
   1   2.0000     -88.961604     -2420.7683
   2   2.0000     -10.329608      -281.0829
   3   2.0000     -10.326733      -281.0047
   4   2.0000     -10.316569      -280.7281
   5   2.0000     -10.315087      -280.6878
   6   2.0000     -10.305017      -280.4138
   7   2.0000     -10.303864      -280.3824
   8   2.0000     -10.298220      -280.2288
   9   2.0000     -10.289678      -279.9964
  10   2.0000     -10.288647      -279.9683
  11   2.0000     -10.284289      -279.8497
  12   2.0000     -10.283689      -279.8334
  13   2.0000     -10.280811      -279.7551
  14   2.0000     -10.276826      -279.6466
  15   2.0000     -10.273134      -279.5462
  16   2.0000      -8.084074      -219.9788
  17   2.0000      -8.076082      -219.7614
  18   2.0000      -6.042398      -164.4220
  19   2.0000      -6.038340      -164.3116
  20   2.0000      -6.035160      -164.2251
  21   2.0000      -6.034674      -164.2118
  22   2.0000      -6.030673      -164.1030
  23   2.0000      -6.026685      -163.9944
  24   2.0000      -1.007414       -27.4131
  25   2.0000      -0.985104       -26.8060
  26   2.0000      -0.919255       -25.0142
  27   2.0000      -0.912528       -24.8312
  28   2.0000      -0.870309       -23.6823
  29   2.0000      -0.850966       -23.1560
  30   2.0000      -0.847711       -23.0674
  31   2.0000      -0.816170       -22.2091
  32   2.0000      -0.789342       -21.4791
  33   2.0000      -0.772469       -21.0200
  34   2.0000      -0.704344       -19.1662
  35   2.0000      -0.700282       -19.0556
  36   2.0000      -0.696763       -18.9599
  37   2.0000      -0.651611       -17.7312
  38   2.0000      -0.644211       -17.5299
  39   2.0000      -0.613778       -16.7017
  40   2.0000      -0.592185       -16.1142
  41   2.0000      -0.578958       -15.7542
  42   2.0000      -0.573439       -15.6041
  43   2.0000      -0.548837       -14.9346
  44   2.0000      -0.544964       -14.8292
  45   2.0000      -0.533298       -14.5118
  46   2.0000      -0.523225       -14.2377
  47   2.0000      -0.515990       -14.0408
  48   2.0000      -0.509191       -13.8558
  49   2.0000      -0.495885       -13.4937
  50   2.0000      -0.489148       -13.3104
  51   2.0000      -0.486104       -13.2276
  52   2.0000      -0.476199       -12.9580
  53   2.0000      -0.466027       -12.6812
  54   2.0000      -0.462287       -12.5795
  55   2.0000      -0.449028       -12.2187
  56   2.0000      -0.444522       -12.0961
  57   2.0000      -0.432013       -11.7557
  58   2.0000      -0.429905       -11.6983
  59   2.0000      -0.427661       -11.6372
  60   2.0000      -0.419649       -11.4192
  61   2.0000      -0.408898       -11.1267
  62   2.0000      -0.406521       -11.0620
  63   2.0000      -0.334241        -9.0952
  64   2.0000      -0.328146        -8.9293
  65   2.0000      -0.323736        -8.8093
  66   2.0000      -0.305920        -8.3245
  67   0.0000       0.034344         0.9346
  68   0.0000       0.059048         1.6068
  69   0.0000       0.113360         3.0847
  70   0.0000       0.116409         3.1677
  71   0.0000       0.130443         3.5495

MULLIKEN ATOMIC CHARGES
-----------------------
   0 S :    0.138608
   1 C :   -0.125283
   2 C :   -0.096584
   3 C :    0.034863
   4 C :   -0.206002
   5 H :    0.029142
   6 C :    0.065887
   7 H :    0.011857
   8 H :    0.031078
   9 C :   -0.081563
  10 H :    0.028921
  11 H :    0.019789
  12 C :    0.005549
  13 H :    0.036788
  14 H :    0.032405
  15 H :    0.011279
  16 S :    0.107203
  17 C :   -0.081148
  18 C :   -0.024628
  19 C :   -0.044152
  20 C :   -0.173597
  21 H :   -0.018189
  22 C :    0.110558
  23 H :    0.048318
  24 H :    0.009964
  25 C :   -0.132585
  26 H :    0.025715
  27 H :    0.023850
  28 C :    0.007481
  29 H :    0.020903
  30 H :    0.056735
  31 H :    0.017353
  32 H :    0.050861
  33 H :    0.058622
Sum of atomic charges:    0.0000000

LOEWDIN ATOMIC CHARGES
----------------------
   0 S :    0.444342
   1 C :   -0.209403
   2 C :   -0.064635
   3 C :   -0.063896
   4 C :   -0.220531
   5 H :    0.036616
   6 C :   -0.031813
   7 H :    0.025650
   8 H :    0.032369
   9 C :   -0.042606
  10 H :    0.024844
  11 H :    0.025649
  12 C :   -0.053076
  13 H :    0.027176
  14 H :    0.031377
  15 H :    0.013424
  16 S :    0.400318
  17 C :   -0.184296
  18 C :   -0.066959
  19 C :   -0.048719
  20 C :   -0.201537
  21 H :    0.013770
  22 C :   -0.030774
  23 H :    0.040906
  24 H :    0.022164
  25 C :   -0.052843
  26 H :    0.028427
  27 H :    0.013811
  28 C :   -0.063171
  29 H :    0.029115
  30 H :    0.038978
  31 H :    0.020845
  32 H :    0.028664
  33 H :    0.035814

  Mayer bond orders larger than 0.100000
B(  0-S ,  1-C ) :   1.1590 B(  0-S ,  4-C ) :   1.1922 B(  1-C ,  2-C ) :   1.5633
B(  1-C ,  4-C ) :   0.1092 B(  1-C , 32-H ) :   0.9726 B(  2-C ,  3-C ) :   1.2675
B(  2-C ,  6-C ) :   1.0242 B(  3-C ,  4-C ) :   1.5294 B(  3-C ,  5-H ) :   0.9883
B(  4-C , 20-C ) :   1.0188 B(  6-C ,  7-H ) :   0.9409 B(  6-C ,  8-H ) :   0.9386
B(  6-C ,  9-C ) :   1.0661 B(  9-C , 10-H ) :   0.9582 B(  9-C , 11-H ) :   0.9517
B(  9-C , 12-C ) :   1.0778 B( 12-C , 13-H ) :   0.9760 B( 12-C , 14-H ) :   0.9699
B( 12-C , 15-H ) :   0.9707 B( 16-S , 17-C ) :   1.1536 B( 16-S , 20-C ) :   1.1362
B( 17-C , 18-C ) :   1.6324 B( 17-C , 33-H ) :   0.9593 B( 18-C , 19-C ) :   1.2157
B( 18-C , 21-H ) :   1.0010 B( 19-C , 20-C ) :   1.6107 B( 19-C , 22-C ) :   1.0331
B( 22-C , 23-H ) :   0.9183 B( 22-C , 24-H ) :   0.9261 B( 22-C , 25-C ) :   1.0841
B( 25-C , 26-H ) :   0.9580 B( 25-C , 27-H ) :   0.9418 B( 25-C , 28-C ) :   1.0856
B( 28-C , 29-H ) :   0.9696 B( 28-C , 30-H ) :   0.9704 B( 28-C , 31-H ) :   0.9676

Dispersion correction           -0.013952557
FINAL SINGLE POINT ENERGY     -1339.861917819415

DIPOLE MOMENT
-------------
                                X             Y             Z
Electronic contribution:     10.74260      20.65041      -0.57837
Nuclear contribution   :    -10.88343     -21.11369       0.63675
                        -----------------------------------------
Total Dipole Moment    :     -0.14083      -0.46328       0.05838
                        -----------------------------------------
Magnitude (a.u.)       :      0.48772
Magnitude (Debye)      :      1.23969

Rotational constants in cm-1:     0.017877     0.008032     0.006982
Rotational constants in MHz :   535.950839   240.803890   209.313688

                             ****ORCA TERMINATED NORMALLY****
TOTAL RUN TIME: 0 days 0 hours 0 minutes 21 seconds 306 msec
