                         Program Version 4.2.1 -  RELEASE  -
|  1> ! wB97X-D3 SP def2-SVP
|  2> %pal
|  3> nprocs 24
|  4> end
|  5>
|  6> * xyz 0 1
|  7> S 	 -50.432 	 -50.1981 	 -78.4966
|  8> C 	 -50.0392 	 -50.0713 	 -80.1642
|  9> C 	 -50.8206 	 -49.1973 	 -80.8878
| 10> C 	 -51.8514 	 -48.6686 	 -80.0403
| 11> C 	 -51.81 	 -49.1284 	 -78.7122
| 12> H 	 -52.5785 	 -47.9734 	 -80.4043
| 13> C 	 -50.7269 	 -48.6364 	 -82.3334
| 14> H 	 -51.6952 	 -48.8194 	 -82.8347
| 15> H 	 -49.9736 	 -49.229 	 -82.8576
| 16> C 	 -50.4158 	 -47.1144 	 -82.4061
| 17> H 	 -50.5559 	 -46.7813 	 -83.4635
| 18> H 	 -50.9413 	 -46.5334 	 -81.653
| 19> C 	 -48.9054 	 -46.9097 	 -81.9002
| 20> H 	 -48.6423 	 -47.3603 	 -80.9227
| 21> H 	 -48.2662 	 -47.3159 	 -82.6958
| 22> H 	 -48.7653 	 -45.8126 	 -82.0075
| 23> S 	 -51.5864 	 -48.4378 	 -76.0826
| 24> C 	 -52.9034 	 -47.6862 	 -75.2618
| 25> C 	 -53.9919 	 -47.4882 	 -76.1008
| 26> C 	 -53.72 	 -47.9113 	 -77.4622
| 27> C 	 -52.5161 	 -48.5561 	 -77.5819
| 28> H 	 -54.9059 	 -47.0661 	 -75.6676
| 29> C 	 -54.8741 	 -47.7896 	 -78.4631
| 30> H 	 -54.3832 	 -47.2872 	 -79.2783
| 31> H 	 -55.4674 	 -47.0042 	 -77.9997
| 32> C 	 -55.5096 	 -49.0929 	 -78.8923
| 33> H 	 -55.986 	 -49.5166 	 -78.0358
| 34> H 	 -54.8188 	 -49.8425 	 -79.0809
| 35> C 	 -56.4688 	 -48.9622 	 -80.0831
| 36> H 	 -56.0225 	 -48.9539 	 -81.0867
| 37> H 	 -56.9495 	 -48.0094 	 -80.0882
| 38> H 	 -57.2068 	 -49.7383 	 -80.0814
| 39> H 	 -49.3312 	 -50.7376 	 -80.5337
| 40> H 	 -52.9052 	 -47.4328 	 -74.2411
| 41> *
| 42>
| 43>                          ****END OF INPUT****

CARTESIAN COORDINATES (ANGSTROEM)
---------------------------------
  S    -50.432000  -50.198100  -78.496600
  C    -50.039200  -50.071300  -80.164200
  C    -50.820600  -49.197300  -80.887800
  C    -51.851400  -48.668600  -80.040300
  C    -51.810000  -49.128400  -78.712200
  H    -52.578500  -47.973400  -80.404300
  C    -50.726900  -48.636400  -82.333400
  H    -51.695200  -48.819400  -82.834700
  H    -49.973600  -49.229000  -82.857600
  C    -50.415800  -47.114400  -82.406100
  H    -50.555900  -46.781300  -83.463500
  H    -50.941300  -46.533400  -81.653000
  C    -48.905400  -46.909700  -81.900200
  H    -48.642300  -47.360300  -80.922700
  H    -48.266200  -47.315900  -82.695800
  H    -48.765300  -45.812600  -82.007500
  S    -51.586400  -48.437800  -76.082600
  C    -52.903400  -47.686200  -75.261800
  C    -53.991900  -47.488200  -76.100800
  C    -53.720000  -47.911300  -77.462200
  C    -52.516100  -48.556100  -77.581900
  H    -54.905900  -47.066100  -75.667600
  C    -54.874100  -47.789600  -78.463100
  H    -54.383200  -47.287200  -79.278300
  H    -55.467400  -47.004200  -77.999700
  C    -55.509600  -49.092900  -78.892300
  H    -55.986000  -49.516600  -78.035800
  H    -54.818800  -49.842500  -79.080900
  C    -56.468800  -48.962200  -80.083100
  H    -56.022500  -48.953900  -81.086700
  H    -56.949500  -48.009400  -80.088200
  H    -57.206800  -49.738300  -80.081400
  H    -49.331200  -50.737600  -80.533700
  H    -52.905200  -47.432800  -74.241100

 Total Charge           Charge          ....    0
 Multiplicity           Mult            ....    1
 Number of Electrons    NEL             ....  134
 Basis Dimension        Dim             ....  322

ORBITAL ENERGIES
----------------

  NO   OCC          E(Eh)            E(eV)
   0   2.0000     -88.968273     -2420.9498
   1   2.0000     -88.962941     -2420.8047
   2   2.0000     -10.331879      -281.1447
   3   2.0000     -10.325535      -280.9721
   4   2.0000     -10.310607      -280.5659
   5   2.0000     -10.310570      -280.5649
   6   2.0000     -10.304639      -280.4035
   7   2.0000     -10.301008      -280.3047
   8   2.0000     -10.300326      -280.2861
   9   2.0000     -10.297531      -280.2101
  10   2.0000     -10.294332      -280.1230
  11   2.0000     -10.294179      -280.1189
  12   2.0000     -10.289312      -279.9864
  13   2.0000     -10.282054      -279.7889
  14   2.0000     -10.277207      -279.6570
  15   2.0000     -10.272937      -279.5408
  16   2.0000      -8.083559      -219.9648
  17   2.0000      -8.078089      -219.8160
  18   2.0000      -6.042041      -164.4123
  19   2.0000      -6.037994      -164.3022
  20   2.0000      -6.036682      -164.2665
  21   2.0000      -6.034320      -164.2022
  22   2.0000      -6.032538      -164.1537
  23   2.0000      -6.028740      -164.0503
  24   2.0000      -1.007875       -27.4257
  25   2.0000      -0.984183       -26.7810
  26   2.0000      -0.911625       -24.8066
  27   2.0000      -0.905151       -24.6304
  28   2.0000      -0.868541       -23.6342
  29   2.0000      -0.853020       -23.2119
  30   2.0000      -0.842957       -22.9380
  31   2.0000      -0.807957       -21.9856
  32   2.0000      -0.781245       -21.2587
  33   2.0000      -0.774047       -21.0629
  34   2.0000      -0.718207       -19.5434
  35   2.0000      -0.700177       -19.0528
  36   2.0000      -0.693118       -18.8607
  37   2.0000      -0.666514       -18.1368
  38   2.0000      -0.642313       -17.4782
  39   2.0000      -0.625152       -17.0113
  40   2.0000      -0.591516       -16.0960
  41   2.0000      -0.565541       -15.3891
  42   2.0000      -0.558045       -15.1852
  43   2.0000      -0.546422       -14.8689
  44   2.0000      -0.536792       -14.6069
  45   2.0000      -0.532791       -14.4980
  46   2.0000      -0.517487       -14.0815
  47   2.0000      -0.509228       -13.8568
  48   2.0000      -0.501147       -13.6369
  49   2.0000      -0.497963       -13.5503
  50   2.0000      -0.493834       -13.4379
  51   2.0000      -0.490216       -13.3395
  52   2.0000      -0.469410       -12.7733
  53   2.0000      -0.465209       -12.6590
  54   2.0000      -0.457532       -12.4501
  55   2.0000      -0.450077       -12.2472
  56   2.0000      -0.448687       -12.2094
  57   2.0000      -0.438368       -11.9286
  58   2.0000      -0.431685       -11.7467
  59   2.0000      -0.425669       -11.5830
  60   2.0000      -0.416444       -11.3320
  61   2.0000      -0.412627       -11.2281
  62   2.0000      -0.409382       -11.1398
  63   2.0000      -0.359635        -9.7862
  64   2.0000      -0.333066        -9.0632
  65   2.0000      -0.328464        -8.9380
  66   2.0000      -0.281823        -7.6688
  67   0.0000       0.024086         0.6554
  68   0.0000       0.076411         2.0792
  69   0.0000       0.105433         2.8690
  70   0.0000       0.118174         3.2157
  71   0.0000       0.138905         3.7798

MULLIKEN ATOMIC CHARGES
-----------------------
   0 S :    0.103524
   1 C :   -0.120600
   2 C :   -0.073690
   3 C :   -0.004888
   4 C :   -0.117685
   5 H :    0.003496
   6 C :    0.073716
   7 H :    0.038881
   8 H :    0.020987
   9 C :   -0.099220
  10 H :    0.050552
  11 H :    0.046958
  12 C :   -0.092865
  13 H :    0.070019
  14 H :    0.023847
  15 H :    0.037696
  16 S :    0.092444
  17 C :   -0.073269
  18 C :   -0.052404
  19 C :   -0.099600
  20 C :   -0.121454
  21 H :    0.027268
  22 C :    0.094591
  23 H :    0.008597
  24 H :    0.015022
  25 C :    0.005544
  26 H :    0.013612
  27 H :    0.016140
  28 C :   -0.026086
  29 H :    0.026832
  30 H :    0.016110
  31 H :    0.028309
  32 H :    0.028235
  33 H :    0.039382
Sum of atomic charges:   -0.0000000

LOEWDIN ATOMIC CHARGES
----------------------
   0 S :    0.414574
   1 C :   -0.196301
   2 C :   -0.060618
   3 C :   -0.056204
   4 C :   -0.191963
   5 H :    0.023366
   6 C :   -0.031114
   7 H :    0.032010
   8 H :    0.027010
   9 C :   -0.038538
  10 H :    0.032586
  11 H :    0.024445
  12 C :   -0.071817
  13 H :    0.033864
  14 H :    0.020416
  15 H :    0.027857
  16 S :    0.400829
  17 C :   -0.187052
  18 C :   -0.075606
  19 C :   -0.059489
  20 C :   -0.189971
  21 H :    0.034656
  22 C :   -0.027234
  23 H :    0.024237
  24 H :    0.031120
  25 C :   -0.033269
  26 H :    0.026365
  27 H :    0.022011
  28 C :   -0.061408
  29 H :    0.027318
  30 H :    0.020917
  31 H :    0.024407
  32 H :    0.012574
  33 H :    0.020024

  Mayer bond orders larger than 0.100000
B(  0-S ,  1-C ) :   1.1513 B(  0-S ,  4-C ) :   1.1484 B(  1-C ,  2-C ) :   1.5922
B(  1-C , 32-H ) :   0.9756 B(  2-C ,  3-C ) :   1.2646 B(  2-C ,  6-C ) :   1.0166
B(  3-C ,  4-C ) :   1.5408 B(  3-C ,  5-H ) :   0.9900 B(  4-C , 20-C ) :   1.0784
B(  6-C ,  7-H ) :   0.9407 B(  6-C ,  8-H ) :   0.9460 B(  6-C ,  9-C ) :   1.0585
B(  9-C , 10-H ) :   0.9570 B(  9-C , 11-H ) :   0.9627 B(  9-C , 12-C ) :   1.0544
B( 12-C , 13-H ) :   0.9760 B( 12-C , 14-H ) :   0.9780 B( 12-C , 15-H ) :   0.9773
B( 16-S , 17-C ) :   1.1547 B( 16-S , 20-C ) :   1.1237 B( 17-C , 18-C ) :   1.6225
B( 17-C , 33-H ) :   0.9716 B( 18-C , 19-C ) :   1.2277 B( 18-C , 21-H ) :   0.9867
B( 19-C , 20-C ) :   1.6186 B( 19-C , 22-C ) :   1.0287 B( 22-C , 23-H ) :   0.9254
B( 22-C , 24-H ) :   0.9264 B( 22-C , 25-C ) :   1.0630 B( 25-C , 26-H ) :   0.9493
B( 25-C , 27-H ) :   0.9520 B( 25-C , 28-C ) :   1.0752 B( 28-C , 29-H ) :   0.9744
B( 28-C , 30-H ) :   0.9760 B( 28-C , 31-H ) :   0.9753

Dispersion correction           -0.014548027
FINAL SINGLE POINT ENERGY     -1339.872202773987

DIPOLE MOMENT
-------------
                                X             Y             Z
Electronic contribution:     10.36733      -8.47502      21.75941
Nuclear contribution   :    -10.69646       8.73246     -22.22740
                        -----------------------------------------
Total Dipole Moment    :     -0.32913       0.25744      -0.46800
                        -----------------------------------------
Magnitude (a.u.)       :      0.62739
Magnitude (Debye)      :      1.59471

Rotational constants in cm-1:     0.016879     0.009555     0.007457
Rotational constants in MHz :   506.013729   286.459780   223.559428

                             ****ORCA TERMINATED NORMALLY****
TOTAL RUN TIME: 0 days 0 hours 0 minutes 22 seconds 47 msec
