                         Program Version 4.2.1 -  RELEASE  -
|  1> ! wB97X-D3 SP def2-SVP
|  2> %pal
|  3> nprocs 24
|  4> end
|  5>
|  6> * xyz 0 1
|  7> S 	 -130.66 	 26.0861 	 -19.8597
|  8> C 	 -129.186 	 25.0492 	 -19.8613
|  9> C 	 -128.055 	 25.8455 	 -19.8427
| 10> C 	 -128.386 	 27.2257 	 -19.6569
| 11> C 	 -129.746 	 27.5351 	 -19.5086
| 12> H 	 -127.619 	 27.9746 	 -19.3469
| 13> C 	 -126.655 	 25.2859 	 -19.6987
| 14> H 	 -125.842 	 25.9492 	 -20.0238
| 15> H 	 -126.461 	 24.449 	 -20.4114
| 16> C 	 -126.272 	 24.9208 	 -18.2435
| 17> H 	 -125.208 	 24.5661 	 -18.3731
| 18> H 	 -126.282 	 25.787 	 -17.6273
| 19> C 	 -126.919 	 23.647 	 -17.6219
| 20> H 	 -126.595 	 22.8031 	 -18.2136
| 21> H 	 -126.454 	 23.5596 	 -16.6272
| 22> H 	 -128.02 	 23.6154 	 -17.6156
| 23> S 	 -129.88 	 29.2865 	 -17.3827
| 24> C 	 -130.849 	 30.7099 	 -17.5342
| 25> C 	 -131.704 	 30.5948 	 -18.6211
| 26> C 	 -131.507 	 29.4029 	 -19.4092
| 27> C 	 -130.407 	 28.6911 	 -18.9808
| 28> H 	 -132.526 	 31.2901 	 -18.8355
| 29> C 	 -132.372 	 29.1744 	 -20.663
| 30> H 	 -131.925 	 28.2656 	 -21.1918
| 31> H 	 -132.346 	 30.0168 	 -21.3373
| 32> C 	 -133.845 	 28.8008 	 -20.3162
| 33> H 	 -134.247 	 29.535 	 -19.5948
| 34> H 	 -133.852 	 27.8418 	 -19.7663
| 35> C 	 -134.725 	 28.6351 	 -21.5551
| 36> H 	 -134.547 	 27.7386 	 -22.2555
| 37> H 	 -134.694 	 29.5846 	 -22.0684
| 38> H 	 -135.75 	 28.565 	 -21.196
| 39> H 	 -129.053 	 23.9778 	 -19.867
| 40> H 	 -130.981 	 31.4486 	 -16.8107
| 41> *
| 42>
| 43>                          ****END OF INPUT****

CARTESIAN COORDINATES (ANGSTROEM)
---------------------------------
  S    -130.660000   26.086100  -19.859700
  C    -129.186000   25.049200  -19.861300
  C    -128.055000   25.845500  -19.842700
  C    -128.386000   27.225700  -19.656900
  C    -129.746000   27.535100  -19.508600
  H    -127.619000   27.974600  -19.346900
  C    -126.655000   25.285900  -19.698700
  H    -125.842000   25.949200  -20.023800
  H    -126.461000   24.449000  -20.411400
  C    -126.272000   24.920800  -18.243500
  H    -125.208000   24.566100  -18.373100
  H    -126.282000   25.787000  -17.627300
  C    -126.919000   23.647000  -17.621900
  H    -126.595000   22.803100  -18.213600
  H    -126.454000   23.559600  -16.627200
  H    -128.020000   23.615400  -17.615600
  S    -129.880000   29.286500  -17.382700
  C    -130.849000   30.709900  -17.534200
  C    -131.704000   30.594800  -18.621100
  C    -131.507000   29.402900  -19.409200
  C    -130.407000   28.691100  -18.980800
  H    -132.526000   31.290100  -18.835500
  C    -132.372000   29.174400  -20.663000
  H    -131.925000   28.265600  -21.191800
  H    -132.346000   30.016800  -21.337300
  C    -133.845000   28.800800  -20.316200
  H    -134.247000   29.535000  -19.594800
  H    -133.852000   27.841800  -19.766300
  C    -134.725000   28.635100  -21.555100
  H    -134.547000   27.738600  -22.255500
  H    -134.694000   29.584600  -22.068400
  H    -135.750000   28.565000  -21.196000
  H    -129.053000   23.977800  -19.867000
  H    -130.981000   31.448600  -16.810700

 Total Charge           Charge          ....    0
 Multiplicity           Mult            ....    1
 Number of Electrons    NEL             ....  134
 Basis Dimension        Dim             ....  322

ORBITAL ENERGIES
----------------

  NO   OCC          E(Eh)            E(eV)
   0   2.0000     -88.967442     -2420.9272
   1   2.0000     -88.966542     -2420.9027
   2   2.0000     -10.331743      -281.1410
   3   2.0000     -10.329156      -281.0706
   4   2.0000     -10.318406      -280.7781
   5   2.0000     -10.314657      -280.6761
   6   2.0000     -10.304631      -280.4033
   7   2.0000     -10.302883      -280.3557
   8   2.0000     -10.300024      -280.2779
   9   2.0000     -10.297479      -280.2086
  10   2.0000     -10.297040      -280.1967
  11   2.0000     -10.295699      -280.1602
  12   2.0000     -10.291393      -280.0431
  13   2.0000     -10.289681      -279.9965
  14   2.0000     -10.281931      -279.7856
  15   2.0000     -10.280959      -279.7591
  16   2.0000      -8.081055      -219.8967
  17   2.0000      -8.080968      -219.8943
  18   2.0000      -6.039723      -164.3492
  19   2.0000      -6.039654      -164.3473
  20   2.0000      -6.035660      -164.2386
  21   2.0000      -6.035589      -164.2367
  22   2.0000      -6.031648      -164.1295
  23   2.0000      -6.031575      -164.1275
  24   2.0000      -1.004863       -27.3437
  25   2.0000      -0.980887       -26.6913
  26   2.0000      -0.910292       -24.7703
  27   2.0000      -0.903964       -24.5981
  28   2.0000      -0.869178       -23.6515
  29   2.0000      -0.848834       -23.0979
  30   2.0000      -0.840345       -22.8669
  31   2.0000      -0.809153       -22.0182
  32   2.0000      -0.785252       -21.3678
  33   2.0000      -0.774364       -21.0715
  34   2.0000      -0.710139       -19.3239
  35   2.0000      -0.693881       -18.8815
  36   2.0000      -0.690386       -18.7864
  37   2.0000      -0.665534       -18.1101
  38   2.0000      -0.631086       -17.1727
  39   2.0000      -0.614274       -16.7152
  40   2.0000      -0.597289       -16.2531
  41   2.0000      -0.574753       -15.6398
  42   2.0000      -0.562495       -15.3063
  43   2.0000      -0.542176       -14.7534
  44   2.0000      -0.539316       -14.6755
  45   2.0000      -0.521719       -14.1967
  46   2.0000      -0.518909       -14.1202
  47   2.0000      -0.515115       -14.0170
  48   2.0000      -0.507783       -13.8175
  49   2.0000      -0.501117       -13.6361
  50   2.0000      -0.482336       -13.1250
  51   2.0000      -0.477461       -12.9924
  52   2.0000      -0.472356       -12.8535
  53   2.0000      -0.467163       -12.7121
  54   2.0000      -0.461792       -12.5660
  55   2.0000      -0.447772       -12.1845
  56   2.0000      -0.440327       -11.9819
  57   2.0000      -0.430849       -11.7240
  58   2.0000      -0.429030       -11.6745
  59   2.0000      -0.421257       -11.4630
  60   2.0000      -0.418985       -11.4012
  61   2.0000      -0.415333       -11.3018
  62   2.0000      -0.409408       -11.1406
  63   2.0000      -0.345182        -9.3929
  64   2.0000      -0.331767        -9.0278
  65   2.0000      -0.328195        -8.9306
  66   2.0000      -0.292653        -7.9635
  67   0.0000       0.024166         0.6576
  68   0.0000       0.062351         1.6967
  69   0.0000       0.099860         2.7173
  70   0.0000       0.106950         2.9103
  71   0.0000       0.131198         3.5701

MULLIKEN ATOMIC CHARGES
-----------------------
   0 S :    0.105777
   1 C :   -0.110315
   2 C :   -0.074827
   3 C :    0.023569
   4 C :   -0.177045
   5 H :    0.028268
   6 C :    0.016615
   7 H :    0.027430
   8 H :    0.029446
   9 C :   -0.081623
  10 H :    0.033214
  11 H :    0.033378
  12 C :   -0.051108
  13 H :    0.020126
  14 H :    0.043625
  15 H :    0.044734
  16 S :    0.113975
  17 C :   -0.056689
  18 C :   -0.048137
  19 C :   -0.012805
  20 C :   -0.149472
  21 H :    0.025523
  22 C :    0.040771
  23 H :    0.031098
  24 H :    0.033911
  25 C :   -0.107253
  26 H :    0.030939
  27 H :    0.032411
  28 C :   -0.040678
  29 H :    0.059385
  30 H :    0.023099
  31 H :    0.029850
  32 H :    0.044781
  33 H :    0.038024
Sum of atomic charges:   -0.0000000

LOEWDIN ATOMIC CHARGES
----------------------
   0 S :    0.392826
   1 C :   -0.180431
   2 C :   -0.066603
   3 C :   -0.066917
   4 C :   -0.195289
   5 H :    0.035633
   6 C :   -0.043611
   7 H :    0.034636
   8 H :    0.033535
   9 C :   -0.035287
  10 H :    0.032890
  11 H :    0.018605
  12 C :   -0.067882
  13 H :    0.021344
  14 H :    0.033292
  15 H :    0.023110
  16 S :    0.405687
  17 C :   -0.182775
  18 C :   -0.070221
  19 C :   -0.054722
  20 C :   -0.191655
  21 H :    0.031704
  22 C :   -0.034196
  23 H :    0.029596
  24 H :    0.026878
  25 C :   -0.044778
  26 H :    0.023468
  27 H :    0.026401
  28 C :   -0.072508
  29 H :    0.039303
  30 H :    0.021574
  31 H :    0.027652
  32 H :    0.029462
  33 H :    0.019281

  Mayer bond orders larger than 0.100000
B(  0-S ,  1-C ) :   1.1255 B(  0-S ,  4-C ) :   1.1343 B(  1-C ,  2-C ) :   1.6225
B(  1-C , 32-H ) :   0.9639 B(  2-C ,  3-C ) :   1.2352 B(  2-C ,  6-C ) :   1.0358
B(  3-C ,  4-C ) :   1.5710 B(  3-C ,  5-H ) :   0.9866 B(  4-C , 20-C ) :   1.0699
B(  6-C ,  7-H ) :   0.9415 B(  6-C ,  8-H ) :   0.9412 B(  6-C ,  9-C ) :   1.0690
B(  9-C , 10-H ) :   0.9552 B(  9-C , 11-H ) :   0.9606 B(  9-C , 12-C ) :   1.0707
B( 12-C , 13-H ) :   0.9761 B( 12-C , 14-H ) :   0.9734 B( 12-C , 15-H ) :   0.9736
B( 16-S , 17-C ) :   1.1485 B( 16-S , 20-C ) :   1.1308 B( 17-C , 18-C ) :   1.6056
B( 17-C , 33-H ) :   0.9744 B( 18-C , 19-C ) :   1.2400 B( 18-C , 21-H ) :   0.9819
B( 19-C , 20-C ) :   1.5857 B( 19-C , 22-C ) :   1.0432 B( 22-C , 23-H ) :   0.9319
B( 22-C , 24-H ) :   0.9447 B( 22-C , 25-C ) :   1.0516 B( 25-C , 26-H ) :   0.9598
B( 25-C , 27-H ) :   0.9511 B( 25-C , 28-C ) :   1.0836 B( 28-C , 29-H ) :   0.9736
B( 28-C , 30-H ) :   0.9717 B( 28-C , 31-H ) :   0.9714

Dispersion correction           -0.014281434
FINAL SINGLE POINT ENERGY     -1339.873157274147

DIPOLE MOMENT
-------------
                                X             Y             Z
Electronic contribution:      0.50382       8.19959       5.22242
Nuclear contribution   :     -0.40476      -8.22329      -5.17910
                        -----------------------------------------
Total Dipole Moment    :      0.09906      -0.02369       0.04332
                        -----------------------------------------
Magnitude (a.u.)       :      0.11068
Magnitude (Debye)      :      0.28134

Rotational constants in cm-1:     0.022849     0.007789     0.006263
Rotational constants in MHz :   684.992614   233.502215   187.771206

                             ****ORCA TERMINATED NORMALLY****
TOTAL RUN TIME: 0 days 0 hours 0 minutes 21 seconds 984 msec
