                         Program Version 4.2.1 -  RELEASE  -
|  1> ! wB97X-D3 SP def2-SVP
|  2> %pal
|  3> nprocs 24
|  4> end
|  5>
|  6> * xyz 0 1
|  7> S 	 -41.0581 	 -7.31328 	 9.82511
|  8> C 	 -41.142 	 -8.14932 	 8.32482
|  9> C 	 -40.7338 	 -7.34451 	 7.31162
| 10> C 	 -40.5384 	 -6.03047 	 7.7387
| 11> C 	 -40.7816 	 -5.79687 	 9.07674
| 12> H 	 -40.2393 	 -5.15685 	 7.10239
| 13> C 	 -40.6584 	 -7.68092 	 5.85934
| 14> H 	 -40.0676 	 -8.58917 	 5.87842
| 15> H 	 -40.0166 	 -6.88726 	 5.39228
| 16> C 	 -42.0194 	 -7.98665 	 5.06955
| 17> H 	 -41.7498 	 -8.52908 	 4.19784
| 18> H 	 -42.6955 	 -8.59522 	 5.79497
| 19> C 	 -42.71 	 -6.65859 	 4.64753
| 20> H 	 -42.0647 	 -6.17465 	 4.00953
| 21> H 	 -43.7193 	 -6.8091 	 4.13142
| 22> H 	 -42.9272 	 -6.09919 	 5.5817
| 23> S 	 -40.3779 	 -4.80979 	 11.545
| 24> C 	 -40.2892 	 -3.08313 	 11.7408
| 25> C 	 -40.5542 	 -2.45424 	 10.5532
| 26> C 	 -40.8216 	 -3.2555 	 9.47422
| 27> C 	 -40.7492 	 -4.57705 	 9.85384
| 28> H 	 -40.4893 	 -1.37975 	 10.5295
| 29> C 	 -41.2316 	 -2.67534 	 8.10241
| 30> H 	 -42.1992 	 -2.18698 	 8.20762
| 31> H 	 -41.6329 	 -3.49566 	 7.45933
| 32> C 	 -40.3753 	 -1.59107 	 7.38187
| 33> H 	 -39.3351 	 -1.86237 	 7.2062
| 34> H 	 -40.2464 	 -0.731801 	 7.9598
| 35> C 	 -41.0018 	 -1.19237 	 6.05385
| 36> H 	 -40.4611 	 -0.418642 	 5.58278
| 37> H 	 -42.0157 	 -0.721924 	 6.22717
| 38> H 	 -41.1822 	 -1.85337 	 5.3321
| 39> H 	 -41.3477 	 -9.23571 	 8.27653
| 40> H 	 -40.0105 	 -2.56442 	 12.6391
| 41> *
| 42>
| 43>                          ****END OF INPUT****

CARTESIAN COORDINATES (ANGSTROEM)
---------------------------------
  S    -41.058100   -7.313280    9.825110
  C    -41.142000   -8.149320    8.324820
  C    -40.733800   -7.344510    7.311620
  C    -40.538400   -6.030470    7.738700
  C    -40.781600   -5.796870    9.076740
  H    -40.239300   -5.156850    7.102390
  C    -40.658400   -7.680920    5.859340
  H    -40.067600   -8.589170    5.878420
  H    -40.016600   -6.887260    5.392280
  C    -42.019400   -7.986650    5.069550
  H    -41.749800   -8.529080    4.197840
  H    -42.695500   -8.595220    5.794970
  C    -42.710000   -6.658590    4.647530
  H    -42.064700   -6.174650    4.009530
  H    -43.719300   -6.809100    4.131420
  H    -42.927200   -6.099190    5.581700
  S    -40.377900   -4.809790   11.545000
  C    -40.289200   -3.083130   11.740800
  C    -40.554200   -2.454240   10.553200
  C    -40.821600   -3.255500    9.474220
  C    -40.749200   -4.577050    9.853840
  H    -40.489300   -1.379750   10.529500
  C    -41.231600   -2.675340    8.102410
  H    -42.199200   -2.186980    8.207620
  H    -41.632900   -3.495660    7.459330
  C    -40.375300   -1.591070    7.381870
  H    -39.335100   -1.862370    7.206200
  H    -40.246400   -0.731801    7.959800
  C    -41.001800   -1.192370    6.053850
  H    -40.461100   -0.418642    5.582780
  H    -42.015700   -0.721924    6.227170
  H    -41.182200   -1.853370    5.332100
  H    -41.347700   -9.235710    8.276530
  H    -40.010500   -2.564420   12.639100

 Total Charge           Charge          ....    0
 Multiplicity           Mult            ....    1
 Number of Electrons    NEL             ....  134
 Basis Dimension        Dim             ....  322

ORBITAL ENERGIES
----------------

  NO   OCC          E(Eh)            E(eV)
   0   2.0000     -88.967121     -2420.9184
   1   2.0000     -88.960563     -2420.7400
   2   2.0000     -10.325824      -280.9800
   3   2.0000     -10.321866      -280.8723
   4   2.0000     -10.313003      -280.6311
   5   2.0000     -10.308288      -280.5028
   6   2.0000     -10.300643      -280.2947
   7   2.0000     -10.300295      -280.2853
   8   2.0000     -10.298270      -280.2302
   9   2.0000     -10.293178      -280.0916
  10   2.0000     -10.291261      -280.0394
  11   2.0000     -10.289875      -280.0017
  12   2.0000     -10.287241      -279.9301
  13   2.0000     -10.285655      -279.8869
  14   2.0000     -10.279531      -279.7203
  15   2.0000     -10.271071      -279.4900
  16   2.0000      -8.082349      -219.9319
  17   2.0000      -8.076898      -219.7836
  18   2.0000      -6.040780      -164.3780
  19   2.0000      -6.036907      -164.2726
  20   2.0000      -6.035313      -164.2292
  21   2.0000      -6.033048      -164.1676
  22   2.0000      -6.031201      -164.1173
  23   2.0000      -6.027654      -164.0208
  24   2.0000      -1.018477       -27.7142
  25   2.0000      -0.995059       -27.0769
  26   2.0000      -0.910992       -24.7894
  27   2.0000      -0.906614       -24.6702
  28   2.0000      -0.870435       -23.6858
  29   2.0000      -0.862473       -23.4691
  30   2.0000      -0.845950       -23.0195
  31   2.0000      -0.813667       -22.1410
  32   2.0000      -0.787251       -21.4222
  33   2.0000      -0.772768       -21.0281
  34   2.0000      -0.719024       -19.5656
  35   2.0000      -0.703988       -19.1565
  36   2.0000      -0.699108       -19.0237
  37   2.0000      -0.665467       -18.1083
  38   2.0000      -0.635142       -17.2831
  39   2.0000      -0.616741       -16.7824
  40   2.0000      -0.602140       -16.3851
  41   2.0000      -0.572086       -15.5672
  42   2.0000      -0.560014       -15.2388
  43   2.0000      -0.543902       -14.8003
  44   2.0000      -0.538846       -14.6628
  45   2.0000      -0.534117       -14.5341
  46   2.0000      -0.515270       -14.0212
  47   2.0000      -0.511895       -13.9294
  48   2.0000      -0.503811       -13.7094
  49   2.0000      -0.499026       -13.5792
  50   2.0000      -0.493304       -13.4235
  51   2.0000      -0.479986       -13.0611
  52   2.0000      -0.477669       -12.9980
  53   2.0000      -0.467583       -12.7236
  54   2.0000      -0.459643       -12.5075
  55   2.0000      -0.450453       -12.2574
  56   2.0000      -0.447014       -12.1639
  57   2.0000      -0.439627       -11.9628
  58   2.0000      -0.433543       -11.7973
  59   2.0000      -0.431756       -11.7487
  60   2.0000      -0.419917       -11.4265
  61   2.0000      -0.416382       -11.3303
  62   2.0000      -0.411982       -11.2106
  63   2.0000      -0.359600        -9.7852
  64   2.0000      -0.340445        -9.2640
  65   2.0000      -0.326881        -8.8949
  66   2.0000      -0.279412        -7.6032
  67   0.0000       0.022226         0.6048
  68   0.0000       0.084107         2.2887
  69   0.0000       0.099798         2.7157
  70   0.0000       0.123425         3.3586
  71   0.0000       0.134033         3.6472

MULLIKEN ATOMIC CHARGES
-----------------------
   0 S :    0.095409
   1 C :   -0.146650
   2 C :   -0.063240
   3 C :   -0.032175
   4 C :   -0.128371
   5 H :    0.025240
   6 C :    0.035856
   7 H :    0.026925
   8 H :    0.028859
   9 C :   -0.063736
  10 H :    0.031353
  11 H :    0.045975
  12 C :   -0.058242
  13 H :    0.017791
  14 H :    0.046192
  15 H :    0.045959
  16 S :    0.102072
  17 C :   -0.080002
  18 C :   -0.040146
  19 C :    0.008491
  20 C :   -0.128054
  21 H :    0.005823
  22 C :    0.022840
  23 H :    0.024252
  24 H :    0.022643
  25 C :   -0.015672
  26 H :    0.025806
  27 H :    0.014114
  28 C :   -0.019974
  29 H :    0.018379
  30 H :    0.020655
  31 H :    0.004822
  32 H :    0.057918
  33 H :    0.048889
Sum of atomic charges:    0.0000000

LOEWDIN ATOMIC CHARGES
----------------------
   0 S :    0.423431
   1 C :   -0.210247
   2 C :   -0.077408
   3 C :   -0.080983
   4 C :   -0.201007
   5 H :    0.036774
   6 C :   -0.035979
   7 H :    0.031360
   8 H :    0.033318
   9 C :   -0.031264
  10 H :    0.017313
  11 H :    0.033958
  12 C :   -0.066587
  13 H :    0.010216
  14 H :    0.033825
  15 H :    0.030968
  16 S :    0.410269
  17 C :   -0.185674
  18 C :   -0.067986
  19 C :   -0.062463
  20 C :   -0.186108
  21 H :    0.028696
  22 C :   -0.038497
  23 H :    0.036424
  24 H :    0.035542
  25 C :   -0.031002
  26 H :    0.024319
  27 H :    0.018793
  28 C :   -0.054633
  29 H :    0.024454
  30 H :    0.031935
  31 H :    0.006093
  32 H :    0.034297
  33 H :    0.027852

  Mayer bond orders larger than 0.100000
B(  0-S ,  1-C ) :   1.1465 B(  0-S ,  4-C ) :   1.1689 B(  1-C ,  2-C ) :   1.5797
B(  1-C ,  4-C ) :   0.1024 B(  1-C , 32-H ) :   0.9701 B(  2-C ,  3-C ) :   1.2713
B(  2-C ,  6-C ) :   1.0204 B(  3-C ,  4-C ) :   1.5480 B(  3-C ,  5-H ) :   0.9852
B(  4-C , 20-C ) :   1.0615 B(  6-C ,  7-H ) :   0.9304 B(  6-C ,  8-H ) :   0.9458
B(  6-C ,  9-C ) :   1.0521 B(  9-C , 10-H ) :   0.9581 B(  9-C , 11-H ) :   0.9583
B(  9-C , 12-C ) :   1.0691 B( 12-C , 13-H ) :   0.9774 B( 12-C , 14-H ) :   0.9739
B( 12-C , 15-H ) :   0.9790 B( 16-S , 17-C ) :   1.1454 B( 16-S , 20-C ) :   1.1507
B( 17-C , 18-C ) :   1.6022 B( 17-C , 20-C ) :   0.1049 B( 17-C , 33-H ) :   0.9712
B( 18-C , 19-C ) :   1.2650 B( 18-C , 21-H ) :   0.9920 B( 19-C , 20-C ) :   1.5861
B( 19-C , 22-C ) :   1.0215 B( 22-C , 23-H ) :   0.9305 B( 22-C , 24-H ) :   0.9417
B( 22-C , 25-C ) :   1.0476 B( 25-C , 26-H ) :   0.9563 B( 25-C , 27-H ) :   0.9471
B( 25-C , 28-C ) :   1.0885 B( 28-C , 29-H ) :   0.9698 B( 28-C , 30-H ) :   0.9698
B( 28-C , 31-H ) :   0.9788

Dispersion correction           -0.013957727
FINAL SINGLE POINT ENERGY     -1339.861672985584

DIPOLE MOMENT
-------------
                                X             Y             Z
Electronic contribution:      5.40517     -10.56583      30.03723
Nuclear contribution   :     -5.37914      10.98613     -30.64798
                        -----------------------------------------
Total Dipole Moment    :      0.02603       0.42030      -0.61075
                        -----------------------------------------
Magnitude (a.u.)       :      0.74185
Magnitude (Debye)      :      1.88563

Rotational constants in cm-1:     0.016107     0.010215     0.006521
Rotational constants in MHz :   482.864982   306.232747   195.492339

                             ****ORCA TERMINATED NORMALLY****
TOTAL RUN TIME: 0 days 0 hours 0 minutes 21 seconds 885 msec
