                         Program Version 4.2.1 -  RELEASE  -
|  1> ! wB97X-D3 SP def2-SVP
|  2> %pal
|  3> nprocs 24
|  4> end
|  5>
|  6> * xyz 0 1
|  7> S 	 -127.415 	 26.0096 	 -14.1272
|  8> C 	 -127.465 	 24.3871 	 -14.9081
|  9> C 	 -128.6 	 23.643 	 -14.6804
| 10> C 	 -129.513 	 24.4478 	 -13.8818
| 11> C 	 -129.133 	 25.7574 	 -13.6607
| 12> H 	 -130.445 	 24.1549 	 -13.5004
| 13> C 	 -128.885 	 22.2269 	 -15.1026
| 14> H 	 -128.28 	 21.8604 	 -15.8969
| 15> H 	 -129.927 	 22.2278 	 -15.4199
| 16> C 	 -128.806 	 21.2269 	 -13.9273
| 17> H 	 -129.071 	 21.7432 	 -12.9418
| 18> H 	 -129.579 	 20.4749 	 -13.9937
| 19> C 	 -127.34 	 20.6729 	 -13.7693
| 20> H 	 -126.556 	 21.211 	 -14.2751
| 21> H 	 -127.055 	 20.698 	 -12.7794
| 22> H 	 -127.45 	 19.5984 	 -14.0487
| 23> S 	 -128.723 	 27.7093 	 -11.7996
| 24> C 	 -130.088 	 28.6449 	 -11.177
| 25> C 	 -131.273 	 28.1889 	 -11.7507
| 26> C 	 -131.076 	 27.1607 	 -12.7432
| 27> C 	 -129.809 	 26.744 	 -12.8119
| 28> H 	 -132.269 	 28.5653 	 -11.5
| 29> C 	 -132.271 	 26.5072 	 -13.4397
| 30> H 	 -131.852 	 26.1595 	 -14.3781
| 31> H 	 -132.969 	 27.2625 	 -13.6788
| 32> C 	 -132.968 	 25.3951 	 -12.6182
| 33> H 	 -133.219 	 25.8604 	 -11.6749
| 34> H 	 -132.121 	 24.8076 	 -12.1572
| 35> C 	 -134.024 	 24.5362 	 -13.298
| 36> H 	 -134.853 	 25.1769 	 -13.5423
| 37> H 	 -134.13 	 23.6732 	 -12.6018
| 38> H 	 -133.593 	 24.033 	 -14.1149
| 39> H 	 -126.563 	 23.8829 	 -15.3273
| 40> H 	 -130.078 	 29.4644 	 -10.4491
| 41> *
| 42>
| 43>                          ****END OF INPUT****

CARTESIAN COORDINATES (ANGSTROEM)
---------------------------------
  S    -127.415000   26.009600  -14.127200
  C    -127.465000   24.387100  -14.908100
  C    -128.600000   23.643000  -14.680400
  C    -129.513000   24.447800  -13.881800
  C    -129.133000   25.757400  -13.660700
  H    -130.445000   24.154900  -13.500400
  C    -128.885000   22.226900  -15.102600
  H    -128.280000   21.860400  -15.896900
  H    -129.927000   22.227800  -15.419900
  C    -128.806000   21.226900  -13.927300
  H    -129.071000   21.743200  -12.941800
  H    -129.579000   20.474900  -13.993700
  C    -127.340000   20.672900  -13.769300
  H    -126.556000   21.211000  -14.275100
  H    -127.055000   20.698000  -12.779400
  H    -127.450000   19.598400  -14.048700
  S    -128.723000   27.709300  -11.799600
  C    -130.088000   28.644900  -11.177000
  C    -131.273000   28.188900  -11.750700
  C    -131.076000   27.160700  -12.743200
  C    -129.809000   26.744000  -12.811900
  H    -132.269000   28.565300  -11.500000
  C    -132.271000   26.507200  -13.439700
  H    -131.852000   26.159500  -14.378100
  H    -132.969000   27.262500  -13.678800
  C    -132.968000   25.395100  -12.618200
  H    -133.219000   25.860400  -11.674900
  H    -132.121000   24.807600  -12.157200
  C    -134.024000   24.536200  -13.298000
  H    -134.853000   25.176900  -13.542300
  H    -134.130000   23.673200  -12.601800
  H    -133.593000   24.033000  -14.114900
  H    -126.563000   23.882900  -15.327300
  H    -130.078000   29.464400  -10.449100

 Total Charge           Charge          ....    0
 Multiplicity           Mult            ....    1
 Number of Electrons    NEL             ....  134
 Basis Dimension        Dim             ....  322

ORBITAL ENERGIES
----------------

  NO   OCC          E(Eh)            E(eV)
   0   2.0000     -88.966669     -2420.9061
   1   2.0000     -88.965014     -2420.8611
   2   2.0000     -10.333014      -281.1756
   3   2.0000     -10.324327      -280.9392
   4   2.0000     -10.322162      -280.8803
   5   2.0000     -10.318512      -280.7810
   6   2.0000     -10.306020      -280.4411
   7   2.0000     -10.297558      -280.2108
   8   2.0000     -10.296644      -280.1859
   9   2.0000     -10.294637      -280.1313
  10   2.0000     -10.294484      -280.1272
  11   2.0000     -10.294053      -280.1154
  12   2.0000     -10.289234      -279.9843
  13   2.0000     -10.286907      -279.9210
  14   2.0000     -10.282616      -279.8042
  15   2.0000     -10.275639      -279.6144
  16   2.0000      -8.079932      -219.8661
  17   2.0000      -8.079263      -219.8479
  18   2.0000      -6.038661      -164.3203
  19   2.0000      -6.037951      -164.3010
  20   2.0000      -6.035000      -164.2207
  21   2.0000      -6.033907      -164.1910
  22   2.0000      -6.030182      -164.0896
  23   2.0000      -6.029778      -164.0786
  24   2.0000      -1.003765       -27.3138
  25   2.0000      -0.976887       -26.5825
  26   2.0000      -0.911548       -24.8045
  27   2.0000      -0.908881       -24.7319
  28   2.0000      -0.865415       -23.5491
  29   2.0000      -0.855306       -23.2741
  30   2.0000      -0.840631       -22.8747
  31   2.0000      -0.813341       -22.1321
  32   2.0000      -0.786426       -21.3998
  33   2.0000      -0.779135       -21.2013
  34   2.0000      -0.708084       -19.2680
  35   2.0000      -0.702609       -19.1190
  36   2.0000      -0.693848       -18.8806
  37   2.0000      -0.667410       -18.1611
  38   2.0000      -0.639725       -17.4078
  39   2.0000      -0.619544       -16.8586
  40   2.0000      -0.592257       -16.1161
  41   2.0000      -0.567145       -15.4328
  42   2.0000      -0.564646       -15.3648
  43   2.0000      -0.550806       -14.9882
  44   2.0000      -0.537193       -14.6178
  45   2.0000      -0.529782       -14.4161
  46   2.0000      -0.521146       -14.1811
  47   2.0000      -0.509476       -13.8635
  48   2.0000      -0.506848       -13.7920
  49   2.0000      -0.496994       -13.5239
  50   2.0000      -0.492346       -13.3974
  51   2.0000      -0.483530       -13.1575
  52   2.0000      -0.478285       -13.0148
  53   2.0000      -0.464598       -12.6423
  54   2.0000      -0.458425       -12.4744
  55   2.0000      -0.452466       -12.3122
  56   2.0000      -0.444523       -12.0961
  57   2.0000      -0.433735       -11.8025
  58   2.0000      -0.432395       -11.7661
  59   2.0000      -0.426830       -11.6146
  60   2.0000      -0.418671       -11.3926
  61   2.0000      -0.411993       -11.2109
  62   2.0000      -0.410345       -11.1660
  63   2.0000      -0.352306        -9.5867
  64   2.0000      -0.331724        -9.0267
  65   2.0000      -0.327843        -8.9211
  66   2.0000      -0.290845        -7.9143
  67   0.0000       0.025937         0.7058
  68   0.0000       0.070861         1.9282
  69   0.0000       0.093583         2.5465
  70   0.0000       0.118705         3.2301
  71   0.0000       0.130402         3.5484

MULLIKEN ATOMIC CHARGES
-----------------------
   0 S :    0.084079
   1 C :   -0.134130
   2 C :   -0.070402
   3 C :    0.030453
   4 C :   -0.107629
   5 H :   -0.027019
   6 C :    0.101264
   7 H :    0.025141
   8 H :    0.024075
   9 C :   -0.119245
  10 H :    0.040834
  11 H :    0.028748
  12 C :   -0.023788
  13 H :    0.030928
  14 H :    0.016117
  15 H :    0.043141
  16 S :    0.087684
  17 C :   -0.088375
  18 C :   -0.029497
  19 C :   -0.092776
  20 C :   -0.137411
  21 H :    0.020745
  22 C :    0.095394
  23 H :    0.021375
  24 H :    0.007617
  25 C :   -0.115627
  26 H :    0.006637
  27 H :    0.018999
  28 C :    0.038455
  29 H :    0.049965
  30 H :    0.038387
  31 H :    0.016261
  32 H :    0.055801
  33 H :    0.063800
Sum of atomic charges:   -0.0000000

LOEWDIN ATOMIC CHARGES
----------------------
   0 S :    0.353209
   1 C :   -0.186535
   2 C :   -0.057137
   3 C :   -0.050114
   4 C :   -0.168399
   5 H :    0.016707
   6 C :   -0.026191
   7 H :    0.027127
   8 H :    0.034016
   9 C :   -0.040032
  10 H :    0.031162
  11 H :    0.019375
  12 C :   -0.062527
  13 H :    0.023448
  14 H :    0.016607
  15 H :    0.035962
  16 S :    0.381158
  17 C :   -0.181687
  18 C :   -0.068849
  19 C :   -0.062023
  20 C :   -0.182995
  21 H :    0.030915
  22 C :   -0.027227
  23 H :    0.026782
  24 H :    0.020666
  25 C :   -0.053310
  26 H :    0.021329
  27 H :    0.025017
  28 C :   -0.056910
  29 H :    0.030315
  30 H :    0.041269
  31 H :    0.021195
  32 H :    0.032100
  33 H :    0.035575

  Mayer bond orders larger than 0.100000
B(  0-S ,  1-C ) :   1.1102 B(  0-S ,  4-C ) :   1.1072 B(  1-C ,  2-C ) :   1.6678
B(  1-C , 32-H ) :   0.9536 B(  2-C ,  3-C ) :   1.1871 B(  2-C ,  6-C ) :   1.0375
B(  3-C ,  4-C ) :   1.6216 B(  3-C ,  5-H ) :   0.9930 B(  4-C , 20-C ) :   1.0457
B(  6-C ,  7-H ) :   0.9497 B(  6-C ,  8-H ) :   0.9302 B(  6-C ,  9-C ) :   1.0573
B(  9-C , 10-H ) :   0.9674 B(  9-C , 11-H ) :   0.9661 B(  9-C , 12-C ) :   1.0440
B( 12-C , 13-H ) :   0.9811 B( 12-C , 14-H ) :   0.9782 B( 12-C , 15-H ) :   0.9793
B( 16-S , 17-C ) :   1.1354 B( 16-S , 20-C ) :   1.1076 B( 17-C , 18-C ) :   1.6284
B( 17-C , 33-H ) :   0.9671 B( 18-C , 19-C ) :   1.2173 B( 18-C , 21-H ) :   0.9835
B( 19-C , 20-C ) :   1.6664 B( 19-C , 22-C ) :   1.0530 B( 22-C , 23-H ) :   0.9284
B( 22-C , 24-H ) :   0.9257 B( 22-C , 25-C ) :   1.0546 B( 25-C , 26-H ) :   0.9446
B( 25-C , 27-H ) :   0.9495 B( 25-C , 28-C ) :   1.0656 B( 28-C , 29-H ) :   0.9746
B( 28-C , 30-H ) :   0.9674 B( 28-C , 31-H ) :   0.9700

Dispersion correction           -0.014555252
FINAL SINGLE POINT ENERGY     -1339.859572750306

DIPOLE MOMENT
-------------
                                X             Y             Z
Electronic contribution:     15.53757      23.81447       2.79634
Nuclear contribution   :    -16.13605     -24.41329      -2.71066
                        -----------------------------------------
Total Dipole Moment    :     -0.59847      -0.59882       0.08569
                        -----------------------------------------
Magnitude (a.u.)       :      0.85094
Magnitude (Debye)      :      2.16292

Rotational constants in cm-1:     0.017619     0.009311     0.006736
Rotational constants in MHz :   528.198996   279.148062   201.926720

                             ****ORCA TERMINATED NORMALLY****
TOTAL RUN TIME: 0 days 0 hours 0 minutes 20 seconds 820 msec
