                         Program Version 4.2.1 -  RELEASE  -
|  1> ! wB97X-D3 SP def2-SVP
|  2> %pal
|  3> nprocs 24
|  4> end
|  5>
|  6> * xyz 0 1
|  7> S 	 -112.311 	 -1.22484 	 -108.677
|  8> C 	 -113.299 	 -0.331674 	 -107.521
|  9> C 	 -112.861 	 0.967532 	 -107.347
| 10> C 	 -111.758 	 1.29154 	 -108.218
| 11> C 	 -111.286 	 0.198406 	 -108.952
| 12> H 	 -111.194 	 2.19883 	 -108.124
| 13> C 	 -113.539 	 1.96946 	 -106.456
| 14> H 	 -112.825 	 2.41392 	 -105.796
| 15> H 	 -114.142 	 1.36409 	 -105.738
| 16> C 	 -114.218 	 3.01996 	 -107.282
| 17> H 	 -114.646 	 3.76426 	 -106.642
| 18> H 	 -113.472 	 3.56393 	 -107.771
| 19> C 	 -115.206 	 2.60746 	 -108.342
| 20> H 	 -115.441 	 3.51516 	 -108.906
| 21> H 	 -114.814 	 1.92755 	 -109.139
| 22> H 	 -116.15 	 2.20421 	 -107.944
| 23> S 	 -108.631 	 -0.324393 	 -109.56
| 24> C 	 -108.103 	 -0.25748 	 -111.227
| 25> C 	 -109.027 	 0.419114 	 -112.036
| 26> C 	 -110.231 	 0.76645 	 -111.256
| 27> C 	 -110.224 	 0.251131 	 -109.949
| 28> H 	 -108.709 	 0.666406 	 -113.049
| 29> C 	 -111.475 	 1.36222 	 -111.941
| 30> H 	 -111.973 	 1.9433 	 -111.242
| 31> H 	 -112.059 	 0.530668 	 -112.149
| 32> C 	 -111.15 	 2.24712 	 -113.198
| 33> H 	 -112.153 	 2.45525 	 -113.666
| 34> H 	 -110.618 	 1.67308 	 -113.967
| 35> C 	 -110.422 	 3.60561 	 -112.842
| 36> H 	 -109.404 	 3.55103 	 -112.511
| 37> H 	 -110.882 	 4.1532 	 -112.008
| 38> H 	 -110.406 	 4.17434 	 -113.806
| 39> H 	 -114.125 	 -0.839797 	 -107.13
| 40> H 	 -107.071 	 -0.392116 	 -111.575
| 41> *
| 42>
| 43>                          ****END OF INPUT****

CARTESIAN COORDINATES (ANGSTROEM)
---------------------------------
  S    -112.311000   -1.224840  -108.677000
  C    -113.299000   -0.331674  -107.521000
  C    -112.861000    0.967532  -107.347000
  C    -111.758000    1.291540  -108.218000
  C    -111.286000    0.198406  -108.952000
  H    -111.194000    2.198830  -108.124000
  C    -113.539000    1.969460  -106.456000
  H    -112.825000    2.413920  -105.796000
  H    -114.142000    1.364090  -105.738000
  C    -114.218000    3.019960  -107.282000
  H    -114.646000    3.764260  -106.642000
  H    -113.472000    3.563930  -107.771000
  C    -115.206000    2.607460  -108.342000
  H    -115.441000    3.515160  -108.906000
  H    -114.814000    1.927550  -109.139000
  H    -116.150000    2.204210  -107.944000
  S    -108.631000   -0.324393  -109.560000
  C    -108.103000   -0.257480  -111.227000
  C    -109.027000    0.419114  -112.036000
  C    -110.231000    0.766450  -111.256000
  C    -110.224000    0.251131  -109.949000
  H    -108.709000    0.666406  -113.049000
  C    -111.475000    1.362220  -111.941000
  H    -111.973000    1.943300  -111.242000
  H    -112.059000    0.530668  -112.149000
  C    -111.150000    2.247120  -113.198000
  H    -112.153000    2.455250  -113.666000
  H    -110.618000    1.673080  -113.967000
  C    -110.422000    3.605610  -112.842000
  H    -109.404000    3.551030  -112.511000
  H    -110.882000    4.153200  -112.008000
  H    -110.406000    4.174340  -113.806000
  H    -114.125000   -0.839797  -107.130000
  H    -107.071000   -0.392116  -111.575000

 Total Charge           Charge          ....    0
 Multiplicity           Mult            ....    1
 Number of Electrons    NEL             ....  134
 Basis Dimension        Dim             ....  322

ORBITAL ENERGIES
----------------

  NO   OCC          E(Eh)            E(eV)
   0   2.0000     -88.964986     -2420.8603
   1   2.0000     -88.962426     -2420.7907
   2   2.0000     -10.333105      -281.1781
   3   2.0000     -10.323722      -280.9228
   4   2.0000     -10.318341      -280.7763
   5   2.0000     -10.312905      -280.6284
   6   2.0000     -10.309172      -280.5268
   7   2.0000     -10.301045      -280.3057
   8   2.0000     -10.299423      -280.2615
   9   2.0000     -10.297606      -280.2121
  10   2.0000     -10.296825      -280.1908
  11   2.0000     -10.289892      -280.0022
  12   2.0000     -10.283231      -279.8209
  13   2.0000     -10.280067      -279.7348
  14   2.0000     -10.278562      -279.6939
  15   2.0000     -10.277728      -279.6712
  16   2.0000      -8.079280      -219.8484
  17   2.0000      -8.077303      -219.7946
  18   2.0000      -6.037759      -164.2958
  19   2.0000      -6.035851      -164.2439
  20   2.0000      -6.033776      -164.1874
  21   2.0000      -6.031744      -164.1321
  22   2.0000      -6.030173      -164.0894
  23   2.0000      -6.028068      -164.0321
  24   2.0000      -0.999436       -27.1960
  25   2.0000      -0.978230       -26.6190
  26   2.0000      -0.919096       -25.0099
  27   2.0000      -0.899118       -24.4662
  28   2.0000      -0.867323       -23.6011
  29   2.0000      -0.845880       -23.0176
  30   2.0000      -0.836187       -22.7538
  31   2.0000      -0.814812       -22.1722
  32   2.0000      -0.786022       -21.3887
  33   2.0000      -0.772266       -21.0144
  34   2.0000      -0.710353       -19.3297
  35   2.0000      -0.700998       -19.0751
  36   2.0000      -0.692954       -18.8562
  37   2.0000      -0.647508       -17.6196
  38   2.0000      -0.647272       -17.6132
  39   2.0000      -0.620318       -16.8797
  40   2.0000      -0.590299       -16.0628
  41   2.0000      -0.569347       -15.4927
  42   2.0000      -0.555943       -15.1280
  43   2.0000      -0.553334       -15.0570
  44   2.0000      -0.546876       -14.8813
  45   2.0000      -0.527815       -14.3626
  46   2.0000      -0.520277       -14.1575
  47   2.0000      -0.509628       -13.8677
  48   2.0000      -0.501401       -13.6438
  49   2.0000      -0.499416       -13.5898
  50   2.0000      -0.485847       -13.2206
  51   2.0000      -0.479283       -13.0419
  52   2.0000      -0.467043       -12.7089
  53   2.0000      -0.461062       -12.5461
  54   2.0000      -0.453469       -12.3395
  55   2.0000      -0.445655       -12.1269
  56   2.0000      -0.443481       -12.0677
  57   2.0000      -0.440198       -11.9784
  58   2.0000      -0.435280       -11.8446
  59   2.0000      -0.427198       -11.6246
  60   2.0000      -0.421942       -11.4816
  61   2.0000      -0.414413       -11.2767
  62   2.0000      -0.407904       -11.0996
  63   2.0000      -0.333513        -9.0753
  64   2.0000      -0.326424        -8.8824
  65   2.0000      -0.323059        -8.7909
  66   2.0000      -0.305693        -8.3183
  67   0.0000       0.040223         1.0945
  68   0.0000       0.053342         1.4515
  69   0.0000       0.113373         3.0850
  70   0.0000       0.120089         3.2678
  71   0.0000       0.124380         3.3846

MULLIKEN ATOMIC CHARGES
-----------------------
   0 S :    0.103659
   1 C :   -0.124205
   2 C :   -0.102484
   3 C :    0.042323
   4 C :   -0.166680
   5 H :    0.017891
   6 C :    0.113959
   7 H :    0.019029
   8 H :    0.017788
   9 C :   -0.038327
  10 H :    0.018984
  11 H :    0.006463
  12 C :   -0.058745
  13 H :    0.025870
  14 H :    0.049758
  15 H :    0.034013
  16 S :    0.113537
  17 C :   -0.100509
  18 C :   -0.058759
  19 C :   -0.057738
  20 C :   -0.179305
  21 H :    0.031164
  22 C :    0.147776
  23 H :   -0.000079
  24 H :    0.028368
  25 C :   -0.104074
  26 H :    0.037881
  27 H :    0.034324
  28 C :   -0.064449
  29 H :    0.033290
  30 H :    0.035247
  31 H :    0.045148
  32 H :    0.033962
  33 H :    0.064919
Sum of atomic charges:    0.0000000

LOEWDIN ATOMIC CHARGES
----------------------
   0 S :    0.391423
   1 C :   -0.179334
   2 C :   -0.060276
   3 C :   -0.055872
   4 C :   -0.189372
   5 H :    0.030708
   6 C :   -0.030674
   7 H :    0.029860
   8 H :    0.031866
   9 C :   -0.041269
  10 H :    0.024617
  11 H :    0.019437
  12 C :   -0.067533
  13 H :    0.028952
  14 H :    0.032251
  15 H :    0.024213
  16 S :    0.411219
  17 C :   -0.191494
  18 C :   -0.077892
  19 C :   -0.042619
  20 C :   -0.221275
  21 H :    0.033945
  22 C :   -0.021299
  23 H :    0.018835
  24 H :    0.028272
  25 C :   -0.039637
  26 H :    0.031260
  27 H :    0.021158
  28 C :   -0.071367
  29 H :    0.021888
  30 H :    0.027921
  31 H :    0.034040
  32 H :    0.014785
  33 H :    0.033264

  Mayer bond orders larger than 0.100000
B(  0-S ,  1-C ) :   1.1426 B(  0-S ,  4-C ) :   1.1466 B(  1-C ,  2-C ) :   1.5986
B(  1-C , 32-H ) :   0.9804 B(  2-C ,  3-C ) :   1.2308 B(  2-C ,  6-C ) :   1.0262
B(  3-C ,  4-C ) :   1.5904 B(  3-C ,  5-H ) :   0.9904 B(  4-C , 20-C ) :   1.0264
B(  6-C ,  7-H ) :   0.9305 B(  6-C ,  8-H ) :   0.9413 B(  6-C ,  9-C ) :   1.0692
B(  9-C , 10-H ) :   0.9489 B(  9-C , 11-H ) :   0.9476 B(  9-C , 12-C ) :   1.0870
B( 12-C , 13-H ) :   0.9692 B( 12-C , 14-H ) :   0.9684 B( 12-C , 15-H ) :   0.9761
B( 16-S , 17-C ) :   1.1643 B( 16-S , 20-C ) :   1.1436 B( 17-C , 18-C ) :   1.6161
B( 17-C , 33-H ) :   0.9600 B( 18-C , 19-C ) :   1.2239 B( 18-C , 21-H ) :   0.9859
B( 19-C , 20-C ) :   1.5935 B( 19-C , 22-C ) :   1.0246 B( 22-C , 23-H ) :   0.9264
B( 22-C , 24-H ) :   0.9325 B( 22-C , 25-C ) :   1.0786 B( 25-C , 26-H ) :   0.9581
B( 25-C , 27-H ) :   0.9535 B( 25-C , 28-C ) :   1.0595 B( 28-C , 29-H ) :   0.9768
B( 28-C , 30-H ) :   0.9766 B( 28-C , 31-H ) :   0.9766

Dispersion correction           -0.015145503
FINAL SINGLE POINT ENERGY     -1339.874551534425

DIPOLE MOMENT
-------------
                                X             Y             Z
Electronic contribution:     14.15412     -21.94737       7.48731
Nuclear contribution   :    -14.43032      22.59038      -7.63299
                        -----------------------------------------
Total Dipole Moment    :     -0.27620       0.64301      -0.14568
                        -----------------------------------------
Magnitude (a.u.)       :      0.71482
Magnitude (Debye)      :      1.81694

Rotational constants in cm-1:     0.018507     0.009237     0.007111
Rotational constants in MHz :   554.835270   276.920215   213.180580

                             ****ORCA TERMINATED NORMALLY****
TOTAL RUN TIME: 0 days 0 hours 0 minutes 22 seconds 87 msec
