                         Program Version 4.2.1 -  RELEASE  -
|  1> ! wB97X-D3 SP def2-SVP
|  2> %pal
|  3> nprocs 24
|  4> end
|  5>
|  6> * xyz 0 1
|  7> S 	 -53.9219 	 -2.21496 	 -28.677
|  8> C 	 -53.9885 	 -1.15567 	 -27.283
|  9> C 	 -54.5687 	 0.0227366 	 -27.6015
| 10> C 	 -55.0562 	 0.0621116 	 -28.9554
| 11> C 	 -54.7419 	 -1.08212 	 -29.6689
| 12> H 	 -55.6435 	 0.86061 	 -29.3805
| 13> C 	 -54.889 	 1.06563 	 -26.5375
| 14> H 	 -54.9988 	 2.03269 	 -27.0335
| 15> H 	 -54.0619 	 1.091 	 -25.8673
| 16> C 	 -56.2011 	 0.781169 	 -25.728
| 17> H 	 -57.0437 	 0.809715 	 -26.3836
| 18> H 	 -56.2107 	 -0.222531 	 -25.3399
| 19> C 	 -56.371 	 1.73717 	 -24.5061
| 20> H 	 -57.0374 	 1.19561 	 -23.8692
| 21> H 	 -55.5002 	 1.79707 	 -23.9449
| 22> H 	 -56.7654 	 2.77659 	 -24.76
| 23> S 	 -53.9592 	 -2.6672 	 -31.7686
| 24> C 	 -55.095 	 -2.9653 	 -33.1421
| 25> C 	 -56.1269 	 -2.08551 	 -32.9762
| 26> C 	 -56.1632 	 -1.24272 	 -31.8152
| 27> C 	 -55.0839 	 -1.51274 	 -30.9797
| 28> H 	 -56.9275 	 -2.0456 	 -33.7296
| 29> C 	 -57.2971 	 -0.286995 	 -31.5287
| 30> H 	 -57.7316 	 0.033884 	 -32.4712
| 31> H 	 -56.8953 	 0.615792 	 -31.1401
| 32> C 	 -58.3912 	 -0.901824 	 -30.5609
| 33> H 	 -59.1127 	 -0.113999 	 -30.5397
| 34> H 	 -57.9908 	 -0.948265 	 -29.5973
| 35> C 	 -59.14 	 -2.15243 	 -30.9568
| 36> H 	 -59.5095 	 -1.92936 	 -32.0329
| 37> H 	 -59.9586 	 -2.24263 	 -30.325
| 38> H 	 -58.5559 	 -3.04333 	 -31.0261
| 39> H 	 -53.669 	 -1.39391 	 -26.2074
| 40> H 	 -55.0156 	 -3.61873 	 -33.9568
| 41> *
| 42>
| 43>                          ****END OF INPUT****

CARTESIAN COORDINATES (ANGSTROEM)
---------------------------------
  S    -53.921900   -2.214960  -28.677000
  C    -53.988500   -1.155670  -27.283000
  C    -54.568700    0.022737  -27.601500
  C    -55.056200    0.062112  -28.955400
  C    -54.741900   -1.082120  -29.668900
  H    -55.643500    0.860610  -29.380500
  C    -54.889000    1.065630  -26.537500
  H    -54.998800    2.032690  -27.033500
  H    -54.061900    1.091000  -25.867300
  C    -56.201100    0.781169  -25.728000
  H    -57.043700    0.809715  -26.383600
  H    -56.210700   -0.222531  -25.339900
  C    -56.371000    1.737170  -24.506100
  H    -57.037400    1.195610  -23.869200
  H    -55.500200    1.797070  -23.944900
  H    -56.765400    2.776590  -24.760000
  S    -53.959200   -2.667200  -31.768600
  C    -55.095000   -2.965300  -33.142100
  C    -56.126900   -2.085510  -32.976200
  C    -56.163200   -1.242720  -31.815200
  C    -55.083900   -1.512740  -30.979700
  H    -56.927500   -2.045600  -33.729600
  C    -57.297100   -0.286995  -31.528700
  H    -57.731600    0.033884  -32.471200
  H    -56.895300    0.615792  -31.140100
  C    -58.391200   -0.901824  -30.560900
  H    -59.112700   -0.113999  -30.539700
  H    -57.990800   -0.948265  -29.597300
  C    -59.140000   -2.152430  -30.956800
  H    -59.509500   -1.929360  -32.032900
  H    -59.958600   -2.242630  -30.325000
  H    -58.555900   -3.043330  -31.026100
  H    -53.669000   -1.393910  -26.207400
  H    -55.015600   -3.618730  -33.956800

 Total Charge           Charge          ....    0
 Multiplicity           Mult            ....    1
 Number of Electrons    NEL             ....  134
 Basis Dimension        Dim             ....  322

ORBITAL ENERGIES
----------------

  NO   OCC          E(Eh)            E(eV)
   0   2.0000     -88.964704     -2420.8527
   1   2.0000     -88.963206     -2420.8119
   2   2.0000     -10.329665      -281.0845
   3   2.0000     -10.327275      -281.0194
   4   2.0000     -10.317515      -280.7539
   5   2.0000     -10.313906      -280.6556
   6   2.0000     -10.302889      -280.3559
   7   2.0000     -10.297482      -280.2087
   8   2.0000     -10.295388      -280.1517
   9   2.0000     -10.294436      -280.1258
  10   2.0000     -10.293612      -280.1034
  11   2.0000     -10.291058      -280.0339
  12   2.0000     -10.286904      -279.9209
  13   2.0000     -10.280789      -279.7545
  14   2.0000     -10.278659      -279.6965
  15   2.0000     -10.275744      -279.6172
  16   2.0000      -8.080094      -219.8705
  17   2.0000      -8.076476      -219.7721
  18   2.0000      -6.038670      -164.3206
  19   2.0000      -6.035299      -164.2288
  20   2.0000      -6.034419      -164.2049
  21   2.0000      -6.031200      -164.1173
  22   2.0000      -6.030796      -164.1063
  23   2.0000      -6.026952      -164.0017
  24   2.0000      -1.011074       -27.5127
  25   2.0000      -0.980008       -26.6674
  26   2.0000      -0.910886       -24.7865
  27   2.0000      -0.906789       -24.6750
  28   2.0000      -0.873372       -23.7657
  29   2.0000      -0.852651       -23.2018
  30   2.0000      -0.841315       -22.8933
  31   2.0000      -0.817352       -22.2413
  32   2.0000      -0.785470       -21.3737
  33   2.0000      -0.775274       -21.0963
  34   2.0000      -0.714580       -19.4447
  35   2.0000      -0.705165       -19.1885
  36   2.0000      -0.695170       -18.9165
  37   2.0000      -0.664456       -18.0808
  38   2.0000      -0.635403       -17.2902
  39   2.0000      -0.620261       -16.8781
  40   2.0000      -0.593045       -16.1376
  41   2.0000      -0.569772       -15.5043
  42   2.0000      -0.559779       -15.2324
  43   2.0000      -0.555864       -15.1258
  44   2.0000      -0.548895       -14.9362
  45   2.0000      -0.524461       -14.2713
  46   2.0000      -0.516078       -14.0432
  47   2.0000      -0.512740       -13.9524
  48   2.0000      -0.507097       -13.7988
  49   2.0000      -0.498137       -13.5550
  50   2.0000      -0.493286       -13.4230
  51   2.0000      -0.486451       -13.2370
  52   2.0000      -0.472579       -12.8595
  53   2.0000      -0.468262       -12.7420
  54   2.0000      -0.461091       -12.5469
  55   2.0000      -0.450395       -12.2559
  56   2.0000      -0.441761       -12.0209
  57   2.0000      -0.438046       -11.9198
  58   2.0000      -0.431344       -11.7375
  59   2.0000      -0.428601       -11.6628
  60   2.0000      -0.423596       -11.5266
  61   2.0000      -0.417055       -11.3487
  62   2.0000      -0.409350       -11.1390
  63   2.0000      -0.358600        -9.7580
  64   2.0000      -0.331304        -9.0152
  65   2.0000      -0.327517        -8.9122
  66   2.0000      -0.284498        -7.7416
  67   0.0000       0.019231         0.5233
  68   0.0000       0.080713         2.1963
  69   0.0000       0.103014         2.8031
  70   0.0000       0.120338         3.2746
  71   0.0000       0.131760         3.5854

MULLIKEN ATOMIC CHARGES
-----------------------
   0 S :    0.108462
   1 C :   -0.147905
   2 C :   -0.087791
   3 C :    0.007078
   4 C :   -0.112691
   5 H :   -0.000549
   6 C :    0.076637
   7 H :    0.023287
   8 H :    0.014505
   9 C :   -0.068397
  10 H :    0.019642
  11 H :    0.017782
  12 C :   -0.024221
  13 H :    0.023481
  14 H :    0.013667
  15 H :    0.050292
  16 S :    0.077618
  17 C :   -0.060209
  18 C :   -0.043423
  19 C :   -0.052110
  20 C :   -0.132550
  21 H :    0.017148
  22 C :    0.084669
  23 H :    0.010563
  24 H :    0.010681
  25 C :   -0.045911
  26 H :    0.015671
  27 H :    0.021325
  28 C :   -0.023955
  29 H :    0.022660
  30 H :    0.028887
  31 H :    0.045608
  32 H :    0.071645
  33 H :    0.038403
Sum of atomic charges:   -0.0000000

LOEWDIN ATOMIC CHARGES
----------------------
   0 S :    0.422279
   1 C :   -0.210991
   2 C :   -0.067109
   3 C :   -0.068650
   4 C :   -0.196764
   5 H :    0.026554
   6 C :   -0.026278
   7 H :    0.029652
   8 H :    0.023385
   9 C :   -0.031055
  10 H :    0.019378
  11 H :    0.020626
  12 C :   -0.061824
  13 H :    0.025882
  14 H :    0.014276
  15 H :    0.034202
  16 S :    0.356944
  17 C :   -0.164572
  18 C :   -0.069551
  19 C :   -0.060090
  20 C :   -0.176696
  21 H :    0.029638
  22 C :   -0.024670
  23 H :    0.028985
  24 H :    0.024112
  25 C :   -0.028032
  26 H :    0.021622
  27 H :    0.015039
  28 C :   -0.054903
  29 H :    0.032957
  30 H :    0.020468
  31 H :    0.023394
  32 H :    0.046911
  33 H :    0.024878

  Mayer bond orders larger than 0.100000
B(  0-S ,  1-C ) :   1.1246 B(  0-S ,  4-C ) :   1.1608 B(  1-C ,  2-C ) :   1.6313
B(  1-C , 32-H ) :   0.9567 B(  2-C ,  3-C ) :   1.2380 B(  2-C ,  6-C ) :   1.0330
B(  3-C ,  4-C ) :   1.5430 B(  3-C ,  5-H ) :   1.0004 B(  4-C , 20-C ) :   1.0853
B(  6-C ,  7-H ) :   0.9395 B(  6-C ,  8-H ) :   0.9394 B(  6-C ,  9-C ) :   1.0626
B(  9-C , 10-H ) :   0.9562 B(  9-C , 11-H ) :   0.9602 B(  9-C , 12-C ) :   1.0746
B( 12-C , 13-H ) :   0.9748 B( 12-C , 14-H ) :   0.9743 B( 12-C , 15-H ) :   0.9770
B( 16-S , 17-C ) :   1.1086 B( 16-S , 20-C ) :   1.1235 B( 17-C , 18-C ) :   1.6336
B( 17-C , 20-C ) :   0.1015 B( 17-C , 33-H ) :   0.9780 B( 18-C , 19-C ) :   1.2344
B( 18-C , 21-H ) :   0.9772 B( 19-C , 20-C ) :   1.5874 B( 19-C , 22-C ) :   1.0501
B( 22-C , 23-H ) :   0.9257 B( 22-C , 24-H ) :   0.9312 B( 22-C , 25-C ) :   1.0687
B( 25-C , 26-H ) :   0.9538 B( 25-C , 27-H ) :   0.9544 B( 25-C , 28-C ) :   1.0826
B( 28-C , 29-H ) :   0.9726 B( 28-C , 30-H ) :   0.9713 B( 28-C , 31-H ) :   0.9749

Dispersion correction           -0.014618683
FINAL SINGLE POINT ENERGY     -1339.873810975722

DIPOLE MOMENT
-------------
                                X             Y             Z
Electronic contribution:     21.72533     -14.32586     -13.95369
Nuclear contribution   :    -22.44197      14.72109      14.20251
                        -----------------------------------------
Total Dipole Moment    :     -0.71664       0.39524       0.24882
                        -----------------------------------------
Magnitude (a.u.)       :      0.85539
Magnitude (Debye)      :      2.17424

Rotational constants in cm-1:     0.021268     0.008458     0.006605
Rotational constants in MHz :   637.610267   253.562450   198.004450

                             ****ORCA TERMINATED NORMALLY****
TOTAL RUN TIME: 0 days 0 hours 0 minutes 20 seconds 734 msec
