                         Program Version 4.2.1 -  RELEASE  -
|  1> ! wB97X-D3 SP def2-SVP
|  2> %pal
|  3> nprocs 24
|  4> end
|  5>
|  6> * xyz 0 1
|  7> S 	 -102.436 	 -0.0210102 	 -123.268
|  8> C 	 -104.003 	 0.81977 	 -123.462
|  9> C 	 -104.845 	 0.548419 	 -122.383
| 10> C 	 -104.151 	 -0.171732 	 -121.311
| 11> C 	 -102.83 	 -0.341799 	 -121.564
| 12> H 	 -104.545 	 -0.463805 	 -120.35
| 13> C 	 -106.275 	 0.973139 	 -122.406
| 14> H 	 -106.539 	 1.61108 	 -123.207
| 15> H 	 -106.393 	 1.55319 	 -121.553
| 16> C 	 -107.243 	 -0.166458 	 -122.345
| 17> H 	 -107.1 	 -0.847688 	 -123.175
| 18> H 	 -107.126 	 -0.74334 	 -121.426
| 19> C 	 -108.681 	 0.493764 	 -122.323
| 20> H 	 -108.997 	 1.05595 	 -123.132
| 21> H 	 -109.425 	 -0.215933 	 -122.074
| 22> H 	 -108.724 	 1.1105 	 -121.488
| 23> S 	 -100.913 	 -2.29402 	 -120.981
| 24> C 	 -99.7871 	 -1.93584 	 -119.722
| 25> C 	 -100.167 	 -0.865994 	 -118.968
| 26> C 	 -101.26 	 -0.191245 	 -119.514
| 27> C 	 -101.827 	 -0.80408 	 -120.645
| 28> H 	 -99.6929 	 -0.603932 	 -118.011
| 29> C 	 -101.661 	 1.10283 	 -118.8
| 30> H 	 -101.342 	 0.857977 	 -117.787
| 31> H 	 -102.721 	 1.32099 	 -118.857
| 32> C 	 -100.844 	 2.23872 	 -119.142
| 33> H 	 -99.8348 	 1.98133 	 -118.817
| 34> H 	 -101.11 	 3.10246 	 -118.558
| 35> C 	 -100.747 	 2.68456 	 -120.614
| 36> H 	 -100.302 	 1.82265 	 -121.13
| 37> H 	 -100.224 	 3.58621 	 -120.85
| 38> H 	 -101.756 	 2.87527 	 -121.051
| 39> H 	 -104.341 	 1.317 	 -124.332
| 40> H 	 -98.9622 	 -2.57425 	 -119.472
| 41> *
| 42>
| 43>                          ****END OF INPUT****

CARTESIAN COORDINATES (ANGSTROEM)
---------------------------------
  S    -102.436000   -0.021010  -123.268000
  C    -104.003000    0.819770  -123.462000
  C    -104.845000    0.548419  -122.383000
  C    -104.151000   -0.171732  -121.311000
  C    -102.830000   -0.341799  -121.564000
  H    -104.545000   -0.463805  -120.350000
  C    -106.275000    0.973139  -122.406000
  H    -106.539000    1.611080  -123.207000
  H    -106.393000    1.553190  -121.553000
  C    -107.243000   -0.166458  -122.345000
  H    -107.100000   -0.847688  -123.175000
  H    -107.126000   -0.743340  -121.426000
  C    -108.681000    0.493764  -122.323000
  H    -108.997000    1.055950  -123.132000
  H    -109.425000   -0.215933  -122.074000
  H    -108.724000    1.110500  -121.488000
  S    -100.913000   -2.294020  -120.981000
  C    -99.787100   -1.935840  -119.722000
  C    -100.167000   -0.865994  -118.968000
  C    -101.260000   -0.191245  -119.514000
  C    -101.827000   -0.804080  -120.645000
  H    -99.692900   -0.603932  -118.011000
  C    -101.661000    1.102830  -118.800000
  H    -101.342000    0.857977  -117.787000
  H    -102.721000    1.320990  -118.857000
  C    -100.844000    2.238720  -119.142000
  H    -99.834800    1.981330  -118.817000
  H    -101.110000    3.102460  -118.558000
  C    -100.747000    2.684560  -120.614000
  H    -100.302000    1.822650  -121.130000
  H    -100.224000    3.586210  -120.850000
  H    -101.756000    2.875270  -121.051000
  H    -104.341000    1.317000  -124.332000
  H    -98.962200   -2.574250  -119.472000

 Total Charge           Charge          ....    0
 Multiplicity           Mult            ....    1
 Number of Electrons    NEL             ....  134
 Basis Dimension        Dim             ....  322

ORBITAL ENERGIES
----------------

  NO   OCC          E(Eh)            E(eV)
   0   2.0000     -88.965811     -2420.8828
   1   2.0000     -88.961106     -2420.7548
   2   2.0000     -10.327638      -281.0293
   3   2.0000     -10.326128      -280.9882
   4   2.0000     -10.315370      -280.6955
   5   2.0000     -10.312813      -280.6259
   6   2.0000     -10.303515      -280.3729
   7   2.0000     -10.301895      -280.3288
   8   2.0000     -10.296908      -280.1931
   9   2.0000     -10.290460      -280.0177
  10   2.0000     -10.287522      -279.9377
  11   2.0000     -10.284469      -279.8546
  12   2.0000     -10.279093      -279.7083
  13   2.0000     -10.273998      -279.5697
  14   2.0000     -10.266948      -279.3778
  15   2.0000     -10.266449      -279.3643
  16   2.0000      -8.080632      -219.8852
  17   2.0000      -8.075036      -219.7329
  18   2.0000      -6.039027      -164.3303
  19   2.0000      -6.035137      -164.2244
  20   2.0000      -6.033688      -164.1850
  21   2.0000      -6.031506      -164.1256
  22   2.0000      -6.029921      -164.0825
  23   2.0000      -6.025396      -163.9594
  24   2.0000      -1.005727       -27.3672
  25   2.0000      -0.981701       -26.7135
  26   2.0000      -0.921342       -25.0710
  27   2.0000      -0.919512       -25.0212
  28   2.0000      -0.870783       -23.6952
  29   2.0000      -0.846953       -23.0468
  30   2.0000      -0.842002       -22.9120
  31   2.0000      -0.815927       -22.2025
  32   2.0000      -0.786852       -21.4113
  33   2.0000      -0.774968       -21.0879
  34   2.0000      -0.715566       -19.4715
  35   2.0000      -0.702167       -19.1069
  36   2.0000      -0.687182       -18.6992
  37   2.0000      -0.660631       -17.9767
  38   2.0000      -0.646822       -17.6009
  39   2.0000      -0.619593       -16.8600
  40   2.0000      -0.601882       -16.3780
  41   2.0000      -0.575098       -15.6492
  42   2.0000      -0.566051       -15.4030
  43   2.0000      -0.555183       -15.1073
  44   2.0000      -0.546108       -14.8604
  45   2.0000      -0.522384       -14.2148
  46   2.0000      -0.513939       -13.9850
  47   2.0000      -0.511403       -13.9160
  48   2.0000      -0.507389       -13.8068
  49   2.0000      -0.499101       -13.5812
  50   2.0000      -0.493254       -13.4221
  51   2.0000      -0.478322       -13.0158
  52   2.0000      -0.473373       -12.8811
  53   2.0000      -0.466817       -12.7027
  54   2.0000      -0.456671       -12.4267
  55   2.0000      -0.451355       -12.2820
  56   2.0000      -0.445524       -12.1233
  57   2.0000      -0.443163       -12.0591
  58   2.0000      -0.438350       -11.9281
  59   2.0000      -0.431732       -11.7480
  60   2.0000      -0.411167       -11.1884
  61   2.0000      -0.410823       -11.1791
  62   2.0000      -0.402353       -10.9486
  63   2.0000      -0.338358        -9.2072
  64   2.0000      -0.334708        -9.1079
  65   2.0000      -0.324525        -8.8308
  66   2.0000      -0.295715        -8.0468
  67   0.0000       0.031722         0.8632
  68   0.0000       0.059464         1.6181
  69   0.0000       0.107506         2.9254
  70   0.0000       0.121053         3.2940
  71   0.0000       0.130792         3.5590

MULLIKEN ATOMIC CHARGES
-----------------------
   0 S :    0.099450
   1 C :   -0.102870
   2 C :   -0.091427
   3 C :    0.053967
   4 C :   -0.143447
   5 H :    0.011501
   6 C :    0.114797
   7 H :    0.004133
   8 H :    0.004528
   9 C :   -0.090758
  10 H :    0.034489
  11 H :    0.030279
  12 C :    0.012575
  13 H :    0.022015
  14 H :    0.015886
  15 H :   -0.001329
  16 S :    0.108034
  17 C :   -0.081968
  18 C :   -0.046117
  19 C :   -0.058664
  20 C :   -0.190571
  21 H :    0.029999
  22 C :    0.137104
  23 H :    0.013111
  24 H :    0.021623
  25 C :   -0.066993
  26 H :    0.007870
  27 H :    0.021439
  28 C :   -0.051918
  29 H :    0.042412
  30 H :    0.028955
  31 H :    0.028020
  32 H :    0.031380
  33 H :    0.052496
Sum of atomic charges:   -0.0000000

LOEWDIN ATOMIC CHARGES
----------------------
   0 S :    0.367706
   1 C :   -0.179814
   2 C :   -0.051054
   3 C :   -0.055205
   4 C :   -0.179099
   5 H :    0.031510
   6 C :   -0.030161
   7 H :    0.026324
   8 H :    0.023411
   9 C :   -0.025002
  10 H :    0.022895
  11 H :    0.025066
  12 C :   -0.053316
  13 H :    0.016304
  14 H :    0.022791
  15 H :    0.018211
  16 S :    0.405276
  17 C :   -0.179369
  18 C :   -0.081557
  19 C :   -0.047431
  20 C :   -0.203575
  21 H :    0.037394
  22 C :   -0.025375
  23 H :    0.036543
  24 H :    0.025677
  25 C :   -0.044391
  26 H :    0.020326
  27 H :    0.021249
  28 C :   -0.068016
  29 H :    0.027573
  30 H :    0.021558
  31 H :    0.027256
  32 H :    0.019579
  33 H :    0.026718

  Mayer bond orders larger than 0.100000
B(  0-S ,  1-C ) :   1.1060 B(  0-S ,  4-C ) :   1.1159 B(  1-C ,  2-C ) :   1.6500
B(  1-C , 32-H ) :   0.9747 B(  2-C ,  3-C ) :   1.1679 B(  2-C ,  6-C ) :   1.0302
B(  3-C ,  4-C ) :   1.6315 B(  3-C ,  5-H ) :   0.9953 B(  4-C , 20-C ) :   1.0567
B(  6-C ,  7-H ) :   0.9436 B(  6-C ,  8-H ) :   0.9232 B(  6-C ,  9-C ) :   1.0676
B(  9-C , 10-H ) :   0.9603 B(  9-C , 11-H ) :   0.9537 B(  9-C , 12-C ) :   1.0757
B( 12-C , 13-H ) :   0.9781 B( 12-C , 14-H ) :   0.9707 B( 12-C , 15-H ) :   0.9689
B( 16-S , 17-C ) :   1.1754 B( 16-S , 20-C ) :   1.1336 B( 17-C , 18-C ) :   1.5877
B( 17-C , 20-C ) :   0.1016 B( 17-C , 33-H ) :   0.9651 B( 18-C , 19-C ) :   1.2712
B( 18-C , 21-H ) :   0.9810 B( 19-C , 20-C ) :   1.5766 B( 19-C , 22-C ) :   1.0210
B( 22-C , 23-H ) :   0.9225 B( 22-C , 24-H ) :   0.9351 B( 22-C , 25-C ) :   1.0949
B( 25-C , 26-H ) :   0.9488 B( 25-C , 27-H ) :   0.9499 B( 25-C , 28-C ) :   1.0756
B( 28-C , 29-H ) :   0.9718 B( 28-C , 30-H ) :   0.9754 B( 28-C , 31-H ) :   0.9734

Dispersion correction           -0.015044675
FINAL SINGLE POINT ENERGY     -1339.863520829269

DIPOLE MOMENT
-------------
                                X             Y             Z
Electronic contribution:     16.67619     -15.77871      -6.16920
Nuclear contribution   :    -17.08890      16.09215       6.64049
                        -----------------------------------------
Total Dipole Moment    :     -0.41271       0.31343       0.47129
                        -----------------------------------------
Magnitude (a.u.)       :      0.70049
Magnitude (Debye)      :      1.78050

Rotational constants in cm-1:     0.021839     0.007770     0.007142
Rotational constants in MHz :   654.714107   232.944814   214.100779

                             ****ORCA TERMINATED NORMALLY****
TOTAL RUN TIME: 0 days 0 hours 0 minutes 22 seconds 259 msec
