                         Program Version 4.2.1 -  RELEASE  -
|  1> ! wB97X-D3 SP def2-SVP
|  2> %pal
|  3> nprocs 24
|  4> end
|  5>
|  6> * xyz 0 1
|  7> S 	 -64.2255 	 11.0485 	 -19.5681
|  8> C 	 -65.2919 	 10.854 	 -18.1422
|  9> C 	 -64.6491 	 10.0821 	 -17.2187
| 10> C 	 -63.4028 	 9.51225 	 -17.6753
| 11> C 	 -63.0211 	 9.91642 	 -18.8974
| 12> H 	 -62.7695 	 8.74077 	 -17.2758
| 13> C 	 -65.2419 	 9.75999 	 -15.8831
| 14> H 	 -65.2491 	 8.64194 	 -15.6501
| 15> H 	 -66.3522 	 10.0172 	 -15.7554
| 16> C 	 -64.4725 	 10.4176 	 -14.69
| 17> H 	 -63.6691 	 9.79431 	 -14.3948
| 18> H 	 -63.9867 	 11.3616 	 -14.9605
| 19> C 	 -65.3277 	 10.6182 	 -13.4075
| 20> H 	 -64.6718 	 10.7259 	 -12.5368
| 21> H 	 -66.0156 	 11.4705 	 -13.4492
| 22> H 	 -65.9196 	 9.67876 	 -13.3395
| 23> S 	 -62.4897 	 8.14845 	 -20.9901
| 24> C 	 -60.839 	 7.87572 	 -21.5319
| 25> C 	 -59.9328 	 8.54787 	 -20.7153
| 26> C 	 -60.6102 	 9.19024 	 -19.5783
| 27> C 	 -61.9936 	 9.25019 	 -19.7337
| 28> H 	 -58.866 	 8.46261 	 -20.8736
| 29> C 	 -59.9479 	 9.8132 	 -18.3134
| 30> H 	 -60.4966 	 9.50106 	 -17.3817
| 31> H 	 -60.2604 	 10.8805 	 -18.5574
| 32> C 	 -58.4698 	 9.54316 	 -18.0225
| 33> H 	 -58.0927 	 10.2977 	 -17.2594
| 34> H 	 -57.8691 	 9.82356 	 -18.9064
| 35> C 	 -58.1697 	 8.12264 	 -17.5086
| 36> H 	 -57.1483 	 7.87476 	 -17.5546
| 37> H 	 -58.7294 	 7.37608 	 -18.1272
| 38> H 	 -58.4214 	 7.98376 	 -16.4557
| 39> H 	 -66.2837 	 11.2059 	 -18.0153
| 40> H 	 -60.5345 	 7.23785 	 -22.3892
| 41> *
| 42>
| 43>                          ****END OF INPUT****

CARTESIAN COORDINATES (ANGSTROEM)
---------------------------------
  S    -64.225500   11.048500  -19.568100
  C    -65.291900   10.854000  -18.142200
  C    -64.649100   10.082100  -17.218700
  C    -63.402800    9.512250  -17.675300
  C    -63.021100    9.916420  -18.897400
  H    -62.769500    8.740770  -17.275800
  C    -65.241900    9.759990  -15.883100
  H    -65.249100    8.641940  -15.650100
  H    -66.352200   10.017200  -15.755400
  C    -64.472500   10.417600  -14.690000
  H    -63.669100    9.794310  -14.394800
  H    -63.986700   11.361600  -14.960500
  C    -65.327700   10.618200  -13.407500
  H    -64.671800   10.725900  -12.536800
  H    -66.015600   11.470500  -13.449200
  H    -65.919600    9.678760  -13.339500
  S    -62.489700    8.148450  -20.990100
  C    -60.839000    7.875720  -21.531900
  C    -59.932800    8.547870  -20.715300
  C    -60.610200    9.190240  -19.578300
  C    -61.993600    9.250190  -19.733700
  H    -58.866000    8.462610  -20.873600
  C    -59.947900    9.813200  -18.313400
  H    -60.496600    9.501060  -17.381700
  H    -60.260400   10.880500  -18.557400
  C    -58.469800    9.543160  -18.022500
  H    -58.092700   10.297700  -17.259400
  H    -57.869100    9.823560  -18.906400
  C    -58.169700    8.122640  -17.508600
  H    -57.148300    7.874760  -17.554600
  H    -58.729400    7.376080  -18.127200
  H    -58.421400    7.983760  -16.455700
  H    -66.283700   11.205900  -18.015300
  H    -60.534500    7.237850  -22.389200

 Total Charge           Charge          ....    0
 Multiplicity           Mult            ....    1
 Number of Electrons    NEL             ....  134
 Basis Dimension        Dim             ....  322

ORBITAL ENERGIES
----------------

  NO   OCC          E(Eh)            E(eV)
   0   2.0000     -88.964623     -2420.8505
   1   2.0000     -88.962870     -2420.8028
   2   2.0000     -10.329456      -281.0788
   3   2.0000     -10.324859      -280.9537
   4   2.0000     -10.324039      -280.9314
   5   2.0000     -10.316899      -280.7371
   6   2.0000     -10.311855      -280.5998
   7   2.0000     -10.304678      -280.4045
   8   2.0000     -10.303393      -280.3696
   9   2.0000     -10.302294      -280.3397
  10   2.0000     -10.301315      -280.3130
  11   2.0000     -10.296546      -280.1833
  12   2.0000     -10.293606      -280.1033
  13   2.0000     -10.284017      -279.8423
  14   2.0000     -10.283302      -279.8229
  15   2.0000     -10.280086      -279.7354
  16   2.0000      -8.079169      -219.8454
  17   2.0000      -8.076653      -219.7769
  18   2.0000      -6.037723      -164.2948
  19   2.0000      -6.035388      -164.2313
  20   2.0000      -6.033704      -164.1854
  21   2.0000      -6.031328      -164.1208
  22   2.0000      -6.029869      -164.0811
  23   2.0000      -6.027166      -164.0075
  24   2.0000      -1.003291       -27.3009
  25   2.0000      -0.980822       -26.6895
  26   2.0000      -0.905878       -24.6502
  27   2.0000      -0.903296       -24.5799
  28   2.0000      -0.870382       -23.6843
  29   2.0000      -0.845369       -23.0037
  30   2.0000      -0.840733       -22.8775
  31   2.0000      -0.820626       -22.3304
  32   2.0000      -0.778916       -21.1954
  33   2.0000      -0.768464       -20.9110
  34   2.0000      -0.705863       -19.2075
  35   2.0000      -0.696331       -18.9481
  36   2.0000      -0.693536       -18.8721
  37   2.0000      -0.650226       -17.6936
  38   2.0000      -0.649107       -17.6631
  39   2.0000      -0.615396       -16.7458
  40   2.0000      -0.591447       -16.0941
  41   2.0000      -0.573924       -15.6173
  42   2.0000      -0.555755       -15.1229
  43   2.0000      -0.555250       -15.1091
  44   2.0000      -0.534542       -14.5456
  45   2.0000      -0.522853       -14.2276
  46   2.0000      -0.518532       -14.1100
  47   2.0000      -0.514263       -13.9938
  48   2.0000      -0.499871       -13.6022
  49   2.0000      -0.496046       -13.4981
  50   2.0000      -0.494877       -13.4663
  51   2.0000      -0.474744       -12.9185
  52   2.0000      -0.471476       -12.8295
  53   2.0000      -0.466774       -12.7016
  54   2.0000      -0.460289       -12.5251
  55   2.0000      -0.447968       -12.1898
  56   2.0000      -0.441020       -12.0008
  57   2.0000      -0.435255       -11.8439
  58   2.0000      -0.430980       -11.7276
  59   2.0000      -0.424853       -11.5608
  60   2.0000      -0.422698       -11.5022
  61   2.0000      -0.410744       -11.1769
  62   2.0000      -0.408463       -11.1148
  63   2.0000      -0.343878        -9.3574
  64   2.0000      -0.324120        -8.8198
  65   2.0000      -0.322988        -8.7889
  66   2.0000      -0.302903        -8.2424
  67   0.0000       0.032555         0.8859
  68   0.0000       0.064512         1.7555
  69   0.0000       0.114555         3.1172
  70   0.0000       0.122284         3.3275
  71   0.0000       0.123113         3.3501

MULLIKEN ATOMIC CHARGES
-----------------------
   0 S :    0.090112
   1 C :   -0.105817
   2 C :   -0.041008
   3 C :    0.057106
   4 C :   -0.165498
   5 H :    0.017549
   6 C :   -0.006312
   7 H :    0.043615
   8 H :    0.033595
   9 C :   -0.068924
  10 H :    0.019606
  11 H :    0.034696
  12 C :   -0.073988
  13 H :    0.039432
  14 H :    0.042733
  15 H :    0.031375
  16 S :    0.119024
  17 C :   -0.112200
  18 C :   -0.028048
  19 C :   -0.069859
  20 C :   -0.165280
  21 H :    0.024480
  22 C :    0.012110
  23 H :    0.038551
  24 H :    0.065497
  25 C :   -0.077329
  26 H :    0.039516
  27 H :    0.029832
  28 C :   -0.040089
  29 H :    0.025849
  30 H :    0.041893
  31 H :    0.032043
  32 H :    0.040608
  33 H :    0.075130
Sum of atomic charges:    0.0000000

LOEWDIN ATOMIC CHARGES
----------------------
   0 S :    0.365106
   1 C :   -0.168488
   2 C :   -0.065105
   3 C :   -0.053764
   4 C :   -0.182000
   5 H :    0.034009
   6 C :   -0.044191
   7 H :    0.037707
   8 H :    0.033674
   9 C :   -0.042343
  10 H :    0.017108
  11 H :    0.023020
  12 C :   -0.066287
  13 H :    0.027824
  14 H :    0.024170
  15 H :    0.026817
  16 S :    0.409616
  17 C :   -0.187714
  18 C :   -0.078987
  19 C :   -0.050975
  20 C :   -0.216573
  21 H :    0.031058
  22 C :   -0.045965
  23 H :    0.034231
  24 H :    0.050780
  25 C :   -0.053398
  26 H :    0.035242
  27 H :    0.023046
  28 C :   -0.065485
  29 H :    0.021117
  30 H :    0.031835
  31 H :    0.027195
  32 H :    0.027493
  33 H :    0.040227

  Mayer bond orders larger than 0.100000
B(  0-S ,  1-C ) :   1.1131 B(  0-S ,  4-C ) :   1.1181 B(  1-C ,  2-C ) :   1.6526
B(  1-C , 32-H ) :   0.9751 B(  2-C ,  3-C ) :   1.1696 B(  2-C ,  6-C ) :   1.0419
B(  3-C ,  4-C ) :   1.6470 B(  3-C ,  5-H ) :   0.9883 B(  4-C , 20-C ) :   1.0155
B(  6-C ,  7-H ) :   0.9370 B(  6-C ,  8-H ) :   0.9555 B(  6-C ,  9-C ) :   1.0341
B(  9-C , 10-H ) :   0.9560 B(  9-C , 11-H ) :   0.9631 B(  9-C , 12-C ) :   1.0817
B( 12-C , 13-H ) :   0.9761 B( 12-C , 14-H ) :   0.9789 B( 12-C , 15-H ) :   0.9743
B( 16-S , 17-C ) :   1.1624 B( 16-S , 20-C ) :   1.1408 B( 17-C , 18-C ) :   1.6073
B( 17-C , 33-H ) :   0.9624 B( 18-C , 19-C ) :   1.2333 B( 18-C , 21-H ) :   0.9883
B( 19-C , 20-C ) :   1.6062 B( 19-C , 22-C ) :   1.0108 B( 22-C , 23-H ) :   0.9433
B( 22-C , 24-H ) :   0.9336 B( 22-C , 25-C ) :   1.0722 B( 25-C , 26-H ) :   0.9514
B( 25-C , 27-H ) :   0.9533 B( 25-C , 28-C ) :   1.0694 B( 28-C , 29-H ) :   0.9747
B( 28-C , 30-H ) :   0.9778 B( 28-C , 31-H ) :   0.9722

Dispersion correction           -0.013991539
FINAL SINGLE POINT ENERGY     -1339.867969414813

DIPOLE MOMENT
-------------
                                X             Y             Z
Electronic contribution:     -8.87492       0.51728     -27.17300
Nuclear contribution   :      9.22721      -0.77146      27.78370
                        -----------------------------------------
Total Dipole Moment    :      0.35229      -0.25418       0.61070
                        -----------------------------------------
Magnitude (a.u.)       :      0.74945
Magnitude (Debye)      :      1.90494

Rotational constants in cm-1:     0.018284     0.008143     0.006227
Rotational constants in MHz :   548.149103   244.113441   186.667452

                             ****ORCA TERMINATED NORMALLY****
TOTAL RUN TIME: 0 days 0 hours 0 minutes 21 seconds 118 msec
