                         Program Version 4.2.1 -  RELEASE  -
|  1> ! wB97X-D3 SP def2-SVP
|  2> %pal
|  3> nprocs 24
|  4> end
|  5>
|  6> * xyz 0 1
|  7> S 	 -123.919 	 62.263 	 -35.3527
|  8> C 	 -124.187 	 63.9102 	 -34.7809
|  9> C 	 -123.604 	 64.8115 	 -35.6332
| 10> C 	 -122.774 	 64.2049 	 -36.6641
| 11> C 	 -122.74 	 62.8562 	 -36.6264
| 12> H 	 -122.183 	 64.6802 	 -37.3813
| 13> C 	 -123.744 	 66.3056 	 -35.5314
| 14> H 	 -122.837 	 66.6907 	 -34.9304
| 15> H 	 -124.737 	 66.5707 	 -35.0448
| 16> C 	 -123.758 	 67.1952 	 -36.8622
| 17> H 	 -123.916 	 68.2395 	 -36.5131
| 18> H 	 -122.8 	 67.204 	 -37.3065
| 19> C 	 -124.882 	 66.8076 	 -37.8632
| 20> H 	 -124.901 	 65.7445 	 -37.8219
| 21> H 	 -125.937 	 67.1738 	 -37.6337
| 22> H 	 -124.64 	 67.1759 	 -38.8941
| 23> S 	 -123.214 	 60.7072 	 -38.3483
| 24> C 	 -121.971 	 60.1066 	 -39.3779
| 25> C 	 -120.763 	 60.7646 	 -39.1107
| 26> C 	 -120.882 	 61.8483 	 -38.2069
| 27> C 	 -122.15 	 61.9205 	 -37.6125
| 28> H 	 -119.908 	 60.4004 	 -39.5864
| 29> C 	 -119.611 	 62.4993 	 -37.7324
| 30> H 	 -119.639 	 63.5858 	 -37.966
| 31> H 	 -118.94 	 62.2064 	 -38.4789
| 32> C 	 -119.207 	 62.2971 	 -36.2844
| 33> H 	 -119.277 	 61.2446 	 -35.9828
| 34> H 	 -120.001 	 62.8443 	 -35.6977
| 35> C 	 -117.848 	 62.9286 	 -35.835
| 36> H 	 -117.026 	 62.3929 	 -36.1607
| 37> H 	 -117.76 	 62.9524 	 -34.7454
| 38> H 	 -117.788 	 63.9126 	 -36.0793
| 39> H 	 -124.741 	 64.2098 	 -33.9369
| 40> H 	 -122.034 	 59.1647 	 -39.9734
| 41> *
| 42>
| 43>                          ****END OF INPUT****

CARTESIAN COORDINATES (ANGSTROEM)
---------------------------------
  S    -123.919000   62.263000  -35.352700
  C    -124.187000   63.910200  -34.780900
  C    -123.604000   64.811500  -35.633200
  C    -122.774000   64.204900  -36.664100
  C    -122.740000   62.856200  -36.626400
  H    -122.183000   64.680200  -37.381300
  C    -123.744000   66.305600  -35.531400
  H    -122.837000   66.690700  -34.930400
  H    -124.737000   66.570700  -35.044800
  C    -123.758000   67.195200  -36.862200
  H    -123.916000   68.239500  -36.513100
  H    -122.800000   67.204000  -37.306500
  C    -124.882000   66.807600  -37.863200
  H    -124.901000   65.744500  -37.821900
  H    -125.937000   67.173800  -37.633700
  H    -124.640000   67.175900  -38.894100
  S    -123.214000   60.707200  -38.348300
  C    -121.971000   60.106600  -39.377900
  C    -120.763000   60.764600  -39.110700
  C    -120.882000   61.848300  -38.206900
  C    -122.150000   61.920500  -37.612500
  H    -119.908000   60.400400  -39.586400
  C    -119.611000   62.499300  -37.732400
  H    -119.639000   63.585800  -37.966000
  H    -118.940000   62.206400  -38.478900
  C    -119.207000   62.297100  -36.284400
  H    -119.277000   61.244600  -35.982800
  H    -120.001000   62.844300  -35.697700
  C    -117.848000   62.928600  -35.835000
  H    -117.026000   62.392900  -36.160700
  H    -117.760000   62.952400  -34.745400
  H    -117.788000   63.912600  -36.079300
  H    -124.741000   64.209800  -33.936900
  H    -122.034000   59.164700  -39.973400

 Total Charge           Charge          ....    0
 Multiplicity           Mult            ....    1
 Number of Electrons    NEL             ....  134
 Basis Dimension        Dim             ....  322

ORBITAL ENERGIES
----------------

  NO   OCC          E(Eh)            E(eV)
   0   2.0000     -88.968237     -2420.9488
   1   2.0000     -88.964085     -2420.8358
   2   2.0000     -10.337486      -281.2973
   3   2.0000     -10.333252      -281.1821
   4   2.0000     -10.319471      -280.8071
   5   2.0000     -10.314095      -280.6608
   6   2.0000     -10.305576      -280.4290
   7   2.0000     -10.304194      -280.3914
   8   2.0000     -10.304135      -280.3898
   9   2.0000     -10.293585      -280.1027
  10   2.0000     -10.292459      -280.0720
  11   2.0000     -10.290626      -280.0222
  12   2.0000     -10.289015      -279.9783
  13   2.0000     -10.286518      -279.9104
  14   2.0000     -10.282396      -279.7982
  15   2.0000     -10.266216      -279.3579
  16   2.0000      -8.082775      -219.9435
  17   2.0000      -8.077558      -219.8015
  18   2.0000      -6.041212      -164.3897
  19   2.0000      -6.037129      -164.2786
  20   2.0000      -6.036314      -164.2565
  21   2.0000      -6.033799      -164.1880
  22   2.0000      -6.032407      -164.1502
  23   2.0000      -6.027951      -164.0289
  24   2.0000      -1.002679       -27.2843
  25   2.0000      -0.981808       -26.7164
  26   2.0000      -0.908666       -24.7260
  27   2.0000      -0.900723       -24.5099
  28   2.0000      -0.869415       -23.6580
  29   2.0000      -0.853578       -23.2270
  30   2.0000      -0.840111       -22.8606
  31   2.0000      -0.817906       -22.2563
  32   2.0000      -0.785441       -21.3729
  33   2.0000      -0.767810       -20.8932
  34   2.0000      -0.714315       -19.4375
  35   2.0000      -0.699485       -19.0340
  36   2.0000      -0.692130       -18.8338
  37   2.0000      -0.662751       -18.0344
  38   2.0000      -0.643461       -17.5095
  39   2.0000      -0.621967       -16.9246
  40   2.0000      -0.593299       -16.1445
  41   2.0000      -0.565639       -15.3918
  42   2.0000      -0.558855       -15.2072
  43   2.0000      -0.548570       -14.9274
  44   2.0000      -0.534894       -14.5552
  45   2.0000      -0.523292       -14.2395
  46   2.0000      -0.519380       -14.1331
  47   2.0000      -0.512397       -13.9430
  48   2.0000      -0.506806       -13.7909
  49   2.0000      -0.500235       -13.6121
  50   2.0000      -0.490327       -13.3425
  51   2.0000      -0.486596       -13.2410
  52   2.0000      -0.471550       -12.8315
  53   2.0000      -0.465704       -12.6725
  54   2.0000      -0.460041       -12.5184
  55   2.0000      -0.445286       -12.1169
  56   2.0000      -0.441649       -12.0179
  57   2.0000      -0.435703       -11.8561
  58   2.0000      -0.433984       -11.8093
  59   2.0000      -0.425154       -11.5690
  60   2.0000      -0.416347       -11.3294
  61   2.0000      -0.411490       -11.1972
  62   2.0000      -0.408138       -11.1060
  63   2.0000      -0.353573        -9.6212
  64   2.0000      -0.333557        -9.0765
  65   2.0000      -0.325584        -8.8596
  66   2.0000      -0.292110        -7.9487
  67   0.0000       0.025264         0.6875
  68   0.0000       0.063505         1.7281
  69   0.0000       0.111146         3.0244
  70   0.0000       0.122607         3.3363
  71   0.0000       0.128548         3.4980

MULLIKEN ATOMIC CHARGES
-----------------------
   0 S :    0.079843
   1 C :   -0.087868
   2 C :   -0.080647
   3 C :    0.060789
   4 C :   -0.132914
   5 H :   -0.008488
   6 C :   -0.018463
   7 H :    0.062818
   8 H :    0.041318
   9 C :   -0.074190
  10 H :    0.035627
  11 H :    0.024501
  12 C :   -0.073000
  13 H :    0.039414
  14 H :    0.043412
  15 H :    0.044557
  16 S :    0.113409
  17 C :   -0.112358
  18 C :   -0.036648
  19 C :   -0.041908
  20 C :   -0.158548
  21 H :    0.001936
  22 C :    0.109678
  23 H :    0.014322
  24 H :   -0.012320
  25 C :   -0.087271
  26 H :    0.037677
  27 H :    0.043510
  28 C :    0.014997
  29 H :    0.019605
  30 H :    0.024705
  31 H :    0.003760
  32 H :    0.030935
  33 H :    0.077809
Sum of atomic charges:   -0.0000000

LOEWDIN ATOMIC CHARGES
----------------------
   0 S :    0.353537
   1 C :   -0.177956
   2 C :   -0.070702
   3 C :   -0.053064
   4 C :   -0.157857
   5 H :    0.024503
   6 C :   -0.045193
   7 H :    0.045197
   8 H :    0.035796
   9 C :   -0.041463
  10 H :    0.029522
  11 H :    0.014089
  12 C :   -0.073568
  13 H :    0.021620
  14 H :    0.033082
  15 H :    0.032229
  16 S :    0.418894
  17 C :   -0.204752
  18 C :   -0.067426
  19 C :   -0.059181
  20 C :   -0.191434
  21 H :    0.022314
  22 C :   -0.037127
  23 H :    0.032872
  24 H :    0.019154
  25 C :   -0.037816
  26 H :    0.026405
  27 H :    0.034519
  28 C :   -0.051095
  29 H :    0.015331
  30 H :    0.032456
  31 H :    0.011609
  32 H :    0.024074
  33 H :    0.041430

  Mayer bond orders larger than 0.100000
B(  0-S ,  1-C ) :   1.1131 B(  0-S ,  4-C ) :   1.1112 B(  1-C ,  2-C ) :   1.6562
B(  1-C , 32-H ) :   0.9755 B(  2-C ,  3-C ) :   1.1753 B(  2-C ,  6-C ) :   1.0208
B(  3-C ,  4-C ) :   1.6313 B(  3-C ,  5-H ) :   1.0027 B(  4-C , 20-C ) :   1.0376
B(  6-C ,  7-H ) :   0.9374 B(  6-C ,  8-H ) :   0.9513 B(  6-C ,  9-C ) :   1.0731
B(  9-C , 10-H ) :   0.9580 B(  9-C , 11-H ) :   0.9549 B(  9-C , 12-C ) :   1.0602
B( 12-C , 13-H ) :   0.9794 B( 12-C , 14-H ) :   0.9759 B( 12-C , 15-H ) :   0.9758
B( 16-S , 17-C ) :   1.1764 B( 16-S , 20-C ) :   1.1525 B( 17-C , 18-C ) :   1.5817
B( 17-C , 20-C ) :   0.1060 B( 17-C , 33-H ) :   0.9591 B( 18-C , 19-C ) :   1.2704
B( 18-C , 21-H ) :   0.9962 B( 19-C , 20-C ) :   1.5511 B( 19-C , 22-C ) :   1.0564
B( 22-C , 23-H ) :   0.9130 B( 22-C , 24-H ) :   0.9257 B( 22-C , 25-C ) :   1.0561
B( 25-C , 26-H ) :   0.9611 B( 25-C , 27-H ) :   0.9476 B( 25-C , 28-C ) :   1.0849
B( 28-C , 29-H ) :   0.9772 B( 28-C , 30-H ) :   0.9722 B( 28-C , 31-H ) :   0.9717

Dispersion correction           -0.014438128
FINAL SINGLE POINT ENERGY     -1339.862430652664

DIPOLE MOMENT
-------------
                                X             Y             Z
Electronic contribution:    -12.52044     -20.44641      -1.15426
Nuclear contribution   :     12.97514      20.89605       1.06979
                        -----------------------------------------
Total Dipole Moment    :      0.45470       0.44964      -0.08447
                        -----------------------------------------
Magnitude (a.u.)       :      0.64503
Magnitude (Debye)      :      1.63954

Rotational constants in cm-1:     0.016566     0.008966     0.007624
Rotational constants in MHz :   496.647752   268.797896   228.568760

                             ****ORCA TERMINATED NORMALLY****
TOTAL RUN TIME: 0 days 0 hours 0 minutes 20 seconds 439 msec
