                         Program Version 4.2.1 -  RELEASE  -
|  1> ! wB97X-D3 SP def2-SVP
|  2> %pal
|  3> nprocs 24
|  4> end
|  5>
|  6> * xyz 0 1
|  7> S 	 -104.406 	 60.6695 	 -2.5746
|  8> C 	 -102.925 	 61.5326 	 -2.95695
|  9> C 	 -103.217 	 62.5365 	 -3.90301
| 10> C 	 -104.622 	 62.6474 	 -4.23929
| 11> C 	 -105.394 	 61.7817 	 -3.49002
| 12> H 	 -105.034 	 63.179 	 -5.14758
| 13> C 	 -102.164 	 63.4232 	 -4.58051
| 14> H 	 -101.271 	 63.3794 	 -3.89109
| 15> H 	 -102.599 	 64.4193 	 -4.51568
| 16> C 	 -101.734 	 63.1635 	 -6.01881
| 17> H 	 -100.963 	 62.4051 	 -6.00946
| 18> H 	 -102.502 	 62.683 	 -6.58408
| 19> C 	 -101.049 	 64.4009 	 -6.72138
| 20> H 	 -100.534 	 64.0468 	 -7.67744
| 21> H 	 -101.786 	 65.1913 	 -6.83606
| 22> H 	 -100.275 	 64.9091 	 -6.11518
| 23> S 	 -106.948 	 59.6774 	 -4.47641
| 24> C 	 -108.621 	 59.8899 	 -4.70933
| 25> C 	 -108.975 	 61.1753 	 -4.35606
| 26> C 	 -107.922 	 62.0583 	 -3.93104
| 27> C 	 -106.739 	 61.3633 	 -3.83046
| 28> H 	 -110.011 	 61.5533 	 -4.44194
| 29> C 	 -108.057 	 63.4756 	 -3.46874
| 30> H 	 -107.22 	 63.6708 	 -2.80009
| 31> H 	 -108.863 	 63.3248 	 -2.7335
| 32> C 	 -108.315 	 64.4832 	 -4.59088
| 33> H 	 -109.167 	 64.2224 	 -5.09993
| 34> H 	 -107.46 	 64.3709 	 -5.22356
| 35> C 	 -108.474 	 65.8805 	 -4.04992
| 36> H 	 -108.758 	 66.5885 	 -4.77321
| 37> H 	 -107.56 	 66.3293 	 -3.64922
| 38> H 	 -109.161 	 65.8657 	 -3.20994
| 39> H 	 -101.927 	 61.2935 	 -2.62875
| 40> H 	 -109.295 	 59.2944 	 -5.3562
| 41> *
| 42>
| 43>                          ****END OF INPUT****

CARTESIAN COORDINATES (ANGSTROEM)
---------------------------------
  S    -104.406000   60.669500   -2.574600
  C    -102.925000   61.532600   -2.956950
  C    -103.217000   62.536500   -3.903010
  C    -104.622000   62.647400   -4.239290
  C    -105.394000   61.781700   -3.490020
  H    -105.034000   63.179000   -5.147580
  C    -102.164000   63.423200   -4.580510
  H    -101.271000   63.379400   -3.891090
  H    -102.599000   64.419300   -4.515680
  C    -101.734000   63.163500   -6.018810
  H    -100.963000   62.405100   -6.009460
  H    -102.502000   62.683000   -6.584080
  C    -101.049000   64.400900   -6.721380
  H    -100.534000   64.046800   -7.677440
  H    -101.786000   65.191300   -6.836060
  H    -100.275000   64.909100   -6.115180
  S    -106.948000   59.677400   -4.476410
  C    -108.621000   59.889900   -4.709330
  C    -108.975000   61.175300   -4.356060
  C    -107.922000   62.058300   -3.931040
  C    -106.739000   61.363300   -3.830460
  H    -110.011000   61.553300   -4.441940
  C    -108.057000   63.475600   -3.468740
  H    -107.220000   63.670800   -2.800090
  H    -108.863000   63.324800   -2.733500
  C    -108.315000   64.483200   -4.590880
  H    -109.167000   64.222400   -5.099930
  H    -107.460000   64.370900   -5.223560
  C    -108.474000   65.880500   -4.049920
  H    -108.758000   66.588500   -4.773210
  H    -107.560000   66.329300   -3.649220
  H    -109.161000   65.865700   -3.209940
  H    -101.927000   61.293500   -2.628750
  H    -109.295000   59.294400   -5.356200

 Total Charge           Charge          ....    0
 Multiplicity           Mult            ....    1
 Number of Electrons    NEL             ....  134
 Basis Dimension        Dim             ....  322

ORBITAL ENERGIES
----------------

  NO   OCC          E(Eh)            E(eV)
   0   2.0000     -88.967951     -2420.9410
   1   2.0000     -88.961235     -2420.7583
   2   2.0000     -10.329443      -281.0784
   3   2.0000     -10.325183      -280.9625
   4   2.0000     -10.319758      -280.8149
   5   2.0000     -10.315438      -280.6973
   6   2.0000     -10.307918      -280.4927
   7   2.0000     -10.302829      -280.3542
   8   2.0000     -10.298568      -280.2383
   9   2.0000     -10.295577      -280.1569
  10   2.0000     -10.292956      -280.0856
  11   2.0000     -10.290622      -280.0221
  12   2.0000     -10.288442      -279.9627
  13   2.0000     -10.287419      -279.9349
  14   2.0000     -10.280495      -279.7465
  15   2.0000     -10.272102      -279.5181
  16   2.0000      -8.082473      -219.9353
  17   2.0000      -8.075950      -219.7578
  18   2.0000      -6.041049      -164.3853
  19   2.0000      -6.036983      -164.2747
  20   2.0000      -6.034511      -164.2074
  21   2.0000      -6.033172      -164.1710
  22   2.0000      -6.030436      -164.0965
  23   2.0000      -6.026643      -163.9933
  24   2.0000      -1.006233       -27.3810
  25   2.0000      -0.981660       -26.7123
  26   2.0000      -0.917321       -24.9616
  27   2.0000      -0.907374       -24.6909
  28   2.0000      -0.870412       -23.6851
  29   2.0000      -0.854553       -23.2536
  30   2.0000      -0.843774       -22.9603
  31   2.0000      -0.809399       -22.0249
  32   2.0000      -0.782701       -21.2984
  33   2.0000      -0.769474       -20.9385
  34   2.0000      -0.713981       -19.4284
  35   2.0000      -0.706057       -19.2128
  36   2.0000      -0.698805       -19.0154
  37   2.0000      -0.655198       -17.8289
  38   2.0000      -0.639421       -17.3995
  39   2.0000      -0.614638       -16.7252
  40   2.0000      -0.593141       -16.1402
  41   2.0000      -0.571194       -15.5430
  42   2.0000      -0.562581       -15.3086
  43   2.0000      -0.554634       -15.0924
  44   2.0000      -0.536198       -14.5907
  45   2.0000      -0.524817       -14.2810
  46   2.0000      -0.516374       -14.0512
  47   2.0000      -0.513807       -13.9814
  48   2.0000      -0.506905       -13.7936
  49   2.0000      -0.499911       -13.6033
  50   2.0000      -0.494064       -13.4442
  51   2.0000      -0.475595       -12.9416
  52   2.0000      -0.471813       -12.8387
  53   2.0000      -0.463027       -12.5996
  54   2.0000      -0.452972       -12.3260
  55   2.0000      -0.450784       -12.2665
  56   2.0000      -0.445293       -12.1170
  57   2.0000      -0.442186       -12.0325
  58   2.0000      -0.440368       -11.9830
  59   2.0000      -0.427084       -11.6216
  60   2.0000      -0.420095       -11.4314
  61   2.0000      -0.411912       -11.2087
  62   2.0000      -0.409522       -11.1437
  63   2.0000      -0.349631        -9.5139
  64   2.0000      -0.330305        -8.9881
  65   2.0000      -0.323495        -8.8027
  66   2.0000      -0.292598        -7.9620
  67   0.0000       0.030086         0.8187
  68   0.0000       0.060186         1.6377
  69   0.0000       0.112308         3.0561
  70   0.0000       0.119732         3.2581
  71   0.0000       0.126448         3.4408

MULLIKEN ATOMIC CHARGES
-----------------------
   0 S :    0.102974
   1 C :   -0.098272
   2 C :   -0.126499
   3 C :    0.016629
   4 C :   -0.148512
   5 H :    0.054615
   6 C :    0.037551
   7 H :    0.028988
   8 H :    0.026836
   9 C :   -0.031691
  10 H :    0.017906
  11 H :    0.025655
  12 C :   -0.088530
  13 H :    0.055417
  14 H :    0.034769
  15 H :    0.035104
  16 S :    0.099946
  17 C :   -0.084274
  18 C :   -0.057863
  19 C :   -0.048074
  20 C :   -0.167347
  21 H :    0.018747
  22 C :    0.032494
  23 H :    0.027768
  24 H :    0.026904
  25 C :    0.000452
  26 H :    0.011056
  27 H :    0.017217
  28 C :   -0.010157
  29 H :    0.023350
  30 H :    0.021427
  31 H :    0.023344
  32 H :    0.046370
  33 H :    0.075700
Sum of atomic charges:   -0.0000000

LOEWDIN ATOMIC CHARGES
----------------------
   0 S :    0.412005
   1 C :   -0.197400
   2 C :   -0.062317
   3 C :   -0.064929
   4 C :   -0.200416
   5 H :    0.045397
   6 C :   -0.038593
   7 H :    0.035173
   8 H :    0.028548
   9 C :   -0.042233
  10 H :    0.023348
  11 H :    0.021505
  12 C :   -0.070500
  13 H :    0.038119
  14 H :    0.021459
  15 H :    0.027672
  16 S :    0.391267
  17 C :   -0.211626
  18 C :   -0.080082
  19 C :   -0.059028
  20 C :   -0.181918
  21 H :    0.029192
  22 C :   -0.032484
  23 H :    0.032655
  24 H :    0.035192
  25 C :   -0.024517
  26 H :    0.016103
  27 H :    0.022840
  28 C :   -0.060051
  29 H :    0.019730
  30 H :    0.027109
  31 H :    0.026038
  32 H :    0.028681
  33 H :    0.044062

  Mayer bond orders larger than 0.100000
B(  0-S ,  1-C ) :   1.1329 B(  0-S ,  4-C ) :   1.1560 B(  1-C ,  2-C ) :   1.6036
B(  1-C , 32-H ) :   0.9716 B(  2-C ,  3-C ) :   1.2512 B(  2-C ,  6-C ) :   1.0207
B(  3-C ,  4-C ) :   1.5598 B(  3-C ,  5-H ) :   0.9755 B(  4-C , 20-C ) :   1.0338
B(  6-C ,  7-H ) :   0.9420 B(  6-C ,  8-H ) :   0.9481 B(  6-C ,  9-C ) :   1.0541
B(  9-C , 10-H ) :   0.9529 B(  9-C , 11-H ) :   0.9609 B(  9-C , 12-C ) :   1.0647
B( 12-C , 13-H ) :   0.9754 B( 12-C , 14-H ) :   0.9784 B( 12-C , 15-H ) :   0.9763
B( 16-S , 17-C ) :   1.1532 B( 16-S , 20-C ) :   1.1245 B( 17-C , 18-C ) :   1.6088
B( 17-C , 33-H ) :   0.9587 B( 18-C , 19-C ) :   1.2476 B( 18-C , 21-H ) :   0.9798
B( 19-C , 20-C ) :   1.6116 B( 19-C , 22-C ) :   1.0328 B( 22-C , 23-H ) :   0.9378
B( 22-C , 24-H ) :   0.9314 B( 22-C , 25-C ) :   1.0492 B( 25-C , 26-H ) :   0.9533
B( 25-C , 27-H ) :   0.9523 B( 25-C , 28-C ) :   1.0938 B( 28-C , 29-H ) :   0.9727
B( 28-C , 30-H ) :   0.9714 B( 28-C , 31-H ) :   0.9712

Dispersion correction           -0.013781786
FINAL SINGLE POINT ENERGY     -1339.867722876015

DIPOLE MOMENT
-------------
                                X             Y             Z
Electronic contribution:     -5.68301     -26.23478      10.49958
Nuclear contribution   :      5.76425      26.80202     -10.94936
                        -----------------------------------------
Total Dipole Moment    :      0.08124       0.56724      -0.44979
                        -----------------------------------------
Magnitude (a.u.)       :      0.72847
Magnitude (Debye)      :      1.85163

Rotational constants in cm-1:     0.016243     0.008639     0.006688
Rotational constants in MHz :   486.958733   258.981075   200.496185

                             ****ORCA TERMINATED NORMALLY****
TOTAL RUN TIME: 0 days 0 hours 0 minutes 19 seconds 995 msec
