                         Program Version 4.2.1 -  RELEASE  -
|  1> ! wB97X-D3 SP def2-SVP
|  2> %pal
|  3> nprocs 24
|  4> end
|  5>
|  6> * xyz 0 1
|  7> S 	 -95.6587 	 11.8856 	 -120.013
|  8> C 	 -94.8321 	 10.5483 	 -119.243
|  9> C 	 -94.5708 	 10.8443 	 -117.937
| 10> C 	 -94.8612 	 12.2316 	 -117.615
| 11> C 	 -95.6662 	 12.807 	 -118.594
| 12> H 	 -94.7407 	 12.731 	 -116.689
| 13> C 	 -93.7493 	 10.0792 	 -116.884
| 14> H 	 -92.7773 	 10.5627 	 -116.72
| 15> H 	 -93.4348 	 9.1921 	 -117.377
| 16> C 	 -94.5261 	 9.6828 	 -115.694
| 17> H 	 -93.8373 	 9.34767 	 -114.856
| 18> H 	 -95.0593 	 10.5241 	 -115.233
| 19> C 	 -95.5377 	 8.52459 	 -116.061
| 20> H 	 -96.4557 	 8.88715 	 -116.565
| 21> H 	 -95.0453 	 7.74002 	 -116.602
| 22> H 	 -95.8996 	 8.04513 	 -115.199
| 23> S 	 -95.6371 	 15.5537 	 -118.759
| 24> C 	 -97.0594 	 16.4982 	 -118.336
| 25> C 	 -98.1308 	 15.6073 	 -118.164
| 26> C 	 -97.8272 	 14.2053 	 -118.203
| 27> C 	 -96.4523 	 13.9999 	 -118.447
| 28> H 	 -99.0966 	 15.9378 	 -117.95
| 29> C 	 -98.7408 	 13.1243 	 -117.703
| 30> H 	 -99.7231 	 13.5762 	 -117.51
| 31> H 	 -98.3163 	 12.8601 	 -116.701
| 32> C 	 -99.0258 	 11.9191 	 -118.64
| 33> H 	 -98.0864 	 11.5592 	 -118.997
| 34> H 	 -99.4391 	 12.2974 	 -119.556
| 35> C 	 -99.8188 	 10.8731 	 -117.956
| 36> H 	 -99.2259 	 10.4337 	 -117.103
| 37> H 	 -100.047 	 10.0212 	 -118.684
| 38> H 	 -100.803 	 11.2381 	 -117.599
| 39> H 	 -94.4746 	 9.62354 	 -119.595
| 40> H 	 -97.2213 	 17.6111 	 -118.336
| 41> *
| 42>
| 43>                          ****END OF INPUT****

CARTESIAN COORDINATES (ANGSTROEM)
---------------------------------
  S    -95.658700   11.885600  -120.013000
  C    -94.832100   10.548300  -119.243000
  C    -94.570800   10.844300  -117.937000
  C    -94.861200   12.231600  -117.615000
  C    -95.666200   12.807000  -118.594000
  H    -94.740700   12.731000  -116.689000
  C    -93.749300   10.079200  -116.884000
  H    -92.777300   10.562700  -116.720000
  H    -93.434800    9.192100  -117.377000
  C    -94.526100    9.682800  -115.694000
  H    -93.837300    9.347670  -114.856000
  H    -95.059300   10.524100  -115.233000
  C    -95.537700    8.524590  -116.061000
  H    -96.455700    8.887150  -116.565000
  H    -95.045300    7.740020  -116.602000
  H    -95.899600    8.045130  -115.199000
  S    -95.637100   15.553700  -118.759000
  C    -97.059400   16.498200  -118.336000
  C    -98.130800   15.607300  -118.164000
  C    -97.827200   14.205300  -118.203000
  C    -96.452300   13.999900  -118.447000
  H    -99.096600   15.937800  -117.950000
  C    -98.740800   13.124300  -117.703000
  H    -99.723100   13.576200  -117.510000
  H    -98.316300   12.860100  -116.701000
  C    -99.025800   11.919100  -118.640000
  H    -98.086400   11.559200  -118.997000
  H    -99.439100   12.297400  -119.556000
  C    -99.818800   10.873100  -117.956000
  H    -99.225900   10.433700  -117.103000
  H    -100.047000   10.021200  -118.684000
  H    -100.803000   11.238100  -117.599000
  H    -94.474600    9.623540  -119.595000
  H    -97.221300   17.611100  -118.336000

 Total Charge           Charge          ....    0
 Multiplicity           Mult            ....    1
 Number of Electrons    NEL             ....  134
 Basis Dimension        Dim             ....  322

ORBITAL ENERGIES
----------------

  NO   OCC          E(Eh)            E(eV)
   0   2.0000     -88.969670     -2420.9878
   1   2.0000     -88.965476     -2420.8737
   2   2.0000     -10.326196      -280.9901
   3   2.0000     -10.324350      -280.9398
   4   2.0000     -10.323903      -280.9277
   5   2.0000     -10.311790      -280.5981
   6   2.0000     -10.304352      -280.3957
   7   2.0000     -10.301111      -280.3075
   8   2.0000     -10.292999      -280.0867
   9   2.0000     -10.292197      -280.0649
  10   2.0000     -10.292055      -280.0610
  11   2.0000     -10.290734      -280.0251
  12   2.0000     -10.288029      -279.9515
  13   2.0000     -10.283429      -279.8263
  14   2.0000     -10.275881      -279.6209
  15   2.0000     -10.273590      -279.5586
  16   2.0000      -8.084524      -219.9911
  17   2.0000      -8.079224      -219.8469
  18   2.0000      -6.043090      -164.4408
  19   2.0000      -6.038880      -164.3263
  20   2.0000      -6.037823      -164.2975
  21   2.0000      -6.035284      -164.2284
  22   2.0000      -6.033701      -164.1854
  23   2.0000      -6.030114      -164.0877
  24   2.0000      -1.010339       -27.4927
  25   2.0000      -0.980354       -26.6768
  26   2.0000      -0.917380       -24.9632
  27   2.0000      -0.907824       -24.7031
  28   2.0000      -0.869908       -23.6714
  29   2.0000      -0.850404       -23.1407
  30   2.0000      -0.844174       -22.9711
  31   2.0000      -0.810232       -22.0475
  32   2.0000      -0.786553       -21.4032
  33   2.0000      -0.768202       -20.9038
  34   2.0000      -0.711492       -19.3607
  35   2.0000      -0.699576       -19.0364
  36   2.0000      -0.691584       -18.8190
  37   2.0000      -0.661822       -18.0091
  38   2.0000      -0.643618       -17.5137
  39   2.0000      -0.618861       -16.8401
  40   2.0000      -0.590463       -16.0673
  41   2.0000      -0.571309       -15.5461
  42   2.0000      -0.564300       -15.3554
  43   2.0000      -0.556686       -15.1482
  44   2.0000      -0.536773       -14.6063
  45   2.0000      -0.520987       -14.1768
  46   2.0000      -0.515272       -14.0213
  47   2.0000      -0.509295       -13.8586
  48   2.0000      -0.506460       -13.7815
  49   2.0000      -0.502321       -13.6689
  50   2.0000      -0.488266       -13.2864
  51   2.0000      -0.479797       -13.0559
  52   2.0000      -0.472045       -12.8450
  53   2.0000      -0.460435       -12.5291
  54   2.0000      -0.459304       -12.4983
  55   2.0000      -0.451137       -12.2760
  56   2.0000      -0.445889       -12.1333
  57   2.0000      -0.443655       -12.0725
  58   2.0000      -0.427785       -11.6406
  59   2.0000      -0.422705       -11.5024
  60   2.0000      -0.418076       -11.3764
  61   2.0000      -0.411701       -11.2030
  62   2.0000      -0.406844       -11.0708
  63   2.0000      -0.333121        -9.0647
  64   2.0000      -0.327026        -8.8988
  65   2.0000      -0.324599        -8.8328
  66   2.0000      -0.306185        -8.3317
  67   0.0000       0.039521         1.0754
  68   0.0000       0.051999         1.4150
  69   0.0000       0.110324         3.0021
  70   0.0000       0.121701         3.3117
  71   0.0000       0.124757         3.3948

MULLIKEN ATOMIC CHARGES
-----------------------
   0 S :    0.133413
   1 C :   -0.074677
   2 C :   -0.136902
   3 C :    0.072191
   4 C :   -0.177882
   5 H :    0.005571
   6 C :    0.097292
   7 H :    0.042725
   8 H :   -0.011226
   9 C :   -0.087476
  10 H :    0.036573
  11 H :    0.030354
  12 C :   -0.039661
  13 H :    0.049794
  14 H :    0.023340
  15 H :    0.015800
  16 S :    0.111123
  17 C :   -0.102218
  18 C :   -0.027874
  19 C :   -0.003565
  20 C :   -0.196148
  21 H :   -0.009958
  22 C :    0.036484
  23 H :    0.008665
  24 H :    0.046768
  25 C :   -0.029117
  26 H :    0.020003
  27 H :    0.014354
  28 C :   -0.062506
  29 H :    0.041556
  30 H :    0.042454
  31 H :    0.031228
  32 H :    0.019206
  33 H :    0.080316
Sum of atomic charges:    0.0000000

LOEWDIN ATOMIC CHARGES
----------------------
   0 S :    0.448734
   1 C :   -0.196368
   2 C :   -0.057847
   3 C :   -0.046969
   4 C :   -0.221725
   5 H :    0.025078
   6 C :   -0.036472
   7 H :    0.037307
   8 H :    0.019898
   9 C :   -0.043458
  10 H :    0.031274
  11 H :    0.022659
  12 C :   -0.060756
  13 H :    0.032620
  14 H :    0.021421
  15 H :    0.018672
  16 S :    0.398747
  17 C :   -0.199376
  18 C :   -0.067958
  19 C :   -0.054440
  20 C :   -0.197831
  21 H :    0.016776
  22 C :   -0.032477
  23 H :    0.026494
  24 H :    0.040475
  25 C :   -0.046094
  26 H :    0.008488
  27 H :    0.023179
  28 C :   -0.070418
  29 H :    0.031598
  30 H :    0.034554
  31 H :    0.023970
  32 H :    0.023331
  33 H :    0.046914

  Mayer bond orders larger than 0.100000
B(  0-S ,  1-C ) :   1.1214 B(  0-S ,  4-C ) :   1.1658 B(  1-C ,  2-C ) :   1.6417
B(  1-C , 32-H ) :   0.9689 B(  2-C ,  3-C ) :   1.2203 B(  2-C ,  6-C ) :   1.0143
B(  3-C ,  4-C ) :   1.5811 B(  3-C ,  5-H ) :   0.9908 B(  4-C , 20-C ) :   1.0222
B(  6-C ,  7-H ) :   0.9430 B(  6-C ,  8-H ) :   0.9354 B(  6-C ,  9-C ) :   1.0699
B(  9-C , 10-H ) :   0.9544 B(  9-C , 11-H ) :   0.9592 B(  9-C , 12-C ) :   1.0675
B( 12-C , 13-H ) :   0.9750 B( 12-C , 14-H ) :   0.9760 B( 12-C , 15-H ) :   0.9738
B( 16-S , 17-C ) :   1.1527 B( 16-S , 20-C ) :   1.1521 B( 17-C , 18-C ) :   1.5872
B( 17-C , 20-C ) :   0.1117 B( 17-C , 33-H ) :   0.9609 B( 18-C , 19-C ) :   1.2682
B( 18-C , 21-H ) :   0.9904 B( 19-C , 20-C ) :   1.5582 B( 19-C , 22-C ) :   1.0413
B( 22-C , 23-H ) :   0.9308 B( 22-C , 24-H ) :   0.9395 B( 22-C , 25-C ) :   1.0519
B( 25-C , 26-H ) :   0.9487 B( 25-C , 27-H ) :   0.9450 B( 25-C , 28-C ) :   1.0966
B( 28-C , 29-H ) :   0.9710 B( 28-C , 30-H ) :   0.9703 B( 28-C , 31-H ) :   0.9711

Dispersion correction           -0.015504847
FINAL SINGLE POINT ENERGY     -1339.867021369561

DIPOLE MOMENT
-------------
                                X             Y             Z
Electronic contribution:      9.57467      21.54882     -14.64020
Nuclear contribution   :     -9.70120     -21.90926      15.09508
                        -----------------------------------------
Total Dipole Moment    :     -0.12653      -0.36044       0.45488
                        -----------------------------------------
Magnitude (a.u.)       :      0.59401
Magnitude (Debye)      :      1.50985

Rotational constants in cm-1:     0.018929     0.009553     0.007940
Rotational constants in MHz :   567.480080   286.403462   238.031523

                             ****ORCA TERMINATED NORMALLY****
TOTAL RUN TIME: 0 days 0 hours 0 minutes 21 seconds 564 msec
