                         Program Version 4.2.1 -  RELEASE  -
|  1> ! wB97X-D3 SP def2-SVP
|  2> %pal
|  3> nprocs 24
|  4> end
|  5>
|  6> * xyz 0 1
|  7> S 	 -104.203 	 21.4197 	 -119.206
|  8> C 	 -105.904 	 21.1717 	 -118.642
|  9> C 	 -106.611 	 20.349 	 -119.408
| 10> C 	 -105.757 	 19.817 	 -120.425
| 11> C 	 -104.43 	 20.2404 	 -120.462
| 12> H 	 -106.195 	 19.0926 	 -121.082
| 13> C 	 -108.122 	 20.1268 	 -119.333
| 14> H 	 -108.604 	 20.0221 	 -120.309
| 15> H 	 -108.482 	 20.9969 	 -118.842
| 16> C 	 -108.591 	 19.0021 	 -118.385
| 17> H 	 -108.118 	 19.1137 	 -117.434
| 18> H 	 -109.715 	 19.0215 	 -118.322
| 19> C 	 -107.934 	 17.6282 	 -118.743
| 20> H 	 -108.632 	 17.0605 	 -119.309
| 21> H 	 -107.075 	 17.7225 	 -119.327
| 22> H 	 -107.655 	 16.9928 	 -117.867
| 23> S 	 -101.696 	 19.6948 	 -120.663
| 24> C 	 -101.06 	 19.098 	 -122.139
| 25> C 	 -102.061 	 18.79 	 -122.997
| 26> C 	 -103.308 	 19.314 	 -122.652
| 27> C 	 -103.328 	 19.7849 	 -121.29
| 28> H 	 -101.706 	 18.3127 	 -123.905
| 29> C 	 -104.408 	 19.3682 	 -123.633
| 30> H 	 -104.118 	 19.9474 	 -124.5
| 31> H 	 -105.188 	 19.9025 	 -123.072
| 32> C 	 -104.82 	 17.982 	 -124.108
| 33> H 	 -104.933 	 17.2627 	 -123.333
| 34> H 	 -104.04 	 17.7111 	 -124.814
| 35> C 	 -106.106 	 17.931 	 -125.001
| 36> H 	 -105.925 	 18.7345 	 -125.794
| 37> H 	 -106.978 	 17.9689 	 -124.369
| 38> H 	 -106.124 	 16.9633 	 -125.56
| 39> H 	 -106.472 	 21.6881 	 -117.884
| 40> H 	 -100.007 	 18.9325 	 -122.458
| 41> *
| 42>
| 43>                          ****END OF INPUT****

CARTESIAN COORDINATES (ANGSTROEM)
---------------------------------
  S    -104.203000   21.419700  -119.206000
  C    -105.904000   21.171700  -118.642000
  C    -106.611000   20.349000  -119.408000
  C    -105.757000   19.817000  -120.425000
  C    -104.430000   20.240400  -120.462000
  H    -106.195000   19.092600  -121.082000
  C    -108.122000   20.126800  -119.333000
  H    -108.604000   20.022100  -120.309000
  H    -108.482000   20.996900  -118.842000
  C    -108.591000   19.002100  -118.385000
  H    -108.118000   19.113700  -117.434000
  H    -109.715000   19.021500  -118.322000
  C    -107.934000   17.628200  -118.743000
  H    -108.632000   17.060500  -119.309000
  H    -107.075000   17.722500  -119.327000
  H    -107.655000   16.992800  -117.867000
  S    -101.696000   19.694800  -120.663000
  C    -101.060000   19.098000  -122.139000
  C    -102.061000   18.790000  -122.997000
  C    -103.308000   19.314000  -122.652000
  C    -103.328000   19.784900  -121.290000
  H    -101.706000   18.312700  -123.905000
  C    -104.408000   19.368200  -123.633000
  H    -104.118000   19.947400  -124.500000
  H    -105.188000   19.902500  -123.072000
  C    -104.820000   17.982000  -124.108000
  H    -104.933000   17.262700  -123.333000
  H    -104.040000   17.711100  -124.814000
  C    -106.106000   17.931000  -125.001000
  H    -105.925000   18.734500  -125.794000
  H    -106.978000   17.968900  -124.369000
  H    -106.124000   16.963300  -125.560000
  H    -106.472000   21.688100  -117.884000
  H    -100.007000   18.932500  -122.458000

 Total Charge           Charge          ....    0
 Multiplicity           Mult            ....    1
 Number of Electrons    NEL             ....  134
 Basis Dimension        Dim             ....  322

ORBITAL ENERGIES
----------------

  NO   OCC          E(Eh)            E(eV)
   0   2.0000     -88.968633     -2420.9596
   1   2.0000     -88.967394     -2420.9259
   2   2.0000     -10.335223      -281.2357
   3   2.0000     -10.332038      -281.1491
   4   2.0000     -10.314449      -280.6704
   5   2.0000     -10.312013      -280.6041
   6   2.0000     -10.302937      -280.3572
   7   2.0000     -10.296172      -280.1731
   8   2.0000     -10.296089      -280.1708
   9   2.0000     -10.293352      -280.0963
  10   2.0000     -10.290961      -280.0313
  11   2.0000     -10.287012      -279.9238
  12   2.0000     -10.286189      -279.9014
  13   2.0000     -10.285315      -279.8776
  14   2.0000     -10.283486      -279.8279
  15   2.0000     -10.269763      -279.4545
  16   2.0000      -8.082667      -219.9406
  17   2.0000      -8.082498      -219.9359
  18   2.0000      -6.041438      -164.3959
  19   2.0000      -6.040984      -164.3835
  20   2.0000      -6.037355      -164.2848
  21   2.0000      -6.036853      -164.2711
  22   2.0000      -6.033354      -164.1759
  23   2.0000      -6.033079      -164.1684
  24   2.0000      -1.010345       -27.4929
  25   2.0000      -0.989821       -26.9344
  26   2.0000      -0.916338       -24.9348
  27   2.0000      -0.914529       -24.8856
  28   2.0000      -0.873255       -23.7625
  29   2.0000      -0.851529       -23.1713
  30   2.0000      -0.840731       -22.8775
  31   2.0000      -0.816948       -22.2303
  32   2.0000      -0.790299       -21.5051
  33   2.0000      -0.773052       -21.0358
  34   2.0000      -0.711146       -19.3513
  35   2.0000      -0.701963       -19.1014
  36   2.0000      -0.695278       -18.9195
  37   2.0000      -0.653547       -17.7839
  38   2.0000      -0.632602       -17.2140
  39   2.0000      -0.623199       -16.9581
  40   2.0000      -0.596798       -16.2397
  41   2.0000      -0.583376       -15.8745
  42   2.0000      -0.575982       -15.6733
  43   2.0000      -0.548729       -14.9317
  44   2.0000      -0.543315       -14.7843
  45   2.0000      -0.522603       -14.2207
  46   2.0000      -0.519347       -14.1321
  47   2.0000      -0.515931       -14.0392
  48   2.0000      -0.508203       -13.8289
  49   2.0000      -0.499593       -13.5946
  50   2.0000      -0.493299       -13.4233
  51   2.0000      -0.477692       -12.9987
  52   2.0000      -0.470769       -12.8103
  53   2.0000      -0.467300       -12.7159
  54   2.0000      -0.461577       -12.5602
  55   2.0000      -0.448203       -12.1962
  56   2.0000      -0.443192       -12.0599
  57   2.0000      -0.438260       -11.9256
  58   2.0000      -0.434855       -11.8330
  59   2.0000      -0.428678       -11.6649
  60   2.0000      -0.418931       -11.3997
  61   2.0000      -0.410889       -11.1809
  62   2.0000      -0.408927       -11.1275
  63   2.0000      -0.356280        -9.6949
  64   2.0000      -0.334303        -9.0968
  65   2.0000      -0.330935        -9.0052
  66   2.0000      -0.284137        -7.7318
  67   0.0000       0.020071         0.5462
  68   0.0000       0.084735         2.3058
  69   0.0000       0.098621         2.6836
  70   0.0000       0.119856         3.2614
  71   0.0000       0.126114         3.4317

MULLIKEN ATOMIC CHARGES
-----------------------
   0 S :    0.106053
   1 C :   -0.103835
   2 C :   -0.116322
   3 C :    0.024602
   4 C :   -0.138950
   5 H :   -0.004061
   6 C :    0.092542
   7 H :    0.040341
   8 H :    0.012083
   9 C :   -0.075278
  10 H :    0.023330
  11 H :    0.051150
  12 C :   -0.050974
  13 H :    0.017177
  14 H :    0.016066
  15 H :    0.039687
  16 S :    0.116396
  17 C :   -0.103093
  18 C :   -0.050648
  19 C :   -0.046677
  20 C :   -0.124688
  21 H :    0.017117
  22 C :    0.103319
  23 H :    0.030225
  24 H :    0.015756
  25 C :   -0.107190
  26 H :    0.030574
  27 H :    0.026840
  28 C :   -0.056083
  29 H :    0.039118
  30 H :    0.040202
  31 H :    0.038267
  32 H :    0.028301
  33 H :    0.068655
Sum of atomic charges:   -0.0000000

LOEWDIN ATOMIC CHARGES
----------------------
   0 S :    0.386907
   1 C :   -0.173132
   2 C :   -0.067616
   3 C :   -0.065729
   4 C :   -0.192886
   5 H :    0.019812
   6 C :   -0.022949
   7 H :    0.033478
   8 H :    0.028261
   9 C :   -0.038285
  10 H :    0.022530
  11 H :    0.031773
  12 C :   -0.065957
  13 H :    0.017948
  14 H :    0.016426
  15 H :    0.032176
  16 S :    0.422659
  17 C :   -0.200858
  18 C :   -0.079848
  19 C :   -0.049348
  20 C :   -0.207175
  21 H :    0.032780
  22 C :   -0.034541
  23 H :    0.033320
  24 H :    0.029110
  25 C :   -0.037596
  26 H :    0.018291
  27 H :    0.023716
  28 C :   -0.067414
  29 H :    0.033138
  30 H :    0.020538
  31 H :    0.029339
  32 H :    0.027527
  33 H :    0.043604

  Mayer bond orders larger than 0.100000
B(  0-S ,  1-C ) :   1.1118 B(  0-S ,  4-C ) :   1.1323 B(  1-C ,  2-C ) :   1.6836
B(  1-C , 32-H ) :   0.9498 B(  2-C ,  3-C ) :   1.2382 B(  2-C ,  6-C ) :   1.0078
B(  3-C ,  4-C ) :   1.5575 B(  3-C ,  5-H ) :   0.9871 B(  4-C , 20-C ) :   1.0850
B(  6-C ,  7-H ) :   0.9492 B(  6-C ,  8-H ) :   0.9320 B(  6-C ,  9-C ) :   1.0762
B(  9-C , 10-H ) :   0.9606 B(  9-C , 11-H ) :   0.9620 B(  9-C , 12-C ) :   1.0484
B( 12-C , 13-H ) :   0.9762 B( 12-C , 14-H ) :   0.9767 B( 12-C , 15-H ) :   0.9815
B( 16-S , 17-C ) :   1.1640 B( 16-S , 20-C ) :   1.1468 B( 17-C , 18-C ) :   1.6100
B( 17-C , 20-C ) :   0.1018 B( 17-C , 33-H ) :   0.9590 B( 18-C , 19-C ) :   1.2575
B( 18-C , 21-H ) :   0.9887 B( 19-C , 20-C ) :   1.5203 B( 19-C , 22-C ) :   1.0599
B( 22-C , 23-H ) :   0.9224 B( 22-C , 24-H ) :   0.9272 B( 22-C , 25-C ) :   1.0598
B( 25-C , 26-H ) :   0.9638 B( 25-C , 27-H ) :   0.9516 B( 25-C , 28-C ) :   1.0848
B( 28-C , 29-H ) :   0.9716 B( 28-C , 30-H ) :   0.9789 B( 28-C , 31-H ) :   0.9762

Dispersion correction           -0.013973310
FINAL SINGLE POINT ENERGY     -1339.853972753472

DIPOLE MOMENT
-------------
                                X             Y             Z
Electronic contribution:     23.92817      14.18235      10.46945
Nuclear contribution   :    -24.36507     -14.48008     -10.91744
                        -----------------------------------------
Total Dipole Moment    :     -0.43690      -0.29773      -0.44799
                        -----------------------------------------
Magnitude (a.u.)       :      0.69297
Magnitude (Debye)      :      1.76140

Rotational constants in cm-1:     0.016662     0.009506     0.006791
Rotational constants in MHz :   499.522623   284.976991   203.596349

                             ****ORCA TERMINATED NORMALLY****
TOTAL RUN TIME: 0 days 0 hours 0 minutes 21 seconds 868 msec
