                         Program Version 4.2.1 -  RELEASE  -
|  1> ! wB97X-D3 SP def2-SVP
|  2> %pal
|  3> nprocs 24
|  4> end
|  5>
|  6> * xyz 0 1
|  7> S 	 -49.9297 	 26.1317 	 26.8981
|  8> C 	 -50.9608 	 26.2266 	 28.3566
|  9> C 	 -50.6814 	 25.1745 	 29.1937
| 10> C 	 -49.6796 	 24.2527 	 28.7073
| 11> C 	 -49.164 	 24.6277 	 27.5164
| 12> H 	 -49.3449 	 23.3823 	 29.2499
| 13> C 	 -51.582 	 24.943 	 30.4056
| 14> H 	 -51.5367 	 25.8278 	 31.0422
| 15> H 	 -51.0493 	 24.186 	 30.9554
| 16> C 	 -53.0036 	 24.4642 	 30.005
| 17> H 	 -53.6016 	 25.2749 	 29.6352
| 18> H 	 -53.0072 	 23.6452 	 29.2774
| 19> C 	 -53.8892 	 23.9309 	 31.1948
| 20> H 	 -54.956 	 23.7887 	 30.9611
| 21> H 	 -53.4288 	 22.9586 	 31.5871
| 22> H 	 -53.9428 	 24.6758 	 31.987
| 23> S 	 -46.5994 	 24.733 	 26.34
| 24> C 	 -45.9059 	 23.3452 	 25.6417
| 25> C 	 -46.7294 	 22.2917 	 25.8307
| 26> C 	 -47.9736 	 22.5798 	 26.4073
| 27> C 	 -48.0636 	 23.887 	 26.8074
| 28> H 	 -46.4301 	 21.3793 	 25.4901
| 29> C 	 -48.8991 	 21.387 	 26.6125
| 30> H 	 -49.1019 	 20.905 	 25.6449
| 31> H 	 -49.9449 	 21.7888 	 26.8504
| 32> C 	 -48.4491 	 20.2567 	 27.5413
| 33> H 	 -48.118 	 20.6027 	 28.4572
| 34> H 	 -47.7003 	 19.7187 	 26.8721
| 35> C 	 -49.5647 	 19.3631 	 27.9976
| 36> H 	 -49.2814 	 18.7089 	 28.8104
| 37> H 	 -50.0543 	 18.7734 	 27.2316
| 38> H 	 -50.318 	 19.8744 	 28.5286
| 39> H 	 -51.8514 	 26.7391 	 28.4792
| 40> H 	 -44.9209 	 23.3156 	 25.191
| 41> *
| 42>
| 43>                          ****END OF INPUT****

CARTESIAN COORDINATES (ANGSTROEM)
---------------------------------
  S    -49.929700   26.131700   26.898100
  C    -50.960800   26.226600   28.356600
  C    -50.681400   25.174500   29.193700
  C    -49.679600   24.252700   28.707300
  C    -49.164000   24.627700   27.516400
  H    -49.344900   23.382300   29.249900
  C    -51.582000   24.943000   30.405600
  H    -51.536700   25.827800   31.042200
  H    -51.049300   24.186000   30.955400
  C    -53.003600   24.464200   30.005000
  H    -53.601600   25.274900   29.635200
  H    -53.007200   23.645200   29.277400
  C    -53.889200   23.930900   31.194800
  H    -54.956000   23.788700   30.961100
  H    -53.428800   22.958600   31.587100
  H    -53.942800   24.675800   31.987000
  S    -46.599400   24.733000   26.340000
  C    -45.905900   23.345200   25.641700
  C    -46.729400   22.291700   25.830700
  C    -47.973600   22.579800   26.407300
  C    -48.063600   23.887000   26.807400
  H    -46.430100   21.379300   25.490100
  C    -48.899100   21.387000   26.612500
  H    -49.101900   20.905000   25.644900
  H    -49.944900   21.788800   26.850400
  C    -48.449100   20.256700   27.541300
  H    -48.118000   20.602700   28.457200
  H    -47.700300   19.718700   26.872100
  C    -49.564700   19.363100   27.997600
  H    -49.281400   18.708900   28.810400
  H    -50.054300   18.773400   27.231600
  H    -50.318000   19.874400   28.528600
  H    -51.851400   26.739100   28.479200
  H    -44.920900   23.315600   25.191000

 Total Charge           Charge          ....    0
 Multiplicity           Mult            ....    1
 Number of Electrons    NEL             ....  134
 Basis Dimension        Dim             ....  322

ORBITAL ENERGIES
----------------

  NO   OCC          E(Eh)            E(eV)
   0   2.0000     -88.966295     -2420.8960
   1   2.0000     -88.961445     -2420.7640
   2   2.0000     -10.335512      -281.2436
   3   2.0000     -10.328936      -281.0646
   4   2.0000     -10.310501      -280.5630
   5   2.0000     -10.308866      -280.5185
   6   2.0000     -10.299780      -280.2713
   7   2.0000     -10.298876      -280.2467
   8   2.0000     -10.295309      -280.1496
   9   2.0000     -10.295256      -280.1482
  10   2.0000     -10.294800      -280.1357
  11   2.0000     -10.293638      -280.1041
  12   2.0000     -10.287964      -279.9497
  13   2.0000     -10.287181      -279.9284
  14   2.0000     -10.277363      -279.6613
  15   2.0000     -10.272517      -279.5294
  16   2.0000      -8.079564      -219.8561
  17   2.0000      -8.077381      -219.7967
  18   2.0000      -6.038352      -164.3119
  19   2.0000      -6.035814      -164.2428
  20   2.0000      -6.034294      -164.2015
  21   2.0000      -6.031620      -164.1287
  22   2.0000      -6.030072      -164.0866
  23   2.0000      -6.028244      -164.0369
  24   2.0000      -1.009786       -27.4777
  25   2.0000      -0.984989       -26.8029
  26   2.0000      -0.914815       -24.8934
  27   2.0000      -0.906396       -24.6643
  28   2.0000      -0.867627       -23.6093
  29   2.0000      -0.858218       -23.3533
  30   2.0000      -0.843342       -22.9485
  31   2.0000      -0.820845       -22.3363
  32   2.0000      -0.784496       -21.3472
  33   2.0000      -0.771108       -20.9829
  34   2.0000      -0.708279       -19.2732
  35   2.0000      -0.703669       -19.1478
  36   2.0000      -0.696191       -18.9443
  37   2.0000      -0.664248       -18.0751
  38   2.0000      -0.640031       -17.4161
  39   2.0000      -0.620661       -16.8890
  40   2.0000      -0.602451       -16.3935
  41   2.0000      -0.576517       -15.6878
  42   2.0000      -0.568385       -15.4665
  43   2.0000      -0.564327       -15.3561
  44   2.0000      -0.526066       -14.3150
  45   2.0000      -0.522126       -14.2078
  46   2.0000      -0.519141       -14.1265
  47   2.0000      -0.515897       -14.0383
  48   2.0000      -0.508347       -13.8328
  49   2.0000      -0.500384       -13.6161
  50   2.0000      -0.493959       -13.4413
  51   2.0000      -0.485721       -13.2171
  52   2.0000      -0.475142       -12.9293
  53   2.0000      -0.464566       -12.6415
  54   2.0000      -0.460627       -12.5343
  55   2.0000      -0.445136       -12.1128
  56   2.0000      -0.440549       -11.9880
  57   2.0000      -0.433988       -11.8094
  58   2.0000      -0.431226       -11.7343
  59   2.0000      -0.429612       -11.6903
  60   2.0000      -0.419140       -11.4054
  61   2.0000      -0.414931       -11.2908
  62   2.0000      -0.410398       -11.1675
  63   2.0000      -0.348349        -9.4791
  64   2.0000      -0.332245        -9.0409
  65   2.0000      -0.329246        -8.9592
  66   2.0000      -0.300392        -8.1741
  67   0.0000       0.036329         0.9886
  68   0.0000       0.068392         1.8610
  69   0.0000       0.113491         3.0883
  70   0.0000       0.124877         3.3981
  71   0.0000       0.130911         3.5623

MULLIKEN ATOMIC CHARGES
-----------------------
   0 S :    0.099889
   1 C :   -0.082951
   2 C :   -0.124958
   3 C :    0.042324
   4 C :   -0.128628
   5 H :    0.012103
   6 C :    0.084504
   7 H :    0.039340
   8 H :    0.006189
   9 C :   -0.065158
  10 H :    0.026709
  11 H :    0.042021
  12 C :   -0.088541
  13 H :    0.040331
  14 H :    0.042506
  15 H :    0.025704
  16 S :    0.106763
  17 C :   -0.085164
  18 C :   -0.007214
  19 C :    0.013563
  20 C :   -0.181519
  21 H :   -0.027367
  22 C :    0.009166
  23 H :    0.027266
  24 H :    0.025637
  25 C :   -0.024130
  26 H :    0.013446
  27 H :    0.043778
  28 C :   -0.032069
  29 H :    0.022610
  30 H :    0.027937
  31 H :    0.007988
  32 H :    0.027831
  33 H :    0.060096
Sum of atomic charges:    0.0000000

LOEWDIN ATOMIC CHARGES
----------------------
   0 S :    0.367949
   1 C :   -0.175718
   2 C :   -0.058137
   3 C :   -0.061358
   4 C :   -0.168857
   5 H :    0.033105
   6 C :   -0.031173
   7 H :    0.035005
   8 H :    0.024573
   9 C :   -0.036338
  10 H :    0.020499
  11 H :    0.028896
  12 C :   -0.074855
  13 H :    0.027849
  14 H :    0.029427
  15 H :    0.019962
  16 S :    0.421434
  17 C :   -0.191011
  18 C :   -0.066740
  19 C :   -0.060070
  20 C :   -0.195730
  21 H :    0.012873
  22 C :   -0.040425
  23 H :    0.032528
  24 H :    0.030491
  25 C :   -0.034545
  26 H :    0.016790
  27 H :    0.034967
  28 C :   -0.063581
  29 H :    0.028507
  30 H :    0.022498
  31 H :    0.020529
  32 H :    0.016815
  33 H :    0.033841

  Mayer bond orders larger than 0.100000
B(  0-S ,  1-C ) :   1.1089 B(  0-S ,  4-C ) :   1.1344 B(  1-C ,  2-C ) :   1.6500
B(  1-C , 32-H ) :   0.9739 B(  2-C ,  3-C ) :   1.2135 B(  2-C ,  6-C ) :   1.0215
B(  3-C ,  4-C ) :   1.6108 B(  3-C ,  5-H ) :   0.9963 B(  4-C , 20-C ) :   1.0034
B(  6-C ,  7-H ) :   0.9386 B(  6-C ,  8-H ) :   0.9413 B(  6-C ,  9-C ) :   1.0541
B(  9-C , 10-H ) :   0.9559 B(  9-C , 11-H ) :   0.9625 B(  9-C , 12-C ) :   1.0768
B( 12-C , 13-H ) :   0.9764 B( 12-C , 14-H ) :   0.9778 B( 12-C , 15-H ) :   0.9756
B( 16-S , 17-C ) :   1.1663 B( 16-S , 20-C ) :   1.1513 B( 17-C , 18-C ) :   1.5917
B( 17-C , 33-H ) :   0.9682 B( 18-C , 19-C ) :   1.2439 B( 18-C , 21-H ) :   1.0100
B( 19-C , 20-C ) :   1.6019 B( 19-C , 22-C ) :   1.0469 B( 22-C , 23-H ) :   0.9338
B( 22-C , 24-H ) :   0.9387 B( 22-C , 25-C ) :   1.0547 B( 25-C , 26-H ) :   0.9557
B( 25-C , 27-H ) :   0.9497 B( 25-C , 28-C ) :   1.0993 B( 28-C , 29-H ) :   0.9705
B( 28-C , 30-H ) :   0.9733 B( 28-C , 31-H ) :   0.9665

Dispersion correction           -0.013755786
FINAL SINGLE POINT ENERGY     -1339.864004909255

DIPOLE MOMENT
-------------
                                X             Y             Z
Electronic contribution:     19.13640      21.12772     -16.16944
Nuclear contribution   :    -19.45700     -21.79970      16.51833
                        -----------------------------------------
Total Dipole Moment    :     -0.32059      -0.67198       0.34888
                        -----------------------------------------
Magnitude (a.u.)       :      0.82222
Magnitude (Debye)      :      2.08993

Rotational constants in cm-1:     0.017479     0.008683     0.006148
Rotational constants in MHz :   523.998415   260.308235   184.316793

                             ****ORCA TERMINATED NORMALLY****
TOTAL RUN TIME: 0 days 0 hours 0 minutes 21 seconds 46 msec
