                         Program Version 4.2.1 -  RELEASE  -
|  1> ! wB97X-D3 SP def2-SVP
|  2> %pal
|  3> nprocs 24
|  4> end
|  5>
|  6> * xyz 0 1
|  7> S 	 -50.4243 	 18.1076 	 -88.1499
|  8> C 	 -51.4383 	 17.8139 	 -89.557
|  9> C 	 -52.7606 	 18.1393 	 -89.2655
| 10> C 	 -52.9812 	 18.3039 	 -87.9139
| 11> C 	 -51.8709 	 18.239 	 -87.1159
| 12> H 	 -53.9101 	 18.6239 	 -87.4205
| 13> C 	 -53.9193 	 18.0496 	 -90.2244
| 14> H 	 -54.7593 	 17.4755 	 -89.8386
| 15> H 	 -53.6928 	 17.5324 	 -91.1154
| 16> C 	 -54.5517 	 19.4912 	 -90.5064
| 17> H 	 -55.1301 	 19.8382 	 -89.6306
| 18> H 	 -53.7726 	 20.2355 	 -90.7657
| 19> C 	 -55.5485 	 19.4088 	 -91.684
| 20> H 	 -56.283 	 18.5706 	 -91.6653
| 21> H 	 -56.254 	 20.2332 	 -91.7952
| 22> H 	 -55.0307 	 19.4337 	 -92.6545
| 23> S 	 -52.6969 	 17.1715 	 -84.6701
| 24> C 	 -52.1367 	 17.82 	 -83.1633
| 25> C 	 -51.2383 	 18.815 	 -83.3639
| 26> C 	 -51.1298 	 19.1724 	 -84.7738
| 27> C 	 -51.8739 	 18.3601 	 -85.6451
| 28> H 	 -50.6891 	 19.2352 	 -82.5271
| 29> C 	 -50.2276 	 20.2564 	 -85.1795
| 30> H 	 -49.6529 	 19.7746 	 -85.9525
| 31> H 	 -49.5489 	 20.4773 	 -84.3067
| 32> C 	 -50.9089 	 21.52 	 -85.6802
| 33> H 	 -51.6599 	 21.9691 	 -84.9884
| 34> H 	 -51.4138 	 21.2076 	 -86.6489
| 35> C 	 -49.8789 	 22.6642 	 -85.9064
| 36> H 	 -49.0662 	 22.1802 	 -86.3962
| 37> H 	 -49.5526 	 23.013 	 -84.9093
| 38> H 	 -50.3237 	 23.3742 	 -86.5651
| 39> H 	 -51.3129 	 17.8093 	 -90.6403
| 40> H 	 -52.3476 	 17.3286 	 -82.2234
| 41> *
| 42>
| 43>                          ****END OF INPUT****

CARTESIAN COORDINATES (ANGSTROEM)
---------------------------------
  S    -50.424300   18.107600  -88.149900
  C    -51.438300   17.813900  -89.557000
  C    -52.760600   18.139300  -89.265500
  C    -52.981200   18.303900  -87.913900
  C    -51.870900   18.239000  -87.115900
  H    -53.910100   18.623900  -87.420500
  C    -53.919300   18.049600  -90.224400
  H    -54.759300   17.475500  -89.838600
  H    -53.692800   17.532400  -91.115400
  C    -54.551700   19.491200  -90.506400
  H    -55.130100   19.838200  -89.630600
  H    -53.772600   20.235500  -90.765700
  C    -55.548500   19.408800  -91.684000
  H    -56.283000   18.570600  -91.665300
  H    -56.254000   20.233200  -91.795200
  H    -55.030700   19.433700  -92.654500
  S    -52.696900   17.171500  -84.670100
  C    -52.136700   17.820000  -83.163300
  C    -51.238300   18.815000  -83.363900
  C    -51.129800   19.172400  -84.773800
  C    -51.873900   18.360100  -85.645100
  H    -50.689100   19.235200  -82.527100
  C    -50.227600   20.256400  -85.179500
  H    -49.652900   19.774600  -85.952500
  H    -49.548900   20.477300  -84.306700
  C    -50.908900   21.520000  -85.680200
  H    -51.659900   21.969100  -84.988400
  H    -51.413800   21.207600  -86.648900
  C    -49.878900   22.664200  -85.906400
  H    -49.066200   22.180200  -86.396200
  H    -49.552600   23.013000  -84.909300
  H    -50.323700   23.374200  -86.565100
  H    -51.312900   17.809300  -90.640300
  H    -52.347600   17.328600  -82.223400

 Total Charge           Charge          ....    0
 Multiplicity           Mult            ....    1
 Number of Electrons    NEL             ....  134
 Basis Dimension        Dim             ....  322

ORBITAL ENERGIES
----------------

  NO   OCC          E(Eh)            E(eV)
   0   2.0000     -88.974543     -2421.1204
   1   2.0000     -88.962214     -2420.7849
   2   2.0000     -10.334129      -281.2059
   3   2.0000     -10.327513      -281.0259
   4   2.0000     -10.316816      -280.7348
   5   2.0000     -10.315042      -280.6866
   6   2.0000     -10.302211      -280.3374
   7   2.0000     -10.297948      -280.2214
   8   2.0000     -10.296775      -280.1895
   9   2.0000     -10.293613      -280.1034
  10   2.0000     -10.293271      -280.0942
  11   2.0000     -10.289579      -279.9937
  12   2.0000     -10.287627      -279.9406
  13   2.0000     -10.285793      -279.8907
  14   2.0000     -10.282326      -279.7963
  15   2.0000     -10.272350      -279.5249
  16   2.0000      -8.087617      -220.0752
  17   2.0000      -8.077448      -219.7985
  18   2.0000      -6.046376      -164.5303
  19   2.0000      -6.042426      -164.4228
  20   2.0000      -6.038129      -164.3059
  21   2.0000      -6.035997      -164.2478
  22   2.0000      -6.031731      -164.1317
  23   2.0000      -6.028276      -164.0377
  24   2.0000      -1.007935       -27.4273
  25   2.0000      -0.988607       -26.9014
  26   2.0000      -0.911998       -24.8167
  27   2.0000      -0.906403       -24.6645
  28   2.0000      -0.870395       -23.6847
  29   2.0000      -0.851660       -23.1748
  30   2.0000      -0.847109       -23.0510
  31   2.0000      -0.819308       -22.2945
  32   2.0000      -0.780403       -21.2359
  33   2.0000      -0.767744       -20.8914
  34   2.0000      -0.709799       -19.3146
  35   2.0000      -0.699925       -19.0459
  36   2.0000      -0.686791       -18.6885
  37   2.0000      -0.666039       -18.1238
  38   2.0000      -0.633631       -17.2420
  39   2.0000      -0.621529       -16.9127
  40   2.0000      -0.593827       -16.1589
  41   2.0000      -0.577723       -15.7206
  42   2.0000      -0.567159       -15.4332
  43   2.0000      -0.559524       -15.2254
  44   2.0000      -0.527795       -14.3620
  45   2.0000      -0.519354       -14.1324
  46   2.0000      -0.513179       -13.9643
  47   2.0000      -0.511976       -13.9316
  48   2.0000      -0.506783       -13.7903
  49   2.0000      -0.497515       -13.5381
  50   2.0000      -0.490995       -13.3607
  51   2.0000      -0.484373       -13.1805
  52   2.0000      -0.468000       -12.7349
  53   2.0000      -0.465429       -12.6650
  54   2.0000      -0.461985       -12.5712
  55   2.0000      -0.448335       -12.1998
  56   2.0000      -0.443943       -12.0803
  57   2.0000      -0.435757       -11.8576
  58   2.0000      -0.431852       -11.7513
  59   2.0000      -0.427507       -11.6330
  60   2.0000      -0.421594       -11.4722
  61   2.0000      -0.412168       -11.2157
  62   2.0000      -0.407462       -11.0876
  63   2.0000      -0.346293        -9.4231
  64   2.0000      -0.334381        -9.0990
  65   2.0000      -0.324570        -8.8320
  66   2.0000      -0.296004        -8.0547
  67   0.0000       0.028070         0.7638
  68   0.0000       0.063677         1.7327
  69   0.0000       0.103674         2.8211
  70   0.0000       0.115474         3.1422
  71   0.0000       0.125963         3.4276

MULLIKEN ATOMIC CHARGES
-----------------------
   0 S :    0.113138
   1 C :   -0.081677
   2 C :   -0.087007
   3 C :    0.013380
   4 C :   -0.143426
   5 H :    0.023740
   6 C :    0.060589
   7 H :    0.032546
   8 H :    0.008427
   9 C :   -0.092646
  10 H :    0.042822
  11 H :    0.044383
  12 C :   -0.073007
  13 H :    0.029834
  14 H :    0.024333
  15 H :    0.034839
  16 S :    0.102914
  17 C :   -0.090531
  18 C :   -0.026256
  19 C :   -0.072030
  20 C :   -0.145246
  21 H :    0.023965
  22 C :    0.063157
  23 H :    0.019522
  24 H :    0.019336
  25 C :   -0.122587
  26 H :    0.038091
  27 H :    0.043363
  28 C :   -0.002644
  29 H :    0.016588
  30 H :    0.036529
  31 H :    0.035774
  32 H :    0.050029
  33 H :    0.059758
Sum of atomic charges:    0.0000000

LOEWDIN ATOMIC CHARGES
----------------------
   0 S :    0.397521
   1 C :   -0.203337
   2 C :   -0.067937
   3 C :   -0.062269
   4 C :   -0.182660
   5 H :    0.037752
   6 C :   -0.025413
   7 H :    0.034805
   8 H :    0.021054
   9 C :   -0.036732
  10 H :    0.026764
  11 H :    0.028412
  12 C :   -0.081080
  13 H :    0.026737
  14 H :    0.024282
  15 H :    0.026303
  16 S :    0.416670
  17 C :   -0.184407
  18 C :   -0.075333
  19 C :   -0.051924
  20 C :   -0.211326
  21 H :    0.034421
  22 C :   -0.044952
  23 H :    0.024054
  24 H :    0.032426
  25 C :   -0.042477
  26 H :    0.026001
  27 H :    0.030107
  28 C :   -0.057576
  29 H :    0.019131
  30 H :    0.028009
  31 H :    0.024086
  32 H :    0.038299
  33 H :    0.030589

  Mayer bond orders larger than 0.100000
B(  0-S ,  1-C ) :   1.1329 B(  0-S ,  4-C ) :   1.1206 B(  1-C ,  2-C ) :   1.6087
B(  1-C ,  4-C ) :   0.1007 B(  1-C , 32-H ) :   0.9532 B(  2-C ,  3-C ) :   1.2468
B(  2-C ,  6-C ) :   1.0396 B(  3-C ,  4-C ) :   1.5765 B(  3-C ,  5-H ) :   0.9922
B(  4-C , 20-C ) :   1.0551 B(  6-C ,  7-H ) :   0.9447 B(  6-C ,  8-H ) :   0.9513
B(  6-C ,  9-C ) :   1.0333 B(  9-C , 10-H ) :   0.9599 B(  9-C , 11-H ) :   0.9620
B(  9-C , 12-C ) :   1.0768 B( 12-C , 13-H ) :   0.9731 B( 12-C , 14-H ) :   0.9745
B( 12-C , 15-H ) :   0.9777 B( 16-S , 17-C ) :   1.1707 B( 16-S , 20-C ) :   1.1377
B( 17-C , 18-C ) :   1.5956 B( 17-C , 33-H ) :   0.9659 B( 18-C , 19-C ) :   1.2500
B( 18-C , 21-H ) :   0.9925 B( 19-C , 20-C ) :   1.5612 B( 19-C , 22-C ) :   1.0541
B( 22-C , 23-H ) :   0.9172 B( 22-C , 24-H ) :   0.9340 B( 22-C , 25-C ) :   1.0667
B( 25-C , 26-H ) :   0.9604 B( 25-C , 27-H ) :   0.9514 B( 25-C , 28-C ) :   1.0776
B( 28-C , 29-H ) :   0.9737 B( 28-C , 30-H ) :   0.9760 B( 28-C , 31-H ) :   0.9743

Dispersion correction           -0.014138847
FINAL SINGLE POINT ENERGY     -1339.866439847453

DIPOLE MOMENT
-------------
                                X             Y             Z
Electronic contribution:      7.03512     -18.10789      13.11187
Nuclear contribution   :     -7.24129      18.48196     -13.20300
                        -----------------------------------------
Total Dipole Moment    :     -0.20617       0.37407      -0.09113
                        -----------------------------------------
Magnitude (a.u.)       :      0.43674
Magnitude (Debye)      :      1.11010

Rotational constants in cm-1:     0.018475     0.007947     0.006864
Rotational constants in MHz :   553.869497   238.241234   205.773656

                             ****ORCA TERMINATED NORMALLY****
TOTAL RUN TIME: 0 days 0 hours 0 minutes 21 seconds 274 msec
