                         Program Version 4.2.1 -  RELEASE  -
|  1> ! wB97X-D3 SP def2-SVP
|  2> %pal
|  3> nprocs 24
|  4> end
|  5>
|  6> * xyz 0 1
|  7> S 	 -80.8057 	 -44.1684 	 -84.6729
|  8> C 	 -80.591 	 -43.6207 	 -83.0211
|  9> C 	 -81.5649 	 -44.1767 	 -82.2128
| 10> C 	 -82.3815 	 -45.1868 	 -82.838
| 11> C 	 -82.1046 	 -45.3281 	 -84.1939
| 12> H 	 -83.1807 	 -45.7097 	 -82.3549
| 13> C 	 -81.7853 	 -43.8303 	 -80.7954
| 14> H 	 -82.6739 	 -44.2848 	 -80.4556
| 15> H 	 -82.0687 	 -42.7518 	 -80.7716
| 16> C 	 -80.702 	 -44.2179 	 -79.733
| 17> H 	 -80.6065 	 -45.2265 	 -79.7793
| 18> H 	 -79.7735 	 -43.7295 	 -79.9981
| 19> C 	 -81.1402 	 -43.7162 	 -78.3681
| 20> H 	 -81.8354 	 -42.8029 	 -78.3938
| 21> H 	 -81.78 	 -44.4582 	 -77.934
| 22> H 	 -80.2842 	 -43.5909 	 -77.6588
| 23> S 	 -84.4612 	 -46.0133 	 -85.5218
| 24> C 	 -84.3142 	 -46.8681 	 -87.0053
| 25> C 	 -83.0519 	 -47.3554 	 -87.2275
| 26> C 	 -82.1287 	 -47.1208 	 -86.1692
| 27> C 	 -82.7099 	 -46.2507 	 -85.2151
| 28> H 	 -82.8178 	 -47.9098 	 -88.1118
| 29> C 	 -80.6498 	 -47.5827 	 -86.2429
| 30> H 	 -80.7017 	 -48.6404 	 -86.5284
| 31> H 	 -80.3067 	 -47.4423 	 -85.2384
| 32> C 	 -79.6998 	 -46.9101 	 -87.2048
| 33> H 	 -78.7088 	 -47.0043 	 -86.8822
| 34> H 	 -79.8205 	 -45.7655 	 -87.2394
| 35> C 	 -79.6718 	 -47.6454 	 -88.5841
| 36> H 	 -78.8258 	 -47.2396 	 -89.0583
| 37> H 	 -80.5913 	 -47.4534 	 -89.1343
| 38> H 	 -79.4021 	 -48.78 	 -88.6268
| 39> H 	 -80.0152 	 -42.6933 	 -82.8632
| 40> H 	 -85.106 	 -47.0109 	 -87.8085
| 41> *
| 42>
| 43>                          ****END OF INPUT****

CARTESIAN COORDINATES (ANGSTROEM)
---------------------------------
  S    -80.805700  -44.168400  -84.672900
  C    -80.591000  -43.620700  -83.021100
  C    -81.564900  -44.176700  -82.212800
  C    -82.381500  -45.186800  -82.838000
  C    -82.104600  -45.328100  -84.193900
  H    -83.180700  -45.709700  -82.354900
  C    -81.785300  -43.830300  -80.795400
  H    -82.673900  -44.284800  -80.455600
  H    -82.068700  -42.751800  -80.771600
  C    -80.702000  -44.217900  -79.733000
  H    -80.606500  -45.226500  -79.779300
  H    -79.773500  -43.729500  -79.998100
  C    -81.140200  -43.716200  -78.368100
  H    -81.835400  -42.802900  -78.393800
  H    -81.780000  -44.458200  -77.934000
  H    -80.284200  -43.590900  -77.658800
  S    -84.461200  -46.013300  -85.521800
  C    -84.314200  -46.868100  -87.005300
  C    -83.051900  -47.355400  -87.227500
  C    -82.128700  -47.120800  -86.169200
  C    -82.709900  -46.250700  -85.215100
  H    -82.817800  -47.909800  -88.111800
  C    -80.649800  -47.582700  -86.242900
  H    -80.701700  -48.640400  -86.528400
  H    -80.306700  -47.442300  -85.238400
  C    -79.699800  -46.910100  -87.204800
  H    -78.708800  -47.004300  -86.882200
  H    -79.820500  -45.765500  -87.239400
  C    -79.671800  -47.645400  -88.584100
  H    -78.825800  -47.239600  -89.058300
  H    -80.591300  -47.453400  -89.134300
  H    -79.402100  -48.780000  -88.626800
  H    -80.015200  -42.693300  -82.863200
  H    -85.106000  -47.010900  -87.808500

 Total Charge           Charge          ....    0
 Multiplicity           Mult            ....    1
 Number of Electrons    NEL             ....  134
 Basis Dimension        Dim             ....  322

ORBITAL ENERGIES
----------------

  NO   OCC          E(Eh)            E(eV)
   0   2.0000     -88.967732     -2420.9351
   1   2.0000     -88.964802     -2420.8553
   2   2.0000     -10.338751      -281.3317
   3   2.0000     -10.333255      -281.1822
   4   2.0000     -10.318680      -280.7856
   5   2.0000     -10.315748      -280.7058
   6   2.0000     -10.307720      -280.4873
   7   2.0000     -10.300445      -280.2894
   8   2.0000     -10.296393      -280.1791
   9   2.0000     -10.288539      -279.9654
  10   2.0000     -10.288224      -279.9568
  11   2.0000     -10.286509      -279.9101
  12   2.0000     -10.284840      -279.8647
  13   2.0000     -10.282969      -279.8138
  14   2.0000     -10.281446      -279.7724
  15   2.0000     -10.279473      -279.7187
  16   2.0000      -8.082269      -219.9297
  17   2.0000      -8.078454      -219.8259
  18   2.0000      -6.040725      -164.3765
  19   2.0000      -6.036978      -164.2745
  20   2.0000      -6.036875      -164.2717
  21   2.0000      -6.033088      -164.1687
  22   2.0000      -6.033015      -164.1667
  23   2.0000      -6.029295      -164.0655
  24   2.0000      -0.997957       -27.1558
  25   2.0000      -0.980276       -26.6747
  26   2.0000      -0.911337       -24.7987
  27   2.0000      -0.906816       -24.6757
  28   2.0000      -0.862882       -23.4802
  29   2.0000      -0.850525       -23.1440
  30   2.0000      -0.846472       -23.0337
  31   2.0000      -0.812070       -22.0975
  32   2.0000      -0.781608       -21.2686
  33   2.0000      -0.764321       -20.7982
  34   2.0000      -0.707835       -19.2612
  35   2.0000      -0.703465       -19.1423
  36   2.0000      -0.686424       -18.6786
  37   2.0000      -0.658090       -17.9076
  38   2.0000      -0.642209       -17.4754
  39   2.0000      -0.612800       -16.6751
  40   2.0000      -0.589301       -16.0357
  41   2.0000      -0.573205       -15.5977
  42   2.0000      -0.561781       -15.2868
  43   2.0000      -0.553826       -15.0704
  44   2.0000      -0.541014       -14.7217
  45   2.0000      -0.521687       -14.1958
  46   2.0000      -0.514007       -13.9868
  47   2.0000      -0.508285       -13.8311
  48   2.0000      -0.503457       -13.6998
  49   2.0000      -0.494933       -13.4678
  50   2.0000      -0.489357       -13.3161
  51   2.0000      -0.471320       -12.8253
  52   2.0000      -0.468414       -12.7462
  53   2.0000      -0.465463       -12.6659
  54   2.0000      -0.458393       -12.4735
  55   2.0000      -0.447111       -12.1665
  56   2.0000      -0.444345       -12.0912
  57   2.0000      -0.442725       -12.0472
  58   2.0000      -0.433965       -11.8088
  59   2.0000      -0.421146       -11.4600
  60   2.0000      -0.418907       -11.3990
  61   2.0000      -0.417604       -11.3636
  62   2.0000      -0.401470       -10.9245
  63   2.0000      -0.343269        -9.3408
  64   2.0000      -0.333873        -9.0851
  65   2.0000      -0.324480        -8.8295
  66   2.0000      -0.293525        -7.9872
  67   0.0000       0.029605         0.8056
  68   0.0000       0.058558         1.5934
  69   0.0000       0.105992         2.8842
  70   0.0000       0.110844         3.0162
  71   0.0000       0.130071         3.5394

MULLIKEN ATOMIC CHARGES
-----------------------
   0 S :    0.089467
   1 C :   -0.132546
   2 C :   -0.093070
   3 C :    0.043525
   4 C :   -0.137846
   5 H :    0.011153
   6 C :    0.031736
   7 H :   -0.008120
   8 H :    0.035665
   9 C :    0.006076
  10 H :    0.012591
  11 H :    0.025400
  12 C :   -0.078679
  13 H :    0.041020
  14 H :    0.022124
  15 H :    0.046443
  16 S :    0.117105
  17 C :   -0.100668
  18 C :   -0.045440
  19 C :   -0.040443
  20 C :   -0.182517
  21 H :    0.009692
  22 C :    0.093851
  23 H :    0.029293
  24 H :    0.024978
  25 C :   -0.055044
  26 H :    0.016245
  27 H :    0.046032
  28 C :   -0.087157
  29 H :    0.021196
  30 H :    0.043384
  31 H :    0.046819
  32 H :    0.071351
  33 H :    0.076385
Sum of atomic charges:   -0.0000000

LOEWDIN ATOMIC CHARGES
----------------------
   0 S :    0.384826
   1 C :   -0.202370
   2 C :   -0.064960
   3 C :   -0.061468
   4 C :   -0.172935
   5 H :    0.030790
   6 C :   -0.036291
   7 H :    0.018961
   8 H :    0.036215
   9 C :   -0.021766
  10 H :    0.013061
  11 H :    0.021455
  12 C :   -0.073580
  13 H :    0.034174
  14 H :    0.020890
  15 H :    0.031972
  16 S :    0.405839
  17 C :   -0.203849
  18 C :   -0.077882
  19 C :   -0.046390
  20 C :   -0.195919
  21 H :    0.026068
  22 C :   -0.029694
  23 H :    0.036068
  24 H :    0.028724
  25 C :   -0.042369
  26 H :    0.019466
  27 H :    0.034499
  28 C :   -0.073255
  29 H :    0.018967
  30 H :    0.021223
  31 H :    0.038208
  32 H :    0.035545
  33 H :    0.045775

  Mayer bond orders larger than 0.100000
B(  0-S ,  1-C ) :   1.1320 B(  0-S ,  4-C ) :   1.1479 B(  1-C ,  2-C ) :   1.6016
B(  1-C , 32-H ) :   0.9654 B(  2-C ,  3-C ) :   1.2404 B(  2-C ,  6-C ) :   1.0381
B(  3-C ,  4-C ) :   1.5747 B(  3-C ,  5-H ) :   0.9951 B(  4-C , 20-C ) :   1.0133
B(  6-C ,  7-H ) :   0.9399 B(  6-C ,  8-H ) :   0.9313 B(  6-C ,  9-C ) :   1.0587
B(  9-C , 10-H ) :   0.9566 B(  9-C , 11-H ) :   0.9604 B(  9-C , 12-C ) :   1.0726
B( 12-C , 13-H ) :   0.9746 B( 12-C , 14-H ) :   0.9747 B( 12-C , 15-H ) :   0.9741
B( 16-S , 17-C ) :   1.1552 B( 16-S , 20-C ) :   1.1407 B( 17-C , 18-C ) :   1.6232
B( 17-C , 33-H ) :   0.9539 B( 18-C , 19-C ) :   1.2389 B( 18-C , 21-H ) :   0.9881
B( 19-C , 20-C ) :   1.5768 B( 19-C , 22-C ) :   1.0476 B( 22-C , 23-H ) :   0.9317
B( 22-C , 24-H ) :   0.9297 B( 22-C , 25-C ) :   1.0698 B( 25-C , 26-H ) :   0.9538
B( 25-C , 27-H ) :   0.9502 B( 25-C , 28-C ) :   1.0697 B( 28-C , 29-H ) :   0.9734
B( 28-C , 30-H ) :   0.9770 B( 28-C , 31-H ) :   0.9719

Dispersion correction           -0.014088606
FINAL SINGLE POINT ENERGY     -1339.857438852971

DIPOLE MOMENT
-------------
                                X             Y             Z
Electronic contribution:    -13.37508       2.50078      -9.69442
Nuclear contribution   :     13.55683      -2.55977       9.81422
                        -----------------------------------------
Total Dipole Moment    :      0.18175      -0.05899       0.11980
                        -----------------------------------------
Magnitude (a.u.)       :      0.22553
Magnitude (Debye)      :      0.57326

Rotational constants in cm-1:     0.023604     0.006946     0.005881
Rotational constants in MHz :   707.632906   208.224092   176.297583

                             ****ORCA TERMINATED NORMALLY****
TOTAL RUN TIME: 0 days 0 hours 0 minutes 20 seconds 781 msec
