                         Program Version 4.2.1 -  RELEASE  -
|  1> ! wB97X-D3 SP def2-SVP
|  2> %pal
|  3> nprocs 24
|  4> end
|  5>
|  6> * xyz 0 1
|  7> S 	 -40.8938 	 12.5414 	 32.1057
|  8> C 	 -40.0219 	 13.2566 	 33.4619
|  9> C 	 -40.2501 	 14.5618 	 33.6605
| 10> C 	 -41.2151 	 15.0468 	 32.7514
| 11> C 	 -41.8073 	 14.0553 	 31.9655
| 12> H 	 -41.748 	 15.915 	 32.7638
| 13> C 	 -39.6113 	 15.4598 	 34.691
| 14> H 	 -39.2008 	 16.3931 	 34.2655
| 15> H 	 -38.7751 	 14.8933 	 35.1248
| 16> C 	 -40.5052 	 15.8208 	 35.8899
| 17> H 	 -40.0278 	 16.3849 	 36.6853
| 18> H 	 -41.3463 	 16.489 	 35.5726
| 19> C 	 -41.3041 	 14.6223 	 36.4765
| 20> H 	 -41.8629 	 14.0622 	 35.7548
| 21> H 	 -40.6973 	 13.8782 	 37.0704
| 22> H 	 -42.1342 	 14.9606 	 37.1537
| 23> S 	 -42.8331 	 13.7615 	 29.3663
| 24> C 	 -44.5706 	 13.8358 	 29.1695
| 25> C 	 -45.2122 	 14.2575 	 30.3789
| 26> C 	 -44.2837 	 14.2546 	 31.4586
| 27> C 	 -42.9704 	 14.0267 	 31.0838
| 28> H 	 -46.2828 	 14.4852 	 30.407
| 29> C 	 -44.7606 	 14.668 	 32.8483
| 30> H 	 -43.9224 	 14.7168 	 33.5702
| 31> H 	 -45.3687 	 13.8763 	 33.2356
| 32> C 	 -45.4638 	 15.9625 	 32.919
| 33> H 	 -45.5248 	 16.1639 	 33.9979
| 34> H 	 -46.5381 	 15.9994 	 32.5878
| 35> C 	 -44.5332 	 17.075 	 32.4282
| 36> H 	 -44.3849 	 17.0349 	 31.3579
| 37> H 	 -43.5435 	 16.9646 	 32.8064
| 38> H 	 -44.9354 	 18.0412 	 32.7547
| 39> H 	 -39.1688 	 12.7332 	 33.9511
| 40> H 	 -45.1099 	 13.7121 	 28.2728
| 41> *
| 42>
| 43>                          ****END OF INPUT****

CARTESIAN COORDINATES (ANGSTROEM)
---------------------------------
  S    -40.893800   12.541400   32.105700
  C    -40.021900   13.256600   33.461900
  C    -40.250100   14.561800   33.660500
  C    -41.215100   15.046800   32.751400
  C    -41.807300   14.055300   31.965500
  H    -41.748000   15.915000   32.763800
  C    -39.611300   15.459800   34.691000
  H    -39.200800   16.393100   34.265500
  H    -38.775100   14.893300   35.124800
  C    -40.505200   15.820800   35.889900
  H    -40.027800   16.384900   36.685300
  H    -41.346300   16.489000   35.572600
  C    -41.304100   14.622300   36.476500
  H    -41.862900   14.062200   35.754800
  H    -40.697300   13.878200   37.070400
  H    -42.134200   14.960600   37.153700
  S    -42.833100   13.761500   29.366300
  C    -44.570600   13.835800   29.169500
  C    -45.212200   14.257500   30.378900
  C    -44.283700   14.254600   31.458600
  C    -42.970400   14.026700   31.083800
  H    -46.282800   14.485200   30.407000
  C    -44.760600   14.668000   32.848300
  H    -43.922400   14.716800   33.570200
  H    -45.368700   13.876300   33.235600
  C    -45.463800   15.962500   32.919000
  H    -45.524800   16.163900   33.997900
  H    -46.538100   15.999400   32.587800
  C    -44.533200   17.075000   32.428200
  H    -44.384900   17.034900   31.357900
  H    -43.543500   16.964600   32.806400
  H    -44.935400   18.041200   32.754700
  H    -39.168800   12.733200   33.951100
  H    -45.109900   13.712100   28.272800

 Total Charge           Charge          ....    0
 Multiplicity           Mult            ....    1
 Number of Electrons    NEL             ....  134
 Basis Dimension        Dim             ....  322

ORBITAL ENERGIES
----------------

  NO   OCC          E(Eh)            E(eV)
   0   2.0000     -88.971177     -2421.0288
   1   2.0000     -88.963358     -2420.8160
   2   2.0000     -10.331782      -281.1421
   3   2.0000     -10.324614      -280.9470
   4   2.0000     -10.321757      -280.8693
   5   2.0000     -10.313171      -280.6356
   6   2.0000     -10.301928      -280.3297
   7   2.0000     -10.300332      -280.2863
   8   2.0000     -10.298199      -280.2283
   9   2.0000     -10.297964      -280.2218
  10   2.0000     -10.293588      -280.1028
  11   2.0000     -10.289387      -279.9885
  12   2.0000     -10.287083      -279.9258
  13   2.0000     -10.285364      -279.8790
  14   2.0000     -10.280426      -279.7446
  15   2.0000     -10.273360      -279.5523
  16   2.0000      -8.085616      -220.0208
  17   2.0000      -8.078024      -219.8142
  18   2.0000      -6.044105      -164.4685
  19   2.0000      -6.040146      -164.3607
  20   2.0000      -6.036443      -164.2600
  21   2.0000      -6.036428      -164.2596
  22   2.0000      -6.032657      -164.1569
  23   2.0000      -6.028754      -164.0507
  24   2.0000      -1.006859       -27.3980
  25   2.0000      -0.985332       -26.8122
  26   2.0000      -0.919927       -25.0325
  27   2.0000      -0.910330       -24.7713
  28   2.0000      -0.865830       -23.5604
  29   2.0000      -0.848825       -23.0977
  30   2.0000      -0.844136       -22.9701
  31   2.0000      -0.813007       -22.1231
  32   2.0000      -0.786865       -21.4117
  33   2.0000      -0.776903       -21.1406
  34   2.0000      -0.709774       -19.3139
  35   2.0000      -0.696463       -18.9517
  36   2.0000      -0.693897       -18.8819
  37   2.0000      -0.659033       -17.9332
  38   2.0000      -0.646775       -17.5997
  39   2.0000      -0.620752       -16.8915
  40   2.0000      -0.598105       -16.2753
  41   2.0000      -0.566740       -15.4218
  42   2.0000      -0.561979       -15.2922
  43   2.0000      -0.549478       -14.9521
  44   2.0000      -0.546764       -14.8782
  45   2.0000      -0.540803       -14.7160
  46   2.0000      -0.516542       -14.0558
  47   2.0000      -0.511355       -13.9147
  48   2.0000      -0.504469       -13.7273
  49   2.0000      -0.492801       -13.4098
  50   2.0000      -0.491081       -13.3630
  51   2.0000      -0.473161       -12.8754
  52   2.0000      -0.466517       -12.6946
  53   2.0000      -0.461113       -12.5475
  54   2.0000      -0.458313       -12.4713
  55   2.0000      -0.452696       -12.3185
  56   2.0000      -0.446743       -12.1565
  57   2.0000      -0.436885       -11.8882
  58   2.0000      -0.434454       -11.8221
  59   2.0000      -0.428916       -11.6714
  60   2.0000      -0.426263       -11.5992
  61   2.0000      -0.411255       -11.1908
  62   2.0000      -0.407425       -11.0866
  63   2.0000      -0.336350        -9.1525
  64   2.0000      -0.333890        -9.0856
  65   2.0000      -0.331946        -9.0327
  66   2.0000      -0.299582        -8.1520
  67   0.0000       0.032129         0.8743
  68   0.0000       0.059838         1.6283
  69   0.0000       0.108956         2.9648
  70   0.0000       0.119315         3.2467
  71   0.0000       0.122909         3.3445

MULLIKEN ATOMIC CHARGES
-----------------------
   0 S :    0.102020
   1 C :   -0.124271
   2 C :   -0.098243
   3 C :    0.128794
   4 C :   -0.201993
   5 H :   -0.066133
   6 C :    0.107505
   7 H :    0.043794
   8 H :    0.017224
   9 C :   -0.086891
  10 H :    0.038612
  11 H :    0.027081
  12 C :   -0.094991
  13 H :    0.043368
  14 H :    0.035834
  15 H :    0.032068
  16 S :    0.131267
  17 C :   -0.086353
  18 C :   -0.048504
  19 C :   -0.038604
  20 C :   -0.163981
  21 H :    0.032991
  22 C :    0.086008
  23 H :    0.022622
  24 H :    0.024470
  25 C :   -0.091062
  26 H :    0.025747
  27 H :    0.041625
  28 C :   -0.017879
  29 H :    0.039897
  30 H :    0.006162
  31 H :    0.032315
  32 H :    0.053846
  33 H :    0.045655
Sum of atomic charges:    0.0000000

LOEWDIN ATOMIC CHARGES
----------------------
   0 S :    0.386931
   1 C :   -0.188029
   2 C :   -0.071048
   3 C :   -0.047244
   4 C :   -0.168986
   5 H :    0.009163
   6 C :   -0.028130
   7 H :    0.037650
   8 H :    0.030491
   9 C :   -0.045228
  10 H :    0.026098
  11 H :    0.025705
  12 C :   -0.077432
  13 H :    0.021487
  14 H :    0.025463
  15 H :    0.030223
  16 S :    0.419026
  17 C :   -0.178453
  18 C :   -0.067778
  19 C :   -0.052731
  20 C :   -0.224590
  21 H :    0.035675
  22 C :   -0.034736
  23 H :    0.031999
  24 H :    0.029778
  25 C :   -0.048697
  26 H :    0.030109
  27 H :    0.027520
  28 C :   -0.058089
  29 H :    0.025913
  30 H :    0.017516
  31 H :    0.027130
  32 H :    0.032984
  33 H :    0.020310

  Mayer bond orders larger than 0.100000
B(  0-S ,  1-C ) :   1.1330 B(  0-S ,  4-C ) :   1.1470 B(  1-C ,  2-C ) :   1.6587
B(  1-C , 32-H ) :   0.9516 B(  2-C ,  3-C ) :   1.2031 B(  2-C ,  6-C ) :   1.0235
B(  3-C ,  4-C ) :   1.6014 B(  3-C ,  5-H ) :   1.0129 B(  4-C , 20-C ) :   1.0221
B(  6-C ,  7-H ) :   0.9432 B(  6-C ,  8-H ) :   0.9372 B(  6-C ,  9-C ) :   1.0605
B(  9-C , 10-H ) :   0.9601 B(  9-C , 11-H ) :   0.9566 B(  9-C , 12-C ) :   1.0702
B( 12-C , 13-H ) :   0.9694 B( 12-C , 14-H ) :   0.9764 B( 12-C , 15-H ) :   0.9753
B( 16-S , 17-C ) :   1.1733 B( 16-S , 20-C ) :   1.1437 B( 17-C , 18-C ) :   1.5757
B( 17-C , 20-C ) :   0.1029 B( 17-C , 33-H ) :   0.9740 B( 18-C , 19-C ) :   1.2579
B( 18-C , 21-H ) :   0.9879 B( 19-C , 20-C ) :   1.5809 B( 19-C , 22-C ) :   1.0384
B( 22-C , 23-H ) :   0.9344 B( 22-C , 24-H ) :   0.9222 B( 22-C , 25-C ) :   1.0943
B( 25-C , 26-H ) :   0.9504 B( 25-C , 27-H ) :   0.9487 B( 25-C , 28-C ) :   1.0710
B( 28-C , 29-H ) :   0.9713 B( 28-C , 30-H ) :   0.9719 B( 28-C , 31-H ) :   0.9693

Dispersion correction           -0.016496788
FINAL SINGLE POINT ENERGY     -1339.874844632032

DIPOLE MOMENT
-------------
                                X             Y             Z
Electronic contribution:      6.09757     -15.97057     -23.32265
Nuclear contribution   :     -6.41119      16.40753      23.76580
                        -----------------------------------------
Total Dipole Moment    :     -0.31362       0.43696       0.44314
                        -----------------------------------------
Magnitude (a.u.)       :      0.69690
Magnitude (Debye)      :      1.77137

Rotational constants in cm-1:     0.020054     0.010163     0.007579
Rotational constants in MHz :   601.212984   304.684949   227.220308

                             ****ORCA TERMINATED NORMALLY****
TOTAL RUN TIME: 0 days 0 hours 0 minutes 23 seconds 587 msec
