                         Program Version 4.2.1 -  RELEASE  -
|  1> ! wB97X-D3 SP def2-SVP
|  2> %pal
|  3> nprocs 24
|  4> end
|  5>
|  6> * xyz 0 1
|  7> S 	 -105.854 	 36.7202 	 -11.5505
|  8> C 	 -105.514 	 37.2824 	 -13.209
|  9> C 	 -106.064 	 36.4491 	 -14.1658
| 10> C 	 -106.664 	 35.3096 	 -13.5347
| 11> C 	 -106.568 	 35.2476 	 -12.1373
| 12> H 	 -107.178 	 34.469 	 -13.9934
| 13> C 	 -105.988 	 36.5785 	 -15.6464
| 14> H 	 -106.675 	 35.8507 	 -16.1114
| 15> H 	 -104.993 	 36.1548 	 -15.9948
| 16> C 	 -106.227 	 37.9783 	 -16.2669
| 17> H 	 -107.06 	 38.418 	 -15.7076
| 18> H 	 -105.269 	 38.6125 	 -16.093
| 19> C 	 -106.593 	 37.896 	 -17.7057
| 20> H 	 -107.445 	 37.1656 	 -17.7612
| 21> H 	 -106.922 	 38.8914 	 -18.1119
| 22> H 	 -105.929 	 37.3559 	 -18.3223
| 23> S 	 -107.657 	 34.7061 	 -9.63875
| 24> C 	 -108.262 	 33.0083 	 -9.23245
| 25> C 	 -107.86 	 32.1523 	 -10.1921
| 26> C 	 -107.33 	 32.8397 	 -11.3091
| 27> C 	 -107.157 	 34.2577 	 -11.2041
| 28> H 	 -108.162 	 31.1685 	 -10.1889
| 29> C 	 -106.985 	 31.9976 	 -12.568
| 30> H 	 -107.274 	 32.5323 	 -13.5022
| 31> H 	 -107.546 	 31.0855 	 -12.5319
| 32> C 	 -105.532 	 31.6567 	 -12.7604
| 33> H 	 -105.27 	 31.166 	 -11.7949
| 34> H 	 -104.948 	 32.6054 	 -12.7041
| 35> C 	 -105.207 	 30.7123 	 -13.9679
| 36> H 	 -105.626 	 29.7 	 -13.8913
| 37> H 	 -104.155 	 30.492 	 -14.1059
| 38> H 	 -105.535 	 31.0656 	 -14.9403
| 39> H 	 -105.017 	 38.2006 	 -13.3822
| 40> H 	 -108.792 	 32.7054 	 -8.3361
| 41> *
| 42>
| 43>                          ****END OF INPUT****

CARTESIAN COORDINATES (ANGSTROEM)
---------------------------------
  S    -105.854000   36.720200  -11.550500
  C    -105.514000   37.282400  -13.209000
  C    -106.064000   36.449100  -14.165800
  C    -106.664000   35.309600  -13.534700
  C    -106.568000   35.247600  -12.137300
  H    -107.178000   34.469000  -13.993400
  C    -105.988000   36.578500  -15.646400
  H    -106.675000   35.850700  -16.111400
  H    -104.993000   36.154800  -15.994800
  C    -106.227000   37.978300  -16.266900
  H    -107.060000   38.418000  -15.707600
  H    -105.269000   38.612500  -16.093000
  C    -106.593000   37.896000  -17.705700
  H    -107.445000   37.165600  -17.761200
  H    -106.922000   38.891400  -18.111900
  H    -105.929000   37.355900  -18.322300
  S    -107.657000   34.706100   -9.638750
  C    -108.262000   33.008300   -9.232450
  C    -107.860000   32.152300  -10.192100
  C    -107.330000   32.839700  -11.309100
  C    -107.157000   34.257700  -11.204100
  H    -108.162000   31.168500  -10.188900
  C    -106.985000   31.997600  -12.568000
  H    -107.274000   32.532300  -13.502200
  H    -107.546000   31.085500  -12.531900
  C    -105.532000   31.656700  -12.760400
  H    -105.270000   31.166000  -11.794900
  H    -104.948000   32.605400  -12.704100
  C    -105.207000   30.712300  -13.967900
  H    -105.626000   29.700000  -13.891300
  H    -104.155000   30.492000  -14.105900
  H    -105.535000   31.065600  -14.940300
  H    -105.017000   38.200600  -13.382200
  H    -108.792000   32.705400   -8.336100

 Total Charge           Charge          ....    0
 Multiplicity           Mult            ....    1
 Number of Electrons    NEL             ....  134
 Basis Dimension        Dim             ....  322

ORBITAL ENERGIES
----------------

  NO   OCC          E(Eh)            E(eV)
   0   2.0000     -88.967780     -2420.9364
   1   2.0000     -88.967627     -2420.9322
   2   2.0000     -10.337487      -281.2973
   3   2.0000     -10.336375      -281.2671
   4   2.0000     -10.324556      -280.9455
   5   2.0000     -10.316551      -280.7276
   6   2.0000     -10.307286      -280.4755
   7   2.0000     -10.306846      -280.4635
   8   2.0000     -10.299671      -280.2683
   9   2.0000     -10.297502      -280.2093
  10   2.0000     -10.295795      -280.1628
  11   2.0000     -10.290721      -280.0248
  12   2.0000     -10.288272      -279.9581
  13   2.0000     -10.287644      -279.9410
  14   2.0000     -10.282435      -279.7993
  15   2.0000     -10.280675      -279.7514
  16   2.0000      -8.082235      -219.9288
  17   2.0000      -8.081799      -219.9169
  18   2.0000      -6.040812      -164.3788
  19   2.0000      -6.040413      -164.3680
  20   2.0000      -6.036774      -164.2690
  21   2.0000      -6.036337      -164.2571
  22   2.0000      -6.032955      -164.1651
  23   2.0000      -6.032504      -164.1528
  24   2.0000      -1.005835       -27.3702
  25   2.0000      -0.983874       -26.7726
  26   2.0000      -0.917582       -24.9687
  27   2.0000      -0.903399       -24.5827
  28   2.0000      -0.878716       -23.9111
  29   2.0000      -0.852406       -23.1952
  30   2.0000      -0.841357       -22.8945
  31   2.0000      -0.816956       -22.2305
  32   2.0000      -0.781765       -21.2729
  33   2.0000      -0.770425       -20.9643
  34   2.0000      -0.711362       -19.3571
  35   2.0000      -0.700844       -19.0709
  36   2.0000      -0.687151       -18.6983
  37   2.0000      -0.670559       -18.2468
  38   2.0000      -0.644654       -17.5419
  39   2.0000      -0.616865       -16.7858
  40   2.0000      -0.593960       -16.1625
  41   2.0000      -0.578491       -15.7415
  42   2.0000      -0.565788       -15.3959
  43   2.0000      -0.558200       -15.1894
  44   2.0000      -0.532891       -14.5007
  45   2.0000      -0.526182       -14.3181
  46   2.0000      -0.514229       -13.9929
  47   2.0000      -0.511940       -13.9306
  48   2.0000      -0.504984       -13.7413
  49   2.0000      -0.497903       -13.5486
  50   2.0000      -0.494457       -13.4549
  51   2.0000      -0.485417       -13.2089
  52   2.0000      -0.473245       -12.8777
  53   2.0000      -0.466546       -12.6954
  54   2.0000      -0.456868       -12.4320
  55   2.0000      -0.450987       -12.2720
  56   2.0000      -0.448412       -12.2019
  57   2.0000      -0.435288       -11.8448
  58   2.0000      -0.430192       -11.7061
  59   2.0000      -0.429314       -11.6822
  60   2.0000      -0.414704       -11.2847
  61   2.0000      -0.410321       -11.1654
  62   2.0000      -0.406608       -11.0644
  63   2.0000      -0.363500        -9.8913
  64   2.0000      -0.334554        -9.1037
  65   2.0000      -0.328772        -8.9464
  66   2.0000      -0.283581        -7.7166
  67   0.0000       0.017752         0.4831
  68   0.0000       0.074505         2.0274
  69   0.0000       0.092891         2.5277
  70   0.0000       0.118852         3.2341
  71   0.0000       0.135437         3.6854

MULLIKEN ATOMIC CHARGES
-----------------------
   0 S :    0.094617
   1 C :   -0.121282
   2 C :   -0.034860
   3 C :   -0.002188
   4 C :   -0.124227
   5 H :    0.004668
   6 C :    0.024661
   7 H :    0.015212
   8 H :    0.051326
   9 C :   -0.094157
  10 H :    0.041083
  11 H :    0.046871
  12 C :   -0.031319
  13 H :    0.017516
  14 H :    0.053609
  15 H :    0.017899
  16 S :    0.079713
  17 C :   -0.097053
  18 C :    0.033246
  19 C :   -0.085195
  20 C :   -0.098256
  21 H :    0.001070
  22 C :    0.048726
  23 H :    0.017923
  24 H :    0.006001
  25 C :   -0.072781
  26 H :    0.019632
  27 H :    0.042950
  28 C :   -0.034749
  29 H :    0.026027
  30 H :    0.032119
  31 H :    0.022765
  32 H :    0.038791
  33 H :    0.059642
Sum of atomic charges:   -0.0000000

LOEWDIN ATOMIC CHARGES
----------------------
   0 S :    0.395220
   1 C :   -0.177406
   2 C :   -0.060663
   3 C :   -0.066427
   4 C :   -0.190001
   5 H :    0.027953
   6 C :   -0.041520
   7 H :    0.029063
   8 H :    0.043233
   9 C :   -0.048590
  10 H :    0.028454
  11 H :    0.031407
  12 C :   -0.069958
  13 H :    0.029987
  14 H :    0.036234
  15 H :    0.018376
  16 S :    0.388082
  17 C :   -0.149256
  18 C :   -0.060300
  19 C :   -0.057778
  20 C :   -0.209297
  21 H :    0.025392
  22 C :   -0.035415
  23 H :    0.024139
  24 H :    0.021618
  25 C :   -0.047260
  26 H :    0.024970
  27 H :    0.030460
  28 C :   -0.071125
  29 H :    0.027656
  30 H :    0.028420
  31 H :    0.021924
  32 H :    0.019608
  33 H :    0.032800

  Mayer bond orders larger than 0.100000
B(  0-S ,  1-C ) :   1.1340 B(  0-S ,  4-C ) :   1.1504 B(  1-C ,  2-C ) :   1.5893
B(  1-C , 32-H ) :   0.9785 B(  2-C ,  3-C ) :   1.2433 B(  2-C ,  6-C ) :   1.0322
B(  3-C ,  4-C ) :   1.5634 B(  3-C ,  5-H ) :   0.9894 B(  4-C , 20-C ) :   1.0625
B(  6-C ,  7-H ) :   0.9436 B(  6-C ,  8-H ) :   0.9245 B(  6-C ,  9-C ) :   1.0519
B(  9-C , 10-H ) :   0.9616 B(  9-C , 11-H ) :   0.9445 B(  9-C , 12-C ) :   1.0956
B( 12-C , 13-H ) :   0.9668 B( 12-C , 14-H ) :   0.9712 B( 12-C , 15-H ) :   0.9704
B( 16-S , 17-C ) :   1.1366 B( 16-S , 20-C ) :   1.1411 B( 17-C , 18-C ) :   1.6041
B( 17-C , 33-H ) :   0.9672 B( 18-C , 19-C ) :   1.2750 B( 18-C , 21-H ) :   0.9932
B( 19-C , 20-C ) :   1.5495 B( 19-C , 22-C ) :   1.0408 B( 22-C , 23-H ) :   0.9402
B( 22-C , 24-H ) :   0.9336 B( 22-C , 25-C ) :   1.0604 B( 25-C , 26-H ) :   0.9515
B( 25-C , 27-H ) :   0.9569 B( 25-C , 28-C ) :   1.0663 B( 28-C , 29-H ) :   0.9734
B( 28-C , 30-H ) :   0.9754 B( 28-C , 31-H ) :   0.9764

Dispersion correction           -0.013689260
FINAL SINGLE POINT ENERGY     -1339.867565463009

DIPOLE MOMENT
-------------
                                X             Y             Z
Electronic contribution:     -4.74678       8.11749      28.79309
Nuclear contribution   :      4.67230      -8.51878     -29.40293
                        -----------------------------------------
Total Dipole Moment    :     -0.07448      -0.40128      -0.60983
                        -----------------------------------------
Magnitude (a.u.)       :      0.73381
Magnitude (Debye)      :      1.86519

Rotational constants in cm-1:     0.018756     0.007968     0.006135
Rotational constants in MHz :   562.285252   238.864860   183.914375

                             ****ORCA TERMINATED NORMALLY****
TOTAL RUN TIME: 0 days 0 hours 0 minutes 21 seconds 280 msec
