                         Program Version 4.2.1 -  RELEASE  -
|  1> ! wB97X-D3 SP def2-SVP
|  2> %pal
|  3> nprocs 24
|  4> end
|  5>
|  6> * xyz 0 1
|  7> S 	 -86.204 	 1.23555 	 5.82333
|  8> C 	 -84.4763 	 0.784419 	 5.75964
|  9> C 	 -83.9431 	 0.948789 	 4.51348
| 10> C 	 -84.8662 	 1.55334 	 3.61238
| 11> C 	 -86.14 	 1.77395 	 4.15117
| 12> H 	 -84.6471 	 1.69711 	 2.51066
| 13> C 	 -82.4914 	 0.646687 	 4.17231
| 14> H 	 -82.4455 	 -0.401741 	 3.84803
| 15> H 	 -81.8399 	 0.491082 	 5.08865
| 16> C 	 -81.7715 	 1.57813 	 3.20619
| 17> H 	 -80.8643 	 1.11798 	 2.89518
| 18> H 	 -82.3728 	 1.5036 	 2.29454
| 19> C 	 -81.3808 	 3.0075 	 3.74818
| 20> H 	 -80.8349 	 2.96629 	 4.69855
| 21> H 	 -80.6891 	 3.47866 	 3.12553
| 22> H 	 -82.2004 	 3.62343 	 3.8665
| 23> S 	 -88.048 	 3.649 	 4.60114
| 24> C 	 -88.7009 	 4.54674 	 3.32866
| 25> C 	 -88.4516 	 3.86502 	 2.14734
| 26> C 	 -87.7035 	 2.66038 	 2.24071
| 27> C 	 -87.1873 	 2.5535 	 3.53446
| 28> H 	 -88.7461 	 4.30604 	 1.2498
| 29> C 	 -87.3268 	 1.77153 	 1.02167
| 30> H 	 -86.9064 	 0.836093 	 1.38258
| 31> H 	 -86.504 	 2.23728 	 0.440836
| 32> C 	 -88.4841 	 1.47099 	 -0.0512995
| 33> H 	 -88.8099 	 2.35102 	 -0.654701
| 34> H 	 -89.3157 	 1.13809 	 0.537307
| 35> C 	 -88.1279 	 0.502376 	 -1.12601
| 36> H 	 -87.1995 	 0.693353 	 -1.71529
| 37> H 	 -88.9631 	 0.280315 	 -1.7727
| 38> H 	 -88.0229 	 -0.531746 	 -0.695074
| 39> H 	 -83.871 	 0.41198 	 6.5427
| 40> H 	 -89.2142 	 5.57748 	 3.38917
| 41> *
| 42>
| 43>                          ****END OF INPUT****

CARTESIAN COORDINATES (ANGSTROEM)
---------------------------------
  S    -86.204000    1.235550    5.823330
  C    -84.476300    0.784419    5.759640
  C    -83.943100    0.948789    4.513480
  C    -84.866200    1.553340    3.612380
  C    -86.140000    1.773950    4.151170
  H    -84.647100    1.697110    2.510660
  C    -82.491400    0.646687    4.172310
  H    -82.445500   -0.401741    3.848030
  H    -81.839900    0.491082    5.088650
  C    -81.771500    1.578130    3.206190
  H    -80.864300    1.117980    2.895180
  H    -82.372800    1.503600    2.294540
  C    -81.380800    3.007500    3.748180
  H    -80.834900    2.966290    4.698550
  H    -80.689100    3.478660    3.125530
  H    -82.200400    3.623430    3.866500
  S    -88.048000    3.649000    4.601140
  C    -88.700900    4.546740    3.328660
  C    -88.451600    3.865020    2.147340
  C    -87.703500    2.660380    2.240710
  C    -87.187300    2.553500    3.534460
  H    -88.746100    4.306040    1.249800
  C    -87.326800    1.771530    1.021670
  H    -86.906400    0.836093    1.382580
  H    -86.504000    2.237280    0.440836
  C    -88.484100    1.470990   -0.051299
  H    -88.809900    2.351020   -0.654701
  H    -89.315700    1.138090    0.537307
  C    -88.127900    0.502376   -1.126010
  H    -87.199500    0.693353   -1.715290
  H    -88.963100    0.280315   -1.772700
  H    -88.022900   -0.531746   -0.695074
  H    -83.871000    0.411980    6.542700
  H    -89.214200    5.577480    3.389170

 Total Charge           Charge          ....    0
 Multiplicity           Mult            ....    1
 Number of Electrons    NEL             ....  134
 Basis Dimension        Dim             ....  322

ORBITAL ENERGIES
----------------

  NO   OCC          E(Eh)            E(eV)
   0   2.0000     -88.968386     -2420.9529
   1   2.0000     -88.961826     -2420.7743
   2   2.0000     -10.332980      -281.1747
   3   2.0000     -10.327948      -281.0377
   4   2.0000     -10.318158      -280.7714
   5   2.0000     -10.309860      -280.5455
   6   2.0000     -10.308485      -280.5081
   7   2.0000     -10.303201      -280.3643
   8   2.0000     -10.299195      -280.2554
   9   2.0000     -10.298904      -280.2474
  10   2.0000     -10.296929      -280.1937
  11   2.0000     -10.291640      -280.0498
  12   2.0000     -10.288858      -279.9741
  13   2.0000     -10.286868      -279.9199
  14   2.0000     -10.281893      -279.7845
  15   2.0000     -10.270867      -279.4845
  16   2.0000      -8.082242      -219.9290
  17   2.0000      -8.077915      -219.8112
  18   2.0000      -6.040928      -164.3820
  19   2.0000      -6.036984      -164.2747
  20   2.0000      -6.036288      -164.2557
  21   2.0000      -6.032763      -164.1598
  22   2.0000      -6.032192      -164.1443
  23   2.0000      -6.028739      -164.0503
  24   2.0000      -1.009645       -27.4738
  25   2.0000      -0.984035       -26.7770
  26   2.0000      -0.909196       -24.7405
  27   2.0000      -0.903211       -24.5776
  28   2.0000      -0.869733       -23.6666
  29   2.0000      -0.856348       -23.3024
  30   2.0000      -0.839756       -22.8509
  31   2.0000      -0.811751       -22.0889
  32   2.0000      -0.787433       -21.4272
  33   2.0000      -0.776756       -21.1366
  34   2.0000      -0.713591       -19.4178
  35   2.0000      -0.698057       -18.9951
  36   2.0000      -0.696016       -18.9395
  37   2.0000      -0.654637       -17.8136
  38   2.0000      -0.633369       -17.2348
  39   2.0000      -0.619910       -16.8686
  40   2.0000      -0.595877       -16.2146
  41   2.0000      -0.566904       -15.4262
  42   2.0000      -0.563357       -15.3297
  43   2.0000      -0.550190       -14.9714
  44   2.0000      -0.537710       -14.6318
  45   2.0000      -0.522710       -14.2237
  46   2.0000      -0.517824       -14.0907
  47   2.0000      -0.510730       -13.8977
  48   2.0000      -0.504658       -13.7324
  49   2.0000      -0.496926       -13.5220
  50   2.0000      -0.490622       -13.3505
  51   2.0000      -0.478307       -13.0154
  52   2.0000      -0.473358       -12.8807
  53   2.0000      -0.468481       -12.7480
  54   2.0000      -0.462581       -12.5875
  55   2.0000      -0.454185       -12.3590
  56   2.0000      -0.450577       -12.2608
  57   2.0000      -0.437219       -11.8973
  58   2.0000      -0.430067       -11.7027
  59   2.0000      -0.419421       -11.4130
  60   2.0000      -0.417446       -11.3593
  61   2.0000      -0.412758       -11.2317
  62   2.0000      -0.412408       -11.2222
  63   2.0000      -0.351543        -9.5660
  64   2.0000      -0.332740        -9.0543
  65   2.0000      -0.327752        -8.9186
  66   2.0000      -0.282140        -7.6774
  67   0.0000       0.021972         0.5979
  68   0.0000       0.074110         2.0166
  69   0.0000       0.105731         2.8771
  70   0.0000       0.126275         3.4361
  71   0.0000       0.136610         3.7173

MULLIKEN ATOMIC CHARGES
-----------------------
   0 S :    0.108188
   1 C :   -0.115863
   2 C :   -0.049958
   3 C :   -0.022171
   4 C :   -0.133148
   5 H :    0.036368
   6 C :    0.021264
   7 H :    0.037590
   8 H :    0.016738
   9 C :   -0.053698
  10 H :    0.012856
  11 H :    0.021198
  12 C :    0.004014
  13 H :    0.024798
  14 H :    0.017819
  15 H :    0.030303
  16 S :    0.107806
  17 C :   -0.116303
  18 C :   -0.036264
  19 C :   -0.003294
  20 C :   -0.158341
  21 H :   -0.006948
  22 C :    0.037357
  23 H :    0.028519
  24 H :    0.042941
  25 C :   -0.076944
  26 H :    0.038248
  27 H :    0.034564
  28 C :   -0.064472
  29 H :    0.044339
  30 H :    0.031894
  31 H :    0.020762
  32 H :    0.027267
  33 H :    0.092571
Sum of atomic charges:    0.0000000

LOEWDIN ATOMIC CHARGES
----------------------
   0 S :    0.386130
   1 C :   -0.181434
   2 C :   -0.064857
   3 C :   -0.072771
   4 C :   -0.189633
   5 H :    0.039641
   6 C :   -0.041726
   7 H :    0.037385
   8 H :    0.032289
   9 C :   -0.039666
  10 H :    0.022451
  11 H :    0.023331
  12 C :   -0.050897
  13 H :    0.031304
  14 H :    0.020302
  15 H :    0.017901
  16 S :    0.426329
  17 C :   -0.222078
  18 C :   -0.070600
  19 C :   -0.056960
  20 C :   -0.189957
  21 H :    0.017459
  22 C :   -0.030685
  23 H :    0.028912
  24 H :    0.032730
  25 C :   -0.043373
  26 H :    0.028779
  27 H :    0.024895
  28 C :   -0.076991
  29 H :    0.030247
  30 H :    0.028240
  31 H :    0.026991
  32 H :    0.021632
  33 H :    0.054679

  Mayer bond orders larger than 0.100000
B(  0-S ,  1-C ) :   1.1136 B(  0-S ,  4-C ) :   1.1438 B(  1-C ,  2-C ) :   1.6357
B(  1-C , 32-H ) :   0.9684 B(  2-C ,  3-C ) :   1.2504 B(  2-C ,  6-C ) :   1.0104
B(  3-C ,  4-C ) :   1.5630 B(  3-C ,  5-H ) :   0.9755 B(  4-C , 20-C ) :   1.0792
B(  6-C ,  7-H ) :   0.9295 B(  6-C ,  8-H ) :   0.9417 B(  6-C ,  9-C ) :   1.0896
B(  9-C , 10-H ) :   0.9479 B(  9-C , 11-H ) :   0.9498 B(  9-C , 12-C ) :   1.0638
B( 12-C , 13-H ) :   0.9721 B( 12-C , 14-H ) :   0.9754 B( 12-C , 15-H ) :   0.9798
B( 16-S , 17-C ) :   1.1669 B( 16-S , 20-C ) :   1.1523 B( 17-C , 18-C ) :   1.5867
B( 17-C , 33-H ) :   0.9582 B( 18-C , 19-C ) :   1.2439 B( 18-C , 21-H ) :   1.0008
B( 19-C , 20-C ) :   1.5452 B( 19-C , 22-C ) :   1.0478 B( 22-C , 23-H ) :   0.9383
B( 22-C , 24-H ) :   0.9368 B( 22-C , 25-C ) :   1.0496 B( 25-C , 26-H ) :   0.9532
B( 25-C , 27-H ) :   0.9576 B( 25-C , 28-C ) :   1.0982 B( 28-C , 29-H ) :   0.9723
B( 28-C , 30-H ) :   0.9694 B( 28-C , 31-H ) :   0.9686

Dispersion correction           -0.013564042
FINAL SINGLE POINT ENERGY     -1339.860102234182

DIPOLE MOMENT
-------------
                                X             Y             Z
Electronic contribution:    -14.75592       5.30696      22.36887
Nuclear contribution   :     15.20482      -5.33614     -23.02484
                        -----------------------------------------
Total Dipole Moment    :      0.44890      -0.02918      -0.65598
                        -----------------------------------------
Magnitude (a.u.)       :      0.79541
Magnitude (Debye)      :      2.02176

Rotational constants in cm-1:     0.016017     0.008571     0.006819
Rotational constants in MHz :   480.192130   256.944961   204.440280

                             ****ORCA TERMINATED NORMALLY****
TOTAL RUN TIME: 0 days 0 hours 0 minutes 20 seconds 910 msec
