                         Program Version 4.2.1 -  RELEASE  -
|  1> ! wB97X-D3 SP def2-SVP
|  2> %pal
|  3> nprocs 24
|  4> end
|  5>
|  6> * xyz 0 1
|  7> S 	 -108.034 	 16.6018 	 -118.788
|  8> C 	 -107.846 	 15.2664 	 -117.684
|  9> C 	 -106.845 	 15.514 	 -116.76
| 10> C 	 -106.284 	 16.8268 	 -116.866
| 11> C 	 -106.807 	 17.5469 	 -117.906
| 12> H 	 -105.6 	 17.2329 	 -116.158
| 13> C 	 -106.442 	 14.6086 	 -115.635
| 14> H 	 -107.26 	 13.9392 	 -115.381
| 15> H 	 -106.343 	 15.2283 	 -114.742
| 16> C 	 -105.148 	 13.7682 	 -115.903
| 17> H 	 -105.568 	 13.1395 	 -116.689
| 18> H 	 -104.427 	 14.5242 	 -116.257
| 19> C 	 -104.697 	 12.7575 	 -114.809
| 20> H 	 -105.515 	 12.0503 	 -114.527
| 21> H 	 -103.787 	 12.2248 	 -115.081
| 22> H 	 -104.349 	 13.3599 	 -113.969
| 23> S 	 -108.008 	 19.9668 	 -118.244
| 24> C 	 -107.107 	 21.4091 	 -118.311
| 25> C 	 -105.751 	 21.159 	 -118.164
| 26> C 	 -105.409 	 19.7946 	 -117.997
| 27> C 	 -106.588 	 18.9694 	 -118.122
| 28> H 	 -105.01 	 21.906 	 -117.999
| 29> C 	 -104.078 	 19.2127 	 -117.515
| 30> H 	 -104.019 	 18.3287 	 -118.208
| 31> H 	 -104.29 	 18.855 	 -116.468
| 32> C 	 -102.802 	 20.0478 	 -117.541
| 33> H 	 -102.907 	 20.9719 	 -116.95
| 34> H 	 -102.624 	 20.3042 	 -118.568
| 35> C 	 -101.64 	 19.3213 	 -116.96
| 36> H 	 -100.749 	 19.9212 	 -116.772
| 37> H 	 -101.374 	 18.525 	 -117.696
| 38> H 	 -101.833 	 18.8145 	 -116.05
| 39> H 	 -108.166 	 14.2698 	 -117.734
| 40> H 	 -107.65 	 22.3803 	 -118.198
| 41> *
| 42>
| 43>                          ****END OF INPUT****

CARTESIAN COORDINATES (ANGSTROEM)
---------------------------------
  S    -108.034000   16.601800  -118.788000
  C    -107.846000   15.266400  -117.684000
  C    -106.845000   15.514000  -116.760000
  C    -106.284000   16.826800  -116.866000
  C    -106.807000   17.546900  -117.906000
  H    -105.600000   17.232900  -116.158000
  C    -106.442000   14.608600  -115.635000
  H    -107.260000   13.939200  -115.381000
  H    -106.343000   15.228300  -114.742000
  C    -105.148000   13.768200  -115.903000
  H    -105.568000   13.139500  -116.689000
  H    -104.427000   14.524200  -116.257000
  C    -104.697000   12.757500  -114.809000
  H    -105.515000   12.050300  -114.527000
  H    -103.787000   12.224800  -115.081000
  H    -104.349000   13.359900  -113.969000
  S    -108.008000   19.966800  -118.244000
  C    -107.107000   21.409100  -118.311000
  C    -105.751000   21.159000  -118.164000
  C    -105.409000   19.794600  -117.997000
  C    -106.588000   18.969400  -118.122000
  H    -105.010000   21.906000  -117.999000
  C    -104.078000   19.212700  -117.515000
  H    -104.019000   18.328700  -118.208000
  H    -104.290000   18.855000  -116.468000
  C    -102.802000   20.047800  -117.541000
  H    -102.907000   20.971900  -116.950000
  H    -102.624000   20.304200  -118.568000
  C    -101.640000   19.321300  -116.960000
  H    -100.749000   19.921200  -116.772000
  H    -101.374000   18.525000  -117.696000
  H    -101.833000   18.814500  -116.050000
  H    -108.166000   14.269800  -117.734000
  H    -107.650000   22.380300  -118.198000

 Total Charge           Charge          ....    0
 Multiplicity           Mult            ....    1
 Number of Electrons    NEL             ....  134
 Basis Dimension        Dim             ....  322

ORBITAL ENERGIES
----------------

  NO   OCC          E(Eh)            E(eV)
   0   2.0000     -88.969499     -2420.9832
   1   2.0000     -88.966042     -2420.8891
   2   2.0000     -10.331321      -281.1295
   3   2.0000     -10.326329      -280.9937
   4   2.0000     -10.317551      -280.7548
   5   2.0000     -10.309402      -280.5331
   6   2.0000     -10.308604      -280.5114
   7   2.0000     -10.302850      -280.3548
   8   2.0000     -10.297553      -280.2107
   9   2.0000     -10.292132      -280.0631
  10   2.0000     -10.291187      -280.0374
  11   2.0000     -10.290256      -280.0121
  12   2.0000     -10.289365      -279.9879
  13   2.0000     -10.288082      -279.9529
  14   2.0000     -10.286411      -279.9075
  15   2.0000     -10.277374      -279.6616
  16   2.0000      -8.083480      -219.9627
  17   2.0000      -8.081701      -219.9143
  18   2.0000      -6.042189      -164.4163
  19   2.0000      -6.039971      -164.3560
  20   2.0000      -6.038057      -164.3039
  21   2.0000      -6.035922      -164.2458
  22   2.0000      -6.034100      -164.1962
  23   2.0000      -6.032813      -164.1612
  24   2.0000      -1.007369       -27.4119
  25   2.0000      -0.985089       -26.8056
  26   2.0000      -0.916961       -24.9518
  27   2.0000      -0.908111       -24.7110
  28   2.0000      -0.869934       -23.6721
  29   2.0000      -0.859031       -23.3754
  30   2.0000      -0.847491       -23.0614
  31   2.0000      -0.814211       -22.1558
  32   2.0000      -0.783464       -21.3191
  33   2.0000      -0.770199       -20.9582
  34   2.0000      -0.710350       -19.3296
  35   2.0000      -0.700007       -19.0482
  36   2.0000      -0.696461       -18.9517
  37   2.0000      -0.652241       -17.7484
  38   2.0000      -0.637821       -17.3560
  39   2.0000      -0.623689       -16.9714
  40   2.0000      -0.598106       -16.2753
  41   2.0000      -0.579272       -15.7628
  42   2.0000      -0.567918       -15.4538
  43   2.0000      -0.562991       -15.3198
  44   2.0000      -0.532324       -14.4853
  45   2.0000      -0.520451       -14.1622
  46   2.0000      -0.516813       -14.0632
  47   2.0000      -0.508653       -13.8411
  48   2.0000      -0.505413       -13.7530
  49   2.0000      -0.500380       -13.6160
  50   2.0000      -0.495943       -13.4953
  51   2.0000      -0.478961       -13.0332
  52   2.0000      -0.475839       -12.9482
  53   2.0000      -0.468872       -12.7586
  54   2.0000      -0.460976       -12.5438
  55   2.0000      -0.456283       -12.4161
  56   2.0000      -0.448153       -12.1949
  57   2.0000      -0.435540       -11.8516
  58   2.0000      -0.430590       -11.7170
  59   2.0000      -0.426844       -11.6150
  60   2.0000      -0.423056       -11.5120
  61   2.0000      -0.418335       -11.3835
  62   2.0000      -0.407412       -11.0863
  63   2.0000      -0.354732        -9.6527
  64   2.0000      -0.330294        -8.9878
  65   2.0000      -0.328523        -8.9396
  66   2.0000      -0.283963        -7.7270
  67   0.0000       0.025659         0.6982
  68   0.0000       0.071636         1.9493
  69   0.0000       0.113612         3.0915
  70   0.0000       0.119930         3.2634
  71   0.0000       0.128035         3.4840

MULLIKEN ATOMIC CHARGES
-----------------------
   0 S :    0.115611
   1 C :   -0.071846
   2 C :   -0.110031
   3 C :    0.023909
   4 C :   -0.131203
   5 H :   -0.005214
   6 C :    0.043009
   7 H :    0.010203
   8 H :    0.020216
   9 C :   -0.090033
  10 H :    0.026628
  11 H :    0.039983
  12 C :   -0.035476
  13 H :    0.047785
  14 H :    0.040061
  15 H :    0.025835
  16 S :    0.119796
  17 C :   -0.106930
  18 C :   -0.025721
  19 C :   -0.044022
  20 C :   -0.168317
  21 H :    0.005240
  22 C :   -0.016792
  23 H :    0.053608
  24 H :    0.055782
  25 C :   -0.042737
  26 H :    0.031336
  27 H :    0.031243
  28 C :   -0.027813
  29 H :    0.035924
  30 H :    0.027513
  31 H :    0.015944
  32 H :    0.025069
  33 H :    0.081442
Sum of atomic charges:   -0.0000000

LOEWDIN ATOMIC CHARGES
----------------------
   0 S :    0.396226
   1 C :   -0.196994
   2 C :   -0.059622
   3 C :   -0.058303
   4 C :   -0.183763
   5 H :    0.025145
   6 C :   -0.037020
   7 H :    0.024266
   8 H :    0.024892
   9 C :   -0.042845
  10 H :    0.024552
  11 H :    0.026961
  12 C :   -0.069544
  13 H :    0.033889
  14 H :    0.029465
  15 H :    0.023835
  16 S :    0.444465
  17 C :   -0.213374
  18 C :   -0.076826
  19 C :   -0.053868
  20 C :   -0.211845
  21 H :    0.025411
  22 C :   -0.038707
  23 H :    0.044632
  24 H :    0.035533
  25 C :   -0.044873
  26 H :    0.025384
  27 H :    0.026124
  28 C :   -0.062544
  29 H :    0.028205
  30 H :    0.030728
  31 H :    0.018182
  32 H :    0.022204
  33 H :    0.040028

  Mayer bond orders larger than 0.100000
B(  0-S ,  1-C ) :   1.1196 B(  0-S ,  4-C ) :   1.1393 B(  1-C ,  2-C ) :   1.6360
B(  1-C , 32-H ) :   0.9615 B(  2-C ,  3-C ) :   1.2361 B(  2-C ,  6-C ) :   1.0337
B(  3-C ,  4-C ) :   1.5643 B(  3-C ,  5-H ) :   0.9926 B(  4-C , 20-C ) :   1.0559
B(  6-C ,  7-H ) :   0.9430 B(  6-C ,  8-H ) :   0.9394 B(  6-C ,  9-C ) :   1.0371
B(  9-C , 10-H ) :   0.9598 B(  9-C , 11-H ) :   0.9618 B(  9-C , 12-C ) :   1.0747
B( 12-C , 13-H ) :   0.9724 B( 12-C , 14-H ) :   0.9740 B( 12-C , 15-H ) :   0.9750
B( 16-S , 17-C ) :   1.1926 B( 16-S , 20-C ) :   1.1842 B( 17-C , 18-C ) :   1.5209
B( 17-C , 20-C ) :   0.1104 B( 17-C , 33-H ) :   0.9623 B( 18-C , 19-C ) :   1.3293
B( 18-C , 21-H ) :   0.9914 B( 19-C , 20-C ) :   1.5091 B( 19-C , 22-C ) :   1.0185
B( 22-C , 23-H ) :   0.9328 B( 22-C , 24-H ) :   0.9301 B( 22-C , 25-C ) :   1.0804
B( 25-C , 26-H ) :   0.9449 B( 25-C , 27-H ) :   0.9520 B( 25-C , 28-C ) :   1.0941
B( 28-C , 29-H ) :   0.9725 B( 28-C , 30-H ) :   0.9719 B( 28-C , 31-H ) :   0.9717

Dispersion correction           -0.013522072
FINAL SINGLE POINT ENERGY     -1339.874351826028

DIPOLE MOMENT
-------------
                                X             Y             Z
Electronic contribution:    -26.04224      12.18452     -15.19734
Nuclear contribution   :     26.62561     -12.25064      15.81933
                        -----------------------------------------
Total Dipole Moment    :      0.58337      -0.06612       0.62199
                        -----------------------------------------
Magnitude (a.u.)       :      0.85532
Magnitude (Debye)      :      2.17404

Rotational constants in cm-1:     0.016106     0.008923     0.006076
Rotational constants in MHz :   482.830871   267.515078   182.143012

                             ****ORCA TERMINATED NORMALLY****
TOTAL RUN TIME: 0 days 0 hours 0 minutes 21 seconds 175 msec
