                         Program Version 4.2.1 -  RELEASE  -
|  1> ! wB97X-D3 SP def2-SVP
|  2> %pal
|  3> nprocs 24
|  4> end
|  5>
|  6> * xyz 0 1
|  7> S 	 -90.8069 	 -5.09029 	 -119.598
|  8> C 	 -89.3298 	 -5.5851 	 -120.437
|  9> C 	 -89.4923 	 -6.84323 	 -121.027
| 10> C 	 -90.9021 	 -7.26824 	 -120.971
| 11> C 	 -91.7117 	 -6.447 	 -120.179
| 12> H 	 -91.2722 	 -8.16158 	 -121.373
| 13> C 	 -88.5156 	 -7.46024 	 -122.01
| 14> H 	 -88.9798 	 -8.02344 	 -122.76
| 15> H 	 -87.8561 	 -7.9886 	 -121.331
| 16> C 	 -87.6281 	 -6.3862 	 -122.667
| 17> H 	 -88.1725 	 -5.60696 	 -123.239
| 18> H 	 -87.1038 	 -5.80161 	 -121.88
| 19> C 	 -86.5142 	 -7.03813 	 -123.523
| 20> H 	 -85.951 	 -7.77185 	 -122.963
| 21> H 	 -86.9001 	 -7.58561 	 -124.395
| 22> H 	 -85.7864 	 -6.31063 	 -123.904
| 23> S 	 -94.2639 	 -5.40507 	 -119.749
| 24> C 	 -95.547 	 -6.44193 	 -119.195
| 25> C 	 -95.0502 	 -7.67029 	 -118.95
| 26> C 	 -93.6623 	 -7.85299 	 -119.232
| 27> C 	 -93.0675 	 -6.65565 	 -119.682
| 28> H 	 -95.629 	 -8.45662 	 -118.452
| 29> C 	 -92.8803 	 -9.14778 	 -119.046
| 30> H 	 -92.205 	 -9.35554 	 -119.915
| 31> H 	 -93.664 	 -9.96131 	 -119.116
| 32> C 	 -91.9735 	 -9.37951 	 -117.801
| 33> H 	 -92.6912 	 -9.29866 	 -116.961
| 34> H 	 -91.2216 	 -8.57731 	 -117.691
| 35> C 	 -91.2391 	 -10.7692 	 -117.713
| 36> H 	 -90.639 	 -11.0451 	 -118.545
| 37> H 	 -91.9422 	 -11.5159 	 -117.642
| 38> H 	 -90.5443 	 -10.8003 	 -116.826
| 39> H 	 -88.3101 	 -5.14657 	 -120.213
| 40> H 	 -96.4798 	 -6.11788 	 -118.757
| 41> *
| 42>
| 43>                          ****END OF INPUT****

CARTESIAN COORDINATES (ANGSTROEM)
---------------------------------
  S    -90.806900   -5.090290  -119.598000
  C    -89.329800   -5.585100  -120.437000
  C    -89.492300   -6.843230  -121.027000
  C    -90.902100   -7.268240  -120.971000
  C    -91.711700   -6.447000  -120.179000
  H    -91.272200   -8.161580  -121.373000
  C    -88.515600   -7.460240  -122.010000
  H    -88.979800   -8.023440  -122.760000
  H    -87.856100   -7.988600  -121.331000
  C    -87.628100   -6.386200  -122.667000
  H    -88.172500   -5.606960  -123.239000
  H    -87.103800   -5.801610  -121.880000
  C    -86.514200   -7.038130  -123.523000
  H    -85.951000   -7.771850  -122.963000
  H    -86.900100   -7.585610  -124.395000
  H    -85.786400   -6.310630  -123.904000
  S    -94.263900   -5.405070  -119.749000
  C    -95.547000   -6.441930  -119.195000
  C    -95.050200   -7.670290  -118.950000
  C    -93.662300   -7.852990  -119.232000
  C    -93.067500   -6.655650  -119.682000
  H    -95.629000   -8.456620  -118.452000
  C    -92.880300   -9.147780  -119.046000
  H    -92.205000   -9.355540  -119.915000
  H    -93.664000   -9.961310  -119.116000
  C    -91.973500   -9.379510  -117.801000
  H    -92.691200   -9.298660  -116.961000
  H    -91.221600   -8.577310  -117.691000
  C    -91.239100  -10.769200  -117.713000
  H    -90.639000  -11.045100  -118.545000
  H    -91.942200  -11.515900  -117.642000
  H    -90.544300  -10.800300  -116.826000
  H    -88.310100   -5.146570  -120.213000
  H    -96.479800   -6.117880  -118.757000

 Total Charge           Charge          ....    0
 Multiplicity           Mult            ....    1
 Number of Electrons    NEL             ....  134
 Basis Dimension        Dim             ....  322

ORBITAL ENERGIES
----------------

  NO   OCC          E(Eh)            E(eV)
   0   2.0000     -88.966197     -2420.8933
   1   2.0000     -88.965928     -2420.8860
   2   2.0000     -10.332292      -281.1560
   3   2.0000     -10.329425      -281.0779
   4   2.0000     -10.321007      -280.8489
   5   2.0000     -10.314050      -280.6596
   6   2.0000     -10.307957      -280.4938
   7   2.0000     -10.305795      -280.4350
   8   2.0000     -10.299352      -280.2596
   9   2.0000     -10.296633      -280.1856
  10   2.0000     -10.293870      -280.1104
  11   2.0000     -10.293062      -280.0885
  12   2.0000     -10.292373      -280.0697
  13   2.0000     -10.292325      -280.0684
  14   2.0000     -10.279759      -279.7265
  15   2.0000     -10.276131      -279.6277
  16   2.0000      -8.081367      -219.9052
  17   2.0000      -8.080702      -219.8871
  18   2.0000      -6.039929      -164.3548
  19   2.0000      -6.039277      -164.3371
  20   2.0000      -6.035616      -164.2375
  21   2.0000      -6.035024      -164.2213
  22   2.0000      -6.032235      -164.1455
  23   2.0000      -6.031565      -164.1272
  24   2.0000      -1.008388       -27.4396
  25   2.0000      -0.983684       -26.7674
  26   2.0000      -0.915666       -24.9165
  27   2.0000      -0.899092       -24.4655
  28   2.0000      -0.868913       -23.6443
  29   2.0000      -0.849473       -23.1153
  30   2.0000      -0.843580       -22.9550
  31   2.0000      -0.815453       -22.1896
  32   2.0000      -0.783245       -21.3132
  33   2.0000      -0.771286       -20.9878
  34   2.0000      -0.710779       -19.3413
  35   2.0000      -0.702864       -19.1259
  36   2.0000      -0.689351       -18.7582
  37   2.0000      -0.660969       -17.9859
  38   2.0000      -0.636624       -17.3234
  39   2.0000      -0.616678       -16.7807
  40   2.0000      -0.594343       -16.1729
  41   2.0000      -0.583052       -15.8656
  42   2.0000      -0.562170       -15.2974
  43   2.0000      -0.556870       -15.1532
  44   2.0000      -0.522071       -14.2063
  45   2.0000      -0.519510       -14.1366
  46   2.0000      -0.516486       -14.0543
  47   2.0000      -0.512416       -13.9435
  48   2.0000      -0.504197       -13.7199
  49   2.0000      -0.503094       -13.6899
  50   2.0000      -0.494057       -13.4440
  51   2.0000      -0.482632       -13.1331
  52   2.0000      -0.478685       -13.0257
  53   2.0000      -0.461048       -12.5458
  54   2.0000      -0.454566       -12.3694
  55   2.0000      -0.447683       -12.1821
  56   2.0000      -0.444537       -12.0965
  57   2.0000      -0.437653       -11.9091
  58   2.0000      -0.433112       -11.7856
  59   2.0000      -0.425579       -11.5806
  60   2.0000      -0.421021       -11.4566
  61   2.0000      -0.416267       -11.3272
  62   2.0000      -0.409893       -11.1538
  63   2.0000      -0.351611        -9.5678
  64   2.0000      -0.330844        -9.0027
  65   2.0000      -0.327909        -8.9229
  66   2.0000      -0.292592        -7.9618
  67   0.0000       0.023079         0.6280
  68   0.0000       0.072158         1.9635
  69   0.0000       0.112323         3.0565
  70   0.0000       0.118936         3.2364
  71   0.0000       0.131832         3.5873

MULLIKEN ATOMIC CHARGES
-----------------------
   0 S :    0.109754
   1 C :   -0.140419
   2 C :   -0.116701
   3 C :    0.031610
   4 C :   -0.135948
   5 H :   -0.003507
   6 C :    0.110857
   7 H :    0.025277
   8 H :    0.034932
   9 C :   -0.124414
  10 H :    0.046813
  11 H :    0.024593
  12 C :   -0.046111
  13 H :    0.020724
  14 H :    0.030165
  15 H :    0.036436
  16 S :    0.109590
  17 C :   -0.076609
  18 C :   -0.044134
  19 C :   -0.033577
  20 C :   -0.141552
  21 H :    0.023342
  22 C :    0.018189
  23 H :    0.020489
  24 H :    0.022471
  25 C :   -0.065926
  26 H :    0.027934
  27 H :    0.043672
  28 C :   -0.029098
  29 H :    0.021702
  30 H :    0.011542
  31 H :    0.044072
  32 H :    0.081071
  33 H :    0.062758
Sum of atomic charges:    0.0000000

LOEWDIN ATOMIC CHARGES
----------------------
   0 S :    0.410380
   1 C :   -0.212039
   2 C :   -0.057375
   3 C :   -0.057902
   4 C :   -0.194792
   5 H :    0.017996
   6 C :   -0.022883
   7 H :    0.024564
   8 H :    0.039450
   9 C :   -0.041599
  10 H :    0.028400
  11 H :    0.022721
  12 C :   -0.069742
  13 H :    0.021026
  14 H :    0.024259
  15 H :    0.028132
  16 S :    0.421027
  17 C :   -0.195100
  18 C :   -0.072041
  19 C :   -0.061047
  20 C :   -0.206265
  21 H :    0.034323
  22 C :   -0.044228
  23 H :    0.029374
  24 H :    0.031786
  25 C :   -0.037291
  26 H :    0.024479
  27 H :    0.027494
  28 C :   -0.059886
  29 H :    0.019694
  30 H :    0.012321
  31 H :    0.037296
  32 H :    0.042228
  33 H :    0.035241

  Mayer bond orders larger than 0.100000
B(  0-S ,  1-C ) :   1.1344 B(  0-S ,  4-C ) :   1.1649 B(  1-C ,  2-C ) :   1.6166
B(  1-C , 32-H ) :   0.9515 B(  2-C ,  3-C ) :   1.2366 B(  2-C ,  6-C ) :   1.0158
B(  3-C ,  4-C ) :   1.5700 B(  3-C ,  5-H ) :   0.9993 B(  4-C , 20-C ) :   1.0304
B(  6-C ,  7-H ) :   0.9620 B(  6-C ,  8-H ) :   0.9169 B(  6-C ,  9-C ) :   1.0871
B(  9-C , 10-H ) :   0.9584 B(  9-C , 11-H ) :   0.9450 B(  9-C , 12-C ) :   1.0775
B( 12-C , 13-H ) :   0.9751 B( 12-C , 14-H ) :   0.9757 B( 12-C , 15-H ) :   0.9743
B( 16-S , 17-C ) :   1.1514 B( 16-S , 20-C ) :   1.1614 B( 17-C , 18-C ) :   1.5974
B( 17-C , 33-H ) :   0.9622 B( 18-C , 19-C ) :   1.2874 B( 18-C , 21-H ) :   0.9813
B( 19-C , 20-C ) :   1.5506 B( 19-C , 22-C ) :   1.0435 B( 22-C , 23-H ) :   0.9347
B( 22-C , 24-H ) :   0.9341 B( 22-C , 25-C ) :   1.0550 B( 25-C , 26-H ) :   0.9569
B( 25-C , 27-H ) :   0.9587 B( 25-C , 28-C ) :   1.0717 B( 28-C , 29-H ) :   0.9762
B( 28-C , 30-H ) :   0.9765 B( 28-C , 31-H ) :   0.9756

Dispersion correction           -0.013915031
FINAL SINGLE POINT ENERGY     -1339.875333076101

DIPOLE MOMENT
-------------
                                X             Y             Z
Electronic contribution:    -20.20776      20.14723       4.69062
Nuclear contribution   :     20.55408     -20.78263      -4.65234
                        -----------------------------------------
Total Dipole Moment    :      0.34632      -0.63540       0.03828
                        -----------------------------------------
Magnitude (a.u.)       :      0.72466
Magnitude (Debye)      :      1.84195

Rotational constants in cm-1:     0.019699     0.007910     0.006294
Rotational constants in MHz :   590.564969   237.149650   188.692769

                             ****ORCA TERMINATED NORMALLY****
TOTAL RUN TIME: 0 days 0 hours 0 minutes 21 seconds 173 msec
