                         Program Version 4.2.1 -  RELEASE  -
|  1> ! wB97X-D3 SP def2-SVP
|  2> %pal
|  3> nprocs 24
|  4> end
|  5>
|  6> * xyz 0 1
|  7> S 	 -51.2081 	 12.5027 	 -99.3507
|  8> C 	 -50.8008 	 10.9489 	 -100.106
|  9> C 	 -50.0498 	 11.1883 	 -101.224
| 10> C 	 -49.5134 	 12.4772 	 -101.357
| 11> C 	 -50.0027 	 13.3095 	 -100.352
| 12> H 	 -48.9285 	 12.7457 	 -102.255
| 13> C 	 -49.7146 	 10.1404 	 -102.192
| 14> H 	 -50.4772 	 9.39783 	 -102.044
| 15> H 	 -48.781 	 9.70114 	 -101.922
| 16> C 	 -50.0046 	 10.5217 	 -103.64
| 17> H 	 -49.3093 	 11.2258 	 -103.995
| 18> H 	 -49.6778 	 9.66663 	 -104.119
| 19> C 	 -51.3889 	 10.8478 	 -103.921
| 20> H 	 -51.4787 	 10.9771 	 -104.925
| 21> H 	 -52.1801 	 10.2465 	 -103.406
| 22> H 	 -51.5139 	 11.8656 	 -103.638
| 23> S 	 -51.3021 	 15.7296 	 -100.521
| 24> C 	 -50.3593 	 17.211 	 -100.588
| 25> C 	 -49.0285 	 16.9778 	 -100.467
| 26> C 	 -48.6856 	 15.6098 	 -100.346
| 27> C 	 -49.8578 	 14.7816 	 -100.397
| 28> H 	 -48.4272 	 17.8919 	 -100.406
| 29> C 	 -47.2605 	 15.0906 	 -100.392
| 30> H 	 -46.6366 	 15.8159 	 -100.821
| 31> H 	 -47.2372 	 14.3065 	 -101.121
| 32> C 	 -46.7139 	 14.7112 	 -99.0071
| 33> H 	 -47.2685 	 13.7559 	 -98.7777
| 34> H 	 -46.9514 	 15.3051 	 -98.1773
| 35> C 	 -45.1976 	 14.3858 	 -98.9161
| 36> H 	 -44.8173 	 14.416 	 -97.8836
| 37> H 	 -44.6993 	 15.2081 	 -99.413
| 38> H 	 -44.9531 	 13.5162 	 -99.5463
| 39> H 	 -50.9989 	 9.98184 	 -99.6474
| 40> H 	 -50.7586 	 18.1966 	 -100.455
| 41> *
| 42>
| 43>                          ****END OF INPUT****

CARTESIAN COORDINATES (ANGSTROEM)
---------------------------------
  S    -51.208100   12.502700  -99.350700
  C    -50.800800   10.948900  -100.106000
  C    -50.049800   11.188300  -101.224000
  C    -49.513400   12.477200  -101.357000
  C    -50.002700   13.309500  -100.352000
  H    -48.928500   12.745700  -102.255000
  C    -49.714600   10.140400  -102.192000
  H    -50.477200    9.397830  -102.044000
  H    -48.781000    9.701140  -101.922000
  C    -50.004600   10.521700  -103.640000
  H    -49.309300   11.225800  -103.995000
  H    -49.677800    9.666630  -104.119000
  C    -51.388900   10.847800  -103.921000
  H    -51.478700   10.977100  -104.925000
  H    -52.180100   10.246500  -103.406000
  H    -51.513900   11.865600  -103.638000
  S    -51.302100   15.729600  -100.521000
  C    -50.359300   17.211000  -100.588000
  C    -49.028500   16.977800  -100.467000
  C    -48.685600   15.609800  -100.346000
  C    -49.857800   14.781600  -100.397000
  H    -48.427200   17.891900  -100.406000
  C    -47.260500   15.090600  -100.392000
  H    -46.636600   15.815900  -100.821000
  H    -47.237200   14.306500  -101.121000
  C    -46.713900   14.711200  -99.007100
  H    -47.268500   13.755900  -98.777700
  H    -46.951400   15.305100  -98.177300
  C    -45.197600   14.385800  -98.916100
  H    -44.817300   14.416000  -97.883600
  H    -44.699300   15.208100  -99.413000
  H    -44.953100   13.516200  -99.546300
  H    -50.998900    9.981840  -99.647400
  H    -50.758600   18.196600  -100.455000

 Total Charge           Charge          ....    0
 Multiplicity           Mult            ....    1
 Number of Electrons    NEL             ....  134
 Basis Dimension        Dim             ....  322

ORBITAL ENERGIES
----------------

  NO   OCC          E(Eh)            E(eV)
   0   2.0000     -88.967341     -2420.9244
   1   2.0000     -88.964693     -2420.8524
   2   2.0000     -10.334769      -281.2234
   3   2.0000     -10.328562      -281.0544
   4   2.0000     -10.312554      -280.6189
   5   2.0000     -10.307363      -280.4776
   6   2.0000     -10.304360      -280.3959
   7   2.0000     -10.294794      -280.1356
   8   2.0000     -10.289738      -279.9980
   9   2.0000     -10.289406      -279.9890
  10   2.0000     -10.284912      -279.8667
  11   2.0000     -10.279401      -279.7167
  12   2.0000     -10.277441      -279.6634
  13   2.0000     -10.276472      -279.6370
  14   2.0000     -10.271208      -279.4938
  15   2.0000     -10.264576      -279.3133
  16   2.0000      -8.081441      -219.9072
  17   2.0000      -8.079531      -219.8552
  18   2.0000      -6.040003      -164.3568
  19   2.0000      -6.037972      -164.3016
  20   2.0000      -6.036117      -164.2511
  21   2.0000      -6.034003      -164.1936
  22   2.0000      -6.032103      -164.1419
  23   2.0000      -6.030386      -164.0951
  24   2.0000      -1.005446       -27.3596
  25   2.0000      -0.984865       -26.7995
  26   2.0000      -0.928618       -25.2690
  27   2.0000      -0.904506       -24.6129
  28   2.0000      -0.872701       -23.7474
  29   2.0000      -0.852020       -23.1846
  30   2.0000      -0.846325       -23.0297
  31   2.0000      -0.818698       -22.2779
  32   2.0000      -0.786774       -21.4092
  33   2.0000      -0.770212       -20.9585
  34   2.0000      -0.714518       -19.4430
  35   2.0000      -0.700849       -19.0711
  36   2.0000      -0.693516       -18.8715
  37   2.0000      -0.653272       -17.7764
  38   2.0000      -0.632307       -17.2060
  39   2.0000      -0.630451       -17.1554
  40   2.0000      -0.594297       -16.1716
  41   2.0000      -0.579782       -15.7767
  42   2.0000      -0.566473       -15.4145
  43   2.0000      -0.554233       -15.0815
  44   2.0000      -0.538778       -14.6609
  45   2.0000      -0.532934       -14.5019
  46   2.0000      -0.521568       -14.1926
  47   2.0000      -0.509021       -13.8512
  48   2.0000      -0.502182       -13.6651
  49   2.0000      -0.497211       -13.5298
  50   2.0000      -0.491957       -13.3868
  51   2.0000      -0.480626       -13.0785
  52   2.0000      -0.472630       -12.8609
  53   2.0000      -0.465007       -12.6535
  54   2.0000      -0.462758       -12.5923
  55   2.0000      -0.448534       -12.2052
  56   2.0000      -0.445181       -12.1140
  57   2.0000      -0.444274       -12.0893
  58   2.0000      -0.436111       -11.8672
  59   2.0000      -0.422693       -11.5021
  60   2.0000      -0.418125       -11.3778
  61   2.0000      -0.404078       -10.9955
  62   2.0000      -0.400381       -10.8949
  63   2.0000      -0.346317        -9.4238
  64   2.0000      -0.331762        -9.0277
  65   2.0000      -0.327501        -8.9117
  66   2.0000      -0.287188        -7.8148
  67   0.0000       0.027866         0.7583
  68   0.0000       0.063541         1.7290
  69   0.0000       0.108530         2.9532
  70   0.0000       0.128559         3.4983
  71   0.0000       0.134053         3.6478

MULLIKEN ATOMIC CHARGES
-----------------------
   0 S :    0.102587
   1 C :   -0.138207
   2 C :   -0.109548
   3 C :    0.025725
   4 C :   -0.124183
   5 H :    0.034441
   6 C :    0.072706
   7 H :   -0.003083
   8 H :    0.036786
   9 C :   -0.043904
  10 H :    0.005311
  11 H :   -0.000445
  12 C :    0.037754
  13 H :    0.003423
  14 H :    0.046470
  15 H :    0.012939
  16 S :    0.108008
  17 C :   -0.095310
  18 C :   -0.047918
  19 C :   -0.038621
  20 C :   -0.171722
  21 H :    0.025871
  22 C :    0.130293
  23 H :   -0.006005
  24 H :    0.011146
  25 C :   -0.093279
  26 H :    0.035717
  27 H :    0.019912
  28 C :   -0.034377
  29 H :    0.044913
  30 H :    0.011318
  31 H :    0.034108
  32 H :    0.059024
  33 H :    0.048151
Sum of atomic charges:   -0.0000000

LOEWDIN ATOMIC CHARGES
----------------------
   0 S :    0.390881
   1 C :   -0.194630
   2 C :   -0.068284
   3 C :   -0.062546
   4 C :   -0.184096
   5 H :    0.039357
   6 C :   -0.029900
   7 H :    0.025766
   8 H :    0.029653
   9 C :   -0.033674
  10 H :    0.015653
  11 H :    0.016431
  12 C :   -0.055145
  13 H :    0.019465
  14 H :    0.037205
  15 H :    0.029981
  16 S :    0.410773
  17 C :   -0.192801
  18 C :   -0.073486
  19 C :   -0.055331
  20 C :   -0.200911
  21 H :    0.038581
  22 C :   -0.024543
  23 H :    0.019025
  24 H :    0.028150
  25 C :   -0.041791
  26 H :    0.031164
  27 H :    0.017564
  28 C :   -0.069318
  29 H :    0.031859
  30 H :    0.018485
  31 H :    0.027443
  32 H :    0.032974
  33 H :    0.026043

  Mayer bond orders larger than 0.100000
B(  0-S ,  1-C ) :   1.1181 B(  0-S ,  4-C ) :   1.1662 B(  1-C ,  2-C ) :   1.5992
B(  1-C ,  4-C ) :   0.1009 B(  1-C , 32-H ) :   0.9713 B(  2-C ,  3-C ) :   1.2670
B(  2-C ,  6-C ) :   1.0216 B(  3-C ,  4-C ) :   1.5307 B(  3-C ,  5-H ) :   0.9836
B(  4-C , 20-C ) :   1.0318 B(  6-C ,  7-H ) :   0.9363 B(  6-C ,  8-H ) :   0.9387
B(  6-C ,  9-C ) :   1.0724 B(  9-C , 10-H ) :   0.9442 B(  9-C , 11-H ) :   0.9469
B(  9-C , 12-C ) :   1.0901 B( 12-C , 13-H ) :   0.9562 B( 12-C , 14-H ) :   0.9715
B( 12-C , 15-H ) :   0.9548 B( 16-S , 17-C ) :   1.1424 B( 16-S , 20-C ) :   1.1699
B( 17-C , 18-C ) :   1.6312 B( 17-C , 20-C ) :   0.1001 B( 17-C , 33-H ) :   0.9630
B( 18-C , 19-C ) :   1.2562 B( 18-C , 21-H ) :   0.9860 B( 19-C , 20-C ) :   1.5541
B( 19-C , 22-C ) :   1.0389 B( 22-C , 23-H ) :   0.9323 B( 22-C , 24-H ) :   0.9322
B( 22-C , 25-C ) :   1.0423 B( 25-C , 26-H ) :   0.9553 B( 25-C , 27-H ) :   0.9650
B( 25-C , 28-C ) :   1.0810 B( 28-C , 29-H ) :   0.9757 B( 28-C , 30-H ) :   0.9735
B( 28-C , 31-H ) :   0.9741

Dispersion correction           -0.014526198
FINAL SINGLE POINT ENERGY     -1339.841860322614

DIPOLE MOMENT
-------------
                                X             Y             Z
Electronic contribution:    -17.50557       9.49410       9.11770
Nuclear contribution   :     17.93982      -9.68842      -9.49341
                        -----------------------------------------
Total Dipole Moment    :      0.43425      -0.19431      -0.37571
                        -----------------------------------------
Magnitude (a.u.)       :      0.60621
Magnitude (Debye)      :      1.54086

Rotational constants in cm-1:     0.017255     0.009149     0.007613
Rotational constants in MHz :   517.284284   274.279677   228.246798

                             ****ORCA TERMINATED NORMALLY****
TOTAL RUN TIME: 0 days 0 hours 0 minutes 22 seconds 193 msec
