                         Program Version 4.2.1 -  RELEASE  -
|  1> ! wB97X-D3 SP def2-SVP
|  2> %pal
|  3> nprocs 24
|  4> end
|  5>
|  6> * xyz 0 1
|  7> S 	 -33.1009 	 5.73138 	 5.27857
|  8> C 	 -33.814 	 4.16255 	 5.19417
|  9> C 	 -33.2169 	 3.29214 	 6.01515
| 10> C 	 -32.1875 	 3.94846 	 6.82753
| 11> C 	 -32.0535 	 5.29277 	 6.59268
| 12> H 	 -31.5375 	 3.52664 	 7.58314
| 13> C 	 -33.6304 	 1.82614 	 6.06771
| 14> H 	 -34.603 	 1.6956 	 5.61163
| 15> H 	 -33.8292 	 1.53106 	 7.08557
| 16> C 	 -32.5924 	 0.876146 	 5.45135
| 17> H 	 -32.42 	 1.06544 	 4.3902
| 18> H 	 -31.6606 	 1.17972 	 5.87555
| 19> C 	 -32.7193 	 -0.578473 	 5.7375
| 20> H 	 -33.6753 	 -0.998584 	 5.43959
| 21> H 	 -31.9863 	 -1.18593 	 5.2947
| 22> H 	 -32.5975 	 -0.794381 	 6.798
| 23> S 	 -31.7313 	 7.55632 	 8.35062
| 24> C 	 -30.1046 	 7.8136 	 8.82191
| 25> C 	 -29.1952 	 7.00913 	 8.14361
| 26> C 	 -29.8321 	 6.04348 	 7.33689
| 27> C 	 -31.155 	 6.20472 	 7.29904
| 28> H 	 -28.0964 	 7.25631 	 8.20209
| 29> C 	 -29.0101 	 5.03249 	 6.54532
| 30> H 	 -29.3953 	 4.06099 	 6.49908
| 31> H 	 -28.1597 	 4.75715 	 7.16425
| 32> C 	 -28.5341 	 5.47171 	 5.22492
| 33> H 	 -27.7196 	 4.81767 	 4.76807
| 34> H 	 -28.1157 	 6.4538 	 5.24637
| 35> C 	 -29.6473 	 5.59315 	 4.1415
| 36> H 	 -30.2009 	 6.52228 	 4.34646
| 37> H 	 -30.3686 	 4.72611 	 4.06127
| 38> H 	 -29.2231 	 5.71275 	 3.14875
| 39> H 	 -34.5802 	 3.92733 	 4.56801
| 40> H 	 -29.751 	 8.56643 	 9.48362
| 41> *
| 42>
| 43>                          ****END OF INPUT****

CARTESIAN COORDINATES (ANGSTROEM)
---------------------------------
  S    -33.100900    5.731380    5.278570
  C    -33.814000    4.162550    5.194170
  C    -33.216900    3.292140    6.015150
  C    -32.187500    3.948460    6.827530
  C    -32.053500    5.292770    6.592680
  H    -31.537500    3.526640    7.583140
  C    -33.630400    1.826140    6.067710
  H    -34.603000    1.695600    5.611630
  H    -33.829200    1.531060    7.085570
  C    -32.592400    0.876146    5.451350
  H    -32.420000    1.065440    4.390200
  H    -31.660600    1.179720    5.875550
  C    -32.719300   -0.578473    5.737500
  H    -33.675300   -0.998584    5.439590
  H    -31.986300   -1.185930    5.294700
  H    -32.597500   -0.794381    6.798000
  S    -31.731300    7.556320    8.350620
  C    -30.104600    7.813600    8.821910
  C    -29.195200    7.009130    8.143610
  C    -29.832100    6.043480    7.336890
  C    -31.155000    6.204720    7.299040
  H    -28.096400    7.256310    8.202090
  C    -29.010100    5.032490    6.545320
  H    -29.395300    4.060990    6.499080
  H    -28.159700    4.757150    7.164250
  C    -28.534100    5.471710    5.224920
  H    -27.719600    4.817670    4.768070
  H    -28.115700    6.453800    5.246370
  C    -29.647300    5.593150    4.141500
  H    -30.200900    6.522280    4.346460
  H    -30.368600    4.726110    4.061270
  H    -29.223100    5.712750    3.148750
  H    -34.580200    3.927330    4.568010
  H    -29.751000    8.566430    9.483620

 Total Charge           Charge          ....    0
 Multiplicity           Mult            ....    1
 Number of Electrons    NEL             ....  134
 Basis Dimension        Dim             ....  322

ORBITAL ENERGIES
----------------

  NO   OCC          E(Eh)            E(eV)
   0   2.0000     -88.970496     -2421.0103
   1   2.0000     -88.958900     -2420.6947
   2   2.0000     -10.324168      -280.9349
   3   2.0000     -10.323592      -280.9192
   4   2.0000     -10.315907      -280.7101
   5   2.0000     -10.301024      -280.3051
   6   2.0000     -10.299040      -280.2511
   7   2.0000     -10.298990      -280.2498
   8   2.0000     -10.295588      -280.1572
   9   2.0000     -10.293602      -280.1032
  10   2.0000     -10.290562      -280.0204
  11   2.0000     -10.283760      -279.8353
  12   2.0000     -10.282977      -279.8140
  13   2.0000     -10.280214      -279.7388
  14   2.0000     -10.271993      -279.5151
  15   2.0000     -10.270961      -279.4871
  16   2.0000      -8.084964      -220.0031
  17   2.0000      -8.074461      -219.7173
  18   2.0000      -6.043397      -164.4492
  19   2.0000      -6.039700      -164.3486
  20   2.0000      -6.035624      -164.2377
  21   2.0000      -6.032924      -164.1642
  22   2.0000      -6.028879      -164.0542
  23   2.0000      -6.025181      -163.9535
  24   2.0000      -1.010952       -27.5094
  25   2.0000      -0.990344       -26.9486
  26   2.0000      -0.915719       -24.9180
  27   2.0000      -0.912937       -24.8423
  28   2.0000      -0.874851       -23.8059
  29   2.0000      -0.851565       -23.1723
  30   2.0000      -0.843966       -22.9655
  31   2.0000      -0.814478       -22.1631
  32   2.0000      -0.789382       -21.4802
  33   2.0000      -0.778267       -21.1777
  34   2.0000      -0.708916       -19.2906
  35   2.0000      -0.699744       -19.0410
  36   2.0000      -0.692221       -18.8363
  37   2.0000      -0.657270       -17.8852
  38   2.0000      -0.652091       -17.7443
  39   2.0000      -0.618271       -16.8240
  40   2.0000      -0.605477       -16.4759
  41   2.0000      -0.572327       -15.5738
  42   2.0000      -0.559750       -15.2316
  43   2.0000      -0.552659       -15.0386
  44   2.0000      -0.536600       -14.6016
  45   2.0000      -0.525213       -14.2918
  46   2.0000      -0.518643       -14.1130
  47   2.0000      -0.511083       -13.9073
  48   2.0000      -0.504840       -13.7374
  49   2.0000      -0.501922       -13.6580
  50   2.0000      -0.496059       -13.4985
  51   2.0000      -0.478162       -13.0114
  52   2.0000      -0.472160       -12.8481
  53   2.0000      -0.469981       -12.7888
  54   2.0000      -0.462027       -12.5724
  55   2.0000      -0.449098       -12.2206
  56   2.0000      -0.443519       -12.0688
  57   2.0000      -0.438991       -11.9456
  58   2.0000      -0.432260       -11.7624
  59   2.0000      -0.419881       -11.4255
  60   2.0000      -0.414683       -11.2841
  61   2.0000      -0.413607       -11.2548
  62   2.0000      -0.405453       -11.0329
  63   2.0000      -0.344811        -9.3828
  64   2.0000      -0.337269        -9.1775
  65   2.0000      -0.325027        -8.8444
  66   2.0000      -0.303194        -8.2503
  67   0.0000       0.039816         1.0834
  68   0.0000       0.067767         1.8440
  69   0.0000       0.118139         3.2147
  70   0.0000       0.124246         3.3809
  71   0.0000       0.129609         3.5269

MULLIKEN ATOMIC CHARGES
-----------------------
   0 S :    0.100365
   1 C :   -0.081791
   2 C :   -0.082591
   3 C :    0.038243
   4 C :   -0.180831
   5 H :    0.010939
   6 C :    0.100491
   7 H :    0.008980
   8 H :    0.016318
   9 C :   -0.063378
  10 H :    0.023991
  11 H :    0.007651
  12 C :   -0.007754
  13 H :    0.021570
  14 H :    0.019370
  15 H :    0.020193
  16 S :    0.129289
  17 C :   -0.080348
  18 C :   -0.064604
  19 C :   -0.032367
  20 C :   -0.163244
  21 H :    0.042551
  22 C :    0.155797
  23 H :   -0.007293
  24 H :    0.006803
  25 C :   -0.066283
  26 H :    0.036242
  27 H :    0.014847
  28 C :   -0.077725
  29 H :    0.034767
  30 H :    0.043066
  31 H :    0.026306
  32 H :    0.005271
  33 H :    0.045157
Sum of atomic charges:   -0.0000000

LOEWDIN ATOMIC CHARGES
----------------------
   0 S :    0.413332
   1 C :   -0.180596
   2 C :   -0.061818
   3 C :   -0.059589
   4 C :   -0.192582
   5 H :    0.028583
   6 C :   -0.023812
   7 H :    0.026076
   8 H :    0.028250
   9 C :   -0.043754
  10 H :    0.025349
  11 H :    0.020401
  12 C :   -0.061762
  13 H :    0.022206
  14 H :    0.022521
  15 H :    0.025748
  16 S :    0.401353
  17 C :   -0.186026
  18 C :   -0.077767
  19 C :   -0.050584
  20 C :   -0.186481
  21 H :    0.042514
  22 C :   -0.031231
  23 H :    0.022990
  24 H :    0.034574
  25 C :   -0.040845
  26 H :    0.031199
  27 H :    0.020492
  28 C :   -0.074156
  29 H :    0.021817
  30 H :    0.026876
  31 H :    0.022192
  32 H :    0.009955
  33 H :    0.024576

  Mayer bond orders larger than 0.100000
B(  0-S ,  1-C ) :   1.1336 B(  0-S ,  4-C ) :   1.1429 B(  1-C ,  2-C ) :   1.6434
B(  1-C , 32-H ) :   0.9816 B(  2-C ,  3-C ) :   1.1966 B(  2-C ,  6-C ) :   1.0299
B(  3-C ,  4-C ) :   1.6195 B(  3-C ,  5-H ) :   0.9944 B(  4-C , 20-C ) :   1.0266
B(  6-C ,  7-H ) :   0.9372 B(  6-C ,  8-H ) :   0.9376 B(  6-C ,  9-C ) :   1.0546
B(  9-C , 10-H ) :   0.9520 B(  9-C , 11-H ) :   0.9542 B(  9-C , 12-C ) :   1.0957
B( 12-C , 13-H ) :   0.9731 B( 12-C , 14-H ) :   0.9688 B( 12-C , 15-H ) :   0.9702
B( 16-S , 17-C ) :   1.1615 B( 16-S , 20-C ) :   1.1123 B( 17-C , 18-C ) :   1.6299
B( 17-C , 33-H ) :   0.9665 B( 18-C , 19-C ) :   1.2292 B( 18-C , 21-H ) :   0.9792
B( 19-C , 20-C ) :   1.6461 B( 19-C , 22-C ) :   1.0293 B( 22-C , 23-H ) :   0.9184
B( 22-C , 24-H ) :   0.9155 B( 22-C , 25-C ) :   1.0892 B( 25-C , 26-H ) :   0.9542
B( 25-C , 27-H ) :   0.9515 B( 25-C , 28-C ) :   1.0764 B( 28-C , 29-H ) :   0.9748
B( 28-C , 30-H ) :   0.9751 B( 28-C , 31-H ) :   0.9737

Dispersion correction           -0.015771588
FINAL SINGLE POINT ENERGY     -1339.879095912132

DIPOLE MOMENT
-------------
                                X             Y             Z
Electronic contribution:     -8.80979      23.89839      10.04879
Nuclear contribution   :      9.23442     -24.36962     -10.03400
                        -----------------------------------------
Total Dipole Moment    :      0.42463      -0.47123       0.01479
                        -----------------------------------------
Magnitude (a.u.)       :      0.63450
Magnitude (Debye)      :      1.61277

Rotational constants in cm-1:     0.021143     0.008332     0.007539
Rotational constants in MHz :   633.848158   249.789052   226.019829

                             ****ORCA TERMINATED NORMALLY****
TOTAL RUN TIME: 0 days 0 hours 0 minutes 22 seconds 677 msec
