                         Program Version 4.2.1 -  RELEASE  -
|  1> ! wB97X-D3 SP def2-SVP
|  2> %pal
|  3> nprocs 24
|  4> end
|  5>
|  6> * xyz 0 1
|  7> S 	 -35.2661 	 -10.7246 	 5.57436
|  8> C 	 -34.0441 	 -10.3548 	 6.74367
|  9> C 	 -33.9985 	 -8.94452 	 6.97647
| 10> C 	 -34.98 	 -8.20721 	 6.24008
| 11> C 	 -35.7201 	 -9.04005 	 5.42647
| 12> H 	 -35.2179 	 -7.15909 	 6.21524
| 13> C 	 -33.0006 	 -8.24962 	 7.91707
| 14> H 	 -32.3024 	 -9.0221 	 8.15471
| 15> H 	 -33.3552 	 -7.97425 	 8.85089
| 16> C 	 -32.3298 	 -7.06598 	 7.21666
| 17> H 	 -33.0921 	 -6.3145 	 6.97759
| 18> H 	 -31.8081 	 -6.42545 	 7.97545
| 19> C 	 -31.5151 	 -7.38775 	 6.00904
| 20> H 	 -30.5606 	 -7.99321 	 6.19807
| 21> H 	 -32.0864 	 -8.09008 	 5.35837
| 22> H 	 -31.1665 	 -6.39673 	 5.63732
| 23> S 	 -36.8894 	 -9.57511 	 2.9176
| 24> C 	 -38.1204 	 -8.57967 	 2.34152
| 25> C 	 -38.2608 	 -7.50237 	 3.12834
| 26> C 	 -37.6505 	 -7.6496 	 4.40482
| 27> C 	 -36.8142 	 -8.74819 	 4.48239
| 28> H 	 -38.897 	 -6.62696 	 2.92088
| 29> C 	 -37.8557 	 -6.65115 	 5.47865
| 30> H 	 -37.5145 	 -7.07085 	 6.44675
| 31> H 	 -38.9238 	 -6.51454 	 5.55976
| 32> C 	 -37.3404 	 -5.23867 	 5.09746
| 33> H 	 -37.8702 	 -4.93741 	 4.16533
| 34> H 	 -36.2364 	 -5.20559 	 4.89651
| 35> C 	 -37.6551 	 -4.21053 	 6.17881
| 36> H 	 -37.5478 	 -3.23109 	 5.70101
| 37> H 	 -37.0564 	 -4.29994 	 7.06052
| 38> H 	 -38.6787 	 -4.15656 	 6.40533
| 39> H 	 -33.4058 	 -11.1082 	 7.04195
| 40> H 	 -38.582 	 -8.72564 	 1.31165
| 41> *
| 42>
| 43>                          ****END OF INPUT****

CARTESIAN COORDINATES (ANGSTROEM)
---------------------------------
  S    -35.266100  -10.724600    5.574360
  C    -34.044100  -10.354800    6.743670
  C    -33.998500   -8.944520    6.976470
  C    -34.980000   -8.207210    6.240080
  C    -35.720100   -9.040050    5.426470
  H    -35.217900   -7.159090    6.215240
  C    -33.000600   -8.249620    7.917070
  H    -32.302400   -9.022100    8.154710
  H    -33.355200   -7.974250    8.850890
  C    -32.329800   -7.065980    7.216660
  H    -33.092100   -6.314500    6.977590
  H    -31.808100   -6.425450    7.975450
  C    -31.515100   -7.387750    6.009040
  H    -30.560600   -7.993210    6.198070
  H    -32.086400   -8.090080    5.358370
  H    -31.166500   -6.396730    5.637320
  S    -36.889400   -9.575110    2.917600
  C    -38.120400   -8.579670    2.341520
  C    -38.260800   -7.502370    3.128340
  C    -37.650500   -7.649600    4.404820
  C    -36.814200   -8.748190    4.482390
  H    -38.897000   -6.626960    2.920880
  C    -37.855700   -6.651150    5.478650
  H    -37.514500   -7.070850    6.446750
  H    -38.923800   -6.514540    5.559760
  C    -37.340400   -5.238670    5.097460
  H    -37.870200   -4.937410    4.165330
  H    -36.236400   -5.205590    4.896510
  C    -37.655100   -4.210530    6.178810
  H    -37.547800   -3.231090    5.701010
  H    -37.056400   -4.299940    7.060520
  H    -38.678700   -4.156560    6.405330
  H    -33.405800  -11.108200    7.041950
  H    -38.582000   -8.725640    1.311650

 Total Charge           Charge          ....    0
 Multiplicity           Mult            ....    1
 Number of Electrons    NEL             ....  134
 Basis Dimension        Dim             ....  322

ORBITAL ENERGIES
----------------

  NO   OCC          E(Eh)            E(eV)
   0   2.0000     -88.964040     -2420.8346
   1   2.0000     -88.960390     -2420.7353
   2   2.0000     -10.331206      -281.1264
   3   2.0000     -10.323961      -280.9293
   4   2.0000     -10.316563      -280.7279
   5   2.0000     -10.313678      -280.6494
   6   2.0000     -10.310118      -280.5526
   7   2.0000     -10.297281      -280.2033
   8   2.0000     -10.296591      -280.1845
   9   2.0000     -10.295472      -280.1540
  10   2.0000     -10.290388      -280.0157
  11   2.0000     -10.289654      -279.9957
  12   2.0000     -10.285780      -279.8903
  13   2.0000     -10.283479      -279.8277
  14   2.0000     -10.282577      -279.8032
  15   2.0000     -10.274215      -279.5756
  16   2.0000      -8.079311      -219.8492
  17   2.0000      -8.076496      -219.7726
  18   2.0000      -6.037589      -164.2911
  19   2.0000      -6.034997      -164.2206
  20   2.0000      -6.033702      -164.1854
  21   2.0000      -6.030862      -164.1081
  22   2.0000      -6.030332      -164.0937
  23   2.0000      -6.027096      -164.0056
  24   2.0000      -1.012185       -27.5429
  25   2.0000      -0.988275       -26.8923
  26   2.0000      -0.915985       -24.9252
  27   2.0000      -0.913467       -24.8567
  28   2.0000      -0.869768       -23.6676
  29   2.0000      -0.855993       -23.2928
  30   2.0000      -0.845712       -23.0130
  31   2.0000      -0.816719       -22.2241
  32   2.0000      -0.785749       -21.3813
  33   2.0000      -0.772190       -21.0124
  34   2.0000      -0.706116       -19.2144
  35   2.0000      -0.698838       -19.0163
  36   2.0000      -0.691540       -18.8178
  37   2.0000      -0.658968       -17.9314
  38   2.0000      -0.647154       -17.6100
  39   2.0000      -0.623733       -16.9726
  40   2.0000      -0.601522       -16.3682
  41   2.0000      -0.571620       -15.5546
  42   2.0000      -0.566782       -15.4229
  43   2.0000      -0.553871       -15.0716
  44   2.0000      -0.534440       -14.5429
  45   2.0000      -0.528245       -14.3743
  46   2.0000      -0.520598       -14.1662
  47   2.0000      -0.513978       -13.9860
  48   2.0000      -0.504722       -13.7342
  49   2.0000      -0.502173       -13.6648
  50   2.0000      -0.491627       -13.3778
  51   2.0000      -0.486039       -13.2258
  52   2.0000      -0.470066       -12.7912
  53   2.0000      -0.466315       -12.6891
  54   2.0000      -0.457984       -12.4624
  55   2.0000      -0.455466       -12.3939
  56   2.0000      -0.444980       -12.1085
  57   2.0000      -0.438258       -11.9256
  58   2.0000      -0.433805       -11.8044
  59   2.0000      -0.427542       -11.6340
  60   2.0000      -0.424162       -11.5420
  61   2.0000      -0.412718       -11.2306
  62   2.0000      -0.398112       -10.8332
  63   2.0000      -0.355447        -9.6722
  64   2.0000      -0.332454        -9.0465
  65   2.0000      -0.325772        -8.8647
  66   2.0000      -0.286216        -7.7883
  67   0.0000       0.025830         0.7029
  68   0.0000       0.082006         2.2315
  69   0.0000       0.110529         3.0077
  70   0.0000       0.117670         3.2020
  71   0.0000       0.124497         3.3877

MULLIKEN ATOMIC CHARGES
-----------------------
   0 S :    0.100363
   1 C :   -0.090262
   2 C :   -0.126134
   3 C :    0.033146
   4 C :   -0.165160
   5 H :    0.002750
   6 C :    0.159266
   7 H :   -0.002553
   8 H :    0.016930
   9 C :   -0.111754
  10 H :    0.020390
  11 H :    0.019342
  12 C :   -0.059636
  13 H :    0.032756
  14 H :    0.058211
  15 H :    0.043489
  16 S :    0.091557
  17 C :   -0.096234
  18 C :   -0.037379
  19 C :   -0.077118
  20 C :   -0.078913
  21 H :    0.023854
  22 C :    0.051757
  23 H :    0.034981
  24 H :    0.018581
  25 C :   -0.128601
  26 H :    0.031420
  27 H :    0.044035
  28 C :    0.006455
  29 H :    0.023769
  30 H :    0.036892
  31 H :    0.009884
  32 H :    0.028437
  33 H :    0.085479
Sum of atomic charges:   -0.0000000

LOEWDIN ATOMIC CHARGES
----------------------
   0 S :    0.415353
   1 C :   -0.196903
   2 C :   -0.052529
   3 C :   -0.068004
   4 C :   -0.178575
   5 H :    0.032182
   6 C :   -0.023953
   7 H :    0.025714
   8 H :    0.022690
   9 C :   -0.054396
  10 H :    0.022054
  11 H :    0.026199
  12 C :   -0.074778
  13 H :    0.029739
  14 H :    0.034918
  15 H :    0.034116
  16 S :    0.413198
  17 C :   -0.204974
  18 C :   -0.081955
  19 C :   -0.058921
  20 C :   -0.202348
  21 H :    0.032263
  22 C :   -0.039496
  23 H :    0.032762
  24 H :    0.031829
  25 C :   -0.039099
  26 H :    0.027389
  27 H :    0.026620
  28 C :   -0.061986
  29 H :    0.031177
  30 H :    0.023202
  31 H :    0.018003
  32 H :    0.010798
  33 H :    0.047708

  Mayer bond orders larger than 0.100000
B(  0-S ,  1-C ) :   1.1523 B(  0-S ,  4-C ) :   1.1729 B(  1-C ,  2-C ) :   1.5692
B(  1-C ,  4-C ) :   0.1059 B(  1-C , 32-H ) :   0.9837 B(  2-C ,  3-C ) :   1.2281
B(  2-C ,  6-C ) :   1.0169 B(  3-C ,  4-C ) :   1.5761 B(  3-C ,  5-H ) :   0.9914
B(  4-C , 20-C ) :   1.0263 B(  6-C ,  7-H ) :   0.9357 B(  6-C ,  8-H ) :   0.9355
B(  6-C ,  9-C ) :   1.0768 B(  9-C , 10-H ) :   0.9492 B(  9-C , 11-H ) :   0.9487
B(  9-C , 12-C ) :   1.0751 B( 12-C , 13-H ) :   0.9721 B( 12-C , 14-H ) :   0.9695
B( 12-C , 15-H ) :   0.9697 B( 16-S , 17-C ) :   1.1714 B( 16-S , 20-C ) :   1.1236
B( 17-C , 18-C ) :   1.5872 B( 17-C , 33-H ) :   0.9575 B( 18-C , 19-C ) :   1.2608
B( 18-C , 21-H ) :   0.9847 B( 19-C , 20-C ) :   1.5973 B( 19-C , 22-C ) :   1.0564
B( 22-C , 23-H ) :   0.9422 B( 22-C , 24-H ) :   0.9189 B( 22-C , 25-C ) :   1.0561
B( 25-C , 26-H ) :   0.9501 B( 25-C , 27-H ) :   0.9554 B( 25-C , 28-C ) :   1.0928
B( 28-C , 29-H ) :   0.9697 B( 28-C , 30-H ) :   0.9755 B( 28-C , 31-H ) :   0.9676

Dispersion correction           -0.014533509
FINAL SINGLE POINT ENERGY     -1339.873801483851

DIPOLE MOMENT
-------------
                                X             Y             Z
Electronic contribution:     -8.47389     -25.08296     -11.63152
Nuclear contribution   :      8.45723      25.82311      11.81531
                        -----------------------------------------
Total Dipole Moment    :     -0.01665       0.74015       0.18379
                        -----------------------------------------
Magnitude (a.u.)       :      0.76281
Magnitude (Debye)      :      1.93890

Rotational constants in cm-1:     0.016580     0.010199     0.007218
Rotational constants in MHz :   497.064203   305.751056   216.396843

                             ****ORCA TERMINATED NORMALLY****
TOTAL RUN TIME: 0 days 0 hours 0 minutes 22 seconds 280 msec
