                         Program Version 4.2.1 -  RELEASE  -
|  1> ! wB97X-D3 SP def2-SVP
|  2> %pal
|  3> nprocs 24
|  4> end
|  5>
|  6> * xyz 0 1
|  7> S 	 -125.544 	 54.1655 	 -31.9959
|  8> C 	 -124.734 	 53.281 	 -30.6973
|  9> C 	 -123.388 	 53.2423 	 -30.8322
| 10> C 	 -122.915 	 53.9929 	 -31.9806
| 11> C 	 -123.974 	 54.5279 	 -32.636
| 12> H 	 -121.901 	 54.2845 	 -32.2924
| 13> C 	 -122.567 	 52.5491 	 -29.7733
| 14> H 	 -121.934 	 51.7717 	 -30.2213
| 15> H 	 -123.197 	 52.0732 	 -29.0338
| 16> C 	 -121.582 	 53.5133 	 -29.0576
| 17> H 	 -120.874 	 53.9993 	 -29.6493
| 18> H 	 -122.226 	 54.3152 	 -28.6701
| 19> C 	 -120.69 	 52.8621 	 -27.9793
| 20> H 	 -120.006 	 53.6853 	 -27.6407
| 21> H 	 -121.308 	 52.5134 	 -27.0576
| 22> H 	 -120.179 	 51.9601 	 -28.2785
| 23> S 	 -124.546 	 55.0734 	 -35.283
| 24> C 	 -123.653 	 56.2445 	 -36.1471
| 25> C 	 -122.673 	 56.7838 	 -35.3522
| 26> C 	 -122.862 	 56.4683 	 -33.933
| 27> C 	 -123.722 	 55.3927 	 -33.754
| 28> H 	 -121.982 	 57.4441 	 -35.7907
| 29> C 	 -121.943 	 57.1641 	 -32.8573
| 30> H 	 -122.257 	 56.7018 	 -31.912
| 31> H 	 -122.082 	 58.2601 	 -32.7875
| 32> C 	 -120.368 	 57.0983 	 -33.0164
| 33> H 	 -120.033 	 57.7654 	 -33.8173
| 34> H 	 -120.03 	 56.1109 	 -33.3167
| 35> C 	 -119.614 	 57.6107 	 -31.7436
| 36> H 	 -118.495 	 57.5508 	 -31.9393
| 37> H 	 -119.802 	 57.0776 	 -30.7908
| 38> H 	 -119.76 	 58.7081 	 -31.5074
| 39> H 	 -125.229 	 52.8437 	 -29.8162
| 40> H 	 -123.54 	 56.3553 	 -37.2552
| 41> *
| 42>
| 43>                          ****END OF INPUT****

CARTESIAN COORDINATES (ANGSTROEM)
---------------------------------
  S    -125.544000   54.165500  -31.995900
  C    -124.734000   53.281000  -30.697300
  C    -123.388000   53.242300  -30.832200
  C    -122.915000   53.992900  -31.980600
  C    -123.974000   54.527900  -32.636000
  H    -121.901000   54.284500  -32.292400
  C    -122.567000   52.549100  -29.773300
  H    -121.934000   51.771700  -30.221300
  H    -123.197000   52.073200  -29.033800
  C    -121.582000   53.513300  -29.057600
  H    -120.874000   53.999300  -29.649300
  H    -122.226000   54.315200  -28.670100
  C    -120.690000   52.862100  -27.979300
  H    -120.006000   53.685300  -27.640700
  H    -121.308000   52.513400  -27.057600
  H    -120.179000   51.960100  -28.278500
  S    -124.546000   55.073400  -35.283000
  C    -123.653000   56.244500  -36.147100
  C    -122.673000   56.783800  -35.352200
  C    -122.862000   56.468300  -33.933000
  C    -123.722000   55.392700  -33.754000
  H    -121.982000   57.444100  -35.790700
  C    -121.943000   57.164100  -32.857300
  H    -122.257000   56.701800  -31.912000
  H    -122.082000   58.260100  -32.787500
  C    -120.368000   57.098300  -33.016400
  H    -120.033000   57.765400  -33.817300
  H    -120.030000   56.110900  -33.316700
  C    -119.614000   57.610700  -31.743600
  H    -118.495000   57.550800  -31.939300
  H    -119.802000   57.077600  -30.790800
  H    -119.760000   58.708100  -31.507400
  H    -125.229000   52.843700  -29.816200
  H    -123.540000   56.355300  -37.255200

 Total Charge           Charge          ....    0
 Multiplicity           Mult            ....    1
 Number of Electrons    NEL             ....  134
 Basis Dimension        Dim             ....  322

ORBITAL ENERGIES
----------------

  NO   OCC          E(Eh)            E(eV)
   0   2.0000     -88.970014     -2420.9972
   1   2.0000     -88.961331     -2420.7609
   2   2.0000     -10.327340      -281.0212
   3   2.0000     -10.326050      -280.9861
   4   2.0000     -10.313949      -280.6568
   5   2.0000     -10.313425      -280.6426
   6   2.0000     -10.310399      -280.5602
   7   2.0000     -10.301839      -280.3273
   8   2.0000     -10.300651      -280.2950
   9   2.0000     -10.298270      -280.2302
  10   2.0000     -10.297418      -280.2070
  11   2.0000     -10.294208      -280.1196
  12   2.0000     -10.293944      -280.1125
  13   2.0000     -10.289549      -279.9929
  14   2.0000     -10.289527      -279.9923
  15   2.0000     -10.284698      -279.8609
  16   2.0000      -8.084834      -219.9995
  17   2.0000      -8.076827      -219.7816
  18   2.0000      -6.043352      -164.4480
  19   2.0000      -6.039572      -164.3451
  20   2.0000      -6.035390      -164.2313
  21   2.0000      -6.035332      -164.2297
  22   2.0000      -6.031151      -164.1160
  23   2.0000      -6.027549      -164.0180
  24   2.0000      -1.011984       -27.5375
  25   2.0000      -0.986331       -26.8394
  26   2.0000      -0.912975       -24.8433
  27   2.0000      -0.896501       -24.3950
  28   2.0000      -0.875181       -23.8149
  29   2.0000      -0.852705       -23.2033
  30   2.0000      -0.840958       -22.8836
  31   2.0000      -0.817717       -22.2512
  32   2.0000      -0.779695       -21.2166
  33   2.0000      -0.768821       -20.9207
  34   2.0000      -0.710639       -19.3375
  35   2.0000      -0.698297       -19.0016
  36   2.0000      -0.692467       -18.8430
  37   2.0000      -0.658688       -17.9238
  38   2.0000      -0.640423       -17.4268
  39   2.0000      -0.619040       -16.8449
  40   2.0000      -0.589992       -16.0545
  41   2.0000      -0.571898       -15.5621
  42   2.0000      -0.563919       -15.3450
  43   2.0000      -0.558213       -15.1897
  44   2.0000      -0.529279       -14.4024
  45   2.0000      -0.520721       -14.1695
  46   2.0000      -0.513641       -13.9769
  47   2.0000      -0.508269       -13.8307
  48   2.0000      -0.505187       -13.7468
  49   2.0000      -0.496249       -13.5036
  50   2.0000      -0.486804       -13.2466
  51   2.0000      -0.482851       -13.1391
  52   2.0000      -0.471153       -12.8207
  53   2.0000      -0.467256       -12.7147
  54   2.0000      -0.463661       -12.6169
  55   2.0000      -0.453331       -12.3358
  56   2.0000      -0.442475       -12.0403
  57   2.0000      -0.438762       -11.9393
  58   2.0000      -0.429897       -11.6981
  59   2.0000      -0.425084       -11.5671
  60   2.0000      -0.423564       -11.5257
  61   2.0000      -0.417884       -11.3712
  62   2.0000      -0.413674       -11.2566
  63   2.0000      -0.349809        -9.5188
  64   2.0000      -0.334291        -9.0965
  65   2.0000      -0.325468        -8.8564
  66   2.0000      -0.296532        -8.0690
  67   0.0000       0.035047         0.9537
  68   0.0000       0.071628         1.9491
  69   0.0000       0.110993         3.0203
  70   0.0000       0.117437         3.1956
  71   0.0000       0.123676         3.3654

MULLIKEN ATOMIC CHARGES
-----------------------
   0 S :    0.126279
   1 C :   -0.136406
   2 C :   -0.059165
   3 C :    0.007653
   4 C :   -0.131501
   5 H :    0.028122
   6 C :    0.095928
   7 H :    0.028454
   8 H :    0.014431
   9 C :   -0.090926
  10 H :    0.018587
  11 H :    0.031362
  12 C :   -0.081054
  13 H :    0.048579
  14 H :    0.035525
  15 H :    0.036888
  16 S :    0.101099
  17 C :   -0.091972
  18 C :   -0.043243
  19 C :   -0.031637
  20 C :   -0.161894
  21 H :    0.007191
  22 C :    0.037985
  23 H :    0.031449
  24 H :    0.038030
  25 C :   -0.068439
  26 H :    0.033621
  27 H :    0.030618
  28 C :   -0.112806
  29 H :    0.044349
  30 H :    0.043025
  31 H :    0.041828
  32 H :    0.052143
  33 H :    0.075897
Sum of atomic charges:   -0.0000000

LOEWDIN ATOMIC CHARGES
----------------------
   0 S :    0.399777
   1 C :   -0.193278
   2 C :   -0.059354
   3 C :   -0.054233
   4 C :   -0.195829
   5 H :    0.040628
   6 C :   -0.026323
   7 H :    0.031247
   8 H :    0.027642
   9 C :   -0.043173
  10 H :    0.014012
  11 H :    0.027032
  12 C :   -0.072736
  13 H :    0.034642
  14 H :    0.029888
  15 H :    0.021711
  16 S :    0.407321
  17 C :   -0.210275
  18 C :   -0.069341
  19 C :   -0.056746
  20 C :   -0.190438
  21 H :    0.021401
  22 C :   -0.035611
  23 H :    0.026785
  24 H :    0.035739
  25 C :   -0.041419
  26 H :    0.025959
  27 H :    0.018662
  28 C :   -0.080879
  29 H :    0.034264
  30 H :    0.024376
  31 H :    0.030481
  32 H :    0.033279
  33 H :    0.044790

  Mayer bond orders larger than 0.100000
B(  0-S ,  1-C ) :   1.1020 B(  0-S ,  4-C ) :   1.1409 B(  1-C ,  2-C ) :   1.6716
B(  1-C , 32-H ) :   0.9624 B(  2-C ,  3-C ) :   1.1672 B(  2-C ,  6-C ) :   1.0403
B(  3-C ,  4-C ) :   1.6016 B(  3-C ,  5-H ) :   0.9985 B(  4-C , 20-C ) :   1.0411
B(  6-C ,  7-H ) :   0.9300 B(  6-C ,  8-H ) :   0.9435 B(  6-C ,  9-C ) :   1.0529
B(  9-C , 10-H ) :   0.9587 B(  9-C , 11-H ) :   0.9562 B(  9-C , 12-C ) :   1.0776
B( 12-C , 13-H ) :   0.9759 B( 12-C , 14-H ) :   0.9753 B( 12-C , 15-H ) :   0.9742
B( 16-S , 17-C ) :   1.1515 B( 16-S , 20-C ) :   1.1303 B( 17-C , 18-C ) :   1.6492
B( 17-C , 33-H ) :   0.9559 B( 18-C , 19-C ) :   1.2017 B( 18-C , 21-H ) :   0.9922
B( 19-C , 20-C ) :   1.6124 B( 19-C , 22-C ) :   1.0427 B( 22-C , 23-H ) :   0.9452
B( 22-C , 24-H ) :   0.9383 B( 22-C , 25-C ) :   1.0478 B( 25-C , 26-H ) :   0.9512
B( 25-C , 27-H ) :   0.9612 B( 25-C , 28-C ) :   1.0723 B( 28-C , 29-H ) :   0.9744
B( 28-C , 30-H ) :   0.9779 B( 28-C , 31-H ) :   0.9747

Dispersion correction           -0.014161558
FINAL SINGLE POINT ENERGY     -1339.870904771747

DIPOLE MOMENT
-------------
                                X             Y             Z
Electronic contribution:    -27.63776      -3.93234     -20.62065
Nuclear contribution   :     28.41222       4.04915      20.96053
                        -----------------------------------------
Total Dipole Moment    :      0.77446       0.11680       0.33988
                        -----------------------------------------
Magnitude (a.u.)       :      0.85379
Magnitude (Debye)      :      2.17015

Rotational constants in cm-1:     0.016350     0.009693     0.006493
Rotational constants in MHz :   490.151098   290.603145   194.662365

                             ****ORCA TERMINATED NORMALLY****
TOTAL RUN TIME: 0 days 0 hours 0 minutes 20 seconds 366 msec
