                         Program Version 4.2.1 -  RELEASE  -
|  1> ! wB97X-D3 SP def2-SVP
|  2> %pal
|  3> nprocs 24
|  4> end
|  5>
|  6> * xyz 0 1
|  7> S 	 -137.513 	 9.03804 	 6.44285
|  8> C 	 -136.739 	 8.86779 	 4.87577
|  9> C 	 -137.699 	 8.79945 	 3.87783
| 10> C 	 -138.992 	 9.16136 	 4.35238
| 11> C 	 -139.057 	 9.38596 	 5.69065
| 12> H 	 -139.881 	 9.25274 	 3.73938
| 13> C 	 -137.479 	 8.43835 	 2.50666
| 14> H 	 -136.601 	 8.99636 	 2.21171
| 15> H 	 -138.416 	 8.6889 	 2.03268
| 16> C 	 -137.211 	 6.90828 	 2.30416
| 17> H 	 -136.451 	 6.5021 	 2.98891
| 18> H 	 -138.102 	 6.41812 	 2.62728
| 19> C 	 -136.856 	 6.49901 	 0.83305
| 20> H 	 -137.636 	 6.8401 	 0.152077
| 21> H 	 -135.933 	 6.99897 	 0.676352
| 22> H 	 -136.863 	 5.46302 	 0.715542
| 23> S 	 -140.806 	 7.98267 	 7.30224
| 24> C 	 -142.301 	 8.75398 	 7.90791
| 25> C 	 -142.455 	 9.95633 	 7.37399
| 26> C 	 -141.328 	 10.3442 	 6.54113
| 27> C 	 -140.327 	 9.43007 	 6.41408
| 28> H 	 -143.326 	 10.6079 	 7.57215
| 29> C 	 -141.335 	 11.7405 	 5.93553
| 30> H 	 -142.316 	 12.1224 	 5.80333
| 31> H 	 -140.961 	 11.705 	 4.88112
| 32> C 	 -140.56 	 12.761 	 6.77408
| 33> H 	 -139.478 	 12.7349 	 6.55671
| 34> H 	 -140.726 	 12.528 	 7.82053
| 35> C 	 -140.887 	 14.259 	 6.49583
| 36> H 	 -141.905 	 14.5569 	 6.73718
| 37> H 	 -140.58 	 14.6155 	 5.49956
| 38> H 	 -140.42 	 14.8445 	 7.37213
| 39> H 	 -135.677 	 8.73944 	 4.74608
| 40> H 	 -143.026 	 8.13318 	 8.45705
| 41> *
| 42>
| 43>                          ****END OF INPUT****

CARTESIAN COORDINATES (ANGSTROEM)
---------------------------------
  S    -137.513000    9.038040    6.442850
  C    -136.739000    8.867790    4.875770
  C    -137.699000    8.799450    3.877830
  C    -138.992000    9.161360    4.352380
  C    -139.057000    9.385960    5.690650
  H    -139.881000    9.252740    3.739380
  C    -137.479000    8.438350    2.506660
  H    -136.601000    8.996360    2.211710
  H    -138.416000    8.688900    2.032680
  C    -137.211000    6.908280    2.304160
  H    -136.451000    6.502100    2.988910
  H    -138.102000    6.418120    2.627280
  C    -136.856000    6.499010    0.833050
  H    -137.636000    6.840100    0.152077
  H    -135.933000    6.998970    0.676352
  H    -136.863000    5.463020    0.715542
  S    -140.806000    7.982670    7.302240
  C    -142.301000    8.753980    7.907910
  C    -142.455000    9.956330    7.373990
  C    -141.328000   10.344200    6.541130
  C    -140.327000    9.430070    6.414080
  H    -143.326000   10.607900    7.572150
  C    -141.335000   11.740500    5.935530
  H    -142.316000   12.122400    5.803330
  H    -140.961000   11.705000    4.881120
  C    -140.560000   12.761000    6.774080
  H    -139.478000   12.734900    6.556710
  H    -140.726000   12.528000    7.820530
  C    -140.887000   14.259000    6.495830
  H    -141.905000   14.556900    6.737180
  H    -140.580000   14.615500    5.499560
  H    -140.420000   14.844500    7.372130
  H    -135.677000    8.739440    4.746080
  H    -143.026000    8.133180    8.457050

 Total Charge           Charge          ....    0
 Multiplicity           Mult            ....    1
 Number of Electrons    NEL             ....  134
 Basis Dimension        Dim             ....  322

ORBITAL ENERGIES
----------------

  NO   OCC          E(Eh)            E(eV)
   0   2.0000     -88.966964     -2420.9142
   1   2.0000     -88.955972     -2420.6151
   2   2.0000     -10.326818      -281.0070
   3   2.0000     -10.325381      -280.9679
   4   2.0000     -10.317146      -280.7438
   5   2.0000     -10.314719      -280.6778
   6   2.0000     -10.300255      -280.2842
   7   2.0000     -10.295517      -280.1553
   8   2.0000     -10.293635      -280.1041
   9   2.0000     -10.291345      -280.0417
  10   2.0000     -10.286710      -279.9156
  11   2.0000     -10.286649      -279.9139
  12   2.0000     -10.285360      -279.8789
  13   2.0000     -10.283363      -279.8245
  14   2.0000     -10.282997      -279.8146
  15   2.0000     -10.273983      -279.5693
  16   2.0000      -8.081452      -219.9075
  17   2.0000      -8.070729      -219.6157
  18   2.0000      -6.040012      -164.3571
  19   2.0000      -6.036027      -164.2486
  20   2.0000      -6.032138      -164.1428
  21   2.0000      -6.029408      -164.0685
  22   2.0000      -6.025293      -163.9566
  23   2.0000      -6.021227      -163.8459
  24   2.0000      -1.008710       -27.4484
  25   2.0000      -0.986310       -26.8389
  26   2.0000      -0.917353       -24.9625
  27   2.0000      -0.901099       -24.5201
  28   2.0000      -0.872207       -23.7340
  29   2.0000      -0.853477       -23.2243
  30   2.0000      -0.839149       -22.8344
  31   2.0000      -0.821076       -22.3426
  32   2.0000      -0.779963       -21.2239
  33   2.0000      -0.768361       -20.9082
  34   2.0000      -0.708079       -19.2678
  35   2.0000      -0.703833       -19.1523
  36   2.0000      -0.688701       -18.7405
  37   2.0000      -0.661902       -18.0113
  38   2.0000      -0.644989       -17.5510
  39   2.0000      -0.620189       -16.8762
  40   2.0000      -0.596940       -16.2436
  41   2.0000      -0.571792       -15.5592
  42   2.0000      -0.565832       -15.3971
  43   2.0000      -0.557580       -15.1725
  44   2.0000      -0.532029       -14.4772
  45   2.0000      -0.523970       -14.2580
  46   2.0000      -0.521241       -14.1837
  47   2.0000      -0.514125       -13.9901
  48   2.0000      -0.508179       -13.8283
  49   2.0000      -0.503517       -13.7014
  50   2.0000      -0.494953       -13.4684
  51   2.0000      -0.472644       -12.8613
  52   2.0000      -0.470803       -12.8112
  53   2.0000      -0.461912       -12.5693
  54   2.0000      -0.456471       -12.4212
  55   2.0000      -0.448430       -12.2024
  56   2.0000      -0.441213       -12.0060
  57   2.0000      -0.435226       -11.8431
  58   2.0000      -0.425876       -11.5887
  59   2.0000      -0.425015       -11.5653
  60   2.0000      -0.422768       -11.5041
  61   2.0000      -0.411853       -11.2071
  62   2.0000      -0.408789       -11.1237
  63   2.0000      -0.348030        -9.4704
  64   2.0000      -0.326078        -8.8730
  65   2.0000      -0.324530        -8.8309
  66   2.0000      -0.301133        -8.1943
  67   0.0000       0.038263         1.0412
  68   0.0000       0.060408         1.6438
  69   0.0000       0.115953         3.1552
  70   0.0000       0.122845         3.3428
  71   0.0000       0.127204         3.4614

MULLIKEN ATOMIC CHARGES
-----------------------
   0 S :    0.111296
   1 C :   -0.118250
   2 C :   -0.095693
   3 C :    0.031668
   4 C :   -0.141070
   5 H :    0.018742
   6 C :    0.102755
   7 H :    0.028228
   8 H :    0.015784
   9 C :   -0.109516
  10 H :    0.029664
  11 H :    0.014092
  12 C :    0.006643
  13 H :    0.024878
  14 H :    0.029587
  15 H :    0.027597
  16 S :    0.070334
  17 C :   -0.095952
  18 C :   -0.011699
  19 C :   -0.077941
  20 C :   -0.147358
  21 H :    0.032453
  22 C :    0.097151
  23 H :   -0.002255
  24 H :    0.022334
  25 C :   -0.076531
  26 H :    0.043336
  27 H :    0.030145
  28 C :   -0.083253
  29 H :    0.020684
  30 H :    0.049713
  31 H :    0.036595
  32 H :    0.046067
  33 H :    0.069772
Sum of atomic charges:   -0.0000000

LOEWDIN ATOMIC CHARGES
----------------------
   0 S :    0.407581
   1 C :   -0.190210
   2 C :   -0.064113
   3 C :   -0.055705
   4 C :   -0.199301
   5 H :    0.033720
   6 C :   -0.031509
   7 H :    0.033614
   8 H :    0.031452
   9 C :   -0.033711
  10 H :    0.022971
  11 H :    0.016752
  12 C :   -0.053804
  13 H :    0.026293
  14 H :    0.022385
  15 H :    0.019987
  16 S :    0.366795
  17 C :   -0.165679
  18 C :   -0.076325
  19 C :   -0.060804
  20 C :   -0.186793
  21 H :    0.040009
  22 C :   -0.036189
  23 H :    0.020202
  24 H :    0.032483
  25 C :   -0.041014
  26 H :    0.031057
  27 H :    0.024141
  28 C :   -0.078739
  29 H :    0.017709
  30 H :    0.026879
  31 H :    0.038797
  32 H :    0.026457
  33 H :    0.034615

  Mayer bond orders larger than 0.100000
B(  0-S ,  1-C ) :   1.1390 B(  0-S ,  4-C ) :   1.1518 B(  1-C ,  2-C ) :   1.5761
B(  1-C , 32-H ) :   0.9753 B(  2-C ,  3-C ) :   1.2577 B(  2-C ,  6-C ) :   1.0420
B(  3-C ,  4-C ) :   1.5795 B(  3-C ,  5-H ) :   0.9889 B(  4-C , 20-C ) :   1.0126
B(  6-C ,  7-H ) :   0.9292 B(  6-C ,  8-H ) :   0.9341 B(  6-C ,  9-C ) :   1.0568
B(  9-C , 10-H ) :   0.9623 B(  9-C , 11-H ) :   0.9537 B(  9-C , 12-C ) :   1.0761
B( 12-C , 13-H ) :   0.9742 B( 12-C , 14-H ) :   0.9785 B( 12-C , 15-H ) :   0.9749
B( 16-S , 17-C ) :   1.1318 B( 16-S , 20-C ) :   1.1178 B( 17-C , 18-C ) :   1.6419
B( 17-C , 33-H ) :   0.9634 B( 18-C , 19-C ) :   1.2098 B( 18-C , 21-H ) :   0.9879
B( 19-C , 20-C ) :   1.6659 B( 19-C , 22-C ) :   1.0574 B( 22-C , 23-H ) :   0.9349
B( 22-C , 24-H ) :   0.9271 B( 22-C , 25-C ) :   1.0600 B( 25-C , 26-H ) :   0.9552
B( 25-C , 27-H ) :   0.9582 B( 25-C , 28-C ) :   1.0847 B( 28-C , 29-H ) :   0.9725
B( 28-C , 30-H ) :   0.9763 B( 28-C , 31-H ) :   0.9720

Dispersion correction           -0.013734448
FINAL SINGLE POINT ENERGY     -1339.870362460276

DIPOLE MOMENT
-------------
                                X             Y             Z
Electronic contribution:     -1.22894      -9.96665      17.37905
Nuclear contribution   :      1.04735      10.07562     -17.88850
                        -----------------------------------------
Total Dipole Moment    :     -0.18159       0.10896      -0.50945
                        -----------------------------------------
Magnitude (a.u.)       :      0.55172
Magnitude (Debye)      :      1.40235

Rotational constants in cm-1:     0.020182     0.007359     0.006473
Rotational constants in MHz :   605.042004   220.603193   194.066793

                             ****ORCA TERMINATED NORMALLY****
TOTAL RUN TIME: 0 days 0 hours 0 minutes 20 seconds 984 msec
