                         Program Version 4.2.1 -  RELEASE  -
|  1> ! wB97X-D3 SP def2-SVP
|  2> %pal
|  3> nprocs 24
|  4> end
|  5>
|  6> * xyz 0 1
|  7> S 	 -73.3141 	 -1.58788 	 13.4154
|  8> C 	 -73.7314 	 -0.111043 	 12.6011
|  9> C 	 -73.434 	 1.03851 	 13.3428
| 10> C 	 -72.7698 	 0.692077 	 14.5599
| 11> C 	 -72.7036 	 -0.684255 	 14.8112
| 12> H 	 -72.4841 	 1.50009 	 15.3002
| 13> C 	 -73.7558 	 2.47309 	 12.9765
| 14> H 	 -74.5626 	 2.81602 	 13.6517
| 15> H 	 -74.2498 	 2.45947 	 11.9894
| 16> C 	 -72.5722 	 3.40569 	 13.0532
| 17> H 	 -71.9397 	 3.19238 	 13.9266
| 18> H 	 -71.976 	 3.30687 	 12.2125
| 19> C 	 -72.7829 	 4.87142 	 13.2132
| 20> H 	 -71.9536 	 5.51176 	 12.9294
| 21> H 	 -73.5156 	 5.11666 	 12.466
| 22> H 	 -73.0648 	 5.12904 	 14.2396
| 23> S 	 -71.5637 	 -2.76568 	 15.9498
| 24> C 	 -71.1919 	 -2.86145 	 17.649
| 25> C 	 -71.813 	 -1.78232 	 18.2597
| 26> C 	 -72.4405 	 -0.842736 	 17.399
| 27> C 	 -72.3018 	 -1.1896 	 16.1016
| 28> H 	 -71.661 	 -1.65094 	 19.3279
| 29> C 	 -73.0533 	 0.401789 	 18.0428
| 30> H 	 -73.8479 	 0.0150297 	 18.7091
| 31> H 	 -73.4939 	 0.941484 	 17.2666
| 32> C 	 -72.1165 	 1.35852 	 18.7968
| 33> H 	 -71.8353 	 1.04906 	 19.8031
| 34> H 	 -72.7791 	 2.16608 	 18.9371
| 35> C 	 -70.8794 	 1.76917 	 17.9509
| 36> H 	 -70.297 	 2.45513 	 18.5316
| 37> H 	 -71.0397 	 2.19381 	 16.961
| 38> H 	 -70.2841 	 0.945822 	 17.6153
| 39> H 	 -74.2948 	 0.00735897 	 11.6712
| 40> H 	 -70.5905 	 -3.53064 	 18.2349
| 41> *
| 42>
| 43>                          ****END OF INPUT****

CARTESIAN COORDINATES (ANGSTROEM)
---------------------------------
  S    -73.314100   -1.587880   13.415400
  C    -73.731400   -0.111043   12.601100
  C    -73.434000    1.038510   13.342800
  C    -72.769800    0.692077   14.559900
  C    -72.703600   -0.684255   14.811200
  H    -72.484100    1.500090   15.300200
  C    -73.755800    2.473090   12.976500
  H    -74.562600    2.816020   13.651700
  H    -74.249800    2.459470   11.989400
  C    -72.572200    3.405690   13.053200
  H    -71.939700    3.192380   13.926600
  H    -71.976000    3.306870   12.212500
  C    -72.782900    4.871420   13.213200
  H    -71.953600    5.511760   12.929400
  H    -73.515600    5.116660   12.466000
  H    -73.064800    5.129040   14.239600
  S    -71.563700   -2.765680   15.949800
  C    -71.191900   -2.861450   17.649000
  C    -71.813000   -1.782320   18.259700
  C    -72.440500   -0.842736   17.399000
  C    -72.301800   -1.189600   16.101600
  H    -71.661000   -1.650940   19.327900
  C    -73.053300    0.401789   18.042800
  H    -73.847900    0.015030   18.709100
  H    -73.493900    0.941484   17.266600
  C    -72.116500    1.358520   18.796800
  H    -71.835300    1.049060   19.803100
  H    -72.779100    2.166080   18.937100
  C    -70.879400    1.769170   17.950900
  H    -70.297000    2.455130   18.531600
  H    -71.039700    2.193810   16.961000
  H    -70.284100    0.945822   17.615300
  H    -74.294800    0.007359   11.671200
  H    -70.590500   -3.530640   18.234900

 Total Charge           Charge          ....    0
 Multiplicity           Mult            ....    1
 Number of Electrons    NEL             ....  134
 Basis Dimension        Dim             ....  322

ORBITAL ENERGIES
----------------

  NO   OCC          E(Eh)            E(eV)
   0   2.0000     -88.974331     -2421.1146
   1   2.0000     -88.960171     -2420.7293
   2   2.0000     -10.333044      -281.1764
   3   2.0000     -10.324704      -280.9495
   4   2.0000     -10.315057      -280.6870
   5   2.0000     -10.314944      -280.6839
   6   2.0000     -10.301408      -280.3156
   7   2.0000     -10.298584      -280.2387
   8   2.0000     -10.297827      -280.2181
   9   2.0000     -10.297356      -280.2053
  10   2.0000     -10.289624      -279.9949
  11   2.0000     -10.288982      -279.9774
  12   2.0000     -10.288789      -279.9722
  13   2.0000     -10.277200      -279.6568
  14   2.0000     -10.275432      -279.6087
  15   2.0000     -10.274259      -279.5768
  16   2.0000      -8.088155      -220.0899
  17   2.0000      -8.075545      -219.7468
  18   2.0000      -6.046864      -164.5435
  19   2.0000      -6.042817      -164.4334
  20   2.0000      -6.038730      -164.3222
  21   2.0000      -6.034171      -164.1982
  22   2.0000      -6.029954      -164.0834
  23   2.0000      -6.026145      -163.9797
  24   2.0000      -1.010288       -27.4913
  25   2.0000      -0.984395       -26.7867
  26   2.0000      -0.920099       -25.0372
  27   2.0000      -0.911201       -24.7950
  28   2.0000      -0.874090       -23.7852
  29   2.0000      -0.855588       -23.2817
  30   2.0000      -0.845684       -23.0122
  31   2.0000      -0.813358       -22.1326
  32   2.0000      -0.787048       -21.4167
  33   2.0000      -0.777893       -21.1675
  34   2.0000      -0.716117       -19.4865
  35   2.0000      -0.702951       -19.1283
  36   2.0000      -0.695276       -18.9194
  37   2.0000      -0.665531       -18.1100
  38   2.0000      -0.632827       -17.2201
  39   2.0000      -0.623503       -16.9664
  40   2.0000      -0.593876       -16.1602
  41   2.0000      -0.574278       -15.6269
  42   2.0000      -0.565383       -15.3849
  43   2.0000      -0.555504       -15.1160
  44   2.0000      -0.540083       -14.6964
  45   2.0000      -0.525315       -14.2946
  46   2.0000      -0.521999       -14.2043
  47   2.0000      -0.518735       -14.1155
  48   2.0000      -0.508179       -13.8282
  49   2.0000      -0.502061       -13.6618
  50   2.0000      -0.498051       -13.5527
  51   2.0000      -0.489006       -13.3065
  52   2.0000      -0.467850       -12.7308
  53   2.0000      -0.462603       -12.5881
  54   2.0000      -0.457275       -12.4431
  55   2.0000      -0.452521       -12.3137
  56   2.0000      -0.445309       -12.1175
  57   2.0000      -0.439077       -11.9479
  58   2.0000      -0.433828       -11.8051
  59   2.0000      -0.425349       -11.5743
  60   2.0000      -0.422801       -11.5050
  61   2.0000      -0.412900       -11.2356
  62   2.0000      -0.408261       -11.1093
  63   2.0000      -0.357476        -9.7274
  64   2.0000      -0.333172        -9.0661
  65   2.0000      -0.327598        -8.9144
  66   2.0000      -0.284337        -7.7372
  67   0.0000       0.026612         0.7241
  68   0.0000       0.074936         2.0391
  69   0.0000       0.103858         2.8261
  70   0.0000       0.119180         3.2430
  71   0.0000       0.124036         3.3752

MULLIKEN ATOMIC CHARGES
-----------------------
   0 S :    0.136815
   1 C :   -0.122938
   2 C :   -0.111639
   3 C :   -0.023582
   4 C :   -0.094253
   5 H :    0.023728
   6 C :    0.097170
   7 H :    0.036502
   8 H :    0.015202
   9 C :   -0.067096
  10 H :    0.025466
  11 H :    0.015417
  12 C :   -0.041685
  13 H :    0.031313
  14 H :    0.016596
  15 H :    0.033315
  16 S :    0.079952
  17 C :   -0.063983
  18 C :   -0.064162
  19 C :   -0.054744
  20 C :   -0.168368
  21 H :    0.016621
  22 C :    0.086947
  23 H :    0.040666
  24 H :   -0.004342
  25 C :   -0.029301
  26 H :    0.029513
  27 H :    0.021562
  28 C :   -0.050175
  29 H :    0.032910
  30 H :    0.021135
  31 H :    0.038813
  32 H :    0.047909
  33 H :    0.048716
Sum of atomic charges:    0.0000000

LOEWDIN ATOMIC CHARGES
----------------------
   0 S :    0.410701
   1 C :   -0.212582
   2 C :   -0.062080
   3 C :   -0.070323
   4 C :   -0.193889
   5 H :    0.034124
   6 C :   -0.031205
   7 H :    0.036184
   8 H :    0.031618
   9 C :   -0.044687
  10 H :    0.025964
  11 H :    0.019501
  12 C :   -0.062288
  13 H :    0.029203
  14 H :    0.020958
  15 H :    0.023881
  16 S :    0.400534
  17 C :   -0.186494
  18 C :   -0.071300
  19 C :   -0.065875
  20 C :   -0.185537
  21 H :    0.028324
  22 C :   -0.023433
  23 H :    0.039960
  24 H :    0.016931
  25 C :   -0.030458
  26 H :    0.023465
  27 H :    0.023325
  28 C :   -0.066403
  29 H :    0.024850
  30 H :    0.024089
  31 H :    0.028399
  32 H :    0.032520
  33 H :    0.032020

  Mayer bond orders larger than 0.100000
B(  0-S ,  1-C ) :   1.1319 B(  0-S ,  4-C ) :   1.1362 B(  1-C ,  2-C ) :   1.6178
B(  1-C , 32-H ) :   0.9575 B(  2-C ,  3-C ) :   1.2618 B(  2-C ,  6-C ) :   1.0288
B(  3-C ,  4-C ) :   1.5540 B(  3-C ,  5-H ) :   0.9713 B(  4-C , 20-C ) :   1.0667
B(  6-C ,  7-H ) :   0.9378 B(  6-C ,  8-H ) :   0.9300 B(  6-C ,  9-C ) :   1.0534
B(  9-C , 10-H ) :   0.9609 B(  9-C , 11-H ) :   0.9508 B(  9-C , 12-C ) :   1.0906
B( 12-C , 13-H ) :   0.9717 B( 12-C , 14-H ) :   0.9712 B( 12-C , 15-H ) :   0.9764
B( 16-S , 17-C ) :   1.1424 B( 16-S , 20-C ) :   1.1245 B( 17-C , 18-C ) :   1.6280
B( 17-C , 33-H ) :   0.9712 B( 18-C , 19-C ) :   1.2196 B( 18-C , 21-H ) :   0.9864
B( 19-C , 20-C ) :   1.6152 B( 19-C , 22-C ) :   1.0368 B( 22-C , 23-H ) :   0.9293
B( 22-C , 24-H ) :   0.9301 B( 22-C , 25-C ) :   1.0780 B( 25-C , 26-H ) :   0.9530
B( 25-C , 27-H ) :   0.9547 B( 25-C , 28-C ) :   1.0684 B( 28-C , 29-H ) :   0.9740
B( 28-C , 30-H ) :   0.9707 B( 28-C , 31-H ) :   0.9703

Dispersion correction           -0.014801894
FINAL SINGLE POINT ENERGY     -1339.865923428790

DIPOLE MOMENT
-------------
                                X             Y             Z
Electronic contribution:     -1.24488     -31.12590      -5.96906
Nuclear contribution   :      1.15801      31.88150       6.30559
                        -----------------------------------------
Total Dipole Moment    :     -0.08687       0.75560       0.33653
                        -----------------------------------------
Magnitude (a.u.)       :      0.83171
Magnitude (Debye)      :      2.11403

Rotational constants in cm-1:     0.017977     0.009776     0.006808
Rotational constants in MHz :   538.934911   293.090099   204.106533

                             ****ORCA TERMINATED NORMALLY****
TOTAL RUN TIME: 0 days 0 hours 0 minutes 21 seconds 226 msec
