                         Program Version 4.2.1 -  RELEASE  -
|  1> ! wB97X-D3 SP def2-SVP
|  2> %pal
|  3> nprocs 24
|  4> end
|  5>
|  6> * xyz 0 1
|  7> S 	 34.9401 	 -4.50883 	 -115.459
|  8> C 	 36.3393 	 -5.14628 	 -116.193
|  9> C 	 37.112 	 -5.88718 	 -115.286
| 10> C 	 36.6916 	 -5.58521 	 -113.922
| 11> C 	 35.5742 	 -4.76389 	 -113.862
| 12> H 	 37.239 	 -5.77611 	 -112.989
| 13> C 	 38.3586 	 -6.58447 	 -115.677
| 14> H 	 38.6704 	 -5.9767 	 -116.482
| 15> H 	 38.1961 	 -7.61004 	 -116.103
| 16> C 	 39.4546 	 -6.56243 	 -114.586
| 17> H 	 39.5982 	 -5.621 	 -114.128
| 18> H 	 39.1088 	 -7.20068 	 -113.766
| 19> C 	 40.8071 	 -7.09454 	 -115.177
| 20> H 	 40.8214 	 -8.09422 	 -115.547
| 21> H 	 41.1445 	 -6.53877 	 -116.047
| 22> H 	 41.654 	 -7.03838 	 -114.536
| 23> S 	 34.4799 	 -2.52779 	 -112.756
| 24> C 	 34.0309 	 -2.56583 	 -111.045
| 25> C 	 34.0578 	 -3.81714 	 -110.479
| 26> C 	 34.4675 	 -4.79224 	 -111.434
| 27> C 	 34.8673 	 -4.24776 	 -112.685
| 28> H 	 33.926 	 -3.93516 	 -109.378
| 29> C 	 34.7576 	 -6.24126 	 -110.96
| 30> H 	 34.8516 	 -6.3247 	 -109.909
| 31> H 	 35.7682 	 -6.49295 	 -111.202
| 32> C 	 33.627 	 -7.24568 	 -111.3
| 33> H 	 33.86 	 -8.21586 	 -110.813
| 34> H 	 33.5828 	 -7.4285 	 -112.359
| 35> C 	 32.3275 	 -6.80595 	 -110.639
| 36> H 	 32.5188 	 -6.73335 	 -109.544
| 37> H 	 31.5346 	 -7.55599 	 -111.003
| 38> H 	 32.0996 	 -5.79503 	 -110.919
| 39> H 	 36.5156 	 -5.09877 	 -117.302
| 40> H 	 33.8596 	 -1.73274 	 -110.349
| 41> *
| 42>
| 43>                          ****END OF INPUT****

CARTESIAN COORDINATES (ANGSTROEM)
---------------------------------
  S     34.940100   -4.508830  -115.459000
  C     36.339300   -5.146280  -116.193000
  C     37.112000   -5.887180  -115.286000
  C     36.691600   -5.585210  -113.922000
  C     35.574200   -4.763890  -113.862000
  H     37.239000   -5.776110  -112.989000
  C     38.358600   -6.584470  -115.677000
  H     38.670400   -5.976700  -116.482000
  H     38.196100   -7.610040  -116.103000
  C     39.454600   -6.562430  -114.586000
  H     39.598200   -5.621000  -114.128000
  H     39.108800   -7.200680  -113.766000
  C     40.807100   -7.094540  -115.177000
  H     40.821400   -8.094220  -115.547000
  H     41.144500   -6.538770  -116.047000
  H     41.654000   -7.038380  -114.536000
  S     34.479900   -2.527790  -112.756000
  C     34.030900   -2.565830  -111.045000
  C     34.057800   -3.817140  -110.479000
  C     34.467500   -4.792240  -111.434000
  C     34.867300   -4.247760  -112.685000
  H     33.926000   -3.935160  -109.378000
  C     34.757600   -6.241260  -110.960000
  H     34.851600   -6.324700  -109.909000
  H     35.768200   -6.492950  -111.202000
  C     33.627000   -7.245680  -111.300000
  H     33.860000   -8.215860  -110.813000
  H     33.582800   -7.428500  -112.359000
  C     32.327500   -6.805950  -110.639000
  H     32.518800   -6.733350  -109.544000
  H     31.534600   -7.555990  -111.003000
  H     32.099600   -5.795030  -110.919000
  H     36.515600   -5.098770  -117.302000
  H     33.859600   -1.732740  -110.349000

 Total Charge           Charge          ....    0
 Multiplicity           Mult            ....    1
 Number of Electrons    NEL             ....  134
 Basis Dimension        Dim             ....  322

ORBITAL ENERGIES
----------------

  NO   OCC          E(Eh)            E(eV)
   0   2.0000     -88.969789     -2420.9910
   1   2.0000     -88.963735     -2420.8263
   2   2.0000     -10.332793      -281.1696
   3   2.0000     -10.328453      -281.0515
   4   2.0000     -10.318953      -280.7930
   5   2.0000     -10.314504      -280.6719
   6   2.0000     -10.310626      -280.5664
   7   2.0000     -10.304191      -280.3913
   8   2.0000     -10.298084      -280.2251
   9   2.0000     -10.297492      -280.2090
  10   2.0000     -10.290765      -280.0259
  11   2.0000     -10.290550      -280.0201
  12   2.0000     -10.285866      -279.8926
  13   2.0000     -10.281726      -279.7800
  14   2.0000     -10.278940      -279.7042
  15   2.0000     -10.274520      -279.5839
  16   2.0000      -8.083759      -219.9703
  17   2.0000      -8.079627      -219.8578
  18   2.0000      -6.042323      -164.4200
  19   2.0000      -6.038378      -164.3126
  20   2.0000      -6.038042      -164.3035
  21   2.0000      -6.034486      -164.2067
  22   2.0000      -6.033981      -164.1930
  23   2.0000      -6.030422      -164.0961
  24   2.0000      -1.006332       -27.3837
  25   2.0000      -0.983247       -26.7555
  26   2.0000      -0.913895       -24.8683
  27   2.0000      -0.906369       -24.6636
  28   2.0000      -0.868930       -23.6448
  29   2.0000      -0.846936       -23.0463
  30   2.0000      -0.843093       -22.9417
  31   2.0000      -0.815582       -22.1931
  32   2.0000      -0.781316       -21.2607
  33   2.0000      -0.768039       -20.8994
  34   2.0000      -0.721246       -19.6261
  35   2.0000      -0.696598       -18.9554
  36   2.0000      -0.681398       -18.5418
  37   2.0000      -0.657318       -17.8865
  38   2.0000      -0.640173       -17.4200
  39   2.0000      -0.618121       -16.8199
  40   2.0000      -0.592615       -16.1259
  41   2.0000      -0.573000       -15.5921
  42   2.0000      -0.560393       -15.2491
  43   2.0000      -0.550472       -14.9791
  44   2.0000      -0.544426       -14.8146
  45   2.0000      -0.523748       -14.2519
  46   2.0000      -0.508094       -13.8259
  47   2.0000      -0.505461       -13.7543
  48   2.0000      -0.502745       -13.6804
  49   2.0000      -0.498302       -13.5595
  50   2.0000      -0.480251       -13.0683
  51   2.0000      -0.477254       -12.9867
  52   2.0000      -0.472171       -12.8484
  53   2.0000      -0.469966       -12.7884
  54   2.0000      -0.459086       -12.4924
  55   2.0000      -0.452235       -12.3059
  56   2.0000      -0.442520       -12.0416
  57   2.0000      -0.438632       -11.9358
  58   2.0000      -0.429763       -11.6945
  59   2.0000      -0.427377       -11.6295
  60   2.0000      -0.419874       -11.4253
  61   2.0000      -0.418353       -11.3840
  62   2.0000      -0.409615       -11.1462
  63   2.0000      -0.347599        -9.4586
  64   2.0000      -0.333041        -9.0625
  65   2.0000      -0.325081        -8.8459
  66   2.0000      -0.288988        -7.8638
  67   0.0000       0.024766         0.6739
  68   0.0000       0.067763         1.8439
  69   0.0000       0.109514         2.9800
  70   0.0000       0.111007         3.0207
  71   0.0000       0.135301         3.6817

MULLIKEN ATOMIC CHARGES
-----------------------
   0 S :    0.120597
   1 C :   -0.144914
   2 C :   -0.093864
   3 C :    0.002134
   4 C :   -0.134085
   5 H :    0.027805
   6 C :    0.070196
   7 H :    0.012910
   8 H :    0.051915
   9 C :   -0.081913
  10 H :    0.029741
  11 H :    0.036691
  12 C :   -0.020527
  13 H :    0.018478
  14 H :    0.017368
  15 H :    0.020055
  16 S :    0.114710
  17 C :   -0.086435
  18 C :   -0.066519
  19 C :   -0.031573
  20 C :   -0.171346
  21 H :    0.044488
  22 C :    0.078564
  23 H :   -0.004374
  24 H :    0.008388
  25 C :   -0.062506
  26 H :    0.025644
  27 H :    0.038309
  28 C :   -0.071528
  29 H :    0.026695
  30 H :    0.057394
  31 H :    0.039240
  32 H :    0.070235
  33 H :    0.058026
Sum of atomic charges:    0.0000000

LOEWDIN ATOMIC CHARGES
----------------------
   0 S :    0.424432
   1 C :   -0.221230
   2 C :   -0.060828
   3 C :   -0.069605
   4 C :   -0.203687
   5 H :    0.034063
   6 C :   -0.035773
   7 H :    0.028727
   8 H :    0.041441
   9 C :   -0.031957
  10 H :    0.021531
  11 H :    0.025102
  12 C :   -0.066020
  13 H :    0.021942
  14 H :    0.025012
  15 H :    0.021393
  16 S :    0.401475
  17 C :   -0.184006
  18 C :   -0.080237
  19 C :   -0.050045
  20 C :   -0.197448
  21 H :    0.043398
  22 C :   -0.030964
  23 H :    0.021847
  24 H :    0.023369
  25 C :   -0.037542
  26 H :    0.024901
  27 H :    0.020353
  28 C :   -0.069415
  29 H :    0.026915
  30 H :    0.040273
  31 H :    0.019589
  32 H :    0.037957
  33 H :    0.035036

  Mayer bond orders larger than 0.100000
B(  0-S ,  1-C ) :   1.1542 B(  0-S ,  4-C ) :   1.1622 B(  1-C ,  2-C ) :   1.5922
B(  1-C , 32-H ) :   0.9633 B(  2-C ,  3-C ) :   1.2328 B(  2-C ,  6-C ) :   1.0214
B(  3-C ,  4-C ) :   1.5789 B(  3-C ,  5-H ) :   0.9873 B(  4-C , 20-C ) :   1.0378
B(  6-C ,  7-H ) :   0.9423 B(  6-C ,  8-H ) :   0.9253 B(  6-C ,  9-C ) :   1.0818
B(  9-C , 10-H ) :   0.9593 B(  9-C , 11-H ) :   0.9486 B(  9-C , 12-C ) :   1.0755
B( 12-C , 13-H ) :   0.9750 B( 12-C , 14-H ) :   0.9748 B( 12-C , 15-H ) :   0.9752
B( 16-S , 17-C ) :   1.1491 B( 16-S , 20-C ) :   1.1375 B( 17-C , 18-C ) :   1.6395
B( 17-C , 20-C ) :   0.1033 B( 17-C , 33-H ) :   0.9583 B( 18-C , 19-C ) :   1.2326
B( 18-C , 21-H ) :   0.9790 B( 19-C , 20-C ) :   1.5852 B( 19-C , 22-C ) :   1.0212
B( 22-C , 23-H ) :   0.9400 B( 22-C , 24-H ) :   0.9435 B( 22-C , 25-C ) :   1.0626
B( 25-C , 26-H ) :   0.9566 B( 25-C , 27-H ) :   0.9621 B( 25-C , 28-C ) :   1.0654
B( 28-C , 29-H ) :   0.9724 B( 28-C , 30-H ) :   0.9715 B( 28-C , 31-H ) :   0.9743

Dispersion correction           -0.014059420
FINAL SINGLE POINT ENERGY     -1339.861530472926

DIPOLE MOMENT
-------------
                                X             Y             Z
Electronic contribution:    -12.38792      20.35790      -6.95759
Nuclear contribution   :     12.91492     -20.71297       7.25507
                        -----------------------------------------
Total Dipole Moment    :      0.52701      -0.35508       0.29748
                        -----------------------------------------
Magnitude (a.u.)       :      0.70165
Magnitude (Debye)      :      1.78344

Rotational constants in cm-1:     0.019559     0.007822     0.006833
Rotational constants in MHz :   586.351972   234.505280   204.833432

                             ****ORCA TERMINATED NORMALLY****
TOTAL RUN TIME: 0 days 0 hours 0 minutes 22 seconds 575 msec
