                         Program Version 4.2.1 -  RELEASE  -
|  1> ! wB97X-D3 SP def2-SVP
|  2> %pal
|  3> nprocs 24
|  4> end
|  5>
|  6> * xyz 0 1
|  7> S 	 -39.3517 	 10.111 	 26.8154
|  8> C 	 -40.2844 	 10.7555 	 28.1662
|  9> C 	 -41.4381 	 9.99953 	 28.4036
| 10> C 	 -41.5782 	 9.0053 	 27.3794
| 11> C 	 -40.4964 	 8.84124 	 26.6011
| 12> H 	 -42.3459 	 8.27616 	 27.1874
| 13> C 	 -42.6104 	 10.1262 	 29.3068
| 14> H 	 -42.1393 	 9.96895 	 30.2984
| 15> H 	 -43.2916 	 9.28754 	 29.1935
| 16> C 	 -43.4268 	 11.4443 	 29.1384
| 17> H 	 -44.0344 	 11.5644 	 30.0196
| 18> H 	 -42.9621 	 12.4087 	 28.9642
| 19> C 	 -44.3003 	 11.2652 	 27.9518
| 20> H 	 -44.7481 	 10.3045 	 27.8323
| 21> H 	 -45.012 	 12.1034 	 27.8403
| 22> H 	 -43.5985 	 11.2799 	 27.0555
| 23> S 	 -38.8552 	 7.05173 	 25.4297
| 24> C 	 -39.4619 	 6.03691 	 24.1476
| 25> C 	 -40.7696 	 6.33979 	 23.8392
| 26> C 	 -41.3295 	 7.35221 	 24.6847
| 27> C 	 -40.3731 	 7.82563 	 25.571
| 28> H 	 -41.2543 	 5.92281 	 23.0163
| 29> C 	 -42.6927 	 7.96763 	 24.4395
| 30> H 	 -42.6441 	 8.47124 	 23.4796
| 31> H 	 -42.8772 	 8.75226 	 25.1736
| 32> C 	 -43.8589 	 7.03211 	 24.5513
| 33> H 	 -43.7055 	 6.19746 	 23.8374
| 34> H 	 -44.6767 	 7.63602 	 24.1027
| 35> C 	 -44.1729 	 6.35313 	 25.9332
| 36> H 	 -45.1272 	 5.77168 	 25.9429
| 37> H 	 -44.2288 	 7.08128 	 26.7013
| 38> H 	 -43.4087 	 5.72631 	 26.3122
| 39> H 	 -40.0398 	 11.6792 	 28.6991
| 40> H 	 -38.8646 	 5.28704 	 23.6411
| 41> *
| 42>
| 43>                          ****END OF INPUT****

CARTESIAN COORDINATES (ANGSTROEM)
---------------------------------
  S    -39.351700   10.111000   26.815400
  C    -40.284400   10.755500   28.166200
  C    -41.438100    9.999530   28.403600
  C    -41.578200    9.005300   27.379400
  C    -40.496400    8.841240   26.601100
  H    -42.345900    8.276160   27.187400
  C    -42.610400   10.126200   29.306800
  H    -42.139300    9.968950   30.298400
  H    -43.291600    9.287540   29.193500
  C    -43.426800   11.444300   29.138400
  H    -44.034400   11.564400   30.019600
  H    -42.962100   12.408700   28.964200
  C    -44.300300   11.265200   27.951800
  H    -44.748100   10.304500   27.832300
  H    -45.012000   12.103400   27.840300
  H    -43.598500   11.279900   27.055500
  S    -38.855200    7.051730   25.429700
  C    -39.461900    6.036910   24.147600
  C    -40.769600    6.339790   23.839200
  C    -41.329500    7.352210   24.684700
  C    -40.373100    7.825630   25.571000
  H    -41.254300    5.922810   23.016300
  C    -42.692700    7.967630   24.439500
  H    -42.644100    8.471240   23.479600
  H    -42.877200    8.752260   25.173600
  C    -43.858900    7.032110   24.551300
  H    -43.705500    6.197460   23.837400
  H    -44.676700    7.636020   24.102700
  C    -44.172900    6.353130   25.933200
  H    -45.127200    5.771680   25.942900
  H    -44.228800    7.081280   26.701300
  H    -43.408700    5.726310   26.312200
  H    -40.039800   11.679200   28.699100
  H    -38.864600    5.287040   23.641100

 Total Charge           Charge          ....    0
 Multiplicity           Mult            ....    1
 Number of Electrons    NEL             ....  134
 Basis Dimension        Dim             ....  322

ORBITAL ENERGIES
----------------

  NO   OCC          E(Eh)            E(eV)
   0   2.0000     -88.966446     -2420.9001
   1   2.0000     -88.965513     -2420.8747
   2   2.0000     -10.320951      -280.8473
   3   2.0000     -10.317561      -280.7551
   4   2.0000     -10.317052      -280.7413
   5   2.0000     -10.314930      -280.6835
   6   2.0000     -10.302268      -280.3390
   7   2.0000     -10.299160      -280.2544
   8   2.0000     -10.295634      -280.1584
   9   2.0000     -10.292369      -280.0696
  10   2.0000     -10.289640      -279.9954
  11   2.0000     -10.288923      -279.9758
  12   2.0000     -10.284742      -279.8621
  13   2.0000     -10.281676      -279.7786
  14   2.0000     -10.280511      -279.7469
  15   2.0000     -10.275843      -279.6199
  16   2.0000      -8.081351      -219.9047
  17   2.0000      -8.081193      -219.9004
  18   2.0000      -6.039886      -164.3536
  19   2.0000      -6.039568      -164.3450
  20   2.0000      -6.035879      -164.2446
  21   2.0000      -6.035566      -164.2361
  22   2.0000      -6.032051      -164.1405
  23   2.0000      -6.032042      -164.1402
  24   2.0000      -1.013428       -27.5768
  25   2.0000      -0.987361       -26.8675
  26   2.0000      -0.920122       -25.0378
  27   2.0000      -0.912539       -24.8315
  28   2.0000      -0.871742       -23.7213
  29   2.0000      -0.854365       -23.2485
  30   2.0000      -0.847034       -23.0490
  31   2.0000      -0.814819       -22.1723
  32   2.0000      -0.788112       -21.4456
  33   2.0000      -0.774424       -21.0731
  34   2.0000      -0.708486       -19.2789
  35   2.0000      -0.706012       -19.2116
  36   2.0000      -0.690553       -18.7909
  37   2.0000      -0.664186       -18.0734
  38   2.0000      -0.643482       -17.5100
  39   2.0000      -0.614613       -16.7245
  40   2.0000      -0.599275       -16.3071
  41   2.0000      -0.576774       -15.6948
  42   2.0000      -0.561621       -15.2825
  43   2.0000      -0.555313       -15.1108
  44   2.0000      -0.543245       -14.7824
  45   2.0000      -0.532042       -14.4776
  46   2.0000      -0.519983       -14.1495
  47   2.0000      -0.515501       -14.0275
  48   2.0000      -0.501122       -13.6362
  49   2.0000      -0.495562       -13.4849
  50   2.0000      -0.489311       -13.3148
  51   2.0000      -0.478397       -13.0179
  52   2.0000      -0.473770       -12.8919
  53   2.0000      -0.468154       -12.7391
  54   2.0000      -0.462249       -12.5784
  55   2.0000      -0.452290       -12.3074
  56   2.0000      -0.449858       -12.2413
  57   2.0000      -0.440409       -11.9841
  58   2.0000      -0.437892       -11.9157
  59   2.0000      -0.431436       -11.7400
  60   2.0000      -0.416997       -11.3471
  61   2.0000      -0.411246       -11.1906
  62   2.0000      -0.405713       -11.0400
  63   2.0000      -0.351199        -9.5566
  64   2.0000      -0.332387        -9.0447
  65   2.0000      -0.328889        -8.9495
  66   2.0000      -0.287899        -7.8341
  67   0.0000       0.033888         0.9221
  68   0.0000       0.074697         2.0326
  69   0.0000       0.110591         3.0093
  70   0.0000       0.119230         3.2444
  71   0.0000       0.124122         3.3775

MULLIKEN ATOMIC CHARGES
-----------------------
   0 S :    0.114708
   1 C :   -0.141938
   2 C :   -0.056787
   3 C :   -0.006266
   4 C :   -0.120150
   5 H :   -0.026872
   6 C :    0.055168
   7 H :    0.041018
   8 H :    0.024740
   9 C :   -0.026634
  10 H :    0.023421
  11 H :    0.033265
  12 C :   -0.077633
  13 H :    0.015988
  14 H :    0.041829
  15 H :    0.037584
  16 S :    0.115445
  17 C :   -0.090661
  18 C :   -0.010372
  19 C :   -0.044709
  20 C :   -0.165201
  21 H :   -0.005185
  22 C :    0.064052
  23 H :    0.040590
  24 H :    0.015051
  25 C :   -0.083984
  26 H :    0.024966
  27 H :    0.034527
  28 C :   -0.036792
  29 H :    0.046886
  30 H :    0.021446
  31 H :    0.034531
  32 H :    0.051575
  33 H :    0.056393
Sum of atomic charges:    0.0000000

LOEWDIN ATOMIC CHARGES
----------------------
   0 S :    0.408698
   1 C :   -0.202227
   2 C :   -0.056503
   3 C :   -0.074069
   4 C :   -0.199937
   5 H :    0.025227
   6 C :   -0.028599
   7 H :    0.038806
   8 H :    0.031882
   9 C :   -0.038670
  10 H :    0.019677
  11 H :    0.028946
  12 C :   -0.068971
  13 H :    0.014152
  14 H :    0.027909
  15 H :    0.032971
  16 S :    0.425129
  17 C :   -0.187656
  18 C :   -0.059381
  19 C :   -0.062647
  20 C :   -0.206853
  21 H :    0.021023
  22 C :   -0.034562
  23 H :    0.038134
  24 H :    0.028836
  25 C :   -0.042765
  26 H :    0.021132
  27 H :    0.030548
  28 C :   -0.065991
  29 H :    0.037777
  30 H :    0.014143
  31 H :    0.025285
  32 H :    0.029804
  33 H :    0.028753

  Mayer bond orders larger than 0.100000
B(  0-S ,  1-C ) :   1.1292 B(  0-S ,  4-C ) :   1.1467 B(  1-C ,  2-C ) :   1.6065
B(  1-C , 32-H ) :   0.9706 B(  2-C ,  3-C ) :   1.2096 B(  2-C ,  6-C ) :   1.0217
B(  3-C ,  4-C ) :   1.6206 B(  3-C ,  5-H ) :   0.9879 B(  4-C , 20-C ) :   1.0185
B(  6-C ,  7-H ) :   0.9275 B(  6-C ,  8-H ) :   0.9483 B(  6-C ,  9-C ) :   1.0574
B(  9-C , 10-H ) :   0.9551 B(  9-C , 11-H ) :   0.9615 B(  9-C , 12-C ) :   1.0728
B( 12-C , 13-H ) :   0.9747 B( 12-C , 14-H ) :   0.9707 B( 12-C , 15-H ) :   0.9743
B( 16-S , 17-C ) :   1.1481 B( 16-S , 20-C ) :   1.1600 B( 17-C , 18-C ) :   1.6028
B( 17-C , 33-H ) :   0.9706 B( 18-C , 19-C ) :   1.2372 B( 18-C , 21-H ) :   1.0002
B( 19-C , 20-C ) :   1.5837 B( 19-C , 22-C ) :   1.0354 B( 22-C , 23-H ) :   0.9326
B( 22-C , 24-H ) :   0.9330 B( 22-C , 25-C ) :   1.0786 B( 25-C , 26-H ) :   0.9561
B( 25-C , 27-H ) :   0.9548 B( 25-C , 28-C ) :   1.0648 B( 28-C , 29-H ) :   0.9714
B( 28-C , 30-H ) :   0.9659 B( 28-C , 31-H ) :   0.9725

Dispersion correction           -0.015738827
FINAL SINGLE POINT ENERGY     -1339.874378638826

DIPOLE MOMENT
-------------
                                X             Y             Z
Electronic contribution:     29.46525      -2.64075      -4.40904
Nuclear contribution   :    -30.12594       2.66670       4.36342
                        -----------------------------------------
Total Dipole Moment    :     -0.66068       0.02595      -0.04562
                        -----------------------------------------
Magnitude (a.u.)       :      0.66276
Magnitude (Debye)      :      1.68461

Rotational constants in cm-1:     0.018939     0.010413     0.007328
Rotational constants in MHz :   567.775245   312.164232   219.676756

                             ****ORCA TERMINATED NORMALLY****
TOTAL RUN TIME: 0 days 0 hours 0 minutes 21 seconds 916 msec
