                         Program Version 4.2.1 -  RELEASE  -
|  1> ! wB97X-D3 SP def2-SVP
|  2> %pal
|  3> nprocs 24
|  4> end
|  5>
|  6> * xyz 0 1
|  7> S 	 -83.1708 	 -12.0478 	 -59.8634
|  8> C 	 -82.6947 	 -10.4546 	 -60.4836
|  9> C 	 -83.1638 	 -9.41707 	 -59.7109
| 10> C 	 -84.1192 	 -9.89632 	 -58.7542
| 11> C 	 -84.3152 	 -11.2766 	 -58.8062
| 12> H 	 -84.8171 	 -9.29943 	 -58.1287
| 13> C 	 -82.8181 	 -7.92162 	 -59.9238
| 14> H 	 -82.5639 	 -7.80317 	 -60.9799
| 15> H 	 -82.0002 	 -7.77388 	 -59.244
| 16> C 	 -83.886 	 -6.94446 	 -59.7065
| 17> H 	 -84.7114 	 -7.11249 	 -60.3888
| 18> H 	 -84.3656 	 -7.06727 	 -58.7052
| 19> C 	 -83.3599 	 -5.55289 	 -59.845
| 20> H 	 -82.7183 	 -5.40994 	 -60.7249
| 21> H 	 -84.0859 	 -4.74476 	 -59.7339
| 22> H 	 -82.5632 	 -5.43147 	 -59.1562
| 23> S 	 -84.2648 	 -13.3831 	 -57.0993
| 24> C 	 -85.4417 	 -13.5503 	 -55.741
| 25> C 	 -86.3642 	 -12.5362 	 -55.9785
| 26> C 	 -86.2494 	 -11.7784 	 -57.195
| 27> C 	 -85.0429 	 -12.0404 	 -57.8035
| 28> H 	 -87.0589 	 -12.3901 	 -55.1747
| 29> C 	 -87.1707 	 -10.6618 	 -57.5245
| 30> H 	 -86.7177 	 -10.0275 	 -58.3678
| 31> H 	 -87.0784 	 -9.98657 	 -56.6907
| 32> C 	 -88.6373 	 -10.9296 	 -57.6192
| 33> H 	 -89.1403 	 -9.96399 	 -57.7157
| 34> H 	 -89.0512 	 -11.3193 	 -56.7004
| 35> C 	 -89.0151 	 -11.8948 	 -58.7257
| 36> H 	 -88.4375 	 -11.6692 	 -59.6065
| 37> H 	 -90.12 	 -11.8902 	 -59.0455
| 38> H 	 -88.8088 	 -12.9565 	 -58.5145
| 39> H 	 -82.1268 	 -10.2968 	 -61.4374
| 40> H 	 -85.2028 	 -14.1619 	 -54.827
| 41> *
| 42>
| 43>                          ****END OF INPUT****

CARTESIAN COORDINATES (ANGSTROEM)
---------------------------------
  S    -83.170800  -12.047800  -59.863400
  C    -82.694700  -10.454600  -60.483600
  C    -83.163800   -9.417070  -59.710900
  C    -84.119200   -9.896320  -58.754200
  C    -84.315200  -11.276600  -58.806200
  H    -84.817100   -9.299430  -58.128700
  C    -82.818100   -7.921620  -59.923800
  H    -82.563900   -7.803170  -60.979900
  H    -82.000200   -7.773880  -59.244000
  C    -83.886000   -6.944460  -59.706500
  H    -84.711400   -7.112490  -60.388800
  H    -84.365600   -7.067270  -58.705200
  C    -83.359900   -5.552890  -59.845000
  H    -82.718300   -5.409940  -60.724900
  H    -84.085900   -4.744760  -59.733900
  H    -82.563200   -5.431470  -59.156200
  S    -84.264800  -13.383100  -57.099300
  C    -85.441700  -13.550300  -55.741000
  C    -86.364200  -12.536200  -55.978500
  C    -86.249400  -11.778400  -57.195000
  C    -85.042900  -12.040400  -57.803500
  H    -87.058900  -12.390100  -55.174700
  C    -87.170700  -10.661800  -57.524500
  H    -86.717700  -10.027500  -58.367800
  H    -87.078400   -9.986570  -56.690700
  C    -88.637300  -10.929600  -57.619200
  H    -89.140300   -9.963990  -57.715700
  H    -89.051200  -11.319300  -56.700400
  C    -89.015100  -11.894800  -58.725700
  H    -88.437500  -11.669200  -59.606500
  H    -90.120000  -11.890200  -59.045500
  H    -88.808800  -12.956500  -58.514500
  H    -82.126800  -10.296800  -61.437400
  H    -85.202800  -14.161900  -54.827000

 Total Charge           Charge          ....    0
 Multiplicity           Mult            ....    1
 Number of Electrons    NEL             ....  134
 Basis Dimension        Dim             ....  322

ORBITAL ENERGIES
----------------

  NO   OCC          E(Eh)            E(eV)
   0   2.0000     -88.968725     -2420.9621
   1   2.0000     -88.957875     -2420.6668
   2   2.0000     -10.331320      -281.1295
   3   2.0000     -10.324810      -280.9524
   4   2.0000     -10.324296      -280.9384
   5   2.0000     -10.319222      -280.8003
   6   2.0000     -10.306253      -280.4474
   7   2.0000     -10.300919      -280.3023
   8   2.0000     -10.299377      -280.2603
   9   2.0000     -10.296996      -280.1955
  10   2.0000     -10.293690      -280.1056
  11   2.0000     -10.291451      -280.0446
  12   2.0000     -10.284928      -279.8671
  13   2.0000     -10.283299      -279.8228
  14   2.0000     -10.276342      -279.6335
  15   2.0000     -10.274831      -279.5924
  16   2.0000      -8.083278      -219.9572
  17   2.0000      -8.073152      -219.6816
  18   2.0000      -6.041814      -164.4061
  19   2.0000      -6.037935      -164.3006
  20   2.0000      -6.033902      -164.1908
  21   2.0000      -6.031707      -164.1311
  22   2.0000      -6.027495      -164.0165
  23   2.0000      -6.023889      -163.9184
  24   2.0000      -1.010699       -27.5025
  25   2.0000      -0.983830       -26.7714
  26   2.0000      -0.928265       -25.2594
  27   2.0000      -0.915326       -24.9073
  28   2.0000      -0.873921       -23.7806
  29   2.0000      -0.852517       -23.1982
  30   2.0000      -0.842068       -22.9138
  31   2.0000      -0.814508       -22.1639
  32   2.0000      -0.784275       -21.3412
  33   2.0000      -0.775393       -21.0995
  34   2.0000      -0.713188       -19.4068
  35   2.0000      -0.699446       -19.0329
  36   2.0000      -0.692562       -18.8456
  37   2.0000      -0.658680       -17.9236
  38   2.0000      -0.636962       -17.3326
  39   2.0000      -0.621519       -16.9124
  40   2.0000      -0.596122       -16.2213
  41   2.0000      -0.581899       -15.8343
  42   2.0000      -0.566906       -15.4263
  43   2.0000      -0.556016       -15.1300
  44   2.0000      -0.539736       -14.6870
  45   2.0000      -0.530618       -14.4389
  46   2.0000      -0.526142       -14.3170
  47   2.0000      -0.509634       -13.8679
  48   2.0000      -0.505677       -13.7602
  49   2.0000      -0.496436       -13.5087
  50   2.0000      -0.490503       -13.3473
  51   2.0000      -0.480927       -13.0867
  52   2.0000      -0.475362       -12.9352
  53   2.0000      -0.467741       -12.7279
  54   2.0000      -0.458728       -12.4826
  55   2.0000      -0.449026       -12.2186
  56   2.0000      -0.442935       -12.0529
  57   2.0000      -0.436021       -11.8647
  58   2.0000      -0.432410       -11.7665
  59   2.0000      -0.426520       -11.6062
  60   2.0000      -0.415318       -11.3014
  61   2.0000      -0.414055       -11.2670
  62   2.0000      -0.407148       -11.0791
  63   2.0000      -0.354277        -9.6404
  64   2.0000      -0.334853        -9.1118
  65   2.0000      -0.322770        -8.7830
  66   2.0000      -0.286420        -7.7939
  67   0.0000       0.025497         0.6938
  68   0.0000       0.071422         1.9435
  69   0.0000       0.098044         2.6679
  70   0.0000       0.118142         3.2148
  71   0.0000       0.136214         3.7066

MULLIKEN ATOMIC CHARGES
-----------------------
   0 S :    0.106843
   1 C :   -0.147421
   2 C :   -0.075421
   3 C :   -0.001599
   4 C :   -0.139161
   5 H :    0.029056
   6 C :    0.077410
   7 H :    0.026408
   8 H :    0.042593
   9 C :   -0.090391
  10 H :    0.028157
  11 H :    0.031551
  12 C :   -0.002899
  13 H :    0.012362
  14 H :    0.044126
  15 H :    0.000855
  16 S :    0.069977
  17 C :   -0.131326
  18 C :   -0.045338
  19 C :   -0.024124
  20 C :   -0.120287
  21 H :    0.020418
  22 C :    0.003820
  23 H :    0.043342
  24 H :    0.026804
  25 C :   -0.020335
  26 H :    0.025116
  27 H :    0.019207
  28 C :   -0.076182
  29 H :    0.025250
  30 H :    0.040542
  31 H :    0.042566
  32 H :    0.065013
  33 H :    0.093069
Sum of atomic charges:   -0.0000000

LOEWDIN ATOMIC CHARGES
----------------------
   0 S :    0.399210
   1 C :   -0.196614
   2 C :   -0.059217
   3 C :   -0.067229
   4 C :   -0.190795
   5 H :    0.033905
   6 C :   -0.024815
   7 H :    0.035316
   8 H :    0.034995
   9 C :   -0.049874
  10 H :    0.024090
  11 H :    0.025004
  12 C :   -0.064922
  13 H :    0.027506
  14 H :    0.029371
  15 H :    0.021079
  16 S :    0.388205
  17 C :   -0.189222
  18 C :   -0.062575
  19 C :   -0.072924
  20 C :   -0.199462
  21 H :    0.026690
  22 C :   -0.044994
  23 H :    0.039304
  24 H :    0.033423
  25 C :   -0.042737
  26 H :    0.029313
  27 H :    0.022501
  28 C :   -0.074923
  29 H :    0.021643
  30 H :    0.033543
  31 H :    0.029470
  32 H :    0.037976
  33 H :    0.047760

  Mayer bond orders larger than 0.100000
B(  0-S ,  1-C ) :   1.1256 B(  0-S ,  4-C ) :   1.1508 B(  1-C ,  2-C ) :   1.6343
B(  1-C , 32-H ) :   0.9620 B(  2-C ,  3-C ) :   1.2391 B(  2-C ,  6-C ) :   0.9948
B(  3-C ,  4-C ) :   1.5630 B(  3-C ,  5-H ) :   0.9754 B(  4-C , 20-C ) :   1.0459
B(  6-C ,  7-H ) :   0.9446 B(  6-C ,  8-H ) :   0.9320 B(  6-C ,  9-C ) :   1.0855
B(  9-C , 10-H ) :   0.9540 B(  9-C , 11-H ) :   0.9407 B(  9-C , 12-C ) :   1.0923
B( 12-C , 13-H ) :   0.9644 B( 12-C , 14-H ) :   0.9712 B( 12-C , 15-H ) :   0.9643
B( 16-S , 17-C ) :   1.1238 B( 16-S , 20-C ) :   1.1567 B( 17-C , 18-C ) :   1.6170
B( 17-C , 33-H ) :   0.9648 B( 18-C , 19-C ) :   1.2145 B( 18-C , 21-H ) :   0.9893
B( 19-C , 20-C ) :   1.5767 B( 19-C , 22-C ) :   1.0524 B( 22-C , 23-H ) :   0.9264
B( 22-C , 24-H ) :   0.9242 B( 22-C , 25-C ) :   1.0909 B( 25-C , 26-H ) :   0.9473
B( 25-C , 27-H ) :   0.9498 B( 25-C , 28-C ) :   1.0715 B( 28-C , 29-H ) :   0.9767
B( 28-C , 30-H ) :   0.9748 B( 28-C , 31-H ) :   0.9722

Dispersion correction           -0.013844109
FINAL SINGLE POINT ENERGY     -1339.863803085112

DIPOLE MOMENT
-------------
                                X             Y             Z
Electronic contribution:     13.65220     -24.26493       3.09518
Nuclear contribution   :    -13.82968      25.08729      -2.90017
                        -----------------------------------------
Total Dipole Moment    :     -0.17748       0.82236       0.19501
                        -----------------------------------------
Magnitude (a.u.)       :      0.86360
Magnitude (Debye)      :      2.19510

Rotational constants in cm-1:     0.018142     0.008539     0.006745
Rotational constants in MHz :   543.886513   255.983638   202.218902

                             ****ORCA TERMINATED NORMALLY****
TOTAL RUN TIME: 0 days 0 hours 0 minutes 20 seconds 471 msec
