                         Program Version 4.2.1 -  RELEASE  -
|  1> ! wB97X-D3 SP def2-SVP
|  2> %pal
|  3> nprocs 24
|  4> end
|  5>
|  6> * xyz 0 1
|  7> S 	 -48.7854 	 1.39432 	 -21.861
|  8> C 	 -47.5295 	 2.52159 	 -22.1317
|  9> C 	 -47.8271 	 3.35168 	 -23.2081
| 10> C 	 -49.1384 	 3.01247 	 -23.8138
| 11> C 	 -49.8211 	 1.95618 	 -23.2181
| 12> H 	 -49.6517 	 3.64791 	 -24.5613
| 13> C 	 -46.9123 	 4.40951 	 -23.6777
| 14> H 	 -46.6587 	 4.96094 	 -22.7814
| 15> H 	 -47.4882 	 5.05294 	 -24.2033
| 16> C 	 -45.6834 	 3.76164 	 -24.3851
| 17> H 	 -45.1881 	 3.15857 	 -23.636
| 18> H 	 -45.9724 	 2.97699 	 -25.0714
| 19> C 	 -44.75 	 4.76807 	 -25.1069
| 20> H 	 -44.7257 	 4.55573 	 -26.199
| 21> H 	 -45.0456 	 5.83793 	 -25.0293
| 22> H 	 -43.8248 	 4.57339 	 -24.5273
| 23> S 	 -51.4114 	 1.00187 	 -25.3126
| 24> C 	 -53.0177 	 0.445798 	 -24.9319
| 25> C 	 -53.2871 	 0.494631 	 -23.5463
| 26> C 	 -52.1708 	 0.911806 	 -22.8481
| 27> C 	 -51.1266 	 1.40885 	 -23.6586
| 28> H 	 -54.218 	 0.139333 	 -23.1153
| 29> C 	 -52.2448 	 1.09871 	 -21.3731
| 30> H 	 -53.2421 	 1.47026 	 -21.066
| 31> H 	 -51.5694 	 1.8989 	 -21.0258
| 32> C 	 -51.8779 	 -0.135303 	 -20.6135
| 33> H 	 -50.9881 	 -0.582531 	 -21.1178
| 34> H 	 -52.6384 	 -0.96403 	 -20.7878
| 35> C 	 -51.6421 	 0.119978 	 -19.0954
| 36> H 	 -50.9153 	 0.909329 	 -18.8358
| 37> H 	 -51.3786 	 -0.829956 	 -18.6419
| 38> H 	 -52.5826 	 0.448482 	 -18.7159
| 39> H 	 -46.5688 	 2.51034 	 -21.5884
| 40> H 	 -53.6911 	 -0.175088 	 -25.4967
| 41> *
| 42>
| 43>                          ****END OF INPUT****

CARTESIAN COORDINATES (ANGSTROEM)
---------------------------------
  S    -48.785400    1.394320  -21.861000
  C    -47.529500    2.521590  -22.131700
  C    -47.827100    3.351680  -23.208100
  C    -49.138400    3.012470  -23.813800
  C    -49.821100    1.956180  -23.218100
  H    -49.651700    3.647910  -24.561300
  C    -46.912300    4.409510  -23.677700
  H    -46.658700    4.960940  -22.781400
  H    -47.488200    5.052940  -24.203300
  C    -45.683400    3.761640  -24.385100
  H    -45.188100    3.158570  -23.636000
  H    -45.972400    2.976990  -25.071400
  C    -44.750000    4.768070  -25.106900
  H    -44.725700    4.555730  -26.199000
  H    -45.045600    5.837930  -25.029300
  H    -43.824800    4.573390  -24.527300
  S    -51.411400    1.001870  -25.312600
  C    -53.017700    0.445798  -24.931900
  C    -53.287100    0.494631  -23.546300
  C    -52.170800    0.911806  -22.848100
  C    -51.126600    1.408850  -23.658600
  H    -54.218000    0.139333  -23.115300
  C    -52.244800    1.098710  -21.373100
  H    -53.242100    1.470260  -21.066000
  H    -51.569400    1.898900  -21.025800
  C    -51.877900   -0.135303  -20.613500
  H    -50.988100   -0.582531  -21.117800
  H    -52.638400   -0.964030  -20.787800
  C    -51.642100    0.119978  -19.095400
  H    -50.915300    0.909329  -18.835800
  H    -51.378600   -0.829956  -18.641900
  H    -52.582600    0.448482  -18.715900
  H    -46.568800    2.510340  -21.588400
  H    -53.691100   -0.175088  -25.496700

 Total Charge           Charge          ....    0
 Multiplicity           Mult            ....    1
 Number of Electrons    NEL             ....  134
 Basis Dimension        Dim             ....  322

ORBITAL ENERGIES
----------------

  NO   OCC          E(Eh)            E(eV)
   0   2.0000     -88.975843     -2421.1558
   1   2.0000     -88.964779     -2420.8547
   2   2.0000     -10.336774      -281.2779
   3   2.0000     -10.330443      -281.1056
   4   2.0000     -10.317839      -280.7627
   5   2.0000     -10.313427      -280.6426
   6   2.0000     -10.300897      -280.3017
   7   2.0000     -10.299982      -280.2768
   8   2.0000     -10.296825      -280.1908
   9   2.0000     -10.292845      -280.0825
  10   2.0000     -10.287061      -279.9252
  11   2.0000     -10.286106      -279.8992
  12   2.0000     -10.285009      -279.8693
  13   2.0000     -10.282583      -279.8033
  14   2.0000     -10.280441      -279.7450
  15   2.0000     -10.274479      -279.5828
  16   2.0000      -8.090185      -220.1451
  17   2.0000      -8.078838      -219.8364
  18   2.0000      -6.048542      -164.5892
  19   2.0000      -6.044663      -164.4836
  20   2.0000      -6.041208      -164.3896
  21   2.0000      -6.037532      -164.2896
  22   2.0000      -6.033241      -164.1728
  23   2.0000      -6.029628      -164.0745
  24   2.0000      -1.006410       -27.3858
  25   2.0000      -0.983893       -26.7731
  26   2.0000      -0.912510       -24.8307
  27   2.0000      -0.911261       -24.7967
  28   2.0000      -0.868585       -23.6354
  29   2.0000      -0.851015       -23.1573
  30   2.0000      -0.843774       -22.9603
  31   2.0000      -0.814446       -22.1622
  32   2.0000      -0.778721       -21.1901
  33   2.0000      -0.765239       -20.8232
  34   2.0000      -0.708548       -19.2806
  35   2.0000      -0.699993       -19.0478
  36   2.0000      -0.688684       -18.7400
  37   2.0000      -0.665957       -18.1216
  38   2.0000      -0.637045       -17.3349
  39   2.0000      -0.613242       -16.6872
  40   2.0000      -0.597388       -16.2557
  41   2.0000      -0.567800       -15.4506
  42   2.0000      -0.560173       -15.2431
  43   2.0000      -0.553448       -15.0601
  44   2.0000      -0.528005       -14.3677
  45   2.0000      -0.525563       -14.3013
  46   2.0000      -0.517524       -14.0825
  47   2.0000      -0.514144       -13.9906
  48   2.0000      -0.507648       -13.8138
  49   2.0000      -0.496146       -13.5008
  50   2.0000      -0.489635       -13.3236
  51   2.0000      -0.476400       -12.9635
  52   2.0000      -0.472942       -12.8694
  53   2.0000      -0.465674       -12.6716
  54   2.0000      -0.461865       -12.5680
  55   2.0000      -0.454046       -12.3552
  56   2.0000      -0.445869       -12.1327
  57   2.0000      -0.439128       -11.9493
  58   2.0000      -0.431035       -11.7291
  59   2.0000      -0.419803       -11.4234
  60   2.0000      -0.413944       -11.2640
  61   2.0000      -0.406482       -11.0609
  62   2.0000      -0.403965       -10.9924
  63   2.0000      -0.353508        -9.6194
  64   2.0000      -0.338222        -9.2035
  65   2.0000      -0.319487        -8.6937
  66   2.0000      -0.286109        -7.7854
  67   0.0000       0.024807         0.6750
  68   0.0000       0.068912         1.8752
  69   0.0000       0.110408         3.0044
  70   0.0000       0.116197         3.1619
  71   0.0000       0.135008         3.6738

MULLIKEN ATOMIC CHARGES
-----------------------
   0 S :    0.100724
   1 C :   -0.134834
   2 C :   -0.153212
   3 C :   -0.000896
   4 C :   -0.131397
   5 H :    0.029442
   6 C :    0.155556
   7 H :    0.026586
   8 H :   -0.018216
   9 C :   -0.088359
  10 H :    0.014309
  11 H :    0.031218
  12 C :   -0.058770
  13 H :    0.049817
  14 H :    0.043119
  15 H :    0.047012
  16 S :    0.141514
  17 C :   -0.086189
  18 C :   -0.047013
  19 C :   -0.026723
  20 C :   -0.141267
  21 H :    0.022666
  22 C :    0.036354
  23 H :    0.023494
  24 H :    0.024170
  25 C :   -0.122892
  26 H :    0.029399
  27 H :    0.026680
  28 C :   -0.007045
  29 H :    0.040641
  30 H :    0.036052
  31 H :    0.015903
  32 H :    0.068054
  33 H :    0.054102
Sum of atomic charges:    0.0000000

LOEWDIN ATOMIC CHARGES
----------------------
   0 S :    0.408800
   1 C :   -0.218720
   2 C :   -0.060255
   3 C :   -0.075151
   4 C :   -0.181818
   5 H :    0.034185
   6 C :   -0.026838
   7 H :    0.034949
   8 H :    0.012454
   9 C :   -0.036869
  10 H :    0.019324
  11 H :    0.026393
  12 C :   -0.076714
  13 H :    0.033047
  14 H :    0.028733
  15 H :    0.036822
  16 S :    0.444962
  17 C :   -0.197817
  18 C :   -0.063072
  19 C :   -0.057667
  20 C :   -0.208810
  21 H :    0.034377
  22 C :   -0.043744
  23 H :    0.029363
  24 H :    0.026289
  25 C :   -0.049440
  26 H :    0.018754
  27 H :    0.025613
  28 C :   -0.060264
  29 H :    0.028828
  30 H :    0.027366
  31 H :    0.019472
  32 H :    0.037417
  33 H :    0.030031

  Mayer bond orders larger than 0.100000
B(  0-S ,  1-C ) :   1.1451 B(  0-S ,  4-C ) :   1.1299 B(  1-C ,  2-C ) :   1.5945
B(  1-C , 32-H ) :   0.9636 B(  2-C ,  3-C ) :   1.2422 B(  2-C ,  6-C ) :   1.0275
B(  3-C ,  4-C ) :   1.5643 B(  3-C ,  5-H ) :   0.9863 B(  4-C , 20-C ) :   1.0596
B(  6-C ,  7-H ) :   0.9329 B(  6-C ,  8-H ) :   0.9294 B(  6-C ,  9-C ) :   1.0447
B(  9-C , 10-H ) :   0.9675 B(  9-C , 11-H ) :   0.9621 B(  9-C , 12-C ) :   1.0431
B( 12-C , 13-H ) :   0.9809 B( 12-C , 14-H ) :   0.9814 B( 12-C , 15-H ) :   0.9804
B( 16-S , 17-C ) :   1.1807 B( 16-S , 20-C ) :   1.1588 B( 17-C , 18-C ) :   1.5458
B( 17-C , 20-C ) :   0.1084 B( 17-C , 33-H ) :   0.9638 B( 18-C , 19-C ) :   1.3193
B( 18-C , 21-H ) :   0.9874 B( 19-C , 20-C ) :   1.5076 B( 19-C , 22-C ) :   1.0520
B( 22-C , 23-H ) :   0.9390 B( 22-C , 24-H ) :   0.9367 B( 22-C , 25-C ) :   1.0460
B( 25-C , 26-H ) :   0.9543 B( 25-C , 27-H ) :   0.9523 B( 25-C , 28-C ) :   1.0728
B( 28-C , 29-H ) :   0.9748 B( 28-C , 30-H ) :   0.9747 B( 28-C , 31-H ) :   0.9714

Dispersion correction           -0.014291586
FINAL SINGLE POINT ENERGY     -1339.864549609188

DIPOLE MOMENT
-------------
                                X             Y             Z
Electronic contribution:     -9.85252      -6.38625      -8.78823
Nuclear contribution   :      9.91489       6.52495       8.86137
                        -----------------------------------------
Total Dipole Moment    :      0.06237       0.13870       0.07314
                        -----------------------------------------
Magnitude (a.u.)       :      0.16875
Magnitude (Debye)      :      0.42892

Rotational constants in cm-1:     0.021987     0.007757     0.005998
Rotational constants in MHz :   659.166574   232.547753   179.830453

                             ****ORCA TERMINATED NORMALLY****
TOTAL RUN TIME: 0 days 0 hours 0 minutes 21 seconds 186 msec
