                         Program Version 4.2.1 -  RELEASE  -
|  1> ! wB97X-D3 SP def2-SVP
|  2> %pal
|  3> nprocs 24
|  4> end
|  5>
|  6> * xyz 0 1
|  7> S 	 -46.7719 	 27.5273 	 30.0398
|  8> C 	 -46.4377 	 28.7397 	 31.1917
|  9> C 	 -46.4653 	 28.2488 	 32.4864
| 10> C 	 -46.8172 	 26.8644 	 32.5204
| 11> C 	 -46.9127 	 26.2637 	 31.2512
| 12> H 	 -46.8626 	 26.2926 	 33.4653
| 13> C 	 -46.315 	 29.112 	 33.7516
| 14> H 	 -47.256 	 29.1204 	 34.1993
| 15> H 	 -45.992 	 30.0957 	 33.3692
| 16> C 	 -45.436 	 28.5287 	 34.885
| 17> H 	 -45.3925 	 29.2477 	 35.7281
| 18> H 	 -45.706 	 27.5331 	 35.1068
| 19> C 	 -43.9427 	 28.549 	 34.5172
| 20> H 	 -43.7436 	 28.0828 	 33.5795
| 21> H 	 -43.7214 	 29.6274 	 34.5467
| 22> H 	 -43.3454 	 28.1438 	 35.3031
| 23> S 	 -47.7096 	 24.5562 	 29.1985
| 24> C 	 -47.6631 	 22.8748 	 29.4365
| 25> C 	 -47.2092 	 22.4451 	 30.6493
| 26> C 	 -46.899 	 23.5864 	 31.4822
| 27> C 	 -47.0831 	 24.8242 	 30.8214
| 28> H 	 -47.0825 	 21.4674 	 30.929
| 29> C 	 -46.4505 	 23.3695 	 32.9006
| 30> H 	 -46.6757 	 22.2467 	 33.1324
| 31> H 	 -46.9884 	 23.8966 	 33.6212
| 32> C 	 -44.9581 	 23.7366 	 33.0215
| 33> H 	 -44.8158 	 24.8055 	 32.7732
| 34> H 	 -44.307 	 23.1214 	 32.4001
| 35> C 	 -44.5485 	 23.6315 	 34.4582
| 36> H 	 -45.0059 	 24.319 	 35.2176
| 37> H 	 -43.4828 	 23.9033 	 34.6353
| 38> H 	 -44.6191 	 22.5645 	 34.8277
| 39> H 	 -46.3735 	 29.8097 	 31.0379
| 40> H 	 -47.9631 	 22.1558 	 28.623
| 41> *
| 42>
| 43>                          ****END OF INPUT****

CARTESIAN COORDINATES (ANGSTROEM)
---------------------------------
  S    -46.771900   27.527300   30.039800
  C    -46.437700   28.739700   31.191700
  C    -46.465300   28.248800   32.486400
  C    -46.817200   26.864400   32.520400
  C    -46.912700   26.263700   31.251200
  H    -46.862600   26.292600   33.465300
  C    -46.315000   29.112000   33.751600
  H    -47.256000   29.120400   34.199300
  H    -45.992000   30.095700   33.369200
  C    -45.436000   28.528700   34.885000
  H    -45.392500   29.247700   35.728100
  H    -45.706000   27.533100   35.106800
  C    -43.942700   28.549000   34.517200
  H    -43.743600   28.082800   33.579500
  H    -43.721400   29.627400   34.546700
  H    -43.345400   28.143800   35.303100
  S    -47.709600   24.556200   29.198500
  C    -47.663100   22.874800   29.436500
  C    -47.209200   22.445100   30.649300
  C    -46.899000   23.586400   31.482200
  C    -47.083100   24.824200   30.821400
  H    -47.082500   21.467400   30.929000
  C    -46.450500   23.369500   32.900600
  H    -46.675700   22.246700   33.132400
  H    -46.988400   23.896600   33.621200
  C    -44.958100   23.736600   33.021500
  H    -44.815800   24.805500   32.773200
  H    -44.307000   23.121400   32.400100
  C    -44.548500   23.631500   34.458200
  H    -45.005900   24.319000   35.217600
  H    -43.482800   23.903300   34.635300
  H    -44.619100   22.564500   34.827700
  H    -46.373500   29.809700   31.037900
  H    -47.963100   22.155800   28.623000

 Total Charge           Charge          ....    0
 Multiplicity           Mult            ....    1
 Number of Electrons    NEL             ....  134
 Basis Dimension        Dim             ....  322

ORBITAL ENERGIES
----------------

  NO   OCC          E(Eh)            E(eV)
   0   2.0000     -88.969002     -2420.9696
   1   2.0000     -88.967721     -2420.9348
   2   2.0000     -10.340289      -281.3736
   3   2.0000     -10.334768      -281.2233
   4   2.0000     -10.318578      -280.7828
   5   2.0000     -10.310430      -280.5611
   6   2.0000     -10.307737      -280.4878
   7   2.0000     -10.300467      -280.2899
   8   2.0000     -10.298606      -280.2393
   9   2.0000     -10.295576      -280.1569
  10   2.0000     -10.292428      -280.0712
  11   2.0000     -10.289754      -279.9984
  12   2.0000     -10.287214      -279.9293
  13   2.0000     -10.286884      -279.9203
  14   2.0000     -10.282968      -279.8138
  15   2.0000     -10.269118      -279.4369
  16   2.0000      -8.084518      -219.9909
  17   2.0000      -8.082923      -219.9475
  18   2.0000      -6.042931      -164.4365
  19   2.0000      -6.041518      -164.3981
  20   2.0000      -6.038976      -164.3289
  21   2.0000      -6.037252      -164.2820
  22   2.0000      -6.035288      -164.2285
  23   2.0000      -6.033704      -164.1854
  24   2.0000      -1.007552       -27.4169
  25   2.0000      -0.989108       -26.9150
  26   2.0000      -0.915441       -24.9104
  27   2.0000      -0.912782       -24.8381
  28   2.0000      -0.867639       -23.6097
  29   2.0000      -0.854432       -23.2503
  30   2.0000      -0.846501       -23.0345
  31   2.0000      -0.816435       -22.2163
  32   2.0000      -0.783555       -21.3216
  33   2.0000      -0.769837       -20.9483
  34   2.0000      -0.705705       -19.2032
  35   2.0000      -0.695851       -18.9351
  36   2.0000      -0.684684       -18.6312
  37   2.0000      -0.666519       -18.1369
  38   2.0000      -0.633593       -17.2409
  39   2.0000      -0.627229       -17.0678
  40   2.0000      -0.602240       -16.3878
  41   2.0000      -0.574772       -15.6403
  42   2.0000      -0.565825       -15.3969
  43   2.0000      -0.558454       -15.1963
  44   2.0000      -0.550915       -14.9912
  45   2.0000      -0.522160       -14.2087
  46   2.0000      -0.520383       -14.1603
  47   2.0000      -0.509052       -13.8520
  48   2.0000      -0.503162       -13.6917
  49   2.0000      -0.494391       -13.4531
  50   2.0000      -0.492485       -13.4012
  51   2.0000      -0.484128       -13.1738
  52   2.0000      -0.472781       -12.8650
  53   2.0000      -0.463447       -12.6110
  54   2.0000      -0.460462       -12.5298
  55   2.0000      -0.453345       -12.3362
  56   2.0000      -0.440732       -11.9929
  57   2.0000      -0.436542       -11.8789
  58   2.0000      -0.431989       -11.7550
  59   2.0000      -0.426807       -11.6140
  60   2.0000      -0.420886       -11.4529
  61   2.0000      -0.416917       -11.3449
  62   2.0000      -0.412364       -11.2210
  63   2.0000      -0.358351        -9.7512
  64   2.0000      -0.336244        -9.1497
  65   2.0000      -0.328131        -8.9289
  66   2.0000      -0.283385        -7.7113
  67   0.0000       0.022264         0.6058
  68   0.0000       0.085822         2.3353
  69   0.0000       0.100727         2.7409
  70   0.0000       0.117066         3.1855
  71   0.0000       0.123378         3.3573

MULLIKEN ATOMIC CHARGES
-----------------------
   0 S :    0.103881
   1 C :   -0.100886
   2 C :   -0.139224
   3 C :   -0.002807
   4 C :   -0.116354
   5 H :    0.013952
   6 C :    0.115620
   7 H :    0.029510
   8 H :    0.015929
   9 C :   -0.090497
  10 H :    0.035721
  11 H :    0.024317
  12 C :   -0.046488
  13 H :    0.041515
  14 H :    0.018344
  15 H :    0.025301
  16 S :    0.110112
  17 C :   -0.090547
  18 C :    0.012558
  19 C :   -0.067464
  20 C :   -0.122113
  21 H :   -0.017457
  22 C :    0.045823
  23 H :    0.031022
  24 H :    0.016587
  25 C :   -0.055388
  26 H :    0.047829
  27 H :    0.034624
  28 C :   -0.087398
  29 H :    0.033162
  30 H :    0.029354
  31 H :    0.032743
  32 H :    0.045270
  33 H :    0.073451
Sum of atomic charges:    0.0000000

LOEWDIN ATOMIC CHARGES
----------------------
   0 S :    0.419825
   1 C :   -0.218818
   2 C :   -0.066201
   3 C :   -0.080267
   4 C :   -0.183294
   5 H :    0.030124
   6 C :   -0.021628
   7 H :    0.028229
   8 H :    0.030415
   9 C :   -0.035297
  10 H :    0.032780
  11 H :    0.012574
  12 C :   -0.060473
  13 H :    0.018985
  14 H :    0.025458
  15 H :    0.019825
  16 S :    0.422224
  17 C :   -0.197443
  18 C :   -0.065137
  19 C :   -0.046593
  20 C :   -0.200963
  21 H :    0.018657
  22 C :   -0.029806
  23 H :    0.039672
  24 H :    0.018018
  25 C :   -0.038935
  26 H :    0.032486
  27 H :    0.028812
  28 C :   -0.082859
  29 H :    0.025695
  30 H :    0.026776
  31 H :    0.026690
  32 H :    0.031048
  33 H :    0.039423

  Mayer bond orders larger than 0.100000
B(  0-S ,  1-C ) :   1.1451 B(  0-S ,  4-C ) :   1.1707 B(  1-C ,  2-C ) :   1.6065
B(  1-C , 32-H ) :   0.9613 B(  2-C ,  3-C ) :   1.2697 B(  2-C ,  6-C ) :   1.0151
B(  3-C ,  4-C ) :   1.5410 B(  3-C ,  5-H ) :   0.9850 B(  4-C , 20-C ) :   1.0450
B(  6-C ,  7-H ) :   0.9342 B(  6-C ,  8-H ) :   0.9418 B(  6-C ,  9-C ) :   1.0739
B(  9-C , 10-H ) :   0.9614 B(  9-C , 11-H ) :   0.9561 B(  9-C , 12-C ) :   1.0683
B( 12-C , 13-H ) :   0.9784 B( 12-C , 14-H ) :   0.9807 B( 12-C , 15-H ) :   0.9752
B( 16-S , 17-C ) :   1.1789 B( 16-S , 20-C ) :   1.1381 B( 17-C , 18-C ) :   1.5923
B( 17-C , 33-H ) :   0.9547 B( 18-C , 19-C ) :   1.2577 B( 18-C , 21-H ) :   1.0063
B( 19-C , 20-C ) :   1.5793 B( 19-C , 22-C ) :   1.0424 B( 22-C , 23-H ) :   0.9364
B( 22-C , 24-H ) :   0.9361 B( 22-C , 25-C ) :   1.0612 B( 25-C , 26-H ) :   0.9517
B( 25-C , 27-H ) :   0.9506 B( 25-C , 28-C ) :   1.0903 B( 28-C , 29-H ) :   0.9711
B( 28-C , 30-H ) :   0.9702 B( 28-C , 31-H ) :   0.9706

Dispersion correction           -0.014928881
FINAL SINGLE POINT ENERGY     -1339.873182473853

DIPOLE MOMENT
-------------
                                X             Y             Z
Electronic contribution:    -15.35400      -1.20969     -28.53593
Nuclear contribution   :     15.49529       1.05774      29.12260
                        -----------------------------------------
Total Dipole Moment    :      0.14130      -0.15195       0.58667
                        -----------------------------------------
Magnitude (a.u.)       :      0.62228
Magnitude (Debye)      :      1.58171

Rotational constants in cm-1:     0.018715     0.010079     0.006939
Rotational constants in MHz :   561.051672   302.169647   208.021467

                             ****ORCA TERMINATED NORMALLY****
TOTAL RUN TIME: 0 days 0 hours 0 minutes 22 seconds 630 msec
