                         Program Version 4.2.1 -  RELEASE  -
|  1> ! wB97X-D3 SP def2-SVP
|  2> %pal
|  3> nprocs 24
|  4> end
|  5>
|  6> * xyz 0 1
|  7> S 	 -123.423 	 31.2165 	 -112.87
|  8> C 	 -123.812 	 29.7011 	 -113.689
|  9> C 	 -124.305 	 28.7862 	 -112.754
| 10> C 	 -124.38 	 29.3367 	 -111.392
| 11> C 	 -124.051 	 30.6906 	 -111.343
| 12> H 	 -124.689 	 28.7481 	 -110.579
| 13> C 	 -124.788 	 27.3873 	 -113.153
| 14> H 	 -123.968 	 26.7193 	 -112.953
| 15> H 	 -125.024 	 27.3666 	 -114.158
| 16> C 	 -126.005 	 26.826 	 -112.424
| 17> H 	 -125.735 	 26.9162 	 -111.334
| 18> H 	 -126.851 	 27.5074 	 -112.648
| 19> C 	 -126.268 	 25.3741 	 -112.596
| 20> H 	 -127.26 	 25.1305 	 -112.107
| 21> H 	 -126.391 	 25.1779 	 -113.666
| 22> H 	 -125.528 	 24.7616 	 -112.115
| 23> S 	 -122.422 	 32.2683 	 -109.746
| 24> C 	 -123.109 	 33.0602 	 -108.35
| 25> C 	 -124.426 	 32.7264 	 -108.22
| 26> C 	 -125.014 	 31.8825 	 -109.263
| 27> C 	 -124.015 	 31.5097 	 -110.148
| 28> H 	 -124.983 	 33.0168 	 -107.326
| 29> C 	 -126.503 	 31.4138 	 -109.111
| 30> H 	 -126.796 	 32.0243 	 -108.286
| 31> H 	 -126.538 	 30.3798 	 -108.811
| 32> C 	 -127.284 	 31.6953 	 -110.384
| 33> H 	 -126.818 	 31.3258 	 -111.306
| 34> H 	 -127.177 	 32.7804 	 -110.495
| 35> C 	 -128.792 	 31.3246 	 -110.345
| 36> H 	 -128.889 	 30.19 	 -110.478
| 37> H 	 -129.224 	 31.7955 	 -111.241
| 38> H 	 -129.162 	 31.5664 	 -109.346
| 39> H 	 -123.753 	 29.6424 	 -114.756
| 40> H 	 -122.639 	 33.5875 	 -107.574
| 41> *
| 42>
| 43>                          ****END OF INPUT****

CARTESIAN COORDINATES (ANGSTROEM)
---------------------------------
  S    -123.423000   31.216500  -112.870000
  C    -123.812000   29.701100  -113.689000
  C    -124.305000   28.786200  -112.754000
  C    -124.380000   29.336700  -111.392000
  C    -124.051000   30.690600  -111.343000
  H    -124.689000   28.748100  -110.579000
  C    -124.788000   27.387300  -113.153000
  H    -123.968000   26.719300  -112.953000
  H    -125.024000   27.366600  -114.158000
  C    -126.005000   26.826000  -112.424000
  H    -125.735000   26.916200  -111.334000
  H    -126.851000   27.507400  -112.648000
  C    -126.268000   25.374100  -112.596000
  H    -127.260000   25.130500  -112.107000
  H    -126.391000   25.177900  -113.666000
  H    -125.528000   24.761600  -112.115000
  S    -122.422000   32.268300  -109.746000
  C    -123.109000   33.060200  -108.350000
  C    -124.426000   32.726400  -108.220000
  C    -125.014000   31.882500  -109.263000
  C    -124.015000   31.509700  -110.148000
  H    -124.983000   33.016800  -107.326000
  C    -126.503000   31.413800  -109.111000
  H    -126.796000   32.024300  -108.286000
  H    -126.538000   30.379800  -108.811000
  C    -127.284000   31.695300  -110.384000
  H    -126.818000   31.325800  -111.306000
  H    -127.177000   32.780400  -110.495000
  C    -128.792000   31.324600  -110.345000
  H    -128.889000   30.190000  -110.478000
  H    -129.224000   31.795500  -111.241000
  H    -129.162000   31.566400  -109.346000
  H    -123.753000   29.642400  -114.756000
  H    -122.639000   33.587500  -107.574000

 Total Charge           Charge          ....    0
 Multiplicity           Mult            ....    1
 Number of Electrons    NEL             ....  134
 Basis Dimension        Dim             ....  322

ORBITAL ENERGIES
----------------

  NO   OCC          E(Eh)            E(eV)
   0   2.0000     -88.964854     -2420.8567
   1   2.0000     -88.964100     -2420.8362
   2   2.0000     -10.331202      -281.1263
   3   2.0000     -10.330852      -281.1168
   4   2.0000     -10.316330      -280.7216
   5   2.0000     -10.312159      -280.6081
   6   2.0000     -10.308726      -280.5147
   7   2.0000     -10.308474      -280.5078
   8   2.0000     -10.296448      -280.1806
   9   2.0000     -10.294611      -280.1306
  10   2.0000     -10.292828      -280.0821
  11   2.0000     -10.287809      -279.9455
  12   2.0000     -10.285238      -279.8756
  13   2.0000     -10.284499      -279.8554
  14   2.0000     -10.282378      -279.7977
  15   2.0000     -10.281826      -279.7827
  16   2.0000      -8.078937      -219.8391
  17   2.0000      -8.078791      -219.8351
  18   2.0000      -6.037539      -164.2898
  19   2.0000      -6.037500      -164.2887
  20   2.0000      -6.033435      -164.1781
  21   2.0000      -6.033266      -164.1735
  22   2.0000      -6.029765      -164.0783
  23   2.0000      -6.029343      -164.0668
  24   2.0000      -1.001065       -27.2404
  25   2.0000      -0.977190       -26.5907
  26   2.0000      -0.917539       -24.9675
  27   2.0000      -0.906240       -24.6600
  28   2.0000      -0.871234       -23.7075
  29   2.0000      -0.847989       -23.0750
  30   2.0000      -0.841863       -22.9083
  31   2.0000      -0.814432       -22.1618
  32   2.0000      -0.783520       -21.3207
  33   2.0000      -0.774058       -21.0632
  34   2.0000      -0.710399       -19.3309
  35   2.0000      -0.694150       -18.8888
  36   2.0000      -0.684627       -18.6296
  37   2.0000      -0.656486       -17.8639
  38   2.0000      -0.644186       -17.5292
  39   2.0000      -0.623331       -16.9617
  40   2.0000      -0.592235       -16.1155
  41   2.0000      -0.579967       -15.7817
  42   2.0000      -0.564125       -15.3506
  43   2.0000      -0.560722       -15.2580
  44   2.0000      -0.530827       -14.4445
  45   2.0000      -0.522960       -14.2305
  46   2.0000      -0.515517       -14.0279
  47   2.0000      -0.513872       -13.9832
  48   2.0000      -0.508728       -13.8432
  49   2.0000      -0.500126       -13.6091
  50   2.0000      -0.493350       -13.4247
  51   2.0000      -0.489152       -13.3105
  52   2.0000      -0.469414       -12.7734
  53   2.0000      -0.466882       -12.7045
  54   2.0000      -0.460412       -12.5285
  55   2.0000      -0.452659       -12.3175
  56   2.0000      -0.443825       -12.0771
  57   2.0000      -0.436695       -11.8831
  58   2.0000      -0.429383       -11.6841
  59   2.0000      -0.417610       -11.3637
  60   2.0000      -0.415214       -11.2985
  61   2.0000      -0.409812       -11.1516
  62   2.0000      -0.408573       -11.1178
  63   2.0000      -0.343967        -9.3598
  64   2.0000      -0.330959        -9.0058
  65   2.0000      -0.325165        -8.8482
  66   2.0000      -0.296825        -8.0770
  67   0.0000       0.032411         0.8820
  68   0.0000       0.064077         1.7436
  69   0.0000       0.110627         3.0103
  70   0.0000       0.124402         3.3851
  71   0.0000       0.126077         3.4307

MULLIKEN ATOMIC CHARGES
-----------------------
   0 S :    0.102870
   1 C :   -0.134847
   2 C :   -0.094927
   3 C :    0.052634
   4 C :   -0.149501
   5 H :   -0.003285
   6 C :    0.122755
   7 H :    0.028319
   8 H :    0.000568
   9 C :   -0.139720
  10 H :    0.026390
  11 H :    0.041310
  12 C :   -0.030792
  13 H :    0.041028
  14 H :    0.030031
  15 H :    0.036153
  16 S :    0.100530
  17 C :   -0.052818
  18 C :   -0.061596
  19 C :   -0.057079
  20 C :   -0.174700
  21 H :    0.021371
  22 C :    0.142516
  23 H :    0.005216
  24 H :    0.035520
  25 C :   -0.137830
  26 H :    0.050621
  27 H :    0.027110
  28 C :   -0.035891
  29 H :    0.036605
  30 H :    0.048817
  31 H :    0.033823
  32 H :    0.050539
  33 H :    0.038261
Sum of atomic charges:    0.0000000

LOEWDIN ATOMIC CHARGES
----------------------
   0 S :    0.405455
   1 C :   -0.193173
   2 C :   -0.052927
   3 C :   -0.056212
   4 C :   -0.200559
   5 H :    0.021041
   6 C :   -0.027716
   7 H :    0.032183
   8 H :    0.017189
   9 C :   -0.051395
  10 H :    0.024218
  11 H :    0.027132
  12 C :   -0.063949
  13 H :    0.037308
  14 H :    0.023785
  15 H :    0.024934
  16 S :    0.380514
  17 C :   -0.182583
  18 C :   -0.075648
  19 C :   -0.048424
  20 C :   -0.178522
  21 H :    0.028747
  22 C :   -0.018219
  23 H :    0.026176
  24 H :    0.027699
  25 C :   -0.050306
  26 H :    0.028049
  27 H :    0.025720
  28 C :   -0.068106
  29 H :    0.030311
  30 H :    0.032911
  31 H :    0.024015
  32 H :    0.025041
  33 H :    0.025313

  Mayer bond orders larger than 0.100000
B(  0-S ,  1-C ) :   1.1318 B(  0-S ,  4-C ) :   1.1600 B(  1-C ,  2-C ) :   1.5995
B(  1-C , 32-H ) :   0.9785 B(  2-C ,  3-C ) :   1.2363 B(  2-C ,  6-C ) :   1.0219
B(  3-C ,  4-C ) :   1.5543 B(  3-C ,  5-H ) :   1.0003 B(  4-C , 20-C ) :   1.0422
B(  6-C ,  7-H ) :   0.9294 B(  6-C ,  8-H ) :   0.9421 B(  6-C ,  9-C ) :   1.0669
B(  9-C , 10-H ) :   0.9493 B(  9-C , 11-H ) :   0.9589 B(  9-C , 12-C ) :   1.0930
B( 12-C , 13-H ) :   0.9695 B( 12-C , 14-H ) :   0.9735 B( 12-C , 15-H ) :   0.9717
B( 16-S , 17-C ) :   1.1267 B( 16-S , 20-C ) :   1.1250 B( 17-C , 18-C ) :   1.6642
B( 17-C , 33-H ) :   0.9667 B( 18-C , 19-C ) :   1.2163 B( 18-C , 21-H ) :   0.9741
B( 19-C , 20-C ) :   1.6362 B( 19-C , 22-C ) :   1.0159 B( 22-C , 23-H ) :   0.9265
B( 22-C , 24-H ) :   0.9379 B( 22-C , 25-C ) :   1.0561 B( 25-C , 26-H ) :   0.9590
B( 25-C , 27-H ) :   0.9549 B( 25-C , 28-C ) :   1.0778 B( 28-C , 29-H ) :   0.9753
B( 28-C , 30-H ) :   0.9739 B( 28-C , 31-H ) :   0.9730

Dispersion correction           -0.014072754
FINAL SINGLE POINT ENERGY     -1339.874867138337

DIPOLE MOMENT
-------------
                                X             Y             Z
Electronic contribution:     24.95218      18.40280       0.53283
Nuclear contribution   :    -25.50023     -18.88429      -0.34954
                        -----------------------------------------
Total Dipole Moment    :     -0.54805      -0.48150       0.18329
                        -----------------------------------------
Magnitude (a.u.)       :      0.75219
Magnitude (Debye)      :      1.91191

Rotational constants in cm-1:     0.017422     0.008892     0.006934
Rotational constants in MHz :   522.304211   266.579086   207.882182

                             ****ORCA TERMINATED NORMALLY****
TOTAL RUN TIME: 0 days 0 hours 0 minutes 20 seconds 554 msec
