                         Program Version 4.2.1 -  RELEASE  -
|  1> ! wB97X-D3 SP def2-SVP
|  2> %pal
|  3> nprocs 24
|  4> end
|  5>
|  6> * xyz 0 1
|  7> S 	 -51.1542 	 0.226399 	 -23.1868
|  8> C 	 -50.0604 	 1.51146 	 -22.7499
|  9> C 	 -50.8733 	 2.57255 	 -22.3964
| 10> C 	 -52.307 	 2.25397 	 -22.3024
| 11> C 	 -52.5876 	 0.953469 	 -22.6395
| 12> H 	 -53.0791 	 2.92907 	 -22.0287
| 13> C 	 -50.3037 	 3.90639 	 -21.8962
| 14> H 	 -51.0988 	 4.64779 	 -21.6597
| 15> H 	 -49.6603 	 4.30394 	 -22.6853
| 16> C 	 -49.4825 	 3.66315 	 -20.6092
| 17> H 	 -50.1065 	 3.73163 	 -19.7121
| 18> H 	 -48.8639 	 2.77576 	 -20.619
| 19> C 	 -48.4346 	 4.74566 	 -20.3775
| 20> H 	 -47.931 	 5.03971 	 -21.3091
| 21> H 	 -48.8227 	 5.60073 	 -19.8761
| 22> H 	 -47.6982 	 4.30893 	 -19.6866
| 23> S 	 -54.1651 	 -0.630314 	 -24.3298
| 24> C 	 -55.8338 	 -0.862723 	 -23.9868
| 25> C 	 -56.1953 	 -0.217912 	 -22.8587
| 26> C 	 -55.1308 	 0.45417 	 -22.1832
| 27> C 	 -53.8985 	 0.363075 	 -22.8788
| 28> H 	 -57.2526 	 -0.0929283 	 -22.5954
| 29> C 	 -55.3063 	 1.19862 	 -20.9164
| 30> H 	 -56.3675 	 1.19535 	 -20.6903
| 31> H 	 -55.1296 	 2.25962 	 -21.0829
| 32> C 	 -54.5489 	 0.714775 	 -19.7128
| 33> H 	 -53.4708 	 0.925037 	 -19.7992
| 34> H 	 -54.6301 	 -0.384765 	 -19.6253
| 35> C 	 -55.0441 	 1.33444 	 -18.4153
| 36> H 	 -56.065 	 1.02441 	 -18.2551
| 37> H 	 -55.0922 	 2.45152 	 -18.4399
| 38> H 	 -54.4106 	 0.925612 	 -17.5777
| 39> H 	 -49.0065 	 1.61968 	 -22.5398
| 40> H 	 -56.4597 	 -1.57263 	 -24.5757
| 41> *
| 42>
| 43>                          ****END OF INPUT****

CARTESIAN COORDINATES (ANGSTROEM)
---------------------------------
  S    -51.154200    0.226399  -23.186800
  C    -50.060400    1.511460  -22.749900
  C    -50.873300    2.572550  -22.396400
  C    -52.307000    2.253970  -22.302400
  C    -52.587600    0.953469  -22.639500
  H    -53.079100    2.929070  -22.028700
  C    -50.303700    3.906390  -21.896200
  H    -51.098800    4.647790  -21.659700
  H    -49.660300    4.303940  -22.685300
  C    -49.482500    3.663150  -20.609200
  H    -50.106500    3.731630  -19.712100
  H    -48.863900    2.775760  -20.619000
  C    -48.434600    4.745660  -20.377500
  H    -47.931000    5.039710  -21.309100
  H    -48.822700    5.600730  -19.876100
  H    -47.698200    4.308930  -19.686600
  S    -54.165100   -0.630314  -24.329800
  C    -55.833800   -0.862723  -23.986800
  C    -56.195300   -0.217912  -22.858700
  C    -55.130800    0.454170  -22.183200
  C    -53.898500    0.363075  -22.878800
  H    -57.252600   -0.092928  -22.595400
  C    -55.306300    1.198620  -20.916400
  H    -56.367500    1.195350  -20.690300
  H    -55.129600    2.259620  -21.082900
  C    -54.548900    0.714775  -19.712800
  H    -53.470800    0.925037  -19.799200
  H    -54.630100   -0.384765  -19.625300
  C    -55.044100    1.334440  -18.415300
  H    -56.065000    1.024410  -18.255100
  H    -55.092200    2.451520  -18.439900
  H    -54.410600    0.925612  -17.577700
  H    -49.006500    1.619680  -22.539800
  H    -56.459700   -1.572630  -24.575700

 Total Charge           Charge          ....    0
 Multiplicity           Mult            ....    1
 Number of Electrons    NEL             ....  134
 Basis Dimension        Dim             ....  322

ORBITAL ENERGIES
----------------

  NO   OCC          E(Eh)            E(eV)
   0   2.0000     -88.964744     -2420.8538
   1   2.0000     -88.964180     -2420.8384
   2   2.0000     -10.332444      -281.1601
   3   2.0000     -10.329481      -281.0795
   4   2.0000     -10.316886      -280.7367
   5   2.0000     -10.313780      -280.6522
   6   2.0000     -10.304044      -280.3873
   7   2.0000     -10.303861      -280.3823
   8   2.0000     -10.296360      -280.1782
   9   2.0000     -10.293651      -280.1045
  10   2.0000     -10.292533      -280.0740
  11   2.0000     -10.286297      -279.9044
  12   2.0000     -10.286128      -279.8998
  13   2.0000     -10.282292      -279.7954
  14   2.0000     -10.281474      -279.7731
  15   2.0000     -10.274317      -279.5784
  16   2.0000      -8.080254      -219.8749
  17   2.0000      -8.079155      -219.8450
  18   2.0000      -6.038924      -164.3275
  19   2.0000      -6.037652      -164.2929
  20   2.0000      -6.034464      -164.2061
  21   2.0000      -6.033518      -164.1804
  22   2.0000      -6.030914      -164.1095
  23   2.0000      -6.030011      -164.0849
  24   2.0000      -1.012174       -27.5427
  25   2.0000      -0.989060       -26.9137
  26   2.0000      -0.916184       -24.9306
  27   2.0000      -0.914948       -24.8970
  28   2.0000      -0.873994       -23.7826
  29   2.0000      -0.853257       -23.2183
  30   2.0000      -0.843403       -22.9502
  31   2.0000      -0.819338       -22.2953
  32   2.0000      -0.781063       -21.2538
  33   2.0000      -0.770447       -20.9649
  34   2.0000      -0.709518       -19.3070
  35   2.0000      -0.697070       -18.9682
  36   2.0000      -0.690049       -18.7772
  37   2.0000      -0.661077       -17.9888
  38   2.0000      -0.637554       -17.3487
  39   2.0000      -0.619630       -16.8610
  40   2.0000      -0.599469       -16.3124
  41   2.0000      -0.581642       -15.8273
  42   2.0000      -0.567375       -15.4391
  43   2.0000      -0.561945       -15.2913
  44   2.0000      -0.530162       -14.4264
  45   2.0000      -0.524585       -14.2747
  46   2.0000      -0.518131       -14.0991
  47   2.0000      -0.517871       -14.0920
  48   2.0000      -0.511744       -13.9253
  49   2.0000      -0.509128       -13.8541
  50   2.0000      -0.491001       -13.3608
  51   2.0000      -0.485748       -13.2179
  52   2.0000      -0.475254       -12.9323
  53   2.0000      -0.462176       -12.5764
  54   2.0000      -0.457140       -12.4394
  55   2.0000      -0.446922       -12.1614
  56   2.0000      -0.441166       -12.0047
  57   2.0000      -0.436870       -11.8878
  58   2.0000      -0.435077       -11.8390
  59   2.0000      -0.424734       -11.5576
  60   2.0000      -0.416751       -11.3404
  61   2.0000      -0.413417       -11.2497
  62   2.0000      -0.406431       -11.0595
  63   2.0000      -0.357052        -9.7159
  64   2.0000      -0.331180        -9.0119
  65   2.0000      -0.323710        -8.8086
  66   2.0000      -0.289379        -7.8744
  67   0.0000       0.023746         0.6462
  68   0.0000       0.074909         2.0384
  69   0.0000       0.111717         3.0400
  70   0.0000       0.120675         3.2837
  71   0.0000       0.131229         3.5709

MULLIKEN ATOMIC CHARGES
-----------------------
   0 S :    0.104488
   1 C :   -0.093022
   2 C :   -0.118598
   3 C :    0.025960
   4 C :   -0.111526
   5 H :   -0.005037
   6 C :    0.057442
   7 H :    0.034303
   8 H :    0.035200
   9 C :   -0.089360
  10 H :    0.036267
  11 H :    0.028134
  12 C :   -0.056150
  13 H :    0.029513
  14 H :    0.025485
  15 H :    0.029563
  16 S :    0.100595
  17 C :   -0.103505
  18 C :   -0.029749
  19 C :   -0.052061
  20 C :   -0.137079
  21 H :    0.027398
  22 C :    0.068857
  23 H :   -0.004400
  24 H :    0.025884
  25 C :   -0.078156
  26 H :    0.042750
  27 H :    0.034159
  28 C :   -0.055630
  29 H :    0.021210
  30 H :    0.032208
  31 H :    0.047540
  32 H :    0.050686
  33 H :    0.076632
Sum of atomic charges:    0.0000000

LOEWDIN ATOMIC CHARGES
----------------------
   0 S :    0.432831
   1 C :   -0.211330
   2 C :   -0.056622
   3 C :   -0.067651
   4 C :   -0.206541
   5 H :    0.022980
   6 C :   -0.034117
   7 H :    0.034736
   8 H :    0.030309
   9 C :   -0.039448
  10 H :    0.030123
  11 H :    0.020421
  12 C :   -0.065624
  13 H :    0.021851
  14 H :    0.016882
  15 H :    0.028042
  16 S :    0.406678
  17 C :   -0.197231
  18 C :   -0.080973
  19 C :   -0.055152
  20 C :   -0.186666
  21 H :    0.036348
  22 C :   -0.040729
  23 H :    0.027606
  24 H :    0.030327
  25 C :   -0.044639
  26 H :    0.026587
  27 H :    0.029361
  28 C :   -0.067429
  29 H :    0.018932
  30 H :    0.026262
  31 H :    0.035174
  32 H :    0.037210
  33 H :    0.041491

  Mayer bond orders larger than 0.100000
B(  0-S ,  1-C ) :   1.1282 B(  0-S ,  4-C ) :   1.1666 B(  1-C ,  2-C ) :   1.6000
B(  1-C , 32-H ) :   0.9691 B(  2-C ,  3-C ) :   1.2514 B(  2-C ,  6-C ) :   1.0261
B(  3-C ,  4-C ) :   1.5287 B(  3-C ,  5-H ) :   1.0018 B(  4-C , 20-C ) :   1.0644
B(  6-C ,  7-H ) :   0.9477 B(  6-C ,  8-H ) :   0.9449 B(  6-C ,  9-C ) :   1.0590
B(  9-C , 10-H ) :   0.9557 B(  9-C , 11-H ) :   0.9708 B(  9-C , 12-C ) :   1.0732
B( 12-C , 13-H ) :   0.9763 B( 12-C , 14-H ) :   0.9779 B( 12-C , 15-H ) :   0.9772
B( 16-S , 17-C ) :   1.1664 B( 16-S , 20-C ) :   1.1407 B( 17-C , 18-C ) :   1.5925
B( 17-C , 33-H ) :   0.9591 B( 18-C , 19-C ) :   1.2769 B( 18-C , 21-H ) :   0.9848
B( 19-C , 20-C ) :   1.5570 B( 19-C , 22-C ) :   1.0574 B( 22-C , 23-H ) :   0.9254
B( 22-C , 24-H ) :   0.9173 B( 22-C , 25-C ) :   1.0665 B( 25-C , 26-H ) :   0.9476
B( 25-C , 27-H ) :   0.9538 B( 25-C , 28-C ) :   1.0898 B( 28-C , 29-H ) :   0.9736
B( 28-C , 30-H ) :   0.9728 B( 28-C , 31-H ) :   0.9730

Dispersion correction           -0.013883857
FINAL SINGLE POINT ENERGY     -1339.876473734289

DIPOLE MOMENT
-------------
                                X             Y             Z
Electronic contribution:     -4.78989     -18.42701     -24.10167
Nuclear contribution   :      4.61237      18.93358      24.61847
                        -----------------------------------------
Total Dipole Moment    :     -0.17752       0.50657       0.51680
                        -----------------------------------------
Magnitude (a.u.)       :      0.74512
Magnitude (Debye)      :      1.89394

Rotational constants in cm-1:     0.019998     0.008390     0.006360
Rotational constants in MHz :   599.512140   251.523054   190.677385

                             ****ORCA TERMINATED NORMALLY****
TOTAL RUN TIME: 0 days 0 hours 0 minutes 21 seconds 549 msec
