                         Program Version 4.2.1 -  RELEASE  -
|  1> ! wB97X-D3 SP def2-SVP
|  2> %pal
|  3> nprocs 24
|  4> end
|  5>
|  6> * xyz 0 1
|  7> S 	 -131.152 	 14.6229 	 -7.67509
|  8> C 	 -129.54 	 14.4406 	 -7.01173
|  9> C 	 -129.167 	 13.1484 	 -6.69971
| 10> C 	 -130.089 	 12.2723 	 -7.39654
| 11> C 	 -131.244 	 12.851 	 -7.90878
| 12> H 	 -129.945 	 11.2198 	 -7.50372
| 13> C 	 -127.953 	 12.6571 	 -6.00298
| 14> H 	 -128.143 	 11.7982 	 -5.37775
| 15> H 	 -127.626 	 13.3956 	 -5.28324
| 16> C 	 -126.839 	 12.1947 	 -6.93326
| 17> H 	 -125.95 	 11.843 	 -6.32665
| 18> H 	 -127.319 	 11.4788 	 -7.49234
| 19> C 	 -126.322 	 13.2677 	 -7.90199
| 20> H 	 -126.907 	 13.6155 	 -8.74337
| 21> H 	 -125.952 	 14.1088 	 -7.34264
| 22> H 	 -125.414 	 12.8389 	 -8.40146
| 23> S 	 -133.114 	 13.0469 	 -9.97142
| 24> C 	 -134.161 	 11.714 	 -10.3066
| 25> C 	 -133.985 	 10.7137 	 -9.34867
| 26> C 	 -132.903 	 10.9217 	 -8.46183
| 27> C 	 -132.38 	 12.1936 	 -8.59046
| 28> H 	 -134.665 	 9.83161 	 -9.40899
| 29> C 	 -132.465 	 9.77139 	 -7.59353
| 30> H 	 -133.247 	 9.18552 	 -7.26006
| 31> H 	 -131.974 	 10.1868 	 -6.67894
| 32> C 	 -131.433 	 8.86079 	 -8.18334
| 33> H 	 -130.6 	 9.41924 	 -8.61414
| 34> H 	 -131.929 	 8.34621 	 -9.02527
| 35> C 	 -130.854 	 7.87002 	 -7.18535
| 36> H 	 -130.253 	 8.48374 	 -6.5613
| 37> H 	 -130.254 	 7.1368 	 -7.63227
| 38> H 	 -131.656 	 7.3392 	 -6.6533
| 39> H 	 -129.028 	 15.3941 	 -6.72786
| 40> H 	 -134.74 	 11.5568 	 -11.1975
| 41> *
| 42>
| 43>                          ****END OF INPUT****

CARTESIAN COORDINATES (ANGSTROEM)
---------------------------------
  S    -131.152000   14.622900   -7.675090
  C    -129.540000   14.440600   -7.011730
  C    -129.167000   13.148400   -6.699710
  C    -130.089000   12.272300   -7.396540
  C    -131.244000   12.851000   -7.908780
  H    -129.945000   11.219800   -7.503720
  C    -127.953000   12.657100   -6.002980
  H    -128.143000   11.798200   -5.377750
  H    -127.626000   13.395600   -5.283240
  C    -126.839000   12.194700   -6.933260
  H    -125.950000   11.843000   -6.326650
  H    -127.319000   11.478800   -7.492340
  C    -126.322000   13.267700   -7.901990
  H    -126.907000   13.615500   -8.743370
  H    -125.952000   14.108800   -7.342640
  H    -125.414000   12.838900   -8.401460
  S    -133.114000   13.046900   -9.971420
  C    -134.161000   11.714000  -10.306600
  C    -133.985000   10.713700   -9.348670
  C    -132.903000   10.921700   -8.461830
  C    -132.380000   12.193600   -8.590460
  H    -134.665000    9.831610   -9.408990
  C    -132.465000    9.771390   -7.593530
  H    -133.247000    9.185520   -7.260060
  H    -131.974000   10.186800   -6.678940
  C    -131.433000    8.860790   -8.183340
  H    -130.600000    9.419240   -8.614140
  H    -131.929000    8.346210   -9.025270
  C    -130.854000    7.870020   -7.185350
  H    -130.253000    8.483740   -6.561300
  H    -130.254000    7.136800   -7.632270
  H    -131.656000    7.339200   -6.653300
  H    -129.028000   15.394100   -6.727860
  H    -134.740000   11.556800  -11.197500

 Total Charge           Charge          ....    0
 Multiplicity           Mult            ....    1
 Number of Electrons    NEL             ....  134
 Basis Dimension        Dim             ....  322

ORBITAL ENERGIES
----------------

  NO   OCC          E(Eh)            E(eV)
   0   2.0000     -88.967629     -2420.9323
   1   2.0000     -88.964894     -2420.8578
   2   2.0000     -10.334313      -281.2109
   3   2.0000     -10.332251      -281.1548
   4   2.0000     -10.318819      -280.7893
   5   2.0000     -10.317187      -280.7449
   6   2.0000     -10.304479      -280.3991
   7   2.0000     -10.304424      -280.3976
   8   2.0000     -10.296122      -280.1717
   9   2.0000     -10.295004      -280.1413
  10   2.0000     -10.288721      -279.9703
  11   2.0000     -10.286845      -279.9193
  12   2.0000     -10.286500      -279.9099
  13   2.0000     -10.284133      -279.8455
  14   2.0000     -10.274760      -279.5904
  15   2.0000     -10.273987      -279.5694
  16   2.0000      -8.082136      -219.9261
  17   2.0000      -8.079244      -219.8474
  18   2.0000      -6.040626      -164.3738
  19   2.0000      -6.037831      -164.2977
  20   2.0000      -6.036640      -164.2653
  21   2.0000      -6.034009      -164.1937
  22   2.0000      -6.032950      -164.1649
  23   2.0000      -6.029756      -164.0780
  24   2.0000      -1.003915       -27.3179
  25   2.0000      -0.983280       -26.7564
  26   2.0000      -0.921242       -25.0683
  27   2.0000      -0.917544       -24.9676
  28   2.0000      -0.865143       -23.5417
  29   2.0000      -0.857487       -23.3334
  30   2.0000      -0.843928       -22.9645
  31   2.0000      -0.810964       -22.0675
  32   2.0000      -0.789125       -21.4732
  33   2.0000      -0.779471       -21.2105
  34   2.0000      -0.707123       -19.2418
  35   2.0000      -0.698274       -19.0010
  36   2.0000      -0.690243       -18.7825
  37   2.0000      -0.664002       -18.0684
  38   2.0000      -0.639919       -17.4131
  39   2.0000      -0.625339       -17.0163
  40   2.0000      -0.603057       -16.4100
  41   2.0000      -0.579672       -15.7737
  42   2.0000      -0.569980       -15.5100
  43   2.0000      -0.555453       -15.1146
  44   2.0000      -0.536824       -14.6077
  45   2.0000      -0.525243       -14.2926
  46   2.0000      -0.521707       -14.1964
  47   2.0000      -0.519069       -14.1246
  48   2.0000      -0.508852       -13.8466
  49   2.0000      -0.496725       -13.5166
  50   2.0000      -0.490604       -13.3500
  51   2.0000      -0.477470       -12.9926
  52   2.0000      -0.470363       -12.7992
  53   2.0000      -0.466591       -12.6966
  54   2.0000      -0.457979       -12.4622
  55   2.0000      -0.449480       -12.2310
  56   2.0000      -0.443100       -12.0574
  57   2.0000      -0.438632       -11.9358
  58   2.0000      -0.429965       -11.6999
  59   2.0000      -0.427478       -11.6323
  60   2.0000      -0.424415       -11.5489
  61   2.0000      -0.420147       -11.4328
  62   2.0000      -0.416021       -11.3205
  63   2.0000      -0.352788        -9.5999
  64   2.0000      -0.333439        -9.0733
  65   2.0000      -0.328880        -8.9493
  66   2.0000      -0.284800        -7.7498
  67   0.0000       0.024483         0.6662
  68   0.0000       0.074032         2.0145
  69   0.0000       0.097752         2.6600
  70   0.0000       0.117129         3.1872
  71   0.0000       0.125874         3.4252

MULLIKEN ATOMIC CHARGES
-----------------------
   0 S :    0.097146
   1 C :   -0.149731
   2 C :   -0.064280
   3 C :   -0.002831
   4 C :   -0.112867
   5 H :   -0.020632
   6 C :    0.087724
   7 H :    0.022467
   8 H :    0.016206
   9 C :   -0.047532
  10 H :    0.047424
  11 H :    0.008515
  12 C :   -0.068522
  13 H :    0.047759
  14 H :    0.019624
  15 H :    0.027676
  16 S :    0.107389
  17 C :   -0.091638
  18 C :   -0.060003
  19 C :   -0.021907
  20 C :   -0.134668
  21 H :    0.032349
  22 C :    0.083864
  23 H :    0.001099
  24 H :    0.016704
  25 C :   -0.100494
  26 H :    0.032432
  27 H :    0.018314
  28 C :    0.009325
  29 H :    0.018081
  30 H :    0.025322
  31 H :    0.030579
  32 H :    0.065699
  33 H :    0.059409
Sum of atomic charges:   -0.0000000

LOEWDIN ATOMIC CHARGES
----------------------
   0 S :    0.378482
   1 C :   -0.189273
   2 C :   -0.059508
   3 C :   -0.062957
   4 C :   -0.176285
   5 H :    0.019708
   6 C :   -0.035450
   7 H :    0.033411
   8 H :    0.027541
   9 C :   -0.030569
  10 H :    0.036602
  11 H :    0.012208
  12 C :   -0.072034
  13 H :    0.027035
  14 H :    0.019358
  15 H :    0.031124
  16 S :    0.405658
  17 C :   -0.192658
  18 C :   -0.074924
  19 C :   -0.052113
  20 C :   -0.187361
  21 H :    0.036991
  22 C :   -0.027683
  23 H :    0.020184
  24 H :    0.031260
  25 C :   -0.040506
  26 H :    0.020689
  27 H :    0.020749
  28 C :   -0.051483
  29 H :    0.020481
  30 H :    0.021022
  31 H :    0.027882
  32 H :    0.031318
  33 H :    0.031102

  Mayer bond orders larger than 0.100000
B(  0-S ,  1-C ) :   1.1437 B(  0-S ,  4-C ) :   1.1230 B(  1-C ,  2-C ) :   1.6130
B(  1-C , 32-H ) :   0.9587 B(  2-C ,  3-C ) :   1.2036 B(  2-C ,  6-C ) :   1.0492
B(  3-C ,  4-C ) :   1.6099 B(  3-C ,  5-H ) :   0.9867 B(  4-C , 20-C ) :   1.0530
B(  6-C ,  7-H ) :   0.9315 B(  6-C ,  8-H ) :   0.9350 B(  6-C ,  9-C ) :   1.0682
B(  9-C , 10-H ) :   0.9539 B(  9-C , 11-H ) :   0.9548 B(  9-C , 12-C ) :   1.0816
B( 12-C , 13-H ) :   0.9742 B( 12-C , 14-H ) :   0.9762 B( 12-C , 15-H ) :   0.9729
B( 16-S , 17-C ) :   1.1632 B( 16-S , 20-C ) :   1.1340 B( 17-C , 18-C ) :   1.5975
B( 17-C , 20-C ) :   0.1016 B( 17-C , 33-H ) :   0.9682 B( 18-C , 19-C ) :   1.2510
B( 18-C , 21-H ) :   0.9834 B( 19-C , 20-C ) :   1.5886 B( 19-C , 22-C ) :   1.0529
B( 22-C , 23-H ) :   0.9253 B( 22-C , 24-H ) :   0.9270 B( 22-C , 25-C ) :   1.0690
B( 25-C , 26-H ) :   0.9506 B( 25-C , 27-H ) :   0.9471 B( 25-C , 28-C ) :   1.0842
B( 28-C , 29-H ) :   0.9741 B( 28-C , 30-H ) :   0.9719 B( 28-C , 31-H ) :   0.9719

Dispersion correction           -0.014626488
FINAL SINGLE POINT ENERGY     -1339.875887988981

DIPOLE MOMENT
-------------
                                X             Y             Z
Electronic contribution:    -20.31385      19.56480      -8.23540
Nuclear contribution   :     20.67830     -20.26063       8.35979
                        -----------------------------------------
Total Dipole Moment    :      0.36445      -0.69584       0.12439
                        -----------------------------------------
Magnitude (a.u.)       :      0.79529
Magnitude (Debye)      :      2.02146

Rotational constants in cm-1:     0.017530     0.009660     0.006900
Rotational constants in MHz :   525.538098   289.605470   206.866599

                             ****ORCA TERMINATED NORMALLY****
TOTAL RUN TIME: 0 days 0 hours 0 minutes 22 seconds 100 msec
