                         Program Version 4.2.1 -  RELEASE  -
|  1> ! wB97X-D3 SP def2-SVP
|  2> %pal
|  3> nprocs 24
|  4> end
|  5>
|  6> * xyz 0 1
|  7> S 	 -68.1669 	 6.65202 	 -76.1287
|  8> C 	 -67.3383 	 5.44058 	 -77.1445
|  9> C 	 -68.2436 	 4.72937 	 -77.9248
| 10> C 	 -69.6159 	 5.11924 	 -77.6886
| 11> C 	 -69.7172 	 6.05283 	 -76.6298
| 12> H 	 -70.5134 	 4.69123 	 -78.1307
| 13> C 	 -67.8999 	 3.62791 	 -78.8844
| 14> H 	 -66.9225 	 3.72751 	 -79.1806
| 15> H 	 -68.4978 	 3.79714 	 -79.7396
| 16> C 	 -68.1658 	 2.16044 	 -78.5082
| 17> H 	 -67.8926 	 1.51521 	 -79.3343
| 18> H 	 -67.4756 	 1.92042 	 -77.6683
| 19> C 	 -69.5627 	 1.80338 	 -78.0876
| 20> H 	 -69.7365 	 2.41179 	 -77.1462
| 21> H 	 -70.2296 	 2.17455 	 -78.8361
| 22> H 	 -69.7448 	 0.754059 	 -77.9676
| 23> S 	 -70.8432 	 8.57304 	 -76.1992
| 24> C 	 -72.592 	 8.60939 	 -75.8349
| 25> C 	 -73.0485 	 7.33914 	 -75.5268
| 26> C 	 -72.1659 	 6.30411 	 -75.8066
| 27> C 	 -70.9146 	 6.7532 	 -76.1948
| 28> H 	 -73.9972 	 7.17022 	 -75.1294
| 29> C 	 -72.5964 	 4.84217 	 -75.8275
| 30> H 	 -72.2395 	 4.35671 	 -74.9634
| 31> H 	 -72.1673 	 4.22911 	 -76.6381
| 32> C 	 -74.0639 	 4.45226 	 -75.6814
| 33> H 	 -74.6245 	 4.91371 	 -76.4798
| 34> H 	 -74.4646 	 4.94113 	 -74.7468
| 35> C 	 -74.4052 	 2.94335 	 -75.5501
| 36> H 	 -74.085 	 2.39817 	 -74.6306
| 37> H 	 -73.9833 	 2.34765 	 -76.3871
| 38> H 	 -75.4904 	 2.75322 	 -75.7841
| 39> H 	 -66.3006 	 5.39188 	 -77.3675
| 40> H 	 -72.9909 	 9.47066 	 -75.3943
| 41> *
| 42>
| 43>                          ****END OF INPUT****

CARTESIAN COORDINATES (ANGSTROEM)
---------------------------------
  S    -68.166900    6.652020  -76.128700
  C    -67.338300    5.440580  -77.144500
  C    -68.243600    4.729370  -77.924800
  C    -69.615900    5.119240  -77.688600
  C    -69.717200    6.052830  -76.629800
  H    -70.513400    4.691230  -78.130700
  C    -67.899900    3.627910  -78.884400
  H    -66.922500    3.727510  -79.180600
  H    -68.497800    3.797140  -79.739600
  C    -68.165800    2.160440  -78.508200
  H    -67.892600    1.515210  -79.334300
  H    -67.475600    1.920420  -77.668300
  C    -69.562700    1.803380  -78.087600
  H    -69.736500    2.411790  -77.146200
  H    -70.229600    2.174550  -78.836100
  H    -69.744800    0.754059  -77.967600
  S    -70.843200    8.573040  -76.199200
  C    -72.592000    8.609390  -75.834900
  C    -73.048500    7.339140  -75.526800
  C    -72.165900    6.304110  -75.806600
  C    -70.914600    6.753200  -76.194800
  H    -73.997200    7.170220  -75.129400
  C    -72.596400    4.842170  -75.827500
  H    -72.239500    4.356710  -74.963400
  H    -72.167300    4.229110  -76.638100
  C    -74.063900    4.452260  -75.681400
  H    -74.624500    4.913710  -76.479800
  H    -74.464600    4.941130  -74.746800
  C    -74.405200    2.943350  -75.550100
  H    -74.085000    2.398170  -74.630600
  H    -73.983300    2.347650  -76.387100
  H    -75.490400    2.753220  -75.784100
  H    -66.300600    5.391880  -77.367500
  H    -72.990900    9.470660  -75.394300

 Total Charge           Charge          ....    0
 Multiplicity           Mult            ....    1
 Number of Electrons    NEL             ....  134
 Basis Dimension        Dim             ....  322

ORBITAL ENERGIES
----------------

  NO   OCC          E(Eh)            E(eV)
   0   2.0000     -88.970454     -2421.0091
   1   2.0000     -88.965290     -2420.8686
   2   2.0000     -10.333044      -281.1764
   3   2.0000     -10.332482      -281.1611
   4   2.0000     -10.315645      -280.7030
   5   2.0000     -10.314811      -280.6803
   6   2.0000     -10.305206      -280.4189
   7   2.0000     -10.304541      -280.4008
   8   2.0000     -10.300458      -280.2897
   9   2.0000     -10.294864      -280.1375
  10   2.0000     -10.292797      -280.0812
  11   2.0000     -10.290377      -280.0154
  12   2.0000     -10.290292      -280.0131
  13   2.0000     -10.285605      -279.8855
  14   2.0000     -10.282633      -279.8047
  15   2.0000     -10.276207      -279.6298
  16   2.0000      -8.084631      -219.9940
  17   2.0000      -8.078617      -219.8304
  18   2.0000      -6.043180      -164.4433
  19   2.0000      -6.039228      -164.3357
  20   2.0000      -6.037197      -164.2805
  21   2.0000      -6.035368      -164.2307
  22   2.0000      -6.033485      -164.1795
  23   2.0000      -6.029215      -164.0633
  24   2.0000      -1.002793       -27.2874
  25   2.0000      -0.979631       -26.6571
  26   2.0000      -0.918691       -24.9989
  27   2.0000      -0.909143       -24.7391
  28   2.0000      -0.870586       -23.6898
  29   2.0000      -0.852207       -23.1897
  30   2.0000      -0.844072       -22.9684
  31   2.0000      -0.814888       -22.1742
  32   2.0000      -0.789717       -21.4893
  33   2.0000      -0.778125       -21.1739
  34   2.0000      -0.706299       -19.2194
  35   2.0000      -0.704705       -19.1760
  36   2.0000      -0.698633       -19.0108
  37   2.0000      -0.660455       -17.9719
  38   2.0000      -0.641060       -17.4441
  39   2.0000      -0.616173       -16.7669
  40   2.0000      -0.604488       -16.4489
  41   2.0000      -0.575654       -15.6643
  42   2.0000      -0.569870       -15.5070
  43   2.0000      -0.554548       -15.0900
  44   2.0000      -0.549726       -14.9588
  45   2.0000      -0.518437       -14.1074
  46   2.0000      -0.517056       -14.0698
  47   2.0000      -0.513429       -13.9711
  48   2.0000      -0.505326       -13.7506
  49   2.0000      -0.495060       -13.4713
  50   2.0000      -0.489579       -13.3221
  51   2.0000      -0.483832       -13.1657
  52   2.0000      -0.476772       -12.9736
  53   2.0000      -0.467788       -12.7292
  54   2.0000      -0.457121       -12.4389
  55   2.0000      -0.455475       -12.3941
  56   2.0000      -0.447264       -12.1707
  57   2.0000      -0.441309       -12.0086
  58   2.0000      -0.427238       -11.6257
  59   2.0000      -0.423290       -11.5183
  60   2.0000      -0.421968       -11.4823
  61   2.0000      -0.416839       -11.3428
  62   2.0000      -0.412986       -11.2379
  63   2.0000      -0.344854        -9.3839
  64   2.0000      -0.334226        -9.0948
  65   2.0000      -0.330378        -8.9900
  66   2.0000      -0.289818        -7.8864
  67   0.0000       0.017362         0.4724
  68   0.0000       0.061034         1.6608
  69   0.0000       0.101640         2.7658
  70   0.0000       0.118184         3.2160
  71   0.0000       0.126514         3.4426

MULLIKEN ATOMIC CHARGES
-----------------------
   0 S :    0.106158
   1 C :   -0.096113
   2 C :   -0.119127
   3 C :    0.022493
   4 C :   -0.151578
   5 H :    0.024423
   6 C :    0.136641
   7 H :   -0.006589
   8 H :    0.010555
   9 C :   -0.081918
  10 H :    0.027377
  11 H :    0.028207
  12 C :   -0.055223
  13 H :    0.053618
  14 H :    0.015132
  15 H :    0.039476
  16 S :    0.080468
  17 C :   -0.049039
  18 C :   -0.042416
  19 C :    0.007670
  20 C :   -0.163520
  21 H :   -0.002528
  22 C :    0.091297
  23 H :    0.017252
  24 H :    0.024164
  25 C :   -0.116290
  26 H :    0.029482
  27 H :    0.036888
  28 C :   -0.074429
  29 H :    0.052318
  30 H :    0.025185
  31 H :    0.042495
  32 H :    0.037344
  33 H :    0.050127
Sum of atomic charges:   -0.0000000

LOEWDIN ATOMIC CHARGES
----------------------
   0 S :    0.403809
   1 C :   -0.190021
   2 C :   -0.054706
   3 C :   -0.059159
   4 C :   -0.194211
   5 H :    0.031003
   6 C :   -0.023983
   7 H :    0.020117
   8 H :    0.027915
   9 C :   -0.037897
  10 H :    0.022358
  11 H :    0.024683
  12 C :   -0.067450
  13 H :    0.036055
  14 H :    0.015956
  15 H :    0.025821
  16 S :    0.361867
  17 C :   -0.169253
  18 C :   -0.056374
  19 C :   -0.054669
  20 C :   -0.168916
  21 H :    0.022006
  22 C :   -0.036995
  23 H :    0.031965
  24 H :    0.031394
  25 C :   -0.046024
  26 H :    0.019360
  27 H :    0.026886
  28 C :   -0.078024
  29 H :    0.031473
  30 H :    0.025842
  31 H :    0.037843
  32 H :    0.023758
  33 H :    0.017570

  Mayer bond orders larger than 0.100000
B(  0-S ,  1-C ) :   1.1212 B(  0-S ,  4-C ) :   1.1588 B(  1-C ,  2-C ) :   1.6228
B(  1-C , 32-H ) :   0.9671 B(  2-C ,  3-C ) :   1.2329 B(  2-C ,  6-C ) :   1.0330
B(  3-C ,  4-C ) :   1.5464 B(  3-C ,  5-H ) :   0.9857 B(  4-C , 20-C ) :   1.0609
B(  6-C ,  7-H ) :   0.9286 B(  6-C ,  8-H ) :   0.9293 B(  6-C ,  9-C ) :   1.0760
B(  9-C , 10-H ) :   0.9526 B(  9-C , 11-H ) :   0.9535 B(  9-C , 12-C ) :   1.0902
B( 12-C , 13-H ) :   0.9673 B( 12-C , 14-H ) :   0.9722 B( 12-C , 15-H ) :   0.9701
B( 16-S , 17-C ) :   1.1390 B( 16-S , 20-C ) :   1.1325 B( 17-C , 18-C ) :   1.6019
B( 17-C , 20-C ) :   0.1109 B( 17-C , 33-H ) :   0.9599 B( 18-C , 19-C ) :   1.2799
B( 18-C , 21-H ) :   0.9843 B( 19-C , 20-C ) :   1.5970 B( 19-C , 22-C ) :   1.0209
B( 22-C , 23-H ) :   0.9162 B( 22-C , 24-H ) :   0.9389 B( 22-C , 25-C ) :   1.0725
B( 25-C , 26-H ) :   0.9547 B( 25-C , 27-H ) :   0.9462 B( 25-C , 28-C ) :   1.0790
B( 28-C , 29-H ) :   0.9750 B( 28-C , 30-H ) :   0.9720 B( 28-C , 31-H ) :   0.9715

Dispersion correction           -0.014259578
FINAL SINGLE POINT ENERGY     -1339.861584935973

DIPOLE MOMENT
-------------
                                X             Y             Z
Electronic contribution:     12.12713      29.16961       5.24196
Nuclear contribution   :    -12.41230     -29.86239      -5.42470
                        -----------------------------------------
Total Dipole Moment    :     -0.28517      -0.69279      -0.18273
                        -----------------------------------------
Magnitude (a.u.)       :      0.77115
Magnitude (Debye)      :      1.96010

Rotational constants in cm-1:     0.015531     0.010315     0.006551
Rotational constants in MHz :   465.607886   309.248043   196.393285

                             ****ORCA TERMINATED NORMALLY****
TOTAL RUN TIME: 0 days 0 hours 0 minutes 21 seconds 947 msec
