                         Program Version 4.2.1 -  RELEASE  -
|  1> ! wB97X-D3 SP def2-SVP
|  2> %pal
|  3> nprocs 24
|  4> end
|  5>
|  6> * xyz 0 1
|  7> S 	 -105.527 	 58.6086 	 -4.28729
|  8> C 	 -104.94 	 59.3635 	 -5.74231
|  9> C 	 -106.003 	 59.5154 	 -6.67138
| 10> C 	 -107.267 	 59.1662 	 -6.04782
| 11> C 	 -107.207 	 58.7362 	 -4.74254
| 12> H 	 -108.295 	 59.229 	 -6.52881
| 13> C 	 -105.855 	 60.0814 	 -8.06411
| 14> H 	 -104.846 	 60.4859 	 -8.12614
| 15> H 	 -106.499 	 60.9582 	 -7.97504
| 16> C 	 -106.225 	 59.05 	 -9.15885
| 17> H 	 -105.825 	 58.033 	 -8.91084
| 18> H 	 -107.317 	 58.8734 	 -9.11707
| 19> C 	 -105.755 	 59.6177 	 -10.4976
| 20> H 	 -105.926 	 59.0018 	 -11.3761
| 21> H 	 -106.338 	 60.6531 	 -10.588
| 22> H 	 -104.733 	 59.8955 	 -10.6355
| 23> S 	 -108.499 	 56.6183 	 -3.54822
| 24> C 	 -110.039 	 56.9387 	 -2.83956
| 25> C 	 -110.279 	 58.2905 	 -2.77762
| 26> C 	 -109.268 	 59.0999 	 -3.34545
| 27> C 	 -108.204 	 58.3298 	 -3.82655
| 28> H 	 -111.178 	 58.5489 	 -2.18189
| 29> C 	 -109.445 	 60.5386 	 -3.33937
| 30> H 	 -108.454 	 60.9535 	 -3.29049
| 31> H 	 -109.91 	 60.719 	 -2.36231
| 32> C 	 -110.351 	 61.1229 	 -4.44344
| 33> H 	 -111.434 	 60.89 	 -4.44
| 34> H 	 -110.103 	 60.789 	 -5.48012
| 35> C 	 -110.262 	 62.6645 	 -4.15772
| 36> H 	 -110.47 	 63.2537 	 -5.11128
| 37> H 	 -109.324 	 63.0599 	 -3.87978
| 38> H 	 -110.833 	 62.9523 	 -3.24752
| 39> H 	 -103.894 	 59.4427 	 -6.08506
| 40> H 	 -110.743 	 56.2418 	 -2.32951
| 41> *
| 42>
| 43>                          ****END OF INPUT****

CARTESIAN COORDINATES (ANGSTROEM)
---------------------------------
  S    -105.527000   58.608600   -4.287290
  C    -104.940000   59.363500   -5.742310
  C    -106.003000   59.515400   -6.671380
  C    -107.267000   59.166200   -6.047820
  C    -107.207000   58.736200   -4.742540
  H    -108.295000   59.229000   -6.528810
  C    -105.855000   60.081400   -8.064110
  H    -104.846000   60.485900   -8.126140
  H    -106.499000   60.958200   -7.975040
  C    -106.225000   59.050000   -9.158850
  H    -105.825000   58.033000   -8.910840
  H    -107.317000   58.873400   -9.117070
  C    -105.755000   59.617700  -10.497600
  H    -105.926000   59.001800  -11.376100
  H    -106.338000   60.653100  -10.588000
  H    -104.733000   59.895500  -10.635500
  S    -108.499000   56.618300   -3.548220
  C    -110.039000   56.938700   -2.839560
  C    -110.279000   58.290500   -2.777620
  C    -109.268000   59.099900   -3.345450
  C    -108.204000   58.329800   -3.826550
  H    -111.178000   58.548900   -2.181890
  C    -109.445000   60.538600   -3.339370
  H    -108.454000   60.953500   -3.290490
  H    -109.910000   60.719000   -2.362310
  C    -110.351000   61.122900   -4.443440
  H    -111.434000   60.890000   -4.440000
  H    -110.103000   60.789000   -5.480120
  C    -110.262000   62.664500   -4.157720
  H    -110.470000   63.253700   -5.111280
  H    -109.324000   63.059900   -3.879780
  H    -110.833000   62.952300   -3.247520
  H    -103.894000   59.442700   -6.085060
  H    -110.743000   56.241800   -2.329510

 Total Charge           Charge          ....    0
 Multiplicity           Mult            ....    1
 Number of Electrons    NEL             ....  134
 Basis Dimension        Dim             ....  322

ORBITAL ENERGIES
----------------

  NO   OCC          E(Eh)            E(eV)
   0   2.0000     -88.965362     -2420.8706
   1   2.0000     -88.960080     -2420.7268
   2   2.0000     -10.323314      -280.9117
   3   2.0000     -10.320683      -280.8401
   4   2.0000     -10.316905      -280.7373
   5   2.0000     -10.315984      -280.7122
   6   2.0000     -10.304373      -280.3963
   7   2.0000     -10.299619      -280.2669
   8   2.0000     -10.298081      -280.2250
   9   2.0000     -10.297825      -280.2181
  10   2.0000     -10.297576      -280.2113
  11   2.0000     -10.293790      -280.1083
  12   2.0000     -10.288875      -279.9745
  13   2.0000     -10.287323      -279.9323
  14   2.0000     -10.286966      -279.9226
  15   2.0000     -10.281949      -279.7861
  16   2.0000      -8.080326      -219.8769
  17   2.0000      -8.075169      -219.7365
  18   2.0000      -6.038826      -164.3248
  19   2.0000      -6.034746      -164.2138
  20   2.0000      -6.033639      -164.1837
  21   2.0000      -6.031126      -164.1153
  22   2.0000      -6.029517      -164.0715
  23   2.0000      -6.026055      -163.9773
  24   2.0000      -1.008631       -27.4463
  25   2.0000      -0.982931       -26.7469
  26   2.0000      -0.914451       -24.8835
  27   2.0000      -0.912354       -24.8264
  28   2.0000      -0.871271       -23.7085
  29   2.0000      -0.851110       -23.1599
  30   2.0000      -0.842015       -22.9124
  31   2.0000      -0.812924       -22.1208
  32   2.0000      -0.779087       -21.2000
  33   2.0000      -0.764082       -20.7917
  34   2.0000      -0.715068       -19.4580
  35   2.0000      -0.708030       -19.2665
  36   2.0000      -0.694405       -18.8957
  37   2.0000      -0.655562       -17.8388
  38   2.0000      -0.640342       -17.4246
  39   2.0000      -0.613309       -16.6890
  40   2.0000      -0.593656       -16.1542
  41   2.0000      -0.567591       -15.4449
  42   2.0000      -0.559554       -15.2262
  43   2.0000      -0.552131       -15.0242
  44   2.0000      -0.530913       -14.4469
  45   2.0000      -0.528788       -14.3891
  46   2.0000      -0.512414       -13.9435
  47   2.0000      -0.510078       -13.8799
  48   2.0000      -0.509074       -13.8526
  49   2.0000      -0.497599       -13.5403
  50   2.0000      -0.492361       -13.3978
  51   2.0000      -0.475735       -12.9454
  52   2.0000      -0.466086       -12.6828
  53   2.0000      -0.465798       -12.6750
  54   2.0000      -0.458319       -12.4715
  55   2.0000      -0.451085       -12.2747
  56   2.0000      -0.444942       -12.1075
  57   2.0000      -0.440648       -11.9906
  58   2.0000      -0.432662       -11.7733
  59   2.0000      -0.421340       -11.4652
  60   2.0000      -0.417411       -11.3583
  61   2.0000      -0.411048       -11.1852
  62   2.0000      -0.406022       -11.0484
  63   2.0000      -0.338818        -9.2197
  64   2.0000      -0.325050        -8.8451
  65   2.0000      -0.322729        -8.7819
  66   2.0000      -0.300172        -8.1681
  67   0.0000       0.037632         1.0240
  68   0.0000       0.059599         1.6218
  69   0.0000       0.117618         3.2005
  70   0.0000       0.123766         3.3678
  71   0.0000       0.130105         3.5403

MULLIKEN ATOMIC CHARGES
-----------------------
   0 S :    0.101585
   1 C :   -0.106271
   2 C :   -0.159598
   3 C :    0.030445
   4 C :   -0.189814
   5 H :    0.033394
   6 C :    0.070844
   7 H :    0.014508
   8 H :    0.041154
   9 C :   -0.070787
  10 H :    0.044591
  11 H :    0.039718
  12 C :   -0.060793
  13 H :    0.036223
  14 H :    0.036382
  15 H :    0.029617
  16 S :    0.121204
  17 C :   -0.106036
  18 C :   -0.066952
  19 C :   -0.009640
  20 C :   -0.148795
  21 H :    0.028270
  22 C :    0.062958
  23 H :    0.032306
  24 H :    0.025325
  25 C :   -0.068746
  26 H :    0.039455
  27 H :    0.031373
  28 C :   -0.046767
  29 H :    0.043083
  30 H :    0.009662
  31 H :    0.033889
  32 H :    0.060715
  33 H :    0.067497
Sum of atomic charges:    0.0000000

LOEWDIN ATOMIC CHARGES
----------------------
   0 S :    0.408513
   1 C :   -0.214554
   2 C :   -0.063353
   3 C :   -0.070510
   4 C :   -0.204569
   5 H :    0.038720
   6 C :   -0.032704
   7 H :    0.028934
   8 H :    0.036962
   9 C :   -0.042485
  10 H :    0.030189
  11 H :    0.030386
  12 C :   -0.074963
  13 H :    0.023711
  14 H :    0.039765
  15 H :    0.020288
  16 S :    0.417451
  17 C :   -0.198402
  18 C :   -0.084636
  19 C :   -0.049092
  20 C :   -0.218665
  21 H :    0.037304
  22 C :   -0.033738
  23 H :    0.034680
  24 H :    0.039393
  25 C :   -0.036472
  26 H :    0.030818
  27 H :    0.024952
  28 C :   -0.073753
  29 H :    0.033406
  30 H :    0.014740
  31 H :    0.031555
  32 H :    0.034906
  33 H :    0.041221

  Mayer bond orders larger than 0.100000
B(  0-S ,  1-C ) :   1.1479 B(  0-S ,  4-C ) :   1.1487 B(  1-C ,  2-C ) :   1.5990
B(  1-C ,  4-C ) :   0.1040 B(  1-C , 32-H ) :   0.9607 B(  2-C ,  3-C ) :   1.2347
B(  2-C ,  6-C ) :   1.0222 B(  3-C ,  4-C ) :   1.5988 B(  3-C ,  5-H ) :   0.9801
B(  4-C , 20-C ) :   1.0265 B(  6-C ,  7-H ) :   0.9477 B(  6-C ,  8-H ) :   0.9352
B(  6-C ,  9-C ) :   1.0371 B(  9-C , 10-H ) :   0.9614 B(  9-C , 11-H ) :   0.9528
B(  9-C , 12-C ) :   1.0726 B( 12-C , 13-H ) :   0.9754 B( 12-C , 14-H ) :   0.9691
B( 12-C , 15-H ) :   0.9789 B( 16-S , 17-C ) :   1.1676 B( 16-S , 20-C ) :   1.1338
B( 17-C , 18-C ) :   1.6204 B( 17-C , 33-H ) :   0.9565 B( 18-C , 19-C ) :   1.2409
B( 18-C , 21-H ) :   0.9831 B( 19-C , 20-C ) :   1.5700 B( 19-C , 22-C ) :   1.0553
B( 22-C , 23-H ) :   0.9324 B( 22-C , 24-H ) :   0.9301 B( 22-C , 25-C ) :   1.0490
B( 25-C , 26-H ) :   0.9549 B( 25-C , 27-H ) :   0.9601 B( 25-C , 28-C ) :   1.0609
B( 28-C , 29-H ) :   0.9742 B( 28-C , 30-H ) :   0.9738 B( 28-C , 31-H ) :   0.9736

Dispersion correction           -0.014078550
FINAL SINGLE POINT ENERGY     -1339.856972142557

DIPOLE MOMENT
-------------
                                X             Y             Z
Electronic contribution:      6.51065     -19.54897      18.68607
Nuclear contribution   :     -6.88383      19.92878     -19.02044
                        -----------------------------------------
Total Dipole Moment    :     -0.37318       0.37981      -0.33437
                        -----------------------------------------
Magnitude (a.u.)       :      0.62875
Magnitude (Debye)      :      1.59815

Rotational constants in cm-1:     0.017473     0.008317     0.006870
Rotational constants in MHz :   523.831144   249.342933   205.970221

                             ****ORCA TERMINATED NORMALLY****
TOTAL RUN TIME: 0 days 0 hours 0 minutes 21 seconds 366 msec
