                         Program Version 4.2.1 -  RELEASE  -
|  1> ! wB97X-D3 SP def2-SVP
|  2> %pal
|  3> nprocs 24
|  4> end
|  5>
|  6> * xyz 0 1
|  7> S 	 -123.832 	 61.0169 	 -58.3614
|  8> C 	 -123.745 	 62.5931 	 -59.0649
|  9> C 	 -124.993 	 63.2558 	 -58.9796
| 10> C 	 -125.971 	 62.4375 	 -58.2915
| 11> C 	 -125.5 	 61.1759 	 -57.8646
| 12> H 	 -126.995 	 62.7359 	 -58.2185
| 13> C 	 -125.142 	 64.7013 	 -59.4196
| 14> H 	 -124.302 	 65.3485 	 -59.0957
| 15> H 	 -126.081 	 65.1182 	 -58.9549
| 16> C 	 -125.429 	 64.781 	 -60.9337
| 17> H 	 -125.374 	 65.7755 	 -61.3294
| 18> H 	 -124.671 	 64.2946 	 -61.5264
| 19> C 	 -126.85 	 64.3609 	 -61.335
| 20> H 	 -127.177 	 63.4256 	 -60.8683
| 21> H 	 -127.597 	 65.0397 	 -61.0551
| 22> H 	 -127.082 	 64.3062 	 -62.4325
| 23> S 	 -125.462 	 59.0557 	 -56.2031
| 24> C 	 -126.722 	 57.9706 	 -56.0488
| 25> C 	 -127.816 	 58.3918 	 -56.698
| 26> C 	 -127.616 	 59.5943 	 -57.4734
| 27> C 	 -126.289 	 60.0783 	 -57.3754
| 28> H 	 -128.778 	 57.8521 	 -56.539
| 29> C 	 -128.745 	 60.1413 	 -58.327
| 30> H 	 -129.313 	 59.3295 	 -58.8516
| 31> H 	 -128.252 	 60.7504 	 -59.1541
| 32> C 	 -129.612 	 61.1774 	 -57.6149
| 33> H 	 -129.159 	 62.1278 	 -57.4291
| 34> H 	 -129.861 	 60.8938 	 -56.6292
| 35> C 	 -131.005 	 61.4608 	 -58.2988
| 36> H 	 -131.65 	 60.6231 	 -58.3691
| 37> H 	 -130.739 	 61.7713 	 -59.2738
| 38> H 	 -131.472 	 62.2653 	 -57.6772
| 39> H 	 -122.869 	 63.0366 	 -59.3871
| 40> H 	 -126.783 	 57.0166 	 -55.6109
| 41> *
| 42>
| 43>                          ****END OF INPUT****

CARTESIAN COORDINATES (ANGSTROEM)
---------------------------------
  S    -123.832000   61.016900  -58.361400
  C    -123.745000   62.593100  -59.064900
  C    -124.993000   63.255800  -58.979600
  C    -125.971000   62.437500  -58.291500
  C    -125.500000   61.175900  -57.864600
  H    -126.995000   62.735900  -58.218500
  C    -125.142000   64.701300  -59.419600
  H    -124.302000   65.348500  -59.095700
  H    -126.081000   65.118200  -58.954900
  C    -125.429000   64.781000  -60.933700
  H    -125.374000   65.775500  -61.329400
  H    -124.671000   64.294600  -61.526400
  C    -126.850000   64.360900  -61.335000
  H    -127.177000   63.425600  -60.868300
  H    -127.597000   65.039700  -61.055100
  H    -127.082000   64.306200  -62.432500
  S    -125.462000   59.055700  -56.203100
  C    -126.722000   57.970600  -56.048800
  C    -127.816000   58.391800  -56.698000
  C    -127.616000   59.594300  -57.473400
  C    -126.289000   60.078300  -57.375400
  H    -128.778000   57.852100  -56.539000
  C    -128.745000   60.141300  -58.327000
  H    -129.313000   59.329500  -58.851600
  H    -128.252000   60.750400  -59.154100
  C    -129.612000   61.177400  -57.614900
  H    -129.159000   62.127800  -57.429100
  H    -129.861000   60.893800  -56.629200
  C    -131.005000   61.460800  -58.298800
  H    -131.650000   60.623100  -58.369100
  H    -130.739000   61.771300  -59.273800
  H    -131.472000   62.265300  -57.677200
  H    -122.869000   63.036600  -59.387100
  H    -126.783000   57.016600  -55.610900

 Total Charge           Charge          ....    0
 Multiplicity           Mult            ....    1
 Number of Electrons    NEL             ....  134
 Basis Dimension        Dim             ....  322

ORBITAL ENERGIES
----------------

  NO   OCC          E(Eh)            E(eV)
   0   2.0000     -88.969718     -2420.9891
   1   2.0000     -88.961177     -2420.7567
   2   2.0000     -10.334764      -281.2232
   3   2.0000     -10.331645      -281.1384
   4   2.0000     -10.313261      -280.6381
   5   2.0000     -10.310099      -280.5521
   6   2.0000     -10.307809      -280.4897
   7   2.0000     -10.304175      -280.3908
   8   2.0000     -10.302823      -280.3541
   9   2.0000     -10.300593      -280.2934
  10   2.0000     -10.300109      -280.2802
  11   2.0000     -10.289934      -280.0033
  12   2.0000     -10.285188      -279.8742
  13   2.0000     -10.281485      -279.7734
  14   2.0000     -10.276907      -279.6489
  15   2.0000     -10.276026      -279.6249
  16   2.0000      -8.084481      -219.9899
  17   2.0000      -8.077525      -219.8006
  18   2.0000      -6.042992      -164.4382
  19   2.0000      -6.038765      -164.3232
  20   2.0000      -6.035990      -164.2476
  21   2.0000      -6.035430      -164.2324
  22   2.0000      -6.031644      -164.1294
  23   2.0000      -6.028389      -164.0408
  24   2.0000      -1.011425       -27.5223
  25   2.0000      -0.987596       -26.8739
  26   2.0000      -0.912567       -24.8322
  27   2.0000      -0.908349       -24.7174
  28   2.0000      -0.874654       -23.8005
  29   2.0000      -0.851025       -23.1576
  30   2.0000      -0.843731       -22.9591
  31   2.0000      -0.818192       -22.2641
  32   2.0000      -0.783084       -21.3088
  33   2.0000      -0.772035       -21.0081
  34   2.0000      -0.712338       -19.3837
  35   2.0000      -0.707624       -19.2554
  36   2.0000      -0.698553       -19.0086
  37   2.0000      -0.660962       -17.9857
  38   2.0000      -0.641582       -17.4583
  39   2.0000      -0.622056       -16.9270
  40   2.0000      -0.596838       -16.2408
  41   2.0000      -0.574687       -15.6380
  42   2.0000      -0.558878       -15.2078
  43   2.0000      -0.553147       -15.0519
  44   2.0000      -0.540795       -14.7158
  45   2.0000      -0.527850       -14.3635
  46   2.0000      -0.522195       -14.2097
  47   2.0000      -0.515826       -14.0363
  48   2.0000      -0.507714       -13.8156
  49   2.0000      -0.501285       -13.6407
  50   2.0000      -0.494520       -13.4566
  51   2.0000      -0.479568       -13.0497
  52   2.0000      -0.471620       -12.8334
  53   2.0000      -0.465328       -12.6622
  54   2.0000      -0.461334       -12.5535
  55   2.0000      -0.451901       -12.2968
  56   2.0000      -0.445003       -12.1092
  57   2.0000      -0.441809       -12.0222
  58   2.0000      -0.432506       -11.7691
  59   2.0000      -0.427427       -11.6309
  60   2.0000      -0.414448       -11.2777
  61   2.0000      -0.410752       -11.1771
  62   2.0000      -0.407820       -11.0973
  63   2.0000      -0.355821        -9.6824
  64   2.0000      -0.331685        -9.0256
  65   2.0000      -0.327847        -8.9212
  66   2.0000      -0.288061        -7.8385
  67   0.0000       0.020363         0.5541
  68   0.0000       0.080466         2.1896
  69   0.0000       0.114590         3.1182
  70   0.0000       0.116089         3.1589
  71   0.0000       0.123947         3.3728

MULLIKEN ATOMIC CHARGES
-----------------------
   0 S :    0.126091
   1 C :   -0.085329
   2 C :   -0.102975
   3 C :    0.035090
   4 C :   -0.112457
   5 H :   -0.014689
   6 C :    0.032854
   7 H :    0.050526
   8 H :    0.029754
   9 C :   -0.031076
  10 H :    0.017687
  11 H :    0.024161
  12 C :   -0.068816
  13 H :    0.026082
  14 H :    0.011134
  15 H :    0.037653
  16 S :    0.096291
  17 C :   -0.033448
  18 C :   -0.077896
  19 C :   -0.032400
  20 C :   -0.146022
  21 H :    0.031186
  22 C :    0.023791
  23 H :    0.043181
  24 H :    0.035057
  25 C :   -0.060817
  26 H :    0.021922
  27 H :    0.007086
  28 C :   -0.037880
  29 H :    0.030107
  30 H :    0.020023
  31 H :    0.042616
  32 H :    0.024874
  33 H :    0.036638
Sum of atomic charges:   -0.0000000

LOEWDIN ATOMIC CHARGES
----------------------
   0 S :    0.430781
   1 C :   -0.189922
   2 C :   -0.059431
   3 C :   -0.059532
   4 C :   -0.206151
   5 H :    0.021982
   6 C :   -0.032979
   7 H :    0.038048
   8 H :    0.035619
   9 C :   -0.040833
  10 H :    0.022017
  11 H :    0.020782
  12 C :   -0.071845
  13 H :    0.021550
  14 H :    0.015636
  15 H :    0.035189
  16 S :    0.429548
  17 C :   -0.204637
  18 C :   -0.082731
  19 C :   -0.052361
  20 C :   -0.193911
  21 H :    0.038421
  22 C :   -0.040722
  23 H :    0.037547
  24 H :    0.037628
  25 C :   -0.038782
  26 H :    0.019527
  27 H :    0.013749
  28 C :   -0.054274
  29 H :    0.017175
  30 H :    0.016295
  31 H :    0.034125
  32 H :    0.013285
  33 H :    0.029209

  Mayer bond orders larger than 0.100000
B(  0-S ,  1-C ) :   1.1644 B(  0-S ,  4-C ) :   1.1625 B(  1-C ,  2-C ) :   1.5524
B(  1-C ,  4-C ) :   0.1057 B(  1-C , 32-H ) :   0.9793 B(  2-C ,  3-C ) :   1.2904
B(  2-C ,  6-C ) :   1.0181 B(  3-C ,  4-C ) :   1.5065 B(  3-C ,  5-H ) :   0.9994
B(  4-C , 20-C ) :   1.0694 B(  6-C ,  7-H ) :   0.9497 B(  6-C ,  8-H ) :   0.9482
B(  6-C ,  9-C ) :   1.0587 B(  9-C , 10-H ) :   0.9539 B(  9-C , 11-H ) :   0.9599
B(  9-C , 12-C ) :   1.0687 B( 12-C , 13-H ) :   0.9782 B( 12-C , 14-H ) :   0.9725
B( 12-C , 15-H ) :   0.9723 B( 16-S , 17-C ) :   1.1619 B( 16-S , 20-C ) :   1.1401
B( 17-C , 18-C ) :   1.6195 B( 17-C , 33-H ) :   0.9648 B( 18-C , 19-C ) :   1.2486
B( 18-C , 21-H ) :   0.9841 B( 19-C , 20-C ) :   1.5616 B( 19-C , 22-C ) :   1.0471
B( 22-C , 23-H ) :   0.9475 B( 22-C , 24-H ) :   0.9322 B( 22-C , 25-C ) :   1.0508
B( 25-C , 26-H ) :   0.9522 B( 25-C , 27-H ) :   0.9549 B( 25-C , 28-C ) :   1.0755
B( 28-C , 29-H ) :   0.9805 B( 28-C , 30-H ) :   0.9771 B( 28-C , 31-H ) :   0.9757

Dispersion correction           -0.014325352
FINAL SINGLE POINT ENERGY     -1339.867270139632

DIPOLE MOMENT
-------------
                                X             Y             Z
Electronic contribution:     22.42648     -17.94974      14.29881
Nuclear contribution   :    -22.92629      18.29271     -14.53074
                        -----------------------------------------
Total Dipole Moment    :     -0.49981       0.34297      -0.23193
                        -----------------------------------------
Magnitude (a.u.)       :      0.64902
Magnitude (Debye)      :      1.64969

Rotational constants in cm-1:     0.016883     0.009904     0.006554
Rotational constants in MHz :   506.140581   296.910609   196.498684

                             ****ORCA TERMINATED NORMALLY****
TOTAL RUN TIME: 0 days 0 hours 0 minutes 21 seconds 759 msec
