                         Program Version 4.2.1 -  RELEASE  -
|  1> ! wB97X-D3 SP def2-SVP
|  2> %pal
|  3> nprocs 24
|  4> end
|  5>
|  6> * xyz 0 1
|  7> S 	 -36.6404 	 -11.1918 	 18.2057
|  8> C 	 -35.5521 	 -12.4994 	 18.0001
|  9> C 	 -35.4841 	 -12.9356 	 16.6996
| 10> C 	 -36.5503 	 -12.3348 	 15.9448
| 11> C 	 -37.2519 	 -11.3405 	 16.6114
| 12> H 	 -36.8041 	 -12.5246 	 14.8908
| 13> C 	 -34.6658 	 -14.0541 	 16.1531
| 14> H 	 -35.4252 	 -14.8271 	 16.0564
| 15> H 	 -34.0362 	 -14.5418 	 16.8613
| 16> C 	 -33.9592 	 -13.7993 	 14.8586
| 17> H 	 -33.6356 	 -14.7272 	 14.4038
| 18> H 	 -34.6371 	 -13.2046 	 14.2502
| 19> C 	 -32.6295 	 -13.0263 	 15.0677
| 20> H 	 -32.2138 	 -12.7972 	 14.1305
| 21> H 	 -32.7117 	 -12.1535 	 15.6352
| 22> H 	 -31.8749 	 -13.6256 	 15.6485
| 23> S 	 -39.7964 	 -11.0257 	 17.2559
| 24> C 	 -40.9193 	 -10.2948 	 16.1554
| 25> C 	 -40.2795 	 -9.85671 	 15.0014
| 26> C 	 -38.8525 	 -10.0817 	 14.9908
| 27> C 	 -38.4357 	 -10.7037 	 16.1524
| 28> H 	 -40.8679 	 -9.47385 	 14.1411
| 29> C 	 -38.0513 	 -9.74022 	 13.8345
| 30> H 	 -38.5359 	 -10.2661 	 13.0017
| 31> H 	 -37.0625 	 -10.0459 	 13.9897
| 32> C 	 -37.9439 	 -8.24667 	 13.5565
| 33> H 	 -37.4523 	 -7.77692 	 14.4113
| 34> H 	 -38.9311 	 -7.93997 	 13.2588
| 35> C 	 -37.0934 	 -7.91521 	 12.4254
| 36> H 	 -37.3346 	 -8.51699 	 11.5533
| 37> H 	 -36.1043 	 -8.04361 	 12.6598
| 38> H 	 -37.2885 	 -6.91069 	 12.1121
| 39> H 	 -35.0085 	 -12.7862 	 18.8372
| 40> H 	 -41.9638 	 -10.2278 	 16.4513
| 41> *
| 42>
| 43>                          ****END OF INPUT****

CARTESIAN COORDINATES (ANGSTROEM)
---------------------------------
  S    -36.640400  -11.191800   18.205700
  C    -35.552100  -12.499400   18.000100
  C    -35.484100  -12.935600   16.699600
  C    -36.550300  -12.334800   15.944800
  C    -37.251900  -11.340500   16.611400
  H    -36.804100  -12.524600   14.890800
  C    -34.665800  -14.054100   16.153100
  H    -35.425200  -14.827100   16.056400
  H    -34.036200  -14.541800   16.861300
  C    -33.959200  -13.799300   14.858600
  H    -33.635600  -14.727200   14.403800
  H    -34.637100  -13.204600   14.250200
  C    -32.629500  -13.026300   15.067700
  H    -32.213800  -12.797200   14.130500
  H    -32.711700  -12.153500   15.635200
  H    -31.874900  -13.625600   15.648500
  S    -39.796400  -11.025700   17.255900
  C    -40.919300  -10.294800   16.155400
  C    -40.279500   -9.856710   15.001400
  C    -38.852500  -10.081700   14.990800
  C    -38.435700  -10.703700   16.152400
  H    -40.867900   -9.473850   14.141100
  C    -38.051300   -9.740220   13.834500
  H    -38.535900  -10.266100   13.001700
  H    -37.062500  -10.045900   13.989700
  C    -37.943900   -8.246670   13.556500
  H    -37.452300   -7.776920   14.411300
  H    -38.931100   -7.939970   13.258800
  C    -37.093400   -7.915210   12.425400
  H    -37.334600   -8.516990   11.553300
  H    -36.104300   -8.043610   12.659800
  H    -37.288500   -6.910690   12.112100
  H    -35.008500  -12.786200   18.837200
  H    -41.963800  -10.227800   16.451300

 Total Charge           Charge          ....    0
 Multiplicity           Mult            ....    1
 Number of Electrons    NEL             ....  134
 Basis Dimension        Dim             ....  322

ORBITAL ENERGIES
----------------

  NO   OCC          E(Eh)            E(eV)
   0   2.0000     -88.961302     -2420.7601
   1   2.0000     -88.958381     -2420.6806
   2   2.0000     -10.322184      -280.8809
   3   2.0000     -10.321013      -280.8490
   4   2.0000     -10.317915      -280.7647
   5   2.0000     -10.305033      -280.4142
   6   2.0000     -10.301060      -280.3061
   7   2.0000     -10.300737      -280.2973
   8   2.0000     -10.297355      -280.2053
   9   2.0000     -10.292671      -280.0778
  10   2.0000     -10.286094      -279.8989
  11   2.0000     -10.284067      -279.8437
  12   2.0000     -10.280994      -279.7601
  13   2.0000     -10.276562      -279.6395
  14   2.0000     -10.269979      -279.4603
  15   2.0000     -10.261417      -279.2273
  16   2.0000      -8.077668      -219.8045
  17   2.0000      -8.073546      -219.6924
  18   2.0000      -6.035965      -164.2469
  19   2.0000      -6.032087      -164.1414
  20   2.0000      -6.031925      -164.1370
  21   2.0000      -6.028578      -164.0460
  22   2.0000      -6.027907      -164.0277
  23   2.0000      -6.024308      -163.9298
  24   2.0000      -1.012567       -27.5534
  25   2.0000      -0.985783       -26.8245
  26   2.0000      -0.927670       -25.2432
  27   2.0000      -0.919416       -25.0186
  28   2.0000      -0.873623       -23.7725
  29   2.0000      -0.864358       -23.5204
  30   2.0000      -0.847145       -23.0520
  31   2.0000      -0.811111       -22.0715
  32   2.0000      -0.786832       -21.4108
  33   2.0000      -0.777016       -21.1437
  34   2.0000      -0.710356       -19.3298
  35   2.0000      -0.697104       -18.9692
  36   2.0000      -0.694015       -18.8851
  37   2.0000      -0.662205       -18.0195
  38   2.0000      -0.647890       -17.6300
  39   2.0000      -0.625757       -17.0277
  40   2.0000      -0.606090       -16.4926
  41   2.0000      -0.588306       -16.0086
  42   2.0000      -0.567855       -15.4521
  43   2.0000      -0.554338       -15.0843
  44   2.0000      -0.538455       -14.6521
  45   2.0000      -0.531423       -14.4608
  46   2.0000      -0.525149       -14.2900
  47   2.0000      -0.520684       -14.1685
  48   2.0000      -0.506044       -13.7702
  49   2.0000      -0.499824       -13.6009
  50   2.0000      -0.490610       -13.3502
  51   2.0000      -0.487436       -13.2638
  52   2.0000      -0.472044       -12.8450
  53   2.0000      -0.465263       -12.6605
  54   2.0000      -0.459258       -12.4970
  55   2.0000      -0.452722       -12.3192
  56   2.0000      -0.445883       -12.1331
  57   2.0000      -0.436637       -11.8815
  58   2.0000      -0.431720       -11.7477
  59   2.0000      -0.426902       -11.6166
  60   2.0000      -0.422734       -11.5032
  61   2.0000      -0.415135       -11.2964
  62   2.0000      -0.413842       -11.2612
  63   2.0000      -0.344047        -9.3620
  64   2.0000      -0.327993        -8.9251
  65   2.0000      -0.323161        -8.7937
  66   2.0000      -0.291522        -7.9327
  67   0.0000       0.034711         0.9445
  68   0.0000       0.074550         2.0286
  69   0.0000       0.113429         3.0865
  70   0.0000       0.117500         3.1973
  71   0.0000       0.133560         3.6344

MULLIKEN ATOMIC CHARGES
-----------------------
   0 S :    0.114069
   1 C :   -0.126135
   2 C :   -0.052510
   3 C :    0.005950
   4 C :   -0.167860
   5 H :    0.022045
   6 C :    0.086187
   7 H :    0.033533
   8 H :   -0.002093
   9 C :   -0.051934
  10 H :    0.030805
  11 H :    0.027467
  12 C :   -0.034139
  13 H :    0.023504
  14 H :    0.020703
  15 H :    0.023090
  16 S :    0.088160
  17 C :   -0.095525
  18 C :   -0.050330
  19 C :   -0.022763
  20 C :   -0.147532
  21 H :    0.032665
  22 C :    0.084461
  23 H :    0.029550
  24 H :   -0.006178
  25 C :   -0.070594
  26 H :    0.035279
  27 H :    0.014404
  28 C :    0.022403
  29 H :    0.007465
  30 H :    0.010677
  31 H :    0.024538
  32 H :    0.025267
  33 H :    0.065367
Sum of atomic charges:   -0.0000000

LOEWDIN ATOMIC CHARGES
----------------------
   0 S :    0.429944
   1 C :   -0.194902
   2 C :   -0.060134
   3 C :   -0.065083
   4 C :   -0.219089
   5 H :    0.031303
   6 C :   -0.036644
   7 H :    0.039598
   8 H :    0.023991
   9 C :   -0.031858
  10 H :    0.027622
  11 H :    0.023497
  12 C :   -0.057730
  13 H :    0.018282
  14 H :    0.015965
  15 H :    0.028443
  16 S :    0.396770
  17 C :   -0.184376
  18 C :   -0.077150
  19 C :   -0.051866
  20 C :   -0.188017
  21 H :    0.035419
  22 C :   -0.031378
  23 H :    0.036873
  24 H :    0.020440
  25 C :   -0.032033
  26 H :    0.032679
  27 H :    0.019960
  28 C :   -0.053595
  29 H :    0.022377
  30 H :    0.012295
  31 H :    0.027044
  32 H :    0.011907
  33 H :    0.029444

  Mayer bond orders larger than 0.100000
B(  0-S ,  1-C ) :   1.1553 B(  0-S ,  4-C ) :   1.1605 B(  1-C ,  2-C ) :   1.5702
B(  1-C , 32-H ) :   0.9840 B(  2-C ,  3-C ) :   1.2346 B(  2-C ,  6-C ) :   1.0260
B(  3-C ,  4-C ) :   1.5727 B(  3-C ,  5-H ) :   0.9834 B(  4-C , 20-C ) :   1.0429
B(  6-C ,  7-H ) :   0.9301 B(  6-C ,  8-H ) :   0.9380 B(  6-C ,  9-C ) :   1.0755
B(  9-C , 10-H ) :   0.9521 B(  9-C , 11-H ) :   0.9572 B(  9-C , 12-C ) :   1.0773
B( 12-C , 13-H ) :   0.9747 B( 12-C , 14-H ) :   0.9783 B( 12-C , 15-H ) :   0.9734
B( 16-S , 17-C ) :   1.1633 B( 16-S , 20-C ) :   1.1283 B( 17-C , 18-C ) :   1.5992
B( 17-C , 33-H ) :   0.9707 B( 18-C , 19-C ) :   1.2087 B( 18-C , 21-H ) :   0.9854
B( 19-C , 20-C ) :   1.6072 B( 19-C , 22-C ) :   1.0765 B( 22-C , 23-H ) :   0.9156
B( 22-C , 24-H ) :   0.9216 B( 22-C , 25-C ) :   1.0897 B( 25-C , 26-H ) :   0.9511
B( 25-C , 27-H ) :   0.9492 B( 25-C , 28-C ) :   1.1139 B( 28-C , 29-H ) :   0.9625
B( 28-C , 30-H ) :   0.9699 B( 28-C , 31-H ) :   0.9685

Dispersion correction           -0.013635698
FINAL SINGLE POINT ENERGY     -1339.870006768931

DIPOLE MOMENT
-------------
                                X             Y             Z
Electronic contribution:    -17.16796      -0.85198      22.44117
Nuclear contribution   :     17.33681       0.67847     -23.03461
                        -----------------------------------------
Total Dipole Moment    :      0.16885      -0.17351      -0.59345
                        -----------------------------------------
Magnitude (a.u.)       :      0.64093
Magnitude (Debye)      :      1.62912

Rotational constants in cm-1:     0.017177     0.009162     0.006724
Rotational constants in MHz :   514.959005   274.679665   201.592874

                             ****ORCA TERMINATED NORMALLY****
TOTAL RUN TIME: 0 days 0 hours 0 minutes 21 seconds 492 msec
