                         Program Version 4.2.1 -  RELEASE  -
|  1> ! wB97X-D3 SP def2-SVP
|  2> %pal
|  3> nprocs 24
|  4> end
|  5>
|  6> * xyz 0 1
|  7> S 	 -41.0474 	 -10.3379 	 18.7654
|  8> C 	 -39.6994 	 -11.2737 	 19.3557
|  9> C 	 -38.7836 	 -11.4761 	 18.332
| 10> C 	 -39.0655 	 -10.719 	 17.1431
| 11> C 	 -40.2482 	 -9.9824 	 17.2536
| 12> H 	 -38.4559 	 -10.6811 	 16.2874
| 13> C 	 -37.4573 	 -12.2375 	 18.5781
| 14> H 	 -37.5451 	 -13.0751 	 17.8988
| 15> H 	 -37.4179 	 -12.6296 	 19.6237
| 16> C 	 -36.1896 	 -11.4298 	 18.2715
| 17> H 	 -36.2897 	 -10.88 	 17.3606
| 18> H 	 -36.1624 	 -10.5451 	 18.9746
| 19> C 	 -34.9044 	 -12.3602 	 18.3535
| 20> H 	 -33.998 	 -11.7693 	 18.1318
| 21> H 	 -34.8012 	 -12.997 	 19.308
| 22> H 	 -34.7979 	 -13.1492 	 17.6006
| 23> S 	 -41.078 	 -9.36309 	 14.7696
| 24> C 	 -41.866 	 -7.87465 	 14.4235
| 25> C 	 -41.8759 	 -7.06558 	 15.4948
| 26> C 	 -41.3846 	 -7.64549 	 16.7201
| 27> C 	 -40.7929 	 -8.91273 	 16.4401
| 28> H 	 -42.1967 	 -6.04227 	 15.4953
| 29> C 	 -41.3476 	 -6.84213 	 18.073
| 30> H 	 -41.085 	 -7.47576 	 18.9679
| 31> H 	 -42.3438 	 -6.48369 	 18.2245
| 32> C 	 -40.3751 	 -5.62801 	 18.0181
| 33> H 	 -40.5155 	 -4.88661 	 18.809
| 34> H 	 -40.5935 	 -4.82878 	 17.2811
| 35> C 	 -38.8776 	 -6.02566 	 17.9633
| 36> H 	 -38.8107 	 -6.86853 	 17.2499
| 37> H 	 -38.5539 	 -6.336 	 18.945
| 38> H 	 -38.226 	 -5.18363 	 17.612
| 39> H 	 -39.5824 	 -11.6746 	 20.3713
| 40> H 	 -42.111 	 -7.52887 	 13.4618
| 41> *
| 42>
| 43>                          ****END OF INPUT****

CARTESIAN COORDINATES (ANGSTROEM)
---------------------------------
  S    -41.047400  -10.337900   18.765400
  C    -39.699400  -11.273700   19.355700
  C    -38.783600  -11.476100   18.332000
  C    -39.065500  -10.719000   17.143100
  C    -40.248200   -9.982400   17.253600
  H    -38.455900  -10.681100   16.287400
  C    -37.457300  -12.237500   18.578100
  H    -37.545100  -13.075100   17.898800
  H    -37.417900  -12.629600   19.623700
  C    -36.189600  -11.429800   18.271500
  H    -36.289700  -10.880000   17.360600
  H    -36.162400  -10.545100   18.974600
  C    -34.904400  -12.360200   18.353500
  H    -33.998000  -11.769300   18.131800
  H    -34.801200  -12.997000   19.308000
  H    -34.797900  -13.149200   17.600600
  S    -41.078000   -9.363090   14.769600
  C    -41.866000   -7.874650   14.423500
  C    -41.875900   -7.065580   15.494800
  C    -41.384600   -7.645490   16.720100
  C    -40.792900   -8.912730   16.440100
  H    -42.196700   -6.042270   15.495300
  C    -41.347600   -6.842130   18.073000
  H    -41.085000   -7.475760   18.967900
  H    -42.343800   -6.483690   18.224500
  C    -40.375100   -5.628010   18.018100
  H    -40.515500   -4.886610   18.809000
  H    -40.593500   -4.828780   17.281100
  C    -38.877600   -6.025660   17.963300
  H    -38.810700   -6.868530   17.249900
  H    -38.553900   -6.336000   18.945000
  H    -38.226000   -5.183630   17.612000
  H    -39.582400  -11.674600   20.371300
  H    -42.111000   -7.528870   13.461800

 Total Charge           Charge          ....    0
 Multiplicity           Mult            ....    1
 Number of Electrons    NEL             ....  134
 Basis Dimension        Dim             ....  322

ORBITAL ENERGIES
----------------

  NO   OCC          E(Eh)            E(eV)
   0   2.0000     -88.964947     -2420.8593
   1   2.0000     -88.964309     -2420.8419
   2   2.0000     -10.332112      -281.1511
   3   2.0000     -10.331899      -281.1453
   4   2.0000     -10.314012      -280.6585
   5   2.0000     -10.313671      -280.6493
   6   2.0000     -10.310106      -280.5522
   7   2.0000     -10.303131      -280.3624
   8   2.0000     -10.302046      -280.3329
   9   2.0000     -10.296559      -280.1836
  10   2.0000     -10.295383      -280.1516
  11   2.0000     -10.295131      -280.1448
  12   2.0000     -10.291994      -280.0594
  13   2.0000     -10.290742      -280.0253
  14   2.0000     -10.287753      -279.9440
  15   2.0000     -10.275920      -279.6220
  16   2.0000      -8.079717      -219.8603
  17   2.0000      -8.079560      -219.8560
  18   2.0000      -6.038183      -164.3073
  19   2.0000      -6.038023      -164.3030
  20   2.0000      -6.034076      -164.1956
  21   2.0000      -6.033981      -164.1930
  22   2.0000      -6.030529      -164.0990
  23   2.0000      -6.030467      -164.0974
  24   2.0000      -1.007527       -27.4162
  25   2.0000      -0.985002       -26.8033
  26   2.0000      -0.905330       -24.6353
  27   2.0000      -0.899813       -24.4851
  28   2.0000      -0.870511       -23.6878
  29   2.0000      -0.845609       -23.0102
  30   2.0000      -0.838647       -22.8208
  31   2.0000      -0.813949       -22.1487
  32   2.0000      -0.780652       -21.2426
  33   2.0000      -0.768752       -20.9188
  34   2.0000      -0.713537       -19.4163
  35   2.0000      -0.700587       -19.0640
  36   2.0000      -0.691292       -18.8110
  37   2.0000      -0.663060       -18.0428
  38   2.0000      -0.639523       -17.4023
  39   2.0000      -0.619209       -16.8495
  40   2.0000      -0.599107       -16.3025
  41   2.0000      -0.567617       -15.4457
  42   2.0000      -0.553384       -15.0584
  43   2.0000      -0.551315       -15.0020
  44   2.0000      -0.531973       -14.4757
  45   2.0000      -0.522198       -14.2097
  46   2.0000      -0.510950       -13.9037
  47   2.0000      -0.509681       -13.8691
  48   2.0000      -0.503088       -13.6897
  49   2.0000      -0.493842       -13.4381
  50   2.0000      -0.488393       -13.2899
  51   2.0000      -0.478750       -13.0274
  52   2.0000      -0.470432       -12.8011
  53   2.0000      -0.467936       -12.7332
  54   2.0000      -0.456087       -12.4107
  55   2.0000      -0.450429       -12.2568
  56   2.0000      -0.444389       -12.0924
  57   2.0000      -0.440980       -11.9997
  58   2.0000      -0.436470       -11.8770
  59   2.0000      -0.426399       -11.6029
  60   2.0000      -0.415531       -11.3072
  61   2.0000      -0.409901       -11.1540
  62   2.0000      -0.399956       -10.8834
  63   2.0000      -0.349663        -9.5148
  64   2.0000      -0.332298        -9.0423
  65   2.0000      -0.326736        -8.8909
  66   2.0000      -0.292872        -7.9694
  67   0.0000       0.024739         0.6732
  68   0.0000       0.080814         2.1991
  69   0.0000       0.113782         3.0962
  70   0.0000       0.117163         3.1882
  71   0.0000       0.132997         3.6190

MULLIKEN ATOMIC CHARGES
-----------------------
   0 S :    0.115068
   1 C :   -0.144039
   2 C :   -0.084276
   3 C :    0.042746
   4 C :   -0.136605
   5 H :   -0.001965
   6 C :    0.059621
   7 H :    0.033246
   8 H :    0.028539
   9 C :   -0.072053
  10 H :    0.022760
  11 H :    0.037736
  12 C :   -0.079534
  13 H :    0.040198
  14 H :    0.046515
  15 H :    0.028093
  16 S :    0.103515
  17 C :   -0.044382
  18 C :   -0.028358
  19 C :   -0.060909
  20 C :   -0.168345
  21 H :    0.010739
  22 C :    0.090754
  23 H :    0.044726
  24 H :    0.024538
  25 C :   -0.099043
  26 H :    0.014314
  27 H :    0.014836
  28 C :   -0.053007
  29 H :    0.045135
  30 H :    0.031724
  31 H :    0.040132
  32 H :    0.057866
  33 H :    0.039717
Sum of atomic charges:   -0.0000000

LOEWDIN ATOMIC CHARGES
----------------------
   0 S :    0.420752
   1 C :   -0.209779
   2 C :   -0.061499
   3 C :   -0.061956
   4 C :   -0.193350
   5 H :    0.022650
   6 C :   -0.031018
   7 H :    0.029808
   8 H :    0.032308
   9 C :   -0.043868
  10 H :    0.019589
  11 H :    0.033280
  12 C :   -0.080725
  13 H :    0.029541
  14 H :    0.036137
  15 H :    0.024559
  16 S :    0.419866
  17 C :   -0.185867
  18 C :   -0.066502
  19 C :   -0.051207
  20 C :   -0.205014
  21 H :    0.028703
  22 C :   -0.027489
  23 H :    0.032095
  24 H :    0.029501
  25 C :   -0.059412
  26 H :    0.023411
  27 H :    0.023856
  28 C :   -0.066719
  29 H :    0.029242
  30 H :    0.021301
  31 H :    0.031184
  32 H :    0.033888
  33 H :    0.022732

  Mayer bond orders larger than 0.100000
B(  0-S ,  1-C ) :   1.1372 B(  0-S ,  4-C ) :   1.1621 B(  1-C ,  2-C ) :   1.6066
B(  1-C , 32-H ) :   0.9673 B(  2-C ,  3-C ) :   1.2423 B(  2-C ,  6-C ) :   1.0177
B(  3-C ,  4-C ) :   1.5509 B(  3-C ,  5-H ) :   0.9996 B(  4-C , 20-C ) :   1.0329
B(  6-C ,  7-H ) :   0.9357 B(  6-C ,  8-H ) :   0.9502 B(  6-C ,  9-C ) :   1.0594
B(  9-C , 10-H ) :   0.9562 B(  9-C , 11-H ) :   0.9557 B(  9-C , 12-C ) :   1.0587
B( 12-C , 13-H ) :   0.9758 B( 12-C , 14-H ) :   0.9764 B( 12-C , 15-H ) :   0.9767
B( 16-S , 17-C ) :   1.1494 B( 16-S , 20-C ) :   1.1560 B( 17-C , 18-C ) :   1.6132
B( 17-C , 33-H ) :   0.9703 B( 18-C , 19-C ) :   1.2481 B( 18-C , 21-H ) :   0.9879
B( 19-C , 20-C ) :   1.5607 B( 19-C , 22-C ) :   1.0320 B( 22-C , 23-H ) :   0.9430
B( 22-C , 24-H ) :   0.9289 B( 22-C , 25-C ) :   1.0643 B( 25-C , 26-H ) :   0.9505
B( 25-C , 27-H ) :   0.9548 B( 25-C , 28-C ) :   1.0621 B( 28-C , 29-H ) :   0.9795
B( 28-C , 30-H ) :   0.9774 B( 28-C , 31-H ) :   0.9740

Dispersion correction           -0.014585557
FINAL SINGLE POINT ENERGY     -1339.874844719069

DIPOLE MOMENT
-------------
                                X             Y             Z
Electronic contribution:    -21.60462      -5.30208      -9.31108
Nuclear contribution   :     21.96188       5.61650       9.41446
                        -----------------------------------------
Total Dipole Moment    :      0.35726       0.31442       0.10338
                        -----------------------------------------
Magnitude (a.u.)       :      0.48701
Magnitude (Debye)      :      1.23789

Rotational constants in cm-1:     0.019811     0.007805     0.007290
Rotational constants in MHz :   593.930001   233.978892   218.555700

                             ****ORCA TERMINATED NORMALLY****
TOTAL RUN TIME: 0 days 0 hours 0 minutes 21 seconds 468 msec
