                         Program Version 4.2.1 -  RELEASE  -
|  1> ! wB97X-D3 SP def2-SVP
|  2> %pal
|  3> nprocs 24
|  4> end
|  5>
|  6> * xyz 0 1
|  7> S 	 -32.3964 	 -36.7117 	 -84.6428
|  8> C 	 -31.7272 	 -35.1085 	 -85.086
|  9> C 	 -30.9234 	 -35.2494 	 -86.2084
| 10> C 	 -30.9613 	 -36.561 	 -86.8297
| 11> C 	 -31.775 	 -37.4405 	 -86.1109
| 12> H 	 -30.4695 	 -36.7609 	 -87.744
| 13> C 	 -30.1456 	 -34.0712 	 -86.7194
| 14> H 	 -30.0759 	 -33.3553 	 -85.852
| 15> H 	 -30.6999 	 -33.6588 	 -87.5665
| 16> C 	 -28.7992 	 -34.3682 	 -87.3226
| 17> H 	 -28.0868 	 -34.4833 	 -86.5405
| 18> H 	 -28.6327 	 -35.1745 	 -88.0487
| 19> C 	 -28.3977 	 -33.1824 	 -88.1866
| 20> H 	 -27.3747 	 -33.2772 	 -88.6544
| 21> H 	 -29.0667 	 -33.0865 	 -89.028
| 22> H 	 -28.4782 	 -32.1934 	 -87.6447
| 23> S 	 -31.9254 	 -40.1311 	 -85.2453
| 24> C 	 -32.3799 	 -41.4141 	 -86.3553
| 25> C 	 -32.3966 	 -40.8947 	 -87.6267
| 26> C 	 -32.2864 	 -39.4643 	 -87.7246
| 27> C 	 -32.0687 	 -38.8315 	 -86.4877
| 28> H 	 -32.5068 	 -41.5954 	 -88.4498
| 29> C 	 -32.4189 	 -38.7474 	 -89.0986
| 30> H 	 -32.1381 	 -39.4314 	 -89.8913
| 31> H 	 -31.7283 	 -37.9637 	 -89.1628
| 32> C 	 -33.823 	 -38.2462 	 -89.4523
| 33> H 	 -34.0998 	 -37.4875 	 -88.6761
| 34> H 	 -34.6077 	 -39.0151 	 -89.4668
| 35> C 	 -33.9032 	 -37.4961 	 -90.7679
| 36> H 	 -33.8483 	 -38.2591 	 -91.554
| 37> H 	 -33.2375 	 -36.7189 	 -90.9115
| 38> H 	 -34.9226 	 -37.0486 	 -90.7053
| 39> H 	 -31.6613 	 -34.271 	 -84.4467
| 40> H 	 -32.151 	 -42.4363 	 -86.0763
| 41> *
| 42>
| 43>                          ****END OF INPUT****

CARTESIAN COORDINATES (ANGSTROEM)
---------------------------------
  S    -32.396400  -36.711700  -84.642800
  C    -31.727200  -35.108500  -85.086000
  C    -30.923400  -35.249400  -86.208400
  C    -30.961300  -36.561000  -86.829700
  C    -31.775000  -37.440500  -86.110900
  H    -30.469500  -36.760900  -87.744000
  C    -30.145600  -34.071200  -86.719400
  H    -30.075900  -33.355300  -85.852000
  H    -30.699900  -33.658800  -87.566500
  C    -28.799200  -34.368200  -87.322600
  H    -28.086800  -34.483300  -86.540500
  H    -28.632700  -35.174500  -88.048700
  C    -28.397700  -33.182400  -88.186600
  H    -27.374700  -33.277200  -88.654400
  H    -29.066700  -33.086500  -89.028000
  H    -28.478200  -32.193400  -87.644700
  S    -31.925400  -40.131100  -85.245300
  C    -32.379900  -41.414100  -86.355300
  C    -32.396600  -40.894700  -87.626700
  C    -32.286400  -39.464300  -87.724600
  C    -32.068700  -38.831500  -86.487700
  H    -32.506800  -41.595400  -88.449800
  C    -32.418900  -38.747400  -89.098600
  H    -32.138100  -39.431400  -89.891300
  H    -31.728300  -37.963700  -89.162800
  C    -33.823000  -38.246200  -89.452300
  H    -34.099800  -37.487500  -88.676100
  H    -34.607700  -39.015100  -89.466800
  C    -33.903200  -37.496100  -90.767900
  H    -33.848300  -38.259100  -91.554000
  H    -33.237500  -36.718900  -90.911500
  H    -34.922600  -37.048600  -90.705300
  H    -31.661300  -34.271000  -84.446700
  H    -32.151000  -42.436300  -86.076300

 Total Charge           Charge          ....    0
 Multiplicity           Mult            ....    1
 Number of Electrons    NEL             ....  134
 Basis Dimension        Dim             ....  322

ORBITAL ENERGIES
----------------

  NO   OCC          E(Eh)            E(eV)
   0   2.0000     -88.967978     -2420.9418
   1   2.0000     -88.961452     -2420.7642
   2   2.0000     -10.339747      -281.3588
   3   2.0000     -10.337239      -281.2906
   4   2.0000     -10.318319      -280.7757
   5   2.0000     -10.313752      -280.6514
   6   2.0000     -10.311717      -280.5961
   7   2.0000     -10.303366      -280.3689
   8   2.0000     -10.298663      -280.2409
   9   2.0000     -10.297610      -280.2122
  10   2.0000     -10.297437      -280.2075
  11   2.0000     -10.289547      -279.9928
  12   2.0000     -10.285527      -279.8834
  13   2.0000     -10.285182      -279.8740
  14   2.0000     -10.284170      -279.8465
  15   2.0000     -10.273724      -279.5622
  16   2.0000      -8.081873      -219.9189
  17   2.0000      -8.075671      -219.7502
  18   2.0000      -6.040617      -164.3735
  19   2.0000      -6.036452      -164.2602
  20   2.0000      -6.034315      -164.2020
  21   2.0000      -6.032464      -164.1517
  22   2.0000      -6.030148      -164.0887
  23   2.0000      -6.026399      -163.9867
  24   2.0000      -0.999686       -27.2028
  25   2.0000      -0.978859       -26.6361
  26   2.0000      -0.921843       -25.0846
  27   2.0000      -0.908576       -24.7236
  28   2.0000      -0.871801       -23.7229
  29   2.0000      -0.851434       -23.1687
  30   2.0000      -0.842710       -22.9313
  31   2.0000      -0.817022       -22.2323
  32   2.0000      -0.782435       -21.2911
  33   2.0000      -0.770092       -20.9553
  34   2.0000      -0.711985       -19.3741
  35   2.0000      -0.695934       -18.9373
  36   2.0000      -0.690321       -18.7846
  37   2.0000      -0.659091       -17.9348
  38   2.0000      -0.639873       -17.4118
  39   2.0000      -0.625770       -17.0281
  40   2.0000      -0.596395       -16.2287
  41   2.0000      -0.579394       -15.7661
  42   2.0000      -0.571251       -15.5445
  43   2.0000      -0.566902       -15.4262
  44   2.0000      -0.531903       -14.4738
  45   2.0000      -0.524910       -14.2835
  46   2.0000      -0.518979       -14.1221
  47   2.0000      -0.511502       -13.9187
  48   2.0000      -0.502962       -13.6863
  49   2.0000      -0.501609       -13.6495
  50   2.0000      -0.498158       -13.5556
  51   2.0000      -0.481977       -13.1153
  52   2.0000      -0.470484       -12.8025
  53   2.0000      -0.463153       -12.6030
  54   2.0000      -0.457953       -12.4615
  55   2.0000      -0.451272       -12.2797
  56   2.0000      -0.439590       -11.9619
  57   2.0000      -0.436743       -11.8844
  58   2.0000      -0.434778       -11.8309
  59   2.0000      -0.430247       -11.7076
  60   2.0000      -0.416550       -11.3349
  61   2.0000      -0.412691       -11.2299
  62   2.0000      -0.407016       -11.0755
  63   2.0000      -0.351871        -9.5749
  64   2.0000      -0.329404        -8.9635
  65   2.0000      -0.328382        -8.9357
  66   2.0000      -0.292489        -7.9590
  67   0.0000       0.019344         0.5264
  68   0.0000       0.068820         1.8727
  69   0.0000       0.103896         2.8272
  70   0.0000       0.121629         3.3097
  71   0.0000       0.126050         3.4300

MULLIKEN ATOMIC CHARGES
-----------------------
   0 S :    0.106665
   1 C :   -0.111134
   2 C :   -0.098017
   3 C :    0.044548
   4 C :   -0.124991
   5 H :    0.001289
   6 C :    0.057495
   7 H :    0.038372
   8 H :    0.037443
   9 C :   -0.061142
  10 H :    0.028725
  11 H :    0.039727
  12 C :   -0.102658
  13 H :    0.041858
  14 H :    0.025327
  15 H :    0.034331
  16 S :    0.072365
  17 C :   -0.087747
  18 C :   -0.044489
  19 C :   -0.040512
  20 C :   -0.134977
  21 H :    0.024321
  22 C :    0.123510
  23 H :    0.006651
  24 H :   -0.012813
  25 C :   -0.109362
  26 H :    0.035427
  27 H :    0.032900
  28 C :   -0.021103
  29 H :    0.030198
  30 H :    0.018512
  31 H :    0.038720
  32 H :    0.037352
  33 H :    0.073207
Sum of atomic charges:    0.0000000

LOEWDIN ATOMIC CHARGES
----------------------
   0 S :    0.392337
   1 C :   -0.190086
   2 C :   -0.055422
   3 C :   -0.058609
   4 C :   -0.182655
   5 H :    0.022928
   6 C :   -0.032957
   7 H :    0.041258
   8 H :    0.036080
   9 C :   -0.045860
  10 H :    0.021646
  11 H :    0.030361
  12 C :   -0.071605
  13 H :    0.030059
  14 H :    0.017611
  15 H :    0.026170
  16 S :    0.376688
  17 C :   -0.185553
  18 C :   -0.070448
  19 C :   -0.051991
  20 C :   -0.178921
  21 H :    0.032229
  22 C :   -0.026457
  23 H :    0.027101
  24 H :    0.016299
  25 C :   -0.041332
  26 H :    0.027928
  27 H :    0.025796
  28 C :   -0.058349
  29 H :    0.024095
  30 H :    0.011091
  31 H :    0.037010
  32 H :    0.020382
  33 H :    0.033175

  Mayer bond orders larger than 0.100000
B(  0-S ,  1-C ) :   1.1081 B(  0-S ,  4-C ) :   1.1618 B(  1-C ,  2-C ) :   1.6247
B(  1-C , 32-H ) :   0.9716 B(  2-C ,  3-C ) :   1.2349 B(  2-C ,  6-C ) :   1.0268
B(  3-C ,  4-C ) :   1.5465 B(  3-C ,  5-H ) :   0.9956 B(  4-C , 20-C ) :   1.0524
B(  6-C ,  7-H ) :   0.9383 B(  6-C ,  8-H ) :   0.9388 B(  6-C ,  9-C ) :   1.0604
B(  9-C , 10-H ) :   0.9532 B(  9-C , 11-H ) :   0.9552 B(  9-C , 12-C ) :   1.0764
B( 12-C , 13-H ) :   0.9732 B( 12-C , 14-H ) :   0.9759 B( 12-C , 15-H ) :   0.9719
B( 16-S , 17-C ) :   1.1507 B( 16-S , 20-C ) :   1.1394 B( 17-C , 18-C ) :   1.6046
B( 17-C , 20-C ) :   0.1021 B( 17-C , 33-H ) :   0.9622 B( 18-C , 19-C ) :   1.2557
B( 18-C , 21-H ) :   0.9866 B( 19-C , 20-C ) :   1.5796 B( 19-C , 22-C ) :   1.0368
B( 22-C , 23-H ) :   0.9307 B( 22-C , 24-H ) :   0.9305 B( 22-C , 25-C ) :   1.0705
B( 25-C , 26-H ) :   0.9573 B( 25-C , 27-H ) :   0.9564 B( 25-C , 28-C ) :   1.0829
B( 28-C , 29-H ) :   0.9760 B( 28-C , 30-H ) :   0.9753 B( 28-C , 31-H ) :   0.9741

Dispersion correction           -0.013464876
FINAL SINGLE POINT ENERGY     -1339.870045231394

DIPOLE MOMENT
-------------
                                X             Y             Z
Electronic contribution:     -6.11430     -16.96206      24.69871
Nuclear contribution   :      6.49606      17.20542     -25.40958
                        -----------------------------------------
Total Dipole Moment    :      0.38176       0.24336      -0.71087
                        -----------------------------------------
Magnitude (a.u.)       :      0.84279
Magnitude (Debye)      :      2.14220

Rotational constants in cm-1:     0.016657     0.008593     0.006737
Rotational constants in MHz :   499.354204   257.609082   201.983526

                             ****ORCA TERMINATED NORMALLY****
TOTAL RUN TIME: 0 days 0 hours 0 minutes 21 seconds 232 msec
