                         Program Version 4.2.1 -  RELEASE  -
|  1> ! wB97X-D3 SP def2-SVP
|  2> %pal
|  3> nprocs 24
|  4> end
|  5>
|  6> * xyz 0 1
|  7> S 	 -45.1286 	 -5.16137 	 -8.3074
|  8> C 	 -45.7161 	 -4.63448 	 -6.76592
|  9> C 	 -46.8647 	 -3.79797 	 -6.96043
| 10> C 	 -47.3701 	 -3.90761 	 -8.30651
| 11> C 	 -46.6935 	 -4.7205 	 -9.12742
| 12> H 	 -48.2695 	 -3.43316 	 -8.75772
| 13> C 	 -47.6064 	 -3.11411 	 -5.88266
| 14> H 	 -48.1242 	 -2.16929 	 -6.1502
| 15> H 	 -46.7873 	 -2.85627 	 -5.18926
| 16> C 	 -48.6712 	 -3.98084 	 -5.11368
| 17> H 	 -49.5143 	 -4.30627 	 -5.74881
| 18> H 	 -48.3328 	 -4.96535 	 -4.80362
| 19> C 	 -49.0434 	 -3.28292 	 -3.81606
| 20> H 	 -49.7278 	 -3.9849 	 -3.40442
| 21> H 	 -48.2239 	 -3.20363 	 -3.06095
| 22> H 	 -49.3434 	 -2.2128 	 -4.05277
| 23> S 	 -45.9123 	 -5.56845 	 -11.7768
| 24> C 	 -47.0654 	 -6.49251 	 -12.6826
| 25> C 	 -48.3107 	 -6.4257 	 -12.0546
| 26> C 	 -48.2623 	 -5.85267 	 -10.7298
| 27> C 	 -47.0766 	 -5.21525 	 -10.4525
| 28> H 	 -49.1374 	 -6.91739 	 -12.508
| 29> C 	 -49.5097 	 -5.8153 	 -9.78429
| 30> H 	 -50.1363 	 -5.02445 	 -10.2023
| 31> H 	 -49.2519 	 -5.60501 	 -8.76269
| 32> C 	 -50.4639 	 -7.06135 	 -9.68926
| 33> H 	 -49.8945 	 -7.9918 	 -9.49427
| 34> H 	 -50.9465 	 -7.14687 	 -10.6445
| 35> C 	 -51.4944 	 -6.8225 	 -8.59451
| 36> H 	 -51.8976 	 -7.80112 	 -8.49061
| 37> H 	 -52.2729 	 -6.14211 	 -8.76714
| 38> H 	 -51.129 	 -6.57332 	 -7.59553
| 39> H 	 -45.0683 	 -4.56865 	 -5.83253
| 40> H 	 -47.0123 	 -6.99674 	 -13.5707
| 41> *
| 42>
| 43>                          ****END OF INPUT****

CARTESIAN COORDINATES (ANGSTROEM)
---------------------------------
  S    -45.128600   -5.161370   -8.307400
  C    -45.716100   -4.634480   -6.765920
  C    -46.864700   -3.797970   -6.960430
  C    -47.370100   -3.907610   -8.306510
  C    -46.693500   -4.720500   -9.127420
  H    -48.269500   -3.433160   -8.757720
  C    -47.606400   -3.114110   -5.882660
  H    -48.124200   -2.169290   -6.150200
  H    -46.787300   -2.856270   -5.189260
  C    -48.671200   -3.980840   -5.113680
  H    -49.514300   -4.306270   -5.748810
  H    -48.332800   -4.965350   -4.803620
  C    -49.043400   -3.282920   -3.816060
  H    -49.727800   -3.984900   -3.404420
  H    -48.223900   -3.203630   -3.060950
  H    -49.343400   -2.212800   -4.052770
  S    -45.912300   -5.568450  -11.776800
  C    -47.065400   -6.492510  -12.682600
  C    -48.310700   -6.425700  -12.054600
  C    -48.262300   -5.852670  -10.729800
  C    -47.076600   -5.215250  -10.452500
  H    -49.137400   -6.917390  -12.508000
  C    -49.509700   -5.815300   -9.784290
  H    -50.136300   -5.024450  -10.202300
  H    -49.251900   -5.605010   -8.762690
  C    -50.463900   -7.061350   -9.689260
  H    -49.894500   -7.991800   -9.494270
  H    -50.946500   -7.146870  -10.644500
  C    -51.494400   -6.822500   -8.594510
  H    -51.897600   -7.801120   -8.490610
  H    -52.272900   -6.142110   -8.767140
  H    -51.129000   -6.573320   -7.595530
  H    -45.068300   -4.568650   -5.832530
  H    -47.012300   -6.996740  -13.570700

 Total Charge           Charge          ....    0
 Multiplicity           Mult            ....    1
 Number of Electrons    NEL             ....  134
 Basis Dimension        Dim             ....  322

ORBITAL ENERGIES
----------------

  NO   OCC          E(Eh)            E(eV)
   0   2.0000     -88.967831     -2420.9378
   1   2.0000     -88.960540     -2420.7394
   2   2.0000     -10.330094      -281.0962
   3   2.0000     -10.329326      -281.0752
   4   2.0000     -10.322735      -280.8959
   5   2.0000     -10.316960      -280.7388
   6   2.0000     -10.308482      -280.5081
   7   2.0000     -10.305752      -280.4338
   8   2.0000     -10.294767      -280.1349
   9   2.0000     -10.294284      -280.1217
  10   2.0000     -10.292970      -280.0859
  11   2.0000     -10.292309      -280.0680
  12   2.0000     -10.290178      -280.0100
  13   2.0000     -10.288885      -279.9748
  14   2.0000     -10.283859      -279.8380
  15   2.0000     -10.272992      -279.5423
  16   2.0000      -8.081812      -219.9173
  17   2.0000      -8.074807      -219.7267
  18   2.0000      -6.040517      -164.3708
  19   2.0000      -6.036381      -164.2583
  20   2.0000      -6.033485      -164.1795
  21   2.0000      -6.032429      -164.1507
  22   2.0000      -6.029518      -164.0715
  23   2.0000      -6.025266      -163.9558
  24   2.0000      -1.001489       -27.2519
  25   2.0000      -0.980041       -26.6683
  26   2.0000      -0.909856       -24.7584
  27   2.0000      -0.906278       -24.6611
  28   2.0000      -0.873245       -23.7622
  29   2.0000      -0.851485       -23.1701
  30   2.0000      -0.844775       -22.9875
  31   2.0000      -0.819622       -22.3030
  32   2.0000      -0.782553       -21.2943
  33   2.0000      -0.762495       -20.7485
  34   2.0000      -0.705679       -19.2025
  35   2.0000      -0.702625       -19.1194
  36   2.0000      -0.697224       -18.9724
  37   2.0000      -0.654277       -17.8038
  38   2.0000      -0.643121       -17.5002
  39   2.0000      -0.615947       -16.7608
  40   2.0000      -0.594474       -16.1765
  41   2.0000      -0.577474       -15.7139
  42   2.0000      -0.572574       -15.5805
  43   2.0000      -0.549363       -14.9489
  44   2.0000      -0.531426       -14.4608
  45   2.0000      -0.525047       -14.2873
  46   2.0000      -0.521808       -14.1991
  47   2.0000      -0.508849       -13.8465
  48   2.0000      -0.502792       -13.6817
  49   2.0000      -0.500093       -13.6082
  50   2.0000      -0.491566       -13.3762
  51   2.0000      -0.482947       -13.1416
  52   2.0000      -0.476056       -12.9541
  53   2.0000      -0.466483       -12.6936
  54   2.0000      -0.461526       -12.5588
  55   2.0000      -0.447818       -12.1858
  56   2.0000      -0.444172       -12.0865
  57   2.0000      -0.433075       -11.7846
  58   2.0000      -0.429018       -11.6742
  59   2.0000      -0.422568       -11.4987
  60   2.0000      -0.421704       -11.4751
  61   2.0000      -0.408986       -11.1291
  62   2.0000      -0.408203       -11.1078
  63   2.0000      -0.353575        -9.6213
  64   2.0000      -0.329269        -8.9599
  65   2.0000      -0.323075        -8.7913
  66   2.0000      -0.287066        -7.8115
  67   0.0000       0.024073         0.6550
  68   0.0000       0.064776         1.7627
  69   0.0000       0.107857         2.9350
  70   0.0000       0.122273         3.3272
  71   0.0000       0.123530         3.3614

MULLIKEN ATOMIC CHARGES
-----------------------
   0 S :    0.097354
   1 C :   -0.132480
   2 C :   -0.092890
   3 C :   -0.001950
   4 C :   -0.128124
   5 H :    0.033900
   6 C :    0.037343
   7 H :    0.036285
   8 H :    0.021427
   9 C :   -0.074329
  10 H :    0.031652
  11 H :    0.014140
  12 C :   -0.050678
  13 H :    0.031569
  14 H :    0.037120
  15 H :    0.041389
  16 S :    0.102284
  17 C :   -0.043011
  18 C :   -0.033716
  19 C :   -0.032846
  20 C :   -0.144273
  21 H :    0.011082
  22 C :    0.011968
  23 H :    0.042655
  24 H :    0.037243
  25 C :   -0.074507
  26 H :    0.042463
  27 H :    0.025258
  28 C :   -0.024057
  29 H :    0.022965
  30 H :    0.024265
  31 H :    0.025328
  32 H :    0.080516
  33 H :    0.024654
Sum of atomic charges:   -0.0000000

LOEWDIN ATOMIC CHARGES
----------------------
   0 S :    0.374508
   1 C :   -0.214573
   2 C :   -0.066903
   3 C :   -0.069447
   4 C :   -0.162322
   5 H :    0.041910
   6 C :   -0.041886
   7 H :    0.035082
   8 H :    0.033364
   9 C :   -0.043121
  10 H :    0.024700
  11 H :    0.021662
  12 C :   -0.067829
  13 H :    0.025102
  14 H :    0.028405
  15 H :    0.030266
  16 S :    0.391684
  17 C :   -0.168682
  18 C :   -0.071015
  19 C :   -0.044194
  20 C :   -0.195904
  21 H :    0.024140
  22 C :   -0.033069
  23 H :    0.034881
  24 H :    0.025218
  25 C :   -0.034002
  26 H :    0.029267
  27 H :    0.019382
  28 C :   -0.061234
  29 H :    0.028346
  30 H :    0.018731
  31 H :    0.025751
  32 H :    0.044039
  33 H :    0.017743

  Mayer bond orders larger than 0.100000
B(  0-S ,  1-C ) :   1.1478 B(  0-S ,  4-C ) :   1.1087 B(  1-C ,  2-C ) :   1.5878
B(  1-C , 32-H ) :   0.9558 B(  2-C ,  3-C ) :   1.2035 B(  2-C ,  6-C ) :   1.0536
B(  3-C ,  4-C ) :   1.6130 B(  3-C ,  5-H ) :   0.9902 B(  4-C , 20-C ) :   1.0663
B(  6-C ,  7-H ) :   0.9417 B(  6-C ,  8-H ) :   0.9370 B(  6-C ,  9-C ) :   1.0516
B(  9-C , 10-H ) :   0.9550 B(  9-C , 11-H ) :   0.9544 B(  9-C , 12-C ) :   1.0723
B( 12-C , 13-H ) :   0.9727 B( 12-C , 14-H ) :   0.9756 B( 12-C , 15-H ) :   0.9734
B( 16-S , 17-C ) :   1.1563 B( 16-S , 20-C ) :   1.1003 B( 17-C , 18-C ) :   1.6221
B( 17-C , 33-H ) :   0.9742 B( 18-C , 19-C ) :   1.2313 B( 18-C , 21-H ) :   0.9895
B( 19-C , 20-C ) :   1.6106 B( 19-C , 22-C ) :   1.0246 B( 22-C , 23-H ) :   0.9405
B( 22-C , 24-H ) :   0.9412 B( 22-C , 25-C ) :   1.0662 B( 25-C , 26-H ) :   0.9615
B( 25-C , 27-H ) :   0.9481 B( 25-C , 28-C ) :   1.0858 B( 28-C , 29-H ) :   0.9713
B( 28-C , 30-H ) :   0.9756 B( 28-C , 31-H ) :   0.9731

Dispersion correction           -0.013985689
FINAL SINGLE POINT ENERGY     -1339.846179069231

DIPOLE MOMENT
-------------
                                X             Y             Z
Electronic contribution:     26.60150      -0.95060     -21.12365
Nuclear contribution   :    -27.43414       0.84757      21.40515
                        -----------------------------------------
Total Dipole Moment    :     -0.83264      -0.10303       0.28150
                        -----------------------------------------
Magnitude (a.u.)       :      0.88496
Magnitude (Debye)      :      2.24938

Rotational constants in cm-1:     0.017619     0.009132     0.006389
Rotational constants in MHz :   528.212519   273.781725   191.545481

                             ****ORCA TERMINATED NORMALLY****
TOTAL RUN TIME: 0 days 0 hours 0 minutes 21 seconds 466 msec
