                         Program Version 4.2.1 -  RELEASE  -
|  1> ! wB97X-D3 SP def2-SVP
|  2> %pal
|  3> nprocs 24
|  4> end
|  5>
|  6> * xyz 0 1
|  7> S 	 -108.827 	 61.0088 	 -95.7942
|  8> C 	 -107.595 	 61.5597 	 -94.604
|  9> C 	 -106.439 	 60.8543 	 -94.9116
| 10> C 	 -106.463 	 60.166 	 -96.129
| 11> C 	 -107.634 	 60.294 	 -96.8511
| 12> H 	 -105.567 	 59.6542 	 -96.4926
| 13> C 	 -105.227 	 60.89 	 -94.128
| 14> H 	 -105.216 	 61.8053 	 -93.5694
| 15> H 	 -104.331 	 60.9107 	 -94.7932
| 16> C 	 -105.16 	 59.8292 	 -93.0102
| 17> H 	 -106.111 	 59.5818 	 -92.5429
| 18> H 	 -105.03 	 58.9022 	 -93.6315
| 19> C 	 -104.09 	 60.1382 	 -91.9917
| 20> H 	 -103.159 	 60.4578 	 -92.3781
| 21> H 	 -104.47 	 60.8394 	 -91.2348
| 22> H 	 -103.85 	 59.2911 	 -91.4548
| 23> S 	 -107.641 	 58.1076 	 -98.3971
| 24> C 	 -108.11 	 58.1935 	 -100.026
| 25> C 	 -108.481 	 59.5077 	 -100.393
| 26> C 	 -108.304 	 60.4937 	 -99.3996
| 27> C 	 -107.911 	 59.8632 	 -98.1708
| 28> H 	 -108.676 	 59.7229 	 -101.391
| 29> C 	 -108.574 	 61.9388 	 -99.7051
| 30> H 	 -108.943 	 62.3371 	 -98.7425
| 31> H 	 -109.565 	 61.8754 	 -100.248
| 32> C 	 -107.508 	 62.9293 	 -100.041
| 33> H 	 -107.268 	 62.8946 	 -101.059
| 34> H 	 -106.637 	 62.8073 	 -99.5228
| 35> C 	 -107.992 	 64.4806 	 -99.8595
| 36> H 	 -108.704 	 64.7542 	 -100.567
| 37> H 	 -107.139 	 65.1161 	 -100.014
| 38> H 	 -108.41 	 64.5766 	 -98.8694
| 39> H 	 -107.788 	 62.0207 	 -93.6772
| 40> H 	 -107.994 	 57.4084 	 -100.729
| 41> *
| 42>
| 43>                          ****END OF INPUT****

CARTESIAN COORDINATES (ANGSTROEM)
---------------------------------
  S    -108.827000   61.008800  -95.794200
  C    -107.595000   61.559700  -94.604000
  C    -106.439000   60.854300  -94.911600
  C    -106.463000   60.166000  -96.129000
  C    -107.634000   60.294000  -96.851100
  H    -105.567000   59.654200  -96.492600
  C    -105.227000   60.890000  -94.128000
  H    -105.216000   61.805300  -93.569400
  H    -104.331000   60.910700  -94.793200
  C    -105.160000   59.829200  -93.010200
  H    -106.111000   59.581800  -92.542900
  H    -105.030000   58.902200  -93.631500
  C    -104.090000   60.138200  -91.991700
  H    -103.159000   60.457800  -92.378100
  H    -104.470000   60.839400  -91.234800
  H    -103.850000   59.291100  -91.454800
  S    -107.641000   58.107600  -98.397100
  C    -108.110000   58.193500  -100.026000
  C    -108.481000   59.507700  -100.393000
  C    -108.304000   60.493700  -99.399600
  C    -107.911000   59.863200  -98.170800
  H    -108.676000   59.722900  -101.391000
  C    -108.574000   61.938800  -99.705100
  H    -108.943000   62.337100  -98.742500
  H    -109.565000   61.875400  -100.248000
  C    -107.508000   62.929300  -100.041000
  H    -107.268000   62.894600  -101.059000
  H    -106.637000   62.807300  -99.522800
  C    -107.992000   64.480600  -99.859500
  H    -108.704000   64.754200  -100.567000
  H    -107.139000   65.116100  -100.014000
  H    -108.410000   64.576600  -98.869400
  H    -107.788000   62.020700  -93.677200
  H    -107.994000   57.408400  -100.729000

 Total Charge           Charge          ....    0
 Multiplicity           Mult            ....    1
 Number of Electrons    NEL             ....  134
 Basis Dimension        Dim             ....  322

ORBITAL ENERGIES
----------------

  NO   OCC          E(Eh)            E(eV)
   0   2.0000     -88.968931     -2420.9677
   1   2.0000     -88.962082     -2420.7813
   2   2.0000     -10.328431      -281.0509
   3   2.0000     -10.326553      -280.9998
   4   2.0000     -10.314214      -280.6640
   5   2.0000     -10.311386      -280.5871
   6   2.0000     -10.309932      -280.5475
   7   2.0000     -10.292514      -280.0735
   8   2.0000     -10.291701      -280.0514
   9   2.0000     -10.288155      -279.9549
  10   2.0000     -10.287259      -279.9306
  11   2.0000     -10.286643      -279.9138
  12   2.0000     -10.282781      -279.8087
  13   2.0000     -10.279321      -279.7145
  14   2.0000     -10.273510      -279.5564
  15   2.0000     -10.270149      -279.4650
  16   2.0000      -8.083623      -219.9666
  17   2.0000      -8.075910      -219.7567
  18   2.0000      -6.041892      -164.4082
  19   2.0000      -6.037992      -164.3021
  20   2.0000      -6.034779      -164.2147
  21   2.0000      -6.034469      -164.2062
  22   2.0000      -6.030558      -164.0998
  23   2.0000      -6.026629      -163.9929
  24   2.0000      -1.005797       -27.3691
  25   2.0000      -0.983181       -26.7537
  26   2.0000      -0.918221       -24.9861
  27   2.0000      -0.910172       -24.7670
  28   2.0000      -0.871634       -23.7184
  29   2.0000      -0.854373       -23.2487
  30   2.0000      -0.847310       -23.0565
  31   2.0000      -0.809541       -22.0287
  32   2.0000      -0.786189       -21.3933
  33   2.0000      -0.771249       -20.9868
  34   2.0000      -0.719098       -19.5676
  35   2.0000      -0.705304       -19.1923
  36   2.0000      -0.699983       -19.0475
  37   2.0000      -0.666931       -18.1481
  38   2.0000      -0.635731       -17.2991
  39   2.0000      -0.623576       -16.9684
  40   2.0000      -0.599028       -16.3004
  41   2.0000      -0.571398       -15.5485
  42   2.0000      -0.564617       -15.3640
  43   2.0000      -0.556550       -15.1445
  44   2.0000      -0.530093       -14.4246
  45   2.0000      -0.525665       -14.3041
  46   2.0000      -0.522168       -14.2089
  47   2.0000      -0.512190       -13.9374
  48   2.0000      -0.509724       -13.8703
  49   2.0000      -0.504885       -13.7386
  50   2.0000      -0.495006       -13.4698
  51   2.0000      -0.478807       -13.0290
  52   2.0000      -0.467774       -12.7288
  53   2.0000      -0.464104       -12.6289
  54   2.0000      -0.462385       -12.5821
  55   2.0000      -0.457568       -12.4511
  56   2.0000      -0.448332       -12.1997
  57   2.0000      -0.444848       -12.1049
  58   2.0000      -0.440605       -11.9895
  59   2.0000      -0.423062       -11.5121
  60   2.0000      -0.418460       -11.3869
  61   2.0000      -0.402808       -10.9610
  62   2.0000      -0.398331       -10.8391
  63   2.0000      -0.335648        -9.1334
  64   2.0000      -0.332554        -9.0493
  65   2.0000      -0.324048        -8.8178
  66   2.0000      -0.290093        -7.8938
  67   0.0000       0.021050         0.5728
  68   0.0000       0.064455         1.7539
  69   0.0000       0.107530         2.9260
  70   0.0000       0.120900         3.2899
  71   0.0000       0.123022         3.3476

MULLIKEN ATOMIC CHARGES
-----------------------
   0 S :    0.099006
   1 C :   -0.097295
   2 C :   -0.095615
   3 C :    0.029214
   4 C :   -0.135597
   5 H :    0.011014
   6 C :    0.049793
   7 H :    0.003005
   8 H :    0.035826
   9 C :   -0.090098
  10 H :    0.028910
  11 H :    0.016197
  12 C :    0.021137
  13 H :    0.019478
  14 H :    0.034976
  15 H :    0.010440
  16 S :    0.126422
  17 C :   -0.077615
  18 C :   -0.030668
  19 C :   -0.012699
  20 C :   -0.197109
  21 H :   -0.007128
  22 C :    0.046155
  23 H :    0.003426
  24 H :    0.040125
  25 C :    0.022869
  26 H :    0.011533
  27 H :    0.015933
  28 C :   -0.061073
  29 H :    0.024466
  30 H :    0.032942
  31 H :    0.037864
  32 H :    0.035183
  33 H :    0.048984
Sum of atomic charges:    0.0000000

LOEWDIN ATOMIC CHARGES
----------------------
   0 S :    0.390353
   1 C :   -0.181250
   2 C :   -0.064863
   3 C :   -0.070823
   4 C :   -0.200311
   5 H :    0.031031
   6 C :   -0.038027
   7 H :    0.024522
   8 H :    0.034781
   9 C :   -0.041276
  10 H :    0.025862
  11 H :    0.024652
  12 C :   -0.058167
  13 H :    0.021994
  14 H :    0.032292
  15 H :    0.019795
  16 S :    0.434666
  17 C :   -0.197911
  18 C :   -0.068300
  19 C :   -0.042338
  20 C :   -0.197474
  21 H :    0.018080
  22 C :   -0.048892
  23 H :    0.032107
  24 H :    0.045485
  25 C :   -0.018033
  26 H :    0.015825
  27 H :    0.017982
  28 C :   -0.049006
  29 H :    0.015354
  30 H :    0.025500
  31 H :    0.023344
  32 H :    0.020366
  33 H :    0.022682

  Mayer bond orders larger than 0.100000
B(  0-S ,  1-C ) :   1.1195 B(  0-S ,  4-C ) :   1.1544 B(  1-C ,  2-C ) :   1.5761
B(  1-C ,  4-C ) :   0.1081 B(  1-C , 32-H ) :   0.9752 B(  2-C ,  3-C ) :   1.2758
B(  2-C ,  6-C ) :   1.0481 B(  3-C ,  4-C ) :   1.5178 B(  3-C ,  5-H ) :   0.9927
B(  4-C , 20-C ) :   1.0762 B(  6-C ,  7-H ) :   0.9362 B(  6-C ,  8-H ) :   0.9411
B(  6-C ,  9-C ) :   1.0389 B(  9-C , 10-H ) :   0.9591 B(  9-C , 11-H ) :   0.9529
B(  9-C , 12-C ) :   1.0805 B( 12-C , 13-H ) :   0.9719 B( 12-C , 14-H ) :   0.9707
B( 12-C , 15-H ) :   0.9669 B( 16-S , 17-C ) :   1.1887 B( 16-S , 20-C ) :   1.1599
B( 17-C , 18-C ) :   1.5481 B( 17-C , 20-C ) :   0.1162 B( 17-C , 33-H ) :   0.9718
B( 18-C , 19-C ) :   1.2951 B( 18-C , 21-H ) :   0.9951 B( 19-C , 20-C ) :   1.5075
B( 19-C , 22-C ) :   1.0424 B( 22-C , 23-H ) :   0.9192 B( 22-C , 24-H ) :   0.9324
B( 22-C , 25-C ) :   1.0579 B( 25-C , 26-H ) :   0.9529 B( 25-C , 27-H ) :   0.9513
B( 25-C , 28-C ) :   1.0765 B( 28-C , 29-H ) :   0.9814 B( 28-C , 30-H ) :   0.9774
B( 28-C , 31-H ) :   0.9797

Dispersion correction           -0.013626233
FINAL SINGLE POINT ENERGY     -1339.839143871176

DIPOLE MOMENT
-------------
                                X             Y             Z
Electronic contribution:    -12.35147     -14.51201      -5.87331
Nuclear contribution   :     12.80671      14.66104       5.82722
                        -----------------------------------------
Total Dipole Moment    :      0.45524       0.14902      -0.04609
                        -----------------------------------------
Magnitude (a.u.)       :      0.48122
Magnitude (Debye)      :      1.22317

Rotational constants in cm-1:     0.019349     0.007748     0.006358
Rotational constants in MHz :   580.065116   232.281783   190.611497

                             ****ORCA TERMINATED NORMALLY****
TOTAL RUN TIME: 0 days 0 hours 0 minutes 19 seconds 875 msec
