                         Program Version 4.2.1 -  RELEASE  -
|  1> ! wB97X-D3 SP def2-SVP
|  2> %pal
|  3> nprocs 24
|  4> end
|  5>
|  6> * xyz 0 1
|  7> S 	 -117.579 	 46.1461 	 -116.187
|  8> C 	 -117.225 	 44.4784 	 -116.237
|  9> C 	 -116.018 	 44.1352 	 -115.68
| 10> C 	 -115.505 	 45.1953 	 -114.898
| 11> C 	 -116.257 	 46.3777 	 -115.02
| 12> H 	 -114.528 	 45.1761 	 -114.291
| 13> C 	 -115.446 	 42.7147 	 -115.867
| 14> H 	 -116.202 	 42.0183 	 -116.269
| 15> H 	 -115.135 	 42.25 	 -114.946
| 16> C 	 -114.219 	 42.7042 	 -116.798
| 17> H 	 -113.369 	 43.3825 	 -116.314
| 18> H 	 -113.852 	 41.7322 	 -116.903
| 19> C 	 -114.512 	 43.1562 	 -118.223
| 20> H 	 -113.623 	 43.2821 	 -118.8
| 21> H 	 -115.019 	 42.3865 	 -118.777
| 22> H 	 -115.004 	 44.1587 	 -118.325
| 23> S 	 -115.335 	 48.9226 	 -115.282
| 24> C 	 -115.305 	 49.977 	 -113.883
| 25> C 	 -115.879 	 49.3621 	 -112.795
| 26> C 	 -116.2 	 48.0191 	 -112.98
| 27> C 	 -116.058 	 47.6443 	 -114.35
| 28> H 	 -115.872 	 49.9491 	 -111.922
| 29> C 	 -116.789 	 47.1549 	 -111.955
| 30> H 	 -116.529 	 46.1261 	 -112.048
| 31> H 	 -117.856 	 47.2319 	 -112.075
| 32> C 	 -116.38 	 47.3929 	 -110.535
| 33> H 	 -117.073 	 46.7799 	 -109.946
| 34> H 	 -116.497 	 48.447 	 -110.127
| 35> C 	 -114.946 	 47.0903 	 -110.171
| 36> H 	 -114.288 	 47.4801 	 -110.985
| 37> H 	 -114.833 	 45.9943 	 -110.18
| 38> H 	 -114.729 	 47.3902 	 -109.176
| 39> H 	 -117.754 	 43.8228 	 -116.955
| 40> H 	 -115.078 	 51.0279 	 -113.933
| 41> *
| 42>
| 43>                          ****END OF INPUT****

CARTESIAN COORDINATES (ANGSTROEM)
---------------------------------
  S    -117.579000   46.146100  -116.187000
  C    -117.225000   44.478400  -116.237000
  C    -116.018000   44.135200  -115.680000
  C    -115.505000   45.195300  -114.898000
  C    -116.257000   46.377700  -115.020000
  H    -114.528000   45.176100  -114.291000
  C    -115.446000   42.714700  -115.867000
  H    -116.202000   42.018300  -116.269000
  H    -115.135000   42.250000  -114.946000
  C    -114.219000   42.704200  -116.798000
  H    -113.369000   43.382500  -116.314000
  H    -113.852000   41.732200  -116.903000
  C    -114.512000   43.156200  -118.223000
  H    -113.623000   43.282100  -118.800000
  H    -115.019000   42.386500  -118.777000
  H    -115.004000   44.158700  -118.325000
  S    -115.335000   48.922600  -115.282000
  C    -115.305000   49.977000  -113.883000
  C    -115.879000   49.362100  -112.795000
  C    -116.200000   48.019100  -112.980000
  C    -116.058000   47.644300  -114.350000
  H    -115.872000   49.949100  -111.922000
  C    -116.789000   47.154900  -111.955000
  H    -116.529000   46.126100  -112.048000
  H    -117.856000   47.231900  -112.075000
  C    -116.380000   47.392900  -110.535000
  H    -117.073000   46.779900  -109.946000
  H    -116.497000   48.447000  -110.127000
  C    -114.946000   47.090300  -110.171000
  H    -114.288000   47.480100  -110.985000
  H    -114.833000   45.994300  -110.180000
  H    -114.729000   47.390200  -109.176000
  H    -117.754000   43.822800  -116.955000
  H    -115.078000   51.027900  -113.933000

 Total Charge           Charge          ....    0
 Multiplicity           Mult            ....    1
 Number of Electrons    NEL             ....  134
 Basis Dimension        Dim             ....  322

ORBITAL ENERGIES
----------------

  NO   OCC          E(Eh)            E(eV)
   0   2.0000     -88.966360     -2420.8977
   1   2.0000     -88.964215     -2420.8394
   2   2.0000     -10.329720      -281.0860
   3   2.0000     -10.322786      -280.8973
   4   2.0000     -10.312925      -280.6290
   5   2.0000     -10.310358      -280.5591
   6   2.0000     -10.304623      -280.4030
   7   2.0000     -10.301023      -280.3051
   8   2.0000     -10.300539      -280.2919
   9   2.0000     -10.295231      -280.1475
  10   2.0000     -10.290871      -280.0288
  11   2.0000     -10.285967      -279.8954
  12   2.0000     -10.283508      -279.8285
  13   2.0000     -10.280421      -279.7445
  14   2.0000     -10.274454      -279.5821
  15   2.0000     -10.271105      -279.4910
  16   2.0000      -8.081583      -219.9111
  17   2.0000      -8.079074      -219.8428
  18   2.0000      -6.039802      -164.3514
  19   2.0000      -6.037394      -164.2858
  20   2.0000      -6.036171      -164.2526
  21   2.0000      -6.033424      -164.1778
  22   2.0000      -6.032469      -164.1518
  23   2.0000      -6.030183      -164.0896
  24   2.0000      -1.006800       -27.3964
  25   2.0000      -0.986967       -26.8567
  26   2.0000      -0.919942       -25.0329
  27   2.0000      -0.908727       -24.7277
  28   2.0000      -0.869220       -23.6527
  29   2.0000      -0.851590       -23.1730
  30   2.0000      -0.847530       -23.0625
  31   2.0000      -0.814168       -22.1546
  32   2.0000      -0.787885       -21.4394
  33   2.0000      -0.773067       -21.0362
  34   2.0000      -0.707667       -19.2566
  35   2.0000      -0.691637       -18.8204
  36   2.0000      -0.685648       -18.6574
  37   2.0000      -0.650880       -17.7114
  38   2.0000      -0.637965       -17.3599
  39   2.0000      -0.619780       -16.8651
  40   2.0000      -0.605274       -16.4704
  41   2.0000      -0.571666       -15.5558
  42   2.0000      -0.567322       -15.4376
  43   2.0000      -0.547897       -14.9090
  44   2.0000      -0.543574       -14.7914
  45   2.0000      -0.533544       -14.5185
  46   2.0000      -0.523301       -14.2397
  47   2.0000      -0.503526       -13.7016
  48   2.0000      -0.498877       -13.5751
  49   2.0000      -0.493788       -13.4367
  50   2.0000      -0.484804       -13.1922
  51   2.0000      -0.477041       -12.9809
  52   2.0000      -0.475442       -12.9374
  53   2.0000      -0.466242       -12.6871
  54   2.0000      -0.459019       -12.4906
  55   2.0000      -0.446907       -12.1610
  56   2.0000      -0.445089       -12.1115
  57   2.0000      -0.438361       -11.9284
  58   2.0000      -0.435931       -11.8623
  59   2.0000      -0.423235       -11.5168
  60   2.0000      -0.416063       -11.3216
  61   2.0000      -0.414433       -11.2773
  62   2.0000      -0.406426       -11.0594
  63   2.0000      -0.340528        -9.2662
  64   2.0000      -0.333088        -9.0638
  65   2.0000      -0.321856        -8.7581
  66   2.0000      -0.296726        -8.0743
  67   0.0000       0.036792         1.0012
  68   0.0000       0.053969         1.4686
  69   0.0000       0.118633         3.2282
  70   0.0000       0.127574         3.4715
  71   0.0000       0.130670         3.5557

MULLIKEN ATOMIC CHARGES
-----------------------
   0 S :    0.122533
   1 C :   -0.124683
   2 C :   -0.090335
   3 C :    0.029552
   4 C :   -0.196333
   5 H :    0.046744
   6 C :    0.082496
   7 H :    0.021195
   8 H :    0.024823
   9 C :   -0.090312
  10 H :    0.043318
  11 H :    0.019070
  12 C :   -0.053218
  13 H :    0.019409
  14 H :    0.020610
  15 H :    0.049955
  16 S :    0.115106
  17 C :   -0.099091
  18 C :   -0.028148
  19 C :   -0.023029
  20 C :   -0.178629
  21 H :    0.003722
  22 C :    0.128419
  23 H :    0.011693
  24 H :    0.044159
  25 C :   -0.125844
  26 H :    0.025112
  27 H :    0.025987
  28 C :   -0.034486
  29 H :    0.048198
  30 H :    0.016231
  31 H :    0.032453
  32 H :    0.058388
  33 H :    0.054935
Sum of atomic charges:    0.0000000

LOEWDIN ATOMIC CHARGES
----------------------
   0 S :    0.415851
   1 C :   -0.208805
   2 C :   -0.070232
   3 C :   -0.061080
   4 C :   -0.199336
   5 H :    0.048257
   6 C :   -0.027232
   7 H :    0.031071
   8 H :    0.027256
   9 C :   -0.041289
  10 H :    0.033446
  11 H :    0.015881
  12 C :   -0.073499
  13 H :    0.023241
  14 H :    0.021414
  15 H :    0.032537
  16 S :    0.418204
  17 C :   -0.184200
  18 C :   -0.069324
  19 C :   -0.052596
  20 C :   -0.215016
  21 H :    0.026402
  22 C :   -0.033045
  23 H :    0.032632
  24 H :    0.041885
  25 C :   -0.049994
  26 H :    0.025498
  27 H :    0.021500
  28 C :   -0.064542
  29 H :    0.033356
  30 H :    0.022015
  31 H :    0.022733
  32 H :    0.029841
  33 H :    0.027169

  Mayer bond orders larger than 0.100000
B(  0-S ,  1-C ) :   1.1634 B(  0-S ,  4-C ) :   1.1540 B(  1-C ,  2-C ) :   1.6034
B(  1-C ,  4-C ) :   0.1057 B(  1-C , 32-H ) :   0.9571 B(  2-C ,  3-C ) :   1.2567
B(  2-C ,  6-C ) :   1.0164 B(  3-C ,  4-C ) :   1.5697 B(  3-C ,  5-H ) :   0.9809
B(  4-C , 20-C ) :   1.0295 B(  6-C ,  7-H ) :   0.9450 B(  6-C ,  8-H ) :   0.9421
B(  6-C ,  9-C ) :   1.0722 B(  9-C , 10-H ) :   0.9575 B(  9-C , 11-H ) :   0.9548
B(  9-C , 12-C ) :   1.0789 B( 12-C , 13-H ) :   0.9702 B( 12-C , 14-H ) :   0.9731
B( 12-C , 15-H ) :   0.9732 B( 16-S , 17-C ) :   1.1673 B( 16-S , 20-C ) :   1.1780
B( 17-C , 18-C ) :   1.5905 B( 17-C , 20-C ) :   0.1164 B( 17-C , 33-H ) :   0.9647
B( 18-C , 19-C ) :   1.2568 B( 18-C , 21-H ) :   0.9964 B( 19-C , 20-C ) :   1.5360
B( 19-C , 22-C ) :   1.0599 B( 22-C , 23-H ) :   0.9208 B( 22-C , 24-H ) :   0.9198
B( 22-C , 25-C ) :   1.0778 B( 25-C , 26-H ) :   0.9515 B( 25-C , 27-H ) :   0.9520
B( 25-C , 28-C ) :   1.0774 B( 28-C , 29-H ) :   0.9740 B( 28-C , 30-H ) :   0.9707
B( 28-C , 31-H ) :   0.9740

Dispersion correction           -0.014669920
FINAL SINGLE POINT ENERGY     -1339.873988927573

DIPOLE MOMENT
-------------
                                X             Y             Z
Electronic contribution:     -8.57354      15.61825     -10.05472
Nuclear contribution   :      8.72848     -15.98355      10.33706
                        -----------------------------------------
Total Dipole Moment    :      0.15495      -0.36530       0.28234
                        -----------------------------------------
Magnitude (a.u.)       :      0.48700
Magnitude (Debye)      :      1.23786

Rotational constants in cm-1:     0.021216     0.007915     0.006913
Rotational constants in MHz :   636.051767   237.288544   207.237929

                             ****ORCA TERMINATED NORMALLY****
TOTAL RUN TIME: 0 days 0 hours 0 minutes 21 seconds 698 msec
