                         Program Version 4.2.1 -  RELEASE  -
|  1> ! wB97X-D3 SP def2-SVP
|  2> %pal
|  3> nprocs 24
|  4> end
|  5>
|  6> * xyz 0 1
|  7> S 	 -49.0125 	 15.6908 	 23.572
|  8> C 	 -49.9924 	 15.271 	 24.9583
|  9> C 	 -51.2299 	 14.7789 	 24.5537
| 10> C 	 -51.4266 	 14.8666 	 23.1762
| 11> C 	 -50.2576 	 15.1584 	 22.5168
| 12> H 	 -52.3356 	 14.5349 	 22.6358
| 13> C 	 -52.2893 	 14.1071 	 25.3445
| 14> H 	 -53.2323 	 14.2171 	 24.8286
| 15> H 	 -52.395 	 14.6521 	 26.268
| 16> C 	 -52.1419 	 12.5832 	 25.6453
| 17> H 	 -51.3314 	 12.3603 	 26.3693
| 18> H 	 -53.0784 	 12.2736 	 26.1716
| 19> C 	 -51.9534 	 11.8033 	 24.3403
| 20> H 	 -50.9368 	 11.88 	 24.0379
| 21> H 	 -52.3306 	 10.773 	 24.6528
| 22> H 	 -52.641 	 12.1894 	 23.6246
| 23> S 	 -49.2562 	 13.7848 	 20.3643
| 24> C 	 -49.5367 	 14.3371 	 18.7937
| 25> C 	 -50.2965 	 15.4797 	 18.7973
| 26> C 	 -50.7228 	 15.9045 	 20.1008
| 27> C 	 -50.0568 	 15.1793 	 21.0913
| 28> H 	 -50.5 	 15.8584 	 17.8178
| 29> C 	 -51.6253 	 17.1368 	 20.1821
| 30> H 	 -52.5866 	 16.7437 	 20.6376
| 31> H 	 -51.7299 	 17.4859 	 19.1102
| 32> C 	 -51.1177 	 18.3284 	 20.9423
| 33> H 	 -50.2226 	 18.687 	 20.4066
| 34> H 	 -50.7732 	 17.9783 	 21.9335
| 35> C 	 -52.2418 	 19.37 	 21.2244
| 36> H 	 -52.0753 	 20.0279 	 22.0399
| 37> H 	 -53.0755 	 18.6611 	 21.471
| 38> H 	 -52.6142 	 19.9909 	 20.3675
| 39> H 	 -49.6013 	 15.0507 	 25.961
| 40> H 	 -49.0199 	 14.0576 	 17.9185
| 41> *
| 42>
| 43>                          ****END OF INPUT****

CARTESIAN COORDINATES (ANGSTROEM)
---------------------------------
  S    -49.012500   15.690800   23.572000
  C    -49.992400   15.271000   24.958300
  C    -51.229900   14.778900   24.553700
  C    -51.426600   14.866600   23.176200
  C    -50.257600   15.158400   22.516800
  H    -52.335600   14.534900   22.635800
  C    -52.289300   14.107100   25.344500
  H    -53.232300   14.217100   24.828600
  H    -52.395000   14.652100   26.268000
  C    -52.141900   12.583200   25.645300
  H    -51.331400   12.360300   26.369300
  H    -53.078400   12.273600   26.171600
  C    -51.953400   11.803300   24.340300
  H    -50.936800   11.880000   24.037900
  H    -52.330600   10.773000   24.652800
  H    -52.641000   12.189400   23.624600
  S    -49.256200   13.784800   20.364300
  C    -49.536700   14.337100   18.793700
  C    -50.296500   15.479700   18.797300
  C    -50.722800   15.904500   20.100800
  C    -50.056800   15.179300   21.091300
  H    -50.500000   15.858400   17.817800
  C    -51.625300   17.136800   20.182100
  H    -52.586600   16.743700   20.637600
  H    -51.729900   17.485900   19.110200
  C    -51.117700   18.328400   20.942300
  H    -50.222600   18.687000   20.406600
  H    -50.773200   17.978300   21.933500
  C    -52.241800   19.370000   21.224400
  H    -52.075300   20.027900   22.039900
  H    -53.075500   18.661100   21.471000
  H    -52.614200   19.990900   20.367500
  H    -49.601300   15.050700   25.961000
  H    -49.019900   14.057600   17.918500

 Total Charge           Charge          ....    0
 Multiplicity           Mult            ....    1
 Number of Electrons    NEL             ....  134
 Basis Dimension        Dim             ....  322

ORBITAL ENERGIES
----------------

  NO   OCC          E(Eh)            E(eV)
   0   2.0000     -88.969587     -2420.9855
   1   2.0000     -88.962983     -2420.8058
   2   2.0000     -10.323430      -280.9148
   3   2.0000     -10.323183      -280.9081
   4   2.0000     -10.312861      -280.6272
   5   2.0000     -10.306289      -280.4484
   6   2.0000     -10.306111      -280.4435
   7   2.0000     -10.298592      -280.2389
   8   2.0000     -10.295736      -280.1612
   9   2.0000     -10.291070      -280.0342
  10   2.0000     -10.290926      -280.0303
  11   2.0000     -10.287402      -279.9345
  12   2.0000     -10.285565      -279.8845
  13   2.0000     -10.285439      -279.8810
  14   2.0000     -10.280731      -279.7529
  15   2.0000     -10.275530      -279.6114
  16   2.0000      -8.084584      -219.9927
  17   2.0000      -8.078744      -219.8338
  18   2.0000      -6.042985      -164.4380
  19   2.0000      -6.038990      -164.3293
  20   2.0000      -6.037175      -164.2799
  21   2.0000      -6.035496      -164.2342
  22   2.0000      -6.032996      -164.1662
  23   2.0000      -6.029638      -164.0748
  24   2.0000      -1.013875       -27.5889
  25   2.0000      -0.991089       -26.9689
  26   2.0000      -0.914976       -24.8978
  27   2.0000      -0.909818       -24.7574
  28   2.0000      -0.870417       -23.6852
  29   2.0000      -0.853067       -23.2131
  30   2.0000      -0.847816       -23.0702
  31   2.0000      -0.812379       -22.1059
  32   2.0000      -0.783136       -21.3102
  33   2.0000      -0.770660       -20.9707
  34   2.0000      -0.708138       -19.2694
  35   2.0000      -0.699873       -19.0445
  36   2.0000      -0.686398       -18.6778
  37   2.0000      -0.658986       -17.9319
  38   2.0000      -0.639301       -17.3963
  39   2.0000      -0.615432       -16.7468
  40   2.0000      -0.592206       -16.1147
  41   2.0000      -0.575761       -15.6672
  42   2.0000      -0.567914       -15.4537
  43   2.0000      -0.550954       -14.9922
  44   2.0000      -0.548215       -14.9177
  45   2.0000      -0.521432       -14.1889
  46   2.0000      -0.514204       -13.9922
  47   2.0000      -0.510495       -13.8913
  48   2.0000      -0.506028       -13.7697
  49   2.0000      -0.499599       -13.5948
  50   2.0000      -0.484881       -13.1943
  51   2.0000      -0.483605       -13.1596
  52   2.0000      -0.473452       -12.8833
  53   2.0000      -0.464417       -12.6374
  54   2.0000      -0.459047       -12.4913
  55   2.0000      -0.446901       -12.1608
  56   2.0000      -0.437117       -11.8946
  57   2.0000      -0.434217       -11.8157
  58   2.0000      -0.429757       -11.6943
  59   2.0000      -0.423068       -11.5123
  60   2.0000      -0.419538       -11.4162
  61   2.0000      -0.418982       -11.4011
  62   2.0000      -0.408877       -11.1261
  63   2.0000      -0.338698        -9.2164
  64   2.0000      -0.328681        -8.9439
  65   2.0000      -0.325421        -8.8552
  66   2.0000      -0.305072        -8.3014
  67   0.0000       0.031440         0.8555
  68   0.0000       0.063021         1.7149
  69   0.0000       0.113711         3.0942
  70   0.0000       0.117487         3.1970
  71   0.0000       0.126993         3.4556

MULLIKEN ATOMIC CHARGES
-----------------------
   0 S :    0.130033
   1 C :   -0.117604
   2 C :   -0.105265
   3 C :    0.029119
   4 C :   -0.195414
   5 H :    0.029495
   6 C :    0.062783
   7 H :    0.017213
   8 H :    0.020079
   9 C :   -0.100781
  10 H :    0.032870
  11 H :    0.033880
  12 C :   -0.031761
  13 H :    0.054836
  14 H :    0.042151
  15 H :    0.018361
  16 S :    0.115164
  17 C :   -0.066348
  18 C :   -0.059667
  19 C :   -0.007076
  20 C :   -0.170484
  21 H :    0.009404
  22 C :    0.042183
  23 H :    0.039193
  24 H :    0.033591
  25 C :   -0.071617
  26 H :    0.033388
  27 H :    0.034596
  28 C :   -0.048825
  29 H :    0.036129
  30 H :    0.022169
  31 H :    0.039192
  32 H :    0.055791
  33 H :    0.043220
Sum of atomic charges:    0.0000000

LOEWDIN ATOMIC CHARGES
----------------------
   0 S :    0.433565
   1 C :   -0.213601
   2 C :   -0.064423
   3 C :   -0.063278
   4 C :   -0.210483
   5 H :    0.037861
   6 C :   -0.036124
   7 H :    0.028158
   8 H :    0.028090
   9 C :   -0.039335
  10 H :    0.022571
  11 H :    0.025598
  12 C :   -0.060613
  13 H :    0.027128
  14 H :    0.037937
  15 H :    0.017064
  16 S :    0.428320
  17 C :   -0.200847
  18 C :   -0.075804
  19 C :   -0.048917
  20 C :   -0.210996
  21 H :    0.027165
  22 C :   -0.036987
  23 H :    0.036386
  24 H :    0.037785
  25 C :   -0.045562
  26 H :    0.025219
  27 H :    0.026144
  28 C :   -0.068682
  29 H :    0.021142
  30 H :    0.030644
  31 H :    0.028130
  32 H :    0.032018
  33 H :    0.024727

  Mayer bond orders larger than 0.100000
B(  0-S ,  1-C ) :   1.1372 B(  0-S ,  4-C ) :   1.1825 B(  1-C ,  2-C ) :   1.6016
B(  1-C ,  4-C ) :   0.1065 B(  1-C , 32-H ) :   0.9624 B(  2-C ,  3-C ) :   1.2559
B(  2-C ,  6-C ) :   1.0306 B(  3-C ,  4-C ) :   1.5689 B(  3-C ,  5-H ) :   0.9879
B(  4-C , 20-C ) :   1.0020 B(  6-C ,  7-H ) :   0.9414 B(  6-C ,  8-H ) :   0.9309
B(  6-C ,  9-C ) :   1.0712 B(  9-C , 10-H ) :   0.9574 B(  9-C , 11-H ) :   0.9599
B(  9-C , 12-C ) :   1.0674 B( 12-C , 13-H ) :   0.9736 B( 12-C , 14-H ) :   0.9735
B( 12-C , 15-H ) :   0.9746 B( 16-S , 17-C ) :   1.1758 B( 16-S , 20-C ) :   1.1556
B( 17-C , 18-C ) :   1.6194 B( 17-C , 20-C ) :   0.1008 B( 17-C , 33-H ) :   0.9630
B( 18-C , 19-C ) :   1.2390 B( 18-C , 21-H ) :   0.9910 B( 19-C , 20-C ) :   1.5721
B( 19-C , 22-C ) :   1.0375 B( 22-C , 23-H ) :   0.9174 B( 22-C , 24-H ) :   0.9413
B( 22-C , 25-C ) :   1.0798 B( 25-C , 26-H ) :   0.9533 B( 25-C , 27-H ) :   0.9527
B( 25-C , 28-C ) :   1.0634 B( 28-C , 29-H ) :   0.9767 B( 28-C , 30-H ) :   0.9737
B( 28-C , 31-H ) :   0.9768

Dispersion correction           -0.015232529
FINAL SINGLE POINT ENERGY     -1339.867433236866

DIPOLE MOMENT
-------------
                                X             Y             Z
Electronic contribution:     17.85624      -4.17203      -6.10746
Nuclear contribution   :    -18.29273       4.13090       6.10297
                        -----------------------------------------
Total Dipole Moment    :     -0.43649      -0.04113      -0.00449
                        -----------------------------------------
Magnitude (a.u.)       :      0.43844
Magnitude (Debye)      :      1.11443

Rotational constants in cm-1:     0.017551     0.009708     0.007844
Rotational constants in MHz :   526.158845   291.035447   235.160235

                             ****ORCA TERMINATED NORMALLY****
TOTAL RUN TIME: 0 days 0 hours 0 minutes 22 seconds 452 msec
