                         Program Version 4.2.1 -  RELEASE  -
|  1> ! wB97X-D3 SP def2-SVP
|  2> %pal
|  3> nprocs 24
|  4> end
|  5>
|  6> * xyz 0 1
|  7> S 	 38.0537 	 -6.55404 	 -122.328
|  8> C 	 37.5569 	 -6.85378 	 -123.92
|  9> C 	 36.3849 	 -6.12565 	 -124.309
| 10> C 	 35.7985 	 -5.44366 	 -123.187
| 11> C 	 36.7003 	 -5.4844 	 -122.123
| 12> H 	 34.8251 	 -4.94475 	 -123.048
| 13> C 	 35.7312 	 -6.37035 	 -125.633
| 14> H 	 36.6208 	 -6.13469 	 -126.221
| 15> H 	 35.0203 	 -5.60805 	 -125.914
| 16> C 	 35.1462 	 -7.77098 	 -125.852
| 17> H 	 35.8676 	 -8.56442 	 -125.39
| 18> H 	 34.1706 	 -7.78532 	 -125.319
| 19> C 	 34.9963 	 -8.2247 	 -127.289
| 20> H 	 34.2657 	 -7.55354 	 -127.806
| 21> H 	 35.8851 	 -8.13743 	 -127.933
| 22> H 	 34.5949 	 -9.25118 	 -127.167
| 23> S 	 35.9322 	 -6.03419 	 -119.558
| 24> C 	 35.0846 	 -4.89373 	 -118.598
| 25> C 	 35.1241 	 -3.6349 	 -119.158
| 26> C 	 35.713 	 -3.66763 	 -120.463
| 27> C 	 36.333 	 -4.90455 	 -120.821
| 28> H 	 34.6962 	 -2.7805 	 -118.57
| 29> C 	 35.531 	 -2.4873 	 -121.432
| 30> H 	 34.6011 	 -2.06614 	 -121.146
| 31> H 	 35.3229 	 -2.61192 	 -122.518
| 32> C 	 36.5975 	 -1.43612 	 -121.452
| 33> H 	 37.5108 	 -1.73661 	 -121.983
| 34> H 	 36.941 	 -1.24579 	 -120.425
| 35> C 	 36.0827 	 -0.194434 	 -122.075
| 36> H 	 35.1133 	 0.0346828 	 -121.693
| 37> H 	 36.1443 	 -0.422574 	 -123.147
| 38> H 	 36.8117 	 0.652467 	 -121.97
| 39> H 	 38.1535 	 -7.4234 	 -124.599
| 40> H 	 34.5925 	 -5.14972 	 -117.66
| 41> *
| 42>
| 43>                          ****END OF INPUT****

CARTESIAN COORDINATES (ANGSTROEM)
---------------------------------
  S     38.053700   -6.554040  -122.328000
  C     37.556900   -6.853780  -123.920000
  C     36.384900   -6.125650  -124.309000
  C     35.798500   -5.443660  -123.187000
  C     36.700300   -5.484400  -122.123000
  H     34.825100   -4.944750  -123.048000
  C     35.731200   -6.370350  -125.633000
  H     36.620800   -6.134690  -126.221000
  H     35.020300   -5.608050  -125.914000
  C     35.146200   -7.770980  -125.852000
  H     35.867600   -8.564420  -125.390000
  H     34.170600   -7.785320  -125.319000
  C     34.996300   -8.224700  -127.289000
  H     34.265700   -7.553540  -127.806000
  H     35.885100   -8.137430  -127.933000
  H     34.594900   -9.251180  -127.167000
  S     35.932200   -6.034190  -119.558000
  C     35.084600   -4.893730  -118.598000
  C     35.124100   -3.634900  -119.158000
  C     35.713000   -3.667630  -120.463000
  C     36.333000   -4.904550  -120.821000
  H     34.696200   -2.780500  -118.570000
  C     35.531000   -2.487300  -121.432000
  H     34.601100   -2.066140  -121.146000
  H     35.322900   -2.611920  -122.518000
  C     36.597500   -1.436120  -121.452000
  H     37.510800   -1.736610  -121.983000
  H     36.941000   -1.245790  -120.425000
  C     36.082700   -0.194434  -122.075000
  H     35.113300    0.034683  -121.693000
  H     36.144300   -0.422574  -123.147000
  H     36.811700    0.652467  -121.970000
  H     38.153500   -7.423400  -124.599000
  H     34.592500   -5.149720  -117.660000

 Total Charge           Charge          ....    0
 Multiplicity           Mult            ....    1
 Number of Electrons    NEL             ....  134
 Basis Dimension        Dim             ....  322

ORBITAL ENERGIES
----------------

  NO   OCC          E(Eh)            E(eV)
   0   2.0000     -88.972711     -2421.0705
   1   2.0000     -88.960595     -2420.7409
   2   2.0000     -10.326920      -281.0098
   3   2.0000     -10.325468      -280.9703
   4   2.0000     -10.315959      -280.7115
   5   2.0000     -10.310876      -280.5732
   6   2.0000     -10.310043      -280.5505
   7   2.0000     -10.305312      -280.4218
   8   2.0000     -10.299070      -280.2519
   9   2.0000     -10.297808      -280.2176
  10   2.0000     -10.294820      -280.1363
  11   2.0000     -10.286903      -279.9209
  12   2.0000     -10.284636      -279.8592
  13   2.0000     -10.283554      -279.8297
  14   2.0000     -10.273549      -279.5575
  15   2.0000     -10.273294      -279.5506
  16   2.0000      -8.088148      -220.0897
  17   2.0000      -8.076333      -219.7682
  18   2.0000      -6.046303      -164.5283
  19   2.0000      -6.042590      -164.4272
  20   2.0000      -6.039239      -164.3361
  21   2.0000      -6.034702      -164.2126
  22   2.0000      -6.030473      -164.0975
  23   2.0000      -6.027385      -164.0135
  24   2.0000      -1.008046       -27.4303
  25   2.0000      -0.986193       -26.8357
  26   2.0000      -0.917443       -24.9649
  27   2.0000      -0.912120       -24.8200
  28   2.0000      -0.868426       -23.6311
  29   2.0000      -0.856903       -23.3175
  30   2.0000      -0.848618       -23.0921
  31   2.0000      -0.813766       -22.1437
  32   2.0000      -0.778997       -21.1976
  33   2.0000      -0.764522       -20.8037
  34   2.0000      -0.697363       -18.9762
  35   2.0000      -0.694001       -18.8847
  36   2.0000      -0.686727       -18.6868
  37   2.0000      -0.658270       -17.9124
  38   2.0000      -0.641807       -17.4644
  39   2.0000      -0.615638       -16.7524
  40   2.0000      -0.598526       -16.2867
  41   2.0000      -0.575795       -15.6682
  42   2.0000      -0.568746       -15.4764
  43   2.0000      -0.552054       -15.0222
  44   2.0000      -0.536493       -14.5987
  45   2.0000      -0.524279       -14.2664
  46   2.0000      -0.513424       -13.9710
  47   2.0000      -0.511348       -13.9145
  48   2.0000      -0.504741       -13.7347
  49   2.0000      -0.496592       -13.5130
  50   2.0000      -0.490830       -13.3562
  51   2.0000      -0.479368       -13.0443
  52   2.0000      -0.475043       -12.9266
  53   2.0000      -0.463447       -12.6110
  54   2.0000      -0.458244       -12.4695
  55   2.0000      -0.445181       -12.1140
  56   2.0000      -0.443627       -12.0717
  57   2.0000      -0.440028       -11.9738
  58   2.0000      -0.437351       -11.9009
  59   2.0000      -0.419286       -11.4093
  60   2.0000      -0.413749       -11.2587
  61   2.0000      -0.410805       -11.1786
  62   2.0000      -0.398454       -10.8425
  63   2.0000      -0.347994        -9.4694
  64   2.0000      -0.329777        -8.9737
  65   2.0000      -0.322044        -8.7633
  66   2.0000      -0.287798        -7.8314
  67   0.0000       0.033190         0.9032
  68   0.0000       0.064653         1.7593
  69   0.0000       0.114597         3.1183
  70   0.0000       0.118330         3.2199
  71   0.0000       0.127237         3.4623

MULLIKEN ATOMIC CHARGES
-----------------------
   0 S :    0.143419
   1 C :   -0.124206
   2 C :   -0.091757
   3 C :    0.012236
   4 C :   -0.162235
   5 H :    0.043472
   6 C :    0.066810
   7 H :    0.025905
   8 H :    0.016265
   9 C :   -0.102094
  10 H :    0.040998
  11 H :    0.041675
  12 C :   -0.051126
  13 H :    0.026904
  14 H :    0.038172
  15 H :    0.049724
  16 S :    0.097869
  17 C :   -0.108514
  18 C :   -0.039998
  19 C :   -0.053522
  20 C :   -0.110303
  21 H :    0.044746
  22 C :    0.040272
  23 H :   -0.002171
  24 H :    0.015811
  25 C :   -0.059658
  26 H :    0.030856
  27 H :    0.014220
  28 C :   -0.045266
  29 H :    0.029316
  30 H :    0.028504
  31 H :    0.037100
  32 H :    0.043021
  33 H :    0.063552
Sum of atomic charges:    0.0000000

LOEWDIN ATOMIC CHARGES
----------------------
   0 S :    0.447402
   1 C :   -0.219132
   2 C :   -0.055726
   3 C :   -0.055196
   4 C :   -0.208592
   5 H :    0.042671
   6 C :   -0.046924
   7 H :    0.035979
   8 H :    0.026394
   9 C :   -0.047295
  10 H :    0.032926
  11 H :    0.031191
  12 C :   -0.072805
  13 H :    0.024473
  14 H :    0.026254
  15 H :    0.035117
  16 S :    0.425364
  17 C :   -0.196215
  18 C :   -0.084282
  19 C :   -0.052112
  20 C :   -0.211663
  21 H :    0.044547
  22 C :   -0.040464
  23 H :    0.021390
  24 H :    0.032495
  25 C :   -0.046208
  26 H :    0.026327
  27 H :    0.016712
  28 C :   -0.063214
  29 H :    0.018746
  30 H :    0.028628
  31 H :    0.032057
  32 H :    0.019063
  33 H :    0.032093

  Mayer bond orders larger than 0.100000
B(  0-S ,  1-C ) :   1.1672 B(  0-S ,  4-C ) :   1.1776 B(  1-C ,  2-C ) :   1.5555
B(  1-C , 32-H ) :   0.9698 B(  2-C ,  3-C ) :   1.2566 B(  2-C ,  6-C ) :   1.0231
B(  3-C ,  4-C ) :   1.5453 B(  3-C ,  5-H ) :   0.9861 B(  4-C , 20-C ) :   1.0104
B(  6-C ,  7-H ) :   0.9349 B(  6-C ,  8-H ) :   0.9402 B(  6-C ,  9-C ) :   1.0547
B(  9-C , 10-H ) :   0.9590 B(  9-C , 11-H ) :   0.9521 B(  9-C , 12-C ) :   1.0761
B( 12-C , 13-H ) :   0.9719 B( 12-C , 14-H ) :   0.9754 B( 12-C , 15-H ) :   0.9730
B( 16-S , 17-C ) :   1.1941 B( 16-S , 20-C ) :   1.1474 B( 17-C , 18-C ) :   1.5749
B( 17-C , 33-H ) :   0.9656 B( 18-C , 19-C ) :   1.2700 B( 18-C , 21-H ) :   0.9843
B( 19-C , 20-C ) :   1.5698 B( 19-C , 22-C ) :   1.0193 B( 22-C , 23-H ) :   0.9374
B( 22-C , 24-H ) :   0.9412 B( 22-C , 25-C ) :   1.0687 B( 25-C , 26-H ) :   0.9524
B( 25-C , 27-H ) :   0.9527 B( 25-C , 28-C ) :   1.0818 B( 28-C , 29-H ) :   0.9761
B( 28-C , 30-H ) :   0.9737 B( 28-C , 31-H ) :   0.9705

Dispersion correction           -0.013583588
FINAL SINGLE POINT ENERGY     -1339.854438188231

DIPOLE MOMENT
-------------
                                X             Y             Z
Electronic contribution:      8.88789     -11.48960      20.63463
Nuclear contribution   :     -9.32510      11.69708     -20.98091
                        -----------------------------------------
Total Dipole Moment    :     -0.43721       0.20748      -0.34628
                        -----------------------------------------
Magnitude (a.u.)       :      0.59507
Magnitude (Debye)      :      1.51255

Rotational constants in cm-1:     0.018530     0.007748     0.006459
Rotational constants in MHz :   555.506898   232.292986   193.624698

                             ****ORCA TERMINATED NORMALLY****
TOTAL RUN TIME: 0 days 0 hours 0 minutes 21 seconds 122 msec
