                         Program Version 4.2.1 -  RELEASE  -
|  1> ! wB97X-D3 SP def2-SVP
|  2> %pal
|  3> nprocs 24
|  4> end
|  5>
|  6> * xyz 0 1
|  7> S 	 -52.9473 	 14.8097 	 -99.6098
|  8> C 	 -54.0269 	 16.1395 	 -99.4555
|  9> C 	 -53.389 	 17.3905 	 -99.5189
| 10> C 	 -51.9751 	 17.2578 	 -99.5672
| 11> C 	 -51.5984 	 15.9337 	 -99.6148
| 12> H 	 -51.2007 	 18.0154 	 -99.5899
| 13> C 	 -54.1125 	 18.7204 	 -99.3581
| 14> H 	 -54.9362 	 18.6381 	 -100.096
| 15> H 	 -53.42 	 19.4088 	 -99.8221
| 16> C 	 -54.5254 	 19.166 	 -97.9212
| 17> H 	 -53.6566 	 19.04 	 -97.2332
| 18> H 	 -54.8522 	 20.1503 	 -97.9281
| 19> C 	 -55.7266 	 18.4191 	 -97.4809
| 20> H 	 -56.4767 	 18.4658 	 -98.256
| 21> H 	 -55.5986 	 17.3351 	 -97.3452
| 22> H 	 -56.1473 	 18.82 	 -96.5337
| 23> S 	 -49.4265 	 14.6648 	 -98.5115
| 24> C 	 -48.0597 	 14.3879 	 -99.4638
| 25> C 	 -48.1595 	 14.9059 	 -100.757
| 26> C 	 -49.386 	 15.602 	 -100.984
| 27> C 	 -50.2683 	 15.3754 	 -99.8771
| 28> H 	 -47.2683 	 14.8439 	 -101.394
| 29> C 	 -49.6368 	 16.4338 	 -102.274
| 30> H 	 -50.4793 	 17.2117 	 -102.09
| 31> H 	 -49.9997 	 15.7901 	 -103.087
| 32> C 	 -48.4699 	 17.234 	 -102.749
| 33> H 	 -48.6777 	 17.7167 	 -103.63
| 34> H 	 -47.6383 	 16.581 	 -102.976
| 35> C 	 -47.9998 	 18.3427 	 -101.898
| 36> H 	 -47.1235 	 18.75 	 -102.378
| 37> H 	 -47.8326 	 17.9875 	 -100.835
| 38> H 	 -48.7616 	 19.1035 	 -101.855
| 39> H 	 -55.0675 	 16.0274 	 -99.1955
| 40> H 	 -47.1207 	 13.9653 	 -99.0887
| 41> *
| 42>
| 43>                          ****END OF INPUT****

CARTESIAN COORDINATES (ANGSTROEM)
---------------------------------
  S    -52.947300   14.809700  -99.609800
  C    -54.026900   16.139500  -99.455500
  C    -53.389000   17.390500  -99.518900
  C    -51.975100   17.257800  -99.567200
  C    -51.598400   15.933700  -99.614800
  H    -51.200700   18.015400  -99.589900
  C    -54.112500   18.720400  -99.358100
  H    -54.936200   18.638100  -100.096000
  H    -53.420000   19.408800  -99.822100
  C    -54.525400   19.166000  -97.921200
  H    -53.656600   19.040000  -97.233200
  H    -54.852200   20.150300  -97.928100
  C    -55.726600   18.419100  -97.480900
  H    -56.476700   18.465800  -98.256000
  H    -55.598600   17.335100  -97.345200
  H    -56.147300   18.820000  -96.533700
  S    -49.426500   14.664800  -98.511500
  C    -48.059700   14.387900  -99.463800
  C    -48.159500   14.905900  -100.757000
  C    -49.386000   15.602000  -100.984000
  C    -50.268300   15.375400  -99.877100
  H    -47.268300   14.843900  -101.394000
  C    -49.636800   16.433800  -102.274000
  H    -50.479300   17.211700  -102.090000
  H    -49.999700   15.790100  -103.087000
  C    -48.469900   17.234000  -102.749000
  H    -48.677700   17.716700  -103.630000
  H    -47.638300   16.581000  -102.976000
  C    -47.999800   18.342700  -101.898000
  H    -47.123500   18.750000  -102.378000
  H    -47.832600   17.987500  -100.835000
  H    -48.761600   19.103500  -101.855000
  H    -55.067500   16.027400  -99.195500
  H    -47.120700   13.965300  -99.088700

 Total Charge           Charge          ....    0
 Multiplicity           Mult            ....    1
 Number of Electrons    NEL             ....  134
 Basis Dimension        Dim             ....  322

ORBITAL ENERGIES
----------------

  NO   OCC          E(Eh)            E(eV)
   0   2.0000     -88.967897     -2420.9396
   1   2.0000     -88.964518     -2420.8476
   2   2.0000     -10.325123      -280.9609
   3   2.0000     -10.322625      -280.8929
   4   2.0000     -10.313786      -280.6524
   5   2.0000     -10.312298      -280.6119
   6   2.0000     -10.309002      -280.5222
   7   2.0000     -10.299909      -280.2748
   8   2.0000     -10.298977      -280.2494
   9   2.0000     -10.294144      -280.1179
  10   2.0000     -10.293105      -280.0896
  11   2.0000     -10.291714      -280.0518
  12   2.0000     -10.284776      -279.8630
  13   2.0000     -10.274774      -279.5908
  14   2.0000     -10.272787      -279.5367
  15   2.0000     -10.270543      -279.4757
  16   2.0000      -8.083472      -219.9625
  17   2.0000      -8.079723      -219.8604
  18   2.0000      -6.041725      -164.4037
  19   2.0000      -6.037984      -164.3019
  20   2.0000      -6.037814      -164.2973
  21   2.0000      -6.034508      -164.2073
  22   2.0000      -6.034167      -164.1980
  23   2.0000      -6.030738      -164.1047
  24   2.0000      -1.005066       -27.3492
  25   2.0000      -0.984215       -26.7818
  26   2.0000      -0.920108       -25.0374
  27   2.0000      -0.913163       -24.8484
  28   2.0000      -0.864054       -23.5121
  29   2.0000      -0.855474       -23.2786
  30   2.0000      -0.851621       -23.1738
  31   2.0000      -0.809209       -22.0197
  32   2.0000      -0.785677       -21.3793
  33   2.0000      -0.768625       -20.9154
  34   2.0000      -0.706433       -19.2230
  35   2.0000      -0.695803       -18.9338
  36   2.0000      -0.686386       -18.6775
  37   2.0000      -0.649191       -17.6654
  38   2.0000      -0.642633       -17.4869
  39   2.0000      -0.615769       -16.7559
  40   2.0000      -0.598043       -16.2736
  41   2.0000      -0.570394       -15.5212
  42   2.0000      -0.560721       -15.2580
  43   2.0000      -0.547563       -14.8999
  44   2.0000      -0.546101       -14.8602
  45   2.0000      -0.545367       -14.8402
  46   2.0000      -0.521938       -14.2027
  47   2.0000      -0.509446       -13.8627
  48   2.0000      -0.499347       -13.5879
  49   2.0000      -0.490139       -13.3374
  50   2.0000      -0.484851       -13.1935
  51   2.0000      -0.478488       -13.0203
  52   2.0000      -0.469376       -12.7724
  53   2.0000      -0.460504       -12.5309
  54   2.0000      -0.456953       -12.4343
  55   2.0000      -0.449806       -12.2398
  56   2.0000      -0.445550       -12.1240
  57   2.0000      -0.439280       -11.9534
  58   2.0000      -0.434547       -11.8246
  59   2.0000      -0.427933       -11.6447
  60   2.0000      -0.421773       -11.4770
  61   2.0000      -0.416151       -11.3241
  62   2.0000      -0.411602       -11.2003
  63   2.0000      -0.338577        -9.2132
  64   2.0000      -0.330737        -8.9998
  65   2.0000      -0.322079        -8.7642
  66   2.0000      -0.297316        -8.0904
  67   0.0000       0.038749         1.0544
  68   0.0000       0.060285         1.6404
  69   0.0000       0.114996         3.1292
  70   0.0000       0.117587         3.1997
  71   0.0000       0.133496         3.6326

MULLIKEN ATOMIC CHARGES
-----------------------
   0 S :    0.126861
   1 C :   -0.114349
   2 C :   -0.128959
   3 C :    0.055351
   4 C :   -0.183793
   5 H :    0.011691
   6 C :    0.043905
   7 H :    0.032173
   8 H :    0.011296
   9 C :    0.014475
  10 H :    0.040879
  11 H :    0.018302
  12 C :   -0.070643
  13 H :    0.014977
  14 H :    0.029933
  15 H :    0.037048
  16 S :    0.136592
  17 C :   -0.101730
  18 C :   -0.057555
  19 C :   -0.016156
  20 C :   -0.190822
  21 H :    0.027099
  22 C :    0.061159
  23 H :    0.031125
  24 H :    0.048891
  25 C :   -0.054086
  26 H :    0.002867
  27 H :    0.017258
  28 C :   -0.041116
  29 H :    0.032542
  30 H :    0.044747
  31 H :    0.015167
  32 H :    0.044422
  33 H :    0.060446
Sum of atomic charges:    0.0000000

LOEWDIN ATOMIC CHARGES
----------------------
   0 S :    0.423086
   1 C :   -0.208903
   2 C :   -0.065470
   3 C :   -0.059455
   4 C :   -0.199955
   5 H :    0.034033
   6 C :   -0.034586
   7 H :    0.034363
   8 H :    0.026320
   9 C :   -0.031204
  10 H :    0.033202
  11 H :    0.019505
  12 C :   -0.068060
  13 H :    0.020406
  14 H :    0.022298
  15 H :    0.029218
  16 S :    0.444028
  17 C :   -0.210018
  18 C :   -0.081861
  19 C :   -0.045513
  20 C :   -0.219828
  21 H :    0.033594
  22 C :   -0.031225
  23 H :    0.038076
  24 H :    0.038241
  25 C :   -0.049043
  26 H :    0.018197
  27 H :    0.019169
  28 C :   -0.058376
  29 H :    0.027748
  30 H :    0.030771
  31 H :    0.018198
  32 H :    0.021560
  33 H :    0.031484

  Mayer bond orders larger than 0.100000
B(  0-S ,  1-C ) :   1.1573 B(  0-S ,  4-C ) :   1.1713 B(  1-C ,  2-C ) :   1.5930
B(  1-C ,  4-C ) :   0.1009 B(  1-C , 32-H ) :   0.9656 B(  2-C ,  3-C ) :   1.2470
B(  2-C ,  6-C ) :   1.0135 B(  3-C ,  4-C ) :   1.5827 B(  3-C ,  5-H ) :   0.9972
B(  4-C , 20-C ) :   0.9925 B(  6-C ,  7-H ) :   0.9416 B(  6-C ,  8-H ) :   0.9364
B(  6-C ,  9-C ) :   1.0630 B(  9-C , 10-H ) :   0.9529 B(  9-C , 11-H ) :   0.9492
B(  9-C , 12-C ) :   1.0848 B( 12-C , 13-H ) :   0.9725 B( 12-C , 14-H ) :   0.9708
B( 12-C , 15-H ) :   0.9700 B( 16-S , 17-C ) :   1.1902 B( 16-S , 20-C ) :   1.1751
B( 17-C , 18-C ) :   1.5810 B( 17-C , 20-C ) :   0.1061 B( 17-C , 33-H ) :   0.9632
B( 18-C , 19-C ) :   1.2620 B( 18-C , 21-H ) :   0.9858 B( 19-C , 20-C ) :   1.5532
B( 19-C , 22-C ) :   1.0237 B( 22-C , 23-H ) :   0.9389 B( 22-C , 24-H ) :   0.9340
B( 22-C , 25-C ) :   1.0880 B( 25-C , 26-H ) :   0.9430 B( 25-C , 27-H ) :   0.9452
B( 25-C , 28-C ) :   1.0884 B( 28-C , 29-H ) :   0.9705 B( 28-C , 30-H ) :   0.9735
B( 28-C , 31-H ) :   0.9708

Dispersion correction           -0.014749348
FINAL SINGLE POINT ENERGY     -1339.875863518624

DIPOLE MOMENT
-------------
                                X             Y             Z
Electronic contribution:      3.82011     -21.78906       6.01991
Nuclear contribution   :     -3.68029      22.36915      -6.26149
                        -----------------------------------------
Total Dipole Moment    :      0.13982       0.58009      -0.24159
                        -----------------------------------------
Magnitude (a.u.)       :      0.64375
Magnitude (Debye)      :      1.63629

Rotational constants in cm-1:     0.021530     0.007901     0.006672
Rotational constants in MHz :   645.459038   236.861498   200.021970

                             ****ORCA TERMINATED NORMALLY****
TOTAL RUN TIME: 0 days 0 hours 0 minutes 21 seconds 759 msec
