                         Program Version 4.2.1 -  RELEASE  -
|  1> ! wB97X-D3 SP def2-SVP
|  2> %pal
|  3> nprocs 24
|  4> end
|  5>
|  6> * xyz 0 1
|  7> S 	 -116.6 	 43.9991 	 -112.334
|  8> C 	 -117.79 	 42.7302 	 -112.743
|  9> C 	 -117.496 	 42.1819 	 -113.97
| 10> C 	 -116.161 	 42.5126 	 -114.422
| 11> C 	 -115.592 	 43.5606 	 -113.701
| 12> H 	 -115.574 	 42.0492 	 -115.266
| 13> C 	 -118.418 	 41.202 	 -114.707
| 14> H 	 -119.267 	 40.9583 	 -114.06
| 15> H 	 -117.916 	 40.2898 	 -114.866
| 16> C 	 -119.043 	 41.6516 	 -115.994
| 17> H 	 -119.78 	 42.4471 	 -115.738
| 18> H 	 -118.24 	 41.9247 	 -116.667
| 19> C 	 -119.87 	 40.5955 	 -116.776
| 20> H 	 -120.096 	 40.8682 	 -117.774
| 21> H 	 -119.22 	 39.6992 	 -116.76
| 22> H 	 -120.882 	 40.4358 	 -116.32
| 23> S 	 -113.381 	 43.8844 	 -115.33
| 24> C 	 -111.806 	 44.1679 	 -114.697
| 25> C 	 -111.848 	 44.3436 	 -113.337
| 26> C 	 -113.179 	 44.223 	 -112.801
| 27> C 	 -114.171 	 43.9851 	 -113.715
| 28> H 	 -110.926 	 44.4871 	 -112.798
| 29> C 	 -113.184 	 44.3343 	 -111.29
| 30> H 	 -114.258 	 44.4803 	 -111.103
| 31> H 	 -112.737 	 45.2829 	 -110.975
| 32> C 	 -112.544 	 43.215 	 -110.356
| 33> H 	 -112.75 	 43.6424 	 -109.362
| 34> H 	 -111.493 	 43.3429 	 -110.512
| 35> C 	 -113.14 	 41.8501 	 -110.621
| 36> H 	 -113.04 	 41.7086 	 -111.724
| 37> H 	 -114.234 	 41.7154 	 -110.46
| 38> H 	 -112.64 	 41.0143 	 -110.191
| 39> H 	 -118.642 	 42.3835 	 -112.247
| 40> H 	 -110.925 	 44.1011 	 -115.293
| 41> *
| 42>
| 43>                          ****END OF INPUT****

CARTESIAN COORDINATES (ANGSTROEM)
---------------------------------
  S    -116.600000   43.999100  -112.334000
  C    -117.790000   42.730200  -112.743000
  C    -117.496000   42.181900  -113.970000
  C    -116.161000   42.512600  -114.422000
  C    -115.592000   43.560600  -113.701000
  H    -115.574000   42.049200  -115.266000
  C    -118.418000   41.202000  -114.707000
  H    -119.267000   40.958300  -114.060000
  H    -117.916000   40.289800  -114.866000
  C    -119.043000   41.651600  -115.994000
  H    -119.780000   42.447100  -115.738000
  H    -118.240000   41.924700  -116.667000
  C    -119.870000   40.595500  -116.776000
  H    -120.096000   40.868200  -117.774000
  H    -119.220000   39.699200  -116.760000
  H    -120.882000   40.435800  -116.320000
  S    -113.381000   43.884400  -115.330000
  C    -111.806000   44.167900  -114.697000
  C    -111.848000   44.343600  -113.337000
  C    -113.179000   44.223000  -112.801000
  C    -114.171000   43.985100  -113.715000
  H    -110.926000   44.487100  -112.798000
  C    -113.184000   44.334300  -111.290000
  H    -114.258000   44.480300  -111.103000
  H    -112.737000   45.282900  -110.975000
  C    -112.544000   43.215000  -110.356000
  H    -112.750000   43.642400  -109.362000
  H    -111.493000   43.342900  -110.512000
  C    -113.140000   41.850100  -110.621000
  H    -113.040000   41.708600  -111.724000
  H    -114.234000   41.715400  -110.460000
  H    -112.640000   41.014300  -110.191000
  H    -118.642000   42.383500  -112.247000
  H    -110.925000   44.101100  -115.293000

 Total Charge           Charge          ....    0
 Multiplicity           Mult            ....    1
 Number of Electrons    NEL             ....  134
 Basis Dimension        Dim             ....  322

ORBITAL ENERGIES
----------------

  NO   OCC          E(Eh)            E(eV)
   0   2.0000     -88.971190     -2421.0292
   1   2.0000     -88.961523     -2420.7661
   2   2.0000     -10.338405      -281.3223
   3   2.0000     -10.335695      -281.2486
   4   2.0000     -10.316233      -280.7190
   5   2.0000     -10.315299      -280.6935
   6   2.0000     -10.307549      -280.4827
   7   2.0000     -10.304811      -280.4082
   8   2.0000     -10.304427      -280.3977
   9   2.0000     -10.290768      -280.0260
  10   2.0000     -10.290319      -280.0138
  11   2.0000     -10.289425      -279.9895
  12   2.0000     -10.287883      -279.9475
  13   2.0000     -10.286246      -279.9030
  14   2.0000     -10.282171      -279.7921
  15   2.0000     -10.274115      -279.5729
  16   2.0000      -8.084694      -219.9957
  17   2.0000      -8.076345      -219.7685
  18   2.0000      -6.043410      -164.4495
  19   2.0000      -6.039414      -164.3408
  20   2.0000      -6.035244      -164.2273
  21   2.0000      -6.034967      -164.2198
  22   2.0000      -6.030816      -164.1068
  23   2.0000      -6.027019      -164.0035
  24   2.0000      -1.004846       -27.3433
  25   2.0000      -0.983896       -26.7732
  26   2.0000      -0.915400       -24.9093
  27   2.0000      -0.902900       -24.5692
  28   2.0000      -0.871458       -23.7136
  29   2.0000      -0.849146       -23.1064
  30   2.0000      -0.843156       -22.9434
  31   2.0000      -0.814599       -22.1664
  32   2.0000      -0.784554       -21.3488
  33   2.0000      -0.775345       -21.0982
  34   2.0000      -0.712321       -19.3832
  35   2.0000      -0.696824       -18.9616
  36   2.0000      -0.689684       -18.7673
  37   2.0000      -0.669187       -18.2095
  38   2.0000      -0.633886       -17.2489
  39   2.0000      -0.616644       -16.7797
  40   2.0000      -0.592377       -16.1194
  41   2.0000      -0.580047       -15.7839
  42   2.0000      -0.571132       -15.5413
  43   2.0000      -0.548154       -14.9160
  44   2.0000      -0.536772       -14.6063
  45   2.0000      -0.523953       -14.2575
  46   2.0000      -0.517165       -14.0728
  47   2.0000      -0.514500       -14.0003
  48   2.0000      -0.508370       -13.8335
  49   2.0000      -0.503184       -13.6923
  50   2.0000      -0.495321       -13.4784
  51   2.0000      -0.479814       -13.0564
  52   2.0000      -0.470411       -12.8005
  53   2.0000      -0.463241       -12.6054
  54   2.0000      -0.457391       -12.4462
  55   2.0000      -0.454639       -12.3714
  56   2.0000      -0.438672       -11.9369
  57   2.0000      -0.434921       -11.8348
  58   2.0000      -0.427876       -11.6431
  59   2.0000      -0.423912       -11.5352
  60   2.0000      -0.415300       -11.3009
  61   2.0000      -0.409726       -11.1492
  62   2.0000      -0.402445       -10.9511
  63   2.0000      -0.357688        -9.7332
  64   2.0000      -0.331736        -9.0270
  65   2.0000      -0.327771        -8.9191
  66   2.0000      -0.292000        -7.9457
  67   0.0000       0.022239         0.6052
  68   0.0000       0.078452         2.1348
  69   0.0000       0.111169         3.0251
  70   0.0000       0.113754         3.0954
  71   0.0000       0.122908         3.3445

MULLIKEN ATOMIC CHARGES
-----------------------
   0 S :    0.098510
   1 C :   -0.088235
   2 C :   -0.087306
   3 C :   -0.011407
   4 C :   -0.104698
   5 H :    0.047263
   6 C :    0.085482
   7 H :    0.005861
   8 H :    0.013134
   9 C :   -0.087542
  10 H :    0.036908
  11 H :    0.030972
  12 C :   -0.051998
  13 H :    0.032236
  14 H :    0.029768
  15 H :    0.036692
  16 S :    0.065534
  17 C :   -0.068553
  18 C :   -0.037293
  19 C :   -0.063680
  20 C :   -0.125363
  21 H :    0.020399
  22 C :    0.016426
  23 H :    0.007597
  24 H :    0.029653
  25 C :   -0.025809
  26 H :    0.034084
  27 H :    0.021820
  28 C :   -0.045356
  29 H :    0.037158
  30 H :    0.042449
  31 H :    0.028455
  32 H :    0.024714
  33 H :    0.052122
Sum of atomic charges:    0.0000000

LOEWDIN ATOMIC CHARGES
----------------------
   0 S :    0.400937
   1 C :   -0.177270
   2 C :   -0.053981
   3 C :   -0.069859
   4 C :   -0.188423
   5 H :    0.038730
   6 C :   -0.032273
   7 H :    0.028463
   8 H :    0.021691
   9 C :   -0.042102
  10 H :    0.029525
  11 H :    0.022480
  12 C :   -0.064358
  13 H :    0.021636
  14 H :    0.025984
  15 H :    0.028587
  16 S :    0.390730
  17 C :   -0.177922
  18 C :   -0.073027
  19 C :   -0.063903
  20 C :   -0.180689
  21 H :    0.031046
  22 C :   -0.039923
  23 H :    0.012030
  24 H :    0.032212
  25 C :   -0.031129
  26 H :    0.028146
  27 H :    0.019120
  28 C :   -0.072868
  29 H :    0.035039
  30 H :    0.034560
  31 H :    0.020128
  32 H :    0.020827
  33 H :    0.025857

  Mayer bond orders larger than 0.100000
B(  0-S ,  1-C ) :   1.1178 B(  0-S ,  4-C ) :   1.1367 B(  1-C ,  2-C ) :   1.6503
B(  1-C , 32-H ) :   0.9703 B(  2-C ,  3-C ) :   1.2128 B(  2-C ,  6-C ) :   1.0324
B(  3-C ,  4-C ) :   1.6015 B(  3-C ,  5-H ) :   0.9691 B(  4-C , 20-C ) :   1.0303
B(  6-C ,  7-H ) :   0.9377 B(  6-C ,  8-H ) :   0.9326 B(  6-C ,  9-C ) :   1.0730
B(  9-C , 10-H ) :   0.9556 B(  9-C , 11-H ) :   0.9563 B(  9-C , 12-C ) :   1.0821
B( 12-C , 13-H ) :   0.9754 B( 12-C , 14-H ) :   0.9741 B( 12-C , 15-H ) :   0.9762
B( 16-S , 17-C ) :   1.1629 B( 16-S , 20-C ) :   1.1126 B( 17-C , 18-C ) :   1.6100
B( 17-C , 33-H ) :   0.9692 B( 18-C , 19-C ) :   1.2169 B( 18-C , 21-H ) :   0.9982
B( 19-C , 20-C ) :   1.6108 B( 19-C , 22-C ) :   1.0292 B( 22-C , 23-H ) :   0.9339
B( 22-C , 24-H ) :   0.9374 B( 22-C , 25-C ) :   1.0617 B( 25-C , 26-H ) :   0.9541
B( 25-C , 27-H ) :   0.9555 B( 25-C , 28-C ) :   1.0670 B( 28-C , 29-H ) :   0.9722
B( 28-C , 30-H ) :   0.9745 B( 28-C , 31-H ) :   0.9749

Dispersion correction           -0.014337110
FINAL SINGLE POINT ENERGY     -1339.864470605255

DIPOLE MOMENT
-------------
                                X             Y             Z
Electronic contribution:      7.68012      13.93447      -2.25058
Nuclear contribution   :     -7.60224     -14.40791       2.32427
                        -----------------------------------------
Total Dipole Moment    :      0.07788      -0.47344       0.07369
                        -----------------------------------------
Magnitude (a.u.)       :      0.48543
Magnitude (Debye)      :      1.23387

Rotational constants in cm-1:     0.022496     0.007617     0.006390
Rotational constants in MHz :   674.410681   228.359548   191.565059

                             ****ORCA TERMINATED NORMALLY****
TOTAL RUN TIME: 0 days 0 hours 0 minutes 21 seconds 472 msec
