                         Program Version 4.2.1 -  RELEASE  -
|  1> ! wB97X-D3 SP def2-SVP
|  2> %pal
|  3> nprocs 24
|  4> end
|  5>
|  6> * xyz 0 1
|  7> S 	 -22.6336 	 -33.4537 	 -93.7414
|  8> C 	 -21.1111 	 -34.381 	 -93.9306
|  9> C 	 -20.0372 	 -33.4565 	 -94.0258
| 10> C 	 -20.3876 	 -32.1109 	 -93.9971
| 11> C 	 -21.7612 	 -31.9348 	 -93.8583
| 12> H 	 -19.7864 	 -31.2673 	 -93.9134
| 13> C 	 -18.5842 	 -33.9174 	 -94.1302
| 14> H 	 -18.3772 	 -34.7702 	 -93.436
| 15> H 	 -17.9 	 -33.1235 	 -93.7673
| 16> C 	 -18.0751 	 -34.4697 	 -95.5086
| 17> H 	 -18.88 	 -35.1564 	 -95.8501
| 18> H 	 -17.9099 	 -33.6486 	 -96.2544
| 19> C 	 -16.7513 	 -35.287 	 -95.4059
| 20> H 	 -16.8619 	 -36.0772 	 -94.6688
| 21> H 	 -16.4534 	 -35.8572 	 -96.3044
| 22> H 	 -16.0148 	 -34.6073 	 -94.9364
| 23> S 	 -24.246 	 -30.78 	 -94.1836
| 24> C 	 -24.4683 	 -29.0227 	 -93.8444
| 25> C 	 -23.2743 	 -28.4772 	 -93.3672
| 26> C 	 -22.1759 	 -29.3701 	 -93.4286
| 27> C 	 -22.4899 	 -30.6764 	 -93.8473
| 28> H 	 -23.2466 	 -27.4411 	 -93.0677
| 29> C 	 -20.8291 	 -28.9091 	 -92.8909
| 30> H 	 -20.2271 	 -29.7644 	 -92.4674
| 31> H 	 -21.0364 	 -28.3503 	 -92.0489
| 32> C 	 -20.0117 	 -28.2931 	 -93.9961
| 33> H 	 -20.3736 	 -27.334 	 -94.2619
| 34> H 	 -20.1895 	 -28.857 	 -94.9328
| 35> C 	 -18.5643 	 -28.2086 	 -93.7855
| 36> H 	 -17.9875 	 -29.0625 	 -94.0791
| 37> H 	 -18.409 	 -27.954 	 -92.7812
| 38> H 	 -18.1655 	 -27.3999 	 -94.3893
| 39> H 	 -21.0187 	 -35.4365 	 -94.2615
| 40> H 	 -25.4798 	 -28.6686 	 -93.8937
| 41> *
| 42>
| 43>                          ****END OF INPUT****

CARTESIAN COORDINATES (ANGSTROEM)
---------------------------------
  S    -22.633600  -33.453700  -93.741400
  C    -21.111100  -34.381000  -93.930600
  C    -20.037200  -33.456500  -94.025800
  C    -20.387600  -32.110900  -93.997100
  C    -21.761200  -31.934800  -93.858300
  H    -19.786400  -31.267300  -93.913400
  C    -18.584200  -33.917400  -94.130200
  H    -18.377200  -34.770200  -93.436000
  H    -17.900000  -33.123500  -93.767300
  C    -18.075100  -34.469700  -95.508600
  H    -18.880000  -35.156400  -95.850100
  H    -17.909900  -33.648600  -96.254400
  C    -16.751300  -35.287000  -95.405900
  H    -16.861900  -36.077200  -94.668800
  H    -16.453400  -35.857200  -96.304400
  H    -16.014800  -34.607300  -94.936400
  S    -24.246000  -30.780000  -94.183600
  C    -24.468300  -29.022700  -93.844400
  C    -23.274300  -28.477200  -93.367200
  C    -22.175900  -29.370100  -93.428600
  C    -22.489900  -30.676400  -93.847300
  H    -23.246600  -27.441100  -93.067700
  C    -20.829100  -28.909100  -92.890900
  H    -20.227100  -29.764400  -92.467400
  H    -21.036400  -28.350300  -92.048900
  C    -20.011700  -28.293100  -93.996100
  H    -20.373600  -27.334000  -94.261900
  H    -20.189500  -28.857000  -94.932800
  C    -18.564300  -28.208600  -93.785500
  H    -17.987500  -29.062500  -94.079100
  H    -18.409000  -27.954000  -92.781200
  H    -18.165500  -27.399900  -94.389300
  H    -21.018700  -35.436500  -94.261500
  H    -25.479800  -28.668600  -93.893700

 Total Charge           Charge          ....    0
 Multiplicity           Mult            ....    1
 Number of Electrons    NEL             ....  134
 Basis Dimension        Dim             ....  322

ORBITAL ENERGIES
----------------

  NO   OCC          E(Eh)            E(eV)
   0   2.0000     -88.971378     -2421.0343
   1   2.0000     -88.964316     -2420.8421
   2   2.0000     -10.334808      -281.2244
   3   2.0000     -10.334315      -281.2110
   4   2.0000     -10.326686      -281.0034
   5   2.0000     -10.320521      -280.8357
   6   2.0000     -10.308404      -280.5059
   7   2.0000     -10.306157      -280.4448
   8   2.0000     -10.301706      -280.3237
   9   2.0000     -10.297832      -280.2183
  10   2.0000     -10.294943      -280.1396
  11   2.0000     -10.290167      -280.0097
  12   2.0000     -10.289005      -279.9781
  13   2.0000     -10.283432      -279.8264
  14   2.0000     -10.278176      -279.6834
  15   2.0000     -10.268079      -279.4086
  16   2.0000      -8.084951      -220.0027
  17   2.0000      -8.078002      -219.8136
  18   2.0000      -6.043550      -164.4534
  19   2.0000      -6.039585      -164.3455
  20   2.0000      -6.036558      -164.2631
  21   2.0000      -6.035709      -164.2400
  22   2.0000      -6.032713      -164.1585
  23   2.0000      -6.028721      -164.0498
  24   2.0000      -1.002945       -27.2915
  25   2.0000      -0.977623       -26.6025
  26   2.0000      -0.921646       -25.0793
  27   2.0000      -0.903163       -24.5763
  28   2.0000      -0.866161       -23.5694
  29   2.0000      -0.859470       -23.3874
  30   2.0000      -0.848303       -23.0835
  31   2.0000      -0.813626       -22.1399
  32   2.0000      -0.784290       -21.3416
  33   2.0000      -0.767762       -20.8919
  34   2.0000      -0.707504       -19.2521
  35   2.0000      -0.699909       -19.0455
  36   2.0000      -0.694853       -18.9079
  37   2.0000      -0.669946       -18.2301
  38   2.0000      -0.640858       -17.4386
  39   2.0000      -0.621786       -16.9197
  40   2.0000      -0.602079       -16.3834
  41   2.0000      -0.574133       -15.6230
  42   2.0000      -0.569251       -15.4901
  43   2.0000      -0.552788       -15.0421
  44   2.0000      -0.541113       -14.7244
  45   2.0000      -0.524815       -14.2810
  46   2.0000      -0.521129       -14.1806
  47   2.0000      -0.515676       -14.0322
  48   2.0000      -0.509609       -13.8672
  49   2.0000      -0.500880       -13.6296
  50   2.0000      -0.493258       -13.4222
  51   2.0000      -0.481660       -13.1066
  52   2.0000      -0.475327       -12.9343
  53   2.0000      -0.462399       -12.5825
  54   2.0000      -0.454536       -12.3686
  55   2.0000      -0.446965       -12.1625
  56   2.0000      -0.440731       -11.9929
  57   2.0000      -0.436216       -11.8700
  58   2.0000      -0.431958       -11.7542
  59   2.0000      -0.426261       -11.5991
  60   2.0000      -0.422765       -11.5040
  61   2.0000      -0.415441       -11.3047
  62   2.0000      -0.406464       -11.0604
  63   2.0000      -0.355051        -9.6614
  64   2.0000      -0.339150        -9.2287
  65   2.0000      -0.331441        -9.0190
  66   2.0000      -0.279077        -7.5941
  67   0.0000       0.009307         0.2533
  68   0.0000       0.070467         1.9175
  69   0.0000       0.092210         2.5092
  70   0.0000       0.123447         3.3592
  71   0.0000       0.129106         3.5132

MULLIKEN ATOMIC CHARGES
-----------------------
   0 S :    0.105320
   1 C :   -0.132105
   2 C :   -0.055693
   3 C :    0.045653
   4 C :   -0.115998
   5 H :   -0.032636
   6 C :    0.010320
   7 H :    0.031041
   8 H :    0.025458
   9 C :   -0.087149
  10 H :    0.028929
  11 H :    0.044424
  12 C :   -0.059306
  13 H :    0.016246
  14 H :    0.051348
  15 H :    0.035615
  16 S :    0.062372
  17 C :   -0.096440
  18 C :   -0.011505
  19 C :   -0.074816
  20 C :   -0.109737
  21 H :    0.025782
  22 C :    0.069390
  23 H :    0.026282
  24 H :    0.009324
  25 C :   -0.068326
  26 H :    0.008660
  27 H :    0.032462
  28 C :    0.007145
  29 H :    0.031297
  30 H :    0.014909
  31 H :    0.022366
  32 H :    0.074346
  33 H :    0.065024
Sum of atomic charges:    0.0000000

LOEWDIN ATOMIC CHARGES
----------------------
   0 S :    0.396075
   1 C :   -0.206419
   2 C :   -0.055250
   3 C :   -0.065446
   4 C :   -0.172961
   5 H :    0.020976
   6 C :   -0.040999
   7 H :    0.034338
   8 H :    0.028688
   9 C :   -0.043762
  10 H :    0.022820
  11 H :    0.026925
  12 C :   -0.075042
  13 H :    0.019703
  14 H :    0.033334
  15 H :    0.028849
  16 S :    0.361761
  17 C :   -0.157384
  18 C :   -0.067233
  19 C :   -0.050778
  20 C :   -0.180367
  21 H :    0.034432
  22 C :   -0.027846
  23 H :    0.033816
  24 H :    0.020068
  25 C :   -0.047383
  26 H :    0.019544
  27 H :    0.030981
  28 C :   -0.058902
  29 H :    0.022431
  30 H :    0.019021
  31 H :    0.031344
  32 H :    0.039255
  33 H :    0.025411

  Mayer bond orders larger than 0.100000
B(  0-S ,  1-C ) :   1.1235 B(  0-S ,  4-C ) :   1.1613 B(  1-C ,  2-C ) :   1.5719
B(  1-C ,  4-C ) :   0.1084 B(  1-C , 32-H ) :   0.9613 B(  2-C ,  3-C ) :   1.2740
B(  2-C ,  6-C ) :   1.0257 B(  3-C ,  4-C ) :   1.5205 B(  3-C ,  5-H ) :   1.0037
B(  4-C , 20-C ) :   1.0973 B(  6-C ,  7-H ) :   0.9469 B(  6-C ,  8-H ) :   0.9432
B(  6-C ,  9-C ) :   1.0480 B(  9-C , 10-H ) :   0.9590 B(  9-C , 11-H ) :   0.9578
B(  9-C , 12-C ) :   1.0728 B( 12-C , 13-H ) :   0.9724 B( 12-C , 14-H ) :   0.9741
B( 12-C , 15-H ) :   0.9758 B( 16-S , 17-C ) :   1.1539 B( 16-S , 20-C ) :   1.1247
B( 17-C , 18-C ) :   1.5688 B( 17-C , 20-C ) :   0.1060 B( 17-C , 33-H ) :   0.9750
B( 18-C , 19-C ) :   1.2674 B( 18-C , 21-H ) :   0.9917 B( 19-C , 20-C ) :   1.5564
B( 19-C , 22-C ) :   1.0405 B( 22-C , 23-H ) :   0.9422 B( 22-C , 24-H ) :   0.9267
B( 22-C , 25-C ) :   1.0479 B( 25-C , 26-H ) :   0.9482 B( 25-C , 27-H ) :   0.9547
B( 25-C , 28-C ) :   1.0992 B( 28-C , 29-H ) :   0.9735 B( 28-C , 30-H ) :   0.9665
B( 28-C , 31-H ) :   0.9664

Dispersion correction           -0.013908619
FINAL SINGLE POINT ENERGY     -1339.864930199481

DIPOLE MOMENT
-------------
                                X             Y             Z
Electronic contribution:    -31.54357      -2.20678       3.12230
Nuclear contribution   :     32.06914       2.62338      -3.03533
                        -----------------------------------------
Total Dipole Moment    :      0.52557       0.41661       0.08698
                        -----------------------------------------
Magnitude (a.u.)       :      0.67628
Magnitude (Debye)      :      1.71896

Rotational constants in cm-1:     0.018892     0.008480     0.006106
Rotational constants in MHz :   566.362439   254.224327   183.053831

                             ****ORCA TERMINATED NORMALLY****
TOTAL RUN TIME: 0 days 0 hours 0 minutes 20 seconds 357 msec
