                         Program Version 4.2.1 -  RELEASE  -
|  1> ! wB97X-D3 SP def2-SVP
|  2> %pal
|  3> nprocs 24
|  4> end
|  5>
|  6> * xyz 0 1
|  7> S 	 -60.4937 	 -58.5227 	 -80.1023
|  8> C 	 -61.6235 	 -59.5928 	 -79.4261
|  9> C 	 -62.904 	 -59.3744 	 -79.8823
| 10> C 	 -62.985 	 -58.0996 	 -80.5424
| 11> C 	 -61.7301 	 -57.6105 	 -80.7698
| 12> H 	 -63.8996 	 -57.6265 	 -80.8894
| 13> C 	 -63.9864 	 -60.3038 	 -79.5164
| 14> H 	 -63.7272 	 -60.952 	 -78.7133
| 15> H 	 -64.0173 	 -60.9512 	 -80.3758
| 16> C 	 -65.4257 	 -59.8431 	 -79.4044
| 17> H 	 -65.643 	 -59.2385 	 -80.2631
| 18> H 	 -66.0274 	 -60.7538 	 -79.3694
| 19> C 	 -65.6283 	 -59.0301 	 -78.0223
| 20> H 	 -64.9513 	 -58.0899 	 -77.9275
| 21> H 	 -66.6397 	 -58.5873 	 -78.1438
| 22> H 	 -65.4923 	 -59.5547 	 -77.0459
| 23> S 	 -59.8334 	 -56.3081 	 -82.3229
| 24> C 	 -60.3051 	 -54.8488 	 -83.1085
| 25> C 	 -61.5679 	 -54.3801 	 -82.7458
| 26> C 	 -62.1867 	 -55.2562 	 -81.8223
| 27> C 	 -61.4651 	 -56.4058 	 -81.5518
| 28> H 	 -61.925 	 -53.3579 	 -83.039
| 29> C 	 -63.5465 	 -54.9426 	 -81.2229
| 30> H 	 -64.2888 	 -55.5753 	 -81.6067
| 31> H 	 -63.8605 	 -54.0099 	 -81.6581
| 32> C 	 -63.6614 	 -54.9863 	 -79.7237
| 33> H 	 -62.8173 	 -54.4998 	 -79.216
| 34> H 	 -63.6269 	 -56.0496 	 -79.4506
| 35> C 	 -64.9754 	 -54.423 	 -79.269
| 36> H 	 -65.0127 	 -53.374 	 -79.5104
| 37> H 	 -65.0515 	 -54.6967 	 -78.2521
| 38> H 	 -65.8695 	 -54.8165 	 -79.7866
| 39> H 	 -61.3672 	 -60.4365 	 -78.7719
| 40> H 	 -59.7348 	 -54.3185 	 -83.826
| 41> *
| 42>
| 43>                          ****END OF INPUT****

CARTESIAN COORDINATES (ANGSTROEM)
---------------------------------
  S    -60.493700  -58.522700  -80.102300
  C    -61.623500  -59.592800  -79.426100
  C    -62.904000  -59.374400  -79.882300
  C    -62.985000  -58.099600  -80.542400
  C    -61.730100  -57.610500  -80.769800
  H    -63.899600  -57.626500  -80.889400
  C    -63.986400  -60.303800  -79.516400
  H    -63.727200  -60.952000  -78.713300
  H    -64.017300  -60.951200  -80.375800
  C    -65.425700  -59.843100  -79.404400
  H    -65.643000  -59.238500  -80.263100
  H    -66.027400  -60.753800  -79.369400
  C    -65.628300  -59.030100  -78.022300
  H    -64.951300  -58.089900  -77.927500
  H    -66.639700  -58.587300  -78.143800
  H    -65.492300  -59.554700  -77.045900
  S    -59.833400  -56.308100  -82.322900
  C    -60.305100  -54.848800  -83.108500
  C    -61.567900  -54.380100  -82.745800
  C    -62.186700  -55.256200  -81.822300
  C    -61.465100  -56.405800  -81.551800
  H    -61.925000  -53.357900  -83.039000
  C    -63.546500  -54.942600  -81.222900
  H    -64.288800  -55.575300  -81.606700
  H    -63.860500  -54.009900  -81.658100
  C    -63.661400  -54.986300  -79.723700
  H    -62.817300  -54.499800  -79.216000
  H    -63.626900  -56.049600  -79.450600
  C    -64.975400  -54.423000  -79.269000
  H    -65.012700  -53.374000  -79.510400
  H    -65.051500  -54.696700  -78.252100
  H    -65.869500  -54.816500  -79.786600
  H    -61.367200  -60.436500  -78.771900
  H    -59.734800  -54.318500  -83.826000

 Total Charge           Charge          ....    0
 Multiplicity           Mult            ....    1
 Number of Electrons    NEL             ....  134
 Basis Dimension        Dim             ....  322

ORBITAL ENERGIES
----------------

  NO   OCC          E(Eh)            E(eV)
   0   2.0000     -88.966600     -2420.9043
   1   2.0000     -88.965933     -2420.8861
   2   2.0000     -10.326515      -280.9988
   3   2.0000     -10.322128      -280.8794
   4   2.0000     -10.313001      -280.6310
   5   2.0000     -10.303732      -280.3788
   6   2.0000     -10.299367      -280.2600
   7   2.0000     -10.297866      -280.2192
   8   2.0000     -10.295675      -280.1596
   9   2.0000     -10.295347      -280.1506
  10   2.0000     -10.293210      -280.0925
  11   2.0000     -10.291893      -280.0566
  12   2.0000     -10.282222      -279.7935
  13   2.0000     -10.281325      -279.7691
  14   2.0000     -10.276369      -279.6342
  15   2.0000     -10.270349      -279.4704
  16   2.0000      -8.083701      -219.9687
  17   2.0000      -8.080323      -219.8768
  18   2.0000      -6.041951      -164.4098
  19   2.0000      -6.038808      -164.3243
  20   2.0000      -6.038006      -164.3025
  21   2.0000      -6.034988      -164.2204
  22   2.0000      -6.034473      -164.2063
  23   2.0000      -6.031059      -164.1135
  24   2.0000      -1.018806       -27.7231
  25   2.0000      -0.986627       -26.8475
  26   2.0000      -0.918901       -25.0046
  27   2.0000      -0.916247       -24.9323
  28   2.0000      -0.867273       -23.5997
  29   2.0000      -0.856870       -23.3166
  30   2.0000      -0.846174       -23.0256
  31   2.0000      -0.813618       -22.1397
  32   2.0000      -0.785156       -21.3652
  33   2.0000      -0.772313       -21.0157
  34   2.0000      -0.712645       -19.3920
  35   2.0000      -0.702022       -19.1030
  36   2.0000      -0.685967       -18.6661
  37   2.0000      -0.660299       -17.9677
  38   2.0000      -0.639217       -17.3940
  39   2.0000      -0.630087       -17.1456
  40   2.0000      -0.599397       -16.3104
  41   2.0000      -0.568496       -15.4696
  42   2.0000      -0.565142       -15.3783
  43   2.0000      -0.553213       -15.0537
  44   2.0000      -0.537751       -14.6330
  45   2.0000      -0.532715       -14.4959
  46   2.0000      -0.514675       -14.0050
  47   2.0000      -0.509647       -13.8682
  48   2.0000      -0.502626       -13.6772
  49   2.0000      -0.496254       -13.5038
  50   2.0000      -0.493476       -13.4282
  51   2.0000      -0.490212       -13.3394
  52   2.0000      -0.477276       -12.9874
  53   2.0000      -0.465513       -12.6673
  54   2.0000      -0.457094       -12.4382
  55   2.0000      -0.455695       -12.4001
  56   2.0000      -0.446340       -12.1455
  57   2.0000      -0.441141       -12.0041
  58   2.0000      -0.432541       -11.7700
  59   2.0000      -0.424194       -11.5429
  60   2.0000      -0.419436       -11.4134
  61   2.0000      -0.415818       -11.3150
  62   2.0000      -0.410015       -11.1571
  63   2.0000      -0.355459        -9.6725
  64   2.0000      -0.334721        -9.1082
  65   2.0000      -0.327100        -8.9008
  66   2.0000      -0.277107        -7.5405
  67   0.0000       0.026521         0.7217
  68   0.0000       0.078066         2.1243
  69   0.0000       0.106679         2.9029
  70   0.0000       0.118799         3.2327
  71   0.0000       0.127120         3.4591

MULLIKEN ATOMIC CHARGES
-----------------------
   0 S :    0.131833
   1 C :   -0.144035
   2 C :   -0.066816
   3 C :   -0.025949
   4 C :   -0.098043
   5 H :    0.006563
   6 C :    0.074326
   7 H :    0.009836
   8 H :    0.029075
   9 C :   -0.046411
  10 H :    0.029337
  11 H :    0.038861
  12 C :   -0.125114
  13 H :    0.048755
  14 H :    0.041447
  15 H :    0.052745
  16 S :    0.092191
  17 C :   -0.065719
  18 C :   -0.056060
  19 C :   -0.050389
  20 C :   -0.133687
  21 H :    0.036602
  22 C :    0.087024
  23 H :    0.009299
  24 H :   -0.013266
  25 C :   -0.082779
  26 H :    0.036616
  27 H :    0.031670
  28 C :   -0.008939
  29 H :    0.025544
  30 H :    0.030536
  31 H :    0.015782
  32 H :    0.049072
  33 H :    0.040090
Sum of atomic charges:    0.0000000

LOEWDIN ATOMIC CHARGES
----------------------
   0 S :    0.454947
   1 C :   -0.224789
   2 C :   -0.053384
   3 C :   -0.071902
   4 C :   -0.211075
   5 H :    0.029957
   6 C :   -0.039910
   7 H :    0.026510
   8 H :    0.038035
   9 C :   -0.029855
  10 H :    0.022047
  11 H :    0.031103
  12 C :   -0.087000
  13 H :    0.032993
  14 H :    0.026715
  15 H :    0.030708
  16 S :    0.386296
  17 C :   -0.184649
  18 C :   -0.078092
  19 C :   -0.058282
  20 C :   -0.172305
  21 H :    0.041694
  22 C :   -0.030573
  23 H :    0.022036
  24 H :    0.023384
  25 C :   -0.042328
  26 H :    0.028741
  27 H :    0.025516
  28 C :   -0.058785
  29 H :    0.022784
  30 H :    0.023628
  31 H :    0.024877
  32 H :    0.029934
  33 H :    0.021023

  Mayer bond orders larger than 0.100000
B(  0-S ,  1-C ) :   1.1351 B(  0-S ,  4-C ) :   1.1792 B(  1-C ,  2-C ) :   1.5965
B(  1-C , 32-H ) :   0.9692 B(  2-C ,  3-C ) :   1.2460 B(  2-C ,  6-C ) :   1.0330
B(  3-C ,  4-C ) :   1.5363 B(  3-C ,  5-H ) :   0.9891 B(  4-C , 20-C ) :   1.0661
B(  6-C ,  7-H ) :   0.9392 B(  6-C ,  8-H ) :   0.9104 B(  6-C ,  9-C ) :   1.0944
B(  9-C , 10-H ) :   0.9499 B(  9-C , 11-H ) :   0.9510 B(  9-C , 12-C ) :   1.0608
B( 12-C , 13-H ) :   0.9761 B( 12-C , 14-H ) :   0.9780 B( 12-C , 15-H ) :   0.9757
B( 16-S , 17-C ) :   1.1657 B( 16-S , 20-C ) :   1.1138 B( 17-C , 18-C ) :   1.6044
B( 17-C , 20-C ) :   0.1024 B( 17-C , 33-H ) :   0.9669 B( 18-C , 19-C ) :   1.2575
B( 18-C , 21-H ) :   0.9796 B( 19-C , 20-C ) :   1.5989 B( 19-C , 22-C ) :   1.0332
B( 22-C , 23-H ) :   0.9183 B( 22-C , 24-H ) :   0.9260 B( 22-C , 25-C ) :   1.0651
B( 25-C , 26-H ) :   0.9514 B( 25-C , 27-H ) :   0.9419 B( 25-C , 28-C ) :   1.0965
B( 28-C , 29-H ) :   0.9739 B( 28-C , 30-H ) :   0.9710 B( 28-C , 31-H ) :   0.9681

Dispersion correction           -0.015263174
FINAL SINGLE POINT ENERGY     -1339.869578660148

DIPOLE MOMENT
-------------
                                X             Y             Z
Electronic contribution:     29.11388      -1.97453     -12.72913
Nuclear contribution   :    -29.76105       1.92619      12.82736
                        -----------------------------------------
Total Dipole Moment    :     -0.64717      -0.04835       0.09822
                        -----------------------------------------
Magnitude (a.u.)       :      0.65637
Magnitude (Debye)      :      1.66835

Rotational constants in cm-1:     0.018949     0.010295     0.007265
Rotational constants in MHz :   568.065340   308.647482   217.809112

                             ****ORCA TERMINATED NORMALLY****
TOTAL RUN TIME: 0 days 0 hours 0 minutes 21 seconds 845 msec
