                         Program Version 4.2.1 -  RELEASE  -
|  1> ! wB97X-D3 SP def2-SVP
|  2> %pal
|  3> nprocs 24
|  4> end
|  5>
|  6> * xyz 0 1
|  7> S 	 -38.5756 	 -52.2102 	 -72.8439
|  8> C 	 -39.0052 	 -51.3504 	 -74.2463
|  9> C 	 -39.68 	 -50.2365 	 -73.838
| 10> C 	 -39.7636 	 -50.1456 	 -72.3879
| 11> C 	 -39.2197 	 -51.1717 	 -71.7025
| 12> H 	 -40.2595 	 -49.3098 	 -71.8854
| 13> C 	 -40.2958 	 -49.1724 	 -74.7011
| 14> H 	 -39.5739 	 -48.9707 	 -75.4459
| 15> H 	 -40.3733 	 -48.2646 	 -74.1745
| 16> C 	 -41.7073 	 -49.4722 	 -75.3238
| 17> H 	 -41.6187 	 -48.7105 	 -76.1004
| 18> H 	 -41.6925 	 -50.4303 	 -75.7621
| 19> C 	 -42.9063 	 -49.0987 	 -74.4202
| 20> H 	 -43.9025 	 -49.2968 	 -74.8454
| 21> H 	 -42.9256 	 -49.6111 	 -73.4254
| 22> H 	 -42.8158 	 -47.9772 	 -74.2576
| 23> S 	 -37.3335 	 -51.4974 	 -69.7236
| 24> C 	 -37.8155 	 -51.7898 	 -68.0659
| 25> C 	 -39.1955 	 -51.6886 	 -67.9345
| 26> C 	 -39.8268 	 -51.1813 	 -69.1874
| 27> C 	 -38.9744 	 -51.2067 	 -70.2681
| 28> H 	 -39.6529 	 -51.9023 	 -66.952
| 29> C 	 -41.2683 	 -50.9759 	 -69.2925
| 30> H 	 -41.8314 	 -51.8986 	 -68.9635
| 31> H 	 -41.6455 	 -50.8704 	 -70.3262
| 32> C 	 -41.8572 	 -49.739 	 -68.4681
| 33> H 	 -41.2563 	 -48.8392 	 -68.7295
| 34> H 	 -41.6474 	 -49.785 	 -67.4819
| 35> C 	 -43.3924 	 -49.5556 	 -68.5608
| 36> H 	 -43.8816 	 -50.1901 	 -67.8266
| 37> H 	 -43.7232 	 -49.8112 	 -69.5809
| 38> H 	 -43.7817 	 -48.5931 	 -68.2833
| 39> H 	 -38.7893 	 -51.5232 	 -75.3215
| 40> H 	 -37.1177 	 -52.0713 	 -67.2822
| 41> *
| 42>
| 43>                          ****END OF INPUT****

CARTESIAN COORDINATES (ANGSTROEM)
---------------------------------
  S    -38.575600  -52.210200  -72.843900
  C    -39.005200  -51.350400  -74.246300
  C    -39.680000  -50.236500  -73.838000
  C    -39.763600  -50.145600  -72.387900
  C    -39.219700  -51.171700  -71.702500
  H    -40.259500  -49.309800  -71.885400
  C    -40.295800  -49.172400  -74.701100
  H    -39.573900  -48.970700  -75.445900
  H    -40.373300  -48.264600  -74.174500
  C    -41.707300  -49.472200  -75.323800
  H    -41.618700  -48.710500  -76.100400
  H    -41.692500  -50.430300  -75.762100
  C    -42.906300  -49.098700  -74.420200
  H    -43.902500  -49.296800  -74.845400
  H    -42.925600  -49.611100  -73.425400
  H    -42.815800  -47.977200  -74.257600
  S    -37.333500  -51.497400  -69.723600
  C    -37.815500  -51.789800  -68.065900
  C    -39.195500  -51.688600  -67.934500
  C    -39.826800  -51.181300  -69.187400
  C    -38.974400  -51.206700  -70.268100
  H    -39.652900  -51.902300  -66.952000
  C    -41.268300  -50.975900  -69.292500
  H    -41.831400  -51.898600  -68.963500
  H    -41.645500  -50.870400  -70.326200
  C    -41.857200  -49.739000  -68.468100
  H    -41.256300  -48.839200  -68.729500
  H    -41.647400  -49.785000  -67.481900
  C    -43.392400  -49.555600  -68.560800
  H    -43.881600  -50.190100  -67.826600
  H    -43.723200  -49.811200  -69.580900
  H    -43.781700  -48.593100  -68.283300
  H    -38.789300  -51.523200  -75.321500
  H    -37.117700  -52.071300  -67.282200

 Total Charge           Charge          ....    0
 Multiplicity           Mult            ....    1
 Number of Electrons    NEL             ....  134
 Basis Dimension        Dim             ....  322

ORBITAL ENERGIES
----------------

  NO   OCC          E(Eh)            E(eV)
   0   2.0000     -88.962935     -2420.8045
   1   2.0000     -88.961856     -2420.7752
   2   2.0000     -10.329355      -281.0760
   3   2.0000     -10.321511      -280.8626
   4   2.0000     -10.321365      -280.8586
   5   2.0000     -10.312179      -280.6087
   6   2.0000     -10.308142      -280.4988
   7   2.0000     -10.304466      -280.3988
   8   2.0000     -10.295006      -280.1414
   9   2.0000     -10.294650      -280.1317
  10   2.0000     -10.290265      -280.0123
  11   2.0000     -10.288143      -279.9546
  12   2.0000     -10.287177      -279.9283
  13   2.0000     -10.283540      -279.8293
  14   2.0000     -10.283264      -279.8218
  15   2.0000     -10.279382      -279.7162
  16   2.0000      -8.079815      -219.8629
  17   2.0000      -8.076844      -219.7821
  18   2.0000      -6.038347      -164.3118
  19   2.0000      -6.035480      -164.2338
  20   2.0000      -6.033719      -164.1858
  21   2.0000      -6.031251      -164.1187
  22   2.0000      -6.030644      -164.1022
  23   2.0000      -6.027500      -164.0166
  24   2.0000      -1.020684       -27.7742
  25   2.0000      -0.988319       -26.8935
  26   2.0000      -0.912221       -24.8228
  27   2.0000      -0.903149       -24.5759
  28   2.0000      -0.874617       -23.7995
  29   2.0000      -0.850261       -23.1368
  30   2.0000      -0.841786       -22.9062
  31   2.0000      -0.819613       -22.3028
  32   2.0000      -0.782098       -21.2820
  33   2.0000      -0.771486       -20.9932
  34   2.0000      -0.710009       -19.3203
  35   2.0000      -0.705673       -19.2023
  36   2.0000      -0.698375       -19.0038
  37   2.0000      -0.661046       -17.9880
  38   2.0000      -0.640382       -17.4257
  39   2.0000      -0.618479       -16.8297
  40   2.0000      -0.598501       -16.2860
  41   2.0000      -0.581651       -15.8275
  42   2.0000      -0.556136       -15.1332
  43   2.0000      -0.547893       -14.9089
  44   2.0000      -0.539613       -14.6836
  45   2.0000      -0.526277       -14.3207
  46   2.0000      -0.522652       -14.2221
  47   2.0000      -0.514475       -13.9996
  48   2.0000      -0.506052       -13.7704
  49   2.0000      -0.500879       -13.6296
  50   2.0000      -0.487703       -13.2711
  51   2.0000      -0.483232       -13.1494
  52   2.0000      -0.472033       -12.8447
  53   2.0000      -0.463218       -12.6048
  54   2.0000      -0.456429       -12.4201
  55   2.0000      -0.454632       -12.3712
  56   2.0000      -0.444064       -12.0836
  57   2.0000      -0.441041       -12.0013
  58   2.0000      -0.434278       -11.8173
  59   2.0000      -0.424704       -11.5568
  60   2.0000      -0.415087       -11.2951
  61   2.0000      -0.412423       -11.2226
  62   2.0000      -0.404618       -11.0102
  63   2.0000      -0.352743        -9.5986
  64   2.0000      -0.326333        -8.8800
  65   2.0000      -0.321318        -8.7435
  66   2.0000      -0.300422        -8.1749
  67   0.0000       0.035405         0.9634
  68   0.0000       0.076241         2.0746
  69   0.0000       0.111062         3.0221
  70   0.0000       0.126969         3.4550
  71   0.0000       0.127427         3.4675

MULLIKEN ATOMIC CHARGES
-----------------------
   0 S :    0.117019
   1 C :   -0.117343
   2 C :   -0.119731
   3 C :    0.006711
   4 C :   -0.119427
   5 H :    0.012589
   6 C :    0.077223
   7 H :    0.012838
   8 H :   -0.002518
   9 C :   -0.030934
  10 H :    0.028569
  11 H :    0.022054
  12 C :   -0.080437
  13 H :    0.043762
  14 H :    0.044686
  15 H :    0.036813
  16 S :    0.098640
  17 C :   -0.101785
  18 C :   -0.031719
  19 C :   -0.009845
  20 C :   -0.138021
  21 H :    0.038740
  22 C :   -0.000697
  23 H :    0.038293
  24 H :    0.027410
  25 C :   -0.056892
  26 H :    0.026416
  27 H :   -0.002850
  28 C :   -0.033972
  29 H :    0.027660
  30 H :    0.030791
  31 H :    0.028842
  32 H :    0.059540
  33 H :    0.067575
Sum of atomic charges:    0.0000000

LOEWDIN ATOMIC CHARGES
----------------------
   0 S :    0.461017
   1 C :   -0.222146
   2 C :   -0.070663
   3 C :   -0.070362
   4 C :   -0.227903
   5 H :    0.028817
   6 C :   -0.027874
   7 H :    0.025873
   8 H :    0.022668
   9 C :   -0.030381
  10 H :    0.028773
  11 H :    0.015191
  12 C :   -0.074390
  13 H :    0.028372
  14 H :    0.028083
  15 H :    0.032640
  16 S :    0.396792
  17 C :   -0.182932
  18 C :   -0.069124
  19 C :   -0.056245
  20 C :   -0.188093
  21 H :    0.037996
  22 C :   -0.041070
  23 H :    0.037924
  24 H :    0.029826
  25 C :   -0.036079
  26 H :    0.026643
  27 H :    0.005204
  28 C :   -0.063275
  29 H :    0.026329
  30 H :    0.025187
  31 H :    0.025284
  32 H :    0.045124
  33 H :    0.032797

  Mayer bond orders larger than 0.100000
B(  0-S ,  1-C ) :   1.1487 B(  0-S ,  4-C ) :   1.1729 B(  1-C ,  2-C ) :   1.5838
B(  1-C , 32-H ) :   0.9689 B(  2-C ,  3-C ) :   1.2751 B(  2-C ,  6-C ) :   1.0314
B(  3-C ,  4-C ) :   1.5341 B(  3-C ,  5-H ) :   0.9969 B(  4-C , 20-C ) :   1.0284
B(  6-C ,  7-H ) :   0.9379 B(  6-C ,  8-H ) :   0.9350 B(  6-C ,  9-C ) :   1.0554
B(  9-C , 10-H ) :   0.9595 B(  9-C , 11-H ) :   0.9621 B(  9-C , 12-C ) :   1.0671
B( 12-C , 13-H ) :   0.9753 B( 12-C , 14-H ) :   0.9777 B( 12-C , 15-H ) :   0.9737
B( 16-S , 17-C ) :   1.1460 B( 16-S , 20-C ) :   1.1276 B( 17-C , 18-C ) :   1.6345
B( 17-C , 33-H ) :   0.9682 B( 18-C , 19-C ) :   1.1904 B( 18-C , 21-H ) :   0.9865
B( 19-C , 20-C ) :   1.6142 B( 19-C , 22-C ) :   1.0823 B( 22-C , 23-H ) :   0.9353
B( 22-C , 24-H ) :   0.9352 B( 22-C , 25-C ) :   1.0354 B( 25-C , 26-H ) :   0.9572
B( 25-C , 27-H ) :   0.9584 B( 25-C , 28-C ) :   1.0742 B( 28-C , 29-H ) :   0.9752
B( 28-C , 30-H ) :   0.9785 B( 28-C , 31-H ) :   0.9747

Dispersion correction           -0.013966125
FINAL SINGLE POINT ENERGY     -1339.860957749214

DIPOLE MOMENT
-------------
                                X             Y             Z
Electronic contribution:     27.52007     -14.92015       2.76559
Nuclear contribution   :    -28.02765      15.26466      -2.73582
                        -----------------------------------------
Total Dipole Moment    :     -0.50758       0.34450       0.02977
                        -----------------------------------------
Magnitude (a.u.)       :      0.61417
Magnitude (Debye)      :      1.56109

Rotational constants in cm-1:     0.016661     0.009704     0.006499
Rotational constants in MHz :   499.471905   290.915631   194.841560

                             ****ORCA TERMINATED NORMALLY****
TOTAL RUN TIME: 0 days 0 hours 0 minutes 21 seconds 527 msec
