                         Program Version 4.2.1 -  RELEASE  -
|  1> ! wB97X-D3 SP def2-SVP
|  2> %pal
|  3> nprocs 24
|  4> end
|  5>
|  6> * xyz 0 1
|  7> S 	 -104.863 	 22.4067 	 -114.074
|  8> C 	 -104.455 	 22.9682 	 -112.427
|  9> C 	 -105.136 	 22.299 	 -111.424
| 10> C 	 -105.887 	 21.2293 	 -111.948
| 11> C 	 -105.79 	 21.1716 	 -113.315
| 12> H 	 -106.449 	 20.5459 	 -111.309
| 13> C 	 -105.147 	 22.5977 	 -109.974
| 14> H 	 -106.067 	 22.1623 	 -109.549
| 15> H 	 -105.333 	 23.6934 	 -109.881
| 16> C 	 -103.903 	 22.3082 	 -109.134
| 17> H 	 -102.957 	 22.3669 	 -109.706
| 18> H 	 -103.678 	 22.9372 	 -108.218
| 19> C 	 -104.085 	 20.968 	 -108.378
| 20> H 	 -104.639 	 21.1266 	 -107.469
| 21> H 	 -104.667 	 20.3006 	 -109.027
| 22> H 	 -103.18 	 20.5291 	 -108.124
| 23> S 	 -106.75 	 20.3989 	 -115.72
| 24> C 	 -107.312 	 18.824 	 -115.905
| 25> C 	 -106.771 	 17.9524 	 -114.968
| 26> C 	 -106.192 	 18.6472 	 -113.903
| 27> C 	 -106.105 	 20.0241 	 -114.154
| 28> H 	 -107.012 	 16.8711 	 -115.005
| 29> C 	 -105.625 	 17.8736 	 -112.71
| 30> H 	 -106.098 	 16.7799 	 -112.577
| 31> H 	 -105.676 	 18.3558 	 -111.734
| 32> C 	 -104.183 	 17.6377 	 -112.849
| 33> H 	 -104.008 	 16.9593 	 -113.728
| 34> H 	 -104.022 	 16.9793 	 -111.992
| 35> C 	 -103.19 	 18.7709 	 -112.914
| 36> H 	 -102.16 	 18.5813 	 -112.907
| 37> H 	 -103.406 	 19.4426 	 -112.159
| 38> H 	 -103.372 	 19.279 	 -113.839
| 39> H 	 -103.832 	 23.7608 	 -112.199
| 40> H 	 -107.785 	 18.417 	 -116.806
| 41> *
| 42>
| 43>                          ****END OF INPUT****

CARTESIAN COORDINATES (ANGSTROEM)
---------------------------------
  S    -104.863000   22.406700  -114.074000
  C    -104.455000   22.968200  -112.427000
  C    -105.136000   22.299000  -111.424000
  C    -105.887000   21.229300  -111.948000
  C    -105.790000   21.171600  -113.315000
  H    -106.449000   20.545900  -111.309000
  C    -105.147000   22.597700  -109.974000
  H    -106.067000   22.162300  -109.549000
  H    -105.333000   23.693400  -109.881000
  C    -103.903000   22.308200  -109.134000
  H    -102.957000   22.366900  -109.706000
  H    -103.678000   22.937200  -108.218000
  C    -104.085000   20.968000  -108.378000
  H    -104.639000   21.126600  -107.469000
  H    -104.667000   20.300600  -109.027000
  H    -103.180000   20.529100  -108.124000
  S    -106.750000   20.398900  -115.720000
  C    -107.312000   18.824000  -115.905000
  C    -106.771000   17.952400  -114.968000
  C    -106.192000   18.647200  -113.903000
  C    -106.105000   20.024100  -114.154000
  H    -107.012000   16.871100  -115.005000
  C    -105.625000   17.873600  -112.710000
  H    -106.098000   16.779900  -112.577000
  H    -105.676000   18.355800  -111.734000
  C    -104.183000   17.637700  -112.849000
  H    -104.008000   16.959300  -113.728000
  H    -104.022000   16.979300  -111.992000
  C    -103.190000   18.770900  -112.914000
  H    -102.160000   18.581300  -112.907000
  H    -103.406000   19.442600  -112.159000
  H    -103.372000   19.279000  -113.839000
  H    -103.832000   23.760800  -112.199000
  H    -107.785000   18.417000  -116.806000

 Total Charge           Charge          ....    0
 Multiplicity           Mult            ....    1
 Number of Electrons    NEL             ....  134
 Basis Dimension        Dim             ....  322

ORBITAL ENERGIES
----------------

  NO   OCC          E(Eh)            E(eV)
   0   2.0000     -88.971634     -2421.0412
   1   2.0000     -88.966053     -2420.8894
   2   2.0000     -10.325790      -280.9790
   3   2.0000     -10.322375      -280.8861
   4   2.0000     -10.312063      -280.6055
   5   2.0000     -10.309377      -280.5324
   6   2.0000     -10.302429      -280.3433
   7   2.0000     -10.299056      -280.2515
   8   2.0000     -10.298575      -280.2385
   9   2.0000     -10.295732      -280.1611
  10   2.0000     -10.293743      -280.1070
  11   2.0000     -10.291976      -280.0589
  12   2.0000     -10.290632      -280.0223
  13   2.0000     -10.276506      -279.6379
  14   2.0000     -10.272196      -279.5207
  15   2.0000     -10.255066      -279.0545
  16   2.0000      -8.086282      -220.0389
  17   2.0000      -8.082491      -219.9358
  18   2.0000      -6.044712      -164.4850
  19   2.0000      -6.041051      -164.3853
  20   2.0000      -6.040702      -164.3759
  21   2.0000      -6.036889      -164.2721
  22   2.0000      -6.036781      -164.2692
  23   2.0000      -6.033464      -164.1789
  24   2.0000      -1.016511       -27.6607
  25   2.0000      -0.991195       -26.9718
  26   2.0000      -0.919392       -25.0179
  27   2.0000      -0.916622       -24.9426
  28   2.0000      -0.870544       -23.6887
  29   2.0000      -0.853627       -23.2284
  30   2.0000      -0.849960       -23.1286
  31   2.0000      -0.812685       -22.1143
  32   2.0000      -0.791993       -21.5512
  33   2.0000      -0.776691       -21.1348
  34   2.0000      -0.709203       -19.2984
  35   2.0000      -0.701351       -19.0847
  36   2.0000      -0.682629       -18.5753
  37   2.0000      -0.660377       -17.9698
  38   2.0000      -0.637447       -17.3458
  39   2.0000      -0.624593       -16.9960
  40   2.0000      -0.603344       -16.4178
  41   2.0000      -0.570397       -15.5213
  42   2.0000      -0.560179       -15.2432
  43   2.0000      -0.550364       -14.9762
  44   2.0000      -0.542103       -14.7514
  45   2.0000      -0.532995       -14.5035
  46   2.0000      -0.517305       -14.0766
  47   2.0000      -0.511853       -13.9282
  48   2.0000      -0.505006       -13.7419
  49   2.0000      -0.496994       -13.5239
  50   2.0000      -0.491672       -13.3791
  51   2.0000      -0.480637       -13.0788
  52   2.0000      -0.473415       -12.8823
  53   2.0000      -0.464320       -12.6348
  54   2.0000      -0.460627       -12.5343
  55   2.0000      -0.457125       -12.4390
  56   2.0000      -0.449823       -12.2403
  57   2.0000      -0.446237       -12.1427
  58   2.0000      -0.436400       -11.8750
  59   2.0000      -0.430598       -11.7172
  60   2.0000      -0.405978       -11.0472
  61   2.0000      -0.404703       -11.0125
  62   2.0000      -0.400775       -10.9056
  63   2.0000      -0.348729        -9.4894
  64   2.0000      -0.339821        -9.2470
  65   2.0000      -0.332915        -9.0591
  66   2.0000      -0.279472        -7.6048
  67   0.0000       0.023674         0.6442
  68   0.0000       0.066484         1.8091
  69   0.0000       0.093491         2.5440
  70   0.0000       0.115151         3.1334
  71   0.0000       0.126487         3.4419

MULLIKEN ATOMIC CHARGES
-----------------------
   0 S :    0.110440
   1 C :   -0.086427
   2 C :   -0.072088
   3 C :   -0.034218
   4 C :   -0.065899
   5 H :    0.019928
   6 C :    0.042606
   7 H :    0.027250
   8 H :    0.038423
   9 C :   -0.084068
  10 H :    0.038111
  11 H :    0.036529
  12 C :   -0.037996
  13 H :    0.032694
  14 H :    0.020195
  15 H :    0.018886
  16 S :    0.113863
  17 C :   -0.088814
  18 C :   -0.062791
  19 C :   -0.030930
  20 C :   -0.149541
  21 H :    0.033597
  22 C :    0.024098
  23 H :    0.044923
  24 H :    0.017202
  25 C :   -0.099405
  26 H :    0.016238
  27 H :    0.016678
  28 C :    0.047008
  29 H :    0.022719
  30 H :    0.002399
  31 H :    0.021625
  32 H :    0.006738
  33 H :    0.060023
Sum of atomic charges:    0.0000000

LOEWDIN ATOMIC CHARGES
----------------------
   0 S :    0.406159
   1 C :   -0.176079
   2 C :   -0.056522
   3 C :   -0.069320
   4 C :   -0.190543
   5 H :    0.033255
   6 C :   -0.039530
   7 H :    0.033902
   8 H :    0.042306
   9 C :   -0.047954
  10 H :    0.026297
  11 H :    0.032613
  12 C :   -0.056657
  13 H :    0.023168
  14 H :    0.018451
  15 H :    0.015175
  16 S :    0.439671
  17 C :   -0.208666
  18 C :   -0.076460
  19 C :   -0.057588
  20 C :   -0.211559
  21 H :    0.038408
  22 C :   -0.036777
  23 H :    0.048158
  24 H :    0.025138
  25 C :   -0.047422
  26 H :    0.020978
  27 H :    0.020485
  28 C :   -0.054669
  29 H :    0.023392
  30 H :    0.015464
  31 H :    0.026893
  32 H :    0.008346
  33 H :    0.031487

  Mayer bond orders larger than 0.100000
B(  0-S ,  1-C ) :   1.1195 B(  0-S ,  4-C ) :   1.1578 B(  1-C ,  2-C ) :   1.6235
B(  1-C , 32-H ) :   0.9747 B(  2-C ,  3-C ) :   1.2351 B(  2-C ,  6-C ) :   1.0265
B(  3-C ,  4-C ) :   1.5767 B(  3-C ,  5-H ) :   0.9964 B(  4-C , 20-C ) :   1.0075
B(  6-C ,  7-H ) :   0.9489 B(  6-C ,  8-H ) :   0.9301 B(  6-C ,  9-C ) :   1.0448
B(  9-C , 10-H ) :   0.9631 B(  9-C , 11-H ) :   0.9644 B(  9-C , 12-C ) :   1.0635
B( 12-C , 13-H ) :   0.9814 B( 12-C , 14-H ) :   0.9801 B( 12-C , 15-H ) :   0.9736
B( 16-S , 17-C ) :   1.1957 B( 16-S , 20-C ) :   1.1447 B( 17-C , 18-C ) :   1.5734
B( 17-C , 20-C ) :   0.1070 B( 17-C , 33-H ) :   0.9607 B( 18-C , 19-C ) :   1.2854
B( 18-C , 21-H ) :   0.9821 B( 19-C , 20-C ) :   1.5693 B( 19-C , 22-C ) :   1.0288
B( 22-C , 23-H ) :   0.9367 B( 22-C , 24-H ) :   0.9372 B( 22-C , 25-C ) :   1.0822
B( 25-C , 26-H ) :   0.9482 B( 25-C , 27-H ) :   0.9522 B( 25-C , 28-C ) :   1.0831
B( 28-C , 29-H ) :   0.9699 B( 28-C , 30-H ) :   0.9664 B( 28-C , 31-H ) :   0.9621

Dispersion correction           -0.016222573
FINAL SINGLE POINT ENERGY     -1339.846950897157

DIPOLE MOMENT
-------------
                                X             Y             Z
Electronic contribution:    -11.38018       9.31505     -25.44074
Nuclear contribution   :     11.49983      -9.56093      26.00200
                        -----------------------------------------
Total Dipole Moment    :      0.11965      -0.24589       0.56127
                        -----------------------------------------
Magnitude (a.u.)       :      0.62434
Magnitude (Debye)      :      1.58694

Rotational constants in cm-1:     0.021741     0.009705     0.007731
Rotational constants in MHz :   651.783677   290.959598   231.757897

                             ****ORCA TERMINATED NORMALLY****
TOTAL RUN TIME: 0 days 0 hours 0 minutes 23 seconds 781 msec
