                         Program Version 4.2.1 -  RELEASE  -
|  1> ! wB97X-D3 SP def2-SVP
|  2> %pal
|  3> nprocs 24
|  4> end
|  5>
|  6> * xyz 0 1
|  7> S 	 -124.854 	 59.7286 	 -59.3378
|  8> C 	 -123.717 	 58.9459 	 -60.4313
|  9> C 	 -123.828 	 57.5333 	 -60.2993
| 10> C 	 -124.866 	 57.1649 	 -59.337
| 11> C 	 -125.22 	 58.2501 	 -58.5532
| 12> H 	 -125.072 	 56.1703 	 -59.1148
| 13> C 	 -123.01 	 56.476 	 -61.0763
| 14> H 	 -121.936 	 56.8653 	 -61.0551
| 15> H 	 -123.259 	 56.5264 	 -62.0665
| 16> C 	 -122.987 	 54.9724 	 -60.7128
| 17> H 	 -124.029 	 54.6499 	 -60.5925
| 18> H 	 -122.709 	 54.4057 	 -61.6422
| 19> C 	 -122.101 	 54.4947 	 -59.5537
| 20> H 	 -121.012 	 54.5141 	 -59.7408
| 21> H 	 -122.356 	 55.234 	 -58.727
| 22> H 	 -122.452 	 53.43 	 -59.2567
| 23> S 	 -125.31 	 58.3862 	 -55.7562
| 24> C 	 -126.91 	 58.5011 	 -55.1117
| 25> C 	 -127.877 	 58.138 	 -56.0041
| 26> C 	 -127.4 	 57.8272 	 -57.3128
| 27> C 	 -126.062 	 58.1627 	 -57.3918
| 28> H 	 -128.931 	 58.0926 	 -55.6742
| 29> C 	 -128.307 	 57.3944 	 -58.497
| 30> H 	 -127.672 	 57.1225 	 -59.4182
| 31> H 	 -128.861 	 58.2281 	 -58.9627
| 32> C 	 -129.237 	 56.189 	 -58.2286
| 33> H 	 -130.113 	 56.0897 	 -58.9721
| 34> H 	 -129.778 	 56.4168 	 -57.3011
| 35> C 	 -128.469 	 54.8429 	 -58.0228
| 36> H 	 -129.145 	 53.9893 	 -58.011
| 37> H 	 -127.891 	 54.9 	 -57.056
| 38> H 	 -127.719 	 54.6144 	 -58.7811
| 39> H 	 -122.955 	 59.4536 	 -61.0389
| 40> H 	 -127.102 	 58.488 	 -54.0681
| 41> *
| 42>
| 43>                          ****END OF INPUT****

CARTESIAN COORDINATES (ANGSTROEM)
---------------------------------
  S    -124.854000   59.728600  -59.337800
  C    -123.717000   58.945900  -60.431300
  C    -123.828000   57.533300  -60.299300
  C    -124.866000   57.164900  -59.337000
  C    -125.220000   58.250100  -58.553200
  H    -125.072000   56.170300  -59.114800
  C    -123.010000   56.476000  -61.076300
  H    -121.936000   56.865300  -61.055100
  H    -123.259000   56.526400  -62.066500
  C    -122.987000   54.972400  -60.712800
  H    -124.029000   54.649900  -60.592500
  H    -122.709000   54.405700  -61.642200
  C    -122.101000   54.494700  -59.553700
  H    -121.012000   54.514100  -59.740800
  H    -122.356000   55.234000  -58.727000
  H    -122.452000   53.430000  -59.256700
  S    -125.310000   58.386200  -55.756200
  C    -126.910000   58.501100  -55.111700
  C    -127.877000   58.138000  -56.004100
  C    -127.400000   57.827200  -57.312800
  C    -126.062000   58.162700  -57.391800
  H    -128.931000   58.092600  -55.674200
  C    -128.307000   57.394400  -58.497000
  H    -127.672000   57.122500  -59.418200
  H    -128.861000   58.228100  -58.962700
  C    -129.237000   56.189000  -58.228600
  H    -130.113000   56.089700  -58.972100
  H    -129.778000   56.416800  -57.301100
  C    -128.469000   54.842900  -58.022800
  H    -129.145000   53.989300  -58.011000
  H    -127.891000   54.900000  -57.056000
  H    -127.719000   54.614400  -58.781100
  H    -122.955000   59.453600  -61.038900
  H    -127.102000   58.488000  -54.068100

 Total Charge           Charge          ....    0
 Multiplicity           Mult            ....    1
 Number of Electrons    NEL             ....  134
 Basis Dimension        Dim             ....  322

ORBITAL ENERGIES
----------------

  NO   OCC          E(Eh)            E(eV)
   0   2.0000     -88.965864     -2420.8842
   1   2.0000     -88.965255     -2420.8677
   2   2.0000     -10.326798      -281.0065
   3   2.0000     -10.322973      -280.9024
   4   2.0000     -10.317162      -280.7443
   5   2.0000     -10.311235      -280.5830
   6   2.0000     -10.310143      -280.5533
   7   2.0000     -10.309780      -280.5434
   8   2.0000     -10.302868      -280.3553
   9   2.0000     -10.299132      -280.2536
  10   2.0000     -10.294851      -280.1372
  11   2.0000     -10.294461      -280.1265
  12   2.0000     -10.293822      -280.1091
  13   2.0000     -10.292576      -280.0752
  14   2.0000     -10.291021      -280.0329
  15   2.0000     -10.283054      -279.8161
  16   2.0000      -8.080859      -219.8914
  17   2.0000      -8.079735      -219.8608
  18   2.0000      -6.039418      -164.3409
  19   2.0000      -6.038195      -164.3076
  20   2.0000      -6.035311      -164.2292
  21   2.0000      -6.034593      -164.2096
  22   2.0000      -6.031575      -164.1275
  23   2.0000      -6.030245      -164.0913
  24   2.0000      -1.005568       -27.3629
  25   2.0000      -0.981419       -26.7058
  26   2.0000      -0.906098       -24.6562
  27   2.0000      -0.900494       -24.5037
  28   2.0000      -0.867554       -23.6073
  29   2.0000      -0.845187       -22.9987
  30   2.0000      -0.842355       -22.9217
  31   2.0000      -0.810070       -22.0431
  32   2.0000      -0.784060       -21.3354
  33   2.0000      -0.772323       -21.0160
  34   2.0000      -0.707274       -19.2459
  35   2.0000      -0.695003       -18.9120
  36   2.0000      -0.688647       -18.7390
  37   2.0000      -0.650396       -17.6982
  38   2.0000      -0.637481       -17.3467
  39   2.0000      -0.621874       -16.9220
  40   2.0000      -0.600744       -16.3471
  41   2.0000      -0.561316       -15.2742
  42   2.0000      -0.552297       -15.0288
  43   2.0000      -0.548875       -14.9356
  44   2.0000      -0.533601       -14.5200
  45   2.0000      -0.528028       -14.3684
  46   2.0000      -0.513891       -13.9837
  47   2.0000      -0.511403       -13.9160
  48   2.0000      -0.498022       -13.5519
  49   2.0000      -0.493107       -13.4181
  50   2.0000      -0.488009       -13.2794
  51   2.0000      -0.481068       -13.0905
  52   2.0000      -0.468522       -12.7491
  53   2.0000      -0.465941       -12.6789
  54   2.0000      -0.456067       -12.4102
  55   2.0000      -0.448655       -12.2085
  56   2.0000      -0.446214       -12.1421
  57   2.0000      -0.436840       -11.8870
  58   2.0000      -0.431758       -11.7487
  59   2.0000      -0.424107       -11.5405
  60   2.0000      -0.419862       -11.4250
  61   2.0000      -0.412722       -11.2307
  62   2.0000      -0.407186       -11.0801
  63   2.0000      -0.334354        -9.0982
  64   2.0000      -0.328817        -8.9476
  65   2.0000      -0.320961        -8.7338
  66   2.0000      -0.301338        -8.1998
  67   0.0000       0.031565         0.8589
  68   0.0000       0.055031         1.4975
  69   0.0000       0.101833         2.7710
  70   0.0000       0.115071         3.1313
  71   0.0000       0.131388         3.5752

MULLIKEN ATOMIC CHARGES
-----------------------
   0 S :    0.128766
   1 C :   -0.136059
   2 C :   -0.104445
   3 C :    0.069726
   4 C :   -0.168014
   5 H :   -0.010782
   6 C :    0.065363
   7 H :    0.033562
   8 H :    0.019871
   9 C :   -0.098772
  10 H :    0.027892
  11 H :    0.030267
  12 C :   -0.083622
  13 H :    0.050108
  14 H :    0.048082
  15 H :    0.052251
  16 S :    0.111281
  17 C :   -0.064595
  18 C :   -0.065031
  19 C :    0.028162
  20 C :   -0.208237
  21 H :    0.030980
  22 C :    0.036595
  23 H :    0.034273
  24 H :    0.046497
  25 C :   -0.102474
  26 H :    0.044102
  27 H :    0.028031
  28 C :   -0.064327
  29 H :    0.036852
  30 H :    0.049503
  31 H :    0.028455
  32 H :    0.057921
  33 H :    0.047818
Sum of atomic charges:   -0.0000000

LOEWDIN ATOMIC CHARGES
----------------------
   0 S :    0.424328
   1 C :   -0.213063
   2 C :   -0.051453
   3 C :   -0.055442
   4 C :   -0.208196
   5 H :    0.016153
   6 C :   -0.037589
   7 H :    0.040952
   8 H :    0.022741
   9 C :   -0.053756
  10 H :    0.022725
  11 H :    0.030542
  12 C :   -0.078082
  13 H :    0.027791
  14 H :    0.034220
  15 H :    0.038693
  16 S :    0.386767
  17 C :   -0.185653
  18 C :   -0.074605
  19 C :   -0.047240
  20 C :   -0.180069
  21 H :    0.035153
  22 C :   -0.041827
  23 H :    0.038811
  24 H :    0.037555
  25 C :   -0.050616
  26 H :    0.033855
  27 H :    0.021224
  28 C :   -0.071575
  29 H :    0.025814
  30 H :    0.035008
  31 H :    0.021283
  32 H :    0.032395
  33 H :    0.023158

  Mayer bond orders larger than 0.100000
B(  0-S ,  1-C ) :   1.1317 B(  0-S ,  4-C ) :   1.1743 B(  1-C ,  2-C ) :   1.6016
B(  1-C ,  4-C ) :   0.1030 B(  1-C , 32-H ) :   0.9709 B(  2-C ,  3-C ) :   1.2529
B(  2-C ,  6-C ) :   0.9986 B(  3-C ,  4-C ) :   1.5545 B(  3-C ,  5-H ) :   0.9932
B(  4-C , 20-C ) :   1.0459 B(  6-C ,  7-H ) :   0.9438 B(  6-C ,  8-H ) :   0.9349
B(  6-C ,  9-C ) :   1.0804 B(  9-C , 10-H ) :   0.9504 B(  9-C , 11-H ) :   0.9507
B(  9-C , 12-C ) :   1.0688 B( 12-C , 13-H ) :   0.9740 B( 12-C , 14-H ) :   0.9771
B( 12-C , 15-H ) :   0.9726 B( 16-S , 17-C ) :   1.1407 B( 16-S , 20-C ) :   1.1348
B( 17-C , 18-C ) :   1.6452 B( 17-C , 33-H ) :   0.9646 B( 18-C , 19-C ) :   1.2120
B( 18-C , 21-H ) :   0.9822 B( 19-C , 20-C ) :   1.6121 B( 19-C , 22-C ) :   1.0278
B( 22-C , 23-H ) :   0.9370 B( 22-C , 24-H ) :   0.9405 B( 22-C , 25-C ) :   1.0595
B( 25-C , 26-H ) :   0.9581 B( 25-C , 27-H ) :   0.9574 B( 25-C , 28-C ) :   1.0622
B( 28-C , 29-H ) :   0.9759 B( 28-C , 30-H ) :   0.9747 B( 28-C , 31-H ) :   0.9777

Dispersion correction           -0.014928791
FINAL SINGLE POINT ENERGY     -1339.854289735509

DIPOLE MOMENT
-------------
                                X             Y             Z
Electronic contribution:      2.68526      23.77240      10.03369
Nuclear contribution   :     -2.88588     -24.33669     -10.30528
                        -----------------------------------------
Total Dipole Moment    :     -0.20063      -0.56429      -0.27159
                        -----------------------------------------
Magnitude (a.u.)       :      0.65760
Magnitude (Debye)      :      1.67148

Rotational constants in cm-1:     0.016814     0.009081     0.007754
Rotational constants in MHz :   504.074569   272.237172   232.449140

                             ****ORCA TERMINATED NORMALLY****
TOTAL RUN TIME: 0 days 0 hours 0 minutes 21 seconds 829 msec
