                         Program Version 4.2.1 -  RELEASE  -
|  1> ! wB97X-D3 SP def2-SVP
|  2> %pal
|  3> nprocs 24
|  4> end
|  5>
|  6> * xyz 0 1
|  7> S 	 -128.628 	 64.2999 	 -59.0325
|  8> C 	 -127.111 	 64.2223 	 -59.8954
|  9> C 	 -127.025 	 62.9463 	 -60.5542
| 10> C 	 -128.155 	 62.1004 	 -60.2935
| 11> C 	 -129.01 	 62.6057 	 -59.3695
| 12> H 	 -128.288 	 61.0794 	 -60.546
| 13> C 	 -125.868 	 62.5275 	 -61.4835
| 14> H 	 -126.178 	 61.5209 	 -61.9016
| 15> H 	 -125.078 	 62.381 	 -60.7698
| 16> C 	 -125.443 	 63.5786 	 -62.5318
| 17> H 	 -125.376 	 64.5398 	 -62.0979
| 18> H 	 -124.411 	 63.3665 	 -62.9709
| 19> C 	 -126.252 	 63.5123 	 -63.7987
| 20> H 	 -126.43 	 62.5299 	 -64.0441
| 21> H 	 -127.215 	 63.975 	 -63.7859
| 22> H 	 -125.632 	 63.9286 	 -64.6685
| 23> S 	 -131.703 	 62.9217 	 -59.7394
| 24> C 	 -132.819 	 61.8575 	 -58.9869
| 25> C 	 -132.188 	 60.8497 	 -58.2932
| 26> C 	 -130.75 	 60.8778 	 -58.44
| 27> C 	 -130.365 	 62.0504 	 -59.0738
| 28> H 	 -132.712 	 60.0847 	 -57.714
| 29> C 	 -129.901 	 59.8581 	 -57.7624
| 30> H 	 -128.837 	 60.2697 	 -57.6922
| 31> H 	 -129.81 	 58.9616 	 -58.4212
| 32> C 	 -130.255 	 59.4875 	 -56.3666
| 33> H 	 -129.56 	 58.6588 	 -56.118
| 34> H 	 -131.272 	 59.0285 	 -56.2837
| 35> C 	 -129.796 	 60.5276 	 -55.3749
| 36> H 	 -130.405 	 61.3875 	 -55.4837
| 37> H 	 -128.785 	 60.8573 	 -55.3753
| 38> H 	 -129.919 	 60.0718 	 -54.3833
| 39> H 	 -126.351 	 64.9667 	 -59.8314
| 40> H 	 -133.886 	 62.0509 	 -59.0345
| 41> *
| 42>
| 43>                          ****END OF INPUT****

CARTESIAN COORDINATES (ANGSTROEM)
---------------------------------
  S    -128.628000   64.299900  -59.032500
  C    -127.111000   64.222300  -59.895400
  C    -127.025000   62.946300  -60.554200
  C    -128.155000   62.100400  -60.293500
  C    -129.010000   62.605700  -59.369500
  H    -128.288000   61.079400  -60.546000
  C    -125.868000   62.527500  -61.483500
  H    -126.178000   61.520900  -61.901600
  H    -125.078000   62.381000  -60.769800
  C    -125.443000   63.578600  -62.531800
  H    -125.376000   64.539800  -62.097900
  H    -124.411000   63.366500  -62.970900
  C    -126.252000   63.512300  -63.798700
  H    -126.430000   62.529900  -64.044100
  H    -127.215000   63.975000  -63.785900
  H    -125.632000   63.928600  -64.668500
  S    -131.703000   62.921700  -59.739400
  C    -132.819000   61.857500  -58.986900
  C    -132.188000   60.849700  -58.293200
  C    -130.750000   60.877800  -58.440000
  C    -130.365000   62.050400  -59.073800
  H    -132.712000   60.084700  -57.714000
  C    -129.901000   59.858100  -57.762400
  H    -128.837000   60.269700  -57.692200
  H    -129.810000   58.961600  -58.421200
  C    -130.255000   59.487500  -56.366600
  H    -129.560000   58.658800  -56.118000
  H    -131.272000   59.028500  -56.283700
  C    -129.796000   60.527600  -55.374900
  H    -130.405000   61.387500  -55.483700
  H    -128.785000   60.857300  -55.375300
  H    -129.919000   60.071800  -54.383300
  H    -126.351000   64.966700  -59.831400
  H    -133.886000   62.050900  -59.034500

 Total Charge           Charge          ....    0
 Multiplicity           Mult            ....    1
 Number of Electrons    NEL             ....  134
 Basis Dimension        Dim             ....  322

ORBITAL ENERGIES
----------------

  NO   OCC          E(Eh)            E(eV)
   0   2.0000     -88.965376     -2420.8710
   1   2.0000     -88.962720     -2420.7987
   2   2.0000     -10.327497      -281.0255
   3   2.0000     -10.324280      -280.9379
   4   2.0000     -10.318858      -280.7904
   5   2.0000     -10.312757      -280.6244
   6   2.0000     -10.309470      -280.5349
   7   2.0000     -10.300090      -280.2797
   8   2.0000     -10.297086      -280.1979
   9   2.0000     -10.292929      -280.0848
  10   2.0000     -10.291943      -280.0580
  11   2.0000     -10.290751      -280.0256
  12   2.0000     -10.288382      -279.9611
  13   2.0000     -10.286589      -279.9123
  14   2.0000     -10.268750      -279.4269
  15   2.0000     -10.268047      -279.4078
  16   2.0000      -8.079737      -219.8608
  17   2.0000      -8.078629      -219.8307
  18   2.0000      -6.038240      -164.3089
  19   2.0000      -6.037086      -164.2775
  20   2.0000      -6.034196      -164.1988
  21   2.0000      -6.032930      -164.1644
  22   2.0000      -6.030619      -164.1015
  23   2.0000      -6.029421      -164.0689
  24   2.0000      -1.006820       -27.3970
  25   2.0000      -0.982875       -26.7454
  26   2.0000      -0.919451       -25.0195
  27   2.0000      -0.909289       -24.7430
  28   2.0000      -0.864927       -23.5359
  29   2.0000      -0.852880       -23.2080
  30   2.0000      -0.848009       -23.0755
  31   2.0000      -0.814302       -22.1583
  32   2.0000      -0.783114       -21.3096
  33   2.0000      -0.768444       -20.9104
  34   2.0000      -0.706648       -19.2289
  35   2.0000      -0.701398       -19.0860
  36   2.0000      -0.687628       -18.7113
  37   2.0000      -0.655253       -17.8303
  38   2.0000      -0.646208       -17.5842
  39   2.0000      -0.611326       -16.6350
  40   2.0000      -0.599287       -16.3074
  41   2.0000      -0.570081       -15.5127
  42   2.0000      -0.559611       -15.2278
  43   2.0000      -0.551076       -14.9956
  44   2.0000      -0.543257       -14.7828
  45   2.0000      -0.538342       -14.6490
  46   2.0000      -0.517493       -14.0817
  47   2.0000      -0.514482       -13.9998
  48   2.0000      -0.502513       -13.6741
  49   2.0000      -0.498998       -13.5784
  50   2.0000      -0.488770       -13.3001
  51   2.0000      -0.476080       -12.9548
  52   2.0000      -0.472183       -12.8488
  53   2.0000      -0.466850       -12.7036
  54   2.0000      -0.459773       -12.5111
  55   2.0000      -0.446295       -12.1443
  56   2.0000      -0.443765       -12.0755
  57   2.0000      -0.433392       -11.7932
  58   2.0000      -0.431794       -11.7497
  59   2.0000      -0.426881       -11.6160
  60   2.0000      -0.422385       -11.4937
  61   2.0000      -0.406766       -11.0687
  62   2.0000      -0.402791       -10.9605
  63   2.0000      -0.346043        -9.4163
  64   2.0000      -0.327754        -8.9186
  65   2.0000      -0.323168        -8.7939
  66   2.0000      -0.296018        -8.0550
  67   0.0000       0.035873         0.9762
  68   0.0000       0.063958         1.7404
  69   0.0000       0.121574         3.3082
  70   0.0000       0.123953         3.3729
  71   0.0000       0.129358         3.5200

MULLIKEN ATOMIC CHARGES
-----------------------
   0 S :    0.101675
   1 C :   -0.121279
   2 C :   -0.108104
   3 C :    0.057687
   4 C :   -0.161812
   5 H :    0.008734
   6 C :    0.060844
   7 H :    0.033299
   8 H :    0.039113
   9 C :   -0.065382
  10 H :    0.021145
  11 H :    0.031544
  12 C :   -0.023603
  13 H :    0.000682
  14 H :    0.034444
  15 H :    0.034813
  16 S :    0.120431
  17 C :   -0.094389
  18 C :   -0.033731
  19 C :   -0.029863
  20 C :   -0.177836
  21 H :    0.019293
  22 C :    0.023206
  23 H :    0.030160
  24 H :    0.043243
  25 C :   -0.088569
  26 H :    0.023779
  27 H :    0.041138
  28 C :   -0.018313
  29 H :    0.031009
  30 H :    0.027965
  31 H :    0.028626
  32 H :    0.050817
  33 H :    0.059235
Sum of atomic charges:   -0.0000000

LOEWDIN ATOMIC CHARGES
----------------------
   0 S :    0.402110
   1 C :   -0.202895
   2 C :   -0.055005
   3 C :   -0.062438
   4 C :   -0.191364
   5 H :    0.030064
   6 C :   -0.033652
   7 H :    0.034622
   8 H :    0.033893
   9 C :   -0.040827
  10 H :    0.016706
  11 H :    0.034266
  12 C :   -0.060802
  13 H :    0.012112
  14 H :    0.021871
  15 H :    0.034500
  16 S :    0.427660
  17 C :   -0.196154
  18 C :   -0.072817
  19 C :   -0.063165
  20 C :   -0.206780
  21 H :    0.030895
  22 C :   -0.045391
  23 H :    0.038794
  24 H :    0.036173
  25 C :   -0.050390
  26 H :    0.031091
  27 H :    0.028108
  28 C :   -0.057923
  29 H :    0.020785
  30 H :    0.025398
  31 H :    0.029553
  32 H :    0.022487
  33 H :    0.028513

  Mayer bond orders larger than 0.100000
B(  0-S ,  1-C ) :   1.1509 B(  0-S ,  4-C ) :   1.1587 B(  1-C ,  2-C ) :   1.5647
B(  1-C ,  4-C ) :   0.1033 B(  1-C , 32-H ) :   0.9764 B(  2-C ,  3-C ) :   1.2601
B(  2-C ,  6-C ) :   0.9999 B(  3-C ,  4-C ) :   1.5809 B(  3-C ,  5-H ) :   0.9909
B(  4-C , 20-C ) :   0.9907 B(  6-C ,  7-H ) :   0.9525 B(  6-C ,  8-H ) :   0.9325
B(  6-C ,  9-C ) :   1.0731 B(  9-C , 10-H ) :   0.9566 B(  9-C , 11-H ) :   0.9587
B(  9-C , 12-C ) :   1.0713 B( 12-C , 13-H ) :   0.9708 B( 12-C , 14-H ) :   0.9755
B( 12-C , 15-H ) :   0.9782 B( 16-S , 17-C ) :   1.1606 B( 16-S , 20-C ) :   1.1640
B( 17-C , 18-C ) :   1.6032 B( 17-C , 33-H ) :   0.9690 B( 18-C , 19-C ) :   1.2330
B( 18-C , 21-H ) :   0.9882 B( 19-C , 20-C ) :   1.6073 B( 19-C , 22-C ) :   1.0493
B( 22-C , 23-H ) :   0.9344 B( 22-C , 24-H ) :   0.9229 B( 22-C , 25-C ) :   1.0960
B( 25-C , 26-H ) :   0.9467 B( 25-C , 27-H ) :   0.9480 B( 25-C , 28-C ) :   1.0735
B( 28-C , 29-H ) :   0.9778 B( 28-C , 30-H ) :   0.9693 B( 28-C , 31-H ) :   0.9734

Dispersion correction           -0.014027647
FINAL SINGLE POINT ENERGY     -1339.865271984766

DIPOLE MOMENT
-------------
                                X             Y             Z
Electronic contribution:    -14.21848      11.27194       1.23225
Nuclear contribution   :     14.55157     -11.74842      -1.23032
                        -----------------------------------------
Total Dipole Moment    :      0.33309      -0.47648       0.00193
                        -----------------------------------------
Magnitude (a.u.)       :      0.58136
Magnitude (Debye)      :      1.47770

Rotational constants in cm-1:     0.022741     0.007420     0.006711
Rotational constants in MHz :   681.766287   222.444970   201.192763

                             ****ORCA TERMINATED NORMALLY****
TOTAL RUN TIME: 0 days 0 hours 0 minutes 21 seconds 325 msec
