                         Program Version 4.2.1 -  RELEASE  -
|  1> ! wB97X-D3 SP def2-SVP
|  2> %pal
|  3> nprocs 24
|  4> end
|  5>
|  6> * xyz 0 1
|  7> S 	 -125.653 	 60.6591 	 -57.3092
|  8> C 	 -125.235 	 61.2877 	 -58.8458
|  9> C 	 -126.316 	 61.994 	 -59.4195
| 10> C 	 -127.47 	 61.9685 	 -58.5451
| 11> C 	 -127.344 	 61.1552 	 -57.423
| 12> H 	 -128.452 	 62.3975 	 -58.8438
| 13> C 	 -126.294 	 62.7046 	 -60.7914
| 14> H 	 -127.325 	 62.4616 	 -61.2537
| 15> H 	 -125.56 	 62.1974 	 -61.4139
| 16> C 	 -126.025 	 64.1734 	 -60.7215
| 17> H 	 -125.963 	 64.6229 	 -61.7275
| 18> H 	 -126.85 	 64.6696 	 -60.2536
| 19> C 	 -124.686 	 64.5692 	 -59.9924
| 20> H 	 -123.751 	 64.0253 	 -60.291
| 21> H 	 -124.412 	 65.6394 	 -60.1699
| 22> H 	 -124.842 	 64.4209 	 -58.9308
| 23> S 	 -127.584 	 60.9812 	 -54.6963
| 24> C 	 -129.158 	 61.0452 	 -53.9674
| 25> C 	 -130.15 	 61.0041 	 -54.9658
| 26> C 	 -129.616 	 60.7688 	 -56.2743
| 27> C 	 -128.251 	 60.9954 	 -56.3167
| 28> H 	 -131.155 	 60.9302 	 -54.6889
| 29> C 	 -130.533 	 60.8666 	 -57.4008
| 30> H 	 -131.293 	 60.0639 	 -57.3006
| 31> H 	 -130.101 	 60.41 	 -58.3023
| 32> C 	 -131.088 	 62.2983 	 -57.6615
| 33> H 	 -130.388 	 63.0168 	 -58.0874
| 34> H 	 -131.405 	 62.6817 	 -56.6958
| 35> C 	 -132.233 	 62.3702 	 -58.6824
| 36> H 	 -132.903 	 61.4502 	 -58.5789
| 37> H 	 -131.951 	 62.2548 	 -59.6935
| 38> H 	 -132.817 	 63.3675 	 -58.5661
| 39> H 	 -124.361 	 61.1256 	 -59.3715
| 40> H 	 -129.257 	 60.9746 	 -52.8848
| 41> *
| 42>
| 43>                          ****END OF INPUT****

CARTESIAN COORDINATES (ANGSTROEM)
---------------------------------
  S    -125.653000   60.659100  -57.309200
  C    -125.235000   61.287700  -58.845800
  C    -126.316000   61.994000  -59.419500
  C    -127.470000   61.968500  -58.545100
  C    -127.344000   61.155200  -57.423000
  H    -128.452000   62.397500  -58.843800
  C    -126.294000   62.704600  -60.791400
  H    -127.325000   62.461600  -61.253700
  H    -125.560000   62.197400  -61.413900
  C    -126.025000   64.173400  -60.721500
  H    -125.963000   64.622900  -61.727500
  H    -126.850000   64.669600  -60.253600
  C    -124.686000   64.569200  -59.992400
  H    -123.751000   64.025300  -60.291000
  H    -124.412000   65.639400  -60.169900
  H    -124.842000   64.420900  -58.930800
  S    -127.584000   60.981200  -54.696300
  C    -129.158000   61.045200  -53.967400
  C    -130.150000   61.004100  -54.965800
  C    -129.616000   60.768800  -56.274300
  C    -128.251000   60.995400  -56.316700
  H    -131.155000   60.930200  -54.688900
  C    -130.533000   60.866600  -57.400800
  H    -131.293000   60.063900  -57.300600
  H    -130.101000   60.410000  -58.302300
  C    -131.088000   62.298300  -57.661500
  H    -130.388000   63.016800  -58.087400
  H    -131.405000   62.681700  -56.695800
  C    -132.233000   62.370200  -58.682400
  H    -132.903000   61.450200  -58.578900
  H    -131.951000   62.254800  -59.693500
  H    -132.817000   63.367500  -58.566100
  H    -124.361000   61.125600  -59.371500
  H    -129.257000   60.974600  -52.884800

 Total Charge           Charge          ....    0
 Multiplicity           Mult            ....    1
 Number of Electrons    NEL             ....  134
 Basis Dimension        Dim             ....  322

ORBITAL ENERGIES
----------------

  NO   OCC          E(Eh)            E(eV)
   0   2.0000     -88.967190     -2420.9203
   1   2.0000     -88.964183     -2420.8385
   2   2.0000     -10.331986      -281.1476
   3   2.0000     -10.327655      -281.0298
   4   2.0000     -10.320468      -280.8342
   5   2.0000     -10.311739      -280.5967
   6   2.0000     -10.306107      -280.4434
   7   2.0000     -10.300736      -280.2973
   8   2.0000     -10.300543      -280.2920
   9   2.0000     -10.298457      -280.2353
  10   2.0000     -10.293006      -280.0869
  11   2.0000     -10.292071      -280.0615
  12   2.0000     -10.291715      -280.0518
  13   2.0000     -10.288043      -279.9519
  14   2.0000     -10.287475      -279.9364
  15   2.0000     -10.282210      -279.7932
  16   2.0000      -8.082171      -219.9270
  17   2.0000      -8.079432      -219.8525
  18   2.0000      -6.040685      -164.3754
  19   2.0000      -6.037944      -164.3008
  20   2.0000      -6.036554      -164.2630
  21   2.0000      -6.033830      -164.1889
  22   2.0000      -6.033010      -164.1665
  23   2.0000      -6.030197      -164.0900
  24   2.0000      -1.009200       -27.4617
  25   2.0000      -0.984664       -26.7941
  26   2.0000      -0.912767       -24.8377
  27   2.0000      -0.909685       -24.7538
  28   2.0000      -0.870020       -23.6745
  29   2.0000      -0.854641       -23.2560
  30   2.0000      -0.841034       -22.8857
  31   2.0000      -0.811218       -22.0744
  32   2.0000      -0.780795       -21.2465
  33   2.0000      -0.772088       -21.0096
  34   2.0000      -0.709103       -19.2957
  35   2.0000      -0.702447       -19.1146
  36   2.0000      -0.696466       -18.9518
  37   2.0000      -0.667511       -18.1639
  38   2.0000      -0.639551       -17.4031
  39   2.0000      -0.621306       -16.9066
  40   2.0000      -0.601113       -16.3571
  41   2.0000      -0.566867       -15.4252
  42   2.0000      -0.556923       -15.1547
  43   2.0000      -0.546558       -14.8726
  44   2.0000      -0.541721       -14.7410
  45   2.0000      -0.534809       -14.5529
  46   2.0000      -0.519532       -14.1372
  47   2.0000      -0.516054       -14.0425
  48   2.0000      -0.504835       -13.7373
  49   2.0000      -0.501288       -13.6407
  50   2.0000      -0.487133       -13.2556
  51   2.0000      -0.477848       -13.0029
  52   2.0000      -0.466247       -12.6872
  53   2.0000      -0.464045       -12.6273
  54   2.0000      -0.455897       -12.4056
  55   2.0000      -0.449024       -12.2186
  56   2.0000      -0.443415       -12.0659
  57   2.0000      -0.438756       -11.9392
  58   2.0000      -0.433754       -11.8031
  59   2.0000      -0.427414       -11.6305
  60   2.0000      -0.421778       -11.4772
  61   2.0000      -0.408863       -11.1257
  62   2.0000      -0.405995       -11.0477
  63   2.0000      -0.356065        -9.6890
  64   2.0000      -0.332713        -9.0536
  65   2.0000      -0.327257        -8.9051
  66   2.0000      -0.285055        -7.7568
  67   0.0000       0.021628         0.5885
  68   0.0000       0.073053         1.9879
  69   0.0000       0.105569         2.8727
  70   0.0000       0.111862         3.0439
  71   0.0000       0.128608         3.4996

MULLIKEN ATOMIC CHARGES
-----------------------
   0 S :    0.105455
   1 C :   -0.071031
   2 C :   -0.133380
   3 C :    0.015072
   4 C :   -0.127538
   5 H :    0.012658
   6 C :    0.053888
   7 H :    0.042993
   8 H :    0.022848
   9 C :   -0.042613
  10 H :    0.033736
  11 H :    0.024648
  12 C :   -0.097876
  13 H :    0.033986
  14 H :    0.039018
  15 H :    0.052483
  16 S :    0.098777
  17 C :   -0.097134
  18 C :   -0.022388
  19 C :   -0.032097
  20 C :   -0.130615
  21 H :    0.007414
  22 C :    0.030418
  23 H :    0.021119
  24 H :    0.017149
  25 C :   -0.042040
  26 H :    0.037036
  27 H :    0.029026
  28 C :   -0.078073
  29 H :    0.028277
  30 H :    0.023620
  31 H :    0.056808
  32 H :    0.020209
  33 H :    0.068147
Sum of atomic charges:   -0.0000000

LOEWDIN ATOMIC CHARGES
----------------------
   0 S :    0.415665
   1 C :   -0.195821
   2 C :   -0.062040
   3 C :   -0.064551
   4 C :   -0.190091
   5 H :    0.032447
   6 C :   -0.035412
   7 H :    0.040618
   8 H :    0.027838
   9 C :   -0.042583
  10 H :    0.027212
  11 H :    0.022401
  12 C :   -0.074535
  13 H :    0.026799
  14 H :    0.030158
  15 H :    0.026080
  16 S :    0.407461
  17 C :   -0.186271
  18 C :   -0.061375
  19 C :   -0.065792
  20 C :   -0.187972
  21 H :    0.021723
  22 C :   -0.048123
  23 H :    0.036568
  24 H :    0.030565
  25 C :   -0.035248
  26 H :    0.025970
  27 H :    0.024980
  28 C :   -0.075909
  29 H :    0.028119
  30 H :    0.015208
  31 H :    0.040554
  32 H :    0.014615
  33 H :    0.030742

  Mayer bond orders larger than 0.100000
B(  0-S ,  1-C ) :   1.1596 B(  0-S ,  4-C ) :   1.1429 B(  1-C ,  2-C ) :   1.5786
B(  1-C , 32-H ) :   0.9752 B(  2-C ,  3-C ) :   1.2686 B(  2-C ,  6-C ) :   1.0143
B(  3-C ,  4-C ) :   1.5495 B(  3-C ,  5-H ) :   0.9782 B(  4-C , 20-C ) :   1.0800
B(  6-C ,  7-H ) :   0.9432 B(  6-C ,  8-H ) :   0.9428 B(  6-C ,  9-C ) :   1.0768
B(  9-C , 10-H ) :   0.9571 B(  9-C , 11-H ) :   0.9544 B(  9-C , 12-C ) :   1.0639
B( 12-C , 13-H ) :   0.9773 B( 12-C , 14-H ) :   0.9758 B( 12-C , 15-H ) :   0.9752
B( 16-S , 17-C ) :   1.1626 B( 16-S , 20-C ) :   1.1423 B( 17-C , 18-C ) :   1.5789
B( 17-C , 33-H ) :   0.9710 B( 18-C , 19-C ) :   1.2381 B( 18-C , 21-H ) :   0.9965
B( 19-C , 20-C ) :   1.5574 B( 19-C , 22-C ) :   1.1101 B( 22-C , 23-H ) :   0.9199
B( 22-C , 24-H ) :   0.9218 B( 22-C , 25-C ) :   1.0381 B( 25-C , 26-H ) :   0.9510
B( 25-C , 27-H ) :   0.9574 B( 25-C , 28-C ) :   1.0702 B( 28-C , 29-H ) :   0.9744
B( 28-C , 30-H ) :   0.9760 B( 28-C , 31-H ) :   0.9733

Dispersion correction           -0.014651730
FINAL SINGLE POINT ENERGY     -1339.870678148698

DIPOLE MOMENT
-------------
                                X             Y             Z
Electronic contribution:     11.36446     -14.86566      20.44470
Nuclear contribution   :    -11.74427      15.11953     -20.88583
                        -----------------------------------------
Total Dipole Moment    :     -0.37981       0.25388      -0.44113
                        -----------------------------------------
Magnitude (a.u.)       :      0.63506
Magnitude (Debye)      :      1.61420

Rotational constants in cm-1:     0.017979     0.009306     0.006824
Rotational constants in MHz :   538.998073   278.978476   204.577164

                             ****ORCA TERMINATED NORMALLY****
TOTAL RUN TIME: 0 days 0 hours 0 minutes 20 seconds 923 msec
