                         Program Version 4.2.1 -  RELEASE  -
|  1> ! wB97X-D3 SP def2-SVP
|  2> %pal
|  3> nprocs 24
|  4> end
|  5>
|  6> * xyz 0 1
|  7> S 	 -55.8452 	 -49.2193 	 -83.0039
|  8> C 	 -56.3502 	 -47.8477 	 -82.023
|  9> C 	 -55.4483 	 -47.443 	 -81.1
| 10> C 	 -54.1889 	 -48.1473 	 -81.2554
| 11> C 	 -54.2799 	 -49.1781 	 -82.1924
| 12> H 	 -53.3332 	 -47.9212 	 -80.6788
| 13> C 	 -55.6341 	 -46.3687 	 -80.1258
| 14> H 	 -55.0461 	 -46.4902 	 -79.2156
| 15> H 	 -56.6775 	 -46.3801 	 -79.7285
| 16> C 	 -55.2661 	 -45.0635 	 -80.6967
| 17> H 	 -55.4463 	 -45.1238 	 -81.7573
| 18> H 	 -55.988 	 -44.2482 	 -80.3454
| 19> C 	 -53.8466 	 -44.5477 	 -80.3951
| 20> H 	 -53.1489 	 -45.2335 	 -80.8843
| 21> H 	 -53.7409 	 -43.6364 	 -80.9691
| 22> H 	 -53.5904 	 -44.4181 	 -79.3758
| 23> S 	 -52.8765 	 -50.0854 	 -84.3315
| 24> C 	 -51.8208 	 -51.4406 	 -84.2352
| 25> C 	 -51.5707 	 -51.7254 	 -82.8993
| 26> C 	 -52.3028 	 -50.9225 	 -81.9654
| 27> C 	 -53.2466 	 -50.1294 	 -82.6172
| 28> H 	 -50.9682 	 -52.6166 	 -82.6714
| 29> C 	 -52.2792 	 -51.202 	 -80.403
| 30> H 	 -51.5032 	 -51.9879 	 -80.3214
| 31> H 	 -53.1408 	 -51.6685 	 -80.1909
| 32> C 	 -52.089 	 -50.2087 	 -79.225
| 33> H 	 -52.0029 	 -50.734 	 -78.2335
| 34> H 	 -53.0677 	 -49.675 	 -79.0894
| 35> C 	 -50.9038 	 -49.1953 	 -79.4236
| 36> H 	 -51.1579 	 -48.6455 	 -80.3075
| 37> H 	 -49.9618 	 -49.7449 	 -79.634
| 38> H 	 -50.8581 	 -48.546 	 -78.5312
| 39> H 	 -57.2956 	 -47.409 	 -82.066
| 40> H 	 -51.3824 	 -51.9511 	 -85.0774
| 41> *
| 42>
| 43>                          ****END OF INPUT****

CARTESIAN COORDINATES (ANGSTROEM)
---------------------------------
  S    -55.845200  -49.219300  -83.003900
  C    -56.350200  -47.847700  -82.023000
  C    -55.448300  -47.443000  -81.100000
  C    -54.188900  -48.147300  -81.255400
  C    -54.279900  -49.178100  -82.192400
  H    -53.333200  -47.921200  -80.678800
  C    -55.634100  -46.368700  -80.125800
  H    -55.046100  -46.490200  -79.215600
  H    -56.677500  -46.380100  -79.728500
  C    -55.266100  -45.063500  -80.696700
  H    -55.446300  -45.123800  -81.757300
  H    -55.988000  -44.248200  -80.345400
  C    -53.846600  -44.547700  -80.395100
  H    -53.148900  -45.233500  -80.884300
  H    -53.740900  -43.636400  -80.969100
  H    -53.590400  -44.418100  -79.375800
  S    -52.876500  -50.085400  -84.331500
  C    -51.820800  -51.440600  -84.235200
  C    -51.570700  -51.725400  -82.899300
  C    -52.302800  -50.922500  -81.965400
  C    -53.246600  -50.129400  -82.617200
  H    -50.968200  -52.616600  -82.671400
  C    -52.279200  -51.202000  -80.403000
  H    -51.503200  -51.987900  -80.321400
  H    -53.140800  -51.668500  -80.190900
  C    -52.089000  -50.208700  -79.225000
  H    -52.002900  -50.734000  -78.233500
  H    -53.067700  -49.675000  -79.089400
  C    -50.903800  -49.195300  -79.423600
  H    -51.157900  -48.645500  -80.307500
  H    -49.961800  -49.744900  -79.634000
  H    -50.858100  -48.546000  -78.531200
  H    -57.295600  -47.409000  -82.066000
  H    -51.382400  -51.951100  -85.077400

 Total Charge           Charge          ....    0
 Multiplicity           Mult            ....    1
 Number of Electrons    NEL             ....  134
 Basis Dimension        Dim             ....  322

ORBITAL ENERGIES
----------------

  NO   OCC          E(Eh)            E(eV)
   0   2.0000     -88.969015     -2420.9700
   1   2.0000     -88.961830     -2420.7745
   2   2.0000     -10.333864      -281.1987
   3   2.0000     -10.326915      -281.0096
   4   2.0000     -10.314706      -280.6774
   5   2.0000     -10.312469      -280.6165
   6   2.0000     -10.306668      -280.4587
   7   2.0000     -10.296733      -280.1883
   8   2.0000     -10.296418      -280.1798
   9   2.0000     -10.296162      -280.1728
  10   2.0000     -10.295962      -280.1674
  11   2.0000     -10.289164      -279.9824
  12   2.0000     -10.286288      -279.9041
  13   2.0000     -10.283908      -279.8394
  14   2.0000     -10.281548      -279.7751
  15   2.0000     -10.275402      -279.6079
  16   2.0000      -8.083316      -219.9582
  17   2.0000      -8.077196      -219.7917
  18   2.0000      -6.041875      -164.4078
  19   2.0000      -6.038001      -164.3024
  20   2.0000      -6.035594      -164.2369
  21   2.0000      -6.033923      -164.1914
  22   2.0000      -6.031526      -164.1262
  23   2.0000      -6.028108      -164.0332
  24   2.0000      -1.006619       -27.3915
  25   2.0000      -0.985687       -26.8219
  26   2.0000      -0.924393       -25.1540
  27   2.0000      -0.898588       -24.4518
  28   2.0000      -0.868265       -23.6267
  29   2.0000      -0.847630       -23.0652
  30   2.0000      -0.844007       -22.9666
  31   2.0000      -0.815687       -22.1960
  32   2.0000      -0.787069       -21.4172
  33   2.0000      -0.778932       -21.1958
  34   2.0000      -0.707688       -19.2572
  35   2.0000      -0.699810       -19.0428
  36   2.0000      -0.688382       -18.7318
  37   2.0000      -0.661749       -18.0071
  38   2.0000      -0.643250       -17.5037
  39   2.0000      -0.623080       -16.9549
  40   2.0000      -0.586507       -15.9597
  41   2.0000      -0.574703       -15.6385
  42   2.0000      -0.556637       -15.1469
  43   2.0000      -0.550334       -14.9753
  44   2.0000      -0.546361       -14.8672
  45   2.0000      -0.536139       -14.5891
  46   2.0000      -0.523454       -14.2439
  47   2.0000      -0.510584       -13.8937
  48   2.0000      -0.502141       -13.6639
  49   2.0000      -0.499984       -13.6053
  50   2.0000      -0.485296       -13.2056
  51   2.0000      -0.479558       -13.0494
  52   2.0000      -0.477811       -13.0019
  53   2.0000      -0.466637       -12.6978
  54   2.0000      -0.458357       -12.4725
  55   2.0000      -0.447607       -12.1800
  56   2.0000      -0.443601       -12.0710
  57   2.0000      -0.441575       -12.0159
  58   2.0000      -0.430208       -11.7066
  59   2.0000      -0.429370       -11.6837
  60   2.0000      -0.425213       -11.5706
  61   2.0000      -0.405712       -11.0400
  62   2.0000      -0.403829       -10.9887
  63   2.0000      -0.343363        -9.3434
  64   2.0000      -0.333372        -9.0715
  65   2.0000      -0.326412        -8.8821
  66   2.0000      -0.294957        -8.0262
  67   0.0000       0.026050         0.7089
  68   0.0000       0.071210         1.9377
  69   0.0000       0.107967         2.9379
  70   0.0000       0.116100         3.1592
  71   0.0000       0.129669         3.5285

MULLIKEN ATOMIC CHARGES
-----------------------
   0 S :    0.119257
   1 C :   -0.087492
   2 C :   -0.109193
   3 C :    0.067879
   4 C :   -0.147152
   5 H :   -0.014113
   6 C :    0.080740
   7 H :    0.016428
   8 H :    0.030977
   9 C :   -0.101465
  10 H :    0.026484
  11 H :    0.029552
  12 C :   -0.019103
  13 H :    0.023906
  14 H :    0.031305
  15 H :    0.034926
  16 S :    0.101321
  17 C :   -0.086592
  18 C :   -0.064032
  19 C :   -0.021308
  20 C :   -0.162782
  21 H :    0.030255
  22 C :    0.091220
  23 H :    0.015570
  24 H :    0.016180
  25 C :   -0.115533
  26 H :    0.035370
  27 H :    0.031193
  28 C :   -0.050918
  29 H :    0.038679
  30 H :    0.041327
  31 H :    0.044270
  32 H :    0.015119
  33 H :    0.057723
Sum of atomic charges:    0.0000000

LOEWDIN ATOMIC CHARGES
----------------------
   0 S :    0.400658
   1 C :   -0.182530
   2 C :   -0.059261
   3 C :   -0.047621
   4 C :   -0.189284
   5 H :    0.022467
   6 C :   -0.043383
   7 H :    0.030658
   8 H :    0.038937
   9 C :   -0.045388
  10 H :    0.023001
  11 H :    0.028734
  12 C :   -0.059542
  13 H :    0.025205
  14 H :    0.030176
  15 H :    0.019208
  16 S :    0.415570
  17 C :   -0.195735
  18 C :   -0.078934
  19 C :   -0.056243
  20 C :   -0.200084
  21 H :    0.034830
  22 C :   -0.026257
  23 H :    0.030736
  24 H :    0.019779
  25 C :   -0.046670
  26 H :    0.030614
  27 H :    0.022538
  28 C :   -0.067470
  29 H :    0.019769
  30 H :    0.030821
  31 H :    0.029367
  32 H :    0.014776
  33 H :    0.030556

  Mayer bond orders larger than 0.100000
B(  0-S ,  1-C ) :   1.1207 B(  0-S ,  4-C ) :   1.1509 B(  1-C ,  2-C ) :   1.6498
B(  1-C , 32-H ) :   0.9659 B(  2-C ,  3-C ) :   1.2137 B(  2-C ,  6-C ) :   1.0544
B(  3-C ,  4-C ) :   1.5776 B(  3-C ,  5-H ) :   0.9935 B(  4-C , 20-C ) :   1.0251
B(  6-C ,  7-H ) :   0.9367 B(  6-C ,  8-H ) :   0.9305 B(  6-C ,  9-C ) :   1.0521
B(  9-C , 10-H ) :   0.9566 B(  9-C , 11-H ) :   0.9512 B(  9-C , 12-C ) :   1.0927
B( 12-C , 13-H ) :   0.9699 B( 12-C , 14-H ) :   0.9697 B( 12-C , 15-H ) :   0.9761
B( 16-S , 17-C ) :   1.1598 B( 16-S , 20-C ) :   1.1619 B( 17-C , 18-C ) :   1.5967
B( 17-C , 20-C ) :   0.1065 B( 17-C , 33-H ) :   0.9710 B( 18-C , 19-C ) :   1.2520
B( 18-C , 21-H ) :   0.9836 B( 19-C , 20-C ) :   1.5740 B( 19-C , 22-C ) :   1.0090
B( 22-C , 23-H ) :   0.9407 B( 22-C , 24-H ) :   0.9397 B( 22-C , 25-C ) :   1.0702
B( 25-C , 26-H ) :   0.9509 B( 25-C , 27-H ) :   0.9527 B( 25-C , 28-C ) :   1.0680
B( 28-C , 29-H ) :   0.9715 B( 28-C , 30-H ) :   0.9752 B( 28-C , 31-H ) :   0.9762

Dispersion correction           -0.015114407
FINAL SINGLE POINT ENERGY     -1339.863504124043

DIPOLE MOMENT
-------------
                                X             Y             Z
Electronic contribution:     -7.93021     -14.18271     -22.54926
Nuclear contribution   :      8.02505      14.31887      23.09494
                        -----------------------------------------
Total Dipole Moment    :      0.09483       0.13616       0.54569
                        -----------------------------------------
Magnitude (a.u.)       :      0.57036
Magnitude (Debye)      :      1.44974

Rotational constants in cm-1:     0.018306     0.009642     0.007475
Rotational constants in MHz :   548.788318   289.047615   224.101540

                             ****ORCA TERMINATED NORMALLY****
TOTAL RUN TIME: 0 days 0 hours 0 minutes 22 seconds 286 msec
