                         Program Version 4.2.1 -  RELEASE  -
|  1> ! wB97X-D3 SP def2-SVP
|  2> %pal
|  3> nprocs 24
|  4> end
|  5>
|  6> * xyz 0 1
|  7> S 	 -106.711 	 66.9503 	 -8.68572
|  8> C 	 -106.293 	 67.8295 	 -10.1365
|  9> C 	 -105.238 	 67.2897 	 -10.7715
| 10> C 	 -104.97 	 65.9372 	 -10.3175
| 11> C 	 -105.608 	 65.6506 	 -9.15471
| 12> H 	 -104.309 	 65.2421 	 -10.8168
| 13> C 	 -104.59 	 67.9101 	 -12.0005
| 14> H 	 -103.521 	 67.7058 	 -12.0561
| 15> H 	 -104.69 	 69.0482 	 -12.0168
| 16> C 	 -105.178 	 67.3968 	 -13.3112
| 17> H 	 -105.113 	 66.2968 	 -13.3067
| 18> H 	 -106.222 	 67.5336 	 -13.4463
| 19> C 	 -104.529 	 67.9371 	 -14.5778
| 20> H 	 -103.457 	 68.0359 	 -14.5657
| 21> H 	 -104.924 	 67.4425 	 -15.4731
| 22> H 	 -104.858 	 68.9759 	 -14.7732
| 23> S 	 -107.019 	 63.5411 	 -7.85744
| 24> C 	 -106.028 	 62.2996 	 -7.09401
| 25> C 	 -104.723 	 62.6254 	 -7.0704
| 26> C 	 -104.4 	 63.7726 	 -7.84598
| 27> C 	 -105.541 	 64.4365 	 -8.33211
| 28> H 	 -103.95 	 61.9717 	 -6.63844
| 29> C 	 -102.993 	 64.1477 	 -8.10913
| 30> H 	 -102.913 	 65.1651 	 -8.47854
| 31> H 	 -102.616 	 63.3541 	 -8.80972
| 32> C 	 -102.119 	 64.1412 	 -6.87832
| 33> H 	 -101.085 	 64.2507 	 -7.22136
| 34> H 	 -102.082 	 63.1401 	 -6.40639
| 35> C 	 -102.454 	 65.3074 	 -5.93945
| 36> H 	 -103.497 	 65.2721 	 -5.59422
| 37> H 	 -102.327 	 66.3074 	 -6.45273
| 38> H 	 -101.728 	 65.3555 	 -5.12242
| 39> H 	 -106.812 	 68.7361 	 -10.3755
| 40> H 	 -106.396 	 61.4227 	 -6.53065
| 41> *
| 42>
| 43>                          ****END OF INPUT****

CARTESIAN COORDINATES (ANGSTROEM)
---------------------------------
  S    -106.711000   66.950300   -8.685720
  C    -106.293000   67.829500  -10.136500
  C    -105.238000   67.289700  -10.771500
  C    -104.970000   65.937200  -10.317500
  C    -105.608000   65.650600   -9.154710
  H    -104.309000   65.242100  -10.816800
  C    -104.590000   67.910100  -12.000500
  H    -103.521000   67.705800  -12.056100
  H    -104.690000   69.048200  -12.016800
  C    -105.178000   67.396800  -13.311200
  H    -105.113000   66.296800  -13.306700
  H    -106.222000   67.533600  -13.446300
  C    -104.529000   67.937100  -14.577800
  H    -103.457000   68.035900  -14.565700
  H    -104.924000   67.442500  -15.473100
  H    -104.858000   68.975900  -14.773200
  S    -107.019000   63.541100   -7.857440
  C    -106.028000   62.299600   -7.094010
  C    -104.723000   62.625400   -7.070400
  C    -104.400000   63.772600   -7.845980
  C    -105.541000   64.436500   -8.332110
  H    -103.950000   61.971700   -6.638440
  C    -102.993000   64.147700   -8.109130
  H    -102.913000   65.165100   -8.478540
  H    -102.616000   63.354100   -8.809720
  C    -102.119000   64.141200   -6.878320
  H    -101.085000   64.250700   -7.221360
  H    -102.082000   63.140100   -6.406390
  C    -102.454000   65.307400   -5.939450
  H    -103.497000   65.272100   -5.594220
  H    -102.327000   66.307400   -6.452730
  H    -101.728000   65.355500   -5.122420
  H    -106.812000   68.736100  -10.375500
  H    -106.396000   61.422700   -6.530650

 Total Charge           Charge          ....    0
 Multiplicity           Mult            ....    1
 Number of Electrons    NEL             ....  134
 Basis Dimension        Dim             ....  322

ORBITAL ENERGIES
----------------

  NO   OCC          E(Eh)            E(eV)
   0   2.0000     -88.965767     -2420.8816
   1   2.0000     -88.960170     -2420.7293
   2   2.0000     -10.328585      -281.0551
   3   2.0000     -10.328280      -281.0468
   4   2.0000     -10.318435      -280.7789
   5   2.0000     -10.308777      -280.5161
   6   2.0000     -10.300946      -280.3030
   7   2.0000     -10.300313      -280.2858
   8   2.0000     -10.298275      -280.2303
   9   2.0000     -10.295130      -280.1447
  10   2.0000     -10.290171      -280.0098
  11   2.0000     -10.288732      -279.9706
  12   2.0000     -10.286306      -279.9046
  13   2.0000     -10.282173      -279.7922
  14   2.0000     -10.280207      -279.7386
  15   2.0000     -10.277900      -279.6759
  16   2.0000      -8.079606      -219.8573
  17   2.0000      -8.075349      -219.7414
  18   2.0000      -6.038266      -164.3096
  19   2.0000      -6.034303      -164.2017
  20   2.0000      -6.033896      -164.1907
  21   2.0000      -6.030193      -164.0899
  22   2.0000      -6.029967      -164.0837
  23   2.0000      -6.025875      -163.9724
  24   2.0000      -1.004912       -27.3450
  25   2.0000      -0.984992       -26.8030
  26   2.0000      -0.915787       -24.9198
  27   2.0000      -0.911559       -24.8048
  28   2.0000      -0.870553       -23.6889
  29   2.0000      -0.848364       -23.0852
  30   2.0000      -0.842158       -22.9163
  31   2.0000      -0.817401       -22.2426
  32   2.0000      -0.781972       -21.2785
  33   2.0000      -0.770207       -20.9584
  34   2.0000      -0.706747       -19.2316
  35   2.0000      -0.698654       -19.0113
  36   2.0000      -0.694476       -18.8977
  37   2.0000      -0.653588       -17.7850
  38   2.0000      -0.645445       -17.5634
  39   2.0000      -0.620491       -16.8844
  40   2.0000      -0.598670       -16.2906
  41   2.0000      -0.571330       -15.5467
  42   2.0000      -0.562046       -15.2940
  43   2.0000      -0.553735       -15.0679
  44   2.0000      -0.536214       -14.5911
  45   2.0000      -0.526511       -14.3271
  46   2.0000      -0.512687       -13.9509
  47   2.0000      -0.510224       -13.8839
  48   2.0000      -0.504816       -13.7367
  49   2.0000      -0.495811       -13.4917
  50   2.0000      -0.491823       -13.3832
  51   2.0000      -0.476231       -12.9589
  52   2.0000      -0.468160       -12.7393
  53   2.0000      -0.461768       -12.5653
  54   2.0000      -0.456248       -12.4151
  55   2.0000      -0.451351       -12.2819
  56   2.0000      -0.445886       -12.1332
  57   2.0000      -0.444551       -12.0968
  58   2.0000      -0.436831       -11.8868
  59   2.0000      -0.426040       -11.5931
  60   2.0000      -0.421675       -11.4744
  61   2.0000      -0.411161       -11.1883
  62   2.0000      -0.407422       -11.0865
  63   2.0000      -0.347673        -9.4607
  64   2.0000      -0.329531        -8.9670
  65   2.0000      -0.327898        -8.9226
  66   2.0000      -0.295089        -8.0298
  67   0.0000       0.032574         0.8864
  68   0.0000       0.074348         2.0231
  69   0.0000       0.107220         2.9176
  70   0.0000       0.122923         3.3449
  71   0.0000       0.132108         3.5948

MULLIKEN ATOMIC CHARGES
-----------------------
   0 S :    0.093059
   1 C :   -0.119388
   2 C :   -0.061003
   3 C :    0.027623
   4 C :   -0.152366
   5 H :    0.018183
   6 C :    0.046210
   7 H :    0.024617
   8 H :    0.033653
   9 C :   -0.069664
  10 H :    0.020247
  11 H :    0.016874
  12 C :   -0.038491
  13 H :    0.026669
  14 H :    0.035530
  15 H :    0.017989
  16 S :    0.105472
  17 C :   -0.088480
  18 C :   -0.038857
  19 C :   -0.047714
  20 C :   -0.156393
  21 H :    0.027201
  22 C :    0.069960
  23 H :    0.026525
  24 H :    0.048262
  25 C :   -0.084383
  26 H :    0.021967
  27 H :    0.024244
  28 C :   -0.060859
  29 H :    0.052587
  30 H :    0.034465
  31 H :    0.035770
  32 H :    0.044956
  33 H :    0.065537
Sum of atomic charges:    0.0000000

LOEWDIN ATOMIC CHARGES
----------------------
   0 S :    0.383438
   1 C :   -0.181218
   2 C :   -0.064126
   3 C :   -0.057708
   4 C :   -0.180373
   5 H :    0.032908
   6 C :   -0.033823
   7 H :    0.029971
   8 H :    0.035867
   9 C :   -0.045219
  10 H :    0.023141
  11 H :    0.020828
  12 C :   -0.069455
  13 H :    0.019981
  14 H :    0.031159
  15 H :    0.025647
  16 S :    0.380766
  17 C :   -0.177612
  18 C :   -0.079245
  19 C :   -0.051663
  20 C :   -0.197572
  21 H :    0.035609
  22 C :   -0.036213
  23 H :    0.031032
  24 H :    0.042580
  25 C :   -0.046749
  26 H :    0.024928
  27 H :    0.020288
  28 C :   -0.068292
  29 H :    0.029912
  30 H :    0.032465
  31 H :    0.025910
  32 H :    0.024153
  33 H :    0.038686

  Mayer bond orders larger than 0.100000
B(  0-S ,  1-C ) :   1.1240 B(  0-S ,  4-C ) :   1.1333 B(  1-C ,  2-C ) :   1.6504
B(  1-C , 32-H ) :   0.9721 B(  2-C ,  3-C ) :   1.1821 B(  2-C ,  6-C ) :   1.0396
B(  3-C ,  4-C ) :   1.6250 B(  3-C ,  5-H ) :   0.9949 B(  4-C , 20-C ) :   1.0424
B(  6-C ,  7-H ) :   0.9350 B(  6-C ,  8-H ) :   0.9458 B(  6-C ,  9-C ) :   1.0607
B(  9-C , 10-H ) :   0.9547 B(  9-C , 11-H ) :   0.9530 B(  9-C , 12-C ) :   1.0859
B( 12-C , 13-H ) :   0.9755 B( 12-C , 14-H ) :   0.9711 B( 12-C , 15-H ) :   0.9710
B( 16-S , 17-C ) :   1.1425 B( 16-S , 20-C ) :   1.1198 B( 17-C , 18-C ) :   1.6421
B( 17-C , 33-H ) :   0.9569 B( 18-C , 19-C ) :   1.2297 B( 18-C , 21-H ) :   0.9799
B( 19-C , 20-C ) :   1.5935 B( 19-C , 22-C ) :   1.0545 B( 22-C , 23-H ) :   0.9288
B( 22-C , 24-H ) :   0.9230 B( 22-C , 25-C ) :   1.0891 B( 25-C , 26-H ) :   0.9498
B( 25-C , 27-H ) :   0.9479 B( 25-C , 28-C ) :   1.0719 B( 28-C , 29-H ) :   0.9754
B( 28-C , 30-H ) :   0.9700 B( 28-C , 31-H ) :   0.9740

Dispersion correction           -0.014134761
FINAL SINGLE POINT ENERGY     -1339.893357636241

DIPOLE MOMENT
-------------
                                X             Y             Z
Electronic contribution:    -20.18418      -6.87704      12.41427
Nuclear contribution   :     20.81084       6.81341     -12.71055
                        -----------------------------------------
Total Dipole Moment    :      0.62667      -0.06363      -0.29628
                        -----------------------------------------
Magnitude (a.u.)       :      0.69609
Magnitude (Debye)      :      1.76932

Rotational constants in cm-1:     0.020591     0.007556     0.006670
Rotational constants in MHz :   617.311614   226.525048   199.952607

                             ****ORCA TERMINATED NORMALLY****
TOTAL RUN TIME: 0 days 0 hours 0 minutes 21 seconds 364 msec
