                         Program Version 4.2.1 -  RELEASE  -
|  1> ! wB97X-D3 SP def2-SVP
|  2> %pal
|  3> nprocs 24
|  4> end
|  5>
|  6> * xyz 0 1
|  7> S 	 18.9623 	 -4.64725 	 -113.716
|  8> C 	 19.7873 	 -4.29547 	 -112.254
|  9> C 	 19.8658 	 -5.43705 	 -111.426
| 10> C 	 19.1686 	 -6.56312 	 -111.969
| 11> C 	 18.6167 	 -6.30522 	 -113.213
| 12> H 	 19.081 	 -7.55493 	 -111.577
| 13> C 	 20.4 	 -5.45486 	 -110.021
| 14> H 	 19.5579 	 -5.86018 	 -109.537
| 15> H 	 20.4327 	 -4.47455 	 -109.656
| 16> C 	 21.6363 	 -6.21971 	 -109.607
| 17> H 	 22.5664 	 -5.79274 	 -109.899
| 18> H 	 21.6642 	 -6.22852 	 -108.51
| 19> C 	 21.6888 	 -7.73433 	 -109.924
| 20> H 	 22.4782 	 -8.27755 	 -109.566
| 21> H 	 20.7919 	 -8.25035 	 -109.563
| 22> H 	 21.8542 	 -7.85822 	 -111.012
| 23> S 	 18.2826 	 -6.95846 	 -115.881
| 24> C 	 17.709 	 -8.50745 	 -116.308
| 25> C 	 17.1063 	 -9.20734 	 -115.238
| 26> C 	 17.3773 	 -8.52171 	 -113.984
| 27> C 	 18.0569 	 -7.24595 	 -114.178
| 28> H 	 16.5991 	 -10.1412 	 -115.388
| 29> C 	 16.9032 	 -9.1146 	 -112.633
| 30> H 	 17.7333 	 -8.97848 	 -111.921
| 31> H 	 16.7098 	 -10.2167 	 -112.778
| 32> C 	 15.7083 	 -8.36273 	 -112.074
| 33> H 	 14.9221 	 -8.14978 	 -112.726
| 34> H 	 16.0996 	 -7.34226 	 -111.836
| 35> C 	 15.1552 	 -9.08936 	 -110.821
| 36> H 	 14.4291 	 -8.4438 	 -110.34
| 37> H 	 15.9988 	 -9.30849 	 -110.132
| 38> H 	 14.7646 	 -10.027 	 -111.072
| 39> H 	 20.2129 	 -3.3474 	 -112.138
| 40> H 	 17.5185 	 -8.84419 	 -117.317
| 41> *
| 42>
| 43>                          ****END OF INPUT****

CARTESIAN COORDINATES (ANGSTROEM)
---------------------------------
  S     18.962300   -4.647250  -113.716000
  C     19.787300   -4.295470  -112.254000
  C     19.865800   -5.437050  -111.426000
  C     19.168600   -6.563120  -111.969000
  C     18.616700   -6.305220  -113.213000
  H     19.081000   -7.554930  -111.577000
  C     20.400000   -5.454860  -110.021000
  H     19.557900   -5.860180  -109.537000
  H     20.432700   -4.474550  -109.656000
  C     21.636300   -6.219710  -109.607000
  H     22.566400   -5.792740  -109.899000
  H     21.664200   -6.228520  -108.510000
  C     21.688800   -7.734330  -109.924000
  H     22.478200   -8.277550  -109.566000
  H     20.791900   -8.250350  -109.563000
  H     21.854200   -7.858220  -111.012000
  S     18.282600   -6.958460  -115.881000
  C     17.709000   -8.507450  -116.308000
  C     17.106300   -9.207340  -115.238000
  C     17.377300   -8.521710  -113.984000
  C     18.056900   -7.245950  -114.178000
  H     16.599100  -10.141200  -115.388000
  C     16.903200   -9.114600  -112.633000
  H     17.733300   -8.978480  -111.921000
  H     16.709800  -10.216700  -112.778000
  C     15.708300   -8.362730  -112.074000
  H     14.922100   -8.149780  -112.726000
  H     16.099600   -7.342260  -111.836000
  C     15.155200   -9.089360  -110.821000
  H     14.429100   -8.443800  -110.340000
  H     15.998800   -9.308490  -110.132000
  H     14.764600  -10.027000  -111.072000
  H     20.212900   -3.347400  -112.138000
  H     17.518500   -8.844190  -117.317000

 Total Charge           Charge          ....    0
 Multiplicity           Mult            ....    1
 Number of Electrons    NEL             ....  134
 Basis Dimension        Dim             ....  322

ORBITAL ENERGIES
----------------

  NO   OCC          E(Eh)            E(eV)
   0   2.0000     -88.970347     -2421.0062
   1   2.0000     -88.964200     -2420.8390
   2   2.0000     -10.332348      -281.1575
   3   2.0000     -10.332016      -281.1485
   4   2.0000     -10.315860      -280.7088
   5   2.0000     -10.313475      -280.6439
   6   2.0000     -10.311306      -280.5849
   7   2.0000     -10.305151      -280.4174
   8   2.0000     -10.299443      -280.2621
   9   2.0000     -10.298874      -280.2466
  10   2.0000     -10.293052      -280.0882
  11   2.0000     -10.285695      -279.8880
  12   2.0000     -10.282172      -279.7921
  13   2.0000     -10.280280      -279.7406
  14   2.0000     -10.274704      -279.5889
  15   2.0000     -10.272546      -279.5302
  16   2.0000      -8.085491      -220.0174
  17   2.0000      -8.079518      -219.8549
  18   2.0000      -6.043907      -164.4631
  19   2.0000      -6.039866      -164.3531
  20   2.0000      -6.037932      -164.3005
  21   2.0000      -6.036418      -164.2593
  22   2.0000      -6.033919      -164.1913
  23   2.0000      -6.030404      -164.0956
  24   2.0000      -1.004854       -27.3435
  25   2.0000      -0.981808       -26.7163
  26   2.0000      -0.914193       -24.8765
  27   2.0000      -0.909137       -24.7389
  28   2.0000      -0.867942       -23.6179
  29   2.0000      -0.853397       -23.2221
  30   2.0000      -0.845624       -23.0106
  31   2.0000      -0.815676       -22.1957
  32   2.0000      -0.786238       -21.3946
  33   2.0000      -0.768459       -20.9108
  34   2.0000      -0.709699       -19.3119
  35   2.0000      -0.704830       -19.1794
  36   2.0000      -0.690458       -18.7883
  37   2.0000      -0.664288       -18.0762
  38   2.0000      -0.644367       -17.5341
  39   2.0000      -0.620318       -16.8797
  40   2.0000      -0.591753       -16.1024
  41   2.0000      -0.571806       -15.5596
  42   2.0000      -0.565111       -15.3775
  43   2.0000      -0.549976       -14.9656
  44   2.0000      -0.540566       -14.7096
  45   2.0000      -0.528736       -14.3876
  46   2.0000      -0.520158       -14.1542
  47   2.0000      -0.510625       -13.8948
  48   2.0000      -0.505781       -13.7630
  49   2.0000      -0.495032       -13.4705
  50   2.0000      -0.493549       -13.4301
  51   2.0000      -0.485937       -13.2230
  52   2.0000      -0.475305       -12.9337
  53   2.0000      -0.464473       -12.6390
  54   2.0000      -0.458493       -12.4762
  55   2.0000      -0.452678       -12.3180
  56   2.0000      -0.450044       -12.2463
  57   2.0000      -0.445028       -12.1098
  58   2.0000      -0.436682       -11.8827
  59   2.0000      -0.425295       -11.5729
  60   2.0000      -0.414727       -11.2853
  61   2.0000      -0.411993       -11.2109
  62   2.0000      -0.407124       -11.0784
  63   2.0000      -0.358585        -9.7576
  64   2.0000      -0.334124        -9.0920
  65   2.0000      -0.324860        -8.8399
  66   2.0000      -0.276451        -7.5226
  67   0.0000       0.019823         0.5394
  68   0.0000       0.076819         2.0903
  69   0.0000       0.104182         2.8349
  70   0.0000       0.114005         3.1022
  71   0.0000       0.138014         3.7555

MULLIKEN ATOMIC CHARGES
-----------------------
   0 S :    0.091237
   1 C :   -0.107344
   2 C :   -0.080295
   3 C :    0.005707
   4 C :   -0.118244
   5 H :   -0.002018
   6 C :    0.119145
   7 H :    0.012227
   8 H :    0.002102
   9 C :   -0.043828
  10 H :    0.021806
  11 H :    0.024656
  12 C :   -0.055272
  13 H :    0.010566
  14 H :    0.028623
  15 H :    0.037935
  16 S :    0.123280
  17 C :   -0.087752
  18 C :   -0.039121
  19 C :   -0.064972
  20 C :   -0.134496
  21 H :    0.020470
  22 C :    0.038634
  23 H :    0.024597
  24 H :    0.032063
  25 C :   -0.067922
  26 H :    0.018982
  27 H :    0.033089
  28 C :   -0.014409
  29 H :    0.039088
  30 H :    0.021265
  31 H :    0.019198
  32 H :    0.033917
  33 H :    0.057087
Sum of atomic charges:    0.0000000

LOEWDIN ATOMIC CHARGES
----------------------
   0 S :    0.405950
   1 C :   -0.200516
   2 C :   -0.054099
   3 C :   -0.066150
   4 C :   -0.181719
   5 H :    0.026901
   6 C :   -0.030184
   7 H :    0.032577
   8 H :    0.027296
   9 C :   -0.032765
  10 H :    0.019444
  11 H :    0.028515
  12 C :   -0.066452
  13 H :    0.014271
  14 H :    0.023435
  15 H :    0.030278
  16 S :    0.438326
  17 C :   -0.205349
  18 C :   -0.069200
  19 C :   -0.047658
  20 C :   -0.213711
  21 H :    0.030568
  22 C :   -0.034166
  23 H :    0.028393
  24 H :    0.032660
  25 C :   -0.038206
  26 H :    0.015074
  27 H :    0.030689
  28 C :   -0.057185
  29 H :    0.027268
  30 H :    0.026441
  31 H :    0.015173
  32 H :    0.016203
  33 H :    0.027896

  Mayer bond orders larger than 0.100000
B(  0-S ,  1-C ) :   1.1505 B(  0-S ,  4-C ) :   1.1516 B(  1-C ,  2-C ) :   1.5700
B(  1-C , 32-H ) :   0.9823 B(  2-C ,  3-C ) :   1.2545 B(  2-C ,  6-C ) :   1.0094
B(  3-C ,  4-C ) :   1.5524 B(  3-C ,  5-H ) :   0.9895 B(  4-C , 20-C ) :   1.0850
B(  6-C ,  7-H ) :   0.9338 B(  6-C ,  8-H ) :   0.9353 B(  6-C ,  9-C ) :   1.0785
B(  9-C , 10-H ) :   0.9564 B(  9-C , 11-H ) :   0.9517 B(  9-C , 12-C ) :   1.0856
B( 12-C , 13-H ) :   0.9706 B( 12-C , 14-H ) :   0.9734 B( 12-C , 15-H ) :   0.9702
B( 16-S , 17-C ) :   1.1879 B( 16-S , 20-C ) :   1.1555 B( 17-C , 18-C ) :   1.5625
B( 17-C , 20-C ) :   0.1033 B( 17-C , 33-H ) :   0.9636 B( 18-C , 19-C ) :   1.2937
B( 18-C , 21-H ) :   0.9910 B( 19-C , 20-C ) :   1.5117 B( 19-C , 22-C ) :   1.0381
B( 22-C , 23-H ) :   0.9323 B( 22-C , 24-H ) :   0.9413 B( 22-C , 25-C ) :   1.0591
B( 25-C , 26-H ) :   0.9598 B( 25-C , 27-H ) :   0.9500 B( 25-C , 28-C ) :   1.0783
B( 28-C , 29-H ) :   0.9744 B( 28-C , 30-H ) :   0.9728 B( 28-C , 31-H ) :   0.9762

Dispersion correction           -0.014359490
FINAL SINGLE POINT ENERGY     -1339.868376691356

DIPOLE MOMENT
-------------
                                X             Y             Z
Electronic contribution:      0.29778      13.00226     -25.90117
Nuclear contribution   :     -0.31918     -13.35118      26.38452
                        -----------------------------------------
Total Dipole Moment    :     -0.02140      -0.34892       0.48335
                        -----------------------------------------
Magnitude (a.u.)       :      0.59652
Magnitude (Debye)      :      1.51623

Rotational constants in cm-1:     0.016281     0.009590     0.007322
Rotational constants in MHz :   488.090732   287.487380   219.494026

                             ****ORCA TERMINATED NORMALLY****
TOTAL RUN TIME: 0 days 0 hours 0 minutes 21 seconds 912 msec
