                         Program Version 4.2.1 -  RELEASE  -
|  1> ! wB97X-D3 SP def2-SVP
|  2> %pal
|  3> nprocs 24
|  4> end
|  5>
|  6> * xyz 0 1
|  7> S 	 -136.762 	 8.92819 	 -10.2819
|  8> C 	 -137.634 	 9.84675 	 -9.08894
|  9> C 	 -137.431 	 9.46454 	 -7.76743
| 10> C 	 -136.574 	 8.285 	 -7.75319
| 11> C 	 -136.118 	 7.87059 	 -9.02725
| 12> H 	 -136.339 	 7.62039 	 -6.90197
| 13> C 	 -138.157 	 10.0337 	 -6.55744
| 14> H 	 -139.039 	 10.5724 	 -6.90055
| 15> H 	 -137.567 	 10.6787 	 -5.96649
| 16> C 	 -138.8 	 8.96241 	 -5.64035
| 17> H 	 -139.464 	 8.20992 	 -6.13526
| 18> H 	 -137.972 	 8.31363 	 -5.39882
| 19> C 	 -139.467 	 9.58089 	 -4.35285
| 20> H 	 -138.702 	 10.2269 	 -3.80803
| 21> H 	 -140.282 	 10.1969 	 -4.60323
| 22> H 	 -139.895 	 8.86455 	 -3.5807
| 23> S 	 -136.308 	 5.37932 	 -10.124
| 24> C 	 -134.949 	 4.26044 	 -10.1176
| 25> C 	 -133.854 	 4.82565 	 -9.45359
| 26> C 	 -134.108 	 6.17572 	 -8.99145
| 27> C 	 -135.391 	 6.63783 	 -9.29367
| 28> H 	 -132.925 	 4.30283 	 -9.31931
| 29> C 	 -133.018 	 7.02073 	 -8.2516
| 30> H 	 -132.118 	 6.36941 	 -8.34142
| 31> H 	 -133.323 	 7.12269 	 -7.24053
| 32> C 	 -132.63 	 8.31515 	 -8.93321
| 33> H 	 -133.526 	 8.9384 	 -9.10214
| 34> H 	 -132.293 	 7.91909 	 -9.88103
| 35> C 	 -131.545 	 9.23059 	 -8.30405
| 36> H 	 -131.985 	 9.56402 	 -7.4096
| 37> H 	 -131.41 	 10.029 	 -9.01554
| 38> H 	 -130.642 	 8.70848 	 -7.94224
| 39> H 	 -138.182 	 10.626 	 -9.47494
| 40> H 	 -135.055 	 3.19757 	 -10.3592
| 41> *
| 42>
| 43>                          ****END OF INPUT****

CARTESIAN COORDINATES (ANGSTROEM)
---------------------------------
  S    -136.762000    8.928190  -10.281900
  C    -137.634000    9.846750   -9.088940
  C    -137.431000    9.464540   -7.767430
  C    -136.574000    8.285000   -7.753190
  C    -136.118000    7.870590   -9.027250
  H    -136.339000    7.620390   -6.901970
  C    -138.157000   10.033700   -6.557440
  H    -139.039000   10.572400   -6.900550
  H    -137.567000   10.678700   -5.966490
  C    -138.800000    8.962410   -5.640350
  H    -139.464000    8.209920   -6.135260
  H    -137.972000    8.313630   -5.398820
  C    -139.467000    9.580890   -4.352850
  H    -138.702000   10.226900   -3.808030
  H    -140.282000   10.196900   -4.603230
  H    -139.895000    8.864550   -3.580700
  S    -136.308000    5.379320  -10.124000
  C    -134.949000    4.260440  -10.117600
  C    -133.854000    4.825650   -9.453590
  C    -134.108000    6.175720   -8.991450
  C    -135.391000    6.637830   -9.293670
  H    -132.925000    4.302830   -9.319310
  C    -133.018000    7.020730   -8.251600
  H    -132.118000    6.369410   -8.341420
  H    -133.323000    7.122690   -7.240530
  C    -132.630000    8.315150   -8.933210
  H    -133.526000    8.938400   -9.102140
  H    -132.293000    7.919090   -9.881030
  C    -131.545000    9.230590   -8.304050
  H    -131.985000    9.564020   -7.409600
  H    -131.410000   10.029000   -9.015540
  H    -130.642000    8.708480   -7.942240
  H    -138.182000   10.626000   -9.474940
  H    -135.055000    3.197570  -10.359200

 Total Charge           Charge          ....    0
 Multiplicity           Mult            ....    1
 Number of Electrons    NEL             ....  134
 Basis Dimension        Dim             ....  322

ORBITAL ENERGIES
----------------

  NO   OCC          E(Eh)            E(eV)
   0   2.0000     -88.969036     -2420.9706
   1   2.0000     -88.963639     -2420.8237
   2   2.0000     -10.333226      -281.1814
   3   2.0000     -10.327659      -281.0299
   4   2.0000     -10.322260      -280.8830
   5   2.0000     -10.313552      -280.6460
   6   2.0000     -10.311417      -280.5879
   7   2.0000     -10.308490      -280.5083
   8   2.0000     -10.304469      -280.3989
   9   2.0000     -10.298881      -280.2468
  10   2.0000     -10.294994      -280.1410
  11   2.0000     -10.293059      -280.0884
  12   2.0000     -10.290420      -280.0166
  13   2.0000     -10.289885      -280.0020
  14   2.0000     -10.278602      -279.6950
  15   2.0000     -10.273312      -279.5510
  16   2.0000      -8.083735      -219.9696
  17   2.0000      -8.078091      -219.8160
  18   2.0000      -6.042057      -164.4127
  19   2.0000      -6.038239      -164.3088
  20   2.0000      -6.036618      -164.2647
  21   2.0000      -6.034704      -164.2126
  22   2.0000      -6.032474      -164.1520
  23   2.0000      -6.029005      -164.0576
  24   2.0000      -1.000781       -27.2326
  25   2.0000      -0.978280       -26.6204
  26   2.0000      -0.909347       -24.7446
  27   2.0000      -0.903785       -24.5932
  28   2.0000      -0.867524       -23.6065
  29   2.0000      -0.846104       -23.0237
  30   2.0000      -0.843034       -22.9401
  31   2.0000      -0.810948       -22.0670
  32   2.0000      -0.782725       -21.2990
  33   2.0000      -0.772680       -21.0257
  34   2.0000      -0.710548       -19.3350
  35   2.0000      -0.697374       -18.9765
  36   2.0000      -0.684075       -18.6146
  37   2.0000      -0.662776       -18.0351
  38   2.0000      -0.651591       -17.7307
  39   2.0000      -0.616201       -16.7677
  40   2.0000      -0.588741       -16.0205
  41   2.0000      -0.570679       -15.5290
  42   2.0000      -0.567969       -15.4552
  43   2.0000      -0.558609       -15.2005
  44   2.0000      -0.529384       -14.4053
  45   2.0000      -0.517583       -14.0841
  46   2.0000      -0.512225       -13.9383
  47   2.0000      -0.508656       -13.8412
  48   2.0000      -0.503574       -13.7029
  49   2.0000      -0.495286       -13.4774
  50   2.0000      -0.494149       -13.4465
  51   2.0000      -0.482117       -13.1191
  52   2.0000      -0.471480       -12.8296
  53   2.0000      -0.469434       -12.7740
  54   2.0000      -0.457535       -12.4502
  55   2.0000      -0.449401       -12.2288
  56   2.0000      -0.441264       -12.0074
  57   2.0000      -0.436693       -11.8830
  58   2.0000      -0.431837       -11.7509
  59   2.0000      -0.431607       -11.7446
  60   2.0000      -0.414727       -11.2853
  61   2.0000      -0.409696       -11.1484
  62   2.0000      -0.407787       -11.0964
  63   2.0000      -0.340389        -9.2624
  64   2.0000      -0.331212        -9.0127
  65   2.0000      -0.328324        -8.9342
  66   2.0000      -0.299509        -8.1500
  67   0.0000       0.033389         0.9086
  68   0.0000       0.057496         1.5646
  69   0.0000       0.117313         3.1923
  70   0.0000       0.120616         3.2821
  71   0.0000       0.126476         3.4416

MULLIKEN ATOMIC CHARGES
-----------------------
   0 S :    0.119648
   1 C :   -0.110418
   2 C :   -0.043364
   3 C :    0.018011
   4 C :   -0.190015
   5 H :    0.034371
   6 C :    0.103499
   7 H :    0.023083
   8 H :    0.028915
   9 C :   -0.119792
  10 H :    0.042061
  11 H :    0.022150
  12 C :   -0.066738
  13 H :    0.036907
  14 H :    0.026609
  15 H :    0.049041
  16 S :    0.103111
  17 C :   -0.101867
  18 C :   -0.034556
  19 C :   -0.056462
  20 C :   -0.175619
  21 H :    0.019320
  22 C :    0.110855
  23 H :    0.011781
  24 H :    0.023910
  25 C :   -0.122523
  26 H :    0.045048
  27 H :    0.021322
  28 C :   -0.001772
  29 H :    0.013655
  30 H :    0.045533
  31 H :    0.028312
  32 H :    0.023298
  33 H :    0.072686
Sum of atomic charges:   -0.0000000

LOEWDIN ATOMIC CHARGES
----------------------
   0 S :    0.410230
   1 C :   -0.176004
   2 C :   -0.059370
   3 C :   -0.058643
   4 C :   -0.205212
   5 H :    0.036157
   6 C :   -0.023573
   7 H :    0.032199
   8 H :    0.026196
   9 C :   -0.045766
  10 H :    0.030807
  11 H :    0.015938
  12 C :   -0.072058
  13 H :    0.031576
  14 H :    0.015858
  15 H :    0.036269
  16 S :    0.401358
  17 C :   -0.186616
  18 C :   -0.072652
  19 C :   -0.051618
  20 C :   -0.201801
  21 H :    0.029524
  22 C :   -0.026285
  23 H :    0.031064
  24 H :    0.020349
  25 C :   -0.045004
  26 H :    0.026002
  27 H :    0.020823
  28 C :   -0.058200
  29 H :    0.018439
  30 H :    0.031378
  31 H :    0.026544
  32 H :    0.007282
  33 H :    0.034807

  Mayer bond orders larger than 0.100000
B(  0-S ,  1-C ) :   1.1587 B(  0-S ,  4-C ) :   1.1462 B(  1-C ,  2-C ) :   1.5991
B(  1-C , 32-H ) :   0.9805 B(  2-C ,  3-C ) :   1.2239 B(  2-C ,  6-C ) :   1.0225
B(  3-C ,  4-C ) :   1.5916 B(  3-C ,  5-H ) :   0.9805 B(  4-C , 20-C ) :   1.0378
B(  6-C ,  7-H ) :   0.9500 B(  6-C ,  8-H ) :   0.9350 B(  6-C ,  9-C ) :   1.0475
B(  9-C , 10-H ) :   0.9606 B(  9-C , 11-H ) :   0.9557 B(  9-C , 12-C ) :   1.0680
B( 12-C , 13-H ) :   0.9747 B( 12-C , 14-H ) :   0.9786 B( 12-C , 15-H ) :   0.9758
B( 16-S , 17-C ) :   1.1629 B( 16-S , 20-C ) :   1.1476 B( 17-C , 18-C ) :   1.5904
B( 17-C , 20-C ) :   0.1026 B( 17-C , 33-H ) :   0.9639 B( 18-C , 19-C ) :   1.2629
B( 18-C , 21-H ) :   0.9874 B( 19-C , 20-C ) :   1.5909 B( 19-C , 22-C ) :   1.0234
B( 22-C , 23-H ) :   0.9368 B( 22-C , 24-H ) :   0.9324 B( 22-C , 25-C ) :   1.0608
B( 25-C , 26-H ) :   0.9557 B( 25-C , 27-H ) :   0.9568 B( 25-C , 28-C ) :   1.0815
B( 28-C , 29-H ) :   0.9725 B( 28-C , 30-H ) :   0.9738 B( 28-C , 31-H ) :   0.9744

Dispersion correction           -0.013980197
FINAL SINGLE POINT ENERGY     -1339.873748085249

DIPOLE MOMENT
-------------
                                X             Y             Z
Electronic contribution:     -5.14879     -11.29889     -21.29731
Nuclear contribution   :      5.18369      11.39254      21.84156
                        -----------------------------------------
Total Dipole Moment    :      0.03490       0.09365       0.54425
                        -----------------------------------------
Magnitude (a.u.)       :      0.55335
Magnitude (Debye)      :      1.40650

Rotational constants in cm-1:     0.016933     0.008078     0.007098
Rotational constants in MHz :   507.650562   242.186175   212.803409

                             ****ORCA TERMINATED NORMALLY****
TOTAL RUN TIME: 0 days 0 hours 0 minutes 20 seconds 942 msec
