                         Program Version 4.2.1 -  RELEASE  -
|  1> ! wB97X-D3 SP def2-SVP
|  2> %pal
|  3> nprocs 24
|  4> end
|  5>
|  6> * xyz 0 1
|  7> S 	 -120.013 	 66.0064 	 -41.288
|  8> C 	 -120.317 	 67.422 	 -40.368
|  9> C 	 -120.255 	 68.5954 	 -41.0607
| 10> C 	 -119.931 	 68.3052 	 -42.4382
| 11> C 	 -119.657 	 66.9562 	 -42.7414
| 12> H 	 -119.729 	 69.0024 	 -43.2659
| 13> C 	 -120.356 	 69.9682 	 -40.518
| 14> H 	 -119.941 	 70.8756 	 -41.1126
| 15> H 	 -119.683 	 69.8965 	 -39.6988
| 16> C 	 -121.822 	 70.4707 	 -40.3406
| 17> H 	 -122.26 	 70.6381 	 -41.2876
| 18> H 	 -122.407 	 69.7042 	 -39.8701
| 19> C 	 -121.944 	 71.6847 	 -39.4623
| 20> H 	 -122.985 	 72.0652 	 -39.4511
| 21> H 	 -121.812 	 71.5575 	 -38.3796
| 22> H 	 -121.235 	 72.4705 	 -39.8384
| 23> S 	 -117.934 	 65.0953 	 -43.6089
| 24> C 	 -117.767 	 64.7766 	 -45.3472
| 25> C 	 -118.566 	 65.6136 	 -46.1061
| 26> C 	 -119.322 	 66.5134 	 -45.2833
| 27> C 	 -119.084 	 66.347 	 -43.9014
| 28> H 	 -118.539 	 65.5586 	 -47.2118
| 29> C 	 -120.38 	 67.4082 	 -45.9058
| 30> H 	 -120.984 	 67.926 	 -45.1807
| 31> H 	 -120.992 	 66.7509 	 -46.503
| 32> C 	 -119.949 	 68.4955 	 -46.827
| 33> H 	 -120.822 	 69.0019 	 -47.2675
| 34> H 	 -119.57 	 68.0416 	 -47.7596
| 35> C 	 -118.82 	 69.5448 	 -46.2979
| 36> H 	 -117.949 	 68.986 	 -46.2942
| 37> H 	 -119.106 	 69.9275 	 -45.3351
| 38> H 	 -118.623 	 70.2901 	 -47.0333
| 39> H 	 -120.57 	 67.4789 	 -39.3074
| 40> H 	 -117.129 	 64.1148 	 -45.7844
| 41> *
| 42>
| 43>                          ****END OF INPUT****

CARTESIAN COORDINATES (ANGSTROEM)
---------------------------------
  S    -120.013000   66.006400  -41.288000
  C    -120.317000   67.422000  -40.368000
  C    -120.255000   68.595400  -41.060700
  C    -119.931000   68.305200  -42.438200
  C    -119.657000   66.956200  -42.741400
  H    -119.729000   69.002400  -43.265900
  C    -120.356000   69.968200  -40.518000
  H    -119.941000   70.875600  -41.112600
  H    -119.683000   69.896500  -39.698800
  C    -121.822000   70.470700  -40.340600
  H    -122.260000   70.638100  -41.287600
  H    -122.407000   69.704200  -39.870100
  C    -121.944000   71.684700  -39.462300
  H    -122.985000   72.065200  -39.451100
  H    -121.812000   71.557500  -38.379600
  H    -121.235000   72.470500  -39.838400
  S    -117.934000   65.095300  -43.608900
  C    -117.767000   64.776600  -45.347200
  C    -118.566000   65.613600  -46.106100
  C    -119.322000   66.513400  -45.283300
  C    -119.084000   66.347000  -43.901400
  H    -118.539000   65.558600  -47.211800
  C    -120.380000   67.408200  -45.905800
  H    -120.984000   67.926000  -45.180700
  H    -120.992000   66.750900  -46.503000
  C    -119.949000   68.495500  -46.827000
  H    -120.822000   69.001900  -47.267500
  H    -119.570000   68.041600  -47.759600
  C    -118.820000   69.544800  -46.297900
  H    -117.949000   68.986000  -46.294200
  H    -119.106000   69.927500  -45.335100
  H    -118.623000   70.290100  -47.033300
  H    -120.570000   67.478900  -39.307400
  H    -117.129000   64.114800  -45.784400

 Total Charge           Charge          ....    0
 Multiplicity           Mult            ....    1
 Number of Electrons    NEL             ....  134
 Basis Dimension        Dim             ....  322

ORBITAL ENERGIES
----------------

  NO   OCC          E(Eh)            E(eV)
   0   2.0000     -88.967985     -2420.9419
   1   2.0000     -88.967461     -2420.9277
   2   2.0000     -10.330307      -281.1020
   3   2.0000     -10.328049      -281.0405
   4   2.0000     -10.314153      -280.6624
   5   2.0000     -10.310585      -280.5653
   6   2.0000     -10.306909      -280.4653
   7   2.0000     -10.300391      -280.2879
   8   2.0000     -10.299654      -280.2678
   9   2.0000     -10.297443      -280.2077
  10   2.0000     -10.296616      -280.1852
  11   2.0000     -10.288177      -279.9555
  12   2.0000     -10.285707      -279.8883
  13   2.0000     -10.283538      -279.8293
  14   2.0000     -10.282758      -279.8081
  15   2.0000     -10.273772      -279.5636
  16   2.0000      -8.082704      -219.9416
  17   2.0000      -8.082259      -219.9295
  18   2.0000      -6.041195      -164.3893
  19   2.0000      -6.040828      -164.3793
  20   2.0000      -6.037206      -164.2807
  21   2.0000      -6.036737      -164.2680
  22   2.0000      -6.033461      -164.1788
  23   2.0000      -6.032969      -164.1654
  24   2.0000      -1.008276       -27.4366
  25   2.0000      -0.984527       -26.7903
  26   2.0000      -0.916027       -24.9264
  27   2.0000      -0.908501       -24.7216
  28   2.0000      -0.876097       -23.8398
  29   2.0000      -0.850434       -23.1415
  30   2.0000      -0.842497       -22.9255
  31   2.0000      -0.815843       -22.2002
  32   2.0000      -0.787409       -21.4265
  33   2.0000      -0.774974       -21.0881
  34   2.0000      -0.712747       -19.3948
  35   2.0000      -0.704043       -19.1580
  36   2.0000      -0.695325       -18.9208
  37   2.0000      -0.662599       -18.0302
  38   2.0000      -0.639373       -17.3982
  39   2.0000      -0.614720       -16.7274
  40   2.0000      -0.596726       -16.2377
  41   2.0000      -0.583656       -15.8821
  42   2.0000      -0.559224       -15.2173
  43   2.0000      -0.552245       -15.0273
  44   2.0000      -0.538650       -14.6574
  45   2.0000      -0.528743       -14.3878
  46   2.0000      -0.523692       -14.2504
  47   2.0000      -0.513024       -13.9601
  48   2.0000      -0.505642       -13.7592
  49   2.0000      -0.499408       -13.5896
  50   2.0000      -0.496029       -13.4976
  51   2.0000      -0.478825       -13.0295
  52   2.0000      -0.475874       -12.9492
  53   2.0000      -0.466432       -12.6923
  54   2.0000      -0.465145       -12.6572
  55   2.0000      -0.450495       -12.2586
  56   2.0000      -0.442557       -12.0426
  57   2.0000      -0.441177       -12.0050
  58   2.0000      -0.430763       -11.7217
  59   2.0000      -0.424515       -11.5517
  60   2.0000      -0.413301       -11.2465
  61   2.0000      -0.409998       -11.1566
  62   2.0000      -0.407077       -11.0771
  63   2.0000      -0.355537        -9.6746
  64   2.0000      -0.331894        -9.0313
  65   2.0000      -0.329482        -8.9657
  66   2.0000      -0.284267        -7.7353
  67   0.0000       0.024388         0.6636
  68   0.0000       0.072927         1.9845
  69   0.0000       0.110725         3.0130
  70   0.0000       0.121848         3.3156
  71   0.0000       0.127638         3.4732

MULLIKEN ATOMIC CHARGES
-----------------------
   0 S :    0.119968
   1 C :   -0.110832
   2 C :   -0.065221
   3 C :    0.035635
   4 C :   -0.170077
   5 H :   -0.005398
   6 C :    0.011381
   7 H :    0.038465
   8 H :    0.031479
   9 C :   -0.033465
  10 H :    0.025946
  11 H :    0.018306
  12 C :   -0.064126
  13 H :    0.033496
  14 H :    0.034418
  15 H :    0.032426
  16 S :    0.108954
  17 C :   -0.052955
  18 C :   -0.049665
  19 C :   -0.035061
  20 C :   -0.144700
  21 H :    0.036536
  22 C :    0.099820
  23 H :    0.018584
  24 H :    0.028851
  25 C :   -0.121305
  26 H :    0.026700
  27 H :    0.007956
  28 C :   -0.012982
  29 H :    0.027522
  30 H :    0.041574
  31 H :    0.027168
  32 H :    0.043097
  33 H :    0.017504
Sum of atomic charges:   -0.0000000

LOEWDIN ATOMIC CHARGES
----------------------
   0 S :    0.410629
   1 C :   -0.208051
   2 C :   -0.066820
   3 C :   -0.062164
   4 C :   -0.191553
   5 H :    0.028024
   6 C :   -0.040363
   7 H :    0.042693
   8 H :    0.030717
   9 C :   -0.034754
  10 H :    0.023190
  11 H :    0.019496
  12 C :   -0.073424
  13 H :    0.030187
  14 H :    0.026349
  15 H :    0.026466
  16 S :    0.412284
  17 C :   -0.163023
  18 C :   -0.066875
  19 C :   -0.054538
  20 C :   -0.208528
  21 H :    0.039702
  22 C :   -0.033640
  23 H :    0.027076
  24 H :    0.036781
  25 C :   -0.043225
  26 H :    0.023869
  27 H :    0.015804
  28 C :   -0.051898
  29 H :    0.020016
  30 H :    0.019590
  31 H :    0.025348
  32 H :    0.031729
  33 H :    0.008909

  Mayer bond orders larger than 0.100000
B(  0-S ,  1-C ) :   1.1406 B(  0-S ,  4-C ) :   1.1366 B(  1-C ,  2-C ) :   1.6232
B(  1-C , 32-H ) :   0.9564 B(  2-C ,  3-C ) :   1.2414 B(  2-C ,  6-C ) :   1.0112
B(  3-C ,  4-C ) :   1.5668 B(  3-C ,  5-H ) :   0.9885 B(  4-C , 20-C ) :   1.0858
B(  6-C ,  7-H ) :   0.9477 B(  6-C ,  8-H ) :   0.9486 B(  6-C ,  9-C ) :   1.0411
B(  9-C , 10-H ) :   0.9541 B(  9-C , 11-H ) :   0.9585 B(  9-C , 12-C ) :   1.0894
B( 12-C , 13-H ) :   0.9703 B( 12-C , 14-H ) :   0.9765 B( 12-C , 15-H ) :   0.9701
B( 16-S , 17-C ) :   1.1463 B( 16-S , 20-C ) :   1.1428 B( 17-C , 18-C ) :   1.6138
B( 17-C , 33-H ) :   0.9790 B( 18-C , 19-C ) :   1.2377 B( 18-C , 21-H ) :   0.9846
B( 19-C , 20-C ) :   1.5574 B( 19-C , 22-C ) :   1.0454 B( 22-C , 23-H ) :   0.9340
B( 22-C , 24-H ) :   0.9298 B( 22-C , 25-C ) :   1.0859 B( 25-C , 26-H ) :   0.9558
B( 25-C , 27-H ) :   0.9521 B( 25-C , 28-C ) :   1.0570 B( 28-C , 29-H ) :   0.9746
B( 28-C , 30-H ) :   0.9772 B( 28-C , 31-H ) :   0.9727

Dispersion correction           -0.014190663
FINAL SINGLE POINT ENERGY     -1339.860874648281

DIPOLE MOMENT
-------------
                                X             Y             Z
Electronic contribution:      9.59217     -27.78526       4.13851
Nuclear contribution   :     -9.73416      28.27156      -4.42566
                        -----------------------------------------
Total Dipole Moment    :     -0.14199       0.48630      -0.28715
                        -----------------------------------------
Magnitude (a.u.)       :      0.58232
Magnitude (Debye)      :      1.48015

Rotational constants in cm-1:     0.020288     0.008198     0.006220
Rotational constants in MHz :   608.230291   245.773675   186.469315

                             ****ORCA TERMINATED NORMALLY****
TOTAL RUN TIME: 0 days 0 hours 0 minutes 21 seconds 499 msec
