                         Program Version 4.2.1 -  RELEASE  -
|  1> ! wB97X-D3 SP def2-SVP
|  2> %pal
|  3> nprocs 24
|  4> end
|  5>
|  6> * xyz 0 1
|  7> S 	 -146.86 	 2.64821 	 13.9978
|  8> C 	 -146.813 	 2.60636 	 12.299
|  9> C 	 -145.533 	 2.80263 	 11.7756
| 10> C 	 -144.638 	 3.09493 	 12.8541
| 11> C 	 -145.206 	 3.21105 	 14.106
| 12> H 	 -143.577 	 3.20771 	 12.6929
| 13> C 	 -145.181 	 2.8341 	 10.3485
| 14> H 	 -144.384 	 3.53784 	 10.1443
| 15> H 	 -146.031 	 3.28196 	 9.86987
| 16> C 	 -144.989 	 1.46942 	 9.62848
| 17> H 	 -145.921 	 0.879358 	 9.39626
| 18> H 	 -144.626 	 1.70779 	 8.65058
| 19> C 	 -143.767 	 0.661862 	 10.0665
| 20> H 	 -143.862 	 0.257386 	 11.068
| 21> H 	 -143.609 	 -0.235199 	 9.48505
| 22> H 	 -142.889 	 1.31279 	 9.99883
| 23> S 	 -142.831 	 3.27177 	 15.5352
| 24> C 	 -142.865 	 3.76321 	 17.1118
| 25> C 	 -144 	 4.45551 	 17.375
| 26> C 	 -144.997 	 4.5063 	 16.3519
| 27> C 	 -144.561 	 3.73726 	 15.2793
| 28> H 	 -144.069 	 5.04175 	 18.3261
| 29> C 	 -146.298 	 5.33237 	 16.5489
| 30> H 	 -146.564 	 5.35127 	 17.6304
| 31> H 	 -147.129 	 4.73982 	 15.9767
| 32> C 	 -146.192 	 6.85723 	 16.102
| 33> H 	 -145.941 	 6.88002 	 15.0376
| 34> H 	 -145.426 	 7.40918 	 16.6578
| 35> C 	 -147.463 	 7.73577 	 16.2935
| 36> H 	 -147.612 	 7.96569 	 17.2777
| 37> H 	 -148.331 	 7.28685 	 15.8048
| 38> H 	 -147.369 	 8.67275 	 15.7854
| 39> H 	 -147.652 	 2.23104 	 11.8088
| 40> H 	 -142.105 	 3.71611 	 17.8544
| 41> *
| 42>
| 43>                          ****END OF INPUT****

CARTESIAN COORDINATES (ANGSTROEM)
---------------------------------
  S    -146.860000    2.648210   13.997800
  C    -146.813000    2.606360   12.299000
  C    -145.533000    2.802630   11.775600
  C    -144.638000    3.094930   12.854100
  C    -145.206000    3.211050   14.106000
  H    -143.577000    3.207710   12.692900
  C    -145.181000    2.834100   10.348500
  H    -144.384000    3.537840   10.144300
  H    -146.031000    3.281960    9.869870
  C    -144.989000    1.469420    9.628480
  H    -145.921000    0.879358    9.396260
  H    -144.626000    1.707790    8.650580
  C    -143.767000    0.661862   10.066500
  H    -143.862000    0.257386   11.068000
  H    -143.609000   -0.235199    9.485050
  H    -142.889000    1.312790    9.998830
  S    -142.831000    3.271770   15.535200
  C    -142.865000    3.763210   17.111800
  C    -144.000000    4.455510   17.375000
  C    -144.997000    4.506300   16.351900
  C    -144.561000    3.737260   15.279300
  H    -144.069000    5.041750   18.326100
  C    -146.298000    5.332370   16.548900
  H    -146.564000    5.351270   17.630400
  H    -147.129000    4.739820   15.976700
  C    -146.192000    6.857230   16.102000
  H    -145.941000    6.880020   15.037600
  H    -145.426000    7.409180   16.657800
  C    -147.463000    7.735770   16.293500
  H    -147.612000    7.965690   17.277700
  H    -148.331000    7.286850   15.804800
  H    -147.369000    8.672750   15.785400
  H    -147.652000    2.231040   11.808800
  H    -142.105000    3.716110   17.854400

 Total Charge           Charge          ....    0
 Multiplicity           Mult            ....    1
 Number of Electrons    NEL             ....  134
 Basis Dimension        Dim             ....  322

ORBITAL ENERGIES
----------------

  NO   OCC          E(Eh)            E(eV)
   0   2.0000     -88.966064     -2420.8897
   1   2.0000     -88.962569     -2420.7946
   2   2.0000     -10.329506      -281.0801
   3   2.0000     -10.325806      -280.9795
   4   2.0000     -10.308628      -280.5120
   5   2.0000     -10.306535      -280.4551
   6   2.0000     -10.305784      -280.4346
   7   2.0000     -10.305398      -280.4241
   8   2.0000     -10.298996      -280.2499
   9   2.0000     -10.290482      -280.0183
  10   2.0000     -10.289954      -280.0039
  11   2.0000     -10.289180      -279.9828
  12   2.0000     -10.288707      -279.9700
  13   2.0000     -10.286992      -279.9233
  14   2.0000     -10.273932      -279.5679
  15   2.0000     -10.268445      -279.4186
  16   2.0000      -8.081383      -219.9056
  17   2.0000      -8.078555      -219.8287
  18   2.0000      -6.039785      -164.3509
  19   2.0000      -6.036990      -164.2748
  20   2.0000      -6.035780      -164.2419
  21   2.0000      -6.033065      -164.1680
  22   2.0000      -6.032268      -164.1464
  23   2.0000      -6.029119      -164.0607
  24   2.0000      -1.010860       -27.5069
  25   2.0000      -0.991767       -26.9873
  26   2.0000      -0.913810       -24.8660
  27   2.0000      -0.896624       -24.3984
  28   2.0000      -0.872670       -23.7466
  29   2.0000      -0.854188       -23.2436
  30   2.0000      -0.849774       -23.1235
  31   2.0000      -0.810925       -22.0664
  32   2.0000      -0.785512       -21.3749
  33   2.0000      -0.773664       -21.0525
  34   2.0000      -0.706263       -19.2184
  35   2.0000      -0.702948       -19.1282
  36   2.0000      -0.691019       -18.8036
  37   2.0000      -0.662354       -18.0236
  38   2.0000      -0.640041       -17.4164
  39   2.0000      -0.611143       -16.6301
  40   2.0000      -0.591461       -16.0945
  41   2.0000      -0.574596       -15.6355
  42   2.0000      -0.562894       -15.3171
  43   2.0000      -0.553084       -15.0502
  44   2.0000      -0.543009       -14.7760
  45   2.0000      -0.517598       -14.0846
  46   2.0000      -0.515792       -14.0354
  47   2.0000      -0.513839       -13.9823
  48   2.0000      -0.506811       -13.7910
  49   2.0000      -0.499325       -13.5873
  50   2.0000      -0.491235       -13.3672
  51   2.0000      -0.481606       -13.1052
  52   2.0000      -0.472323       -12.8526
  53   2.0000      -0.466069       -12.6824
  54   2.0000      -0.457869       -12.4593
  55   2.0000      -0.447110       -12.1665
  56   2.0000      -0.442734       -12.0474
  57   2.0000      -0.440494       -11.9865
  58   2.0000      -0.427954       -11.6452
  59   2.0000      -0.422582       -11.4990
  60   2.0000      -0.419845       -11.4246
  61   2.0000      -0.415823       -11.3151
  62   2.0000      -0.409708       -11.1487
  63   2.0000      -0.357312        -9.7229
  64   2.0000      -0.331003        -9.0071
  65   2.0000      -0.325022        -8.8443
  66   2.0000      -0.279561        -7.6072
  67   0.0000       0.023676         0.6443
  68   0.0000       0.077694         2.1142
  69   0.0000       0.103115         2.8059
  70   0.0000       0.121332         3.3016
  71   0.0000       0.138266         3.7624

MULLIKEN ATOMIC CHARGES
-----------------------
   0 S :    0.121503
   1 C :   -0.116209
   2 C :   -0.061593
   3 C :   -0.006440
   4 C :   -0.114307
   5 H :    0.007745
   6 C :    0.077012
   7 H :    0.024223
   8 H :    0.021170
   9 C :   -0.075436
  10 H :    0.040431
  11 H :    0.016407
  12 C :   -0.051143
  13 H :    0.033446
  14 H :    0.029489
  15 H :    0.028551
  16 S :    0.103287
  17 C :   -0.044588
  18 C :   -0.080417
  19 C :   -0.021672
  20 C :   -0.174561
  21 H :    0.024129
  22 C :    0.033208
  23 H :    0.031674
  24 H :    0.044415
  25 C :   -0.085906
  26 H :    0.038402
  27 H :    0.031120
  28 C :   -0.012519
  29 H :    0.015615
  30 H :    0.029289
  31 H :    0.023169
  32 H :    0.028354
  33 H :    0.042154
Sum of atomic charges:    0.0000000

LOEWDIN ATOMIC CHARGES
----------------------
   0 S :    0.435282
   1 C :   -0.202079
   2 C :   -0.061246
   3 C :   -0.065493
   4 C :   -0.198961
   5 H :    0.023881
   6 C :   -0.033758
   7 H :    0.032989
   8 H :    0.037399
   9 C :   -0.044501
  10 H :    0.030036
  11 H :    0.023450
  12 C :   -0.066009
  13 H :    0.021187
  14 H :    0.025704
  15 H :    0.025944
  16 S :    0.421415
  17 C :   -0.211119
  18 C :   -0.084984
  19 C :   -0.058144
  20 C :   -0.175863
  21 H :    0.033020
  22 C :   -0.036980
  23 H :    0.031738
  24 H :    0.034345
  25 C :   -0.037360
  26 H :    0.026199
  27 H :    0.025106
  28 C :   -0.057939
  29 H :    0.010485
  30 H :    0.026824
  31 H :    0.027287
  32 H :    0.012291
  33 H :    0.029854

  Mayer bond orders larger than 0.100000
B(  0-S ,  1-C ) :   1.1690 B(  0-S ,  4-C ) :   1.1486 B(  1-C ,  2-C ) :   1.5554
B(  1-C , 32-H ) :   0.9750 B(  2-C ,  3-C ) :   1.2840 B(  2-C ,  6-C ) :   1.0312
B(  3-C ,  4-C ) :   1.5197 B(  3-C ,  5-H ) :   0.9942 B(  4-C , 20-C ) :   1.0916
B(  6-C ,  7-H ) :   0.9425 B(  6-C ,  8-H ) :   0.9288 B(  6-C ,  9-C ) :   1.0815
B(  9-C , 10-H ) :   0.9582 B(  9-C , 11-H ) :   0.9517 B(  9-C , 12-C ) :   1.0669
B( 12-C , 13-H ) :   0.9764 B( 12-C , 14-H ) :   0.9735 B( 12-C , 15-H ) :   0.9754
B( 16-S , 17-C ) :   1.1613 B( 16-S , 20-C ) :   1.1292 B( 17-C , 18-C ) :   1.6194
B( 17-C , 33-H ) :   0.9668 B( 18-C , 19-C ) :   1.2428 B( 18-C , 21-H ) :   0.9780
B( 19-C , 20-C ) :   1.5731 B( 19-C , 22-C ) :   1.0336 B( 22-C , 23-H ) :   0.9395
B( 22-C , 24-H ) :   0.9331 B( 22-C , 25-C ) :   1.0534 B( 25-C , 26-H ) :   0.9599
B( 25-C , 27-H ) :   0.9584 B( 25-C , 28-C ) :   1.0872 B( 28-C , 29-H ) :   0.9774
B( 28-C , 30-H ) :   0.9745 B( 28-C , 31-H ) :   0.9715

Dispersion correction           -0.013744056
FINAL SINGLE POINT ENERGY     -1339.862837039223

DIPOLE MOMENT
-------------
                                X             Y             Z
Electronic contribution:      4.81087      -7.70254      10.64526
Nuclear contribution   :     -4.83177       7.99141     -10.88956
                        -----------------------------------------
Total Dipole Moment    :     -0.02090       0.28887      -0.24430
                        -----------------------------------------
Magnitude (a.u.)       :      0.37890
Magnitude (Debye)      :      0.96309

Rotational constants in cm-1:     0.020168     0.007931     0.006359
Rotational constants in MHz :   604.611163   237.764770   190.635747

                             ****ORCA TERMINATED NORMALLY****
TOTAL RUN TIME: 0 days 0 hours 0 minutes 22 seconds 45 msec
