                         Program Version 4.2.1 -  RELEASE  -
|  1> ! wB97X-D3 SP def2-SVP
|  2> %pal
|  3> nprocs 24
|  4> end
|  5>
|  6> * xyz 0 1
|  7> S 	 -121.482 	 44.8035 	 -31.6796
|  8> C 	 -120.883 	 43.8737 	 -30.3083
|  9> C 	 -119.683 	 44.4548 	 -29.7771
| 10> C 	 -119.509 	 45.7121 	 -30.3522
| 11> C 	 -120.302 	 45.9746 	 -31.424
| 12> H 	 -118.678 	 46.3393 	 -30.1979
| 13> C 	 -118.781 	 43.787 	 -28.7199
| 14> H 	 -118.531 	 42.7291 	 -29.0153
| 15> H 	 -119.271 	 43.6258 	 -27.7624
| 16> C 	 -117.356 	 44.3541 	 -28.5043
| 17> H 	 -117.517 	 45.3785 	 -28.2437
| 18> H 	 -116.922 	 43.7878 	 -27.711
| 19> C 	 -116.321 	 44.1949 	 -29.6488
| 20> H 	 -116.184 	 43.1239 	 -29.7914
| 21> H 	 -116.713 	 44.6054 	 -30.598
| 22> H 	 -115.31 	 44.5803 	 -29.5324
| 23> S 	 -120.081 	 46.6718 	 -34.1661
| 24> C 	 -119.727 	 48.2964 	 -34.6385
| 25> C 	 -119.504 	 49.0749 	 -33.5342
| 26> C 	 -119.717 	 48.4247 	 -32.2588
| 27> C 	 -120.054 	 47.0685 	 -32.4066
| 28> H 	 -119.148 	 50.0468 	 -33.6452
| 29> C 	 -119.592 	 49.1606 	 -30.9168
| 30> H 	 -119.269 	 50.1677 	 -31.1894
| 31> H 	 -118.839 	 48.6229 	 -30.3331
| 32> C 	 -120.867 	 49.2938 	 -30.0705
| 33> H 	 -120.449 	 49.9936 	 -29.3316
| 34> H 	 -121.086 	 48.4078 	 -29.4889
| 35> C 	 -122.04 	 50.0161 	 -30.8135
| 36> H 	 -122.49 	 49.2886 	 -31.5136
| 37> H 	 -121.728 	 50.916 	 -31.362
| 38> H 	 -122.834 	 50.2 	 -30.0395
| 39> H 	 -121.205 	 42.8952 	 -29.9922
| 40> H 	 -119.586 	 48.6119 	 -35.6518
| 41> *
| 42>
| 43>                          ****END OF INPUT****

CARTESIAN COORDINATES (ANGSTROEM)
---------------------------------
  S    -121.482000   44.803500  -31.679600
  C    -120.883000   43.873700  -30.308300
  C    -119.683000   44.454800  -29.777100
  C    -119.509000   45.712100  -30.352200
  C    -120.302000   45.974600  -31.424000
  H    -118.678000   46.339300  -30.197900
  C    -118.781000   43.787000  -28.719900
  H    -118.531000   42.729100  -29.015300
  H    -119.271000   43.625800  -27.762400
  C    -117.356000   44.354100  -28.504300
  H    -117.517000   45.378500  -28.243700
  H    -116.922000   43.787800  -27.711000
  C    -116.321000   44.194900  -29.648800
  H    -116.184000   43.123900  -29.791400
  H    -116.713000   44.605400  -30.598000
  H    -115.310000   44.580300  -29.532400
  S    -120.081000   46.671800  -34.166100
  C    -119.727000   48.296400  -34.638500
  C    -119.504000   49.074900  -33.534200
  C    -119.717000   48.424700  -32.258800
  C    -120.054000   47.068500  -32.406600
  H    -119.148000   50.046800  -33.645200
  C    -119.592000   49.160600  -30.916800
  H    -119.269000   50.167700  -31.189400
  H    -118.839000   48.622900  -30.333100
  C    -120.867000   49.293800  -30.070500
  H    -120.449000   49.993600  -29.331600
  H    -121.086000   48.407800  -29.488900
  C    -122.040000   50.016100  -30.813500
  H    -122.490000   49.288600  -31.513600
  H    -121.728000   50.916000  -31.362000
  H    -122.834000   50.200000  -30.039500
  H    -121.205000   42.895200  -29.992200
  H    -119.586000   48.611900  -35.651800

 Total Charge           Charge          ....    0
 Multiplicity           Mult            ....    1
 Number of Electrons    NEL             ....  134
 Basis Dimension        Dim             ....  322

ORBITAL ENERGIES
----------------

  NO   OCC          E(Eh)            E(eV)
   0   2.0000     -88.973117     -2421.0816
   1   2.0000     -88.962795     -2420.8007
   2   2.0000     -10.332210      -281.1537
   3   2.0000     -10.325958      -280.9836
   4   2.0000     -10.316048      -280.7139
   5   2.0000     -10.313731      -280.6509
   6   2.0000     -10.308639      -280.5123
   7   2.0000     -10.303775      -280.3800
   8   2.0000     -10.301827      -280.3270
   9   2.0000     -10.293187      -280.0919
  10   2.0000     -10.288517      -279.9648
  11   2.0000     -10.287750      -279.9439
  12   2.0000     -10.285647      -279.8867
  13   2.0000     -10.284845      -279.8649
  14   2.0000     -10.282259      -279.7945
  15   2.0000     -10.279843      -279.7288
  16   2.0000      -8.088380      -220.0960
  17   2.0000      -8.077114      -219.7895
  18   2.0000      -6.046653      -164.5378
  19   2.0000      -6.042727      -164.4309
  20   2.0000      -6.039437      -164.3414
  21   2.0000      -6.035703      -164.2398
  22   2.0000      -6.031597      -164.1281
  23   2.0000      -6.027909      -164.0277
  24   2.0000      -1.010699       -27.5025
  25   2.0000      -0.982033       -26.7225
  26   2.0000      -0.910703       -24.7815
  27   2.0000      -0.904586       -24.6150
  28   2.0000      -0.864331       -23.5196
  29   2.0000      -0.852941       -23.2097
  30   2.0000      -0.838985       -22.8299
  31   2.0000      -0.813710       -22.1422
  32   2.0000      -0.785291       -21.3689
  33   2.0000      -0.773763       -21.0552
  34   2.0000      -0.709122       -19.2962
  35   2.0000      -0.697170       -18.9710
  36   2.0000      -0.685132       -18.6434
  37   2.0000      -0.659673       -17.9506
  38   2.0000      -0.642475       -17.4826
  39   2.0000      -0.629714       -17.1354
  40   2.0000      -0.585466       -15.9313
  41   2.0000      -0.571951       -15.5636
  42   2.0000      -0.559701       -15.2302
  43   2.0000      -0.551714       -15.0129
  44   2.0000      -0.544403       -14.8140
  45   2.0000      -0.534605       -14.5473
  46   2.0000      -0.513566       -13.9748
  47   2.0000      -0.506484       -13.7821
  48   2.0000      -0.500148       -13.6097
  49   2.0000      -0.488666       -13.2973
  50   2.0000      -0.487176       -13.2567
  51   2.0000      -0.480235       -13.0679
  52   2.0000      -0.475099       -12.9281
  53   2.0000      -0.465326       -12.6622
  54   2.0000      -0.462622       -12.5886
  55   2.0000      -0.455186       -12.3862
  56   2.0000      -0.445675       -12.1274
  57   2.0000      -0.439231       -11.9521
  58   2.0000      -0.429992       -11.7007
  59   2.0000      -0.428719       -11.6660
  60   2.0000      -0.425154       -11.5690
  61   2.0000      -0.408848       -11.1253
  62   2.0000      -0.400770       -10.9055
  63   2.0000      -0.347937        -9.4679
  64   2.0000      -0.336827        -9.1655
  65   2.0000      -0.327566        -8.9135
  66   2.0000      -0.286454        -7.7948
  67   0.0000       0.026373         0.7176
  68   0.0000       0.071154         1.9362
  69   0.0000       0.114668         3.1203
  70   0.0000       0.122822         3.3422
  71   0.0000       0.126801         3.4504

MULLIKEN ATOMIC CHARGES
-----------------------
   0 S :    0.138780
   1 C :   -0.116933
   2 C :   -0.078422
   3 C :    0.031105
   4 C :   -0.138426
   5 H :   -0.010182
   6 C :    0.027995
   7 H :    0.027656
   8 H :    0.046908
   9 C :   -0.064960
  10 H :    0.028766
  11 H :    0.026887
  12 C :   -0.061434
  13 H :    0.021110
  14 H :    0.038643
  15 H :    0.041309
  16 S :    0.088046
  17 C :   -0.076770
  18 C :   -0.017132
  19 C :   -0.059764
  20 C :   -0.153656
  21 H :   -0.007051
  22 C :    0.064232
  23 H :    0.010076
  24 H :    0.035828
  25 C :   -0.072064
  26 H :    0.025687
  27 H :    0.039774
  28 C :   -0.063434
  29 H :    0.050174
  30 H :    0.039550
  31 H :    0.044233
  32 H :    0.039528
  33 H :    0.053943
Sum of atomic charges:   -0.0000000

LOEWDIN ATOMIC CHARGES
----------------------
   0 S :    0.448775
   1 C :   -0.202974
   2 C :   -0.051505
   3 C :   -0.070533
   4 C :   -0.213930
   5 H :    0.022074
   6 C :   -0.035789
   7 H :    0.036336
   8 H :    0.035769
   9 C :   -0.038289
  10 H :    0.015735
  11 H :    0.026349
  12 C :   -0.069780
  13 H :    0.024148
  14 H :    0.026657
  15 H :    0.028616
  16 S :    0.385886
  17 C :   -0.186231
  18 C :   -0.070855
  19 C :   -0.060173
  20 C :   -0.181842
  21 H :    0.019212
  22 C :   -0.030644
  23 H :    0.027317
  24 H :    0.031329
  25 C :   -0.042575
  26 H :    0.026851
  27 H :    0.024774
  28 C :   -0.068609
  29 H :    0.030918
  30 H :    0.027410
  31 H :    0.033428
  32 H :    0.022942
  33 H :    0.029201

  Mayer bond orders larger than 0.100000
B(  0-S ,  1-C ) :   1.1561 B(  0-S ,  4-C ) :   1.1844 B(  1-C ,  2-C ) :   1.5658
B(  1-C ,  4-C ) :   0.1071 B(  1-C , 32-H ) :   0.9726 B(  2-C ,  3-C ) :   1.3060
B(  2-C ,  6-C ) :   1.0003 B(  3-C ,  4-C ) :   1.5331 B(  3-C ,  5-H ) :   0.9865
B(  4-C , 20-C ) :   1.0309 B(  6-C ,  7-H ) :   0.9422 B(  6-C ,  8-H ) :   0.9419
B(  6-C ,  9-C ) :   1.0824 B(  9-C , 10-H ) :   0.9527 B(  9-C , 11-H ) :   0.9540
B(  9-C , 12-C ) :   1.0711 B( 12-C , 13-H ) :   0.9716 B( 12-C , 14-H ) :   0.9778
B( 12-C , 15-H ) :   0.9768 B( 16-S , 17-C ) :   1.1547 B( 16-S , 20-C ) :   1.1354
B( 17-C , 18-C ) :   1.6010 B( 17-C , 33-H ) :   0.9693 B( 18-C , 19-C ) :   1.2498
B( 18-C , 21-H ) :   0.9964 B( 19-C , 20-C ) :   1.5841 B( 19-C , 22-C ) :   1.0315
B( 22-C , 23-H ) :   0.9328 B( 22-C , 24-H ) :   0.9324 B( 22-C , 25-C ) :   1.0801
B( 25-C , 26-H ) :   0.9555 B( 25-C , 27-H ) :   0.9545 B( 25-C , 28-C ) :   1.0651
B( 28-C , 29-H ) :   0.9741 B( 28-C , 30-H ) :   0.9752 B( 28-C , 31-H ) :   0.9747

Dispersion correction           -0.014989759
FINAL SINGLE POINT ENERGY     -1339.873535629061

DIPOLE MOMENT
-------------
                                X             Y             Z
Electronic contribution:    -10.77943      -6.55032     -18.42150
Nuclear contribution   :     11.23588       6.66261      18.85950
                        -----------------------------------------
Total Dipole Moment    :      0.45645       0.11229       0.43799
                        -----------------------------------------
Magnitude (a.u.)       :      0.64249
Magnitude (Debye)      :      1.63309

Rotational constants in cm-1:     0.018119     0.008836     0.008221
Rotational constants in MHz :   543.207585   264.899846   246.460660

                             ****ORCA TERMINATED NORMALLY****
TOTAL RUN TIME: 0 days 0 hours 0 minutes 21 seconds 49 msec
