                         Program Version 4.2.1 -  RELEASE  -
|  1> ! wB97X-D3 SP def2-SVP
|  2> %pal
|  3> nprocs 24
|  4> end
|  5>
|  6> * xyz 0 1
|  7> S 	 -69.2574 	 -44.3662 	 -94.4779
|  8> C 	 -68.8829 	 -42.6708 	 -94.4882
|  9> C 	 -69.9876 	 -41.8787 	 -94.8769
| 10> C 	 -71.1301 	 -42.6965 	 -95.1858
| 11> C 	 -70.8787 	 -44.0916 	 -95.1009
| 12> H 	 -72.0313 	 -42.2943 	 -95.587
| 13> C 	 -69.9882 	 -40.2894 	 -95.0337
| 14> H 	 -69.2336 	 -39.9146 	 -94.3652
| 15> H 	 -70.9738 	 -39.957 	 -94.7192
| 16> C 	 -69.6394 	 -39.8146 	 -96.4501
| 17> H 	 -69.4576 	 -38.7633 	 -96.4467
| 18> H 	 -68.6683 	 -40.2114 	 -96.8678
| 19> C 	 -70.682 	 -40.1921 	 -97.5063
| 20> H 	 -70.4584 	 -39.8717 	 -98.4944
| 21> H 	 -70.7948 	 -41.2853 	 -97.5661
| 22> H 	 -71.7149 	 -39.8248 	 -97.2104
| 23> S 	 -70.9534 	 -46.251 	 -96.9097
| 24> C 	 -72.3835 	 -47.206 	 -97.1468
| 25> C 	 -73.3958 	 -46.7426 	 -96.2959
| 26> C 	 -73.0153 	 -45.5871 	 -95.5141
| 27> C 	 -71.6706 	 -45.215 	 -95.616
| 28> H 	 -74.3426 	 -47.2623 	 -96.4629
| 29> C 	 -73.9424 	 -44.9659 	 -94.5059
| 30> H 	 -74.8281 	 -44.7061 	 -95.0018
| 31> H 	 -73.6064 	 -43.9227 	 -94.43
| 32> C 	 -74.033 	 -45.7159 	 -93.2179
| 33> H 	 -74.5936 	 -44.9849 	 -92.6765
| 34> H 	 -73.1018 	 -45.8539 	 -92.6455
| 35> C 	 -74.9423 	 -46.9647 	 -93.2322
| 36> H 	 -75.3301 	 -47.2207 	 -92.3224
| 37> H 	 -74.3982 	 -47.7833 	 -93.6771
| 38> H 	 -75.8015 	 -46.829 	 -93.8916
| 39> H 	 -67.9219 	 -42.3129 	 -94.1005
| 40> H 	 -72.3841 	 -48.0973 	 -97.7785
| 41> *
| 42>
| 43>                          ****END OF INPUT****

CARTESIAN COORDINATES (ANGSTROEM)
---------------------------------
  S    -69.257400  -44.366200  -94.477900
  C    -68.882900  -42.670800  -94.488200
  C    -69.987600  -41.878700  -94.876900
  C    -71.130100  -42.696500  -95.185800
  C    -70.878700  -44.091600  -95.100900
  H    -72.031300  -42.294300  -95.587000
  C    -69.988200  -40.289400  -95.033700
  H    -69.233600  -39.914600  -94.365200
  H    -70.973800  -39.957000  -94.719200
  C    -69.639400  -39.814600  -96.450100
  H    -69.457600  -38.763300  -96.446700
  H    -68.668300  -40.211400  -96.867800
  C    -70.682000  -40.192100  -97.506300
  H    -70.458400  -39.871700  -98.494400
  H    -70.794800  -41.285300  -97.566100
  H    -71.714900  -39.824800  -97.210400
  S    -70.953400  -46.251000  -96.909700
  C    -72.383500  -47.206000  -97.146800
  C    -73.395800  -46.742600  -96.295900
  C    -73.015300  -45.587100  -95.514100
  C    -71.670600  -45.215000  -95.616000
  H    -74.342600  -47.262300  -96.462900
  C    -73.942400  -44.965900  -94.505900
  H    -74.828100  -44.706100  -95.001800
  H    -73.606400  -43.922700  -94.430000
  C    -74.033000  -45.715900  -93.217900
  H    -74.593600  -44.984900  -92.676500
  H    -73.101800  -45.853900  -92.645500
  C    -74.942300  -46.964700  -93.232200
  H    -75.330100  -47.220700  -92.322400
  H    -74.398200  -47.783300  -93.677100
  H    -75.801500  -46.829000  -93.891600
  H    -67.921900  -42.312900  -94.100500
  H    -72.384100  -48.097300  -97.778500

 Total Charge           Charge          ....    0
 Multiplicity           Mult            ....    1
 Number of Electrons    NEL             ....  134
 Basis Dimension        Dim             ....  322

ORBITAL ENERGIES
----------------

  NO   OCC          E(Eh)            E(eV)
   0   2.0000     -88.969781     -2420.9908
   1   2.0000     -88.958805     -2420.6921
   2   2.0000     -10.337100      -281.2868
   3   2.0000     -10.330946      -281.1193
   4   2.0000     -10.319981      -280.8209
   5   2.0000     -10.319728      -280.8141
   6   2.0000     -10.311138      -280.5803
   7   2.0000     -10.304326      -280.3950
   8   2.0000     -10.301289      -280.3123
   9   2.0000     -10.300846      -280.3003
  10   2.0000     -10.296873      -280.1922
  11   2.0000     -10.288850      -279.9738
  12   2.0000     -10.281694      -279.7791
  13   2.0000     -10.281264      -279.7674
  14   2.0000     -10.277149      -279.6554
  15   2.0000     -10.267368      -279.3893
  16   2.0000      -8.084337      -219.9860
  17   2.0000      -8.073169      -219.6821
  18   2.0000      -6.042748      -164.4315
  19   2.0000      -6.038705      -164.3215
  20   2.0000      -6.035381      -164.2311
  21   2.0000      -6.031694      -164.1307
  22   2.0000      -6.027521      -164.0172
  23   2.0000      -6.024121      -163.9247
  24   2.0000      -0.998229       -27.1632
  25   2.0000      -0.976945       -26.5840
  26   2.0000      -0.912917       -24.8417
  27   2.0000      -0.906619       -24.6704
  28   2.0000      -0.864490       -23.5240
  29   2.0000      -0.846529       -23.0352
  30   2.0000      -0.840161       -22.8620
  31   2.0000      -0.809957       -22.0401
  32   2.0000      -0.787242       -21.4220
  33   2.0000      -0.774322       -21.0704
  34   2.0000      -0.708990       -19.2926
  35   2.0000      -0.698667       -19.0117
  36   2.0000      -0.692853       -18.8535
  37   2.0000      -0.657136       -17.8816
  38   2.0000      -0.641114       -17.4456
  39   2.0000      -0.616912       -16.7870
  40   2.0000      -0.594625       -16.1806
  41   2.0000      -0.567478       -15.4419
  42   2.0000      -0.554282       -15.0828
  43   2.0000      -0.548643       -14.9293
  44   2.0000      -0.541241       -14.7279
  45   2.0000      -0.540222       -14.7002
  46   2.0000      -0.518050       -14.0969
  47   2.0000      -0.513300       -13.9676
  48   2.0000      -0.502020       -13.6607
  49   2.0000      -0.495134       -13.4733
  50   2.0000      -0.482403       -13.1269
  51   2.0000      -0.480715       -13.0809
  52   2.0000      -0.474065       -12.9000
  53   2.0000      -0.464366       -12.6360
  54   2.0000      -0.459478       -12.5030
  55   2.0000      -0.446108       -12.1392
  56   2.0000      -0.443025       -12.0553
  57   2.0000      -0.437658       -11.9093
  58   2.0000      -0.431620       -11.7450
  59   2.0000      -0.431186       -11.7332
  60   2.0000      -0.410031       -11.1575
  61   2.0000      -0.408904       -11.1268
  62   2.0000      -0.400269       -10.8919
  63   2.0000      -0.344525        -9.3750
  64   2.0000      -0.332414        -9.0454
  65   2.0000      -0.325107        -8.8466
  66   2.0000      -0.291258        -7.9255
  67   0.0000       0.026061         0.7091
  68   0.0000       0.065293         1.7767
  69   0.0000       0.114364         3.1120
  70   0.0000       0.120523         3.2796
  71   0.0000       0.130602         3.5539

MULLIKEN ATOMIC CHARGES
-----------------------
   0 S :    0.122767
   1 C :   -0.136115
   2 C :   -0.120979
   3 C :    0.063231
   4 C :   -0.185316
   5 H :    0.007561
   6 C :    0.094653
   7 H :    0.023486
   8 H :    0.029625
   9 C :   -0.058092
  10 H :    0.026116
  11 H :    0.031822
  12 C :   -0.071837
  13 H :    0.030340
  14 H :    0.044020
  15 H :    0.023904
  16 S :    0.084494
  17 C :   -0.112735
  18 C :   -0.047775
  19 C :   -0.072195
  20 C :   -0.122029
  21 H :    0.029743
  22 C :    0.100188
  23 H :    0.001587
  24 H :   -0.002098
  25 C :   -0.033072
  26 H :    0.015931
  27 H :    0.044082
  28 C :   -0.001227
  29 H :    0.016170
  30 H :    0.031344
  31 H :    0.011197
  32 H :    0.059379
  33 H :    0.071827
Sum of atomic charges:   -0.0000000

LOEWDIN ATOMIC CHARGES
----------------------
   0 S :    0.422795
   1 C :   -0.206682
   2 C :   -0.060535
   3 C :   -0.056938
   4 C :   -0.198177
   5 H :    0.024053
   6 C :   -0.017609
   7 H :    0.029450
   8 H :    0.029767
   9 C :   -0.043531
  10 H :    0.019199
  11 H :    0.032444
  12 C :   -0.069482
  13 H :    0.020698
  14 H :    0.028737
  15 H :    0.024054
  16 S :    0.385200
  17 C :   -0.187845
  18 C :   -0.084676
  19 C :   -0.053994
  20 C :   -0.193004
  21 H :    0.035804
  22 C :   -0.036883
  23 H :    0.025694
  24 H :    0.033539
  25 C :   -0.033772
  26 H :    0.025177
  27 H :    0.033673
  28 C :   -0.053629
  29 H :    0.013242
  30 H :    0.024161
  31 H :    0.024932
  32 H :    0.029800
  33 H :    0.034336

  Mayer bond orders larger than 0.100000
B(  0-S ,  1-C ) :   1.1632 B(  0-S ,  4-C ) :   1.1713 B(  1-C ,  2-C ) :   1.5772
B(  1-C ,  4-C ) :   0.1060 B(  1-C , 32-H ) :   0.9673 B(  2-C ,  3-C ) :   1.2831
B(  2-C ,  6-C ) :   1.0066 B(  3-C ,  4-C ) :   1.5270 B(  3-C ,  5-H ) :   0.9874
B(  4-C , 20-C ) :   1.0430 B(  6-C ,  7-H ) :   0.9410 B(  6-C ,  8-H ) :   0.9468
B(  6-C ,  9-C ) :   1.0708 B(  9-C , 10-H ) :   0.9567 B(  9-C , 11-H ) :   0.9530
B(  9-C , 12-C ) :   1.0775 B( 12-C , 13-H ) :   0.9730 B( 12-C , 14-H ) :   0.9720
B( 12-C , 15-H ) :   0.9746 B( 16-S , 17-C ) :   1.1764 B( 16-S , 20-C ) :   1.1225
B( 17-C , 18-C ) :   1.5867 B( 17-C , 20-C ) :   0.1042 B( 17-C , 33-H ) :   0.9645
B( 18-C , 19-C ) :   1.2288 B( 18-C , 21-H ) :   0.9934 B( 19-C , 20-C ) :   1.5858
B( 19-C , 22-C ) :   1.0540 B( 22-C , 23-H ) :   0.9176 B( 22-C , 24-H ) :   0.9169
B( 22-C , 25-C ) :   1.0706 B( 25-C , 26-H ) :   0.9467 B( 25-C , 27-H ) :   0.9563
B( 25-C , 28-C ) :   1.0817 B( 28-C , 29-H ) :   0.9734 B( 28-C , 30-H ) :   0.9720
B( 28-C , 31-H ) :   0.9705

Dispersion correction           -0.014645976
FINAL SINGLE POINT ENERGY     -1339.868751791360

DIPOLE MOMENT
-------------
                                X             Y             Z
Electronic contribution:     13.82684     -13.19418      -2.65983
Nuclear contribution   :    -14.21032      13.61694       2.70267
                        -----------------------------------------
Total Dipole Moment    :     -0.38349       0.42276       0.04284
                        -----------------------------------------
Magnitude (a.u.)       :      0.57239
Magnitude (Debye)      :      1.45489

Rotational constants in cm-1:     0.020763     0.007705     0.007244
Rotational constants in MHz :   622.462507   230.979772   217.162237

                             ****ORCA TERMINATED NORMALLY****
TOTAL RUN TIME: 0 days 0 hours 0 minutes 21 seconds 451 msec
