                         Program Version 4.2.1 -  RELEASE  -
|  1> ! wB97X-D3 SP def2-SVP
|  2> %pal
|  3> nprocs 24
|  4> end
|  5>
|  6> * xyz 0 1
|  7> S 	 -102.667 	 46.5328 	 -102.947
|  8> C 	 -103.262 	 48.0835 	 -102.65
|  9> C 	 -102.578 	 48.7084 	 -101.597
| 10> C 	 -101.672 	 47.812 	 -101.005
| 11> C 	 -101.675 	 46.5349 	 -101.559
| 12> H 	 -100.961 	 47.9387 	 -100.162
| 13> C 	 -102.722 	 50.0941 	 -101.063
| 14> H 	 -102.049 	 50.3168 	 -100.247
| 15> H 	 -103.757 	 50.1672 	 -100.662
| 16> C 	 -102.327 	 51.2258 	 -102.185
| 17> H 	 -102.915 	 51.2396 	 -103.16
| 18> H 	 -102.392 	 52.2265 	 -101.804
| 19> C 	 -100.907 	 50.9945 	 -102.662
| 20> H 	 -100.859 	 50.0409 	 -103.153
| 21> H 	 -100.642 	 51.8285 	 -103.377
| 22> H 	 -100.184 	 50.9045 	 -101.783
| 23> S 	 -100.568 	 45.2075 	 -99.4567
| 24> C 	 -99.3679 	 43.8993 	 -99.8648
| 25> C 	 -99.2422 	 43.7053 	 -101.19
| 26> C 	 -100.014 	 44.595 	 -101.987
| 27> C 	 -100.722 	 45.5108 	 -101.213
| 28> H 	 -98.5997 	 42.9369 	 -101.553
| 29> C 	 -99.975 	 44.5128 	 -103.464
| 30> H 	 -100.96 	 44.8473 	 -103.758
| 31> H 	 -99.8623 	 43.4459 	 -103.63
| 32> C 	 -98.8275 	 45.1633 	 -104.17
| 33> H 	 -98.9135 	 45.0383 	 -105.254
| 34> H 	 -97.8943 	 44.6245 	 -103.95
| 35> C 	 -98.5233 	 46.6489 	 -103.788
| 36> H 	 -97.6417 	 46.9676 	 -104.268
| 37> H 	 -98.3146 	 46.7541 	 -102.709
| 38> H 	 -99.2808 	 47.3523 	 -104.072
| 39> H 	 -103.864 	 48.5949 	 -103.322
| 40> H 	 -98.7238 	 43.3544 	 -99.24
| 41> *
| 42>
| 43>                          ****END OF INPUT****

CARTESIAN COORDINATES (ANGSTROEM)
---------------------------------
  S    -102.667000   46.532800  -102.947000
  C    -103.262000   48.083500  -102.650000
  C    -102.578000   48.708400  -101.597000
  C    -101.672000   47.812000  -101.005000
  C    -101.675000   46.534900  -101.559000
  H    -100.961000   47.938700  -100.162000
  C    -102.722000   50.094100  -101.063000
  H    -102.049000   50.316800  -100.247000
  H    -103.757000   50.167200  -100.662000
  C    -102.327000   51.225800  -102.185000
  H    -102.915000   51.239600  -103.160000
  H    -102.392000   52.226500  -101.804000
  C    -100.907000   50.994500  -102.662000
  H    -100.859000   50.040900  -103.153000
  H    -100.642000   51.828500  -103.377000
  H    -100.184000   50.904500  -101.783000
  S    -100.568000   45.207500  -99.456700
  C    -99.367900   43.899300  -99.864800
  C    -99.242200   43.705300  -101.190000
  C    -100.014000   44.595000  -101.987000
  C    -100.722000   45.510800  -101.213000
  H    -98.599700   42.936900  -101.553000
  C    -99.975000   44.512800  -103.464000
  H    -100.960000   44.847300  -103.758000
  H    -99.862300   43.445900  -103.630000
  C    -98.827500   45.163300  -104.170000
  H    -98.913500   45.038300  -105.254000
  H    -97.894300   44.624500  -103.950000
  C    -98.523300   46.648900  -103.788000
  H    -97.641700   46.967600  -104.268000
  H    -98.314600   46.754100  -102.709000
  H    -99.280800   47.352300  -104.072000
  H    -103.864000   48.594900  -103.322000
  H    -98.723800   43.354400  -99.240000

 Total Charge           Charge          ....    0
 Multiplicity           Mult            ....    1
 Number of Electrons    NEL             ....  134
 Basis Dimension        Dim             ....  322

ORBITAL ENERGIES
----------------

  NO   OCC          E(Eh)            E(eV)
   0   2.0000     -88.970736     -2421.0168
   1   2.0000     -88.967057     -2420.9167
   2   2.0000     -10.327943      -281.0376
   3   2.0000     -10.322252      -280.8828
   4   2.0000     -10.313040      -280.6321
   5   2.0000     -10.308313      -280.5035
   6   2.0000     -10.301872      -280.3282
   7   2.0000     -10.300302      -280.2855
   8   2.0000     -10.297382      -280.2060
   9   2.0000     -10.293814      -280.1089
  10   2.0000     -10.291827      -280.0549
  11   2.0000     -10.287274      -279.9310
  12   2.0000     -10.287007      -279.9237
  13   2.0000     -10.284350      -279.8514
  14   2.0000     -10.279614      -279.7225
  15   2.0000     -10.267986      -279.4061
  16   2.0000      -8.086597      -220.0475
  17   2.0000      -8.079931      -219.8661
  18   2.0000      -6.044847      -164.4886
  19   2.0000      -6.040762      -164.3775
  20   2.0000      -6.038676      -164.3207
  21   2.0000      -6.037770      -164.2961
  22   2.0000      -6.034962      -164.2197
  23   2.0000      -6.030290      -164.0925
  24   2.0000      -1.015444       -27.6316
  25   2.0000      -0.984806       -26.7979
  26   2.0000      -0.911549       -24.8045
  27   2.0000      -0.907935       -24.7062
  28   2.0000      -0.875269       -23.8173
  29   2.0000      -0.854546       -23.2534
  30   2.0000      -0.842051       -22.9134
  31   2.0000      -0.815508       -22.1911
  32   2.0000      -0.784498       -21.3473
  33   2.0000      -0.772038       -21.0082
  34   2.0000      -0.711943       -19.3729
  35   2.0000      -0.696215       -18.9450
  36   2.0000      -0.693995       -18.8846
  37   2.0000      -0.669157       -18.2087
  38   2.0000      -0.643811       -17.5190
  39   2.0000      -0.607133       -16.5209
  40   2.0000      -0.587670       -15.9913
  41   2.0000      -0.576518       -15.6878
  42   2.0000      -0.554362       -15.0850
  43   2.0000      -0.552451       -15.0329
  44   2.0000      -0.548479       -14.9249
  45   2.0000      -0.540377       -14.7044
  46   2.0000      -0.518424       -14.1070
  47   2.0000      -0.511792       -13.9266
  48   2.0000      -0.503123       -13.6907
  49   2.0000      -0.498142       -13.5551
  50   2.0000      -0.484581       -13.1861
  51   2.0000      -0.474103       -12.9010
  52   2.0000      -0.470527       -12.8037
  53   2.0000      -0.466037       -12.6815
  54   2.0000      -0.463735       -12.6189
  55   2.0000      -0.446158       -12.1406
  56   2.0000      -0.443704       -12.0738
  57   2.0000      -0.434975       -11.8363
  58   2.0000      -0.434350       -11.8193
  59   2.0000      -0.422928       -11.5085
  60   2.0000      -0.419189       -11.4067
  61   2.0000      -0.415868       -11.3163
  62   2.0000      -0.411091       -11.1864
  63   2.0000      -0.354312        -9.6413
  64   2.0000      -0.334254        -9.0955
  65   2.0000      -0.330400        -8.9906
  66   2.0000      -0.284330        -7.7370
  67   0.0000       0.022933         0.6240
  68   0.0000       0.078431         2.1342
  69   0.0000       0.097057         2.6410
  70   0.0000       0.120874         3.2892
  71   0.0000       0.130957         3.5635

MULLIKEN ATOMIC CHARGES
-----------------------
   0 S :    0.113928
   1 C :   -0.075647
   2 C :   -0.089982
   3 C :   -0.024335
   4 C :   -0.120019
   5 H :    0.026005
   6 C :    0.064351
   7 H :    0.027463
   8 H :    0.054502
   9 C :   -0.094129
  10 H :    0.037189
  11 H :    0.029403
  12 C :   -0.090920
  13 H :    0.045311
  14 H :    0.048308
  15 H :    0.034005
  16 S :    0.086615
  17 C :   -0.048155
  18 C :   -0.037465
  19 C :   -0.090499
  20 C :   -0.149618
  21 H :    0.008254
  22 C :    0.121066
  23 H :    0.016925
  24 H :    0.018555
  25 C :   -0.065072
  26 H :    0.032410
  27 H :    0.017850
  28 C :   -0.040244
  29 H :    0.015137
  30 H :    0.044200
  31 H :    0.032851
  32 H :    0.023464
  33 H :    0.028294
Sum of atomic charges:    0.0000000

LOEWDIN ATOMIC CHARGES
----------------------
   0 S :    0.472553
   1 C :   -0.208674
   2 C :   -0.065636
   3 C :   -0.070143
   4 C :   -0.218246
   5 H :    0.032110
   6 C :   -0.027429
   7 H :    0.030028
   8 H :    0.040328
   9 C :   -0.043994
  10 H :    0.028054
  11 H :    0.017168
  12 C :   -0.074186
  13 H :    0.020937
  14 H :    0.033404
  15 H :    0.026910
  16 S :    0.361504
  17 C :   -0.155806
  18 C :   -0.062896
  19 C :   -0.061477
  20 C :   -0.174330
  21 H :    0.029875
  22 C :   -0.036547
  23 H :    0.013558
  24 H :    0.036841
  25 C :   -0.038200
  26 H :    0.026934
  27 H :    0.024745
  28 C :   -0.063438
  29 H :    0.019078
  30 H :    0.031588
  31 H :    0.020750
  32 H :    0.013715
  33 H :    0.020922

  Mayer bond orders larger than 0.100000
B(  0-S ,  1-C ) :   1.1795 B(  0-S ,  4-C ) :   1.1759 B(  1-C ,  2-C ) :   1.5305
B(  1-C , 32-H ) :   0.9800 B(  2-C ,  3-C ) :   1.2985 B(  2-C ,  6-C ) :   1.0220
B(  3-C ,  4-C ) :   1.5030 B(  3-C ,  5-H ) :   0.9883 B(  4-C , 20-C ) :   1.0640
B(  6-C ,  7-H ) :   0.9500 B(  6-C ,  8-H ) :   0.9426 B(  6-C ,  9-C ) :   1.0423
B(  9-C , 10-H ) :   0.9617 B(  9-C , 11-H ) :   0.9649 B(  9-C , 12-C ) :   1.0653
B( 12-C , 13-H ) :   0.9731 B( 12-C , 14-H ) :   0.9723 B( 12-C , 15-H ) :   0.9746
B( 16-S , 17-C ) :   1.1033 B( 16-S , 20-C ) :   1.1164 B( 17-C , 18-C ) :   1.6837
B( 17-C , 33-H ) :   0.9634 B( 18-C , 19-C ) :   1.2029 B( 18-C , 21-H ) :   0.9880
B( 19-C , 20-C ) :   1.6086 B( 19-C , 22-C ) :   1.0348 B( 22-C , 23-H ) :   0.9268
B( 22-C , 24-H ) :   0.9192 B( 22-C , 25-C ) :   1.0817 B( 25-C , 26-H ) :   0.9537
B( 25-C , 27-H ) :   0.9502 B( 25-C , 28-C ) :   1.0812 B( 28-C , 29-H ) :   0.9719
B( 28-C , 30-H ) :   0.9710 B( 28-C , 31-H ) :   0.9778

Dispersion correction           -0.015976726
FINAL SINGLE POINT ENERGY     -1339.871923862973

DIPOLE MOMENT
-------------
                                X             Y             Z
Electronic contribution:     -9.46656     -16.09502      11.63195
Nuclear contribution   :      9.79936      16.29603     -11.95934
                        -----------------------------------------
Total Dipole Moment    :      0.33280       0.20101      -0.32738
                        -----------------------------------------
Magnitude (a.u.)       :      0.50827
Magnitude (Debye)      :      1.29193

Rotational constants in cm-1:     0.021191     0.009148     0.008021
Rotational constants in MHz :   635.295676   274.259093   240.461628

                             ****ORCA TERMINATED NORMALLY****
TOTAL RUN TIME: 0 days 0 hours 0 minutes 23 seconds 64 msec
