                         Program Version 4.2.1 -  RELEASE  -
|  1> ! wB97X-D3 SP def2-SVP
|  2> %pal
|  3> nprocs 24
|  4> end
|  5>
|  6> * xyz 0 1
|  7> S 	 -137.802 	 8.17188 	 -15.5572
|  8> C 	 -138.365 	 9.48849 	 -14.5965
|  9> C 	 -137.309 	 10.3253 	 -14.2564
| 10> C 	 -136.064 	 9.68622 	 -14.4888
| 11> C 	 -136.14 	 8.47868 	 -15.1619
| 12> H 	 -135.126 	 10.0488 	 -14.2405
| 13> C 	 -137.439 	 11.6146 	 -13.5496
| 14> H 	 -136.675 	 11.5368 	 -12.74
| 15> H 	 -138.46 	 11.7839 	 -13.164
| 16> C 	 -137.09 	 12.7799 	 -14.4522
| 17> H 	 -136.059 	 12.626 	 -14.6138
| 18> H 	 -137.655 	 12.7519 	 -15.3298
| 19> C 	 -137.09 	 14.1387 	 -13.7344
| 20> H 	 -138.085 	 14.4599 	 -13.4246
| 21> H 	 -136.453 	 14.04 	 -12.8228
| 22> H 	 -136.685 	 14.941 	 -14.3323
| 23> S 	 -135.274 	 6.98013 	 -17.3773
| 24> C 	 -133.73 	 6.2249 	 -17.3161
| 25> C 	 -133.02 	 6.5703 	 -16.1623
| 26> C 	 -133.775 	 7.47431 	 -15.3207
| 27> C 	 -135.058 	 7.76694 	 -15.7796
| 28> H 	 -132.054 	 6.14356 	 -15.973
| 29> C 	 -133.132 	 7.90176 	 -14.013
| 30> H 	 -132.684 	 7.02982 	 -13.4235
| 31> H 	 -133.954 	 8.12244 	 -13.4021
| 32> C 	 -132.229 	 9.21337 	 -14.043
| 33> H 	 -132.972 	 9.95047 	 -14.3325
| 34> H 	 -131.407 	 9.10849 	 -14.7874
| 35> C 	 -131.635 	 9.4366 	 -12.6219
| 36> H 	 -131.071 	 10.3831 	 -12.6202
| 37> H 	 -131.032 	 8.56262 	 -12.4489
| 38> H 	 -132.412 	 9.41944 	 -11.8091
| 39> H 	 -139.329 	 9.90722 	 -14.6109
| 40> H 	 -133.235 	 5.69659 	 -18.0845
| 41> *
| 42>
| 43>                          ****END OF INPUT****

CARTESIAN COORDINATES (ANGSTROEM)
---------------------------------
  S    -137.802000    8.171880  -15.557200
  C    -138.365000    9.488490  -14.596500
  C    -137.309000   10.325300  -14.256400
  C    -136.064000    9.686220  -14.488800
  C    -136.140000    8.478680  -15.161900
  H    -135.126000   10.048800  -14.240500
  C    -137.439000   11.614600  -13.549600
  H    -136.675000   11.536800  -12.740000
  H    -138.460000   11.783900  -13.164000
  C    -137.090000   12.779900  -14.452200
  H    -136.059000   12.626000  -14.613800
  H    -137.655000   12.751900  -15.329800
  C    -137.090000   14.138700  -13.734400
  H    -138.085000   14.459900  -13.424600
  H    -136.453000   14.040000  -12.822800
  H    -136.685000   14.941000  -14.332300
  S    -135.274000    6.980130  -17.377300
  C    -133.730000    6.224900  -17.316100
  C    -133.020000    6.570300  -16.162300
  C    -133.775000    7.474310  -15.320700
  C    -135.058000    7.766940  -15.779600
  H    -132.054000    6.143560  -15.973000
  C    -133.132000    7.901760  -14.013000
  H    -132.684000    7.029820  -13.423500
  H    -133.954000    8.122440  -13.402100
  C    -132.229000    9.213370  -14.043000
  H    -132.972000    9.950470  -14.332500
  H    -131.407000    9.108490  -14.787400
  C    -131.635000    9.436600  -12.621900
  H    -131.071000   10.383100  -12.620200
  H    -131.032000    8.562620  -12.448900
  H    -132.412000    9.419440  -11.809100
  H    -139.329000    9.907220  -14.610900
  H    -133.235000    5.696590  -18.084500

 Total Charge           Charge          ....    0
 Multiplicity           Mult            ....    1
 Number of Electrons    NEL             ....  134
 Basis Dimension        Dim             ....  322

ORBITAL ENERGIES
----------------

  NO   OCC          E(Eh)            E(eV)
   0   2.0000     -88.968245     -2420.9490
   1   2.0000     -88.967314     -2420.9237
   2   2.0000     -10.332714      -281.1674
   3   2.0000     -10.330351      -281.1031
   4   2.0000     -10.314850      -280.6813
   5   2.0000     -10.307281      -280.4754
   6   2.0000     -10.306122      -280.4439
   7   2.0000     -10.298737      -280.2429
   8   2.0000     -10.297363      -280.2055
   9   2.0000     -10.293960      -280.1129
  10   2.0000     -10.292508      -280.0734
  11   2.0000     -10.292497      -280.0731
  12   2.0000     -10.289369      -279.9880
  13   2.0000     -10.286625      -279.9133
  14   2.0000     -10.280394      -279.7437
  15   2.0000     -10.277395      -279.6621
  16   2.0000      -8.082647      -219.9400
  17   2.0000      -8.082591      -219.9385
  18   2.0000      -6.041236      -164.3904
  19   2.0000      -6.041096      -164.3866
  20   2.0000      -6.037202      -164.2806
  21   2.0000      -6.037040      -164.2762
  22   2.0000      -6.033326      -164.1751
  23   2.0000      -6.033313      -164.1748
  24   2.0000      -1.011667       -27.5289
  25   2.0000      -0.985546       -26.8181
  26   2.0000      -0.923189       -25.1213
  27   2.0000      -0.904627       -24.6161
  28   2.0000      -0.874865       -23.8063
  29   2.0000      -0.855204       -23.2713
  30   2.0000      -0.846625       -23.0378
  31   2.0000      -0.817051       -22.2331
  32   2.0000      -0.782141       -21.2831
  33   2.0000      -0.770703       -20.9719
  34   2.0000      -0.711592       -19.3634
  35   2.0000      -0.701139       -19.0790
  36   2.0000      -0.697448       -18.9785
  37   2.0000      -0.664967       -18.0947
  38   2.0000      -0.644642       -17.5416
  39   2.0000      -0.627091       -17.0640
  40   2.0000      -0.593115       -16.1395
  41   2.0000      -0.583338       -15.8734
  42   2.0000      -0.569157       -15.4876
  43   2.0000      -0.562917       -15.3177
  44   2.0000      -0.527612       -14.3571
  45   2.0000      -0.526350       -14.3227
  46   2.0000      -0.516884       -14.0651
  47   2.0000      -0.512910       -13.9570
  48   2.0000      -0.509021       -13.8512
  49   2.0000      -0.507307       -13.8045
  50   2.0000      -0.497006       -13.5242
  51   2.0000      -0.474465       -12.9108
  52   2.0000      -0.473288       -12.8788
  53   2.0000      -0.467528       -12.7221
  54   2.0000      -0.459323       -12.4988
  55   2.0000      -0.454247       -12.3607
  56   2.0000      -0.443757       -12.0753
  57   2.0000      -0.439896       -11.9702
  58   2.0000      -0.436362       -11.8740
  59   2.0000      -0.425485       -11.5780
  60   2.0000      -0.421143       -11.4599
  61   2.0000      -0.420108       -11.4317
  62   2.0000      -0.413031       -11.2392
  63   2.0000      -0.360714        -9.8155
  64   2.0000      -0.330615        -8.9965
  65   2.0000      -0.328847        -8.9484
  66   2.0000      -0.284361        -7.7379
  67   0.0000       0.020611         0.5609
  68   0.0000       0.073153         1.9906
  69   0.0000       0.111446         3.0326
  70   0.0000       0.116578         3.1722
  71   0.0000       0.129249         3.5170

MULLIKEN ATOMIC CHARGES
-----------------------
   0 S :    0.105261
   1 C :   -0.070643
   2 C :   -0.107899
   3 C :    0.050940
   4 C :   -0.117250
   5 H :   -0.054422
   6 C :    0.044047
   7 H :    0.033646
   8 H :    0.022005
   9 C :   -0.049684
  10 H :    0.013032
  11 H :    0.023534
  12 C :   -0.034457
  13 H :    0.025066
  14 H :    0.026110
  15 H :    0.036335
  16 S :    0.105643
  17 C :   -0.073247
  18 C :   -0.026300
  19 C :   -0.047557
  20 C :   -0.122726
  21 H :    0.015844
  22 C :    0.000402
  23 H :    0.036579
  24 H :    0.002688
  25 C :   -0.065141
  26 H :    0.033669
  27 H :    0.043494
  28 C :   -0.048946
  29 H :    0.050906
  30 H :    0.031525
  31 H :    0.036220
  32 H :    0.034048
  33 H :    0.047277
Sum of atomic charges:   -0.0000000

LOEWDIN ATOMIC CHARGES
----------------------
   0 S :    0.425333
   1 C :   -0.205432
   2 C :   -0.057200
   3 C :   -0.057001
   4 C :   -0.190312
   5 H :    0.011764
   6 C :   -0.030855
   7 H :    0.036702
   8 H :    0.029000
   9 C :   -0.032510
  10 H :    0.020988
  11 H :    0.017287
  12 C :   -0.062609
  13 H :    0.019683
  14 H :    0.029085
  15 H :    0.025112
  16 S :    0.400081
  17 C :   -0.189109
  18 C :   -0.066337
  19 C :   -0.055130
  20 C :   -0.186155
  21 H :    0.029513
  22 C :   -0.042777
  23 H :    0.036147
  24 H :    0.017332
  25 C :   -0.031980
  26 H :    0.018562
  27 H :    0.028064
  28 C :   -0.067042
  29 H :    0.030125
  30 H :    0.024317
  31 H :    0.029712
  32 H :    0.020658
  33 H :    0.024983

  Mayer bond orders larger than 0.100000
B(  0-S ,  1-C ) :   1.1442 B(  0-S ,  4-C ) :   1.1540 B(  1-C ,  2-C ) :   1.5888
B(  1-C , 32-H ) :   0.9644 B(  2-C ,  3-C ) :   1.2662 B(  2-C ,  6-C ) :   1.0396
B(  3-C ,  4-C ) :   1.5217 B(  3-C ,  5-H ) :   1.0022 B(  4-C , 20-C ) :   1.0962
B(  6-C ,  7-H ) :   0.9384 B(  6-C ,  8-H ) :   0.9425 B(  6-C ,  9-C ) :   1.0617
B(  9-C , 10-H ) :   0.9547 B(  9-C , 11-H ) :   0.9584 B(  9-C , 12-C ) :   1.0856
B( 12-C , 13-H ) :   0.9750 B( 12-C , 14-H ) :   0.9713 B( 12-C , 15-H ) :   0.9753
B( 16-S , 17-C ) :   1.1602 B( 16-S , 20-C ) :   1.1134 B( 17-C , 18-C ) :   1.6019
B( 17-C , 33-H ) :   0.9685 B( 18-C , 19-C ) :   1.2455 B( 18-C , 21-H ) :   0.9952
B( 19-C , 20-C ) :   1.5836 B( 19-C , 22-C ) :   1.0469 B( 22-C , 23-H ) :   0.9447
B( 22-C , 24-H ) :   0.9258 B( 22-C , 25-C ) :   1.0439 B( 25-C , 26-H ) :   0.9536
B( 25-C , 27-H ) :   0.9579 B( 25-C , 28-C ) :   1.0706 B( 28-C , 29-H ) :   0.9745
B( 28-C , 30-H ) :   0.9757 B( 28-C , 31-H ) :   0.9750

Dispersion correction           -0.013800550
FINAL SINGLE POINT ENERGY     -1339.869936220042

DIPOLE MOMENT
-------------
                                X             Y             Z
Electronic contribution:    -11.99546     -22.95639     -18.03561
Nuclear contribution   :     12.44155      23.43805      18.30092
                        -----------------------------------------
Total Dipole Moment    :      0.44609       0.48166       0.26531
                        -----------------------------------------
Magnitude (a.u.)       :      0.70808
Magnitude (Debye)      :      1.79980

Rotational constants in cm-1:     0.016657     0.009168     0.006516
Rotational constants in MHz :   499.362836   274.847217   195.355505

                             ****ORCA TERMINATED NORMALLY****
TOTAL RUN TIME: 0 days 0 hours 0 minutes 20 seconds 408 msec
