                         Program Version 4.2.1 -  RELEASE  -
|  1> ! wB97X-D3 SP def2-SVP
|  2> %pal
|  3> nprocs 24
|  4> end
|  5>
|  6> * xyz 0 1
|  7> S 	 -104.49 	 -1.83381 	 -105.325
|  8> C 	 -104.444 	 -0.704241 	 -106.672
|  9> C 	 -104.824 	 0.594988 	 -106.317
| 10> C 	 -105.062 	 0.669752 	 -104.92
| 11> C 	 -105.009 	 -0.5533 	 -104.283
| 12> H 	 -105.249 	 1.51789 	 -104.315
| 13> C 	 -104.663 	 1.83575 	 -107.231
| 14> H 	 -105.187 	 2.54947 	 -106.577
| 15> H 	 -105.082 	 1.75352 	 -108.192
| 16> C 	 -103.168 	 2.28516 	 -107.413
| 17> H 	 -102.77 	 2.3601 	 -106.427
| 18> H 	 -102.578 	 1.5204 	 -107.938
| 19> C 	 -103.024 	 3.59193 	 -108.084
| 20> H 	 -102.081 	 4.04714 	 -107.877
| 21> H 	 -103.191 	 3.39637 	 -109.14
| 22> H 	 -103.8 	 4.26156 	 -107.797
| 23> S 	 -106.366 	 -0.5613 	 -101.796
| 24> C 	 -105.486 	 -1.0653 	 -100.391
| 25> C 	 -104.134 	 -1.36042 	 -100.611
| 26> C 	 -103.921 	 -1.2567 	 -102.02
| 27> C 	 -104.954 	 -0.752925 	 -102.824
| 28> H 	 -103.468 	 -1.51609 	 -99.7489
| 29> C 	 -102.535 	 -1.50261 	 -102.543
| 30> H 	 -102.715 	 -2.20343 	 -103.396
| 31> H 	 -102.009 	 -2.10143 	 -101.751
| 32> C 	 -101.715 	 -0.327131 	 -102.95
| 33> H 	 -102.417 	 0.429841 	 -103.456
| 34> H 	 -100.929 	 -0.541594 	 -103.596
| 35> C 	 -101.3 	 0.527877 	 -101.758
| 36> H 	 -102.044 	 1.07164 	 -101.142
| 37> H 	 -100.543 	 1.28841 	 -101.999
| 38> H 	 -100.993 	 -0.259594 	 -101.014
| 39> H 	 -104.155 	 -0.871882 	 -107.649
| 40> H 	 -105.997 	 -1.19916 	 -99.4559
| 41> *
| 42>
| 43>                          ****END OF INPUT****

CARTESIAN COORDINATES (ANGSTROEM)
---------------------------------
  S    -104.490000   -1.833810  -105.325000
  C    -104.444000   -0.704241  -106.672000
  C    -104.824000    0.594988  -106.317000
  C    -105.062000    0.669752  -104.920000
  C    -105.009000   -0.553300  -104.283000
  H    -105.249000    1.517890  -104.315000
  C    -104.663000    1.835750  -107.231000
  H    -105.187000    2.549470  -106.577000
  H    -105.082000    1.753520  -108.192000
  C    -103.168000    2.285160  -107.413000
  H    -102.770000    2.360100  -106.427000
  H    -102.578000    1.520400  -107.938000
  C    -103.024000    3.591930  -108.084000
  H    -102.081000    4.047140  -107.877000
  H    -103.191000    3.396370  -109.140000
  H    -103.800000    4.261560  -107.797000
  S    -106.366000   -0.561300  -101.796000
  C    -105.486000   -1.065300  -100.391000
  C    -104.134000   -1.360420  -100.611000
  C    -103.921000   -1.256700  -102.020000
  C    -104.954000   -0.752925  -102.824000
  H    -103.468000   -1.516090  -99.748900
  C    -102.535000   -1.502610  -102.543000
  H    -102.715000   -2.203430  -103.396000
  H    -102.009000   -2.101430  -101.751000
  C    -101.715000   -0.327131  -102.950000
  H    -102.417000    0.429841  -103.456000
  H    -100.929000   -0.541594  -103.596000
  C    -101.300000    0.527877  -101.758000
  H    -102.044000    1.071640  -101.142000
  H    -100.543000    1.288410  -101.999000
  H    -100.993000   -0.259594  -101.014000
  H    -104.155000   -0.871882  -107.649000
  H    -105.997000   -1.199160  -99.455900

 Total Charge           Charge          ....    0
 Multiplicity           Mult            ....    1
 Number of Electrons    NEL             ....  134
 Basis Dimension        Dim             ....  322

ORBITAL ENERGIES
----------------

  NO   OCC          E(Eh)            E(eV)
   0   2.0000     -88.972726     -2421.0710
   1   2.0000     -88.966645     -2420.9055
   2   2.0000     -10.327911      -281.0367
   3   2.0000     -10.325658      -280.9754
   4   2.0000     -10.317355      -280.7495
   5   2.0000     -10.311072      -280.5785
   6   2.0000     -10.303864      -280.3824
   7   2.0000     -10.302244      -280.3383
   8   2.0000     -10.298941      -280.2484
   9   2.0000     -10.295871      -280.1649
  10   2.0000     -10.293367      -280.0968
  11   2.0000     -10.284768      -279.8628
  12   2.0000     -10.282248      -279.7942
  13   2.0000     -10.278817      -279.7008
  14   2.0000     -10.276875      -279.6480
  15   2.0000     -10.270120      -279.4642
  16   2.0000      -8.086887      -220.0554
  17   2.0000      -8.081423      -219.9067
  18   2.0000      -6.045337      -164.5020
  19   2.0000      -6.041442      -164.3960
  20   2.0000      -6.039753      -164.3500
  21   2.0000      -6.037784      -164.2964
  22   2.0000      -6.035818      -164.2430
  23   2.0000      -6.032495      -164.1525
  24   2.0000      -1.007216       -27.4077
  25   2.0000      -0.984784       -26.7973
  26   2.0000      -0.915348       -24.9079
  27   2.0000      -0.911454       -24.8019
  28   2.0000      -0.870203       -23.6794
  29   2.0000      -0.855967       -23.2920
  30   2.0000      -0.845440       -23.0056
  31   2.0000      -0.815953       -22.2032
  32   2.0000      -0.782524       -21.2936
  33   2.0000      -0.767584       -20.8870
  34   2.0000      -0.706871       -19.2349
  35   2.0000      -0.701042       -19.0763
  36   2.0000      -0.685221       -18.6458
  37   2.0000      -0.665656       -18.1134
  38   2.0000      -0.644810       -17.5462
  39   2.0000      -0.621163       -16.9027
  40   2.0000      -0.585815       -15.9408
  41   2.0000      -0.573507       -15.6059
  42   2.0000      -0.571008       -15.5379
  43   2.0000      -0.557500       -15.1704
  44   2.0000      -0.546056       -14.8589
  45   2.0000      -0.531514       -14.4632
  46   2.0000      -0.518520       -14.1096
  47   2.0000      -0.514120       -13.9899
  48   2.0000      -0.507679       -13.8147
  49   2.0000      -0.495184       -13.4746
  50   2.0000      -0.482858       -13.1392
  51   2.0000      -0.477612       -12.9965
  52   2.0000      -0.471400       -12.8274
  53   2.0000      -0.468328       -12.7439
  54   2.0000      -0.463687       -12.6176
  55   2.0000      -0.457276       -12.4431
  56   2.0000      -0.442964       -12.0537
  57   2.0000      -0.434408       -11.8208
  58   2.0000      -0.429633       -11.6909
  59   2.0000      -0.425523       -11.5791
  60   2.0000      -0.421150       -11.4601
  61   2.0000      -0.413714       -11.2577
  62   2.0000      -0.388768       -10.5789
  63   2.0000      -0.340896        -9.2762
  64   2.0000      -0.333915        -9.0863
  65   2.0000      -0.329321        -8.9613
  66   2.0000      -0.293561        -7.9882
  67   0.0000       0.030519         0.8305
  68   0.0000       0.063838         1.7371
  69   0.0000       0.111679         3.0389
  70   0.0000       0.117624         3.2007
  71   0.0000       0.127239         3.4623

MULLIKEN ATOMIC CHARGES
-----------------------
   0 S :    0.129887
   1 C :   -0.088848
   2 C :   -0.077109
   3 C :    0.036478
   4 C :   -0.151809
   5 H :    0.002173
   6 C :    0.064359
   7 H :    0.027057
   8 H :    0.022618
   9 C :   -0.078964
  10 H :    0.015950
  11 H :    0.028204
  12 C :   -0.000091
  13 H :    0.036455
  14 H :    0.024019
  15 H :    0.015814
  16 S :    0.113739
  17 C :   -0.104721
  18 C :   -0.032446
  19 C :   -0.079890
  20 C :   -0.156222
  21 H :    0.041864
  22 C :    0.037165
  23 H :    0.031565
  24 H :    0.020123
  25 C :   -0.012668
  26 H :    0.043160
  27 H :    0.024545
  28 C :   -0.088960
  29 H :    0.040339
  30 H :    0.041398
  31 H :    0.009348
  32 H :    0.011419
  33 H :    0.054050
Sum of atomic charges:    0.0000000

LOEWDIN ATOMIC CHARGES
----------------------
   0 S :    0.436858
   1 C :   -0.182672
   2 C :   -0.058734
   3 C :   -0.055175
   4 C :   -0.200567
   5 H :    0.026807
   6 C :   -0.021108
   7 H :    0.033726
   8 H :    0.021244
   9 C :   -0.037932
  10 H :    0.018174
  11 H :    0.023522
  12 C :   -0.060157
  13 H :    0.026888
  14 H :    0.026731
  15 H :    0.021425
  16 S :    0.417149
  17 C :   -0.181554
  18 C :   -0.078185
  19 C :   -0.056279
  20 C :   -0.216233
  21 H :    0.043701
  22 C :   -0.046721
  23 H :    0.023584
  24 H :    0.027220
  25 C :   -0.042083
  26 H :    0.039289
  27 H :    0.018480
  28 C :   -0.076478
  29 H :    0.027930
  30 H :    0.027458
  31 H :    0.020287
  32 H :    0.011047
  33 H :    0.022360

  Mayer bond orders larger than 0.100000
B(  0-S ,  1-C ) :   1.1519 B(  0-S ,  4-C ) :   1.1595 B(  1-C ,  2-C ) :   1.5931
B(  1-C , 32-H ) :   0.9752 B(  2-C ,  3-C ) :   1.2519 B(  2-C ,  6-C ) :   1.0215
B(  3-C ,  4-C ) :   1.5804 B(  3-C ,  5-H ) :   0.9919 B(  4-C , 20-C ) :   1.0168
B(  6-C ,  7-H ) :   0.9416 B(  6-C ,  8-H ) :   0.9425 B(  6-C ,  9-C ) :   1.0653
B(  9-C , 10-H ) :   0.9542 B(  9-C , 11-H ) :   0.9562 B(  9-C , 12-C ) :   1.0913
B( 12-C , 13-H ) :   0.9720 B( 12-C , 14-H ) :   0.9717 B( 12-C , 15-H ) :   0.9705
B( 16-S , 17-C ) :   1.2002 B( 16-S , 20-C ) :   1.1308 B( 17-C , 18-C ) :   1.5665
B( 17-C , 33-H ) :   0.9651 B( 18-C , 19-C ) :   1.2586 B( 18-C , 21-H ) :   0.9922
B( 19-C , 20-C ) :   1.5734 B( 19-C , 22-C ) :   1.0426 B( 22-C , 23-H ) :   0.9178
B( 22-C , 24-H ) :   0.9336 B( 22-C , 25-C ) :   1.0800 B( 25-C , 26-H ) :   0.9503
B( 25-C , 27-H ) :   0.9550 B( 25-C , 28-C ) :   1.0556 B( 28-C , 29-H ) :   0.9754
B( 28-C , 30-H ) :   0.9736 B( 28-C , 31-H ) :   0.9744

Dispersion correction           -0.015431689
FINAL SINGLE POINT ENERGY     -1339.857955915390

DIPOLE MOMENT
-------------
                                X             Y             Z
Electronic contribution:    -18.99795     -16.74488       8.41858
Nuclear contribution   :     19.43103      17.12375      -8.53492
                        -----------------------------------------
Total Dipole Moment    :      0.43308       0.37887      -0.11634
                        -----------------------------------------
Magnitude (a.u.)       :      0.58706
Magnitude (Debye)      :      1.49218

Rotational constants in cm-1:     0.020968     0.008288     0.007419
Rotational constants in MHz :   628.617564   248.478233   222.428459

                             ****ORCA TERMINATED NORMALLY****
TOTAL RUN TIME: 0 days 0 hours 0 minutes 22 seconds 598 msec
