                         Program Version 4.2.1 -  RELEASE  -
|  1> ! wB97X-D3 SP def2-SVP
|  2> %pal
|  3> nprocs 24
|  4> end
|  5>
|  6> * xyz 0 1
|  7> S 	 -129.412 	 29.8037 	 -21.0233
|  8> C 	 -130.767 	 29.1271 	 -20.1079
|  9> C 	 -131.519 	 28.3194 	 -20.9674
| 10> C 	 -130.838 	 28.0676 	 -22.1973
| 11> C 	 -129.761 	 28.8751 	 -22.4093
| 12> H 	 -131.188 	 27.4329 	 -22.9686
| 13> C 	 -132.727 	 27.5403 	 -20.4721
| 14> H 	 -132.834 	 27.6472 	 -19.369
| 15> H 	 -132.496 	 26.4581 	 -20.6359
| 16> C 	 -134.054 	 27.9499 	 -21.1773
| 17> H 	 -134.806 	 27.7861 	 -20.4298
| 18> H 	 -134.14 	 28.9981 	 -21.3882
| 19> C 	 -134.51 	 27.04 	 -22.3524
| 20> H 	 -135.546 	 27.1893 	 -22.5514
| 21> H 	 -133.963 	 27.2291 	 -23.3178
| 22> H 	 -134.266 	 25.9499 	 -22.1598
| 23> S 	 -128.496 	 30.8384 	 -23.7203
| 24> C 	 -127.84 	 30.6882 	 -25.2513
| 25> C 	 -128.001 	 29.3885 	 -25.7024
| 26> C 	 -128.73 	 28.5644 	 -24.8042
| 27> C 	 -129.007 	 29.1916 	 -23.6174
| 28> H 	 -127.579 	 29.0948 	 -26.6611
| 29> C 	 -129.333 	 27.2696 	 -25.1959
| 30> H 	 -129.983 	 26.9009 	 -24.4143
| 31> H 	 -128.493 	 26.6199 	 -25.3296
| 32> C 	 -130.287 	 27.2346 	 -26.394
| 33> H 	 -130.314 	 26.21 	 -26.7809
| 34> H 	 -129.915 	 27.8165 	 -27.2116
| 35> C 	 -131.713 	 27.7218 	 -26.0461
| 36> H 	 -132.339 	 27.5716 	 -26.8801
| 37> H 	 -131.607 	 28.7946 	 -25.8935
| 38> H 	 -132.083 	 27.4053 	 -25.1012
| 39> H 	 -130.966 	 29.3928 	 -19.0306
| 40> H 	 -127.229 	 31.4493 	 -25.7423
| 41> *
| 42>
| 43>                          ****END OF INPUT****

CARTESIAN COORDINATES (ANGSTROEM)
---------------------------------
  S    -129.412000   29.803700  -21.023300
  C    -130.767000   29.127100  -20.107900
  C    -131.519000   28.319400  -20.967400
  C    -130.838000   28.067600  -22.197300
  C    -129.761000   28.875100  -22.409300
  H    -131.188000   27.432900  -22.968600
  C    -132.727000   27.540300  -20.472100
  H    -132.834000   27.647200  -19.369000
  H    -132.496000   26.458100  -20.635900
  C    -134.054000   27.949900  -21.177300
  H    -134.806000   27.786100  -20.429800
  H    -134.140000   28.998100  -21.388200
  C    -134.510000   27.040000  -22.352400
  H    -135.546000   27.189300  -22.551400
  H    -133.963000   27.229100  -23.317800
  H    -134.266000   25.949900  -22.159800
  S    -128.496000   30.838400  -23.720300
  C    -127.840000   30.688200  -25.251300
  C    -128.001000   29.388500  -25.702400
  C    -128.730000   28.564400  -24.804200
  C    -129.007000   29.191600  -23.617400
  H    -127.579000   29.094800  -26.661100
  C    -129.333000   27.269600  -25.195900
  H    -129.983000   26.900900  -24.414300
  H    -128.493000   26.619900  -25.329600
  C    -130.287000   27.234600  -26.394000
  H    -130.314000   26.210000  -26.780900
  H    -129.915000   27.816500  -27.211600
  C    -131.713000   27.721800  -26.046100
  H    -132.339000   27.571600  -26.880100
  H    -131.607000   28.794600  -25.893500
  H    -132.083000   27.405300  -25.101200
  H    -130.966000   29.392800  -19.030600
  H    -127.229000   31.449300  -25.742300

 Total Charge           Charge          ....    0
 Multiplicity           Mult            ....    1
 Number of Electrons    NEL             ....  134
 Basis Dimension        Dim             ....  322

ORBITAL ENERGIES
----------------

  NO   OCC          E(Eh)            E(eV)
   0   2.0000     -88.962574     -2420.7947
   1   2.0000     -88.961531     -2420.7663
   2   2.0000     -10.327121      -281.0153
   3   2.0000     -10.322238      -280.8824
   4   2.0000     -10.319283      -280.8020
   5   2.0000     -10.312056      -280.6053
   6   2.0000     -10.303877      -280.3828
   7   2.0000     -10.299289      -280.2579
   8   2.0000     -10.297283      -280.2033
   9   2.0000     -10.292058      -280.0611
  10   2.0000     -10.289345      -279.9873
  11   2.0000     -10.286061      -279.8979
  12   2.0000     -10.286027      -279.8970
  13   2.0000     -10.284540      -279.8566
  14   2.0000     -10.284029      -279.8427
  15   2.0000     -10.271553      -279.5032
  16   2.0000      -8.078338      -219.8228
  17   2.0000      -8.078116      -219.8167
  18   2.0000      -6.036687      -164.2666
  19   2.0000      -6.036619      -164.2647
  20   2.0000      -6.032412      -164.1503
  21   2.0000      -6.032389      -164.1497
  22   2.0000      -6.029254      -164.0643
  23   2.0000      -6.028924      -164.0554
  24   2.0000      -1.020304       -27.7639
  25   2.0000      -0.992034       -26.9946
  26   2.0000      -0.916960       -24.9517
  27   2.0000      -0.908484       -24.7211
  28   2.0000      -0.870183       -23.6789
  29   2.0000      -0.856266       -23.3002
  30   2.0000      -0.842196       -22.9173
  31   2.0000      -0.817843       -22.2546
  32   2.0000      -0.786104       -21.3910
  33   2.0000      -0.773473       -21.0473
  34   2.0000      -0.710982       -19.3468
  35   2.0000      -0.701921       -19.1002
  36   2.0000      -0.695240       -18.9185
  37   2.0000      -0.661267       -17.9940
  38   2.0000      -0.639917       -17.4130
  39   2.0000      -0.627314       -17.0701
  40   2.0000      -0.602248       -16.3880
  41   2.0000      -0.568137       -15.4598
  42   2.0000      -0.564741       -15.3674
  43   2.0000      -0.546646       -14.8750
  44   2.0000      -0.539896       -14.6913
  45   2.0000      -0.531334       -14.4583
  46   2.0000      -0.522426       -14.2159
  47   2.0000      -0.515625       -14.0309
  48   2.0000      -0.508584       -13.8393
  49   2.0000      -0.504913       -13.7394
  50   2.0000      -0.489671       -13.3246
  51   2.0000      -0.482739       -13.1360
  52   2.0000      -0.478401       -13.0180
  53   2.0000      -0.469657       -12.7800
  54   2.0000      -0.459395       -12.5008
  55   2.0000      -0.451339       -12.2815
  56   2.0000      -0.445794       -12.1307
  57   2.0000      -0.442419       -12.0388
  58   2.0000      -0.436066       -11.8660
  59   2.0000      -0.422442       -11.4952
  60   2.0000      -0.419044       -11.4028
  61   2.0000      -0.411138       -11.1876
  62   2.0000      -0.405233       -11.0269
  63   2.0000      -0.357810        -9.7365
  64   2.0000      -0.331494        -9.0204
  65   2.0000      -0.325911        -8.8685
  66   2.0000      -0.286429        -7.7941
  67   0.0000       0.028657         0.7798
  68   0.0000       0.081178         2.2090
  69   0.0000       0.113002         3.0749
  70   0.0000       0.113740         3.0950
  71   0.0000       0.137292         3.7359

MULLIKEN ATOMIC CHARGES
-----------------------
   0 S :    0.092304
   1 C :   -0.149488
   2 C :   -0.065955
   3 C :    0.026388
   4 C :   -0.085626
   5 H :   -0.031053
   6 C :    0.010220
   7 H :    0.029967
   8 H :    0.042162
   9 C :   -0.041201
  10 H :    0.018530
  11 H :    0.034099
  12 C :   -0.079564
  13 H :    0.037515
  14 H :    0.037365
  15 H :    0.035644
  16 S :    0.100765
  17 C :   -0.089104
  18 C :   -0.049736
  19 C :   -0.060050
  20 C :   -0.122309
  21 H :    0.017050
  22 C :    0.078051
  23 H :    0.004835
  24 H :    0.026713
  25 C :   -0.065866
  26 H :    0.026680
  27 H :    0.017882
  28 C :   -0.021386
  29 H :    0.034407
  30 H :    0.033338
  31 H :    0.013786
  32 H :    0.076896
  33 H :    0.066744
Sum of atomic charges:    0.0000000

LOEWDIN ATOMIC CHARGES
----------------------
   0 S :    0.412524
   1 C :   -0.205621
   2 C :   -0.058747
   3 C :   -0.073473
   4 C :   -0.192865
   5 H :    0.016594
   6 C :   -0.032726
   7 H :    0.033285
   8 H :    0.036752
   9 C :   -0.041106
  10 H :    0.023952
  11 H :    0.025841
  12 C :   -0.070972
  13 H :    0.022681
  14 H :    0.025028
  15 H :    0.030400
  16 S :    0.444591
  17 C :   -0.212707
  18 C :   -0.074901
  19 C :   -0.066087
  20 C :   -0.202954
  21 H :    0.030157
  22 C :   -0.029837
  23 H :    0.027706
  24 H :    0.032545
  25 C :   -0.031107
  26 H :    0.023917
  27 H :    0.017500
  28 C :   -0.057989
  29 H :    0.023772
  30 H :    0.032953
  31 H :    0.013945
  32 H :    0.041310
  33 H :    0.035640

  Mayer bond orders larger than 0.100000
B(  0-S ,  1-C ) :   1.1291 B(  0-S ,  4-C ) :   1.1642 B(  1-C ,  2-C ) :   1.5914
B(  1-C , 32-H ) :   0.9654 B(  2-C ,  3-C ) :   1.2463 B(  2-C ,  6-C ) :   1.0311
B(  3-C ,  4-C ) :   1.5599 B(  3-C ,  5-H ) :   0.9941 B(  4-C , 20-C ) :   1.0317
B(  6-C ,  7-H ) :   0.9516 B(  6-C ,  8-H ) :   0.9488 B(  6-C ,  9-C ) :   1.0488
B(  9-C , 10-H ) :   0.9568 B(  9-C , 11-H ) :   0.9594 B(  9-C , 12-C ) :   1.0714
B( 12-C , 13-H ) :   0.9737 B( 12-C , 14-H ) :   0.9768 B( 12-C , 15-H ) :   0.9743
B( 16-S , 17-C ) :   1.1856 B( 16-S , 20-C ) :   1.1551 B( 17-C , 18-C ) :   1.5681
B( 17-C , 33-H ) :   0.9674 B( 18-C , 19-C ) :   1.2573 B( 18-C , 21-H ) :   0.9945
B( 19-C , 20-C ) :   1.5818 B( 19-C , 22-C ) :   1.0548 B( 22-C , 23-H ) :   0.9439
B( 22-C , 24-H ) :   0.9151 B( 22-C , 25-C ) :   1.0737 B( 25-C , 26-H ) :   0.9535
B( 25-C , 27-H ) :   0.9543 B( 25-C , 28-C ) :   1.0740 B( 28-C , 29-H ) :   0.9710
B( 28-C , 30-H ) :   0.9743 B( 28-C , 31-H ) :   0.9741

Dispersion correction           -0.015227516
FINAL SINGLE POINT ENERGY     -1339.876388387153

DIPOLE MOMENT
-------------
                                X             Y             Z
Electronic contribution:     22.69927      17.34833       9.01855
Nuclear contribution   :    -23.12576     -17.68287      -9.28191
                        -----------------------------------------
Total Dipole Moment    :     -0.42649      -0.33454      -0.26336
                        -----------------------------------------
Magnitude (a.u.)       :      0.60264
Magnitude (Debye)      :      1.53178

Rotational constants in cm-1:     0.018460     0.010372     0.007234
Rotational constants in MHz :   553.413901   310.943358   216.879043

                             ****ORCA TERMINATED NORMALLY****
TOTAL RUN TIME: 0 days 0 hours 0 minutes 21 seconds 432 msec
