                         Program Version 4.2.1 -  RELEASE  -
|  1> ! wB97X-D3 SP def2-SVP
|  2> %pal
|  3> nprocs 24
|  4> end
|  5>
|  6> * xyz 0 1
|  7> S 	 45.8936 	 -19.0787 	 -112.498
|  8> C 	 45.6889 	 -19.7648 	 -110.893
|  9> C 	 45.8115 	 -21.1706 	 -110.985
| 10> C 	 45.9454 	 -21.6444 	 -112.336
| 11> C 	 45.9171 	 -20.6679 	 -113.281
| 12> H 	 46.0473 	 -22.6425 	 -112.656
| 13> C 	 45.7342 	 -22.0283 	 -109.838
| 14> H 	 45.3013 	 -23.0137 	 -110.014
| 15> H 	 45.1143 	 -21.5872 	 -109.09
| 16> C 	 47.0577 	 -22.4003 	 -109.108
| 17> H 	 47.3886 	 -21.4655 	 -108.628
| 18> H 	 46.7697 	 -23.0267 	 -108.253
| 19> C 	 48.1915 	 -22.9568 	 -109.992
| 20> H 	 49.0865 	 -22.9596 	 -109.337
| 21> H 	 48.0421 	 -23.9059 	 -110.368
| 22> H 	 48.3672 	 -22.3034 	 -110.799
| 23> S 	 44.2717 	 -21.6588 	 -115.348
| 24> C 	 44.223 	 -20.9399 	 -116.901
| 25> C 	 45.1924 	 -19.9572 	 -116.966
| 26> C 	 45.9738 	 -19.8217 	 -115.762
| 27> C 	 45.6107 	 -20.6398 	 -114.756
| 28> H 	 45.3276 	 -19.4088 	 -117.961
| 29> C 	 47.1271 	 -18.8514 	 -115.764
| 30> H 	 47.7278 	 -19.197 	 -114.942
| 31> H 	 46.8638 	 -17.8123 	 -115.512
| 32> C 	 48.0939 	 -18.6214 	 -116.939
| 33> H 	 47.4577 	 -18.0282 	 -117.604
| 34> H 	 48.4792 	 -19.4832 	 -117.433
| 35> C 	 49.3324 	 -17.7394 	 -116.585
| 36> H 	 49.7076 	 -17.4541 	 -117.544
| 37> H 	 50.1875 	 -18.1824 	 -116.071
| 38> H 	 49.0151 	 -16.9033 	 -115.973
| 39> H 	 45.592 	 -19.1969 	 -109.94
| 40> H 	 43.5591 	 -21.1704 	 -117.698
| 41> *
| 42>
| 43>                          ****END OF INPUT****

CARTESIAN COORDINATES (ANGSTROEM)
---------------------------------
  S     45.893600  -19.078700  -112.498000
  C     45.688900  -19.764800  -110.893000
  C     45.811500  -21.170600  -110.985000
  C     45.945400  -21.644400  -112.336000
  C     45.917100  -20.667900  -113.281000
  H     46.047300  -22.642500  -112.656000
  C     45.734200  -22.028300  -109.838000
  H     45.301300  -23.013700  -110.014000
  H     45.114300  -21.587200  -109.090000
  C     47.057700  -22.400300  -109.108000
  H     47.388600  -21.465500  -108.628000
  H     46.769700  -23.026700  -108.253000
  C     48.191500  -22.956800  -109.992000
  H     49.086500  -22.959600  -109.337000
  H     48.042100  -23.905900  -110.368000
  H     48.367200  -22.303400  -110.799000
  S     44.271700  -21.658800  -115.348000
  C     44.223000  -20.939900  -116.901000
  C     45.192400  -19.957200  -116.966000
  C     45.973800  -19.821700  -115.762000
  C     45.610700  -20.639800  -114.756000
  H     45.327600  -19.408800  -117.961000
  C     47.127100  -18.851400  -115.764000
  H     47.727800  -19.197000  -114.942000
  H     46.863800  -17.812300  -115.512000
  C     48.093900  -18.621400  -116.939000
  H     47.457700  -18.028200  -117.604000
  H     48.479200  -19.483200  -117.433000
  C     49.332400  -17.739400  -116.585000
  H     49.707600  -17.454100  -117.544000
  H     50.187500  -18.182400  -116.071000
  H     49.015100  -16.903300  -115.973000
  H     45.592000  -19.196900  -109.940000
  H     43.559100  -21.170400  -117.698000

 Total Charge           Charge          ....    0
 Multiplicity           Mult            ....    1
 Number of Electrons    NEL             ....  134
 Basis Dimension        Dim             ....  322

ORBITAL ENERGIES
----------------

  NO   OCC          E(Eh)            E(eV)
   0   2.0000     -88.964082     -2420.8357
   1   2.0000     -88.962457     -2420.7915
   2   2.0000     -10.336501      -281.2705
   3   2.0000     -10.332478      -281.1610
   4   2.0000     -10.322710      -280.8952
   5   2.0000     -10.315492      -280.6988
   6   2.0000     -10.302841      -280.3546
   7   2.0000     -10.302504      -280.3454
   8   2.0000     -10.297452      -280.2079
   9   2.0000     -10.294498      -280.1275
  10   2.0000     -10.287312      -279.9320
  11   2.0000     -10.286435      -279.9081
  12   2.0000     -10.285392      -279.8798
  13   2.0000     -10.281150      -279.7643
  14   2.0000     -10.276718      -279.6437
  15   2.0000     -10.269269      -279.4410
  16   2.0000      -8.078293      -219.8215
  17   2.0000      -8.077577      -219.8020
  18   2.0000      -6.036922      -164.2730
  19   2.0000      -6.036205      -164.2535
  20   2.0000      -6.032784      -164.1604
  21   2.0000      -6.031928      -164.1371
  22   2.0000      -6.029024      -164.0581
  23   2.0000      -6.028258      -164.0372
  24   2.0000      -1.007199       -27.4073
  25   2.0000      -0.986366       -26.8404
  26   2.0000      -0.914607       -24.8877
  27   2.0000      -0.907509       -24.6946
  28   2.0000      -0.867126       -23.5957
  29   2.0000      -0.850955       -23.1557
  30   2.0000      -0.845327       -23.0025
  31   2.0000      -0.820490       -22.3267
  32   2.0000      -0.784084       -21.3360
  33   2.0000      -0.775218       -21.0948
  34   2.0000      -0.705519       -19.1981
  35   2.0000      -0.703190       -19.1348
  36   2.0000      -0.694072       -18.8867
  37   2.0000      -0.658846       -17.9281
  38   2.0000      -0.640973       -17.4418
  39   2.0000      -0.616786       -16.7836
  40   2.0000      -0.599423       -16.3111
  41   2.0000      -0.579147       -15.7594
  42   2.0000      -0.570701       -15.5296
  43   2.0000      -0.548200       -14.9173
  44   2.0000      -0.544498       -14.8166
  45   2.0000      -0.524564       -14.2741
  46   2.0000      -0.518545       -14.1103
  47   2.0000      -0.514104       -13.9895
  48   2.0000      -0.507114       -13.7993
  49   2.0000      -0.503610       -13.7039
  50   2.0000      -0.486352       -13.2343
  51   2.0000      -0.481097       -13.0913
  52   2.0000      -0.474545       -12.9130
  53   2.0000      -0.470030       -12.7902
  54   2.0000      -0.462809       -12.5937
  55   2.0000      -0.448200       -12.1961
  56   2.0000      -0.440833       -11.9957
  57   2.0000      -0.432616       -11.7721
  58   2.0000      -0.429838       -11.6965
  59   2.0000      -0.423321       -11.5192
  60   2.0000      -0.414541       -11.2802
  61   2.0000      -0.410725       -11.1764
  62   2.0000      -0.406472       -11.0607
  63   2.0000      -0.351034        -9.5521
  64   2.0000      -0.330152        -8.9839
  65   2.0000      -0.327232        -8.9044
  66   2.0000      -0.293525        -7.9872
  67   0.0000       0.029196         0.7945
  68   0.0000       0.066661         1.8139
  69   0.0000       0.106205         2.8900
  70   0.0000       0.119572         3.2537
  71   0.0000       0.130458         3.5499

MULLIKEN ATOMIC CHARGES
-----------------------
   0 S :    0.097523
   1 C :   -0.121766
   2 C :   -0.087072
   3 C :    0.032036
   4 C :   -0.131038
   5 H :   -0.002140
   6 C :    0.054857
   7 H :    0.020638
   8 H :    0.015075
   9 C :   -0.095094
  10 H :    0.014554
  11 H :    0.030018
  12 C :   -0.010182
  13 H :    0.036139
  14 H :    0.016495
  15 H :    0.035587
  16 S :    0.095933
  17 C :   -0.077842
  18 C :   -0.069427
  19 C :   -0.031069
  20 C :   -0.106335
  21 H :    0.047087
  22 C :    0.035125
  23 H :    0.014030
  24 H :    0.033722
  25 C :   -0.071301
  26 H :    0.028339
  27 H :    0.029887
  28 C :   -0.046000
  29 H :    0.026946
  30 H :    0.038261
  31 H :    0.027118
  32 H :    0.069170
  33 H :    0.050728
Sum of atomic charges:   -0.0000000

LOEWDIN ATOMIC CHARGES
----------------------
   0 S :    0.401283
   1 C :   -0.196359
   2 C :   -0.063646
   3 C :   -0.060207
   4 C :   -0.174021
   5 H :    0.027655
   6 C :   -0.043912
   7 H :    0.030124
   8 H :    0.030403
   9 C :   -0.034711
  10 H :    0.018875
  11 H :    0.023413
  12 C :   -0.056172
  13 H :    0.035140
  14 H :    0.012926
  15 H :    0.023158
  16 S :    0.406046
  17 C :   -0.188612
  18 C :   -0.083503
  19 C :   -0.066753
  20 C :   -0.189353
  21 H :    0.043442
  22 C :   -0.045112
  23 H :    0.021601
  24 H :    0.033808
  25 C :   -0.032729
  26 H :    0.022744
  27 H :    0.019173
  28 C :   -0.059071
  29 H :    0.025626
  30 H :    0.026385
  31 H :    0.023136
  32 H :    0.040274
  33 H :    0.028949

  Mayer bond orders larger than 0.100000
B(  0-S ,  1-C ) :   1.1421 B(  0-S ,  4-C ) :   1.1468 B(  1-C ,  2-C ) :   1.5838
B(  1-C , 32-H ) :   0.9648 B(  2-C ,  3-C ) :   1.2121 B(  2-C ,  6-C ) :   1.0633
B(  3-C ,  4-C ) :   1.5881 B(  3-C ,  5-H ) :   1.0132 B(  4-C , 20-C ) :   1.0068
B(  6-C ,  7-H ) :   0.9384 B(  6-C ,  8-H ) :   0.9336 B(  6-C ,  9-C ) :   1.0696
B(  9-C , 10-H ) :   0.9560 B(  9-C , 11-H ) :   0.9571 B(  9-C , 12-C ) :   1.0761
B( 12-C , 13-H ) :   0.9726 B( 12-C , 14-H ) :   0.9769 B( 12-C , 15-H ) :   0.9709
B( 16-S , 17-C ) :   1.1659 B( 16-S , 20-C ) :   1.1148 B( 17-C , 18-C ) :   1.6099
B( 17-C , 33-H ) :   0.9711 B( 18-C , 19-C ) :   1.2277 B( 18-C , 21-H ) :   0.9801
B( 19-C , 20-C ) :   1.6282 B( 19-C , 22-C ) :   1.0382 B( 22-C , 23-H ) :   0.9387
B( 22-C , 24-H ) :   0.9286 B( 22-C , 25-C ) :   1.0648 B( 25-C , 26-H ) :   0.9526
B( 25-C , 27-H ) :   0.9602 B( 25-C , 28-C ) :   1.0828 B( 28-C , 29-H ) :   0.9738
B( 28-C , 30-H ) :   0.9768 B( 28-C , 31-H ) :   0.9744

Dispersion correction           -0.013905994
FINAL SINGLE POINT ENERGY     -1339.864680585649

DIPOLE MOMENT
-------------
                                X             Y             Z
Electronic contribution:    -18.21362      -0.69866      -5.45722
Nuclear contribution   :     18.42349       0.68720       5.50540
                        -----------------------------------------
Total Dipole Moment    :      0.20986      -0.01146       0.04817
                        -----------------------------------------
Magnitude (a.u.)       :      0.21563
Magnitude (Debye)      :      0.54808

Rotational constants in cm-1:     0.019818     0.007752     0.006483
Rotational constants in MHz :   594.136075   232.391636   194.364600

                             ****ORCA TERMINATED NORMALLY****
TOTAL RUN TIME: 0 days 0 hours 0 minutes 20 seconds 916 msec
