                         Program Version 4.2.1 -  RELEASE  -
|  1> ! wB97X-D3 SP def2-SVP
|  2> %pal
|  3> nprocs 24
|  4> end
|  5>
|  6> * xyz 0 1
|  7> S 	 -72.8134 	 6.66208 	 -110.114
|  8> C 	 -73.3824 	 7.6651 	 -108.823
|  9> C 	 -72.3968 	 7.9374 	 -107.895
| 10> C 	 -71.1354 	 7.30328 	 -108.204
| 11> C 	 -71.1792 	 6.61141 	 -109.416
| 12> H 	 -70.2013 	 7.47527 	 -107.671
| 13> C 	 -72.5254 	 8.70989 	 -106.639
| 14> H 	 -71.9638 	 9.65969 	 -106.752
| 15> H 	 -72.0513 	 8.15347 	 -105.881
| 16> C 	 -73.9907 	 8.9417 	 -106.166
| 17> H 	 -74.5162 	 9.46166 	 -107.067
| 18> H 	 -74.3985 	 7.89828 	 -106.104
| 19> C 	 -74.0905 	 9.7581 	 -104.881
| 20> H 	 -73.3787 	 10.5839 	 -104.872
| 21> H 	 -75.1537 	 10.0356 	 -104.805
| 22> H 	 -73.9253 	 9.19143 	 -103.965
| 23> S 	 -70.7879 	 4.6913 	 -111.359
| 24> C 	 -69.1907 	 4.12385 	 -111.657
| 25> C 	 -68.2634 	 4.69623 	 -110.843
| 26> C 	 -68.8377 	 5.62964 	 -109.874
| 27> C 	 -70.2454 	 5.73452 	 -110.053
| 28> H 	 -67.2292 	 4.43358 	 -110.937
| 29> C 	 -67.8741 	 6.47726 	 -108.952
| 30> H 	 -68.2498 	 7.50063 	 -108.771
| 31> H 	 -66.9466 	 6.69083 	 -109.461
| 32> C 	 -67.6235 	 5.79947 	 -107.625
| 33> H 	 -68.5105 	 5.449 	 -107.122
| 34> H 	 -67.0578 	 6.53974 	 -107.016
| 35> C 	 -66.8042 	 4.49438 	 -107.709
| 36> H 	 -65.8671 	 4.70513 	 -108.148
| 37> H 	 -67.2015 	 3.67598 	 -108.267
| 38> H 	 -66.7141 	 4.20421 	 -106.64
| 39> H 	 -74.3704 	 8.20426 	 -108.907
| 40> H 	 -69.0073 	 3.32927 	 -112.415
| 41> *
| 42>
| 43>                          ****END OF INPUT****

CARTESIAN COORDINATES (ANGSTROEM)
---------------------------------
  S    -72.813400    6.662080  -110.114000
  C    -73.382400    7.665100  -108.823000
  C    -72.396800    7.937400  -107.895000
  C    -71.135400    7.303280  -108.204000
  C    -71.179200    6.611410  -109.416000
  H    -70.201300    7.475270  -107.671000
  C    -72.525400    8.709890  -106.639000
  H    -71.963800    9.659690  -106.752000
  H    -72.051300    8.153470  -105.881000
  C    -73.990700    8.941700  -106.166000
  H    -74.516200    9.461660  -107.067000
  H    -74.398500    7.898280  -106.104000
  C    -74.090500    9.758100  -104.881000
  H    -73.378700   10.583900  -104.872000
  H    -75.153700   10.035600  -104.805000
  H    -73.925300    9.191430  -103.965000
  S    -70.787900    4.691300  -111.359000
  C    -69.190700    4.123850  -111.657000
  C    -68.263400    4.696230  -110.843000
  C    -68.837700    5.629640  -109.874000
  C    -70.245400    5.734520  -110.053000
  H    -67.229200    4.433580  -110.937000
  C    -67.874100    6.477260  -108.952000
  H    -68.249800    7.500630  -108.771000
  H    -66.946600    6.690830  -109.461000
  C    -67.623500    5.799470  -107.625000
  H    -68.510500    5.449000  -107.122000
  H    -67.057800    6.539740  -107.016000
  C    -66.804200    4.494380  -107.709000
  H    -65.867100    4.705130  -108.148000
  H    -67.201500    3.675980  -108.267000
  H    -66.714100    4.204210  -106.640000
  H    -74.370400    8.204260  -108.907000
  H    -69.007300    3.329270  -112.415000

 Total Charge           Charge          ....    0
 Multiplicity           Mult            ....    1
 Number of Electrons    NEL             ....  134
 Basis Dimension        Dim             ....  322

ORBITAL ENERGIES
----------------

  NO   OCC          E(Eh)            E(eV)
   0   2.0000     -88.966210     -2420.8937
   1   2.0000     -88.961893     -2420.7762
   2   2.0000     -10.331697      -281.1398
   3   2.0000     -10.330646      -281.1112
   4   2.0000     -10.317456      -280.7523
   5   2.0000     -10.313692      -280.6498
   6   2.0000     -10.313219      -280.6370
   7   2.0000     -10.299364      -280.2599
   8   2.0000     -10.298615      -280.2396
   9   2.0000     -10.297243      -280.2022
  10   2.0000     -10.295899      -280.1657
  11   2.0000     -10.294432      -280.1257
  12   2.0000     -10.287577      -279.9392
  13   2.0000     -10.285860      -279.8925
  14   2.0000     -10.282076      -279.7895
  15   2.0000     -10.271787      -279.5095
  16   2.0000      -8.081510      -219.9091
  17   2.0000      -8.076906      -219.7838
  18   2.0000      -6.040039      -164.3578
  19   2.0000      -6.035980      -164.2474
  20   2.0000      -6.035558      -164.2359
  21   2.0000      -6.032176      -164.1438
  22   2.0000      -6.031436      -164.1237
  23   2.0000      -6.027458      -164.0155
  24   2.0000      -1.005842       -27.3704
  25   2.0000      -0.981422       -26.7059
  26   2.0000      -0.912653       -24.8345
  27   2.0000      -0.910378       -24.7726
  28   2.0000      -0.869593       -23.6628
  29   2.0000      -0.852699       -23.2031
  30   2.0000      -0.842379       -22.9223
  31   2.0000      -0.812604       -22.1121
  32   2.0000      -0.787960       -21.4415
  33   2.0000      -0.769691       -20.9444
  34   2.0000      -0.710071       -19.3220
  35   2.0000      -0.697817       -18.9886
  36   2.0000      -0.684357       -18.6223
  37   2.0000      -0.663969       -18.0675
  38   2.0000      -0.630287       -17.1510
  39   2.0000      -0.612112       -16.6564
  40   2.0000      -0.600344       -16.3362
  41   2.0000      -0.570284       -15.5182
  42   2.0000      -0.561902       -15.2901
  43   2.0000      -0.552982       -15.0474
  44   2.0000      -0.544133       -14.8066
  45   2.0000      -0.525620       -14.3028
  46   2.0000      -0.523724       -14.2513
  47   2.0000      -0.506876       -13.7928
  48   2.0000      -0.502714       -13.6795
  49   2.0000      -0.496626       -13.5139
  50   2.0000      -0.493051       -13.4166
  51   2.0000      -0.486005       -13.2249
  52   2.0000      -0.482386       -13.1264
  53   2.0000      -0.464416       -12.6374
  54   2.0000      -0.457835       -12.4583
  55   2.0000      -0.449578       -12.2336
  56   2.0000      -0.442098       -12.0301
  57   2.0000      -0.440639       -11.9904
  58   2.0000      -0.427408       -11.6304
  59   2.0000      -0.421673       -11.4743
  60   2.0000      -0.418799       -11.3961
  61   2.0000      -0.410754       -11.1772
  62   2.0000      -0.406904       -11.0724
  63   2.0000      -0.366238        -9.9658
  64   2.0000      -0.335685        -9.1345
  65   2.0000      -0.324507        -8.8303
  66   2.0000      -0.277635        -7.5548
  67   0.0000       0.017764         0.4834
  68   0.0000       0.083544         2.2734
  69   0.0000       0.101960         2.7745
  70   0.0000       0.118007         3.2111
  71   0.0000       0.135112         3.6766

MULLIKEN ATOMIC CHARGES
-----------------------
   0 S :    0.078074
   1 C :   -0.147145
   2 C :   -0.092253
   3 C :   -0.010254
   4 C :   -0.104084
   5 H :    0.016511
   6 C :    0.071981
   7 H :    0.038508
   8 H :    0.018921
   9 C :   -0.159303
  10 H :    0.043214
  11 H :    0.046878
  12 C :   -0.007897
  13 H :    0.034478
  14 H :    0.038371
  15 H :    0.030853
  16 S :    0.100152
  17 C :   -0.098771
  18 C :   -0.019454
  19 C :   -0.066802
  20 C :   -0.114059
  21 H :    0.013669
  22 C :    0.055118
  23 H :    0.029318
  24 H :    0.022491
  25 C :   -0.082620
  26 H :    0.038281
  27 H :    0.035084
  28 C :   -0.044331
  29 H :    0.010548
  30 H :    0.039457
  31 H :    0.037412
  32 H :    0.074837
  33 H :    0.072813
Sum of atomic charges:    0.0000000

LOEWDIN ATOMIC CHARGES
----------------------
   0 S :    0.388587
   1 C :   -0.219168
   2 C :   -0.063180
   3 C :   -0.066876
   4 C :   -0.167424
   5 H :    0.032407
   6 C :   -0.038081
   7 H :    0.034965
   8 H :    0.025230
   9 C :   -0.050349
  10 H :    0.028293
  11 H :    0.031687
  12 C :   -0.067687
  13 H :    0.026792
  14 H :    0.033712
  15 H :    0.026978
  16 S :    0.407860
  17 C :   -0.196333
  18 C :   -0.073328
  19 C :   -0.046932
  20 C :   -0.198846
  21 H :    0.028740
  22 C :   -0.032763
  23 H :    0.029574
  24 H :    0.029176
  25 C :   -0.042090
  26 H :    0.024945
  27 H :    0.028334
  28 C :   -0.060927
  29 H :    0.013019
  30 H :    0.021796
  31 H :    0.033350
  32 H :    0.040161
  33 H :    0.038377

  Mayer bond orders larger than 0.100000
B(  0-S ,  1-C ) :   1.1235 B(  0-S ,  4-C ) :   1.1341 B(  1-C ,  2-C ) :   1.6247
B(  1-C , 32-H ) :   0.9539 B(  2-C ,  3-C ) :   1.2392 B(  2-C ,  6-C ) :   1.0254
B(  3-C ,  4-C ) :   1.5618 B(  3-C ,  5-H ) :   0.9862 B(  4-C , 20-C ) :   1.1149
B(  6-C ,  7-H ) :   0.9204 B(  6-C ,  8-H ) :   0.9405 B(  6-C ,  9-C ) :   1.0820
B(  9-C , 10-H ) :   0.9496 B(  9-C , 11-H ) :   0.9551 B(  9-C , 12-C ) :   1.0757
B( 12-C , 13-H ) :   0.9742 B( 12-C , 14-H ) :   0.9716 B( 12-C , 15-H ) :   0.9721
B( 16-S , 17-C ) :   1.1506 B( 16-S , 20-C ) :   1.1354 B( 17-C , 18-C ) :   1.6158
B( 17-C , 33-H ) :   0.9621 B( 18-C , 19-C ) :   1.2388 B( 18-C , 21-H ) :   0.9929
B( 19-C , 20-C ) :   1.5783 B( 19-C , 22-C ) :   1.0210 B( 22-C , 23-H ) :   0.9411
B( 22-C , 24-H ) :   0.9415 B( 22-C , 25-C ) :   1.0723 B( 25-C , 26-H ) :   0.9575
B( 25-C , 27-H ) :   0.9546 B( 25-C , 28-C ) :   1.0785 B( 28-C , 29-H ) :   0.9749
B( 28-C , 30-H ) :   0.9736 B( 28-C , 31-H ) :   0.9749

Dispersion correction           -0.013937078
FINAL SINGLE POINT ENERGY     -1339.883895018576

DIPOLE MOMENT
-------------
                                X             Y             Z
Electronic contribution:     -7.61717      -9.90100     -24.91809
Nuclear contribution   :      8.07991      10.14033      25.39568
                        -----------------------------------------
Total Dipole Moment    :      0.46274       0.23933       0.47759
                        -----------------------------------------
Magnitude (a.u.)       :      0.70675
Magnitude (Debye)      :      1.79642

Rotational constants in cm-1:     0.021410     0.007788     0.005906
Rotational constants in MHz :   641.866068   233.484325   177.067786

                             ****ORCA TERMINATED NORMALLY****
TOTAL RUN TIME: 0 days 0 hours 0 minutes 21 seconds 290 msec
