                         Program Version 4.2.1 -  RELEASE  -
|  1> ! wB97X-D3 SP def2-SVP
|  2> %pal
|  3> nprocs 24
|  4> end
|  5>
|  6> * xyz 0 1
|  7> S 	 19.7306 	 -5.74716 	 -115.938
|  8> C 	 21.4183 	 -5.50658 	 -115.378
|  9> C 	 22.1821 	 -4.97391 	 -116.372
| 10> C 	 21.4815 	 -4.81323 	 -117.582
| 11> C 	 20.176 	 -5.18345 	 -117.533
| 12> H 	 21.8407 	 -4.32714 	 -118.51
| 13> C 	 23.6553 	 -4.60275 	 -116.142
| 14> H 	 23.8925 	 -4.35203 	 -115.063
| 15> H 	 23.796 	 -3.63798 	 -116.71
| 16> C 	 24.6039 	 -5.75691 	 -116.691
| 17> H 	 24.4505 	 -5.88905 	 -117.739
| 18> H 	 25.603 	 -5.48771 	 -116.712
| 19> C 	 24.4372 	 -7.07205 	 -115.85
| 20> H 	 23.5335 	 -7.6112 	 -116.102
| 21> H 	 25.243 	 -7.6828 	 -116.05
| 22> H 	 24.45 	 -6.89425 	 -114.772
| 23> S 	 19.5539 	 -5.81729 	 -120.129
| 24> C 	 17.9928 	 -5.41421 	 -120.76
| 25> C 	 17.3758 	 -4.52003 	 -119.912
| 26> C 	 18.0075 	 -4.26593 	 -118.641
| 27> C 	 19.1785 	 -5.10298 	 -118.572
| 28> H 	 16.4981 	 -3.96551 	 -120.14
| 29> C 	 17.5264 	 -3.31393 	 -117.486
| 30> H 	 18.3875 	 -2.68717 	 -117.367
| 31> H 	 17.4817 	 -3.88178 	 -116.568
| 32> C 	 16.3211 	 -2.35167 	 -117.628
| 33> H 	 15.4167 	 -2.90287 	 -117.819
| 34> H 	 16.4752 	 -1.65467 	 -118.509
| 35> C 	 16.0748 	 -1.41669 	 -116.434
| 36> H 	 16.9498 	 -0.862078 	 -116.073
| 37> H 	 15.7683 	 -1.91392 	 -115.516
| 38> H 	 15.2981 	 -0.679409 	 -116.651
| 39> H 	 21.9055 	 -5.83325 	 -114.41
| 40> H 	 17.6525 	 -5.74892 	 -121.678
| 41> *
| 42>
| 43>                          ****END OF INPUT****

CARTESIAN COORDINATES (ANGSTROEM)
---------------------------------
  S     19.730600   -5.747160  -115.938000
  C     21.418300   -5.506580  -115.378000
  C     22.182100   -4.973910  -116.372000
  C     21.481500   -4.813230  -117.582000
  C     20.176000   -5.183450  -117.533000
  H     21.840700   -4.327140  -118.510000
  C     23.655300   -4.602750  -116.142000
  H     23.892500   -4.352030  -115.063000
  H     23.796000   -3.637980  -116.710000
  C     24.603900   -5.756910  -116.691000
  H     24.450500   -5.889050  -117.739000
  H     25.603000   -5.487710  -116.712000
  C     24.437200   -7.072050  -115.850000
  H     23.533500   -7.611200  -116.102000
  H     25.243000   -7.682800  -116.050000
  H     24.450000   -6.894250  -114.772000
  S     19.553900   -5.817290  -120.129000
  C     17.992800   -5.414210  -120.760000
  C     17.375800   -4.520030  -119.912000
  C     18.007500   -4.265930  -118.641000
  C     19.178500   -5.102980  -118.572000
  H     16.498100   -3.965510  -120.140000
  C     17.526400   -3.313930  -117.486000
  H     18.387500   -2.687170  -117.367000
  H     17.481700   -3.881780  -116.568000
  C     16.321100   -2.351670  -117.628000
  H     15.416700   -2.902870  -117.819000
  H     16.475200   -1.654670  -118.509000
  C     16.074800   -1.416690  -116.434000
  H     16.949800   -0.862078  -116.073000
  H     15.768300   -1.913920  -115.516000
  H     15.298100   -0.679409  -116.651000
  H     21.905500   -5.833250  -114.410000
  H     17.652500   -5.748920  -121.678000

 Total Charge           Charge          ....    0
 Multiplicity           Mult            ....    1
 Number of Electrons    NEL             ....  134
 Basis Dimension        Dim             ....  322

ORBITAL ENERGIES
----------------

  NO   OCC          E(Eh)            E(eV)
   0   2.0000     -88.966677     -2420.9064
   1   2.0000     -88.964638     -2420.8509
   2   2.0000     -10.327064      -281.0137
   3   2.0000     -10.324775      -280.9514
   4   2.0000     -10.314904      -280.6828
   5   2.0000     -10.314031      -280.6590
   6   2.0000     -10.312730      -280.6236
   7   2.0000     -10.304053      -280.3876
   8   2.0000     -10.296923      -280.1935
   9   2.0000     -10.296182      -280.1734
  10   2.0000     -10.296082      -280.1706
  11   2.0000     -10.292854      -280.0828
  12   2.0000     -10.290802      -280.0269
  13   2.0000     -10.284018      -279.8424
  14   2.0000     -10.280698      -279.7520
  15   2.0000     -10.271349      -279.4976
  16   2.0000      -8.081462      -219.9078
  17   2.0000      -8.078540      -219.8282
  18   2.0000      -6.039942      -164.3552
  19   2.0000      -6.037196      -164.2804
  20   2.0000      -6.035965      -164.2469
  21   2.0000      -6.033205      -164.1718
  22   2.0000      -6.032278      -164.1466
  23   2.0000      -6.029156      -164.0617
  24   2.0000      -1.005653       -27.3652
  25   2.0000      -0.982064       -26.7233
  26   2.0000      -0.904310       -24.6075
  27   2.0000      -0.902157       -24.5489
  28   2.0000      -0.866351       -23.5746
  29   2.0000      -0.850011       -23.1300
  30   2.0000      -0.842025       -22.9127
  31   2.0000      -0.810791       -22.0627
  32   2.0000      -0.784723       -21.3534
  33   2.0000      -0.772672       -21.0255
  34   2.0000      -0.712506       -19.3883
  35   2.0000      -0.706662       -19.2292
  36   2.0000      -0.695371       -18.9220
  37   2.0000      -0.656473       -17.8635
  38   2.0000      -0.630030       -17.1440
  39   2.0000      -0.614511       -16.7217
  40   2.0000      -0.600920       -16.3519
  41   2.0000      -0.566077       -15.4037
  42   2.0000      -0.562967       -15.3191
  43   2.0000      -0.545350       -14.8397
  44   2.0000      -0.536560       -14.6005
  45   2.0000      -0.529331       -14.4038
  46   2.0000      -0.512682       -13.9508
  47   2.0000      -0.508173       -13.8281
  48   2.0000      -0.504114       -13.7176
  49   2.0000      -0.489908       -13.3311
  50   2.0000      -0.480989       -13.0884
  51   2.0000      -0.477506       -12.9936
  52   2.0000      -0.473409       -12.8821
  53   2.0000      -0.467805       -12.7296
  54   2.0000      -0.460008       -12.5175
  55   2.0000      -0.454208       -12.3596
  56   2.0000      -0.446197       -12.1416
  57   2.0000      -0.431869       -11.7517
  58   2.0000      -0.430760       -11.7216
  59   2.0000      -0.427318       -11.6279
  60   2.0000      -0.423149       -11.5145
  61   2.0000      -0.422625       -11.5002
  62   2.0000      -0.413864       -11.2618
  63   2.0000      -0.342714        -9.3257
  64   2.0000      -0.332431        -9.0459
  65   2.0000      -0.328531        -8.9398
  66   2.0000      -0.289375        -7.8743
  67   0.0000       0.030777         0.8375
  68   0.0000       0.065491         1.7821
  69   0.0000       0.106152         2.8885
  70   0.0000       0.118049         3.2123
  71   0.0000       0.136778         3.7219

MULLIKEN ATOMIC CHARGES
-----------------------
   0 S :    0.100995
   1 C :   -0.144426
   2 C :   -0.071382
   3 C :    0.016629
   4 C :   -0.169347
   5 H :    0.021353
   6 C :    0.011550
   7 H :    0.041399
   8 H :    0.036610
   9 C :   -0.030377
  10 H :    0.020066
  11 H :    0.009229
  12 C :   -0.037987
  13 H :    0.049266
  14 H :    0.016548
  15 H :    0.024439
  16 S :    0.114801
  17 C :   -0.051468
  18 C :   -0.020757
  19 C :   -0.044986
  20 C :   -0.172080
  21 H :    0.002966
  22 C :    0.088750
  23 H :    0.030855
  24 H :    0.033545
  25 C :   -0.082120
  26 H :    0.034858
  27 H :    0.040150
  28 C :   -0.056608
  29 H :    0.028121
  30 H :    0.026602
  31 H :    0.038484
  32 H :    0.063399
  33 H :    0.030923
Sum of atomic charges:    0.0000000

LOEWDIN ATOMIC CHARGES
----------------------
   0 S :    0.388617
   1 C :   -0.196991
   2 C :   -0.068836
   3 C :   -0.075397
   4 C :   -0.190569
   5 H :    0.036806
   6 C :   -0.030960
   7 H :    0.033431
   8 H :    0.034355
   9 C :   -0.030214
  10 H :    0.022734
  11 H :    0.012632
  12 C :   -0.058102
  13 H :    0.028683
  14 H :    0.016388
  15 H :    0.024204
  16 S :    0.421997
  17 C :   -0.181955
  18 C :   -0.068601
  19 C :   -0.042780
  20 C :   -0.207693
  21 H :    0.023227
  22 C :   -0.034728
  23 H :    0.035680
  24 H :    0.027751
  25 C :   -0.042788
  26 H :    0.021528
  27 H :    0.032204
  28 C :   -0.068876
  29 H :    0.026398
  30 H :    0.023712
  31 H :    0.030320
  32 H :    0.042344
  33 H :    0.015479

  Mayer bond orders larger than 0.100000
B(  0-S ,  1-C ) :   1.1125 B(  0-S ,  4-C ) :   1.1431 B(  1-C ,  2-C ) :   1.6508
B(  1-C , 32-H ) :   0.9570 B(  2-C ,  3-C ) :   1.2248 B(  2-C ,  6-C ) :   1.0070
B(  3-C ,  4-C ) :   1.6085 B(  3-C ,  5-H ) :   0.9876 B(  4-C , 20-C ) :   1.0301
B(  6-C ,  7-H ) :   0.9551 B(  6-C ,  8-H ) :   0.9438 B(  6-C ,  9-C ) :   1.0604
B(  9-C , 10-H ) :   0.9562 B(  9-C , 11-H ) :   0.9612 B(  9-C , 12-C ) :   1.0668
B( 12-C , 13-H ) :   0.9760 B( 12-C , 14-H ) :   0.9733 B( 12-C , 15-H ) :   0.9766
B( 16-S , 17-C ) :   1.1581 B( 16-S , 20-C ) :   1.1675 B( 17-C , 18-C ) :   1.5559
B( 17-C , 20-C ) :   0.1094 B( 17-C , 33-H ) :   0.9836 B( 18-C , 19-C ) :   1.2931
B( 18-C , 21-H ) :   0.9885 B( 19-C , 20-C ) :   1.5323 B( 19-C , 22-C ) :   1.0113
B( 22-C , 23-H ) :   0.9247 B( 22-C , 24-H ) :   0.9371 B( 22-C , 25-C ) :   1.0691
B( 25-C , 26-H ) :   0.9533 B( 25-C , 27-H ) :   0.9551 B( 25-C , 28-C ) :   1.0854
B( 28-C , 29-H ) :   0.9744 B( 28-C , 30-H ) :   0.9736 B( 28-C , 31-H ) :   0.9743

Dispersion correction           -0.014280688
FINAL SINGLE POINT ENERGY     -1339.869905759110

DIPOLE MOMENT
-------------
                                X             Y             Z
Electronic contribution:     -5.08027     -10.54660      -9.80023
Nuclear contribution   :      5.25533      10.98629       9.80980
                        -----------------------------------------
Total Dipole Moment    :      0.17506       0.43969       0.00957
                        -----------------------------------------
Magnitude (a.u.)       :      0.47335
Magnitude (Debye)      :      1.20317

Rotational constants in cm-1:     0.020649     0.007749     0.006256
Rotational constants in MHz :   619.050463   232.297608   187.560061

                             ****ORCA TERMINATED NORMALLY****
TOTAL RUN TIME: 0 days 0 hours 0 minutes 20 seconds 925 msec
