                         Program Version 4.2.1 -  RELEASE  -
|  1> ! wB97X-D3 SP def2-SVP
|  2> %pal
|  3> nprocs 24
|  4> end
|  5>
|  6> * xyz 0 1
|  7> S 	 -122.099 	 34.9775 	 -122.744
|  8> C 	 -120.339 	 35.08 	 -122.993
|  9> C 	 -119.635 	 34.4343 	 -122.03
| 10> C 	 -120.455 	 34.0284 	 -120.927
| 11> C 	 -121.821 	 34.3271 	 -121.167
| 12> H 	 -120.24 	 33.4905 	 -119.961
| 13> C 	 -118.134 	 34.0594 	 -122.163
| 14> H 	 -118.006 	 33.5213 	 -123.134
| 15> H 	 -117.761 	 33.3323 	 -121.455
| 16> C 	 -117.202 	 35.2908 	 -122.21
| 17> H 	 -116.257 	 34.9882 	 -122.557
| 18> H 	 -117.669 	 35.916 	 -122.862
| 19> C 	 -117.046 	 35.7751 	 -120.747
| 20> H 	 -116.451 	 35.0886 	 -120.115
| 21> H 	 -116.634 	 36.8201 	 -120.619
| 22> H 	 -117.968 	 35.8476 	 -120.257
| 23> S 	 -123.72 	 32.8085 	 -119.871
| 24> C 	 -124.371 	 33.3956 	 -118.343
| 25> C 	 -123.992 	 34.6687 	 -118.104
| 26> C 	 -123.047 	 35.178 	 -119.114
| 27> C 	 -122.856 	 34.2938 	 -120.196
| 28> H 	 -124.382 	 35.1726 	 -117.261
| 29> C 	 -122.444 	 36.5883 	 -119.022
| 30> H 	 -123.167 	 37.2562 	 -119.415
| 31> H 	 -121.671 	 36.6124 	 -119.805
| 32> C 	 -121.991 	 37.052 	 -117.615
| 33> H 	 -121.293 	 36.2333 	 -117.214
| 34> H 	 -122.873 	 36.9674 	 -117.038
| 35> C 	 -121.449 	 38.4628 	 -117.45
| 36> H 	 -122.142 	 39.2286 	 -117.762
| 37> H 	 -120.449 	 38.5729 	 -118.002
| 38> H 	 -121.153 	 38.5164 	 -116.398
| 39> H 	 -119.808 	 35.3043 	 -123.953
| 40> H 	 -125.043 	 32.9551 	 -117.681
| 41> *
| 42>
| 43>                          ****END OF INPUT****

CARTESIAN COORDINATES (ANGSTROEM)
---------------------------------
  S    -122.099000   34.977500  -122.744000
  C    -120.339000   35.080000  -122.993000
  C    -119.635000   34.434300  -122.030000
  C    -120.455000   34.028400  -120.927000
  C    -121.821000   34.327100  -121.167000
  H    -120.240000   33.490500  -119.961000
  C    -118.134000   34.059400  -122.163000
  H    -118.006000   33.521300  -123.134000
  H    -117.761000   33.332300  -121.455000
  C    -117.202000   35.290800  -122.210000
  H    -116.257000   34.988200  -122.557000
  H    -117.669000   35.916000  -122.862000
  C    -117.046000   35.775100  -120.747000
  H    -116.451000   35.088600  -120.115000
  H    -116.634000   36.820100  -120.619000
  H    -117.968000   35.847600  -120.257000
  S    -123.720000   32.808500  -119.871000
  C    -124.371000   33.395600  -118.343000
  C    -123.992000   34.668700  -118.104000
  C    -123.047000   35.178000  -119.114000
  C    -122.856000   34.293800  -120.196000
  H    -124.382000   35.172600  -117.261000
  C    -122.444000   36.588300  -119.022000
  H    -123.167000   37.256200  -119.415000
  H    -121.671000   36.612400  -119.805000
  C    -121.991000   37.052000  -117.615000
  H    -121.293000   36.233300  -117.214000
  H    -122.873000   36.967400  -117.038000
  C    -121.449000   38.462800  -117.450000
  H    -122.142000   39.228600  -117.762000
  H    -120.449000   38.572900  -118.002000
  H    -121.153000   38.516400  -116.398000
  H    -119.808000   35.304300  -123.953000
  H    -125.043000   32.955100  -117.681000

 Total Charge           Charge          ....    0
 Multiplicity           Mult            ....    1
 Number of Electrons    NEL             ....  134
 Basis Dimension        Dim             ....  322

ORBITAL ENERGIES
----------------

  NO   OCC          E(Eh)            E(eV)
   0   2.0000     -88.970640     -2421.0142
   1   2.0000     -88.962437     -2420.7910
   2   2.0000     -10.326801      -281.0065
   3   2.0000     -10.322008      -280.8761
   4   2.0000     -10.316420      -280.7240
   5   2.0000     -10.311899      -280.6010
   6   2.0000     -10.309217      -280.5281
   7   2.0000     -10.305092      -280.4158
   8   2.0000     -10.303245      -280.3656
   9   2.0000     -10.295450      -280.1534
  10   2.0000     -10.290339      -280.0144
  11   2.0000     -10.288410      -279.9619
  12   2.0000     -10.285052      -279.8705
  13   2.0000     -10.284610      -279.8585
  14   2.0000     -10.278984      -279.7054
  15   2.0000     -10.276684      -279.6428
  16   2.0000      -8.084976      -220.0034
  17   2.0000      -8.077042      -219.7875
  18   2.0000      -6.043447      -164.4506
  19   2.0000      -6.039605      -164.3460
  20   2.0000      -6.035736      -164.2407
  21   2.0000      -6.035726      -164.2404
  22   2.0000      -6.031452      -164.1241
  23   2.0000      -6.027713      -164.0224
  24   2.0000      -1.005754       -27.3679
  25   2.0000      -0.980995       -26.6942
  26   2.0000      -0.914292       -24.8791
  27   2.0000      -0.903181       -24.5768
  28   2.0000      -0.874935       -23.8082
  29   2.0000      -0.845033       -22.9945
  30   2.0000      -0.844025       -22.9671
  31   2.0000      -0.813853       -22.1461
  32   2.0000      -0.782004       -21.2794
  33   2.0000      -0.768620       -20.9152
  34   2.0000      -0.711100       -19.3500
  35   2.0000      -0.706666       -19.2294
  36   2.0000      -0.698112       -18.9966
  37   2.0000      -0.650534       -17.7019
  38   2.0000      -0.637479       -17.3467
  39   2.0000      -0.607618       -16.5341
  40   2.0000      -0.591837       -16.1047
  41   2.0000      -0.584870       -15.9151
  42   2.0000      -0.562942       -15.3184
  43   2.0000      -0.546673       -14.8757
  44   2.0000      -0.542928       -14.7738
  45   2.0000      -0.526558       -14.3284
  46   2.0000      -0.518286       -14.1033
  47   2.0000      -0.508218       -13.8293
  48   2.0000      -0.504867       -13.7381
  49   2.0000      -0.493675       -13.4336
  50   2.0000      -0.487305       -13.2603
  51   2.0000      -0.478304       -13.0153
  52   2.0000      -0.467734       -12.7277
  53   2.0000      -0.463664       -12.6169
  54   2.0000      -0.458700       -12.4819
  55   2.0000      -0.448817       -12.2129
  56   2.0000      -0.446442       -12.1483
  57   2.0000      -0.435973       -11.8634
  58   2.0000      -0.428886       -11.6706
  59   2.0000      -0.426257       -11.5990
  60   2.0000      -0.423117       -11.5136
  61   2.0000      -0.415025       -11.2934
  62   2.0000      -0.412482       -11.2242
  63   2.0000      -0.335798        -9.1375
  64   2.0000      -0.333953        -9.0873
  65   2.0000      -0.314702        -8.5635
  66   2.0000      -0.311045        -8.4640
  67   0.0000       0.040472         1.1013
  68   0.0000       0.052086         1.4173
  69   0.0000       0.101591         2.7644
  70   0.0000       0.122883         3.3438
  71   0.0000       0.132633         3.6091

MULLIKEN ATOMIC CHARGES
-----------------------
   0 S :    0.129820
   1 C :   -0.133281
   2 C :   -0.074059
   3 C :    0.036675
   4 C :   -0.216828
   5 H :    0.041431
   6 C :    0.007268
   7 H :    0.036752
   8 H :    0.020102
   9 C :    0.028031
  10 H :    0.019306
  11 H :    0.002109
  12 C :   -0.066284
  13 H :    0.029868
  14 H :    0.036867
  15 H :    0.015422
  16 S :    0.099669
  17 C :   -0.053190
  18 C :   -0.027296
  19 C :   -0.052135
  20 C :   -0.154263
  21 H :    0.010233
  22 C :    0.100775
  23 H :    0.022043
  24 H :    0.023981
  25 C :   -0.119847
  26 H :    0.040823
  27 H :    0.018934
  28 C :   -0.033125
  29 H :    0.042160
  30 H :    0.039861
  31 H :    0.038185
  32 H :    0.061969
  33 H :    0.028027
Sum of atomic charges:    0.0000000

LOEWDIN ATOMIC CHARGES
----------------------
   0 S :    0.414623
   1 C :   -0.202173
   2 C :   -0.064836
   3 C :   -0.058354
   4 C :   -0.211084
   5 H :    0.045972
   6 C :   -0.026505
   7 H :    0.033996
   8 H :    0.025020
   9 C :   -0.019207
  10 H :    0.018995
  11 H :    0.009026
  12 C :   -0.067747
  13 H :    0.027844
  14 H :    0.029825
  15 H :    0.015342
  16 S :    0.397802
  17 C :   -0.168397
  18 C :   -0.071277
  19 C :   -0.036624
  20 C :   -0.223946
  21 H :    0.025355
  22 C :   -0.035796
  23 H :    0.027767
  24 H :    0.029572
  25 C :   -0.047406
  26 H :    0.033583
  27 H :    0.014955
  28 C :   -0.065796
  29 H :    0.025431
  30 H :    0.034120
  31 H :    0.031809
  32 H :    0.036762
  33 H :    0.021351

  Mayer bond orders larger than 0.100000
B(  0-S ,  1-C ) :   1.1314 B(  0-S ,  4-C ) :   1.1599 B(  1-C ,  2-C ) :   1.6440
B(  1-C , 32-H ) :   0.9520 B(  2-C ,  3-C ) :   1.2182 B(  2-C ,  6-C ) :   1.0028
B(  3-C ,  4-C ) :   1.5762 B(  3-C ,  5-H ) :   0.9903 B(  4-C , 20-C ) :   1.0101
B(  6-C ,  7-H ) :   0.9438 B(  6-C ,  8-H ) :   0.9537 B(  6-C ,  9-C ) :   1.0720
B(  9-C , 10-H ) :   0.9555 B(  9-C , 11-H ) :   0.9584 B(  9-C , 12-C ) :   1.0661
B( 12-C , 13-H ) :   0.9752 B( 12-C , 14-H ) :   0.9739 B( 12-C , 15-H ) :   0.9791
B( 16-S , 17-C ) :   1.1466 B( 16-S , 20-C ) :   1.1200 B( 17-C , 18-C ) :   1.6524
B( 17-C , 33-H ) :   0.9672 B( 18-C , 19-C ) :   1.2046 B( 18-C , 21-H ) :   0.9929
B( 19-C , 20-C ) :   1.6129 B( 19-C , 22-C ) :   1.0399 B( 22-C , 23-H ) :   0.9309
B( 22-C , 24-H ) :   0.9302 B( 22-C , 25-C ) :   1.0506 B( 25-C , 26-H ) :   0.9590
B( 25-C , 27-H ) :   0.9496 B( 25-C , 28-C ) :   1.0921 B( 28-C , 29-H ) :   0.9717
B( 28-C , 30-H ) :   0.9733 B( 28-C , 31-H ) :   0.9712

Dispersion correction           -0.014479377
FINAL SINGLE POINT ENERGY     -1339.858495796001

DIPOLE MOMENT
-------------
                                X             Y             Z
Electronic contribution:    -21.66372     -16.25025     -10.93718
Nuclear contribution   :     22.05538      16.48152      11.31624
                        -----------------------------------------
Total Dipole Moment    :      0.39166       0.23127       0.37906
                        -----------------------------------------
Magnitude (a.u.)       :      0.59209
Magnitude (Debye)      :      1.50497

Rotational constants in cm-1:     0.016550     0.009307     0.007054
Rotational constants in MHz :   496.155016   279.014950   211.474029

                             ****ORCA TERMINATED NORMALLY****
TOTAL RUN TIME: 0 days 0 hours 0 minutes 21 seconds 834 msec
