                         Program Version 4.2.1 -  RELEASE  -
|  1> ! wB97X-D3 SP def2-SVP
|  2> %pal
|  3> nprocs 24
|  4> end
|  5>
|  6> * xyz 0 1
|  7> S 	 -31.6454 	 -50.2633 	 -76.5671
|  8> C 	 -30.4327 	 -49.6465 	 -77.6777
|  9> C 	 -30.1869 	 -48.3326 	 -77.4851
| 10> C 	 -31.1399 	 -47.7874 	 -76.5038
| 11> C 	 -32.0851 	 -48.6127 	 -76.0623
| 12> H 	 -31.0979 	 -46.7308 	 -76.2828
| 13> C 	 -29.0276 	 -47.5083 	 -78.0211
| 14> H 	 -28.3351 	 -47.6335 	 -77.2655
| 15> H 	 -29.413 	 -46.5302 	 -77.9137
| 16> C 	 -28.5391 	 -47.8083 	 -79.4095
| 17> H 	 -27.6435 	 -47.2201 	 -79.6532
| 18> H 	 -28.2757 	 -48.882 	 -79.3276
| 19> C 	 -29.5424 	 -47.5501 	 -80.5083
| 20> H 	 -30.5097 	 -48.0529 	 -80.358
| 21> H 	 -29.6793 	 -46.463 	 -80.4865
| 22> H 	 -29.1505 	 -47.8594 	 -81.5418
| 23> S 	 -33.3679 	 -49.4364 	 -73.717
| 24> C 	 -34.7244 	 -48.4973 	 -73.2223
| 25> C 	 -34.9429 	 -47.3977 	 -74.0268
| 26> C 	 -33.9774 	 -47.2397 	 -75.1172
| 27> C 	 -33.2057 	 -48.374 	 -75.2404
| 28> H 	 -35.8202 	 -46.7921 	 -73.9434
| 29> C 	 -33.9101 	 -45.9942 	 -76.0559
| 30> H 	 -33.5112 	 -46.3292 	 -77.0447
| 31> H 	 -32.9442 	 -45.5838 	 -75.5657
| 32> C 	 -35.1764 	 -45.0733 	 -76.0313
| 33> H 	 -35.2886 	 -44.6254 	 -74.9922
| 34> H 	 -36.0552 	 -45.6681 	 -76.1887
| 35> C 	 -35.0219 	 -43.8434 	 -77.0098
| 36> H 	 -35.9568 	 -43.2013 	 -76.9086
| 37> H 	 -34.7894 	 -44.0997 	 -78.0371
| 38> H 	 -34.1873 	 -43.2885 	 -76.699
| 39> H 	 -29.7946 	 -50.2311 	 -78.3045
| 40> H 	 -35.3507 	 -48.8505 	 -72.4782
| 41> *
| 42>
| 43>                          ****END OF INPUT****

CARTESIAN COORDINATES (ANGSTROEM)
---------------------------------
  S    -31.645400  -50.263300  -76.567100
  C    -30.432700  -49.646500  -77.677700
  C    -30.186900  -48.332600  -77.485100
  C    -31.139900  -47.787400  -76.503800
  C    -32.085100  -48.612700  -76.062300
  H    -31.097900  -46.730800  -76.282800
  C    -29.027600  -47.508300  -78.021100
  H    -28.335100  -47.633500  -77.265500
  H    -29.413000  -46.530200  -77.913700
  C    -28.539100  -47.808300  -79.409500
  H    -27.643500  -47.220100  -79.653200
  H    -28.275700  -48.882000  -79.327600
  C    -29.542400  -47.550100  -80.508300
  H    -30.509700  -48.052900  -80.358000
  H    -29.679300  -46.463000  -80.486500
  H    -29.150500  -47.859400  -81.541800
  S    -33.367900  -49.436400  -73.717000
  C    -34.724400  -48.497300  -73.222300
  C    -34.942900  -47.397700  -74.026800
  C    -33.977400  -47.239700  -75.117200
  C    -33.205700  -48.374000  -75.240400
  H    -35.820200  -46.792100  -73.943400
  C    -33.910100  -45.994200  -76.055900
  H    -33.511200  -46.329200  -77.044700
  H    -32.944200  -45.583800  -75.565700
  C    -35.176400  -45.073300  -76.031300
  H    -35.288600  -44.625400  -74.992200
  H    -36.055200  -45.668100  -76.188700
  C    -35.021900  -43.843400  -77.009800
  H    -35.956800  -43.201300  -76.908600
  H    -34.789400  -44.099700  -78.037100
  H    -34.187300  -43.288500  -76.699000
  H    -29.794600  -50.231100  -78.304500
  H    -35.350700  -48.850500  -72.478200

 Total Charge           Charge          ....    0
 Multiplicity           Mult            ....    1
 Number of Electrons    NEL             ....  134
 Basis Dimension        Dim             ....  322

ORBITAL ENERGIES
----------------

  NO   OCC          E(Eh)            E(eV)
   0   2.0000     -88.960598     -2420.7409
   1   2.0000     -88.956836     -2420.6386
   2   2.0000     -10.325396      -280.9683
   3   2.0000     -10.323083      -280.9054
   4   2.0000     -10.313827      -280.6535
   5   2.0000     -10.313404      -280.6420
   6   2.0000     -10.313096      -280.6336
   7   2.0000     -10.307094      -280.4703
   8   2.0000     -10.304746      -280.4064
   9   2.0000     -10.297574      -280.2112
  10   2.0000     -10.295300      -280.1494
  11   2.0000     -10.291023      -280.0330
  12   2.0000     -10.290683      -280.0237
  13   2.0000     -10.286871      -279.9200
  14   2.0000     -10.284476      -279.8548
  15   2.0000     -10.284071      -279.8438
  16   2.0000      -8.074762      -219.7255
  17   2.0000      -8.071650      -219.6407
  18   2.0000      -6.033410      -164.1774
  19   2.0000      -6.030421      -164.0961
  20   2.0000      -6.029568      -164.0729
  21   2.0000      -6.026393      -163.9865
  22   2.0000      -6.025195      -163.9539
  23   2.0000      -6.021872      -163.8635
  24   2.0000      -1.004281       -27.3279
  25   2.0000      -0.978255       -26.6197
  26   2.0000      -0.921901       -25.0862
  27   2.0000      -0.902724       -24.5644
  28   2.0000      -0.875337       -23.8191
  29   2.0000      -0.850397       -23.1405
  30   2.0000      -0.840767       -22.8784
  31   2.0000      -0.812275       -22.1031
  32   2.0000      -0.786357       -21.3979
  33   2.0000      -0.776462       -21.1286
  34   2.0000      -0.714545       -19.4438
  35   2.0000      -0.710365       -19.3300
  36   2.0000      -0.699427       -19.0324
  37   2.0000      -0.654934       -17.8217
  38   2.0000      -0.635305       -17.2875
  39   2.0000      -0.613134       -16.6842
  40   2.0000      -0.594887       -16.1877
  41   2.0000      -0.579781       -15.7766
  42   2.0000      -0.564125       -15.3506
  43   2.0000      -0.562346       -15.3022
  44   2.0000      -0.543625       -14.7928
  45   2.0000      -0.533551       -14.5187
  46   2.0000      -0.516335       -14.0502
  47   2.0000      -0.508810       -13.8454
  48   2.0000      -0.507000       -13.7962
  49   2.0000      -0.500228       -13.6119
  50   2.0000      -0.484260       -13.1774
  51   2.0000      -0.479156       -13.0385
  52   2.0000      -0.471000       -12.8166
  53   2.0000      -0.463477       -12.6119
  54   2.0000      -0.459949       -12.5158
  55   2.0000      -0.451419       -12.2837
  56   2.0000      -0.447389       -12.1741
  57   2.0000      -0.441217       -12.0061
  58   2.0000      -0.435169       -11.8416
  59   2.0000      -0.430310       -11.7093
  60   2.0000      -0.420202       -11.4343
  61   2.0000      -0.413450       -11.2505
  62   2.0000      -0.410747       -11.1770
  63   2.0000      -0.354007        -9.6330
  64   2.0000      -0.326697        -8.8899
  65   2.0000      -0.322979        -8.7887
  66   2.0000      -0.290084        -7.8936
  67   0.0000       0.025734         0.7003
  68   0.0000       0.069335         1.8867
  69   0.0000       0.104195         2.8353
  70   0.0000       0.119345         3.2475
  71   0.0000       0.131682         3.5832

MULLIKEN ATOMIC CHARGES
-----------------------
   0 S :    0.083731
   1 C :   -0.103896
   2 C :   -0.154203
   3 C :   -0.001712
   4 C :   -0.117900
   5 H :   -0.002525
   6 C :    0.140127
   7 H :    0.031016
   8 H :   -0.004316
   9 C :   -0.069512
  10 H :    0.036493
  11 H :    0.025782
  12 C :   -0.074024
  13 H :    0.048344
  14 H :    0.029599
  15 H :    0.047685
  16 S :    0.071049
  17 C :   -0.043260
  18 C :   -0.035128
  19 C :   -0.064420
  20 C :   -0.116108
  21 H :    0.013222
  22 C :   -0.010687
  23 H :    0.053204
  24 H :    0.064626
  25 C :   -0.086106
  26 H :    0.046991
  27 H :    0.045667
  28 C :   -0.029969
  29 H :    0.051379
  30 H :    0.035579
  31 H :    0.019797
  32 H :    0.031307
  33 H :    0.038167
Sum of atomic charges:   -0.0000000

LOEWDIN ATOMIC CHARGES
----------------------
   0 S :    0.370050
   1 C :   -0.189562
   2 C :   -0.059870
   3 C :   -0.064348
   4 C :   -0.180288
   5 H :    0.023769
   6 C :   -0.023512
   7 H :    0.031084
   8 H :    0.020773
   9 C :   -0.044723
  10 H :    0.030909
  11 H :    0.023506
  12 C :   -0.069429
  13 H :    0.027572
  14 H :    0.025829
  15 H :    0.035203
  16 S :    0.359529
  17 C :   -0.167924
  18 C :   -0.075939
  19 C :   -0.038655
  20 C :   -0.174316
  21 H :    0.025315
  22 C :   -0.042364
  23 H :    0.036609
  24 H :    0.048006
  25 C :   -0.040679
  26 H :    0.035564
  27 H :    0.022875
  28 C :   -0.062323
  29 H :    0.037519
  30 H :    0.024319
  31 H :    0.018759
  32 H :    0.021483
  33 H :    0.015257

  Mayer bond orders larger than 0.100000
B(  0-S ,  1-C ) :   1.1087 B(  0-S ,  4-C ) :   1.1001 B(  1-C ,  2-C ) :   1.6794
B(  1-C , 32-H ) :   0.9665 B(  2-C ,  3-C ) :   1.2006 B(  2-C ,  6-C ) :   0.9797
B(  3-C ,  4-C ) :   1.6147 B(  3-C ,  5-H ) :   0.9927 B(  4-C , 20-C ) :   1.0754
B(  6-C ,  7-H ) :   0.9300 B(  6-C ,  8-H ) :   0.9316 B(  6-C ,  9-C ) :   1.0836
B(  9-C , 10-H ) :   0.9521 B(  9-C , 11-H ) :   0.9487 B(  9-C , 12-C ) :   1.0778
B( 12-C , 13-H ) :   0.9744 B( 12-C , 14-H ) :   0.9736 B( 12-C , 15-H ) :   0.9737
B( 16-S , 17-C ) :   1.1518 B( 16-S , 20-C ) :   1.0876 B( 17-C , 18-C ) :   1.6251
B( 17-C , 33-H ) :   0.9713 B( 18-C , 19-C ) :   1.1968 B( 18-C , 21-H ) :   0.9888
B( 19-C , 20-C ) :   1.6572 B( 19-C , 22-C ) :   1.0085 B( 22-C , 23-H ) :   0.9428
B( 22-C , 24-H ) :   0.9264 B( 22-C , 25-C ) :   1.0483 B( 25-C , 26-H ) :   0.9469
B( 25-C , 27-H ) :   0.9623 B( 25-C , 28-C ) :   1.0732 B( 28-C , 29-H ) :   0.9755
B( 28-C , 30-H ) :   0.9778 B( 28-C , 31-H ) :   0.9743

Dispersion correction           -0.013742823
FINAL SINGLE POINT ENERGY     -1339.857160193380

DIPOLE MOMENT
-------------
                                X             Y             Z
Electronic contribution:     -3.68750     -23.06201      18.49913
Nuclear contribution   :      3.80142      23.94592     -18.74247
                        -----------------------------------------
Total Dipole Moment    :      0.11393       0.88391      -0.24334
                        -----------------------------------------
Magnitude (a.u.)       :      0.92384
Magnitude (Debye)      :      2.34823

Rotational constants in cm-1:     0.017291     0.008692     0.006124
Rotational constants in MHz :   518.362469   260.571407   183.587799

                             ****ORCA TERMINATED NORMALLY****
TOTAL RUN TIME: 0 days 0 hours 0 minutes 21 seconds 314 msec
