                         Program Version 4.2.1 -  RELEASE  -
|  1> ! wB97X-D3 SP def2-SVP
|  2> %pal
|  3> nprocs 24
|  4> end
|  5>
|  6> * xyz 0 1
|  7> S 	 -78.2913 	 -19.3452 	 -53.342
|  8> C 	 -78.9743 	 -18.6113 	 -51.8985
|  9> C 	 -80.3573 	 -18.4064 	 -52.0217
| 10> C 	 -80.9073 	 -19.1278 	 -53.1532
| 11> C 	 -79.9018 	 -19.6967 	 -53.9109
| 12> H 	 -81.9153 	 -19.203 	 -53.513
| 13> C 	 -81.272 	 -17.5481 	 -51.0717
| 14> H 	 -80.7838 	 -17.5359 	 -50.146
| 15> H 	 -82.1859 	 -18.1212 	 -50.9021
| 16> C 	 -81.4149 	 -16.1295 	 -51.5448
| 17> H 	 -81.8927 	 -15.578 	 -50.7502
| 18> H 	 -80.3957 	 -15.6404 	 -51.5577
| 19> C 	 -82.2912 	 -16.0388 	 -52.8474
| 20> H 	 -82.424 	 -14.9784 	 -53.1338
| 21> H 	 -81.8018 	 -16.4906 	 -53.6863
| 22> H 	 -83.2467 	 -16.6304 	 -52.7127
| 23> S 	 -79.1192 	 -21.5757 	 -55.7474
| 24> C 	 -79.9413 	 -21.6284 	 -57.2743
| 25> C 	 -80.686 	 -20.4851 	 -57.5605
| 26> C 	 -80.81 	 -19.7035 	 -56.3807
| 27> C 	 -80.037 	 -20.1581 	 -55.2733
| 28> H 	 -81.2434 	 -20.3554 	 -58.4979
| 29> C 	 -81.6728 	 -18.5082 	 -56.4175
| 30> H 	 -81.4747 	 -17.9884 	 -57.3886
| 31> H 	 -81.4664 	 -17.7303 	 -55.687
| 32> C 	 -83.2147 	 -18.8204 	 -56.5181
| 33> H 	 -83.4085 	 -19.6005 	 -57.2411
| 34> H 	 -83.741 	 -18.0056 	 -57.0587
| 35> C 	 -83.9406 	 -19.2311 	 -55.2049
| 36> H 	 -83.3848 	 -20.0777 	 -54.7449
| 37> H 	 -84.8437 	 -19.7888 	 -55.5241
| 38> H 	 -84.244 	 -18.4012 	 -54.563
| 39> H 	 -78.323 	 -18.0576 	 -51.1926
| 40> H 	 -79.8654 	 -22.3547 	 -57.957
| 41> *
| 42>
| 43>                          ****END OF INPUT****

CARTESIAN COORDINATES (ANGSTROEM)
---------------------------------
  S    -78.291300  -19.345200  -53.342000
  C    -78.974300  -18.611300  -51.898500
  C    -80.357300  -18.406400  -52.021700
  C    -80.907300  -19.127800  -53.153200
  C    -79.901800  -19.696700  -53.910900
  H    -81.915300  -19.203000  -53.513000
  C    -81.272000  -17.548100  -51.071700
  H    -80.783800  -17.535900  -50.146000
  H    -82.185900  -18.121200  -50.902100
  C    -81.414900  -16.129500  -51.544800
  H    -81.892700  -15.578000  -50.750200
  H    -80.395700  -15.640400  -51.557700
  C    -82.291200  -16.038800  -52.847400
  H    -82.424000  -14.978400  -53.133800
  H    -81.801800  -16.490600  -53.686300
  H    -83.246700  -16.630400  -52.712700
  S    -79.119200  -21.575700  -55.747400
  C    -79.941300  -21.628400  -57.274300
  C    -80.686000  -20.485100  -57.560500
  C    -80.810000  -19.703500  -56.380700
  C    -80.037000  -20.158100  -55.273300
  H    -81.243400  -20.355400  -58.497900
  C    -81.672800  -18.508200  -56.417500
  H    -81.474700  -17.988400  -57.388600
  H    -81.466400  -17.730300  -55.687000
  C    -83.214700  -18.820400  -56.518100
  H    -83.408500  -19.600500  -57.241100
  H    -83.741000  -18.005600  -57.058700
  C    -83.940600  -19.231100  -55.204900
  H    -83.384800  -20.077700  -54.744900
  H    -84.843700  -19.788800  -55.524100
  H    -84.244000  -18.401200  -54.563000
  H    -78.323000  -18.057600  -51.192600
  H    -79.865400  -22.354700  -57.957000

 Total Charge           Charge          ....    0
 Multiplicity           Mult            ....    1
 Number of Electrons    NEL             ....  134
 Basis Dimension        Dim             ....  322

ORBITAL ENERGIES
----------------

  NO   OCC          E(Eh)            E(eV)
   0   2.0000     -88.966151     -2420.8920
   1   2.0000     -88.964556     -2420.8487
   2   2.0000     -10.325677      -280.9760
   3   2.0000     -10.324572      -280.9459
   4   2.0000     -10.316196      -280.7180
   5   2.0000     -10.310649      -280.5670
   6   2.0000     -10.307634      -280.4850
   7   2.0000     -10.304535      -280.4007
   8   2.0000     -10.296297      -280.1765
   9   2.0000     -10.292444      -280.0716
  10   2.0000     -10.292406      -280.0706
  11   2.0000     -10.291810      -280.0544
  12   2.0000     -10.291552      -280.0474
  13   2.0000     -10.289339      -279.9871
  14   2.0000     -10.285853      -279.8923
  15   2.0000     -10.285586      -279.8850
  16   2.0000      -8.081170      -219.8998
  17   2.0000      -8.079498      -219.8543
  18   2.0000      -6.039572      -164.3451
  19   2.0000      -6.037924      -164.3003
  20   2.0000      -6.035637      -164.2380
  21   2.0000      -6.034187      -164.1986
  22   2.0000      -6.032036      -164.1400
  23   2.0000      -6.030119      -164.0879
  24   2.0000      -1.005286       -27.3552
  25   2.0000      -0.980330       -26.6761
  26   2.0000      -0.910818       -24.7846
  27   2.0000      -0.905967       -24.6526
  28   2.0000      -0.866979       -23.5917
  29   2.0000      -0.850022       -23.1303
  30   2.0000      -0.840715       -22.8770
  31   2.0000      -0.812612       -22.1123
  32   2.0000      -0.785252       -21.3678
  33   2.0000      -0.770726       -20.9725
  34   2.0000      -0.706239       -19.2177
  35   2.0000      -0.701925       -19.1003
  36   2.0000      -0.695633       -18.9291
  37   2.0000      -0.660481       -17.9726
  38   2.0000      -0.640517       -17.4293
  39   2.0000      -0.614090       -16.7102
  40   2.0000      -0.599582       -16.3155
  41   2.0000      -0.568155       -15.4603
  42   2.0000      -0.551832       -15.0161
  43   2.0000      -0.546100       -14.8601
  44   2.0000      -0.544134       -14.8066
  45   2.0000      -0.531661       -14.4672
  46   2.0000      -0.520908       -14.1746
  47   2.0000      -0.511522       -13.9192
  48   2.0000      -0.498270       -13.5586
  49   2.0000      -0.489240       -13.3129
  50   2.0000      -0.485719       -13.2171
  51   2.0000      -0.481688       -13.1074
  52   2.0000      -0.471909       -12.8413
  53   2.0000      -0.468193       -12.7402
  54   2.0000      -0.461629       -12.5616
  55   2.0000      -0.449885       -12.2420
  56   2.0000      -0.444234       -12.0882
  57   2.0000      -0.441608       -12.0168
  58   2.0000      -0.427643       -11.6367
  59   2.0000      -0.425850       -11.5880
  60   2.0000      -0.423575       -11.5261
  61   2.0000      -0.414940       -11.2911
  62   2.0000      -0.409632       -11.1466
  63   2.0000      -0.346992        -9.4421
  64   2.0000      -0.330624        -8.9967
  65   2.0000      -0.328907        -8.9500
  66   2.0000      -0.283662        -7.7188
  67   0.0000       0.028145         0.7659
  68   0.0000       0.066131         1.7995
  69   0.0000       0.101926         2.7736
  70   0.0000       0.120550         3.2803
  71   0.0000       0.121703         3.3117

MULLIKEN ATOMIC CHARGES
-----------------------
   0 S :    0.100440
   1 C :   -0.116746
   2 C :   -0.127738
   3 C :    0.028689
   4 C :   -0.096575
   5 H :   -0.032900
   6 C :    0.089493
   7 H :    0.002662
   8 H :    0.032435
   9 C :   -0.062784
  10 H :    0.026559
  11 H :    0.035564
  12 C :   -0.062223
  13 H :    0.042049
  14 H :    0.031750
  15 H :    0.042861
  16 S :    0.113230
  17 C :   -0.035165
  18 C :   -0.043379
  19 C :   -0.019234
  20 C :   -0.169072
  21 H :    0.034086
  22 C :    0.038231
  23 H :    0.027142
  24 H :    0.029478
  25 C :   -0.088920
  26 H :    0.013157
  27 H :    0.025498
  28 C :   -0.060051
  29 H :    0.058157
  30 H :    0.028524
  31 H :    0.051055
  32 H :    0.059725
  33 H :    0.004001
Sum of atomic charges:    0.0000000

LOEWDIN ATOMIC CHARGES
----------------------
   0 S :    0.401740
   1 C :   -0.209782
   2 C :   -0.049341
   3 C :   -0.064884
   4 C :   -0.192269
   5 H :    0.027509
   6 C :   -0.027101
   7 H :    0.022724
   8 H :    0.031070
   9 C :   -0.042199
  10 H :    0.021603
  11 H :    0.033168
  12 C :   -0.068081
  13 H :    0.030322
  14 H :    0.018287
  15 H :    0.032243
  16 S :    0.413946
  17 C :   -0.162586
  18 C :   -0.066503
  19 C :   -0.055595
  20 C :   -0.208799
  21 H :    0.038103
  22 C :   -0.040853
  23 H :    0.040237
  24 H :    0.027290
  25 C :   -0.043065
  26 H :    0.020363
  27 H :    0.025589
  28 C :   -0.078216
  29 H :    0.033964
  30 H :    0.033132
  31 H :    0.026227
  32 H :    0.030899
  33 H :    0.000860

  Mayer bond orders larger than 0.100000
B(  0-S ,  1-C ) :   1.1272 B(  0-S ,  4-C ) :   1.1627 B(  1-C ,  2-C ) :   1.6346
B(  1-C , 32-H ) :   0.9620 B(  2-C ,  3-C ) :   1.2089 B(  2-C ,  6-C ) :   1.0095
B(  3-C ,  4-C ) :   1.5766 B(  3-C ,  5-H ) :   1.0005 B(  4-C , 20-C ) :   1.0404
B(  6-C ,  7-H ) :   0.9324 B(  6-C ,  8-H ) :   0.9471 B(  6-C ,  9-C ) :   1.0840
B(  9-C , 10-H ) :   0.9537 B(  9-C , 11-H ) :   0.9505 B(  9-C , 12-C ) :   1.0672
B( 12-C , 13-H ) :   0.9698 B( 12-C , 14-H ) :   0.9772 B( 12-C , 15-H ) :   0.9688
B( 16-S , 17-C ) :   1.1756 B( 16-S , 20-C ) :   1.1294 B( 17-C , 18-C ) :   1.5902
B( 17-C , 20-C ) :   0.1011 B( 17-C , 33-H ) :   0.9787 B( 18-C , 19-C ) :   1.2532
B( 18-C , 21-H ) :   0.9841 B( 19-C , 20-C ) :   1.5540 B( 19-C , 22-C ) :   1.0612
B( 22-C , 23-H ) :   0.9248 B( 22-C , 24-H ) :   0.9437 B( 22-C , 25-C ) :   1.0571
B( 25-C , 26-H ) :   0.9577 B( 25-C , 27-H ) :   0.9556 B( 25-C , 28-C ) :   1.0796
B( 28-C , 29-H ) :   0.9548 B( 28-C , 30-H ) :   0.9658 B( 28-C , 31-H ) :   0.9720

Dispersion correction           -0.016585913
FINAL SINGLE POINT ENERGY     -1339.866334282593

DIPOLE MOMENT
-------------
                                X             Y             Z
Electronic contribution:     24.46790     -17.80488      -2.97255
Nuclear contribution   :    -25.09973      18.29745       2.77210
                        -----------------------------------------
Total Dipole Moment    :     -0.63183       0.49256      -0.20045
                        -----------------------------------------
Magnitude (a.u.)       :      0.82584
Magnitude (Debye)      :      2.09911

Rotational constants in cm-1:     0.018767     0.010967     0.007532
Rotational constants in MHz :   562.624138   328.796504   225.818009

                             ****ORCA TERMINATED NORMALLY****
TOTAL RUN TIME: 0 days 0 hours 0 minutes 23 seconds 657 msec
