                         Program Version 4.2.1 -  RELEASE  -
|  1> ! wB97X-D3 SP def2-SVP
|  2> %pal
|  3> nprocs 24
|  4> end
|  5>
|  6> * xyz 0 1
|  7> S 	 20.4341 	 -7.60001 	 -119.399
|  8> C 	 21.4759 	 -8.27948 	 -118.137
|  9> C 	 21.5483 	 -7.43529 	 -117.026
| 10> C 	 20.8709 	 -6.20857 	 -117.25
| 11> C 	 20.1643 	 -6.12287 	 -118.429
| 12> H 	 20.8119 	 -5.41782 	 -116.558
| 13> C 	 22.3033 	 -7.63469 	 -115.737
| 14> H 	 23.3796 	 -7.65485 	 -115.831
| 15> H 	 22.1114 	 -8.75087 	 -115.505
| 16> C 	 21.9262 	 -6.85411 	 -114.536
| 17> H 	 22.221 	 -5.82106 	 -114.641
| 18> H 	 20.8321 	 -6.90598 	 -114.511
| 19> C 	 22.4973 	 -7.35911 	 -113.266
| 20> H 	 23.399 	 -6.82743 	 -112.886
| 21> H 	 21.7444 	 -7.27932 	 -112.504
| 22> H 	 22.7933 	 -8.45229 	 -113.405
| 23> S 	 20.3333 	 -3.84996 	 -119.983
| 24> C 	 18.9372 	 -2.83328 	 -120.173
| 25> C 	 17.8684 	 -3.39015 	 -119.512
| 26> C 	 18.1006 	 -4.65989 	 -118.928
| 27> C 	 19.4574 	 -5.0078 	 -119.058
| 28> H 	 16.8885 	 -2.89831 	 -119.542
| 29> C 	 17.0094 	 -5.33486 	 -118.084
| 30> H 	 17.6196 	 -6.07883 	 -117.526
| 31> H 	 16.4304 	 -5.99398 	 -118.632
| 32> C 	 16.2731 	 -4.37595 	 -117.05
| 33> H 	 15.4937 	 -3.83468 	 -117.627
| 34> H 	 17.0269 	 -3.67124 	 -116.731
| 35> C 	 15.7347 	 -5.25602 	 -115.845
| 36> H 	 15.1016 	 -4.62245 	 -115.29
| 37> H 	 16.4945 	 -5.6582 	 -115.135
| 38> H 	 15.1106 	 -6.05096 	 -116.22
| 39> H 	 21.8813 	 -9.24407 	 -118.111
| 40> H 	 18.874 	 -1.88585 	 -120.689
| 41> *
| 42>
| 43>                          ****END OF INPUT****

CARTESIAN COORDINATES (ANGSTROEM)
---------------------------------
  S     20.434100   -7.600010  -119.399000
  C     21.475900   -8.279480  -118.137000
  C     21.548300   -7.435290  -117.026000
  C     20.870900   -6.208570  -117.250000
  C     20.164300   -6.122870  -118.429000
  H     20.811900   -5.417820  -116.558000
  C     22.303300   -7.634690  -115.737000
  H     23.379600   -7.654850  -115.831000
  H     22.111400   -8.750870  -115.505000
  C     21.926200   -6.854110  -114.536000
  H     22.221000   -5.821060  -114.641000
  H     20.832100   -6.905980  -114.511000
  C     22.497300   -7.359110  -113.266000
  H     23.399000   -6.827430  -112.886000
  H     21.744400   -7.279320  -112.504000
  H     22.793300   -8.452290  -113.405000
  S     20.333300   -3.849960  -119.983000
  C     18.937200   -2.833280  -120.173000
  C     17.868400   -3.390150  -119.512000
  C     18.100600   -4.659890  -118.928000
  C     19.457400   -5.007800  -119.058000
  H     16.888500   -2.898310  -119.542000
  C     17.009400   -5.334860  -118.084000
  H     17.619600   -6.078830  -117.526000
  H     16.430400   -5.993980  -118.632000
  C     16.273100   -4.375950  -117.050000
  H     15.493700   -3.834680  -117.627000
  H     17.026900   -3.671240  -116.731000
  C     15.734700   -5.256020  -115.845000
  H     15.101600   -4.622450  -115.290000
  H     16.494500   -5.658200  -115.135000
  H     15.110600   -6.050960  -116.220000
  H     21.881300   -9.244070  -118.111000
  H     18.874000   -1.885850  -120.689000

 Total Charge           Charge          ....    0
 Multiplicity           Mult            ....    1
 Number of Electrons    NEL             ....  134
 Basis Dimension        Dim             ....  322

ORBITAL ENERGIES
----------------

  NO   OCC          E(Eh)            E(eV)
   0   2.0000     -88.965640     -2420.8781
   1   2.0000     -88.964307     -2420.8419
   2   2.0000     -10.328574      -281.0548
   3   2.0000     -10.323093      -280.9056
   4   2.0000     -10.313545      -280.6458
   5   2.0000     -10.313156      -280.6352
   6   2.0000     -10.301145      -280.3084
   7   2.0000     -10.300997      -280.3044
   8   2.0000     -10.297635      -280.2129
   9   2.0000     -10.293000      -280.0868
  10   2.0000     -10.289603      -279.9943
  11   2.0000     -10.287774      -279.9446
  12   2.0000     -10.286635      -279.9136
  13   2.0000     -10.282128      -279.7909
  14   2.0000     -10.281312      -279.7687
  15   2.0000     -10.281148      -279.7643
  16   2.0000      -8.080840      -219.8908
  17   2.0000      -8.078024      -219.8142
  18   2.0000      -6.039297      -164.3376
  19   2.0000      -6.036578      -164.2636
  20   2.0000      -6.035109      -164.2237
  21   2.0000      -6.032584      -164.1550
  22   2.0000      -6.031795      -164.1335
  23   2.0000      -6.028896      -164.0546
  24   2.0000      -1.004283       -27.3279
  25   2.0000      -0.981328       -26.7033
  26   2.0000      -0.922832       -25.1115
  27   2.0000      -0.899092       -24.4655
  28   2.0000      -0.869810       -23.6687
  29   2.0000      -0.847215       -23.0539
  30   2.0000      -0.845362       -23.0035
  31   2.0000      -0.814756       -22.1706
  32   2.0000      -0.781727       -21.2719
  33   2.0000      -0.770034       -20.9537
  34   2.0000      -0.710935       -19.3455
  35   2.0000      -0.706574       -19.2268
  36   2.0000      -0.689052       -18.7501
  37   2.0000      -0.652995       -17.7689
  38   2.0000      -0.643169       -17.5015
  39   2.0000      -0.622710       -16.9448
  40   2.0000      -0.597065       -16.2470
  41   2.0000      -0.580020       -15.7831
  42   2.0000      -0.566515       -15.4157
  43   2.0000      -0.558524       -15.1982
  44   2.0000      -0.527830       -14.3630
  45   2.0000      -0.521719       -14.1967
  46   2.0000      -0.514146       -13.9906
  47   2.0000      -0.508835       -13.8461
  48   2.0000      -0.506033       -13.7699
  49   2.0000      -0.498717       -13.5708
  50   2.0000      -0.487054       -13.2534
  51   2.0000      -0.478379       -13.0173
  52   2.0000      -0.473370       -12.8811
  53   2.0000      -0.466733       -12.7004
  54   2.0000      -0.459149       -12.4941
  55   2.0000      -0.445901       -12.1336
  56   2.0000      -0.441942       -12.0258
  57   2.0000      -0.439260       -11.9529
  58   2.0000      -0.428912       -11.6713
  59   2.0000      -0.424970       -11.5640
  60   2.0000      -0.420346       -11.4382
  61   2.0000      -0.417921       -11.3722
  62   2.0000      -0.412896       -11.2355
  63   2.0000      -0.337378        -9.1805
  64   2.0000      -0.328671        -8.9436
  65   2.0000      -0.313048        -8.5185
  66   2.0000      -0.310795        -8.4572
  67   0.0000       0.044492         1.2107
  68   0.0000       0.051873         1.4115
  69   0.0000       0.120372         3.2755
  70   0.0000       0.127888         3.4800
  71   0.0000       0.135048         3.6748

MULLIKEN ATOMIC CHARGES
-----------------------
   0 S :    0.105340
   1 C :   -0.094102
   2 C :   -0.075331
   3 C :    0.056599
   4 C :   -0.182380
   5 H :   -0.005395
   6 C :    0.015039
   7 H :    0.038173
   8 H :    0.025496
   9 C :   -0.075777
  10 H :    0.035601
  11 H :    0.029369
  12 C :   -0.037715
  13 H :    0.041512
  14 H :    0.030690
  15 H :    0.031479
  16 S :    0.136674
  17 C :   -0.092141
  18 C :   -0.052352
  19 C :   -0.031625
  20 C :   -0.186735
  21 H :    0.020202
  22 C :    0.094156
  23 H :    0.016795
  24 H :    0.016562
  25 C :   -0.093510
  26 H :    0.046261
  27 H :    0.042223
  28 C :   -0.037706
  29 H :    0.020164
  30 H :    0.050075
  31 H :    0.033578
  32 H :    0.023462
  33 H :    0.055318
Sum of atomic charges:   -0.0000000

LOEWDIN ATOMIC CHARGES
----------------------
   0 S :    0.387586
   1 C :   -0.181092
   2 C :   -0.063382
   3 C :   -0.053407
   4 C :   -0.184824
   5 H :    0.024607
   6 C :   -0.042585
   7 H :    0.029578
   8 H :    0.037661
   9 C :   -0.053252
  10 H :    0.025456
  11 H :    0.027313
  12 C :   -0.064527
  13 H :    0.030471
  14 H :    0.026822
  15 H :    0.031763
  16 S :    0.433889
  17 C :   -0.193980
  18 C :   -0.079297
  19 C :   -0.052291
  20 C :   -0.228114
  21 H :    0.031803
  22 C :   -0.032771
  23 H :    0.034224
  24 H :    0.020265
  25 C :   -0.030317
  26 H :    0.027115
  27 H :    0.025602
  28 C :   -0.061158
  29 H :    0.018520
  30 H :    0.034286
  31 H :    0.025050
  32 H :    0.017001
  33 H :    0.031988

  Mayer bond orders larger than 0.100000
B(  0-S ,  1-C ) :   1.1438 B(  0-S ,  4-C ) :   1.1443 B(  1-C ,  2-C ) :   1.6106
B(  1-C ,  4-C ) :   0.1064 B(  1-C , 32-H ) :   0.9741 B(  2-C ,  3-C ) :   1.2479
B(  2-C ,  6-C ) :   1.0058 B(  3-C ,  4-C ) :   1.5936 B(  3-C ,  5-H ) :   0.9978
B(  4-C , 20-C ) :   0.9955 B(  6-C ,  7-H ) :   0.9332 B(  6-C ,  8-H ) :   0.9322
B(  6-C ,  9-C ) :   1.0990 B(  9-C , 10-H ) :   0.9348 B(  9-C , 11-H ) :   0.9568
B(  9-C , 12-C ) :   1.0795 B( 12-C , 13-H ) :   0.9729 B( 12-C , 14-H ) :   0.9726
B( 12-C , 15-H ) :   0.9744 B( 16-S , 17-C ) :   1.1602 B( 16-S , 20-C ) :   1.1728
B( 17-C , 18-C ) :   1.5941 B( 17-C , 20-C ) :   0.1005 B( 17-C , 33-H ) :   0.9680
B( 18-C , 19-C ) :   1.2732 B( 18-C , 21-H ) :   0.9846 B( 19-C , 20-C ) :   1.5658
B( 19-C , 22-C ) :   1.0320 B( 22-C , 23-H ) :   0.9329 B( 22-C , 24-H ) :   0.9271
B( 22-C , 25-C ) :   1.0445 B( 25-C , 26-H ) :   0.9542 B( 25-C , 27-H ) :   0.9628
B( 25-C , 28-C ) :   1.0760 B( 28-C , 29-H ) :   0.9751 B( 28-C , 30-H ) :   0.9759
B( 28-C , 31-H ) :   0.9770

Dispersion correction           -0.013676580
FINAL SINGLE POINT ENERGY     -1339.869900668070

DIPOLE MOMENT
-------------
                                X             Y             Z
Electronic contribution:      6.99737       3.10864     -27.88142
Nuclear contribution   :     -7.22638      -2.99424      28.56986
                        -----------------------------------------
Total Dipole Moment    :     -0.22901       0.11440       0.68845
                        -----------------------------------------
Magnitude (a.u.)       :      0.73450
Magnitude (Debye)      :      1.86695

Rotational constants in cm-1:     0.016186     0.008525     0.006865
Rotational constants in MHz :   485.239709   255.577837   205.795510

                             ****ORCA TERMINATED NORMALLY****
TOTAL RUN TIME: 0 days 0 hours 0 minutes 21 seconds 194 msec
