                         Program Version 4.2.1 -  RELEASE  -
|  1> ! wB97X-D3 SP def2-SVP
|  2> %pal
|  3> nprocs 24
|  4> end
|  5>
|  6> * xyz 0 1
|  7> S 	 -113.185 	 19.547 	 -111.94
|  8> C 	 -112.495 	 20.5556 	 -113.155
|  9> C 	 -112.365 	 20.0207 	 -114.416
| 10> C 	 -112.667 	 18.5998 	 -114.247
| 11> C 	 -113.087 	 18.1768 	 -112.958
| 12> H 	 -112.78 	 17.8523 	 -115.107
| 13> C 	 -111.912 	 20.7081 	 -115.645
| 14> H 	 -110.946 	 21.2263 	 -115.402
| 15> H 	 -112.753 	 21.3952 	 -116.035
| 16> C 	 -111.384 	 19.8389 	 -116.883
| 17> H 	 -110.972 	 18.9467 	 -116.542
| 18> H 	 -112.31 	 19.4865 	 -117.381
| 19> C 	 -110.418 	 20.6229 	 -117.787
| 20> H 	 -109.398 	 20.5064 	 -117.474
| 21> H 	 -110.456 	 20.1446 	 -118.772
| 22> H 	 -110.551 	 21.7011 	 -117.979
| 23> S 	 -112.082 	 15.5643 	 -112.543
| 24> C 	 -113.227 	 14.4279 	 -111.959
| 25> C 	 -114.545 	 14.9304 	 -111.862
| 26> C 	 -114.601 	 16.3126 	 -112.104
| 27> C 	 -113.395 	 16.7959 	 -112.633
| 28> H 	 -115.332 	 14.2944 	 -111.545
| 29> C 	 -115.92 	 17.0677 	 -111.791
| 30> H 	 -115.83 	 18.1123 	 -112.091
| 31> H 	 -115.956 	 17.1555 	 -110.754
| 32> C 	 -117.181 	 16.3067 	 -112.322
| 33> H 	 -118.009 	 16.6933 	 -111.748
| 34> H 	 -117.1 	 15.2559 	 -112.005
| 35> C 	 -117.225 	 16.6202 	 -113.876
| 36> H 	 -116.403 	 16.1688 	 -114.334
| 37> H 	 -117.44 	 17.666 	 -114.144
| 38> H 	 -118.003 	 15.9954 	 -114.341
| 39> H 	 -112.417 	 21.6263 	 -113.034
| 40> H 	 -113.049 	 13.356 	 -111.767
| 41> *
| 42>
| 43>                          ****END OF INPUT****

CARTESIAN COORDINATES (ANGSTROEM)
---------------------------------
  S    -113.185000   19.547000  -111.940000
  C    -112.495000   20.555600  -113.155000
  C    -112.365000   20.020700  -114.416000
  C    -112.667000   18.599800  -114.247000
  C    -113.087000   18.176800  -112.958000
  H    -112.780000   17.852300  -115.107000
  C    -111.912000   20.708100  -115.645000
  H    -110.946000   21.226300  -115.402000
  H    -112.753000   21.395200  -116.035000
  C    -111.384000   19.838900  -116.883000
  H    -110.972000   18.946700  -116.542000
  H    -112.310000   19.486500  -117.381000
  C    -110.418000   20.622900  -117.787000
  H    -109.398000   20.506400  -117.474000
  H    -110.456000   20.144600  -118.772000
  H    -110.551000   21.701100  -117.979000
  S    -112.082000   15.564300  -112.543000
  C    -113.227000   14.427900  -111.959000
  C    -114.545000   14.930400  -111.862000
  C    -114.601000   16.312600  -112.104000
  C    -113.395000   16.795900  -112.633000
  H    -115.332000   14.294400  -111.545000
  C    -115.920000   17.067700  -111.791000
  H    -115.830000   18.112300  -112.091000
  H    -115.956000   17.155500  -110.754000
  C    -117.181000   16.306700  -112.322000
  H    -118.009000   16.693300  -111.748000
  H    -117.100000   15.255900  -112.005000
  C    -117.225000   16.620200  -113.876000
  H    -116.403000   16.168800  -114.334000
  H    -117.440000   17.666000  -114.144000
  H    -118.003000   15.995400  -114.341000
  H    -112.417000   21.626300  -113.034000
  H    -113.049000   13.356000  -111.767000

 Total Charge           Charge          ....    0
 Multiplicity           Mult            ....    1
 Number of Electrons    NEL             ....  134
 Basis Dimension        Dim             ....  322

ORBITAL ENERGIES
----------------

  NO   OCC          E(Eh)            E(eV)
   0   2.0000     -88.970180     -2421.0017
   1   2.0000     -88.967748     -2420.9355
   2   2.0000     -10.325173      -280.9622
   3   2.0000     -10.322634      -280.8931
   4   2.0000     -10.317684      -280.7585
   5   2.0000     -10.306274      -280.4480
   6   2.0000     -10.303758      -280.3795
   7   2.0000     -10.302486      -280.3449
   8   2.0000     -10.301492      -280.3179
   9   2.0000     -10.298471      -280.2356
  10   2.0000     -10.293522      -280.1010
  11   2.0000     -10.289618      -279.9947
  12   2.0000     -10.288442      -279.9627
  13   2.0000     -10.287357      -279.9332
  14   2.0000     -10.281616      -279.7770
  15   2.0000     -10.276387      -279.6347
  16   2.0000      -8.084214      -219.9827
  17   2.0000      -8.083013      -219.9500
  18   2.0000      -6.042644      -164.4287
  19   2.0000      -6.041416      -164.3953
  20   2.0000      -6.038850      -164.3255
  21   2.0000      -6.037441      -164.2871
  22   2.0000      -6.035074      -164.2227
  23   2.0000      -6.033881      -164.1903
  24   2.0000      -1.003040       -27.2941
  25   2.0000      -0.981976       -26.7209
  26   2.0000      -0.907231       -24.6870
  27   2.0000      -0.903876       -24.5957
  28   2.0000      -0.866342       -23.5744
  29   2.0000      -0.845832       -23.0163
  30   2.0000      -0.843398       -22.9500
  31   2.0000      -0.802210       -21.8292
  32   2.0000      -0.783504       -21.3202
  33   2.0000      -0.772579       -21.0230
  34   2.0000      -0.712836       -19.3973
  35   2.0000      -0.706504       -19.2250
  36   2.0000      -0.687184       -18.6992
  37   2.0000      -0.655702       -17.8425
  38   2.0000      -0.629692       -17.1348
  39   2.0000      -0.609852       -16.5949
  40   2.0000      -0.596882       -16.2420
  41   2.0000      -0.567172       -15.4335
  42   2.0000      -0.565230       -15.3807
  43   2.0000      -0.546928       -14.8827
  44   2.0000      -0.536357       -14.5950
  45   2.0000      -0.520237       -14.1564
  46   2.0000      -0.516431       -14.0528
  47   2.0000      -0.503387       -13.6979
  48   2.0000      -0.495919       -13.4946
  49   2.0000      -0.489070       -13.3083
  50   2.0000      -0.484214       -13.1761
  51   2.0000      -0.479072       -13.0362
  52   2.0000      -0.469370       -12.7722
  53   2.0000      -0.465498       -12.6668
  54   2.0000      -0.460916       -12.5422
  55   2.0000      -0.450603       -12.2615
  56   2.0000      -0.445913       -12.1339
  57   2.0000      -0.438065       -11.9204
  58   2.0000      -0.432760       -11.7760
  59   2.0000      -0.428195       -11.6518
  60   2.0000      -0.424169       -11.5422
  61   2.0000      -0.416319       -11.3286
  62   2.0000      -0.402868       -10.9626
  63   2.0000      -0.333991        -9.0883
  64   2.0000      -0.331525        -9.0213
  65   2.0000      -0.326310        -8.8793
  66   2.0000      -0.290182        -7.8962
  67   0.0000       0.037018         1.0073
  68   0.0000       0.061759         1.6806
  69   0.0000       0.107161         2.9160
  70   0.0000       0.115467         3.1420
  71   0.0000       0.138865         3.7787

MULLIKEN ATOMIC CHARGES
-----------------------
   0 S :    0.138056
   1 C :   -0.130459
   2 C :   -0.059264
   3 C :   -0.036977
   4 C :   -0.169018
   5 H :    0.038843
   6 C :   -0.014838
   7 H :    0.052495
   8 H :    0.068525
   9 C :   -0.060912
  10 H :    0.019501
  11 H :    0.031427
  12 C :   -0.055825
  13 H :    0.034749
  14 H :    0.032622
  15 H :    0.042368
  16 S :    0.137187
  17 C :   -0.104262
  18 C :   -0.049676
  19 C :   -0.037169
  20 C :   -0.171715
  21 H :    0.007520
  22 C :    0.093790
  23 H :    0.014271
  24 H :    0.019215
  25 C :   -0.077470
  26 H :    0.025849
  27 H :    0.033247
  28 C :   -0.020877
  29 H :    0.027344
  30 H :    0.051371
  31 H :    0.018958
  32 H :    0.038260
  33 H :    0.062869
Sum of atomic charges:   -0.0000000

LOEWDIN ATOMIC CHARGES
----------------------
   0 S :    0.439970
   1 C :   -0.205710
   2 C :   -0.070514
   3 C :   -0.073840
   4 C :   -0.224605
   5 H :    0.036839
   6 C :   -0.045736
   7 H :    0.042908
   8 H :    0.047886
   9 C :   -0.035917
  10 H :    0.016004
  11 H :    0.024492
  12 C :   -0.071725
  13 H :    0.025854
  14 H :    0.032745
  15 H :    0.030208
  16 S :    0.414638
  17 C :   -0.199132
  18 C :   -0.076326
  19 C :   -0.044279
  20 C :   -0.199024
  21 H :    0.023270
  22 C :   -0.025609
  23 H :    0.023359
  24 H :    0.022879
  25 C :   -0.031499
  26 H :    0.021813
  27 H :    0.024919
  28 C :   -0.060226
  29 H :    0.021364
  30 H :    0.033592
  31 H :    0.025448
  32 H :    0.022438
  33 H :    0.033518

  Mayer bond orders larger than 0.100000
B(  0-S ,  1-C ) :   1.1668 B(  0-S ,  4-C ) :   1.1462 B(  1-C ,  2-C ) :   1.6047
B(  1-C , 32-H ) :   0.9629 B(  2-C ,  3-C ) :   1.2575 B(  2-C ,  6-C ) :   1.0163
B(  3-C ,  4-C ) :   1.5502 B(  3-C ,  5-H ) :   0.9754 B(  4-C , 20-C ) :   1.0572
B(  6-C ,  7-H ) :   0.9550 B(  6-C ,  8-H ) :   0.9293 B(  6-C ,  9-C ) :   1.0671
B(  9-C , 10-H ) :   0.9551 B(  9-C , 11-H ) :   0.9576 B(  9-C , 12-C ) :   1.0754
B( 12-C , 13-H ) :   0.9745 B( 12-C , 14-H ) :   0.9714 B( 12-C , 15-H ) :   0.9788
B( 16-S , 17-C ) :   1.1798 B( 16-S , 20-C ) :   1.1308 B( 17-C , 18-C ) :   1.5932
B( 17-C , 20-C ) :   0.1038 B( 17-C , 33-H ) :   0.9584 B( 18-C , 19-C ) :   1.2531
B( 18-C , 21-H ) :   0.9912 B( 19-C , 20-C ) :   1.5717 B( 19-C , 22-C ) :   1.0240
B( 22-C , 23-H ) :   0.9314 B( 22-C , 24-H ) :   0.9302 B( 22-C , 25-C ) :   1.0713
B( 25-C , 26-H ) :   0.9559 B( 25-C , 27-H ) :   0.9578 B( 25-C , 28-C ) :   1.0606
B( 28-C , 29-H ) :   0.9751 B( 28-C , 30-H ) :   0.9770 B( 28-C , 31-H ) :   0.9725

Dispersion correction           -0.014125655
FINAL SINGLE POINT ENERGY     -1339.852915435643

DIPOLE MOMENT
-------------
                                X             Y             Z
Electronic contribution:      8.16352      -5.85048      18.24102
Nuclear contribution   :     -8.47249       5.87922     -18.56000
                        -----------------------------------------
Total Dipole Moment    :     -0.30898       0.02874      -0.31898
                        -----------------------------------------
Magnitude (a.u.)       :      0.44501
Magnitude (Debye)      :      1.13114

Rotational constants in cm-1:     0.019755     0.007387     0.006890
Rotational constants in MHz :   592.242656   221.466731   206.548371

                             ****ORCA TERMINATED NORMALLY****
TOTAL RUN TIME: 0 days 0 hours 0 minutes 20 seconds 6 msec
