                         Program Version 4.2.1 -  RELEASE  -
|  1> ! wB97X-D3 SP def2-SVP
|  2> %pal
|  3> nprocs 24
|  4> end
|  5>
|  6> * xyz 0 1
|  7> S 	 -38.2879 	 0.139961 	 12.8307
|  8> C 	 -37.8231 	 0.246834 	 14.5308
|  9> C 	 -38.9055 	 0.457024 	 15.3849
| 10> C 	 -40.0611 	 0.80862 	 14.6114
| 11> C 	 -39.8631 	 0.636048 	 13.2273
| 12> H 	 -41.0455 	 1.13453 	 14.983
| 13> C 	 -38.8413 	 0.568427 	 16.8871
| 14> H 	 -37.9173 	 0.0507085 	 17.0517
| 15> H 	 -39.5636 	 -0.0802315 	 17.4293
| 16> C 	 -38.8471 	 2.00676 	 17.4077
| 17> H 	 -38.4711 	 1.87716 	 18.424
| 18> H 	 -38.0276 	 2.56034 	 16.869
| 19> C 	 -40.1698 	 2.86187 	 17.539
| 20> H 	 -40.0069 	 3.81328 	 18.0946
| 21> H 	 -40.6942 	 2.96348 	 16.6075
| 22> H 	 -40.8347 	 2.29824 	 18.1803
| 23> S 	 -40.8213 	 0.139577 	 10.6665
| 24> C 	 -42.0058 	 1.23561 	 9.95331
| 25> C 	 -42.1882 	 2.34467 	 10.7572
| 26> C 	 -41.5201 	 2.24156 	 12.0491
| 27> C 	 -40.7383 	 1.101 	 12.1547
| 28> H 	 -42.8496 	 3.10372 	 10.4703
| 29> C 	 -41.8291 	 3.22071 	 13.1909
| 30> H 	 -41.8621 	 4.20657 	 12.7209
| 31> H 	 -41.0787 	 3.2374 	 14.0069
| 32> C 	 -43.2129 	 2.94104 	 13.6156
| 33> H 	 -43.3671 	 1.83895 	 13.7295
| 34> H 	 -43.7811 	 3.33326 	 12.766
| 35> C 	 -43.6229 	 3.60902 	 14.912
| 36> H 	 -43.0939 	 3.3072 	 15.7851
| 37> H 	 -44.7271 	 3.53812 	 15.1501
| 38> H 	 -43.384 	 4.66845 	 14.8611
| 39> H 	 -36.8008 	 0.294768 	 14.9382
| 40> H 	 -42.3803 	 1.30642 	 8.9408
| 41> *
| 42>
| 43>                          ****END OF INPUT****

CARTESIAN COORDINATES (ANGSTROEM)
---------------------------------
  S    -38.287900    0.139961   12.830700
  C    -37.823100    0.246834   14.530800
  C    -38.905500    0.457024   15.384900
  C    -40.061100    0.808620   14.611400
  C    -39.863100    0.636048   13.227300
  H    -41.045500    1.134530   14.983000
  C    -38.841300    0.568427   16.887100
  H    -37.917300    0.050708   17.051700
  H    -39.563600   -0.080231   17.429300
  C    -38.847100    2.006760   17.407700
  H    -38.471100    1.877160   18.424000
  H    -38.027600    2.560340   16.869000
  C    -40.169800    2.861870   17.539000
  H    -40.006900    3.813280   18.094600
  H    -40.694200    2.963480   16.607500
  H    -40.834700    2.298240   18.180300
  S    -40.821300    0.139577   10.666500
  C    -42.005800    1.235610    9.953310
  C    -42.188200    2.344670   10.757200
  C    -41.520100    2.241560   12.049100
  C    -40.738300    1.101000   12.154700
  H    -42.849600    3.103720   10.470300
  C    -41.829100    3.220710   13.190900
  H    -41.862100    4.206570   12.720900
  H    -41.078700    3.237400   14.006900
  C    -43.212900    2.941040   13.615600
  H    -43.367100    1.838950   13.729500
  H    -43.781100    3.333260   12.766000
  C    -43.622900    3.609020   14.912000
  H    -43.093900    3.307200   15.785100
  H    -44.727100    3.538120   15.150100
  H    -43.384000    4.668450   14.861100
  H    -36.800800    0.294768   14.938200
  H    -42.380300    1.306420    8.940800

 Total Charge           Charge          ....    0
 Multiplicity           Mult            ....    1
 Number of Electrons    NEL             ....  134
 Basis Dimension        Dim             ....  322

ORBITAL ENERGIES
----------------

  NO   OCC          E(Eh)            E(eV)
   0   2.0000     -88.970875     -2421.0206
   1   2.0000     -88.964927     -2420.8587
   2   2.0000     -10.328158      -281.0435
   3   2.0000     -10.327990      -281.0389
   4   2.0000     -10.318064      -280.7688
   5   2.0000     -10.317131      -280.7434
   6   2.0000     -10.305343      -280.4226
   7   2.0000     -10.303555      -280.3740
   8   2.0000     -10.297762      -280.2164
   9   2.0000     -10.296628      -280.1855
  10   2.0000     -10.296532      -280.1829
  11   2.0000     -10.293637      -280.1041
  12   2.0000     -10.291103      -280.0351
  13   2.0000     -10.288319      -279.9594
  14   2.0000     -10.284990      -279.8688
  15   2.0000     -10.278774      -279.6997
  16   2.0000      -8.086085      -220.0336
  17   2.0000      -8.079025      -219.8414
  18   2.0000      -6.044546      -164.4805
  19   2.0000      -6.040561      -164.3720
  20   2.0000      -6.037766      -164.2960
  21   2.0000      -6.036824      -164.2703
  22   2.0000      -6.033649      -164.1839
  23   2.0000      -6.029563      -164.0727
  24   2.0000      -1.007417       -27.4132
  25   2.0000      -0.981262       -26.7015
  26   2.0000      -0.921463       -25.0743
  27   2.0000      -0.913650       -24.8617
  28   2.0000      -0.866947       -23.5908
  29   2.0000      -0.849541       -23.1172
  30   2.0000      -0.842092       -22.9145
  31   2.0000      -0.815380       -22.1876
  32   2.0000      -0.789914       -21.4946
  33   2.0000      -0.775376       -21.0991
  34   2.0000      -0.706894       -19.2356
  35   2.0000      -0.698878       -19.0174
  36   2.0000      -0.692490       -18.8436
  37   2.0000      -0.663185       -18.0462
  38   2.0000      -0.636448       -17.3186
  39   2.0000      -0.619208       -16.8495
  40   2.0000      -0.592512       -16.1231
  41   2.0000      -0.575203       -15.6521
  42   2.0000      -0.574856       -15.6426
  43   2.0000      -0.545814       -14.8523
  44   2.0000      -0.540647       -14.7117
  45   2.0000      -0.526312       -14.3217
  46   2.0000      -0.515016       -14.0143
  47   2.0000      -0.509731       -13.8705
  48   2.0000      -0.505457       -13.7542
  49   2.0000      -0.497021       -13.5246
  50   2.0000      -0.492631       -13.4052
  51   2.0000      -0.488591       -13.2952
  52   2.0000      -0.474185       -12.9032
  53   2.0000      -0.465112       -12.6563
  54   2.0000      -0.460500       -12.5308
  55   2.0000      -0.451090       -12.2748
  56   2.0000      -0.447662       -12.1815
  57   2.0000      -0.439242       -11.9524
  58   2.0000      -0.433474       -11.7954
  59   2.0000      -0.427716       -11.6388
  60   2.0000      -0.424042       -11.5388
  61   2.0000      -0.413644       -11.2558
  62   2.0000      -0.408557       -11.1174
  63   2.0000      -0.350992        -9.5510
  64   2.0000      -0.333689        -9.0801
  65   2.0000      -0.328355        -8.9350
  66   2.0000      -0.285161        -7.7596
  67   0.0000       0.028317         0.7705
  68   0.0000       0.068061         1.8520
  69   0.0000       0.103598         2.8190
  70   0.0000       0.120245         3.2720
  71   0.0000       0.123407         3.3581

MULLIKEN ATOMIC CHARGES
-----------------------
   0 S :    0.128657
   1 C :   -0.139177
   2 C :   -0.092989
   3 C :   -0.018043
   4 C :   -0.111763
   5 H :    0.018409
   6 C :    0.077404
   7 H :    0.009168
   8 H :    0.038524
   9 C :   -0.084894
  10 H :    0.028614
  11 H :    0.034741
  12 C :   -0.036959
  13 H :    0.051425
  14 H :    0.032263
  15 H :    0.019144
  16 S :    0.089753
  17 C :   -0.071094
  18 C :   -0.040182
  19 C :   -0.058650
  20 C :   -0.146949
  21 H :    0.004118
  22 C :    0.057643
  23 H :    0.019416
  24 H :    0.042987
  25 C :   -0.092730
  26 H :    0.046613
  27 H :    0.027877
  28 C :   -0.026121
  29 H :    0.018878
  30 H :    0.044787
  31 H :    0.015144
  32 H :    0.054839
  33 H :    0.059146
Sum of atomic charges:   -0.0000000

LOEWDIN ATOMIC CHARGES
----------------------
   0 S :    0.430091
   1 C :   -0.205376
   2 C :   -0.058566
   3 C :   -0.068138
   4 C :   -0.206209
   5 H :    0.031616
   6 C :   -0.037447
   7 H :    0.031147
   8 H :    0.036877
   9 C :   -0.042259
  10 H :    0.026100
  11 H :    0.028780
  12 C :   -0.065216
  13 H :    0.038009
  14 H :    0.016371
  15 H :    0.023606
  16 S :    0.379270
  17 C :   -0.183247
  18 C :   -0.063701
  19 C :   -0.048907
  20 C :   -0.191895
  21 H :    0.021093
  22 C :   -0.033194
  23 H :    0.031203
  24 H :    0.027905
  25 C :   -0.047230
  26 H :    0.028410
  27 H :    0.027922
  28 C :   -0.070473
  29 H :    0.017543
  30 H :    0.035135
  31 H :    0.023174
  32 H :    0.032850
  33 H :    0.034757

  Mayer bond orders larger than 0.100000
B(  0-S ,  1-C ) :   1.1428 B(  0-S ,  4-C ) :   1.1677 B(  1-C ,  2-C ) :   1.6105
B(  1-C , 32-H ) :   0.9591 B(  2-C ,  3-C ) :   1.2286 B(  2-C ,  6-C ) :   1.0295
B(  3-C ,  4-C ) :   1.5589 B(  3-C ,  5-H ) :   0.9934 B(  4-C , 20-C ) :   1.0350
B(  6-C ,  7-H ) :   0.9281 B(  6-C ,  8-H ) :   0.9367 B(  6-C ,  9-C ) :   1.0679
B(  9-C , 10-H ) :   0.9539 B(  9-C , 11-H ) :   0.9549 B(  9-C , 12-C ) :   1.0678
B( 12-C , 13-H ) :   0.9704 B( 12-C , 14-H ) :   0.9745 B( 12-C , 15-H ) :   0.9725
B( 16-S , 17-C ) :   1.1323 B( 16-S , 20-C ) :   1.1153 B( 17-C , 18-C ) :   1.6518
B( 17-C , 33-H ) :   0.9609 B( 18-C , 19-C ) :   1.2115 B( 18-C , 21-H ) :   0.9898
B( 19-C , 20-C ) :   1.6286 B( 19-C , 22-C ) :   1.0459 B( 22-C , 23-H ) :   0.9210
B( 22-C , 24-H ) :   0.9435 B( 22-C , 25-C ) :   1.0504 B( 25-C , 26-H ) :   0.9583
B( 25-C , 27-H ) :   0.9488 B( 25-C , 28-C ) :   1.0899 B( 28-C , 29-H ) :   0.9731
B( 28-C , 30-H ) :   0.9709 B( 28-C , 31-H ) :   0.9651

Dispersion correction           -0.015553995
FINAL SINGLE POINT ENERGY     -1339.870814190466

DIPOLE MOMENT
-------------
                                X             Y             Z
Electronic contribution:     11.27963     -17.02808     -25.59825
Nuclear contribution   :    -11.48227      17.61397      26.19909
                        -----------------------------------------
Total Dipole Moment    :     -0.20264       0.58588       0.60084
                        -----------------------------------------
Magnitude (a.u.)       :      0.86332
Magnitude (Debye)      :      2.19439

Rotational constants in cm-1:     0.017401     0.010866     0.007007
Rotational constants in MHz :   521.667348   325.740583   210.062513

                             ****ORCA TERMINATED NORMALLY****
TOTAL RUN TIME: 0 days 0 hours 0 minutes 22 seconds 947 msec
