                         Program Version 4.2.1 -  RELEASE  -
|  1> ! wB97X-D3 SP def2-SVP
|  2> %pal
|  3> nprocs 24
|  4> end
|  5>
|  6> * xyz 0 1
|  7> S 	 -116.436 	 63.5052 	 -81.7935
|  8> C 	 -116.341 	 64.2043 	 -80.2028
|  9> C 	 -116.505 	 63.1938 	 -79.2258
| 10> C 	 -116.708 	 61.9136 	 -79.7347
| 11> C 	 -117.002 	 61.9538 	 -81.0831
| 12> H 	 -116.844 	 60.9757 	 -79.1624
| 13> C 	 -116.532 	 63.263 	 -77.7375
| 14> H 	 -115.901 	 64.1409 	 -77.4454
| 15> H 	 -115.856 	 62.5081 	 -77.2577
| 16> C 	 -117.889 	 63.241 	 -76.9629
| 17> H 	 -117.545 	 63.4487 	 -75.9386
| 18> H 	 -118.455 	 63.9882 	 -77.3242
| 19> C 	 -118.584 	 61.8747 	 -76.9603
| 20> H 	 -119.033 	 61.6768 	 -77.898
| 21> H 	 -118.08 	 61.0079 	 -76.475
| 22> H 	 -119.546 	 62.0161 	 -76.3499
| 23> S 	 -116.2 	 60.6885 	 -83.4087
| 24> C 	 -117.167 	 59.2957 	 -83.9441
| 25> C 	 -117.943 	 58.778 	 -82.8788
| 26> C 	 -118.056 	 59.7105 	 -81.7451
| 27> C 	 -117.277 	 60.8135 	 -81.953
| 28> H 	 -118.364 	 57.7608 	 -83.0214
| 29> C 	 -118.786 	 59.2345 	 -80.4675
| 30> H 	 -119.558 	 58.5744 	 -80.8472
| 31> H 	 -119.13 	 60.0459 	 -79.8275
| 32> C 	 -118.002 	 58.2991 	 -79.604
| 33> H 	 -117.36 	 58.9958 	 -79.0753
| 34> H 	 -117.191 	 57.788 	 -80.1413
| 35> C 	 -118.869 	 57.3905 	 -78.7443
| 36> H 	 -119.674 	 57.9549 	 -78.2392
| 37> H 	 -118.248 	 56.8786 	 -78.0364
| 38> H 	 -119.367 	 56.6199 	 -79.3711
| 39> H 	 -116.397 	 65.2729 	 -79.9824
| 40> H 	 -117.107 	 58.716 	 -84.8366
| 41> *
| 42>
| 43>                          ****END OF INPUT****

CARTESIAN COORDINATES (ANGSTROEM)
---------------------------------
  S    -116.436000   63.505200  -81.793500
  C    -116.341000   64.204300  -80.202800
  C    -116.505000   63.193800  -79.225800
  C    -116.708000   61.913600  -79.734700
  C    -117.002000   61.953800  -81.083100
  H    -116.844000   60.975700  -79.162400
  C    -116.532000   63.263000  -77.737500
  H    -115.901000   64.140900  -77.445400
  H    -115.856000   62.508100  -77.257700
  C    -117.889000   63.241000  -76.962900
  H    -117.545000   63.448700  -75.938600
  H    -118.455000   63.988200  -77.324200
  C    -118.584000   61.874700  -76.960300
  H    -119.033000   61.676800  -77.898000
  H    -118.080000   61.007900  -76.475000
  H    -119.546000   62.016100  -76.349900
  S    -116.200000   60.688500  -83.408700
  C    -117.167000   59.295700  -83.944100
  C    -117.943000   58.778000  -82.878800
  C    -118.056000   59.710500  -81.745100
  C    -117.277000   60.813500  -81.953000
  H    -118.364000   57.760800  -83.021400
  C    -118.786000   59.234500  -80.467500
  H    -119.558000   58.574400  -80.847200
  H    -119.130000   60.045900  -79.827500
  C    -118.002000   58.299100  -79.604000
  H    -117.360000   58.995800  -79.075300
  H    -117.191000   57.788000  -80.141300
  C    -118.869000   57.390500  -78.744300
  H    -119.674000   57.954900  -78.239200
  H    -118.248000   56.878600  -78.036400
  H    -119.367000   56.619900  -79.371100
  H    -116.397000   65.272900  -79.982400
  H    -117.107000   58.716000  -84.836600

 Total Charge           Charge          ....    0
 Multiplicity           Mult            ....    1
 Number of Electrons    NEL             ....  134
 Basis Dimension        Dim             ....  322

ORBITAL ENERGIES
----------------

  NO   OCC          E(Eh)            E(eV)
   0   2.0000     -88.967896     -2420.9395
   1   2.0000     -88.966207     -2420.8936
   2   2.0000     -10.330566      -281.1090
   3   2.0000     -10.328881      -281.0631
   4   2.0000     -10.319117      -280.7974
   5   2.0000     -10.318693      -280.7859
   6   2.0000     -10.309355      -280.5318
   7   2.0000     -10.302640      -280.3491
   8   2.0000     -10.299518      -280.2641
   9   2.0000     -10.293492      -280.1002
  10   2.0000     -10.293099      -280.0895
  11   2.0000     -10.292771      -280.0805
  12   2.0000     -10.286903      -279.9209
  13   2.0000     -10.286576      -279.9120
  14   2.0000     -10.286449      -279.9085
  15   2.0000     -10.284658      -279.8598
  16   2.0000      -8.081917      -219.9201
  17   2.0000      -8.079472      -219.8536
  18   2.0000      -6.040453      -164.3691
  19   2.0000      -6.038245      -164.3090
  20   2.0000      -6.036637      -164.2653
  21   2.0000      -6.034576      -164.2092
  22   2.0000      -6.032561      -164.1543
  23   2.0000      -6.029633      -164.0747
  24   2.0000      -1.002208       -27.2715
  25   2.0000      -0.975548       -26.5460
  26   2.0000      -0.918561       -24.9953
  27   2.0000      -0.909473       -24.7480
  28   2.0000      -0.865037       -23.5389
  29   2.0000      -0.854984       -23.2653
  30   2.0000      -0.844524       -22.9807
  31   2.0000      -0.809864       -22.0375
  32   2.0000      -0.785729       -21.3808
  33   2.0000      -0.771667       -20.9981
  34   2.0000      -0.707667       -19.2566
  35   2.0000      -0.706278       -19.2188
  36   2.0000      -0.693708       -18.8768
  37   2.0000      -0.661477       -17.9997
  38   2.0000      -0.638730       -17.3807
  39   2.0000      -0.617687       -16.8081
  40   2.0000      -0.596258       -16.2250
  41   2.0000      -0.576065       -15.6755
  42   2.0000      -0.570438       -15.5224
  43   2.0000      -0.542622       -14.7655
  44   2.0000      -0.535933       -14.5835
  45   2.0000      -0.523771       -14.2525
  46   2.0000      -0.513350       -13.9690
  47   2.0000      -0.511901       -13.9295
  48   2.0000      -0.506147       -13.7730
  49   2.0000      -0.499746       -13.5988
  50   2.0000      -0.492382       -13.3984
  51   2.0000      -0.490341       -13.3429
  52   2.0000      -0.468399       -12.7458
  53   2.0000      -0.464248       -12.6328
  54   2.0000      -0.458958       -12.4889
  55   2.0000      -0.454280       -12.3616
  56   2.0000      -0.447363       -12.1734
  57   2.0000      -0.440627       -11.9901
  58   2.0000      -0.429067       -11.6755
  59   2.0000      -0.424441       -11.5496
  60   2.0000      -0.419572       -11.4171
  61   2.0000      -0.411484       -11.1971
  62   2.0000      -0.407135       -11.0787
  63   2.0000      -0.349561        -9.5120
  64   2.0000      -0.329488        -8.9658
  65   2.0000      -0.325156        -8.8479
  66   2.0000      -0.284301        -7.7362
  67   0.0000       0.017892         0.4869
  68   0.0000       0.064063         1.7433
  69   0.0000       0.084439         2.2977
  70   0.0000       0.120209         3.2710
  71   0.0000       0.125895         3.4258

MULLIKEN ATOMIC CHARGES
-----------------------
   0 S :    0.098695
   1 C :   -0.105869
   2 C :   -0.074225
   3 C :    0.016468
   4 C :   -0.141271
   5 H :    0.020154
   6 C :   -0.018249
   7 H :    0.015210
   8 H :    0.028339
   9 C :    0.021539
  10 H :    0.031869
  11 H :    0.006558
  12 C :   -0.086290
  13 H :    0.033880
  14 H :    0.050430
  15 H :    0.032202
  16 S :    0.093362
  17 C :   -0.076895
  18 C :   -0.077925
  19 C :   -0.039142
  20 C :   -0.132349
  21 H :    0.038572
  22 C :    0.069130
  23 H :    0.012467
  24 H :    0.034404
  25 C :   -0.066248
  26 H :   -0.001982
  27 H :    0.027249
  28 C :   -0.028324
  29 H :    0.038085
  30 H :    0.034900
  31 H :    0.039044
  32 H :    0.059565
  33 H :    0.046648
Sum of atomic charges:   -0.0000000

LOEWDIN ATOMIC CHARGES
----------------------
   0 S :    0.392258
   1 C :   -0.205629
   2 C :   -0.068529
   3 C :   -0.057045
   4 C :   -0.172900
   5 H :    0.036481
   6 C :   -0.050230
   7 H :    0.029373
   8 H :    0.035611
   9 C :   -0.019959
  10 H :    0.031729
  11 H :    0.009799
  12 C :   -0.076979
  13 H :    0.017323
  14 H :    0.032163
  15 H :    0.037604
  16 S :    0.359179
  17 C :   -0.177505
  18 C :   -0.069303
  19 C :   -0.054537
  20 C :   -0.174491
  21 H :    0.036758
  22 C :   -0.027978
  23 H :    0.028459
  24 H :    0.029309
  25 C :   -0.050908
  26 H :    0.015651
  27 H :    0.028152
  28 C :   -0.059144
  29 H :    0.029854
  30 H :    0.026484
  31 H :    0.030543
  32 H :    0.033655
  33 H :    0.024752

  Mayer bond orders larger than 0.100000
B(  0-S ,  1-C ) :   1.1382 B(  0-S ,  4-C ) :   1.1477 B(  1-C ,  2-C ) :   1.5831
B(  1-C ,  4-C ) :   0.1087 B(  1-C , 32-H ) :   0.9656 B(  2-C ,  3-C ) :   1.2614
B(  2-C ,  6-C ) :   1.0351 B(  3-C ,  4-C ) :   1.5438 B(  3-C ,  5-H ) :   0.9753
B(  4-C , 20-C ) :   1.0548 B(  6-C ,  7-H ) :   0.9372 B(  6-C ,  8-H ) :   0.9398
B(  6-C ,  9-C ) :   1.0610 B(  9-C , 10-H ) :   0.9524 B(  9-C , 11-H ) :   0.9530
B(  9-C , 12-C ) :   1.0952 B( 12-C , 13-H ) :   0.9668 B( 12-C , 14-H ) :   0.9723
B( 12-C , 15-H ) :   0.9642 B( 16-S , 17-C ) :   1.1145 B( 16-S , 20-C ) :   1.1080
B( 17-C , 18-C ) :   1.6741 B( 17-C , 33-H ) :   0.9693 B( 18-C , 19-C ) :   1.1724
B( 18-C , 21-H ) :   0.9780 B( 19-C , 20-C ) :   1.6659 B( 19-C , 22-C ) :   1.0581
B( 22-C , 23-H ) :   0.9308 B( 22-C , 24-H ) :   0.9328 B( 22-C , 25-C ) :   1.0551
B( 25-C , 26-H ) :   0.9426 B( 25-C , 27-H ) :   0.9460 B( 25-C , 28-C ) :   1.0772
B( 28-C , 29-H ) :   0.9739 B( 28-C , 30-H ) :   0.9717 B( 28-C , 31-H ) :   0.9724

Dispersion correction           -0.015498420
FINAL SINGLE POINT ENERGY     -1339.836847519971

DIPOLE MOMENT
-------------
                                X             Y             Z
Electronic contribution:     11.89873      12.05624     -27.93976
Nuclear contribution   :    -12.16279     -12.49944      28.70164
                        -----------------------------------------
Total Dipole Moment    :     -0.26406      -0.44320       0.76188
                        -----------------------------------------
Magnitude (a.u.)       :      0.92012
Magnitude (Debye)      :      2.33875

Rotational constants in cm-1:     0.015869     0.011593     0.007016
Rotational constants in MHz :   475.733150   347.536564   210.345877

                             ****ORCA TERMINATED NORMALLY****
TOTAL RUN TIME: 0 days 0 hours 0 minutes 22 seconds 794 msec
