                         Program Version 4.2.1 -  RELEASE  -
|  1> ! wB97X-D3 SP def2-SVP
|  2> %pal
|  3> nprocs 24
|  4> end
|  5>
|  6> * xyz 0 1
|  7> S 	 -128.897 	 30.6414 	 -20.416
|  8> C 	 -129.942 	 31.9912 	 -20.8423
|  9> C 	 -130.966 	 31.5903 	 -21.6316
| 10> C 	 -130.987 	 30.1943 	 -21.8016
| 11> C 	 -129.91 	 29.4922 	 -21.2534
| 12> H 	 -131.746 	 29.6253 	 -22.3873
| 13> C 	 -131.956 	 32.5488 	 -22.234
| 14> H 	 -131.872 	 32.4839 	 -23.2976
| 15> H 	 -131.477 	 33.4713 	 -22.0383
| 16> C 	 -133.317 	 32.5471 	 -21.5448
| 17> H 	 -133.312 	 32.4372 	 -20.4437
| 18> H 	 -133.771 	 33.4474 	 -21.6311
| 19> C 	 -134.294 	 31.5666 	 -22.1881
| 20> H 	 -135.318 	 31.6136 	 -21.8054
| 21> H 	 -134.404 	 31.7547 	 -23.2488
| 22> H 	 -133.777 	 30.634 	 -22.028
| 23> S 	 -127.966 	 27.911 	 -22.4338
| 24> C 	 -128.432 	 26.2426 	 -22.8523
| 25> C 	 -129.526 	 25.8803 	 -22.1295
| 26> C 	 -130.217 	 26.9803 	 -21.6085
| 27> C 	 -129.507 	 28.1416 	 -21.6679
| 28> H 	 -129.968 	 24.8708 	 -22.2189
| 29> C 	 -131.648 	 26.7489 	 -21.1535
| 30> H 	 -132.177 	 26.3092 	 -22.0196
| 31> H 	 -132.059 	 27.7946 	 -20.9105
| 32> C 	 -131.747 	 25.7704 	 -19.961
| 33> H 	 -131.111 	 26.2345 	 -19.1765
| 34> H 	 -131.282 	 24.8346 	 -20.2296
| 35> C 	 -133.161 	 25.4322 	 -19.4527
| 36> H 	 -133.559 	 24.744 	 -20.2182
| 37> H 	 -133.694 	 26.4631 	 -19.4489
| 38> H 	 -133.05 	 24.8944 	 -18.5352
| 39> H 	 -129.836 	 33.0207 	 -20.495
| 40> H 	 -127.921 	 25.5216 	 -23.5058
| 41> *
| 42>
| 43>                          ****END OF INPUT****

CARTESIAN COORDINATES (ANGSTROEM)
---------------------------------
  S    -128.897000   30.641400  -20.416000
  C    -129.942000   31.991200  -20.842300
  C    -130.966000   31.590300  -21.631600
  C    -130.987000   30.194300  -21.801600
  C    -129.910000   29.492200  -21.253400
  H    -131.746000   29.625300  -22.387300
  C    -131.956000   32.548800  -22.234000
  H    -131.872000   32.483900  -23.297600
  H    -131.477000   33.471300  -22.038300
  C    -133.317000   32.547100  -21.544800
  H    -133.312000   32.437200  -20.443700
  H    -133.771000   33.447400  -21.631100
  C    -134.294000   31.566600  -22.188100
  H    -135.318000   31.613600  -21.805400
  H    -134.404000   31.754700  -23.248800
  H    -133.777000   30.634000  -22.028000
  S    -127.966000   27.911000  -22.433800
  C    -128.432000   26.242600  -22.852300
  C    -129.526000   25.880300  -22.129500
  C    -130.217000   26.980300  -21.608500
  C    -129.507000   28.141600  -21.667900
  H    -129.968000   24.870800  -22.218900
  C    -131.648000   26.748900  -21.153500
  H    -132.177000   26.309200  -22.019600
  H    -132.059000   27.794600  -20.910500
  C    -131.747000   25.770400  -19.961000
  H    -131.111000   26.234500  -19.176500
  H    -131.282000   24.834600  -20.229600
  C    -133.161000   25.432200  -19.452700
  H    -133.559000   24.744000  -20.218200
  H    -133.694000   26.463100  -19.448900
  H    -133.050000   24.894400  -18.535200
  H    -129.836000   33.020700  -20.495000
  H    -127.921000   25.521600  -23.505800

 Total Charge           Charge          ....    0
 Multiplicity           Mult            ....    1
 Number of Electrons    NEL             ....  134
 Basis Dimension        Dim             ....  322

ORBITAL ENERGIES
----------------

  NO   OCC          E(Eh)            E(eV)
   0   2.0000     -88.966521     -2420.9021
   1   2.0000     -88.965431     -2420.8725
   2   2.0000     -10.330680      -281.1121
   3   2.0000     -10.324421      -280.9418
   4   2.0000     -10.319071      -280.7962
   5   2.0000     -10.311751      -280.5970
   6   2.0000     -10.297689      -280.2144
   7   2.0000     -10.294527      -280.1283
   8   2.0000     -10.294121      -280.1173
   9   2.0000     -10.293769      -280.1077
  10   2.0000     -10.289577      -279.9936
  11   2.0000     -10.286915      -279.9212
  12   2.0000     -10.285570      -279.8846
  13   2.0000     -10.284923      -279.8670
  14   2.0000     -10.279000      -279.7058
  15   2.0000     -10.273824      -279.5650
  16   2.0000      -8.081044      -219.8964
  17   2.0000      -8.080004      -219.8681
  18   2.0000      -6.039649      -164.3472
  19   2.0000      -6.038649      -164.3200
  20   2.0000      -6.035448      -164.2329
  21   2.0000      -6.034695      -164.2124
  22   2.0000      -6.031851      -164.1350
  23   2.0000      -6.030436      -164.0965
  24   2.0000      -1.010929       -27.5088
  25   2.0000      -0.990244       -26.9459
  26   2.0000      -0.918815       -25.0022
  27   2.0000      -0.906404       -24.6645
  28   2.0000      -0.873079       -23.7577
  29   2.0000      -0.851337       -23.1661
  30   2.0000      -0.846954       -23.0468
  31   2.0000      -0.817024       -22.2324
  32   2.0000      -0.784002       -21.3338
  33   2.0000      -0.770199       -20.9582
  34   2.0000      -0.709204       -19.2984
  35   2.0000      -0.702763       -19.1231
  36   2.0000      -0.689136       -18.7524
  37   2.0000      -0.660625       -17.9765
  38   2.0000      -0.638262       -17.3680
  39   2.0000      -0.617695       -16.8083
  40   2.0000      -0.592519       -16.1233
  41   2.0000      -0.576324       -15.6826
  42   2.0000      -0.565021       -15.3750
  43   2.0000      -0.558123       -15.1873
  44   2.0000      -0.535331       -14.5671
  45   2.0000      -0.529250       -14.4016
  46   2.0000      -0.524357       -14.2685
  47   2.0000      -0.514803       -14.0085
  48   2.0000      -0.504007       -13.7147
  49   2.0000      -0.498565       -13.5666
  50   2.0000      -0.492859       -13.4114
  51   2.0000      -0.482989       -13.1428
  52   2.0000      -0.467344       -12.7171
  53   2.0000      -0.464076       -12.6281
  54   2.0000      -0.457165       -12.4401
  55   2.0000      -0.451118       -12.2755
  56   2.0000      -0.443731       -12.0745
  57   2.0000      -0.439821       -11.9681
  58   2.0000      -0.428632       -11.6637
  59   2.0000      -0.419931       -11.4269
  60   2.0000      -0.419392       -11.4122
  61   2.0000      -0.414618       -11.2823
  62   2.0000      -0.409112       -11.1325
  63   2.0000      -0.351362        -9.5610
  64   2.0000      -0.333079        -9.0635
  65   2.0000      -0.329317        -8.9612
  66   2.0000      -0.290417        -7.9027
  67   0.0000       0.035194         0.9577
  68   0.0000       0.064297         1.7496
  69   0.0000       0.115029         3.1301
  70   0.0000       0.123480         3.3601
  71   0.0000       0.132494         3.6054

MULLIKEN ATOMIC CHARGES
-----------------------
   0 S :    0.104320
   1 C :   -0.130357
   2 C :   -0.114087
   3 C :    0.008470
   4 C :   -0.165883
   5 H :    0.032787
   6 C :    0.115539
   7 H :    0.034030
   8 H :   -0.010787
   9 C :   -0.017495
  10 H :    0.032992
  11 H :   -0.004042
  12 C :   -0.044698
  13 H :    0.036732
  14 H :    0.024403
  15 H :    0.019857
  16 S :    0.110303
  17 C :   -0.107339
  18 C :   -0.029110
  19 C :   -0.053192
  20 C :   -0.139352
  21 H :    0.031059
  22 C :    0.047911
  23 H :    0.033650
  24 H :    0.037442
  25 C :   -0.128005
  26 H :    0.039214
  27 H :    0.020381
  28 C :   -0.027097
  29 H :    0.033240
  30 H :    0.052109
  31 H :    0.043822
  32 H :    0.050788
  33 H :    0.062396
Sum of atomic charges:   -0.0000000

LOEWDIN ATOMIC CHARGES
----------------------
   0 S :    0.402313
   1 C :   -0.196066
   2 C :   -0.068075
   3 C :   -0.071443
   4 C :   -0.195955
   5 H :    0.033193
   6 C :   -0.021289
   7 H :    0.034757
   8 H :    0.027226
   9 C :   -0.033377
  10 H :    0.033460
  11 H :    0.007620
  12 C :   -0.061621
  13 H :    0.027031
  14 H :    0.022334
  15 H :    0.020406
  16 S :    0.395249
  17 C :   -0.173202
  18 C :   -0.072370
  19 C :   -0.065057
  20 C :   -0.201700
  21 H :    0.035620
  22 C :   -0.035710
  23 H :    0.030454
  24 H :    0.034980
  25 C :   -0.047557
  26 H :    0.027370
  27 H :    0.015709
  28 C :   -0.066004
  29 H :    0.027196
  30 H :    0.039852
  31 H :    0.026249
  32 H :    0.032425
  33 H :    0.035979

  Mayer bond orders larger than 0.100000
B(  0-S ,  1-C ) :   1.1322 B(  0-S ,  4-C ) :   1.1577 B(  1-C ,  2-C ) :   1.6194
B(  1-C , 32-H ) :   0.9600 B(  2-C ,  3-C ) :   1.2674 B(  2-C ,  6-C ) :   1.0184
B(  3-C ,  4-C ) :   1.5493 B(  3-C ,  5-H ) :   0.9765 B(  4-C , 20-C ) :   1.0299
B(  6-C ,  7-H ) :   0.9378 B(  6-C ,  8-H ) :   0.9240 B(  6-C ,  9-C ) :   1.0562
B(  9-C , 10-H ) :   0.9543 B(  9-C , 11-H ) :   0.9517 B(  9-C , 12-C ) :   1.0762
B( 12-C , 13-H ) :   0.9715 B( 12-C , 14-H ) :   0.9767 B( 12-C , 15-H ) :   0.9780
B( 16-S , 17-C ) :   1.1392 B( 16-S , 20-C ) :   1.1207 B( 17-C , 18-C ) :   1.6401
B( 17-C , 33-H ) :   0.9643 B( 18-C , 19-C ) :   1.2316 B( 18-C , 21-H ) :   0.9752
B( 19-C , 20-C ) :   1.6364 B( 19-C , 22-C ) :   1.0374 B( 22-C , 23-H ) :   0.9344
B( 22-C , 24-H ) :   0.9268 B( 22-C , 25-C ) :   1.0625 B( 25-C , 26-H ) :   0.9557
B( 25-C , 27-H ) :   0.9555 B( 25-C , 28-C ) :   1.0754 B( 28-C , 29-H ) :   0.9748
B( 28-C , 30-H ) :   0.9739 B( 28-C , 31-H ) :   0.9731

Dispersion correction           -0.013962421
FINAL SINGLE POINT ENERGY     -1339.859007086019

DIPOLE MOMENT
-------------
                                X             Y             Z
Electronic contribution:     28.72756       2.07009      -2.28880
Nuclear contribution   :    -29.35750      -2.10738       2.05016
                        -----------------------------------------
Total Dipole Moment    :     -0.62994      -0.03728      -0.23864
                        -----------------------------------------
Magnitude (a.u.)       :      0.67465
Magnitude (Debye)      :      1.71484

Rotational constants in cm-1:     0.016248     0.009283     0.006869
Rotational constants in MHz :   487.092132   278.303309   205.939554

                             ****ORCA TERMINATED NORMALLY****
TOTAL RUN TIME: 0 days 0 hours 0 minutes 21 seconds 682 msec
