                         Program Version 4.2.1 -  RELEASE  -
|  1> ! wB97X-D3 SP def2-SVP
|  2> %pal
|  3> nprocs 24
|  4> end
|  5>
|  6> * xyz 0 1
|  7> S 	 -61.8844 	 11.9503 	 -106.201
|  8> C 	 -63.4481 	 12.631 	 -105.982
|  9> C 	 -63.5644 	 13.2834 	 -104.822
| 10> C 	 -62.3388 	 13.1656 	 -104.091
| 11> C 	 -61.3711 	 12.4242 	 -104.679
| 12> H 	 -62.3366 	 13.5132 	 -103.045
| 13> C 	 -64.7003 	 14.1855 	 -104.389
| 14> H 	 -64.3074 	 14.7896 	 -103.539
| 15> H 	 -65.6143 	 13.594 	 -104.08
| 16> C 	 -64.9786 	 15.256 	 -105.373
| 17> H 	 -63.9349 	 15.6772 	 -105.611
| 18> H 	 -65.4306 	 14.8663 	 -106.309
| 19> C 	 -65.7777 	 16.4423 	 -104.833
| 20> H 	 -64.9843 	 17.0698 	 -104.462
| 21> H 	 -66.1924 	 17.01 	 -105.643
| 22> H 	 -66.5362 	 16.2499 	 -104.183
| 23> S 	 -59.461 	 10.4448 	 -104.347
| 24> C 	 -57.8958 	 10.7171 	 -103.521
| 25> C 	 -57.8259 	 12.0692 	 -103.303
| 26> C 	 -59.0143 	 12.8145 	 -103.611
| 27> C 	 -60.068 	 12.0199 	 -104.109
| 28> H 	 -56.951 	 12.4585 	 -102.88
| 29> C 	 -59.1084 	 14.3462 	 -103.4
| 30> H 	 -59.8561 	 14.7585 	 -104.131
| 31> H 	 -58.1092 	 14.6812 	 -103.678
| 32> C 	 -59.4014 	 14.7777 	 -101.993
| 33> H 	 -58.5839 	 14.486 	 -101.286
| 34> H 	 -60.2957 	 14.2944 	 -101.528
| 35> C 	 -59.6373 	 16.3458 	 -101.851
| 36> H 	 -58.6674 	 16.7691 	 -102.069
| 37> H 	 -59.8939 	 16.62 	 -100.824
| 38> H 	 -60.4843 	 16.7675 	 -102.501
| 39> H 	 -64.2416 	 12.5344 	 -106.612
| 40> H 	 -57.0991 	 9.9663 	 -103.36
| 41> *
| 42>
| 43>                          ****END OF INPUT****

CARTESIAN COORDINATES (ANGSTROEM)
---------------------------------
  S    -61.884400   11.950300  -106.201000
  C    -63.448100   12.631000  -105.982000
  C    -63.564400   13.283400  -104.822000
  C    -62.338800   13.165600  -104.091000
  C    -61.371100   12.424200  -104.679000
  H    -62.336600   13.513200  -103.045000
  C    -64.700300   14.185500  -104.389000
  H    -64.307400   14.789600  -103.539000
  H    -65.614300   13.594000  -104.080000
  C    -64.978600   15.256000  -105.373000
  H    -63.934900   15.677200  -105.611000
  H    -65.430600   14.866300  -106.309000
  C    -65.777700   16.442300  -104.833000
  H    -64.984300   17.069800  -104.462000
  H    -66.192400   17.010000  -105.643000
  H    -66.536200   16.249900  -104.183000
  S    -59.461000   10.444800  -104.347000
  C    -57.895800   10.717100  -103.521000
  C    -57.825900   12.069200  -103.303000
  C    -59.014300   12.814500  -103.611000
  C    -60.068000   12.019900  -104.109000
  H    -56.951000   12.458500  -102.880000
  C    -59.108400   14.346200  -103.400000
  H    -59.856100   14.758500  -104.131000
  H    -58.109200   14.681200  -103.678000
  C    -59.401400   14.777700  -101.993000
  H    -58.583900   14.486000  -101.286000
  H    -60.295700   14.294400  -101.528000
  C    -59.637300   16.345800  -101.851000
  H    -58.667400   16.769100  -102.069000
  H    -59.893900   16.620000  -100.824000
  H    -60.484300   16.767500  -102.501000
  H    -64.241600   12.534400  -106.612000
  H    -57.099100    9.966300  -103.360000

 Total Charge           Charge          ....    0
 Multiplicity           Mult            ....    1
 Number of Electrons    NEL             ....  134
 Basis Dimension        Dim             ....  322

ORBITAL ENERGIES
----------------

  NO   OCC          E(Eh)            E(eV)
   0   2.0000     -88.964709     -2420.8528
   1   2.0000     -88.962491     -2420.7925
   2   2.0000     -10.329073      -281.0684
   3   2.0000     -10.325468      -280.9703
   4   2.0000     -10.324046      -280.9316
   5   2.0000     -10.305503      -280.4270
   6   2.0000     -10.299138      -280.2538
   7   2.0000     -10.296330      -280.1774
   8   2.0000     -10.294119      -280.1172
   9   2.0000     -10.292852      -280.0827
  10   2.0000     -10.292477      -280.0725
  11   2.0000     -10.291889      -280.0565
  12   2.0000     -10.289759      -279.9986
  13   2.0000     -10.288923      -279.9758
  14   2.0000     -10.285790      -279.8906
  15   2.0000     -10.268307      -279.4148
  16   2.0000      -8.081580      -219.9110
  17   2.0000      -8.077477      -219.7993
  18   2.0000      -6.040013      -164.3571
  19   2.0000      -6.036047      -164.2492
  20   2.0000      -6.035710      -164.2400
  21   2.0000      -6.032361      -164.1489
  22   2.0000      -6.031759      -164.1325
  23   2.0000      -6.028319      -164.0389
  24   2.0000      -1.020740       -27.7758
  25   2.0000      -0.991503       -26.9802
  26   2.0000      -0.923726       -25.1359
  27   2.0000      -0.902759       -24.5653
  28   2.0000      -0.876391       -23.8478
  29   2.0000      -0.851640       -23.1743
  30   2.0000      -0.840630       -22.8747
  31   2.0000      -0.821270       -22.3479
  32   2.0000      -0.789057       -21.4713
  33   2.0000      -0.769603       -20.9420
  34   2.0000      -0.707570       -19.2540
  35   2.0000      -0.694765       -18.9055
  36   2.0000      -0.689032       -18.7495
  37   2.0000      -0.663539       -18.0558
  38   2.0000      -0.642915       -17.4946
  39   2.0000      -0.622186       -16.9305
  40   2.0000      -0.591803       -16.1038
  41   2.0000      -0.581483       -15.8230
  42   2.0000      -0.575529       -15.6609
  43   2.0000      -0.561060       -15.2672
  44   2.0000      -0.533415       -14.5150
  45   2.0000      -0.528066       -14.3694
  46   2.0000      -0.520294       -14.1579
  47   2.0000      -0.515233       -14.0202
  48   2.0000      -0.507966       -13.8225
  49   2.0000      -0.499483       -13.5916
  50   2.0000      -0.497772       -13.5451
  51   2.0000      -0.482639       -13.1333
  52   2.0000      -0.470650       -12.8070
  53   2.0000      -0.466326       -12.6894
  54   2.0000      -0.461144       -12.5484
  55   2.0000      -0.446777       -12.1574
  56   2.0000      -0.444084       -12.0841
  57   2.0000      -0.437024       -11.8920
  58   2.0000      -0.428445       -11.6586
  59   2.0000      -0.422721       -11.5028
  60   2.0000      -0.418792       -11.3959
  61   2.0000      -0.412071       -11.2130
  62   2.0000      -0.401615       -10.9285
  63   2.0000      -0.353540        -9.6203
  64   2.0000      -0.333095        -9.0640
  65   2.0000      -0.327461        -8.9107
  66   2.0000      -0.297653        -8.0996
  67   0.0000       0.033390         0.9086
  68   0.0000       0.077658         2.1132
  69   0.0000       0.116835         3.1792
  70   0.0000       0.121652         3.3103
  71   0.0000       0.133237         3.6256

MULLIKEN ATOMIC CHARGES
-----------------------
   0 S :    0.126061
   1 C :   -0.087225
   2 C :   -0.090264
   3 C :   -0.011230
   4 C :   -0.122760
   5 H :    0.016351
   6 C :    0.080673
   7 H :    0.015519
   8 H :    0.051899
   9 C :   -0.152610
  10 H :    0.043001
  11 H :    0.031605
  12 C :    0.016101
  13 H :    0.026780
  14 H :    0.021894
  15 H :    0.019373
  16 S :    0.085322
  17 C :   -0.109883
  18 C :   -0.003729
  19 C :   -0.063308
  20 C :   -0.122783
  21 H :   -0.000600
  22 C :    0.086946
  23 H :    0.041204
  24 H :    0.018764
  25 C :   -0.105145
  26 H :    0.031462
  27 H :    0.032999
  28 C :   -0.064642
  29 H :    0.031481
  30 H :    0.033689
  31 H :    0.046992
  32 H :   -0.000753
  33 H :    0.076817
Sum of atomic charges:    0.0000000

LOEWDIN ATOMIC CHARGES
----------------------
   0 S :    0.449169
   1 C :   -0.185411
   2 C :   -0.066149
   3 C :   -0.072422
   4 C :   -0.215899
   5 H :    0.032388
   6 C :   -0.038170
   7 H :    0.033948
   8 H :    0.037477
   9 C :   -0.047237
  10 H :    0.035214
  11 H :    0.017200
  12 C :   -0.056850
  13 H :    0.029989
  14 H :    0.028725
  15 H :    0.010928
  16 S :    0.407786
  17 C :   -0.178945
  18 C :   -0.068299
  19 C :   -0.056949
  20 C :   -0.210706
  21 H :    0.022067
  22 C :   -0.034444
  23 H :    0.036720
  24 H :    0.030112
  25 C :   -0.049170
  26 H :    0.027598
  27 H :    0.022425
  28 C :   -0.070581
  29 H :    0.021226
  30 H :    0.024336
  31 H :    0.032704
  32 H :    0.008831
  33 H :    0.042387

  Mayer bond orders larger than 0.100000
B(  0-S ,  1-C ) :   1.1442 B(  0-S ,  4-C ) :   1.1697 B(  1-C ,  2-C ) :   1.6192
B(  1-C , 32-H ) :   0.9799 B(  2-C ,  3-C ) :   1.2716 B(  2-C ,  6-C ) :   1.0143
B(  3-C ,  4-C ) :   1.5608 B(  3-C ,  5-H ) :   0.9924 B(  4-C , 20-C ) :   1.0211
B(  6-C ,  7-H ) :   0.9449 B(  6-C ,  8-H ) :   0.9250 B(  6-C ,  9-C ) :   1.0672
B(  9-C , 10-H ) :   0.9649 B(  9-C , 11-H ) :   0.9530 B(  9-C , 12-C ) :   1.0758
B( 12-C , 13-H ) :   0.9771 B( 12-C , 14-H ) :   0.9701 B( 12-C , 15-H ) :   0.9764
B( 16-S , 17-C ) :   1.1505 B( 16-S , 20-C ) :   1.1567 B( 17-C , 18-C ) :   1.5815
B( 17-C , 20-C ) :   0.1029 B( 17-C , 33-H ) :   0.9683 B( 18-C , 19-C ) :   1.2692
B( 18-C , 21-H ) :   0.9977 B( 19-C , 20-C ) :   1.5501 B( 19-C , 22-C ) :   1.0388
B( 22-C , 23-H ) :   0.9329 B( 22-C , 24-H ) :   0.9297 B( 22-C , 25-C ) :   1.0662
B( 25-C , 26-H ) :   0.9525 B( 25-C , 27-H ) :   0.9576 B( 25-C , 28-C ) :   1.0714
B( 28-C , 29-H ) :   0.9775 B( 28-C , 30-H ) :   0.9765 B( 28-C , 31-H ) :   0.9762

Dispersion correction           -0.013922800
FINAL SINGLE POINT ENERGY     -1339.864881213413

DIPOLE MOMENT
-------------
                                X             Y             Z
Electronic contribution:     10.71563     -28.40595     -10.69871
Nuclear contribution   :    -10.79652      28.97376      10.97698
                        -----------------------------------------
Total Dipole Moment    :     -0.08089       0.56781       0.27827
                        -----------------------------------------
Magnitude (a.u.)       :      0.63748
Magnitude (Debye)      :      1.62035

Rotational constants in cm-1:     0.018812     0.008761     0.006276
Rotational constants in MHz :   563.968448   262.646368   188.135950

                             ****ORCA TERMINATED NORMALLY****
TOTAL RUN TIME: 0 days 0 hours 0 minutes 21 seconds 570 msec
