                         Program Version 4.2.1 -  RELEASE  -
|  1> ! wB97X-D3 SP def2-SVP
|  2> %pal
|  3> nprocs 24
|  4> end
|  5>
|  6> * xyz 0 1
|  7> S 	 -128.001 	 63.5776 	 -41.5197
|  8> C 	 -126.43 	 63.6621 	 -42.2817
|  9> C 	 -125.464 	 63.9726 	 -41.347
| 10> C 	 -125.99 	 64.0478 	 -40.0275
| 11> C 	 -127.375 	 63.8453 	 -39.9263
| 12> H 	 -125.349 	 64.2724 	 -39.1839
| 13> C 	 -123.967 	 64.1051 	 -41.6109
| 14> H 	 -123.671 	 65.1249 	 -41.3396
| 15> H 	 -123.842 	 63.8666 	 -42.7135
| 16> C 	 -123.236 	 63.0581 	 -40.8973
| 17> H 	 -122.174 	 63.1655 	 -40.9261
| 18> H 	 -123.494 	 63.0432 	 -39.8484
| 19> C 	 -123.472 	 61.5978 	 -41.5049
| 20> H 	 -122.941 	 61.4606 	 -42.4909
| 21> H 	 -123.036 	 60.7913 	 -40.8974
| 22> H 	 -124.541 	 61.3716 	 -41.7173
| 23> S 	 -129.811 	 62.9798 	 -39.0428
| 24> C 	 -130.401 	 63.5332 	 -37.4778
| 25> C 	 -129.528 	 64.3777 	 -36.805
| 26> C 	 -128.292 	 64.5333 	 -37.5637
| 27> C 	 -128.294 	 63.9268 	 -38.8218
| 28> H 	 -129.7 	 64.6626 	 -35.7928
| 29> C 	 -127.265 	 65.5045 	 -36.9863
| 30> H 	 -127.691 	 66.4614 	 -36.8101
| 31> H 	 -126.572 	 65.6315 	 -37.8225
| 32> C 	 -126.458 	 65.1332 	 -35.726
| 33> H 	 -125.737 	 64.3837 	 -35.919
| 34> H 	 -127.142 	 64.7277 	 -34.9146
| 35> C 	 -125.659 	 66.317 	 -35.1111
| 36> H 	 -125.252 	 65.875 	 -34.1969
| 37> H 	 -126.255 	 67.284 	 -34.8903
| 38> H 	 -124.812 	 66.5281 	 -35.7323
| 39> H 	 -126.234 	 63.4879 	 -43.2693
| 40> H 	 -131.376 	 63.3043 	 -37.1021
| 41> *
| 42>
| 43>                          ****END OF INPUT****

CARTESIAN COORDINATES (ANGSTROEM)
---------------------------------
  S    -128.001000   63.577600  -41.519700
  C    -126.430000   63.662100  -42.281700
  C    -125.464000   63.972600  -41.347000
  C    -125.990000   64.047800  -40.027500
  C    -127.375000   63.845300  -39.926300
  H    -125.349000   64.272400  -39.183900
  C    -123.967000   64.105100  -41.610900
  H    -123.671000   65.124900  -41.339600
  H    -123.842000   63.866600  -42.713500
  C    -123.236000   63.058100  -40.897300
  H    -122.174000   63.165500  -40.926100
  H    -123.494000   63.043200  -39.848400
  C    -123.472000   61.597800  -41.504900
  H    -122.941000   61.460600  -42.490900
  H    -123.036000   60.791300  -40.897400
  H    -124.541000   61.371600  -41.717300
  S    -129.811000   62.979800  -39.042800
  C    -130.401000   63.533200  -37.477800
  C    -129.528000   64.377700  -36.805000
  C    -128.292000   64.533300  -37.563700
  C    -128.294000   63.926800  -38.821800
  H    -129.700000   64.662600  -35.792800
  C    -127.265000   65.504500  -36.986300
  H    -127.691000   66.461400  -36.810100
  H    -126.572000   65.631500  -37.822500
  C    -126.458000   65.133200  -35.726000
  H    -125.737000   64.383700  -35.919000
  H    -127.142000   64.727700  -34.914600
  C    -125.659000   66.317000  -35.111100
  H    -125.252000   65.875000  -34.196900
  H    -126.255000   67.284000  -34.890300
  H    -124.812000   66.528100  -35.732300
  H    -126.234000   63.487900  -43.269300
  H    -131.376000   63.304300  -37.102100

 Total Charge           Charge          ....    0
 Multiplicity           Mult            ....    1
 Number of Electrons    NEL             ....  134
 Basis Dimension        Dim             ....  322

ORBITAL ENERGIES
----------------

  NO   OCC          E(Eh)            E(eV)
   0   2.0000     -88.967023     -2420.9158
   1   2.0000     -88.965859     -2420.8841
   2   2.0000     -10.335065      -281.2314
   3   2.0000     -10.333976      -281.2018
   4   2.0000     -10.321247      -280.8554
   5   2.0000     -10.311035      -280.5775
   6   2.0000     -10.308074      -280.4969
   7   2.0000     -10.299095      -280.2526
   8   2.0000     -10.296612      -280.1851
   9   2.0000     -10.296426      -280.1800
  10   2.0000     -10.294756      -280.1346
  11   2.0000     -10.291946      -280.0581
  12   2.0000     -10.289257      -279.9849
  13   2.0000     -10.286811      -279.9184
  14   2.0000     -10.284505      -279.8556
  15   2.0000     -10.284117      -279.8450
  16   2.0000      -8.080964      -219.8942
  17   2.0000      -8.080925      -219.8931
  18   2.0000      -6.039628      -164.3466
  19   2.0000      -6.039504      -164.3433
  20   2.0000      -6.035653      -164.2385
  21   2.0000      -6.035317      -164.2293
  22   2.0000      -6.031659      -164.1298
  23   2.0000      -6.031518      -164.1260
  24   2.0000      -1.007239       -27.4084
  25   2.0000      -0.980175       -26.6719
  26   2.0000      -0.920383       -25.0449
  27   2.0000      -0.905852       -24.6495
  28   2.0000      -0.870727       -23.6937
  29   2.0000      -0.852081       -23.1863
  30   2.0000      -0.838056       -22.8047
  31   2.0000      -0.813448       -22.1351
  32   2.0000      -0.781749       -21.2725
  33   2.0000      -0.774259       -21.0687
  34   2.0000      -0.713775       -19.4228
  35   2.0000      -0.697520       -18.9805
  36   2.0000      -0.694648       -18.9023
  37   2.0000      -0.664683       -18.0869
  38   2.0000      -0.640839       -17.4381
  39   2.0000      -0.628104       -17.0916
  40   2.0000      -0.594622       -16.1805
  41   2.0000      -0.572109       -15.5679
  42   2.0000      -0.567155       -15.4331
  43   2.0000      -0.559112       -15.2142
  44   2.0000      -0.540625       -14.7112
  45   2.0000      -0.523402       -14.2425
  46   2.0000      -0.518940       -14.1211
  47   2.0000      -0.513238       -13.9659
  48   2.0000      -0.508166       -13.8279
  49   2.0000      -0.498645       -13.5688
  50   2.0000      -0.487504       -13.2656
  51   2.0000      -0.476602       -12.9690
  52   2.0000      -0.466402       -12.6914
  53   2.0000      -0.460183       -12.5222
  54   2.0000      -0.457488       -12.4489
  55   2.0000      -0.455611       -12.3978
  56   2.0000      -0.448501       -12.2043
  57   2.0000      -0.439020       -11.9463
  58   2.0000      -0.436400       -11.8751
  59   2.0000      -0.423155       -11.5146
  60   2.0000      -0.419459       -11.4141
  61   2.0000      -0.411936       -11.2093
  62   2.0000      -0.409363       -11.1393
  63   2.0000      -0.360445        -9.8082
  64   2.0000      -0.334025        -9.0893
  65   2.0000      -0.329771        -8.9735
  66   2.0000      -0.284389        -7.7386
  67   0.0000       0.018070         0.4917
  68   0.0000       0.077892         2.1195
  69   0.0000       0.098831         2.6893
  70   0.0000       0.116529         3.1709
  71   0.0000       0.129953         3.5362

MULLIKEN ATOMIC CHARGES
-----------------------
   0 S :    0.096793
   1 C :   -0.078945
   2 C :   -0.116798
   3 C :    0.000026
   4 C :   -0.114944
   5 H :    0.011397
   6 C :    0.090828
   7 H :    0.044107
   8 H :    0.025907
   9 C :   -0.052771
  10 H :    0.025482
  11 H :    0.026655
  12 C :   -0.112382
  13 H :    0.030685
  14 H :    0.039453
  15 H :    0.052142
  16 S :    0.083908
  17 C :   -0.071406
  18 C :   -0.016931
  19 C :   -0.056435
  20 C :   -0.106034
  21 H :    0.020498
  22 C :    0.074233
  23 H :    0.021808
  24 H :    0.004510
  25 C :   -0.088475
  26 H :    0.022576
  27 H :    0.034313
  28 C :   -0.070051
  29 H :    0.035926
  30 H :    0.052606
  31 H :    0.030671
  32 H :    0.009592
  33 H :    0.051058
Sum of atomic charges:   -0.0000000

LOEWDIN ATOMIC CHARGES
----------------------
   0 S :    0.415056
   1 C :   -0.187802
   2 C :   -0.058821
   3 C :   -0.073493
   4 C :   -0.192110
   5 H :    0.025662
   6 C :   -0.030506
   7 H :    0.035534
   8 H :    0.037311
   9 C :   -0.040859
  10 H :    0.021864
  11 H :    0.020373
  12 C :   -0.074853
  13 H :    0.026609
  14 H :    0.027168
  15 H :    0.028221
  16 S :    0.374648
  17 C :   -0.165720
  18 C :   -0.065564
  19 C :   -0.047666
  20 C :   -0.181214
  21 H :    0.030025
  22 C :   -0.034702
  23 H :    0.027805
  24 H :    0.027448
  25 C :   -0.038820
  26 H :    0.019105
  27 H :    0.026175
  28 C :   -0.068798
  29 H :    0.029781
  30 H :    0.034585
  31 H :    0.019838
  32 H :    0.009792
  33 H :    0.023927

  Mayer bond orders larger than 0.100000
B(  0-S ,  1-C ) :   1.1320 B(  0-S ,  4-C ) :   1.1628 B(  1-C ,  2-C ) :   1.5982
B(  1-C ,  4-C ) :   0.1016 B(  1-C , 32-H ) :   0.9804 B(  2-C ,  3-C ) :   1.2686
B(  2-C ,  6-C ) :   1.0155 B(  3-C ,  4-C ) :   1.5364 B(  3-C ,  5-H ) :   0.9850
B(  4-C , 20-C ) :   1.0794 B(  6-C ,  7-H ) :   0.9343 B(  6-C ,  8-H ) :   0.9430
B(  6-C ,  9-C ) :   1.0797 B(  9-C , 10-H ) :   0.9533 B(  9-C , 11-H ) :   0.9558
B(  9-C , 12-C ) :   1.0586 B( 12-C , 13-H ) :   0.9743 B( 12-C , 14-H ) :   0.9761
B( 12-C , 15-H ) :   0.9793 B( 16-S , 17-C ) :   1.1475 B( 16-S , 20-C ) :   1.1050
B( 17-C , 18-C ) :   1.6352 B( 17-C , 33-H ) :   0.9666 B( 18-C , 19-C ) :   1.2068
B( 18-C , 21-H ) :   0.9903 B( 19-C , 20-C ) :   1.6196 B( 19-C , 22-C ) :   1.0416
B( 22-C , 23-H ) :   0.9410 B( 22-C , 24-H ) :   0.9318 B( 22-C , 25-C ) :   1.0566
B( 25-C , 26-H ) :   0.9522 B( 25-C , 27-H ) :   0.9610 B( 25-C , 28-C ) :   1.0799
B( 28-C , 29-H ) :   0.9739 B( 28-C , 30-H ) :   0.9737 B( 28-C , 31-H ) :   0.9771

Dispersion correction           -0.013832622
FINAL SINGLE POINT ENERGY     -1339.877717482542

DIPOLE MOMENT
-------------
                                X             Y             Z
Electronic contribution:    -25.59182      -4.63134     -10.84723
Nuclear contribution   :     26.13287       4.84304      11.26527
                        -----------------------------------------
Total Dipole Moment    :      0.54105       0.21171       0.41804
                        -----------------------------------------
Magnitude (a.u.)       :      0.71576
Magnitude (Debye)      :      1.81933

Rotational constants in cm-1:     0.016758     0.009248     0.006544
Rotational constants in MHz :   502.406183   277.243018   196.184455

                             ****ORCA TERMINATED NORMALLY****
TOTAL RUN TIME: 0 days 0 hours 0 minutes 21 seconds 486 msec
