                         Program Version 4.2.1 -  RELEASE  -
|  1> ! wB97X-D3 SP def2-SVP
|  2> %pal
|  3> nprocs 24
|  4> end
|  5>
|  6> * xyz 0 1
|  7> S 	 -66.9013 	 -46.2498 	 -90.1554
|  8> C 	 -65.6126 	 -45.0384 	 -90.2706
|  9> C 	 -64.4613 	 -45.505 	 -90.9126
| 10> C 	 -64.597 	 -46.9171 	 -91.1728
| 11> C 	 -65.8048 	 -47.4898 	 -90.7333
| 12> H 	 -63.819 	 -47.4896 	 -91.6553
| 13> C 	 -63.1596 	 -44.7928 	 -91.1183
| 14> H 	 -63.5318 	 -43.8145 	 -91.5231
| 15> H 	 -62.6601 	 -45.3244 	 -91.956
| 16> C 	 -62.1616 	 -44.6356 	 -89.8895
| 17> H 	 -62.5642 	 -44.2646 	 -88.9538
| 18> H 	 -61.909 	 -45.6212 	 -89.5594
| 19> C 	 -60.9674 	 -43.6664 	 -90.2547
| 20> H 	 -61.31 	 -42.6362 	 -90.3034
| 21> H 	 -60.1426 	 -43.7885 	 -89.6059
| 22> H 	 -60.5806 	 -43.9863 	 -91.2339
| 23> S 	 -67.6369 	 -49.3426 	 -89.8403
| 24> C 	 -67.221 	 -51.033 	 -89.8728
| 25> C 	 -66.0239 	 -51.2333 	 -90.4734
| 26> C 	 -65.387 	 -50.0493 	 -90.9859
| 27> C 	 -66.1094 	 -48.9034 	 -90.5888
| 28> H 	 -65.4498 	 -52.1933 	 -90.4558
| 29> C 	 -64.0734 	 -50.1171 	 -91.7334
| 30> H 	 -63.7493 	 -51.0746 	 -91.7037
| 31> H 	 -63.3475 	 -49.5908 	 -91.0813
| 32> C 	 -64.1285 	 -49.6284 	 -93.2341
| 33> H 	 -64.2111 	 -48.6039 	 -93.3998
| 34> H 	 -64.9166 	 -50.2311 	 -93.6449
| 35> C 	 -62.7926 	 -49.867 	 -93.8798
| 36> H 	 -61.9529 	 -49.2832 	 -93.5036
| 37> H 	 -62.7884 	 -49.8726 	 -94.9946
| 38> H 	 -62.4289 	 -50.8449 	 -93.4787
| 39> H 	 -65.6543 	 -44.0594 	 -89.9577
| 40> H 	 -67.7309 	 -51.8112 	 -89.381
| 41> *
| 42>
| 43>                          ****END OF INPUT****

CARTESIAN COORDINATES (ANGSTROEM)
---------------------------------
  S    -66.901300  -46.249800  -90.155400
  C    -65.612600  -45.038400  -90.270600
  C    -64.461300  -45.505000  -90.912600
  C    -64.597000  -46.917100  -91.172800
  C    -65.804800  -47.489800  -90.733300
  H    -63.819000  -47.489600  -91.655300
  C    -63.159600  -44.792800  -91.118300
  H    -63.531800  -43.814500  -91.523100
  H    -62.660100  -45.324400  -91.956000
  C    -62.161600  -44.635600  -89.889500
  H    -62.564200  -44.264600  -88.953800
  H    -61.909000  -45.621200  -89.559400
  C    -60.967400  -43.666400  -90.254700
  H    -61.310000  -42.636200  -90.303400
  H    -60.142600  -43.788500  -89.605900
  H    -60.580600  -43.986300  -91.233900
  S    -67.636900  -49.342600  -89.840300
  C    -67.221000  -51.033000  -89.872800
  C    -66.023900  -51.233300  -90.473400
  C    -65.387000  -50.049300  -90.985900
  C    -66.109400  -48.903400  -90.588800
  H    -65.449800  -52.193300  -90.455800
  C    -64.073400  -50.117100  -91.733400
  H    -63.749300  -51.074600  -91.703700
  H    -63.347500  -49.590800  -91.081300
  C    -64.128500  -49.628400  -93.234100
  H    -64.211100  -48.603900  -93.399800
  H    -64.916600  -50.231100  -93.644900
  C    -62.792600  -49.867000  -93.879800
  H    -61.952900  -49.283200  -93.503600
  H    -62.788400  -49.872600  -94.994600
  H    -62.428900  -50.844900  -93.478700
  H    -65.654300  -44.059400  -89.957700
  H    -67.730900  -51.811200  -89.381000

 Total Charge           Charge          ....    0
 Multiplicity           Mult            ....    1
 Number of Electrons    NEL             ....  134
 Basis Dimension        Dim             ....  322

ORBITAL ENERGIES
----------------

  NO   OCC          E(Eh)            E(eV)
   0   2.0000     -88.969299     -2420.9777
   1   2.0000     -88.966287     -2420.8958
   2   2.0000     -10.332613      -281.1647
   3   2.0000     -10.330512      -281.1075
   4   2.0000     -10.311447      -280.5887
   5   2.0000     -10.309930      -280.5474
   6   2.0000     -10.303784      -280.3802
   7   2.0000     -10.303213      -280.3647
   8   2.0000     -10.301270      -280.3118
   9   2.0000     -10.294499      -280.1275
  10   2.0000     -10.294073      -280.1160
  11   2.0000     -10.293599      -280.1031
  12   2.0000     -10.292441      -280.0716
  13   2.0000     -10.284277      -279.8494
  14   2.0000     -10.282025      -279.7881
  15   2.0000     -10.281476      -279.7732
  16   2.0000      -8.083355      -219.9593
  17   2.0000      -8.081118      -219.8984
  18   2.0000      -6.042064      -164.4129
  19   2.0000      -6.039737      -164.3496
  20   2.0000      -6.038039      -164.3034
  21   2.0000      -6.035710      -164.2400
  22   2.0000      -6.033890      -164.1905
  23   2.0000      -6.031683      -164.1304
  24   2.0000      -1.004750       -27.3406
  25   2.0000      -0.979956       -26.6660
  26   2.0000      -0.915623       -24.9154
  27   2.0000      -0.905152       -24.6304
  28   2.0000      -0.867254       -23.5992
  29   2.0000      -0.857437       -23.3320
  30   2.0000      -0.845732       -23.0135
  31   2.0000      -0.812764       -22.1164
  32   2.0000      -0.781575       -21.2677
  33   2.0000      -0.771673       -20.9983
  34   2.0000      -0.713776       -19.4228
  35   2.0000      -0.712210       -19.3802
  36   2.0000      -0.700079       -19.0501
  37   2.0000      -0.664061       -18.0700
  38   2.0000      -0.634897       -17.2764
  39   2.0000      -0.619172       -16.8485
  40   2.0000      -0.596346       -16.2274
  41   2.0000      -0.577548       -15.7159
  42   2.0000      -0.564905       -15.3718
  43   2.0000      -0.552431       -15.0324
  44   2.0000      -0.530462       -14.4346
  45   2.0000      -0.524936       -14.2842
  46   2.0000      -0.521661       -14.1951
  47   2.0000      -0.513764       -13.9802
  48   2.0000      -0.506592       -13.7851
  49   2.0000      -0.500646       -13.6233
  50   2.0000      -0.490748       -13.3539
  51   2.0000      -0.487655       -13.2698
  52   2.0000      -0.468914       -12.7598
  53   2.0000      -0.465984       -12.6801
  54   2.0000      -0.454791       -12.3755
  55   2.0000      -0.452067       -12.3014
  56   2.0000      -0.444339       -12.0911
  57   2.0000      -0.439590       -11.9619
  58   2.0000      -0.433731       -11.8024
  59   2.0000      -0.426987       -11.6189
  60   2.0000      -0.424066       -11.5394
  61   2.0000      -0.418372       -11.3845
  62   2.0000      -0.415205       -11.2983
  63   2.0000      -0.360625        -9.8131
  64   2.0000      -0.334928        -9.1138
  65   2.0000      -0.326406        -8.8820
  66   2.0000      -0.275401        -7.4940
  67   0.0000       0.013831         0.3764
  68   0.0000       0.085486         2.3262
  69   0.0000       0.092901         2.5280
  70   0.0000       0.119129         3.2417
  71   0.0000       0.132890         3.6161

MULLIKEN ATOMIC CHARGES
-----------------------
   0 S :    0.107339
   1 C :   -0.086237
   2 C :   -0.084223
   3 C :   -0.020911
   4 C :   -0.097626
   5 H :   -0.006089
   6 C :    0.027364
   7 H :    0.036139
   8 H :    0.032579
   9 C :   -0.040047
  10 H :    0.023562
  11 H :    0.017773
  12 C :   -0.038639
  13 H :    0.045149
  14 H :    0.030108
  15 H :    0.023966
  16 S :    0.094652
  17 C :   -0.057238
  18 C :   -0.039112
  19 C :   -0.101580
  20 C :   -0.105937
  21 H :    0.033237
  22 C :    0.078386
  23 H :   -0.027473
  24 H :    0.037617
  25 C :   -0.017897
  26 H :    0.031324
  27 H :    0.038164
  28 C :   -0.061808
  29 H :    0.021964
  30 H :    0.052088
  31 H :    0.004986
  32 H :    0.008089
  33 H :    0.040333
Sum of atomic charges:    0.0000000

LOEWDIN ATOMIC CHARGES
----------------------
   0 S :    0.393146
   1 C :   -0.179506
   2 C :   -0.061641
   3 C :   -0.067343
   4 C :   -0.184483
   5 H :    0.024399
   6 C :   -0.037410
   7 H :    0.036937
   8 H :    0.034828
   9 C :   -0.034178
  10 H :    0.023786
  11 H :    0.020667
  12 C :   -0.058709
  13 H :    0.028489
  14 H :    0.021205
  15 H :    0.024879
  16 S :    0.399594
  17 C :   -0.184299
  18 C :   -0.076126
  19 C :   -0.057224
  20 C :   -0.186980
  21 H :    0.038326
  22 C :   -0.025179
  23 H :    0.012521
  24 H :    0.035669
  25 C :   -0.027650
  26 H :    0.017690
  27 H :    0.030664
  28 C :   -0.073119
  29 H :    0.023794
  30 H :    0.031677
  31 H :    0.021892
  32 H :    0.009688
  33 H :    0.023995

  Mayer bond orders larger than 0.100000
B(  0-S ,  1-C ) :   1.1278 B(  0-S ,  4-C ) :   1.1347 B(  1-C ,  2-C ) :   1.6096
B(  1-C , 32-H ) :   0.9744 B(  2-C ,  3-C ) :   1.2516 B(  2-C ,  6-C ) :   1.0250
B(  3-C ,  4-C ) :   1.5448 B(  3-C ,  5-H ) :   0.9833 B(  4-C , 20-C ) :   1.1152
B(  6-C ,  7-H ) :   0.9394 B(  6-C ,  8-H ) :   0.9399 B(  6-C ,  9-C ) :   1.0446
B(  9-C , 10-H ) :   0.9610 B(  9-C , 11-H ) :   0.9567 B(  9-C , 12-C ) :   1.0652
B( 12-C , 13-H ) :   0.9791 B( 12-C , 14-H ) :   0.9761 B( 12-C , 15-H ) :   0.9780
B( 16-S , 17-C ) :   1.1398 B( 16-S , 20-C ) :   1.1313 B( 17-C , 18-C ) :   1.6212
B( 17-C , 33-H ) :   0.9693 B( 18-C , 19-C ) :   1.2622 B( 18-C , 21-H ) :   0.9741
B( 19-C , 20-C ) :   1.5614 B( 19-C , 22-C ) :   1.0503 B( 22-C , 23-H ) :   0.9154
B( 22-C , 24-H ) :   0.9250 B( 22-C , 25-C ) :   1.0536 B( 25-C , 26-H ) :   0.9567
B( 25-C , 27-H ) :   0.9511 B( 25-C , 28-C ) :   1.0786 B( 28-C , 29-H ) :   0.9712
B( 28-C , 30-H ) :   0.9728 B( 28-C , 31-H ) :   0.9673

Dispersion correction           -0.013935286
FINAL SINGLE POINT ENERGY     -1339.857087902059

DIPOLE MOMENT
-------------
                                X             Y             Z
Electronic contribution:    -30.24233      -4.98180      10.71008
Nuclear contribution   :     31.05910       4.86636     -10.77699
                        -----------------------------------------
Total Dipole Moment    :      0.81676      -0.11543      -0.06691
                        -----------------------------------------
Magnitude (a.u.)       :      0.82759
Magnitude (Debye)      :      2.10357

Rotational constants in cm-1:     0.017672     0.008819     0.006471
Rotational constants in MHz :   529.796059   264.400329   193.985134

                             ****ORCA TERMINATED NORMALLY****
TOTAL RUN TIME: 0 days 0 hours 0 minutes 21 seconds 500 msec
