                         Program Version 4.2.1 -  RELEASE  -
|  1> ! wB97X-D3 SP def2-SVP
|  2> %pal
|  3> nprocs 24
|  4> end
|  5>
|  6> * xyz 0 1
|  7> S 	 -48.5432 	 23.9403 	 30.6219
|  8> C 	 -47.7296 	 25.3269 	 31.3285
|  9> C 	 -46.9298 	 24.8611 	 32.3326
| 10> C 	 -46.77 	 23.4616 	 32.4081
| 11> C 	 -47.6208 	 22.765 	 31.6028
| 12> H 	 -46.0186 	 22.9092 	 32.9339
| 13> C 	 -46.2537 	 25.7634 	 33.306
| 14> H 	 -45.9329 	 26.6841 	 32.7724
| 15> H 	 -45.3257 	 25.2146 	 33.594
| 16> C 	 -47.1204 	 26.092 	 34.5638
| 17> H 	 -47.9976 	 26.6064 	 34.1107
| 18> H 	 -47.5909 	 25.161 	 34.902
| 19> C 	 -46.5752 	 26.792 	 35.8121
| 20> H 	 -46.0397 	 27.7656 	 35.6829
| 21> H 	 -47.474 	 26.9638 	 36.5044
| 22> H 	 -45.8382 	 26.0998 	 36.3501
| 23> S 	 -47.2447 	 20.9962 	 29.5902
| 24> C 	 -46.9969 	 19.3089 	 29.8654
| 25> C 	 -47.1661 	 19.0735 	 31.1795
| 26> C 	 -47.4886 	 20.2235 	 31.9601
| 27> C 	 -47.5143 	 21.3955 	 31.2381
| 28> H 	 -47.125 	 18.0461 	 31.5169
| 29> C 	 -47.6612 	 20.1027 	 33.4492
| 30> H 	 -47.2201 	 20.9411 	 33.9322
| 31> H 	 -46.9757 	 19.3115 	 33.751
| 32> C 	 -49.0631 	 19.7908 	 33.9463
| 33> H 	 -49.3286 	 19.0203 	 33.2594
| 34> H 	 -49.8091 	 20.5617 	 33.684
| 35> C 	 -49.4266 	 19.3946 	 35.446
| 36> H 	 -49.0377 	 20.0713 	 36.1793
| 37> H 	 -49.1394 	 18.3612 	 35.6745
| 38> H 	 -50.5347 	 19.3635 	 35.5755
| 39> H 	 -47.7658 	 26.3456 	 30.9362
| 40> H 	 -46.6906 	 18.4748 	 29.1634
| 41> *
| 42>
| 43>                          ****END OF INPUT****

CARTESIAN COORDINATES (ANGSTROEM)
---------------------------------
  S    -48.543200   23.940300   30.621900
  C    -47.729600   25.326900   31.328500
  C    -46.929800   24.861100   32.332600
  C    -46.770000   23.461600   32.408100
  C    -47.620800   22.765000   31.602800
  H    -46.018600   22.909200   32.933900
  C    -46.253700   25.763400   33.306000
  H    -45.932900   26.684100   32.772400
  H    -45.325700   25.214600   33.594000
  C    -47.120400   26.092000   34.563800
  H    -47.997600   26.606400   34.110700
  H    -47.590900   25.161000   34.902000
  C    -46.575200   26.792000   35.812100
  H    -46.039700   27.765600   35.682900
  H    -47.474000   26.963800   36.504400
  H    -45.838200   26.099800   36.350100
  S    -47.244700   20.996200   29.590200
  C    -46.996900   19.308900   29.865400
  C    -47.166100   19.073500   31.179500
  C    -47.488600   20.223500   31.960100
  C    -47.514300   21.395500   31.238100
  H    -47.125000   18.046100   31.516900
  C    -47.661200   20.102700   33.449200
  H    -47.220100   20.941100   33.932200
  H    -46.975700   19.311500   33.751000
  C    -49.063100   19.790800   33.946300
  H    -49.328600   19.020300   33.259400
  H    -49.809100   20.561700   33.684000
  C    -49.426600   19.394600   35.446000
  H    -49.037700   20.071300   36.179300
  H    -49.139400   18.361200   35.674500
  H    -50.534700   19.363500   35.575500
  H    -47.765800   26.345600   30.936200
  H    -46.690600   18.474800   29.163400

 Total Charge           Charge          ....    0
 Multiplicity           Mult            ....    1
 Number of Electrons    NEL             ....  134
 Basis Dimension        Dim             ....  322

ORBITAL ENERGIES
----------------

  NO   OCC          E(Eh)            E(eV)
   0   2.0000     -88.963685     -2420.8249
   1   2.0000     -88.962139     -2420.7829
   2   2.0000     -10.329762      -281.0871
   3   2.0000     -10.323702      -280.9222
   4   2.0000     -10.317306      -280.7482
   5   2.0000     -10.317128      -280.7433
   6   2.0000     -10.300743      -280.2975
   7   2.0000     -10.297816      -280.2178
   8   2.0000     -10.295849      -280.1643
   9   2.0000     -10.294019      -280.1145
  10   2.0000     -10.292471      -280.0724
  11   2.0000     -10.291237      -280.0388
  12   2.0000     -10.288231      -279.9570
  13   2.0000     -10.284964      -279.8681
  14   2.0000     -10.284215      -279.8477
  15   2.0000     -10.284005      -279.8420
  16   2.0000      -8.078036      -219.8145
  17   2.0000      -8.077997      -219.8135
  18   2.0000      -6.036684      -164.2665
  19   2.0000      -6.036574      -164.2635
  20   2.0000      -6.032471      -164.1519
  21   2.0000      -6.032183      -164.1440
  22   2.0000      -6.028792      -164.0518
  23   2.0000      -6.028687      -164.0489
  24   2.0000      -1.017603       -27.6904
  25   2.0000      -0.992589       -27.0097
  26   2.0000      -0.908933       -24.7333
  27   2.0000      -0.906185       -24.6586
  28   2.0000      -0.877393       -23.8751
  29   2.0000      -0.849206       -23.1081
  30   2.0000      -0.842512       -22.9259
  31   2.0000      -0.823750       -22.4154
  32   2.0000      -0.782541       -21.2940
  33   2.0000      -0.770641       -20.9702
  34   2.0000      -0.713465       -19.4144
  35   2.0000      -0.699157       -19.0250
  36   2.0000      -0.695233       -18.9182
  37   2.0000      -0.662755       -18.0345
  38   2.0000      -0.645682       -17.5699
  39   2.0000      -0.622509       -16.9393
  40   2.0000      -0.595243       -16.1974
  41   2.0000      -0.567702       -15.4480
  42   2.0000      -0.555247       -15.1090
  43   2.0000      -0.549922       -14.9641
  44   2.0000      -0.527270       -14.3477
  45   2.0000      -0.525239       -14.2925
  46   2.0000      -0.517952       -14.0942
  47   2.0000      -0.517114       -14.0714
  48   2.0000      -0.514023       -13.9873
  49   2.0000      -0.505880       -13.7657
  50   2.0000      -0.496109       -13.4998
  51   2.0000      -0.483962       -13.1693
  52   2.0000      -0.470501       -12.8030
  53   2.0000      -0.464572       -12.6416
  54   2.0000      -0.460203       -12.5228
  55   2.0000      -0.451534       -12.2869
  56   2.0000      -0.447163       -12.1679
  57   2.0000      -0.430350       -11.7104
  58   2.0000      -0.428938       -11.6720
  59   2.0000      -0.419714       -11.4210
  60   2.0000      -0.415465       -11.3054
  61   2.0000      -0.408780       -11.1235
  62   2.0000      -0.404672       -11.0117
  63   2.0000      -0.354903        -9.6574
  64   2.0000      -0.329609        -8.9691
  65   2.0000      -0.326838        -8.8937
  66   2.0000      -0.297772        -8.1028
  67   0.0000       0.025836         0.7030
  68   0.0000       0.073092         1.9889
  69   0.0000       0.118348         3.2204
  70   0.0000       0.122973         3.3463
  71   0.0000       0.131707         3.5839

MULLIKEN ATOMIC CHARGES
-----------------------
   0 S :    0.087543
   1 C :   -0.127794
   2 C :   -0.093471
   3 C :    0.040867
   4 C :   -0.145952
   5 H :    0.018865
   6 C :    0.060073
   7 H :    0.026195
   8 H :    0.017122
   9 C :   -0.069889
  10 H :    0.022205
  11 H :    0.024528
  12 C :   -0.075475
  13 H :    0.045238
  14 H :    0.052775
  15 H :    0.042929
  16 S :    0.111442
  17 C :   -0.105248
  18 C :   -0.043109
  19 C :   -0.077069
  20 C :   -0.134860
  21 H :    0.017090
  22 C :    0.128588
  23 H :   -0.004753
  24 H :    0.009862
  25 C :   -0.072727
  26 H :    0.007856
  27 H :    0.031251
  28 C :   -0.042167
  29 H :    0.036834
  30 H :    0.029182
  31 H :    0.036522
  32 H :    0.065803
  33 H :    0.079745
Sum of atomic charges:   -0.0000000

LOEWDIN ATOMIC CHARGES
----------------------
   0 S :    0.381938
   1 C :   -0.189221
   2 C :   -0.071239
   3 C :   -0.052941
   4 C :   -0.179558
   5 H :    0.032523
   6 C :   -0.036345
   7 H :    0.029576
   8 H :    0.027170
   9 C :   -0.052732
  10 H :    0.026001
  11 H :    0.027238
  12 C :   -0.079328
  13 H :    0.027130
  14 H :    0.040676
  15 H :    0.031952
  16 S :    0.431532
  17 C :   -0.203729
  18 C :   -0.080107
  19 C :   -0.059447
  20 C :   -0.207300
  21 H :    0.031277
  22 C :   -0.032379
  23 H :    0.018513
  24 H :    0.031249
  25 C :   -0.046382
  26 H :    0.020227
  27 H :    0.028858
  28 C :   -0.065294
  29 H :    0.021697
  30 H :    0.023549
  31 H :    0.034075
  32 H :    0.038556
  33 H :    0.052265

  Mayer bond orders larger than 0.100000
B(  0-S ,  1-C ) :   1.1289 B(  0-S ,  4-C ) :   1.1299 B(  1-C ,  2-C ) :   1.6031
B(  1-C , 32-H ) :   0.9722 B(  2-C ,  3-C ) :   1.2396 B(  2-C ,  6-C ) :   1.0365
B(  3-C ,  4-C ) :   1.5885 B(  3-C ,  5-H ) :   0.9893 B(  4-C , 20-C ) :   1.0567
B(  6-C ,  7-H ) :   0.9396 B(  6-C ,  8-H ) :   0.9379 B(  6-C ,  9-C ) :   1.0482
B(  9-C , 10-H ) :   0.9530 B(  9-C , 11-H ) :   0.9534 B(  9-C , 12-C ) :   1.0762
B( 12-C , 13-H ) :   0.9757 B( 12-C , 14-H ) :   0.9704 B( 12-C , 15-H ) :   0.9728
B( 16-S , 17-C ) :   1.1561 B( 16-S , 20-C ) :   1.1460 B( 17-C , 18-C ) :   1.6136
B( 17-C , 33-H ) :   0.9574 B( 18-C , 19-C ) :   1.2544 B( 18-C , 21-H ) :   0.9899
B( 19-C , 20-C ) :   1.5796 B( 19-C , 22-C ) :   1.0484 B( 22-C , 23-H ) :   0.9229
B( 22-C , 24-H ) :   0.9283 B( 22-C , 25-C ) :   1.0558 B( 25-C , 26-H ) :   0.9525
B( 25-C , 27-H ) :   0.9585 B( 25-C , 28-C ) :   1.0725 B( 28-C , 29-H ) :   0.9784
B( 28-C , 30-H ) :   0.9772 B( 28-C , 31-H ) :   0.9754

Dispersion correction           -0.013525511
FINAL SINGLE POINT ENERGY     -1339.869823361453

DIPOLE MOMENT
-------------
                                X             Y             Z
Electronic contribution:     -0.12838      -3.29260     -29.39316
Nuclear contribution   :      0.43362       3.18777      29.89491
                        -----------------------------------------
Total Dipole Moment    :      0.30524      -0.10483       0.50175
                        -----------------------------------------
Magnitude (a.u.)       :      0.59658
Magnitude (Debye)      :      1.51639

Rotational constants in cm-1:     0.017069     0.008592     0.006391
Rotational constants in MHz :   511.728975   257.596135   191.585420

                             ****ORCA TERMINATED NORMALLY****
TOTAL RUN TIME: 0 days 0 hours 0 minutes 19 seconds 987 msec
