                         Program Version 4.2.1 -  RELEASE  -
|  1> ! wB97X-D3 SP def2-SVP
|  2> %pal
|  3> nprocs 24
|  4> end
|  5>
|  6> * xyz 0 1
|  7> S 	 -122.578 	 68.6404 	 -39.6913
|  8> C 	 -122.567 	 69.671 	 -38.2376
|  9> C 	 -123.861 	 70.1177 	 -37.92
| 10> C 	 -124.818 	 69.5179 	 -38.783
| 11> C 	 -124.289 	 68.8246 	 -39.8791
| 12> H 	 -125.87 	 69.6814 	 -38.7886
| 13> C 	 -124.262 	 70.9704 	 -36.6791
| 14> H 	 -125.048 	 71.6926 	 -37.0562
| 15> H 	 -123.357 	 71.5488 	 -36.5763
| 16> C 	 -124.495 	 70.1364 	 -35.3784
| 17> H 	 -125 	 70.7058 	 -34.6114
| 18> H 	 -125.064 	 69.2764 	 -35.752
| 19> C 	 -123.16 	 69.658 	 -34.7089
| 20> H 	 -122.494 	 69.0847 	 -35.3032
| 21> H 	 -122.478 	 70.4836 	 -34.3546
| 22> H 	 -123.37 	 69.1314 	 -33.7825
| 23> S 	 -125.462 	 69.6574 	 -42.2346
| 24> C 	 -126.207 	 68.5069 	 -43.3299
| 25> C 	 -126.045 	 67.2429 	 -42.8219
| 26> C 	 -125.271 	 67.143 	 -41.6382
| 27> C 	 -125.022 	 68.3587 	 -41.0573
| 28> H 	 -126.53 	 66.4725 	 -43.3189
| 29> C 	 -124.889 	 65.8789 	 -40.9263
| 30> H 	 -125.777 	 65.2871 	 -40.7366
| 31> H 	 -124.509 	 66.1386 	 -39.9815
| 32> C 	 -123.783 	 65.0761 	 -41.5548
| 33> H 	 -122.876 	 65.5558 	 -41.2987
| 34> H 	 -123.975 	 65.0054 	 -42.6404
| 35> C 	 -123.731 	 63.6775 	 -41.001
| 36> H 	 -123.348 	 62.9749 	 -41.7693
| 37> H 	 -124.663 	 63.187 	 -40.8241
| 38> H 	 -123.044 	 63.602 	 -40.1755
| 39> H 	 -121.645 	 70.0675 	 -37.7773
| 40> H 	 -126.832 	 68.7052 	 -44.1973
| 41> *
| 42>
| 43>                          ****END OF INPUT****

CARTESIAN COORDINATES (ANGSTROEM)
---------------------------------
  S    -122.578000   68.640400  -39.691300
  C    -122.567000   69.671000  -38.237600
  C    -123.861000   70.117700  -37.920000
  C    -124.818000   69.517900  -38.783000
  C    -124.289000   68.824600  -39.879100
  H    -125.870000   69.681400  -38.788600
  C    -124.262000   70.970400  -36.679100
  H    -125.048000   71.692600  -37.056200
  H    -123.357000   71.548800  -36.576300
  C    -124.495000   70.136400  -35.378400
  H    -125.000000   70.705800  -34.611400
  H    -125.064000   69.276400  -35.752000
  C    -123.160000   69.658000  -34.708900
  H    -122.494000   69.084700  -35.303200
  H    -122.478000   70.483600  -34.354600
  H    -123.370000   69.131400  -33.782500
  S    -125.462000   69.657400  -42.234600
  C    -126.207000   68.506900  -43.329900
  C    -126.045000   67.242900  -42.821900
  C    -125.271000   67.143000  -41.638200
  C    -125.022000   68.358700  -41.057300
  H    -126.530000   66.472500  -43.318900
  C    -124.889000   65.878900  -40.926300
  H    -125.777000   65.287100  -40.736600
  H    -124.509000   66.138600  -39.981500
  C    -123.783000   65.076100  -41.554800
  H    -122.876000   65.555800  -41.298700
  H    -123.975000   65.005400  -42.640400
  C    -123.731000   63.677500  -41.001000
  H    -123.348000   62.974900  -41.769300
  H    -124.663000   63.187000  -40.824100
  H    -123.044000   63.602000  -40.175500
  H    -121.645000   70.067500  -37.777300
  H    -126.832000   68.705200  -44.197300

 Total Charge           Charge          ....    0
 Multiplicity           Mult            ....    1
 Number of Electrons    NEL             ....  134
 Basis Dimension        Dim             ....  322

ORBITAL ENERGIES
----------------

  NO   OCC          E(Eh)            E(eV)
   0   2.0000     -88.970324     -2421.0056
   1   2.0000     -88.959934     -2420.7229
   2   2.0000     -10.330509      -281.1075
   3   2.0000     -10.327205      -281.0175
   4   2.0000     -10.322863      -280.8994
   5   2.0000     -10.317555      -280.7550
   6   2.0000     -10.307121      -280.4710
   7   2.0000     -10.300773      -280.2983
   8   2.0000     -10.300222      -280.2833
   9   2.0000     -10.297045      -280.1968
  10   2.0000     -10.293049      -280.0881
  11   2.0000     -10.286498      -279.9098
  12   2.0000     -10.280817      -279.7553
  13   2.0000     -10.277655      -279.6692
  14   2.0000     -10.277353      -279.6610
  15   2.0000     -10.270330      -279.4699
  16   2.0000      -8.084435      -219.9887
  17   2.0000      -8.073965      -219.7038
  18   2.0000      -6.042874      -164.4350
  19   2.0000      -6.038921      -164.3274
  20   2.0000      -6.035415      -164.2320
  21   2.0000      -6.032594      -164.1552
  22   2.0000      -6.028530      -164.0447
  23   2.0000      -6.024647      -163.9390
  24   2.0000      -1.003527       -27.3073
  25   2.0000      -0.981545       -26.7092
  26   2.0000      -0.916320       -24.9343
  27   2.0000      -0.905572       -24.6419
  28   2.0000      -0.866215       -23.5709
  29   2.0000      -0.850039       -23.1307
  30   2.0000      -0.845416       -23.0049
  31   2.0000      -0.811633       -22.0857
  32   2.0000      -0.783514       -21.3205
  33   2.0000      -0.773785       -21.0558
  34   2.0000      -0.710225       -19.3262
  35   2.0000      -0.699148       -19.0248
  36   2.0000      -0.694808       -18.9067
  37   2.0000      -0.662854       -18.0372
  38   2.0000      -0.640174       -17.4200
  39   2.0000      -0.615457       -16.7474
  40   2.0000      -0.597419       -16.2566
  41   2.0000      -0.576817       -15.6960
  42   2.0000      -0.570476       -15.5234
  43   2.0000      -0.549928       -14.9643
  44   2.0000      -0.536958       -14.6114
  45   2.0000      -0.526069       -14.3151
  46   2.0000      -0.519062       -14.1244
  47   2.0000      -0.510358       -13.8876
  48   2.0000      -0.508745       -13.8437
  49   2.0000      -0.498541       -13.5660
  50   2.0000      -0.479486       -13.0475
  51   2.0000      -0.476909       -12.9773
  52   2.0000      -0.473298       -12.8791
  53   2.0000      -0.465861       -12.6767
  54   2.0000      -0.458138       -12.4666
  55   2.0000      -0.447012       -12.1638
  56   2.0000      -0.441347       -12.0097
  57   2.0000      -0.437935       -11.9168
  58   2.0000      -0.434913       -11.8346
  59   2.0000      -0.423520       -11.5246
  60   2.0000      -0.419761       -11.4223
  61   2.0000      -0.417182       -11.3521
  62   2.0000      -0.405682       -11.0392
  63   2.0000      -0.336766        -9.1639
  64   2.0000      -0.330630        -8.9969
  65   2.0000      -0.326999        -8.8981
  66   2.0000      -0.304938        -8.2978
  67   0.0000       0.033529         0.9124
  68   0.0000       0.056131         1.5274
  69   0.0000       0.110794         3.0149
  70   0.0000       0.116584         3.1724
  71   0.0000       0.126458         3.4411

MULLIKEN ATOMIC CHARGES
-----------------------
   0 S :    0.124330
   1 C :   -0.138420
   2 C :   -0.125288
   3 C :    0.056820
   4 C :   -0.183763
   5 H :    0.003025
   6 C :    0.052414
   7 H :    0.050399
   8 H :    0.014226
   9 C :   -0.023111
  10 H :    0.042138
  11 H :    0.043140
  12 C :   -0.080885
  13 H :    0.029596
  14 H :    0.025965
  15 H :    0.035818
  16 S :    0.090378
  17 C :   -0.085787
  18 C :   -0.016756
  19 C :   -0.005751
  20 C :   -0.165260
  21 H :   -0.010289
  22 C :    0.078691
  23 H :    0.022659
  24 H :    0.000988
  25 C :   -0.049825
  26 H :    0.020414
  27 H :    0.031499
  28 C :   -0.037263
  29 H :    0.021913
  30 H :    0.018233
  31 H :    0.033822
  32 H :    0.064742
  33 H :    0.061189
Sum of atomic charges:   -0.0000000

LOEWDIN ATOMIC CHARGES
----------------------
   0 S :    0.410110
   1 C :   -0.197058
   2 C :   -0.062826
   3 C :   -0.059075
   4 C :   -0.209258
   5 H :    0.026733
   6 C :   -0.034930
   7 H :    0.040246
   8 H :    0.025151
   9 C :   -0.030338
  10 H :    0.027468
  11 H :    0.030753
  12 C :   -0.070562
  13 H :    0.016862
  14 H :    0.029134
  15 H :    0.027594
  16 S :    0.377634
  17 C :   -0.178148
  18 C :   -0.068632
  19 C :   -0.051260
  20 C :   -0.180731
  21 H :    0.019474
  22 C :   -0.028199
  23 H :    0.028574
  24 H :    0.021298
  25 C :   -0.034477
  26 H :    0.021673
  27 H :    0.025037
  28 C :   -0.066630
  29 H :    0.031363
  30 H :    0.019903
  31 H :    0.024698
  32 H :    0.032912
  33 H :    0.035506

  Mayer bond orders larger than 0.100000
B(  0-S ,  1-C ) :   1.1492 B(  0-S ,  4-C ) :   1.1537 B(  1-C ,  2-C ) :   1.5920
B(  1-C ,  4-C ) :   0.1044 B(  1-C , 32-H ) :   0.9597 B(  2-C ,  3-C ) :   1.2524
B(  2-C ,  6-C ) :   1.0145 B(  3-C ,  4-C ) :   1.5696 B(  3-C ,  5-H ) :   0.9931
B(  4-C , 20-C ) :   1.0221 B(  6-C ,  7-H ) :   0.9462 B(  6-C ,  8-H ) :   0.9413
B(  6-C ,  9-C ) :   1.0399 B(  9-C , 10-H ) :   0.9584 B(  9-C , 11-H ) :   0.9599
B(  9-C , 12-C ) :   1.0732 B( 12-C , 13-H ) :   0.9771 B( 12-C , 14-H ) :   0.9734
B( 12-C , 15-H ) :   0.9751 B( 16-S , 17-C ) :   1.1481 B( 16-S , 20-C ) :   1.1211
B( 17-C , 18-C ) :   1.6276 B( 17-C , 33-H ) :   0.9642 B( 18-C , 19-C ) :   1.2036
B( 18-C , 21-H ) :   1.0018 B( 19-C , 20-C ) :   1.6213 B( 19-C , 22-C ) :   1.0547
B( 22-C , 23-H ) :   0.9412 B( 22-C , 24-H ) :   0.9237 B( 22-C , 25-C ) :   1.0630
B( 25-C , 26-H ) :   0.9503 B( 25-C , 27-H ) :   0.9652 B( 25-C , 28-C ) :   1.0887
B( 28-C , 29-H ) :   0.9716 B( 28-C , 30-H ) :   0.9730 B( 28-C , 31-H ) :   0.9763

Dispersion correction           -0.014298980
FINAL SINGLE POINT ENERGY     -1339.867818072249

DIPOLE MOMENT
-------------
                                X             Y             Z
Electronic contribution:     -2.04574      11.76256     -17.29643
Nuclear contribution   :      1.87611     -11.96106      17.62139
                        -----------------------------------------
Total Dipole Moment    :     -0.16963      -0.19851       0.32496
                        -----------------------------------------
Magnitude (a.u.)       :      0.41687
Magnitude (Debye)      :      1.05959

Rotational constants in cm-1:     0.020048     0.007904     0.006433
Rotational constants in MHz :   601.038601   236.946766   192.851935

                             ****ORCA TERMINATED NORMALLY****
TOTAL RUN TIME: 0 days 0 hours 0 minutes 20 seconds 990 msec
