                         Program Version 4.2.1 -  RELEASE  -
|  1> ! wB97X-D3 SP def2-SVP
|  2> %pal
|  3> nprocs 24
|  4> end
|  5>
|  6> * xyz 0 1
|  7> S 	 -100.891 	 13.9459 	 -119.971
|  8> C 	 -100.218 	 15.4662 	 -120.388
|  9> C 	 -99.4998 	 15.3736 	 -121.563
| 10> C 	 -99.5643 	 14.1094 	 -122.191
| 11> C 	 -100.243 	 13.2021 	 -121.408
| 12> H 	 -99.0748 	 13.8083 	 -123.12
| 13> C 	 -98.5399 	 16.4393 	 -121.963
| 14> H 	 -97.5506 	 16.0834 	 -121.77
| 15> H 	 -98.6487 	 17.2621 	 -121.258
| 16> C 	 -98.6024 	 16.9051 	 -123.458
| 17> H 	 -98.2401 	 16.0803 	 -124.09
| 18> H 	 -99.6053 	 17.0623 	 -123.57
| 19> C 	 -97.662 	 18.115 	 -123.841
| 20> H 	 -98.3222 	 18.9132 	 -124.109
| 21> H 	 -96.9818 	 18.6269 	 -123.097
| 22> H 	 -97.0982 	 17.9217 	 -124.731
| 23> S 	 -101.193 	 11.5182 	 -123.273
| 24> C 	 -101.246 	 9.82471 	 -123.018
| 25> C 	 -100.668 	 9.47094 	 -121.829
| 26> C 	 -100.255 	 10.6088 	 -121.009
| 27> C 	 -100.473 	 11.7794 	 -121.719
| 28> H 	 -100.583 	 8.41233 	 -121.689
| 29> C 	 -99.6042 	 10.4295 	 -119.619
| 30> H 	 -99.3565 	 11.4235 	 -119.199
| 31> H 	 -98.6981 	 9.91393 	 -119.909
| 32> C 	 -100.537 	 9.67064 	 -118.643
| 33> H 	 -100.793 	 8.67347 	 -119.004
| 34> H 	 -101.506 	 10.2411 	 -118.598
| 35> C 	 -100.067 	 9.64113 	 -117.21
| 36> H 	 -100.567 	 8.95357 	 -116.615
| 37> H 	 -100.353 	 10.6285 	 -116.805
| 38> H 	 -99.0495 	 9.41848 	 -117.02
| 39> H 	 -100.213 	 16.3446 	 -119.732
| 40> H 	 -101.494 	 9.0938 	 -123.855
| 41> *
| 42>
| 43>                          ****END OF INPUT****

CARTESIAN COORDINATES (ANGSTROEM)
---------------------------------
  S    -100.891000   13.945900  -119.971000
  C    -100.218000   15.466200  -120.388000
  C    -99.499800   15.373600  -121.563000
  C    -99.564300   14.109400  -122.191000
  C    -100.243000   13.202100  -121.408000
  H    -99.074800   13.808300  -123.120000
  C    -98.539900   16.439300  -121.963000
  H    -97.550600   16.083400  -121.770000
  H    -98.648700   17.262100  -121.258000
  C    -98.602400   16.905100  -123.458000
  H    -98.240100   16.080300  -124.090000
  H    -99.605300   17.062300  -123.570000
  C    -97.662000   18.115000  -123.841000
  H    -98.322200   18.913200  -124.109000
  H    -96.981800   18.626900  -123.097000
  H    -97.098200   17.921700  -124.731000
  S    -101.193000   11.518200  -123.273000
  C    -101.246000    9.824710  -123.018000
  C    -100.668000    9.470940  -121.829000
  C    -100.255000   10.608800  -121.009000
  C    -100.473000   11.779400  -121.719000
  H    -100.583000    8.412330  -121.689000
  C    -99.604200   10.429500  -119.619000
  H    -99.356500   11.423500  -119.199000
  H    -98.698100    9.913930  -119.909000
  C    -100.537000    9.670640  -118.643000
  H    -100.793000    8.673470  -119.004000
  H    -101.506000   10.241100  -118.598000
  C    -100.067000    9.641130  -117.210000
  H    -100.567000    8.953570  -116.615000
  H    -100.353000   10.628500  -116.805000
  H    -99.049500    9.418480  -117.020000
  H    -100.213000   16.344600  -119.732000
  H    -101.494000    9.093800  -123.855000

 Total Charge           Charge          ....    0
 Multiplicity           Mult            ....    1
 Number of Electrons    NEL             ....  134
 Basis Dimension        Dim             ....  322

ORBITAL ENERGIES
----------------

  NO   OCC          E(Eh)            E(eV)
   0   2.0000     -88.965816     -2420.8829
   1   2.0000     -88.961108     -2420.7548
   2   2.0000     -10.328091      -281.0416
   3   2.0000     -10.323522      -280.9173
   4   2.0000     -10.315036      -280.6864
   5   2.0000     -10.309541      -280.5369
   6   2.0000     -10.308347      -280.5044
   7   2.0000     -10.296193      -280.1737
   8   2.0000     -10.294538      -280.1286
   9   2.0000     -10.292437      -280.0715
  10   2.0000     -10.291877      -280.0562
  11   2.0000     -10.288349      -279.9602
  12   2.0000     -10.285395      -279.8798
  13   2.0000     -10.284331      -279.8509
  14   2.0000     -10.279810      -279.7278
  15   2.0000     -10.266985      -279.3789
  16   2.0000      -8.081034      -219.8961
  17   2.0000      -8.076993      -219.7861
  18   2.0000      -6.039472      -164.3424
  19   2.0000      -6.035396      -164.2315
  20   2.0000      -6.035369      -164.2307
  21   2.0000      -6.031964      -164.1381
  22   2.0000      -6.031350      -164.1214
  23   2.0000      -6.027776      -164.0241
  24   2.0000      -1.010612       -27.5002
  25   2.0000      -0.988941       -26.9105
  26   2.0000      -0.907464       -24.6934
  27   2.0000      -0.906585       -24.6694
  28   2.0000      -0.868405       -23.6305
  29   2.0000      -0.853139       -23.2151
  30   2.0000      -0.847204       -23.0536
  31   2.0000      -0.815854       -22.2005
  32   2.0000      -0.784923       -21.3588
  33   2.0000      -0.770038       -20.9538
  34   2.0000      -0.710831       -19.3427
  35   2.0000      -0.699307       -19.0291
  36   2.0000      -0.687624       -18.7112
  37   2.0000      -0.658311       -17.9136
  38   2.0000      -0.637355       -17.3433
  39   2.0000      -0.619127       -16.8473
  40   2.0000      -0.592381       -16.1195
  41   2.0000      -0.572745       -15.5852
  42   2.0000      -0.565726       -15.3942
  43   2.0000      -0.558301       -15.1921
  44   2.0000      -0.525058       -14.2876
  45   2.0000      -0.518901       -14.1200
  46   2.0000      -0.517010       -14.0686
  47   2.0000      -0.512894       -13.9566
  48   2.0000      -0.505154       -13.7459
  49   2.0000      -0.499742       -13.5987
  50   2.0000      -0.493456       -13.4276
  51   2.0000      -0.475003       -12.9255
  52   2.0000      -0.470536       -12.8039
  53   2.0000      -0.466247       -12.6872
  54   2.0000      -0.461062       -12.5461
  55   2.0000      -0.450774       -12.2662
  56   2.0000      -0.448015       -12.1911
  57   2.0000      -0.433151       -11.7866
  58   2.0000      -0.430557       -11.7161
  59   2.0000      -0.423553       -11.5255
  60   2.0000      -0.421117       -11.4592
  61   2.0000      -0.415932       -11.3181
  62   2.0000      -0.414509       -11.2794
  63   2.0000      -0.345997        -9.4150
  64   2.0000      -0.330770        -9.0007
  65   2.0000      -0.326325        -8.8798
  66   2.0000      -0.294812        -8.0222
  67   0.0000       0.038364         1.0439
  68   0.0000       0.079890         2.1739
  69   0.0000       0.108811         2.9609
  70   0.0000       0.121385         3.3031
  71   0.0000       0.137095         3.7305

MULLIKEN ATOMIC CHARGES
-----------------------
   0 S :    0.121013
   1 C :   -0.136417
   2 C :   -0.076830
   3 C :    0.014325
   4 C :   -0.146295
   5 H :    0.022506
   6 C :    0.067691
   7 H :    0.028667
   8 H :    0.006029
   9 C :   -0.072250
  10 H :    0.038612
  11 H :    0.024288
  12 C :   -0.053188
  13 H :    0.022663
  14 H :    0.042920
  15 H :    0.030535
  16 S :    0.112439
  17 C :   -0.122946
  18 C :   -0.043786
  19 C :   -0.039984
  20 C :   -0.177223
  21 H :    0.014896
  22 C :    0.103119
  23 H :    0.022429
  24 H :    0.038782
  25 C :   -0.111704
  26 H :    0.029349
  27 H :    0.039167
  28 C :    0.003785
  29 H :    0.011059
  30 H :    0.029329
  31 H :    0.020920
  32 H :    0.054796
  33 H :    0.081305
Sum of atomic charges:    0.0000000

LOEWDIN ATOMIC CHARGES
----------------------
   0 S :    0.425340
   1 C :   -0.215993
   2 C :   -0.066947
   3 C :   -0.068095
   4 C :   -0.192863
   5 H :    0.035089
   6 C :   -0.028398
   7 H :    0.027831
   8 H :    0.024762
   9 C :   -0.028644
  10 H :    0.027785
  11 H :    0.012629
  12 C :   -0.075656
  13 H :    0.026017
  14 H :    0.034113
  15 H :    0.023730
  16 S :    0.425302
  17 C :   -0.209825
  18 C :   -0.075356
  19 C :   -0.052678
  20 C :   -0.207905
  21 H :    0.028823
  22 C :   -0.025723
  23 H :    0.027350
  24 H :    0.034406
  25 C :   -0.042634
  26 H :    0.019185
  27 H :    0.034914
  28 C :   -0.062214
  29 H :    0.018644
  30 H :    0.031685
  31 H :    0.019349
  32 H :    0.032154
  33 H :    0.043822

  Mayer bond orders larger than 0.100000
B(  0-S ,  1-C ) :   1.1399 B(  0-S ,  4-C ) :   1.1676 B(  1-C ,  2-C ) :   1.5985
B(  1-C , 32-H ) :   0.9645 B(  2-C ,  3-C ) :   1.2399 B(  2-C ,  6-C ) :   1.0395
B(  3-C ,  4-C ) :   1.5628 B(  3-C ,  5-H ) :   0.9950 B(  4-C , 20-C ) :   1.0079
B(  6-C ,  7-H ) :   0.9369 B(  6-C ,  8-H ) :   0.9405 B(  6-C ,  9-C ) :   1.0471
B(  9-C , 10-H ) :   0.9603 B(  9-C , 11-H ) :   0.9742 B(  9-C , 12-C ) :   1.0537
B( 12-C , 13-H ) :   0.9770 B( 12-C , 14-H ) :   0.9796 B( 12-C , 15-H ) :   0.9816
B( 16-S , 17-C ) :   1.1527 B( 16-S , 20-C ) :   1.1568 B( 17-C , 18-C ) :   1.6430
B( 17-C , 33-H ) :   0.9551 B( 18-C , 19-C ) :   1.1961 B( 18-C , 21-H ) :   0.9923
B( 19-C , 20-C ) :   1.6102 B( 19-C , 22-C ) :   1.0298 B( 22-C , 23-H ) :   0.9352
B( 22-C , 24-H ) :   0.9313 B( 22-C , 25-C ) :   1.0561 B( 25-C , 26-H ) :   0.9583
B( 25-C , 27-H ) :   0.9595 B( 25-C , 28-C ) :   1.0877 B( 28-C , 29-H ) :   0.9702
B( 28-C , 30-H ) :   0.9761 B( 28-C , 31-H ) :   0.9730

Dispersion correction           -0.013621650
FINAL SINGLE POINT ENERGY     -1339.874843876460

DIPOLE MOMENT
-------------
                                X             Y             Z
Electronic contribution:    -12.16725      -6.25235      -5.62192
Nuclear contribution   :     12.60174       6.18004       5.68244
                        -----------------------------------------
Total Dipole Moment    :      0.43449      -0.07231       0.06052
                        -----------------------------------------
Magnitude (a.u.)       :      0.44460
Magnitude (Debye)      :      1.13008

Rotational constants in cm-1:     0.021889     0.007272     0.005948
Rotational constants in MHz :   656.213745   218.021013   178.304587

                             ****ORCA TERMINATED NORMALLY****
TOTAL RUN TIME: 0 days 0 hours 0 minutes 20 seconds 681 msec
