                         Program Version 4.2.1 -  RELEASE  -
|  1> ! wB97X-D3 SP def2-SVP
|  2> %pal
|  3> nprocs 24
|  4> end
|  5>
|  6> * xyz 0 1
|  7> S 	 -50.6738 	 19.7301 	 34.1095
|  8> C 	 -49.2022 	 19.9583 	 33.1939
|  9> C 	 -48.9463 	 18.9232 	 32.3138
| 10> C 	 -49.9751 	 17.9897 	 32.3521
| 11> C 	 -50.9841 	 18.1539 	 33.3281
| 12> H 	 -49.9694 	 17.1504 	 31.6984
| 13> C 	 -47.7381 	 18.8567 	 31.4407
| 14> H 	 -47.492 	 17.879 	 31.2916
| 15> H 	 -46.942 	 19.2 	 32.0487
| 16> C 	 -47.8492 	 19.6152 	 30.1254
| 17> H 	 -47.9287 	 20.6546 	 30.4181
| 18> H 	 -46.8135 	 19.5965 	 29.738
| 19> C 	 -48.8682 	 19.2032 	 29.0932
| 20> H 	 -49.8913 	 18.8556 	 29.4768
| 21> H 	 -48.9461 	 20.0655 	 28.3846
| 22> H 	 -48.4586 	 18.3432 	 28.5119
| 23> S 	 -53.5386 	 17.7165 	 32.4528
| 24> C 	 -54.5287 	 16.5079 	 33.2885
| 25> C 	 -53.8494 	 15.9674 	 34.393
| 26> C 	 -52.5728 	 16.4865 	 34.515
| 27> C 	 -52.2097 	 17.415 	 33.5514
| 28> H 	 -54.3953 	 15.2997 	 35.1368
| 29> C 	 -51.744 	 16.1072 	 35.6974
| 30> H 	 -52.4182 	 15.9958 	 36.524
| 31> H 	 -51.0678 	 16.9594 	 35.9446
| 32> C 	 -50.8921 	 14.8458 	 35.4657
| 33> H 	 -50.1376 	 15.0375 	 34.7845
| 34> H 	 -51.5261 	 14.0958 	 35.0842
| 35> C 	 -50.4746 	 14.2423 	 36.7432
| 36> H 	 -51.2379 	 14.0448 	 37.5631
| 37> H 	 -49.6336 	 14.8327 	 37.0891
| 38> H 	 -50.0448 	 13.2933 	 36.4496
| 39> H 	 -48.4902 	 20.861 	 33.2818
| 40> H 	 -55.6204 	 16.3766 	 33.1456
| 41> *
| 42>
| 43>                          ****END OF INPUT****

CARTESIAN COORDINATES (ANGSTROEM)
---------------------------------
  S    -50.673800   19.730100   34.109500
  C    -49.202200   19.958300   33.193900
  C    -48.946300   18.923200   32.313800
  C    -49.975100   17.989700   32.352100
  C    -50.984100   18.153900   33.328100
  H    -49.969400   17.150400   31.698400
  C    -47.738100   18.856700   31.440700
  H    -47.492000   17.879000   31.291600
  H    -46.942000   19.200000   32.048700
  C    -47.849200   19.615200   30.125400
  H    -47.928700   20.654600   30.418100
  H    -46.813500   19.596500   29.738000
  C    -48.868200   19.203200   29.093200
  H    -49.891300   18.855600   29.476800
  H    -48.946100   20.065500   28.384600
  H    -48.458600   18.343200   28.511900
  S    -53.538600   17.716500   32.452800
  C    -54.528700   16.507900   33.288500
  C    -53.849400   15.967400   34.393000
  C    -52.572800   16.486500   34.515000
  C    -52.209700   17.415000   33.551400
  H    -54.395300   15.299700   35.136800
  C    -51.744000   16.107200   35.697400
  H    -52.418200   15.995800   36.524000
  H    -51.067800   16.959400   35.944600
  C    -50.892100   14.845800   35.465700
  H    -50.137600   15.037500   34.784500
  H    -51.526100   14.095800   35.084200
  C    -50.474600   14.242300   36.743200
  H    -51.237900   14.044800   37.563100
  H    -49.633600   14.832700   37.089100
  H    -50.044800   13.293300   36.449600
  H    -48.490200   20.861000   33.281800
  H    -55.620400   16.376600   33.145600

 Total Charge           Charge          ....    0
 Multiplicity           Mult            ....    1
 Number of Electrons    NEL             ....  134
 Basis Dimension        Dim             ....  322

ORBITAL ENERGIES
----------------

  NO   OCC          E(Eh)            E(eV)
   0   2.0000     -88.966856     -2420.9112
   1   2.0000     -88.966534     -2420.9025
   2   2.0000     -10.331272      -281.1282
   3   2.0000     -10.322565      -280.8913
   4   2.0000     -10.322191      -280.8811
   5   2.0000     -10.318795      -280.7887
   6   2.0000     -10.296727      -280.1882
   7   2.0000     -10.295059      -280.1428
   8   2.0000     -10.292311      -280.0680
   9   2.0000     -10.291897      -280.0567
  10   2.0000     -10.288968      -279.9770
  11   2.0000     -10.285715      -279.8885
  12   2.0000     -10.281760      -279.7809
  13   2.0000     -10.278911      -279.7034
  14   2.0000     -10.272768      -279.5362
  15   2.0000     -10.268416      -279.4178
  16   2.0000      -8.080737      -219.8880
  17   2.0000      -8.080667      -219.8861
  18   2.0000      -6.039195      -164.3349
  19   2.0000      -6.039099      -164.3322
  20   2.0000      -6.035203      -164.2262
  21   2.0000      -6.035167      -164.2252
  22   2.0000      -6.031703      -164.1310
  23   2.0000      -6.031684      -164.1305
  24   2.0000      -1.003704       -27.3122
  25   2.0000      -0.983759       -26.7695
  26   2.0000      -0.917188       -24.9579
  27   2.0000      -0.914959       -24.8973
  28   2.0000      -0.866708       -23.5843
  29   2.0000      -0.856883       -23.3170
  30   2.0000      -0.846491       -23.0342
  31   2.0000      -0.812308       -22.1040
  32   2.0000      -0.785596       -21.3771
  33   2.0000      -0.766432       -20.8557
  34   2.0000      -0.703192       -19.1348
  35   2.0000      -0.701177       -19.0800
  36   2.0000      -0.691848       -18.8262
  37   2.0000      -0.662122       -18.0172
  38   2.0000      -0.634178       -17.2569
  39   2.0000      -0.616755       -16.7828
  40   2.0000      -0.593504       -16.1501
  41   2.0000      -0.575249       -15.6533
  42   2.0000      -0.571979       -15.5643
  43   2.0000      -0.550153       -14.9704
  44   2.0000      -0.536531       -14.5998
  45   2.0000      -0.523998       -14.2587
  46   2.0000      -0.517244       -14.0749
  47   2.0000      -0.514129       -13.9901
  48   2.0000      -0.507213       -13.8020
  49   2.0000      -0.493338       -13.4244
  50   2.0000      -0.492772       -13.4090
  51   2.0000      -0.473936       -12.8965
  52   2.0000      -0.468928       -12.7602
  53   2.0000      -0.464142       -12.6299
  54   2.0000      -0.457113       -12.4387
  55   2.0000      -0.454520       -12.3681
  56   2.0000      -0.441533       -12.0147
  57   2.0000      -0.434890       -11.8340
  58   2.0000      -0.431818       -11.7504
  59   2.0000      -0.428806       -11.6684
  60   2.0000      -0.415861       -11.3161
  61   2.0000      -0.411116       -11.1870
  62   2.0000      -0.408946       -11.1280
  63   2.0000      -0.338168        -9.2020
  64   2.0000      -0.330853        -9.0030
  65   2.0000      -0.317280        -8.6336
  66   2.0000      -0.303505        -8.2588
  67   0.0000       0.040356         1.0981
  68   0.0000       0.045418         1.2359
  69   0.0000       0.112988         3.0745
  70   0.0000       0.121291         3.3005
  71   0.0000       0.132670         3.6101

MULLIKEN ATOMIC CHARGES
-----------------------
   0 S :    0.118642
   1 C :   -0.155987
   2 C :   -0.113533
   3 C :    0.050713
   4 C :   -0.182368
   5 H :   -0.005844
   6 C :    0.141525
   7 H :   -0.013505
   8 H :    0.008787
   9 C :   -0.058947
  10 H :    0.012897
  11 H :    0.026264
  12 C :   -0.072685
  13 H :    0.059877
  14 H :    0.048439
  15 H :    0.036090
  16 S :    0.123114
  17 C :   -0.115977
  18 C :   -0.067362
  19 C :   -0.001850
  20 C :   -0.180355
  21 H :    0.046159
  22 C :    0.068083
  23 H :    0.008141
  24 H :    0.024703
  25 C :   -0.020791
  26 H :    0.017958
  27 H :    0.004755
  28 C :   -0.041307
  29 H :    0.048036
  30 H :    0.022355
  31 H :    0.020636
  32 H :    0.072512
  33 H :    0.070823
Sum of atomic charges:   -0.0000000

LOEWDIN ATOMIC CHARGES
----------------------
   0 S :    0.401945
   1 C :   -0.205658
   2 C :   -0.074338
   3 C :   -0.052725
   4 C :   -0.198649
   5 H :    0.023730
   6 C :   -0.024004
   7 H :    0.015548
   8 H :    0.032097
   9 C :   -0.043949
  10 H :    0.019683
  11 H :    0.028955
  12 C :   -0.076040
  13 H :    0.037270
  14 H :    0.036746
  15 H :    0.029349
  16 S :    0.411023
  17 C :   -0.185831
  18 C :   -0.080482
  19 C :   -0.055526
  20 C :   -0.216510
  21 H :    0.045921
  22 C :   -0.026230
  23 H :    0.024331
  24 H :    0.030792
  25 C :   -0.030053
  26 H :    0.019870
  27 H :    0.017863
  28 C :   -0.065844
  29 H :    0.034104
  30 H :    0.022415
  31 H :    0.024396
  32 H :    0.044214
  33 H :    0.035584

  Mayer bond orders larger than 0.100000
B(  0-S ,  1-C ) :   1.1683 B(  0-S ,  4-C ) :   1.1458 B(  1-C ,  2-C ) :   1.5747
B(  1-C ,  4-C ) :   0.1143 B(  1-C , 32-H ) :   0.9504 B(  2-C ,  3-C ) :   1.2949
B(  2-C ,  6-C ) :   1.0167 B(  3-C ,  4-C ) :   1.5375 B(  3-C ,  5-H ) :   0.9983
B(  4-C , 20-C ) :   1.0316 B(  6-C ,  7-H ) :   0.9275 B(  6-C ,  8-H ) :   0.9264
B(  6-C ,  9-C ) :   1.0792 B(  9-C , 10-H ) :   0.9561 B(  9-C , 11-H ) :   0.9499
B(  9-C , 12-C ) :   1.0692 B( 12-C , 13-H ) :   0.9732 B( 12-C , 14-H ) :   0.9712
B( 12-C , 15-H ) :   0.9730 B( 16-S , 17-C ) :   1.1762 B( 16-S , 20-C ) :   1.1432
B( 17-C , 18-C ) :   1.5758 B( 17-C , 20-C ) :   0.1128 B( 17-C , 33-H ) :   0.9609
B( 18-C , 19-C ) :   1.2823 B( 18-C , 21-H ) :   0.9762 B( 19-C , 20-C ) :   1.5759
B( 19-C , 22-C ) :   1.0471 B( 22-C , 23-H ) :   0.9388 B( 22-C , 24-H ) :   0.9236
B( 22-C , 25-C ) :   1.0689 B( 25-C , 26-H ) :   0.9491 B( 25-C , 27-H ) :   0.9576
B( 25-C , 28-C ) :   1.0891 B( 28-C , 29-H ) :   0.9732 B( 28-C , 30-H ) :   0.9703
B( 28-C , 31-H ) :   0.9713

Dispersion correction           -0.014253578
FINAL SINGLE POINT ENERGY     -1339.865439426288

DIPOLE MOMENT
-------------
                                X             Y             Z
Electronic contribution:    -15.90719      10.12233       1.76695
Nuclear contribution   :     16.25410     -10.37662      -1.81588
                        -----------------------------------------
Total Dipole Moment    :      0.34691      -0.25429      -0.04894
                        -----------------------------------------
Magnitude (a.u.)       :      0.43290
Magnitude (Debye)      :      1.10035

Rotational constants in cm-1:     0.019240     0.008128     0.006963
Rotational constants in MHz :   576.787655   243.660211   208.759326

                             ****ORCA TERMINATED NORMALLY****
TOTAL RUN TIME: 0 days 0 hours 0 minutes 21 seconds 282 msec
