                         Program Version 4.2.1 -  RELEASE  -
|  1> ! wB97X-D3 SP def2-SVP
|  2> %pal
|  3> nprocs 24
|  4> end
|  5>
|  6> * xyz 0 1
|  7> S 	 -49.2242 	 26.8005 	 27.4245
|  8> C 	 -50.042 	 26.8297 	 28.9376
|  9> C 	 -49.5934 	 25.93 	 29.9309
| 10> C 	 -48.5486 	 25.1375 	 29.3106
| 11> C 	 -48.2882 	 25.4457 	 27.9687
| 12> H 	 -47.8866 	 24.3802 	 29.7061
| 13> C 	 -50.1079 	 25.7936 	 31.3361
| 14> H 	 -50.5499 	 24.7796 	 31.372
| 15> H 	 -50.8397 	 26.6103 	 31.601
| 16> C 	 -48.9821 	 25.7233 	 32.4154
| 17> H 	 -47.9968 	 25.3569 	 32.0395
| 18> H 	 -48.7861 	 26.8411 	 32.6732
| 19> C 	 -49.3945 	 24.8605 	 33.6084
| 20> H 	 -49.6336 	 23.8667 	 33.2601
| 21> H 	 -48.6139 	 24.8542 	 34.3916
| 22> H 	 -50.386 	 25.1593 	 33.9638
| 23> S 	 -46.0815 	 25.814 	 26.3856
| 24> C 	 -45.0254 	 24.4707 	 25.9859
| 25> C 	 -45.566 	 23.2857 	 26.4685
| 26> C 	 -46.835 	 23.4102 	 27.1085
| 27> C 	 -47.2431 	 24.7911 	 27.154
| 28> H 	 -45.0333 	 22.3606 	 26.4234
| 29> C 	 -47.5159 	 22.159 	 27.7026
| 30> H 	 -47.8757 	 21.4493 	 26.9811
| 31> H 	 -48.449 	 22.5614 	 27.9707
| 32> C 	 -46.8469 	 21.5104 	 28.9983
| 33> H 	 -46.8698 	 22.2666 	 29.8473
| 34> H 	 -45.7884 	 21.3043 	 28.7771
| 35> C 	 -47.5868 	 20.2391 	 29.3414
| 36> H 	 -47.1032 	 19.8756 	 30.2544
| 37> H 	 -47.3696 	 19.4349 	 28.6578
| 38> H 	 -48.6495 	 20.2227 	 29.5233
| 39> H 	 -50.8009 	 27.482 	 29.2061
| 40> H 	 -44.074 	 24.6233 	 25.4316
| 41> *
| 42>
| 43>                          ****END OF INPUT****

CARTESIAN COORDINATES (ANGSTROEM)
---------------------------------
  S    -49.224200   26.800500   27.424500
  C    -50.042000   26.829700   28.937600
  C    -49.593400   25.930000   29.930900
  C    -48.548600   25.137500   29.310600
  C    -48.288200   25.445700   27.968700
  H    -47.886600   24.380200   29.706100
  C    -50.107900   25.793600   31.336100
  H    -50.549900   24.779600   31.372000
  H    -50.839700   26.610300   31.601000
  C    -48.982100   25.723300   32.415400
  H    -47.996800   25.356900   32.039500
  H    -48.786100   26.841100   32.673200
  C    -49.394500   24.860500   33.608400
  H    -49.633600   23.866700   33.260100
  H    -48.613900   24.854200   34.391600
  H    -50.386000   25.159300   33.963800
  S    -46.081500   25.814000   26.385600
  C    -45.025400   24.470700   25.985900
  C    -45.566000   23.285700   26.468500
  C    -46.835000   23.410200   27.108500
  C    -47.243100   24.791100   27.154000
  H    -45.033300   22.360600   26.423400
  C    -47.515900   22.159000   27.702600
  H    -47.875700   21.449300   26.981100
  H    -48.449000   22.561400   27.970700
  C    -46.846900   21.510400   28.998300
  H    -46.869800   22.266600   29.847300
  H    -45.788400   21.304300   28.777100
  C    -47.586800   20.239100   29.341400
  H    -47.103200   19.875600   30.254400
  H    -47.369600   19.434900   28.657800
  H    -48.649500   20.222700   29.523300
  H    -50.800900   27.482000   29.206100
  H    -44.074000   24.623300   25.431600

 Total Charge           Charge          ....    0
 Multiplicity           Mult            ....    1
 Number of Electrons    NEL             ....  134
 Basis Dimension        Dim             ....  322

ORBITAL ENERGIES
----------------

  NO   OCC          E(Eh)            E(eV)
   0   2.0000     -88.970291     -2421.0047
   1   2.0000     -88.965791     -2420.8822
   2   2.0000     -10.331194      -281.1261
   3   2.0000     -10.328028      -281.0399
   4   2.0000     -10.319914      -280.8191
   5   2.0000     -10.308382      -280.5053
   6   2.0000     -10.307705      -280.4869
   7   2.0000     -10.307326      -280.4766
   8   2.0000     -10.304141      -280.3899
   9   2.0000     -10.301343      -280.3138
  10   2.0000     -10.298406      -280.2339
  11   2.0000     -10.295814      -280.1634
  12   2.0000     -10.291258      -280.0394
  13   2.0000     -10.287671      -279.9418
  14   2.0000     -10.283446      -279.8268
  15   2.0000     -10.277558      -279.6666
  16   2.0000      -8.085455      -220.0164
  17   2.0000      -8.080779      -219.8892
  18   2.0000      -6.043811      -164.4605
  19   2.0000      -6.040007      -164.3569
  20   2.0000      -6.039185      -164.3346
  21   2.0000      -6.036270      -164.2552
  22   2.0000      -6.035112      -164.2238
  23   2.0000      -6.031783      -164.1332
  24   2.0000      -1.003655       -27.3108
  25   2.0000      -0.980783       -26.6885
  26   2.0000      -0.912092       -24.8193
  27   2.0000      -0.903794       -24.5935
  28   2.0000      -0.865792       -23.5594
  29   2.0000      -0.853270       -23.2187
  30   2.0000      -0.848382       -23.0856
  31   2.0000      -0.811258       -22.0755
  32   2.0000      -0.782106       -21.2822
  33   2.0000      -0.769266       -20.9328
  34   2.0000      -0.706493       -19.2246
  35   2.0000      -0.698937       -19.0191
  36   2.0000      -0.690087       -18.7782
  37   2.0000      -0.659138       -17.9360
  38   2.0000      -0.641159       -17.4468
  39   2.0000      -0.616633       -16.7794
  40   2.0000      -0.596365       -16.2279
  41   2.0000      -0.568169       -15.4607
  42   2.0000      -0.561131       -15.2691
  43   2.0000      -0.556337       -15.1387
  44   2.0000      -0.528413       -14.3789
  45   2.0000      -0.525738       -14.3061
  46   2.0000      -0.513683       -13.9780
  47   2.0000      -0.509008       -13.8508
  48   2.0000      -0.504116       -13.7177
  49   2.0000      -0.497932       -13.5494
  50   2.0000      -0.489244       -13.3130
  51   2.0000      -0.483157       -13.1474
  52   2.0000      -0.469782       -12.7834
  53   2.0000      -0.464357       -12.6358
  54   2.0000      -0.462063       -12.5734
  55   2.0000      -0.452751       -12.3200
  56   2.0000      -0.444206       -12.0875
  57   2.0000      -0.437486       -11.9046
  58   2.0000      -0.435321       -11.8457
  59   2.0000      -0.430076       -11.7030
  60   2.0000      -0.418208       -11.3800
  61   2.0000      -0.417494       -11.3606
  62   2.0000      -0.414229       -11.2717
  63   2.0000      -0.347133        -9.4460
  64   2.0000      -0.330390        -8.9904
  65   2.0000      -0.326790        -8.8924
  66   2.0000      -0.285256        -7.7622
  67   0.0000       0.029993         0.8161
  68   0.0000       0.074185         2.0187
  69   0.0000       0.110052         2.9947
  70   0.0000       0.119207         3.2438
  71   0.0000       0.129047         3.5115

MULLIKEN ATOMIC CHARGES
-----------------------
   0 S :    0.133108
   1 C :   -0.084119
   2 C :   -0.084016
   3 C :    0.027296
   4 C :   -0.172315
   5 H :   -0.008005
   6 C :    0.063916
   7 H :    0.038871
   8 H :    0.046004
   9 C :   -0.129601
  10 H :    0.044114
  11 H :    0.044063
  12 C :   -0.040610
  13 H :    0.023711
  14 H :    0.051002
  15 H :    0.025874
  16 S :    0.105107
  17 C :   -0.118369
  18 C :   -0.015662
  19 C :   -0.057695
  20 C :   -0.143783
  21 H :    0.011889
  22 C :    0.079057
  23 H :    0.028272
  24 H :   -0.002481
  25 C :   -0.087726
  26 H :    0.045886
  27 H :    0.036130
  28 C :   -0.033436
  29 H :    0.023469
  30 H :    0.026456
  31 H :    0.038329
  32 H :    0.008783
  33 H :    0.076480
Sum of atomic charges:   -0.0000000

LOEWDIN ATOMIC CHARGES
----------------------
   0 S :    0.426511
   1 C :   -0.199702
   2 C :   -0.057166
   3 C :   -0.060621
   4 C :   -0.206893
   5 H :    0.025937
   6 C :   -0.036051
   7 H :    0.036648
   8 H :    0.040144
   9 C :   -0.049620
  10 H :    0.025946
  11 H :    0.032518
  12 C :   -0.067496
  13 H :    0.022338
  14 H :    0.032100
  15 H :    0.025322
  16 S :    0.418162
  17 C :   -0.196750
  18 C :   -0.068522
  19 C :   -0.057602
  20 C :   -0.208307
  21 H :    0.026924
  22 C :   -0.038675
  23 H :    0.031662
  24 H :    0.023061
  25 C :   -0.033241
  26 H :    0.028515
  27 H :    0.026011
  28 C :   -0.069949
  29 H :    0.029759
  30 H :    0.025649
  31 H :    0.025718
  32 H :    0.009849
  33 H :    0.037822

  Mayer bond orders larger than 0.100000
B(  0-S ,  1-C ) :   1.1520 B(  0-S ,  4-C ) :   1.1519 B(  1-C ,  2-C ) :   1.6091
B(  1-C , 32-H ) :   0.9686 B(  2-C ,  3-C ) :   1.2235 B(  2-C ,  6-C ) :   1.0306
B(  3-C ,  4-C ) :   1.5853 B(  3-C ,  5-H ) :   0.9875 B(  4-C , 20-C ) :   1.0249
B(  6-C ,  7-H ) :   0.9398 B(  6-C ,  8-H ) :   0.9396 B(  6-C ,  9-C ) :   1.0347
B(  9-C , 10-H ) :   0.9651 B(  9-C , 11-H ) :   0.9558 B(  9-C , 12-C ) :   1.0710
B( 12-C , 13-H ) :   0.9724 B( 12-C , 14-H ) :   0.9735 B( 12-C , 15-H ) :   0.9728
B( 16-S , 17-C ) :   1.1596 B( 16-S , 20-C ) :   1.1749 B( 17-C , 18-C ) :   1.5659
B( 17-C , 20-C ) :   0.1043 B( 17-C , 33-H ) :   0.9669 B( 18-C , 19-C ) :   1.2796
B( 18-C , 21-H ) :   0.9939 B( 19-C , 20-C ) :   1.5414 B( 19-C , 22-C ) :   1.0356
B( 22-C , 23-H ) :   0.9421 B( 22-C , 24-H ) :   0.9218 B( 22-C , 25-C ) :   1.0432
B( 25-C , 26-H ) :   0.9538 B( 25-C , 27-H ) :   0.9564 B( 25-C , 28-C ) :   1.0822
B( 28-C , 29-H ) :   0.9691 B( 28-C , 30-H ) :   0.9718 B( 28-C , 31-H ) :   0.9767

Dispersion correction           -0.013891361
FINAL SINGLE POINT ENERGY     -1339.870763237440

DIPOLE MOMENT
-------------
                                X             Y             Z
Electronic contribution:      4.22531      19.90894     -25.81113
Nuclear contribution   :     -4.21383     -20.43141      26.41175
                        -----------------------------------------
Total Dipole Moment    :      0.01148      -0.52247       0.60062
                        -----------------------------------------
Magnitude (a.u.)       :      0.79615
Magnitude (Debye)      :      2.02365

Rotational constants in cm-1:     0.015198     0.009691     0.006680
Rotational constants in MHz :   455.624150   290.514801   200.250739

                             ****ORCA TERMINATED NORMALLY****
TOTAL RUN TIME: 0 days 0 hours 0 minutes 21 seconds 285 msec
