                         Program Version 4.2.1 -  RELEASE  -
|  1> ! wB97X-D3 SP def2-SVP
|  2> %pal
|  3> nprocs 24
|  4> end
|  5>
|  6> * xyz 0 1
|  7> S 	 -69.9972 	 6.56899 	 -113.225
|  8> C 	 -70.7737 	 6.65436 	 -111.613
|  9> C 	 -70.8616 	 7.97592 	 -111.163
| 10> C 	 -70.2778 	 8.84599 	 -112.096
| 11> C 	 -69.773 	 8.27142 	 -113.262
| 12> H 	 -70.2792 	 9.90845 	 -112.073
| 13> C 	 -71.465 	 8.42943 	 -109.881
| 14> H 	 -70.9302 	 9.3142 	 -109.558
| 15> H 	 -71.0903 	 7.61754 	 -109.234
| 16> C 	 -72.9714 	 8.46202 	 -109.836
| 17> H 	 -73.3173 	 9.17671 	 -110.575
| 18> H 	 -73.4087 	 7.46842 	 -110.012
| 19> C 	 -73.4564 	 8.86483 	 -108.39
| 20> H 	 -74.4845 	 9.00977 	 -108.301
| 21> H 	 -73.2898 	 8.08322 	 -107.646
| 22> H 	 -73.0671 	 9.79877 	 -108.071
| 23> S 	 -70.0735 	 8.39219 	 -115.884
| 24> C 	 -69.2137 	 9.60222 	 -116.81
| 25> C 	 -68.2467 	 10.2572 	 -116.052
| 26> C 	 -68.2386 	 9.80785 	 -114.745
| 27> C 	 -69.2957 	 8.929 	 -114.464
| 28> H 	 -67.6178 	 11.1236 	 -116.414
| 29> C 	 -67.2298 	 10.3349 	 -113.773
| 30> H 	 -67.7496 	 10.7844 	 -113
| 31> H 	 -66.548 	 11.1262 	 -114.261
| 32> C 	 -66.405 	 9.25553 	 -113.247
| 33> H 	 -67.1438 	 8.50748 	 -112.891
| 34> H 	 -65.8906 	 9.56359 	 -112.416
| 35> C 	 -65.4404 	 8.4248 	 -114.169
| 36> H 	 -64.6875 	 8.99777 	 -114.492
| 37> H 	 -65.9257 	 8.07896 	 -115.134
| 38> H 	 -65.0171 	 7.56377 	 -113.567
| 39> H 	 -71.1195 	 5.80485 	 -111.015
| 40> H 	 -69.4514 	 9.85623 	 -117.854
| 41> *
| 42>
| 43>                          ****END OF INPUT****

CARTESIAN COORDINATES (ANGSTROEM)
---------------------------------
  S    -69.997200    6.568990  -113.225000
  C    -70.773700    6.654360  -111.613000
  C    -70.861600    7.975920  -111.163000
  C    -70.277800    8.845990  -112.096000
  C    -69.773000    8.271420  -113.262000
  H    -70.279200    9.908450  -112.073000
  C    -71.465000    8.429430  -109.881000
  H    -70.930200    9.314200  -109.558000
  H    -71.090300    7.617540  -109.234000
  C    -72.971400    8.462020  -109.836000
  H    -73.317300    9.176710  -110.575000
  H    -73.408700    7.468420  -110.012000
  C    -73.456400    8.864830  -108.390000
  H    -74.484500    9.009770  -108.301000
  H    -73.289800    8.083220  -107.646000
  H    -73.067100    9.798770  -108.071000
  S    -70.073500    8.392190  -115.884000
  C    -69.213700    9.602220  -116.810000
  C    -68.246700   10.257200  -116.052000
  C    -68.238600    9.807850  -114.745000
  C    -69.295700    8.929000  -114.464000
  H    -67.617800   11.123600  -116.414000
  C    -67.229800   10.334900  -113.773000
  H    -67.749600   10.784400  -113.000000
  H    -66.548000   11.126200  -114.261000
  C    -66.405000    9.255530  -113.247000
  H    -67.143800    8.507480  -112.891000
  H    -65.890600    9.563590  -112.416000
  C    -65.440400    8.424800  -114.169000
  H    -64.687500    8.997770  -114.492000
  H    -65.925700    8.078960  -115.134000
  H    -65.017100    7.563770  -113.567000
  H    -71.119500    5.804850  -111.015000
  H    -69.451400    9.856230  -117.854000

 Total Charge           Charge          ....    0
 Multiplicity           Mult            ....    1
 Number of Electrons    NEL             ....  134
 Basis Dimension        Dim             ....  322

ORBITAL ENERGIES
----------------

  NO   OCC          E(Eh)            E(eV)
   0   2.0000     -88.968547     -2420.9573
   1   2.0000     -88.968220     -2420.9484
   2   2.0000     -10.326189      -280.9899
   3   2.0000     -10.322108      -280.8788
   4   2.0000     -10.317332      -280.7489
   5   2.0000     -10.316022      -280.7132
   6   2.0000     -10.298423      -280.2343
   7   2.0000     -10.296252      -280.1753
   8   2.0000     -10.294274      -280.1214
   9   2.0000     -10.292390      -280.0702
  10   2.0000     -10.289639      -279.9953
  11   2.0000     -10.286427      -279.9079
  12   2.0000     -10.283380      -279.8250
  13   2.0000     -10.272596      -279.5316
  14   2.0000     -10.271518      -279.5022
  15   2.0000     -10.269397      -279.4445
  16   2.0000      -8.083954      -219.9756
  17   2.0000      -8.082561      -219.9377
  18   2.0000      -6.042245      -164.4179
  19   2.0000      -6.041016      -164.3844
  20   2.0000      -6.038325      -164.3112
  21   2.0000      -6.037055      -164.2766
  22   2.0000      -6.034927      -164.2187
  23   2.0000      -6.033464      -164.1789
  24   2.0000      -1.014142       -27.5962
  25   2.0000      -0.986526       -26.8447
  26   2.0000      -0.919914       -25.0321
  27   2.0000      -0.916183       -24.9306
  28   2.0000      -0.870561       -23.6892
  29   2.0000      -0.847552       -23.0631
  30   2.0000      -0.845213       -22.9994
  31   2.0000      -0.811531       -22.0829
  32   2.0000      -0.787821       -21.4377
  33   2.0000      -0.774020       -21.0621
  34   2.0000      -0.710974       -19.3466
  35   2.0000      -0.707502       -19.2521
  36   2.0000      -0.685200       -18.6452
  37   2.0000      -0.664986       -18.0952
  38   2.0000      -0.639906       -17.4127
  39   2.0000      -0.616829       -16.7848
  40   2.0000      -0.597032       -16.2461
  41   2.0000      -0.574807       -15.6413
  42   2.0000      -0.559238       -15.2176
  43   2.0000      -0.555048       -15.1036
  44   2.0000      -0.547412       -14.8958
  45   2.0000      -0.523424       -14.2431
  46   2.0000      -0.517797       -14.0900
  47   2.0000      -0.510539       -13.8925
  48   2.0000      -0.501475       -13.6458
  49   2.0000      -0.496135       -13.5005
  50   2.0000      -0.489471       -13.3192
  51   2.0000      -0.477248       -12.9866
  52   2.0000      -0.473988       -12.8979
  53   2.0000      -0.465920       -12.6783
  54   2.0000      -0.457263       -12.4428
  55   2.0000      -0.450558       -12.2603
  56   2.0000      -0.446237       -12.1427
  57   2.0000      -0.441217       -12.0061
  58   2.0000      -0.436097       -11.8668
  59   2.0000      -0.424612       -11.5543
  60   2.0000      -0.422443       -11.4953
  61   2.0000      -0.416791       -11.3415
  62   2.0000      -0.403996       -10.9933
  63   2.0000      -0.344142        -9.3646
  64   2.0000      -0.333264        -9.0686
  65   2.0000      -0.331910        -9.0317
  66   2.0000      -0.285223        -7.7613
  67   0.0000       0.029861         0.8126
  68   0.0000       0.061636         1.6772
  69   0.0000       0.105225         2.8633
  70   0.0000       0.122357         3.3295
  71   0.0000       0.142692         3.8828

MULLIKEN ATOMIC CHARGES
-----------------------
   0 S :    0.114860
   1 C :   -0.141006
   2 C :   -0.074963
   3 C :    0.038716
   4 C :   -0.171448
   5 H :   -0.009822
   6 C :    0.064051
   7 H :    0.023484
   8 H :    0.024480
   9 C :   -0.049171
  10 H :    0.034926
  11 H :    0.034498
  12 C :   -0.019049
  13 H :    0.011977
  14 H :    0.028329
  15 H :    0.017915
  16 S :    0.125820
  17 C :   -0.107962
  18 C :   -0.059488
  19 C :   -0.041778
  20 C :   -0.175860
  21 H :    0.041352
  22 C :    0.141078
  23 H :    0.006574
  24 H :    0.019757
  25 C :   -0.079395
  26 H :    0.035642
  27 H :    0.001859
  28 C :   -0.032749
  29 H :   -0.002025
  30 H :    0.042301
  31 H :    0.046619
  32 H :    0.048594
  33 H :    0.061885
Sum of atomic charges:    0.0000000

LOEWDIN ATOMIC CHARGES
----------------------
   0 S :    0.408228
   1 C :   -0.197562
   2 C :   -0.060115
   3 C :   -0.070171
   4 C :   -0.208526
   5 H :    0.023052
   6 C :   -0.036970
   7 H :    0.030891
   8 H :    0.037993
   9 C :   -0.028600
  10 H :    0.025690
  11 H :    0.029654
  12 C :   -0.062035
  13 H :    0.017768
  14 H :    0.027277
  15 H :    0.019133
  16 S :    0.439198
  17 C :   -0.193345
  18 C :   -0.076875
  19 C :   -0.057184
  20 C :   -0.217513
  21 H :    0.044494
  22 C :   -0.026369
  23 H :    0.024658
  24 H :    0.032921
  25 C :   -0.040384
  26 H :    0.031090
  27 H :    0.010586
  28 C :   -0.058990
  29 H :   -0.000103
  30 H :    0.034298
  31 H :    0.037853
  32 H :    0.029257
  33 H :    0.030703

  Mayer bond orders larger than 0.100000
B(  0-S ,  1-C ) :   1.1334 B(  0-S ,  4-C ) :   1.1610 B(  1-C ,  2-C ) :   1.5830
B(  1-C ,  4-C ) :   0.1070 B(  1-C , 32-H ) :   0.9671 B(  2-C ,  3-C ) :   1.2673
B(  2-C ,  6-C ) :   1.0068 B(  3-C ,  4-C ) :   1.5543 B(  3-C ,  5-H ) :   0.9995
B(  4-C , 20-C ) :   1.0327 B(  6-C ,  7-H ) :   0.9429 B(  6-C ,  8-H ) :   0.9341
B(  6-C ,  9-C ) :   1.0669 B(  9-C , 10-H ) :   0.9572 B(  9-C , 11-H ) :   0.9544
B(  9-C , 12-C ) :   1.0798 B( 12-C , 13-H ) :   0.9732 B( 12-C , 14-H ) :   0.9761
B( 12-C , 15-H ) :   0.9750 B( 16-S , 17-C ) :   1.1757 B( 16-S , 20-C ) :   1.1700
B( 17-C , 18-C ) :   1.5594 B( 17-C , 20-C ) :   0.1174 B( 17-C , 33-H ) :   0.9667
B( 18-C , 19-C ) :   1.2977 B( 18-C , 21-H ) :   0.9808 B( 19-C , 20-C ) :   1.5335
B( 19-C , 22-C ) :   1.0355 B( 22-C , 23-H ) :   0.9141 B( 22-C , 24-H ) :   0.9346
B( 22-C , 25-C ) :   1.0887 B( 25-C , 26-H ) :   0.9540 B( 25-C , 27-H ) :   0.9483
B( 25-C , 28-C ) :   1.0681 B( 28-C , 29-H ) :   0.9745 B( 28-C , 30-H ) :   0.9741
B( 28-C , 31-H ) :   0.9746

Dispersion correction           -0.014578434
FINAL SINGLE POINT ENERGY     -1339.858064658593

DIPOLE MOMENT
-------------
                                X             Y             Z
Electronic contribution:     -2.88306      -7.53045     -19.57802
Nuclear contribution   :      2.84586       7.96848      19.99183
                        -----------------------------------------
Total Dipole Moment    :     -0.03719       0.43802       0.41381
                        -----------------------------------------
Magnitude (a.u.)       :      0.60373
Magnitude (Debye)      :      1.53456

Rotational constants in cm-1:     0.023044     0.007421     0.006881
Rotational constants in MHz :   690.832228   222.488048   206.290373

                             ****ORCA TERMINATED NORMALLY****
TOTAL RUN TIME: 0 days 0 hours 0 minutes 21 seconds 781 msec
