                         Program Version 4.2.1 -  RELEASE  -
|  1> ! wB97X-D3 SP def2-SVP
|  2> %pal
|  3> nprocs 24
|  4> end
|  5>
|  6> * xyz 0 1
|  7> S 	 -87.0816 	 -49.2428 	 -70.2013
|  8> C 	 -85.5699 	 -48.3559 	 -70.0434
|  9> C 	 -85.7041 	 -47.029 	 -70.4653
| 10> C 	 -86.9535 	 -46.8622 	 -71.0747
| 11> C 	 -87.779 	 -47.9688 	 -71.1061
| 12> H 	 -87.3591 	 -45.9233 	 -71.4204
| 13> C 	 -84.6178 	 -45.97 	 -70.2832
| 14> H 	 -84.4742 	 -45.3844 	 -71.1498
| 15> H 	 -83.6185 	 -46.3967 	 -70.1202
| 16> C 	 -85.0817 	 -45.0508 	 -69.168
| 17> H 	 -84.3945 	 -44.2676 	 -69.0211
| 18> H 	 -85.9752 	 -44.5204 	 -69.5009
| 19> C 	 -85.3005 	 -45.7279 	 -67.7494
| 20> H 	 -86.3589 	 -46.2151 	 -67.5871
| 21> H 	 -84.5784 	 -46.5272 	 -67.6046
| 22> H 	 -85.1631 	 -45.0763 	 -66.8413
| 23> S 	 -89.6961 	 -46.7847 	 -72.7515
| 24> C 	 -91.3207 	 -47.3883 	 -72.7606
| 25> C 	 -91.441 	 -48.5246 	 -72.0165
| 26> C 	 -90.1786 	 -48.9312 	 -71.4296
| 27> C 	 -89.14 	 -48.0193 	 -71.6439
| 28> H 	 -92.4059 	 -48.9749 	 -71.9362
| 29> C 	 -90.059 	 -50.2069 	 -70.6381
| 30> H 	 -91.0397 	 -50.4559 	 -70.1931
| 31> H 	 -89.545 	 -49.9602 	 -69.7538
| 32> C 	 -89.4998 	 -51.4612 	 -71.2575
| 33> H 	 -89.2704 	 -52.1734 	 -70.5064
| 34> H 	 -88.4966 	 -51.2672 	 -71.5982
| 35> C 	 -90.3604 	 -52.0846 	 -72.3355
| 36> H 	 -90.2977 	 -51.3986 	 -73.1874
| 37> H 	 -91.4011 	 -52.1839 	 -71.9743
| 38> H 	 -89.845 	 -53.0545 	 -72.5442
| 39> H 	 -84.6834 	 -48.6488 	 -69.4746
| 40> H 	 -92.1143 	 -46.8258 	 -73.1447
| 41> *
| 42>
| 43>                          ****END OF INPUT****

CARTESIAN COORDINATES (ANGSTROEM)
---------------------------------
  S    -87.081600  -49.242800  -70.201300
  C    -85.569900  -48.355900  -70.043400
  C    -85.704100  -47.029000  -70.465300
  C    -86.953500  -46.862200  -71.074700
  C    -87.779000  -47.968800  -71.106100
  H    -87.359100  -45.923300  -71.420400
  C    -84.617800  -45.970000  -70.283200
  H    -84.474200  -45.384400  -71.149800
  H    -83.618500  -46.396700  -70.120200
  C    -85.081700  -45.050800  -69.168000
  H    -84.394500  -44.267600  -69.021100
  H    -85.975200  -44.520400  -69.500900
  C    -85.300500  -45.727900  -67.749400
  H    -86.358900  -46.215100  -67.587100
  H    -84.578400  -46.527200  -67.604600
  H    -85.163100  -45.076300  -66.841300
  S    -89.696100  -46.784700  -72.751500
  C    -91.320700  -47.388300  -72.760600
  C    -91.441000  -48.524600  -72.016500
  C    -90.178600  -48.931200  -71.429600
  C    -89.140000  -48.019300  -71.643900
  H    -92.405900  -48.974900  -71.936200
  C    -90.059000  -50.206900  -70.638100
  H    -91.039700  -50.455900  -70.193100
  H    -89.545000  -49.960200  -69.753800
  C    -89.499800  -51.461200  -71.257500
  H    -89.270400  -52.173400  -70.506400
  H    -88.496600  -51.267200  -71.598200
  C    -90.360400  -52.084600  -72.335500
  H    -90.297700  -51.398600  -73.187400
  H    -91.401100  -52.183900  -71.974300
  H    -89.845000  -53.054500  -72.544200
  H    -84.683400  -48.648800  -69.474600
  H    -92.114300  -46.825800  -73.144700

 Total Charge           Charge          ....    0
 Multiplicity           Mult            ....    1
 Number of Electrons    NEL             ....  134
 Basis Dimension        Dim             ....  322

ORBITAL ENERGIES
----------------

  NO   OCC          E(Eh)            E(eV)
   0   2.0000     -88.971381     -2421.0344
   1   2.0000     -88.964495     -2420.8470
   2   2.0000     -10.331103      -281.1236
   3   2.0000     -10.330120      -281.0969
   4   2.0000     -10.313440      -280.6430
   5   2.0000     -10.311232      -280.5829
   6   2.0000     -10.305057      -280.4149
   7   2.0000     -10.302382      -280.3421
   8   2.0000     -10.294801      -280.1358
   9   2.0000     -10.293434      -280.0986
  10   2.0000     -10.289885      -280.0020
  11   2.0000     -10.289624      -279.9949
  12   2.0000     -10.288039      -279.9518
  13   2.0000     -10.282239      -279.7939
  14   2.0000     -10.276639      -279.6416
  15   2.0000     -10.272194      -279.5206
  16   2.0000      -8.085534      -220.0186
  17   2.0000      -8.079534      -219.8553
  18   2.0000      -6.044055      -164.4671
  19   2.0000      -6.040094      -164.3593
  20   2.0000      -6.038154      -164.3065
  21   2.0000      -6.036324      -164.2567
  22   2.0000      -6.033952      -164.1922
  23   2.0000      -6.030228      -164.0909
  24   2.0000      -1.011826       -27.5332
  25   2.0000      -0.988436       -26.8967
  26   2.0000      -0.916783       -24.9469
  27   2.0000      -0.911901       -24.8141
  28   2.0000      -0.868809       -23.6415
  29   2.0000      -0.851908       -23.1816
  30   2.0000      -0.841415       -22.8961
  31   2.0000      -0.813411       -22.1340
  32   2.0000      -0.785521       -21.3751
  33   2.0000      -0.777042       -21.1444
  34   2.0000      -0.712455       -19.3869
  35   2.0000      -0.697650       -18.9840
  36   2.0000      -0.689284       -18.7564
  37   2.0000      -0.671938       -18.2844
  38   2.0000      -0.631955       -17.1964
  39   2.0000      -0.624090       -16.9824
  40   2.0000      -0.595401       -16.2017
  41   2.0000      -0.576701       -15.6928
  42   2.0000      -0.558463       -15.1965
  43   2.0000      -0.552983       -15.0474
  44   2.0000      -0.548443       -14.9239
  45   2.0000      -0.537794       -14.6341
  46   2.0000      -0.517283       -14.0760
  47   2.0000      -0.509576       -13.8663
  48   2.0000      -0.503306       -13.6957
  49   2.0000      -0.492972       -13.4144
  50   2.0000      -0.483063       -13.1448
  51   2.0000      -0.476169       -12.9572
  52   2.0000      -0.473262       -12.8781
  53   2.0000      -0.467486       -12.7209
  54   2.0000      -0.465066       -12.6551
  55   2.0000      -0.446555       -12.1514
  56   2.0000      -0.443823       -12.0770
  57   2.0000      -0.440023       -11.9736
  58   2.0000      -0.428838       -11.6693
  59   2.0000      -0.426756       -11.6126
  60   2.0000      -0.419376       -11.4118
  61   2.0000      -0.411319       -11.1926
  62   2.0000      -0.407390       -11.0856
  63   2.0000      -0.362562        -9.8658
  64   2.0000      -0.334428        -9.1002
  65   2.0000      -0.329915        -8.9774
  66   2.0000      -0.281771        -7.6674
  67   0.0000       0.019596         0.5332
  68   0.0000       0.085697         2.3319
  69   0.0000       0.111850         3.0436
  70   0.0000       0.123020         3.3475
  71   0.0000       0.132702         3.6110

MULLIKEN ATOMIC CHARGES
-----------------------
   0 S :    0.100975
   1 C :   -0.113037
   2 C :   -0.087989
   3 C :   -0.027948
   4 C :   -0.098329
   5 H :    0.005952
   6 C :    0.112935
   7 H :    0.019288
   8 H :    0.022623
   9 C :   -0.060724
  10 H :    0.018283
  11 H :    0.033312
  12 C :   -0.102821
  13 H :    0.057383
  14 H :    0.021804
  15 H :    0.043184
  16 S :    0.089917
  17 C :   -0.071573
  18 C :   -0.012195
  19 C :   -0.091153
  20 C :   -0.094518
  21 H :    0.012502
  22 C :    0.045944
  23 H :    0.009024
  24 H :    0.013367
  25 C :   -0.030043
  26 H :    0.009554
  27 H :    0.009908
  28 C :   -0.046142
  29 H :    0.045689
  30 H :    0.032219
  31 H :    0.043355
  32 H :    0.047163
  33 H :    0.042092
Sum of atomic charges:    0.0000000

LOEWDIN ATOMIC CHARGES
----------------------
   0 S :    0.446339
   1 C :   -0.204074
   2 C :   -0.052399
   3 C :   -0.074388
   4 C :   -0.194823
   5 H :    0.022351
   6 C :   -0.022130
   7 H :    0.028336
   8 H :    0.031520
   9 C :   -0.037169
  10 H :    0.017509
  11 H :    0.026662
  12 C :   -0.082072
  13 H :    0.039255
  14 H :    0.018152
  15 H :    0.030403
  16 S :    0.409518
  17 C :   -0.179440
  18 C :   -0.065719
  19 C :   -0.060295
  20 C :   -0.188626
  21 H :    0.030909
  22 C :   -0.047262
  23 H :    0.031882
  24 H :    0.015037
  25 C :   -0.046375
  26 H :    0.019947
  27 H :    0.012591
  28 C :   -0.062782
  29 H :    0.029048
  30 H :    0.024875
  31 H :    0.034562
  32 H :    0.028799
  33 H :    0.019859

  Mayer bond orders larger than 0.100000
B(  0-S ,  1-C ) :   1.1412 B(  0-S ,  4-C ) :   1.1596 B(  1-C ,  2-C ) :   1.5882
B(  1-C , 32-H ) :   0.9620 B(  2-C ,  3-C ) :   1.2811 B(  2-C ,  6-C ) :   1.0237
B(  3-C ,  4-C ) :   1.5288 B(  3-C ,  5-H ) :   0.9892 B(  4-C , 20-C ) :   1.0882
B(  6-C ,  7-H ) :   0.9372 B(  6-C ,  8-H ) :   0.9422 B(  6-C ,  9-C ) :   1.0802
B(  9-C , 10-H ) :   0.9571 B(  9-C , 11-H ) :   0.9584 B(  9-C , 12-C ) :   1.0483
B( 12-C , 13-H ) :   0.9751 B( 12-C , 14-H ) :   0.9783 B( 12-C , 15-H ) :   0.9790
B( 16-S , 17-C ) :   1.1514 B( 16-S , 20-C ) :   1.1348 B( 17-C , 18-C ) :   1.6135
B( 17-C , 33-H ) :   0.9713 B( 18-C , 19-C ) :   1.2302 B( 18-C , 21-H ) :   1.0002
B( 19-C , 20-C ) :   1.5644 B( 19-C , 22-C ) :   1.0441 B( 22-C , 23-H ) :   0.9249
B( 22-C , 24-H ) :   0.9180 B( 22-C , 25-C ) :   1.0845 B( 25-C , 26-H ) :   0.9460
B( 25-C , 27-H ) :   0.9421 B( 25-C , 28-C ) :   1.0770 B( 28-C , 29-H ) :   0.9772
B( 28-C , 30-H ) :   0.9746 B( 28-C , 31-H ) :   0.9719

Dispersion correction           -0.014940030
FINAL SINGLE POINT ENERGY     -1339.880837218598

DIPOLE MOMENT
-------------
                                X             Y             Z
Electronic contribution:     -5.04670       3.40474      -9.21558
Nuclear contribution   :      5.10320      -3.23745       9.53213
                        -----------------------------------------
Total Dipole Moment    :      0.05650       0.16728       0.31655
                        -----------------------------------------
Magnitude (a.u.)       :      0.36246
Magnitude (Debye)      :      0.92130

Rotational constants in cm-1:     0.023516     0.008415     0.006798
Rotational constants in MHz :   705.006619   252.260451   203.800011

                             ****ORCA TERMINATED NORMALLY****
TOTAL RUN TIME: 0 days 0 hours 0 minutes 23 seconds 103 msec
