                         Program Version 4.2.1 -  RELEASE  -
|  1> ! wB97X-D3 SP def2-SVP
|  2> %pal
|  3> nprocs 24
|  4> end
|  5>
|  6> * xyz 0 1
|  7> S 	 -68.2122 	 -1.02651 	 -107.149
|  8> C 	 -68.3647 	 -0.840975 	 -105.444
|  9> C 	 -68.7587 	 0.437376 	 -105.092
| 10> C 	 -68.6634 	 1.33437 	 -106.175
| 11> C 	 -68.2758 	 0.715177 	 -107.326
| 12> H 	 -68.5679 	 2.396 	 -106.156
| 13> C 	 -69.3691 	 0.861628 	 -103.723
| 14> H 	 -68.8164 	 1.7433 	 -103.354
| 15> H 	 -69.2695 	 0.143177 	 -102.894
| 16> C 	 -70.8365 	 1.40874 	 -103.796
| 17> H 	 -71.0687 	 2.16127 	 -104.585
| 18> H 	 -71.5446 	 0.556372 	 -103.99
| 19> C 	 -71.2465 	 1.99288 	 -102.411
| 20> H 	 -72.3076 	 2.14068 	 -102.421
| 21> H 	 -70.8702 	 1.30354 	 -101.648
| 22> H 	 -70.8275 	 2.98839 	 -102.267
| 23> S 	 -68.6348 	 1.29613 	 -110.031
| 24> C 	 -67.2513 	 2.00242 	 -110.895
| 25> C 	 -66.2992 	 2.35409 	 -110.065
| 26> C 	 -66.4814 	 1.89976 	 -108.714
| 27> C 	 -67.7095 	 1.33427 	 -108.524
| 28> H 	 -65.4284 	 2.82005 	 -110.43
| 29> C 	 -65.3944 	 2.05199 	 -107.736
| 30> H 	 -65.903 	 2.3883 	 -106.823
| 31> H 	 -64.7603 	 2.77844 	 -108.098
| 32> C 	 -64.7343 	 0.748487 	 -107.396
| 33> H 	 -64.2647 	 0.435741 	 -108.369
| 34> H 	 -65.3818 	 0.0309949 	 -107.18
| 35> C 	 -63.5916 	 0.920741 	 -106.441
| 36> H 	 -63.122 	 -0.0230748 	 -106.135
| 37> H 	 -63.9719 	 1.30561 	 -105.481
| 38> H 	 -62.9264 	 1.62251 	 -106.89
| 39> H 	 -68.402 	 -1.6699 	 -104.784
| 40> H 	 -67.2633 	 2.24678 	 -111.942
| 41> *
| 42>
| 43>                          ****END OF INPUT****

CARTESIAN COORDINATES (ANGSTROEM)
---------------------------------
  S    -68.212200   -1.026510  -107.149000
  C    -68.364700   -0.840975  -105.444000
  C    -68.758700    0.437376  -105.092000
  C    -68.663400    1.334370  -106.175000
  C    -68.275800    0.715177  -107.326000
  H    -68.567900    2.396000  -106.156000
  C    -69.369100    0.861628  -103.723000
  H    -68.816400    1.743300  -103.354000
  H    -69.269500    0.143177  -102.894000
  C    -70.836500    1.408740  -103.796000
  H    -71.068700    2.161270  -104.585000
  H    -71.544600    0.556372  -103.990000
  C    -71.246500    1.992880  -102.411000
  H    -72.307600    2.140680  -102.421000
  H    -70.870200    1.303540  -101.648000
  H    -70.827500    2.988390  -102.267000
  S    -68.634800    1.296130  -110.031000
  C    -67.251300    2.002420  -110.895000
  C    -66.299200    2.354090  -110.065000
  C    -66.481400    1.899760  -108.714000
  C    -67.709500    1.334270  -108.524000
  H    -65.428400    2.820050  -110.430000
  C    -65.394400    2.051990  -107.736000
  H    -65.903000    2.388300  -106.823000
  H    -64.760300    2.778440  -108.098000
  C    -64.734300    0.748487  -107.396000
  H    -64.264700    0.435741  -108.369000
  H    -65.381800    0.030995  -107.180000
  C    -63.591600    0.920741  -106.441000
  H    -63.122000   -0.023075  -106.135000
  H    -63.971900    1.305610  -105.481000
  H    -62.926400    1.622510  -106.890000
  H    -68.402000   -1.669900  -104.784000
  H    -67.263300    2.246780  -111.942000

 Total Charge           Charge          ....    0
 Multiplicity           Mult            ....    1
 Number of Electrons    NEL             ....  134
 Basis Dimension        Dim             ....  322

ORBITAL ENERGIES
----------------

  NO   OCC          E(Eh)            E(eV)
   0   2.0000     -88.966426     -2420.8995
   1   2.0000     -88.957818     -2420.6653
   2   2.0000     -10.325077      -280.9596
   3   2.0000     -10.320142      -280.8253
   4   2.0000     -10.311934      -280.6020
   5   2.0000     -10.309807      -280.5441
   6   2.0000     -10.305396      -280.4241
   7   2.0000     -10.302504      -280.3454
   8   2.0000     -10.295210      -280.1469
   9   2.0000     -10.294513      -280.1279
  10   2.0000     -10.291530      -280.0468
  11   2.0000     -10.281337      -279.7694
  12   2.0000     -10.279244      -279.7125
  13   2.0000     -10.276660      -279.6421
  14   2.0000     -10.270985      -279.4877
  15   2.0000     -10.267933      -279.4046
  16   2.0000      -8.081509      -219.9090
  17   2.0000      -8.072452      -219.6626
  18   2.0000      -6.039870      -164.3532
  19   2.0000      -6.036093      -164.2504
  20   2.0000      -6.032246      -164.1457
  21   2.0000      -6.031149      -164.1159
  22   2.0000      -6.027101      -164.0058
  23   2.0000      -6.022904      -163.8915
  24   2.0000      -1.011381       -27.5211
  25   2.0000      -0.989310       -26.9205
  26   2.0000      -0.920494       -25.0479
  27   2.0000      -0.904312       -24.6076
  28   2.0000      -0.872999       -23.7555
  29   2.0000      -0.853821       -23.2337
  30   2.0000      -0.849833       -23.1251
  31   2.0000      -0.820113       -22.3164
  32   2.0000      -0.780847       -21.2479
  33   2.0000      -0.769025       -20.9262
  34   2.0000      -0.710000       -19.3201
  35   2.0000      -0.696534       -18.9537
  36   2.0000      -0.691073       -18.8051
  37   2.0000      -0.663615       -18.0579
  38   2.0000      -0.652741       -17.7620
  39   2.0000      -0.621900       -16.9228
  40   2.0000      -0.598447       -16.2846
  41   2.0000      -0.579669       -15.7736
  42   2.0000      -0.566868       -15.4253
  43   2.0000      -0.556947       -15.1553
  44   2.0000      -0.530687       -14.4407
  45   2.0000      -0.526460       -14.3257
  46   2.0000      -0.519199       -14.1281
  47   2.0000      -0.511989       -13.9319
  48   2.0000      -0.507431       -13.8079
  49   2.0000      -0.503257       -13.6943
  50   2.0000      -0.492603       -13.4044
  51   2.0000      -0.481110       -13.0917
  52   2.0000      -0.467460       -12.7202
  53   2.0000      -0.463876       -12.6227
  54   2.0000      -0.459561       -12.5053
  55   2.0000      -0.450131       -12.2487
  56   2.0000      -0.448649       -12.2084
  57   2.0000      -0.441870       -12.0239
  58   2.0000      -0.439786       -11.9672
  59   2.0000      -0.420975       -11.4553
  60   2.0000      -0.419771       -11.4226
  61   2.0000      -0.416056       -11.3215
  62   2.0000      -0.405083       -11.0229
  63   2.0000      -0.338446        -9.2096
  64   2.0000      -0.334911        -9.1134
  65   2.0000      -0.324098        -8.8191
  66   2.0000      -0.303110        -8.2480
  67   0.0000       0.043361         1.1799
  68   0.0000       0.058115         1.5814
  69   0.0000       0.113744         3.0951
  70   0.0000       0.119888         3.2623
  71   0.0000       0.129051         3.5117

MULLIKEN ATOMIC CHARGES
-----------------------
   0 S :    0.120339
   1 C :   -0.106833
   2 C :   -0.059530
   3 C :    0.068002
   4 C :   -0.185875
   5 H :    0.015274
   6 C :    0.051707
   7 H :    0.023994
   8 H :    0.025908
   9 C :   -0.126922
  10 H :    0.045901
  11 H :    0.038875
  12 C :   -0.045231
  13 H :    0.034293
  14 H :    0.036138
  15 H :    0.032331
  16 S :    0.081443
  17 C :   -0.074695
  18 C :   -0.004362
  19 C :   -0.054917
  20 C :   -0.183003
  21 H :   -0.002177
  22 C :    0.145865
  23 H :    0.011431
  24 H :   -0.010894
  25 C :   -0.031417
  26 H :    0.013778
  27 H :   -0.011478
  28 C :   -0.002951
  29 H :    0.033977
  30 H :    0.017927
  31 H :    0.022003
  32 H :    0.032143
  33 H :    0.048956
Sum of atomic charges:   -0.0000000

LOEWDIN ATOMIC CHARGES
----------------------
   0 S :    0.419507
   1 C :   -0.194279
   2 C :   -0.062604
   3 C :   -0.054012
   4 C :   -0.190410
   5 H :    0.032930
   6 C :   -0.034601
   7 H :    0.030375
   8 H :    0.029335
   9 C :   -0.045453
  10 H :    0.027817
  11 H :    0.025950
  12 C :   -0.063054
  13 H :    0.025020
  14 H :    0.025970
  15 H :    0.023450
  16 S :    0.368455
  17 C :   -0.161283
  18 C :   -0.070798
  19 C :   -0.046887
  20 C :   -0.200116
  21 H :    0.025609
  22 C :   -0.022670
  23 H :    0.032542
  24 H :    0.017526
  25 C :   -0.025916
  26 H :    0.027886
  27 H :   -0.002649
  28 C :   -0.058162
  29 H :    0.028491
  30 H :    0.023075
  31 H :    0.021476
  32 H :    0.018616
  33 H :    0.028864

  Mayer bond orders larger than 0.100000
B(  0-S ,  1-C ) :   1.1459 B(  0-S ,  4-C ) :   1.1516 B(  1-C ,  2-C ) :   1.6256
B(  1-C , 32-H ) :   0.9730 B(  2-C ,  3-C ) :   1.2112 B(  2-C ,  6-C ) :   1.0190
B(  3-C ,  4-C ) :   1.6226 B(  3-C ,  5-H ) :   0.9908 B(  4-C , 20-C ) :   0.9936
B(  6-C ,  7-H ) :   0.9417 B(  6-C ,  8-H ) :   0.9482 B(  6-C ,  9-C ) :   1.0486
B(  9-C , 10-H ) :   0.9572 B(  9-C , 11-H ) :   0.9592 B(  9-C , 12-C ) :   1.0762
B( 12-C , 13-H ) :   0.9746 B( 12-C , 14-H ) :   0.9754 B( 12-C , 15-H ) :   0.9757
B( 16-S , 17-C ) :   1.1262 B( 16-S , 20-C ) :   1.1185 B( 17-C , 18-C ) :   1.6712
B( 17-C , 33-H ) :   0.9631 B( 18-C , 19-C ) :   1.2035 B( 18-C , 21-H ) :   0.9927
B( 19-C , 20-C ) :   1.6508 B( 19-C , 22-C ) :   1.0517 B( 22-C , 23-H ) :   0.9103
B( 22-C , 24-H ) :   0.9191 B( 22-C , 25-C ) :   1.0742 B( 25-C , 26-H ) :   0.9465
B( 25-C , 27-H ) :   0.9535 B( 25-C , 28-C ) :   1.0921 B( 28-C , 29-H ) :   0.9718
B( 28-C , 30-H ) :   0.9713 B( 28-C , 31-H ) :   0.9715

Dispersion correction           -0.014697496
FINAL SINGLE POINT ENERGY     -1339.865636780512

DIPOLE MOMENT
-------------
                                X             Y             Z
Electronic contribution:     -5.64464      -7.28383     -22.68760
Nuclear contribution   :      5.89277       7.59192      23.13426
                        -----------------------------------------
Total Dipole Moment    :      0.24813       0.30808       0.44666
                        -----------------------------------------
Magnitude (a.u.)       :      0.59665
Magnitude (Debye)      :      1.51656

Rotational constants in cm-1:     0.019301     0.008236     0.007076
Rotational constants in MHz :   578.614850   246.908937   212.144413

                             ****ORCA TERMINATED NORMALLY****
TOTAL RUN TIME: 0 days 0 hours 0 minutes 22 seconds 137 msec
