                         Program Version 4.2.1 -  RELEASE  -
|  1> ! wB97X-D3 SP def2-SVP
|  2> %pal
|  3> nprocs 24
|  4> end
|  5>
|  6> * xyz 0 1
|  7> S 	 -106.716 	 7.83941 	 -124.224
|  8> C 	 -107.764 	 6.49404 	 -123.918
|  9> C 	 -107.756 	 6.06256 	 -122.624
| 10> C 	 -106.917 	 6.93778 	 -121.884
| 11> C 	 -106.152 	 7.86415 	 -122.579
| 12> H 	 -106.79 	 6.78773 	 -120.857
| 13> C 	 -108.696 	 5.0661 	 -122.014
| 14> H 	 -108.109 	 4.24726 	 -121.587
| 15> H 	 -109.196 	 4.4722 	 -122.81
| 16> C 	 -109.81 	 5.59279 	 -121.109
| 17> H 	 -109.417 	 6.08429 	 -120.202
| 18> H 	 -110.343 	 6.35419 	 -121.687
| 19> C 	 -110.668 	 4.44839 	 -120.679
| 20> H 	 -111.28 	 4.72992 	 -119.793
| 21> H 	 -111.336 	 4.33751 	 -121.548
| 22> H 	 -110.156 	 3.53997 	 -120.543
| 23> S 	 -105.032 	 10.2736 	 -123.18
| 24> C 	 -103.875 	 10.9652 	 -122.043
| 25> C 	 -103.614 	 10.1648 	 -120.92
| 26> C 	 -104.292 	 8.9332 	 -121.053
| 27> C 	 -105.165 	 8.8496 	 -122.139
| 28> H 	 -102.98 	 10.4877 	 -120.164
| 29> C 	 -104.052 	 7.81767 	 -119.969
| 30> H 	 -103.002 	 7.48938 	 -120.166
| 31> H 	 -104.575 	 6.96433 	 -120.185
| 32> C 	 -104.317 	 8.12569 	 -118.478
| 33> H 	 -103.781 	 9.10824 	 -118.299
| 34> H 	 -103.804 	 7.46858 	 -117.771
| 35> C 	 -105.733 	 8.42608 	 -118.163
| 36> H 	 -106.263 	 7.48328 	 -118.045
| 37> H 	 -106.161 	 8.91957 	 -119.015
| 38> H 	 -105.882 	 9.02164 	 -117.257
| 39> H 	 -108.326 	 6.03576 	 -124.692
| 40> H 	 -103.429 	 11.9496 	 -122.05
| 41> *
| 42>
| 43>                          ****END OF INPUT****

CARTESIAN COORDINATES (ANGSTROEM)
---------------------------------
  S    -106.716000    7.839410  -124.224000
  C    -107.764000    6.494040  -123.918000
  C    -107.756000    6.062560  -122.624000
  C    -106.917000    6.937780  -121.884000
  C    -106.152000    7.864150  -122.579000
  H    -106.790000    6.787730  -120.857000
  C    -108.696000    5.066100  -122.014000
  H    -108.109000    4.247260  -121.587000
  H    -109.196000    4.472200  -122.810000
  C    -109.810000    5.592790  -121.109000
  H    -109.417000    6.084290  -120.202000
  H    -110.343000    6.354190  -121.687000
  C    -110.668000    4.448390  -120.679000
  H    -111.280000    4.729920  -119.793000
  H    -111.336000    4.337510  -121.548000
  H    -110.156000    3.539970  -120.543000
  S    -105.032000   10.273600  -123.180000
  C    -103.875000   10.965200  -122.043000
  C    -103.614000   10.164800  -120.920000
  C    -104.292000    8.933200  -121.053000
  C    -105.165000    8.849600  -122.139000
  H    -102.980000   10.487700  -120.164000
  C    -104.052000    7.817670  -119.969000
  H    -103.002000    7.489380  -120.166000
  H    -104.575000    6.964330  -120.185000
  C    -104.317000    8.125690  -118.478000
  H    -103.781000    9.108240  -118.299000
  H    -103.804000    7.468580  -117.771000
  C    -105.733000    8.426080  -118.163000
  H    -106.263000    7.483280  -118.045000
  H    -106.161000    8.919570  -119.015000
  H    -105.882000    9.021640  -117.257000
  H    -108.326000    6.035760  -124.692000
  H    -103.429000   11.949600  -122.050000

 Total Charge           Charge          ....    0
 Multiplicity           Mult            ....    1
 Number of Electrons    NEL             ....  134
 Basis Dimension        Dim             ....  322

ORBITAL ENERGIES
----------------

  NO   OCC          E(Eh)            E(eV)
   0   2.0000     -88.971856     -2421.0473
   1   2.0000     -88.963986     -2420.8331
   2   2.0000     -10.333256      -281.1822
   3   2.0000     -10.330548      -281.1085
   4   2.0000     -10.321215      -280.8545
   5   2.0000     -10.309903      -280.5467
   6   2.0000     -10.308118      -280.4982
   7   2.0000     -10.296001      -280.1684
   8   2.0000     -10.294784      -280.1353
   9   2.0000     -10.293100      -280.0895
  10   2.0000     -10.290877      -280.0290
  11   2.0000     -10.288367      -279.9607
  12   2.0000     -10.286928      -279.9215
  13   2.0000     -10.286635      -279.9136
  14   2.0000     -10.276855      -279.6475
  15   2.0000     -10.271422      -279.4996
  16   2.0000      -8.085890      -220.0282
  17   2.0000      -8.079484      -219.8539
  18   2.0000      -6.044439      -164.4775
  19   2.0000      -6.040600      -164.3731
  20   2.0000      -6.037943      -164.3008
  21   2.0000      -6.036548      -164.2628
  22   2.0000      -6.033947      -164.1920
  23   2.0000      -6.030203      -164.0902
  24   2.0000      -1.009250       -27.4631
  25   2.0000      -0.985340       -26.8125
  26   2.0000      -0.920158       -25.0388
  27   2.0000      -0.910212       -24.7681
  28   2.0000      -0.875165       -23.8145
  29   2.0000      -0.853254       -23.2182
  30   2.0000      -0.848551       -23.0902
  31   2.0000      -0.815684       -22.1959
  32   2.0000      -0.785138       -21.3647
  33   2.0000      -0.774126       -21.0650
  34   2.0000      -0.709339       -19.3021
  35   2.0000      -0.697873       -18.9901
  36   2.0000      -0.694292       -18.8926
  37   2.0000      -0.666058       -18.1244
  38   2.0000      -0.643842       -17.5198
  39   2.0000      -0.629136       -17.1197
  40   2.0000      -0.595132       -16.1944
  41   2.0000      -0.574551       -15.6343
  42   2.0000      -0.567896       -15.4532
  43   2.0000      -0.559373       -15.2213
  44   2.0000      -0.542890       -14.7728
  45   2.0000      -0.531659       -14.4672
  46   2.0000      -0.520450       -14.1622
  47   2.0000      -0.510139       -13.8816
  48   2.0000      -0.503095       -13.6899
  49   2.0000      -0.500265       -13.6129
  50   2.0000      -0.492397       -13.3988
  51   2.0000      -0.482173       -13.1206
  52   2.0000      -0.469084       -12.7644
  53   2.0000      -0.461325       -12.5533
  54   2.0000      -0.456900       -12.4329
  55   2.0000      -0.454328       -12.3629
  56   2.0000      -0.449486       -12.2311
  57   2.0000      -0.444099       -12.0845
  58   2.0000      -0.440933       -11.9984
  59   2.0000      -0.426818       -11.6143
  60   2.0000      -0.415563       -11.3080
  61   2.0000      -0.411895       -11.2082
  62   2.0000      -0.402336       -10.9481
  63   2.0000      -0.359052        -9.7703
  64   2.0000      -0.339669        -9.2429
  65   2.0000      -0.329295        -8.9606
  66   2.0000      -0.281447        -7.6586
  67   0.0000       0.021175         0.5762
  68   0.0000       0.079883         2.1737
  69   0.0000       0.093073         2.5326
  70   0.0000       0.120605         3.2818
  71   0.0000       0.134028         3.6471

MULLIKEN ATOMIC CHARGES
-----------------------
   0 S :    0.090685
   1 C :   -0.106466
   2 C :   -0.056023
   3 C :    0.017393
   4 C :   -0.110504
   5 H :   -0.027606
   6 C :    0.028695
   7 H :    0.026192
   8 H :    0.007245
   9 C :   -0.065670
  10 H :    0.031138
  11 H :    0.038382
  12 C :   -0.029859
  13 H :    0.043709
  14 H :    0.028553
  15 H :    0.026151
  16 S :    0.104889
  17 C :   -0.073114
  18 C :   -0.029370
  19 C :   -0.068363
  20 C :   -0.117765
  21 H :    0.003741
  22 C :    0.091610
  23 H :    0.039362
  24 H :   -0.012657
  25 C :   -0.083462
  26 H :    0.015550
  27 H :    0.032921
  28 C :   -0.031288
  29 H :    0.023372
  30 H :    0.038531
  31 H :    0.040310
  32 H :    0.031731
  33 H :    0.051987
Sum of atomic charges:   -0.0000000

LOEWDIN ATOMIC CHARGES
----------------------
   0 S :    0.406267
   1 C :   -0.187049
   2 C :   -0.067744
   3 C :   -0.060665
   4 C :   -0.192445
   5 H :    0.013694
   6 C :   -0.038153
   7 H :    0.030458
   8 H :    0.031322
   9 C :   -0.039298
  10 H :    0.022077
  11 H :    0.028719
  12 C :   -0.061651
  13 H :    0.032917
  14 H :    0.030415
  15 H :    0.018185
  16 S :    0.396391
  17 C :   -0.174689
  18 C :   -0.059950
  19 C :   -0.052970
  20 C :   -0.189693
  21 H :    0.023731
  22 C :   -0.025983
  23 H :    0.041582
  24 H :    0.009874
  25 C :   -0.047315
  26 H :    0.023252
  27 H :    0.025660
  28 C :   -0.064464
  29 H :    0.021519
  30 H :    0.028077
  31 H :    0.029965
  32 H :    0.019313
  33 H :    0.028651

  Mayer bond orders larger than 0.100000
B(  0-S ,  1-C ) :   1.1510 B(  0-S ,  4-C ) :   1.1429 B(  1-C ,  2-C ) :   1.5998
B(  1-C , 32-H ) :   0.9671 B(  2-C ,  3-C ) :   1.2618 B(  2-C ,  6-C ) :   1.0360
B(  3-C ,  4-C ) :   1.5590 B(  3-C ,  5-H ) :   0.9977 B(  4-C , 20-C ) :   1.0696
B(  6-C ,  7-H ) :   0.9258 B(  6-C ,  8-H ) :   0.9400 B(  6-C ,  9-C ) :   1.0575
B(  9-C , 10-H ) :   0.9536 B(  9-C , 11-H ) :   0.9587 B(  9-C , 12-C ) :   1.0746
B( 12-C , 13-H ) :   0.9728 B( 12-C , 14-H ) :   0.9753 B( 12-C , 15-H ) :   0.9745
B( 16-S , 17-C ) :   1.1517 B( 16-S , 20-C ) :   1.1275 B( 17-C , 18-C ) :   1.6176
B( 17-C , 20-C ) :   0.1018 B( 17-C , 33-H ) :   0.9633 B( 18-C , 19-C ) :   1.2367
B( 18-C , 21-H ) :   0.9994 B( 19-C , 20-C ) :   1.5920 B( 19-C , 22-C ) :   1.0270
B( 22-C , 23-H ) :   0.9317 B( 22-C , 24-H ) :   0.9389 B( 22-C , 25-C ) :   1.0631
B( 25-C , 26-H ) :   0.9550 B( 25-C , 27-H ) :   0.9549 B( 25-C , 28-C ) :   1.0772
B( 28-C , 29-H ) :   0.9700 B( 28-C , 30-H ) :   0.9722 B( 28-C , 31-H ) :   0.9723

Dispersion correction           -0.014181099
FINAL SINGLE POINT ENERGY     -1339.870335677190

DIPOLE MOMENT
-------------
                                X             Y             Z
Electronic contribution:     11.20423      15.39276     -23.92586
Nuclear contribution   :    -11.31623     -15.68672      24.54427
                        -----------------------------------------
Total Dipole Moment    :     -0.11200      -0.29396       0.61840
                        -----------------------------------------
Magnitude (a.u.)       :      0.69382
Magnitude (Debye)      :      1.76354

Rotational constants in cm-1:     0.018686     0.008911     0.006456
Rotational constants in MHz :   560.177388   267.146962   193.549009

                             ****ORCA TERMINATED NORMALLY****
TOTAL RUN TIME: 0 days 0 hours 0 minutes 21 seconds 686 msec
