                         Program Version 4.2.1 -  RELEASE  -
|  1> ! wB97X-D3 SP def2-SVP
|  2> %pal
|  3> nprocs 24
|  4> end
|  5>
|  6> * xyz 0 1
|  7> S 	 -120.838 	 19.6444 	 -110
|  8> C 	 -120.675 	 20.2711 	 -111.673
|  9> C 	 -119.894 	 19.4837 	 -112.544
| 10> C 	 -119.367 	 18.3786 	 -111.706
| 11> C 	 -119.682 	 18.425 	 -110.381
| 12> H 	 -118.812 	 17.5445 	 -112.057
| 13> C 	 -119.584 	 19.6814 	 -114.026
| 14> H 	 -119.595 	 18.6196 	 -114.387
| 15> H 	 -118.568 	 20.1899 	 -114.096
| 16> C 	 -120.736 	 20.4646 	 -114.752
| 17> H 	 -121.745 	 20.1229 	 -114.519
| 18> H 	 -120.709 	 21.4911 	 -114.525
| 19> C 	 -120.674 	 20.4874 	 -116.326
| 20> H 	 -121.671 	 20.8408 	 -116.681
| 21> H 	 -119.854 	 21.1465 	 -116.7
| 22> H 	 -120.563 	 19.4143 	 -116.681
| 23> S 	 -118.409 	 18.0762 	 -107.905
| 24> C 	 -118.654 	 16.5033 	 -107.207
| 25> C 	 -119.195 	 15.5835 	 -108.086
| 26> C 	 -119.582 	 16.1355 	 -109.289
| 27> C 	 -119.247 	 17.4967 	 -109.402
| 28> H 	 -119.396 	 14.6005 	 -107.74
| 29> C 	 -120.248 	 15.3489 	 -110.332
| 30> H 	 -120.728 	 16.0519 	 -111.101
| 31> H 	 -121.123 	 14.8038 	 -109.858
| 32> C 	 -119.309 	 14.3733 	 -111.107
| 33> H 	 -118.728 	 13.8707 	 -110.385
| 34> H 	 -118.739 	 14.8742 	 -111.904
| 35> C 	 -120.039 	 13.16 	 -111.828
| 36> H 	 -120.577 	 12.5843 	 -111.123
| 37> H 	 -119.377 	 12.4993 	 -112.406
| 38> H 	 -120.853 	 13.436 	 -112.422
| 39> H 	 -121.175 	 21.1794 	 -111.912
| 40> H 	 -118.211 	 16.3557 	 -106.166
| 41> *
| 42>
| 43>                          ****END OF INPUT****

CARTESIAN COORDINATES (ANGSTROEM)
---------------------------------
  S    -120.838000   19.644400  -110.000000
  C    -120.675000   20.271100  -111.673000
  C    -119.894000   19.483700  -112.544000
  C    -119.367000   18.378600  -111.706000
  C    -119.682000   18.425000  -110.381000
  H    -118.812000   17.544500  -112.057000
  C    -119.584000   19.681400  -114.026000
  H    -119.595000   18.619600  -114.387000
  H    -118.568000   20.189900  -114.096000
  C    -120.736000   20.464600  -114.752000
  H    -121.745000   20.122900  -114.519000
  H    -120.709000   21.491100  -114.525000
  C    -120.674000   20.487400  -116.326000
  H    -121.671000   20.840800  -116.681000
  H    -119.854000   21.146500  -116.700000
  H    -120.563000   19.414300  -116.681000
  S    -118.409000   18.076200  -107.905000
  C    -118.654000   16.503300  -107.207000
  C    -119.195000   15.583500  -108.086000
  C    -119.582000   16.135500  -109.289000
  C    -119.247000   17.496700  -109.402000
  H    -119.396000   14.600500  -107.740000
  C    -120.248000   15.348900  -110.332000
  H    -120.728000   16.051900  -111.101000
  H    -121.123000   14.803800  -109.858000
  C    -119.309000   14.373300  -111.107000
  H    -118.728000   13.870700  -110.385000
  H    -118.739000   14.874200  -111.904000
  C    -120.039000   13.160000  -111.828000
  H    -120.577000   12.584300  -111.123000
  H    -119.377000   12.499300  -112.406000
  H    -120.853000   13.436000  -112.422000
  H    -121.175000   21.179400  -111.912000
  H    -118.211000   16.355700  -106.166000

 Total Charge           Charge          ....    0
 Multiplicity           Mult            ....    1
 Number of Electrons    NEL             ....  134
 Basis Dimension        Dim             ....  322

ORBITAL ENERGIES
----------------

  NO   OCC          E(Eh)            E(eV)
   0   2.0000     -88.965334     -2420.8698
   1   2.0000     -88.962492     -2420.7925
   2   2.0000     -10.322667      -280.8940
   3   2.0000     -10.322473      -280.8888
   4   2.0000     -10.317497      -280.7534
   5   2.0000     -10.314988      -280.6851
   6   2.0000     -10.311805      -280.5985
   7   2.0000     -10.311016      -280.5770
   8   2.0000     -10.298277      -280.2304
   9   2.0000     -10.297662      -280.2136
  10   2.0000     -10.291193      -280.0376
  11   2.0000     -10.291028      -280.0331
  12   2.0000     -10.290761      -280.0258
  13   2.0000     -10.289774      -279.9990
  14   2.0000     -10.288350      -279.9602
  15   2.0000     -10.272332      -279.5244
  16   2.0000      -8.079586      -219.8567
  17   2.0000      -8.077371      -219.7964
  18   2.0000      -6.037909      -164.2998
  19   2.0000      -6.035824      -164.2431
  20   2.0000      -6.034204      -164.1990
  21   2.0000      -6.032119      -164.1423
  22   2.0000      -6.030549      -164.0996
  23   2.0000      -6.027918      -164.0280
  24   2.0000      -1.004435       -27.3321
  25   2.0000      -0.978036       -26.6137
  26   2.0000      -0.906497       -24.6670
  27   2.0000      -0.905821       -24.6486
  28   2.0000      -0.865008       -23.5381
  29   2.0000      -0.853420       -23.2227
  30   2.0000      -0.844379       -22.9767
  31   2.0000      -0.807906       -21.9842
  32   2.0000      -0.783728       -21.3263
  33   2.0000      -0.766246       -20.8506
  34   2.0000      -0.708675       -19.2840
  35   2.0000      -0.703362       -19.1395
  36   2.0000      -0.687709       -18.7135
  37   2.0000      -0.660280       -17.9671
  38   2.0000      -0.642231       -17.4760
  39   2.0000      -0.610632       -16.6161
  40   2.0000      -0.594961       -16.1897
  41   2.0000      -0.571005       -15.5378
  42   2.0000      -0.564530       -15.3616
  43   2.0000      -0.554755       -15.0956
  44   2.0000      -0.527214       -14.3462
  45   2.0000      -0.522274       -14.2118
  46   2.0000      -0.519517       -14.1368
  47   2.0000      -0.511786       -13.9264
  48   2.0000      -0.506267       -13.7762
  49   2.0000      -0.497037       -13.5251
  50   2.0000      -0.486309       -13.2332
  51   2.0000      -0.469357       -12.7719
  52   2.0000      -0.467053       -12.7091
  53   2.0000      -0.459848       -12.5131
  54   2.0000      -0.452312       -12.3080
  55   2.0000      -0.450341       -12.2544
  56   2.0000      -0.441471       -12.0130
  57   2.0000      -0.438556       -11.9337
  58   2.0000      -0.435645       -11.8545
  59   2.0000      -0.427369       -11.6293
  60   2.0000      -0.422743       -11.5034
  61   2.0000      -0.419975       -11.4281
  62   2.0000      -0.417952       -11.3730
  63   2.0000      -0.337461        -9.1828
  64   2.0000      -0.331086        -9.0093
  65   2.0000      -0.325174        -8.8484
  66   2.0000      -0.293003        -7.9730
  67   0.0000       0.032932         0.8961
  68   0.0000       0.064903         1.7661
  69   0.0000       0.107044         2.9128
  70   0.0000       0.118022         3.2116
  71   0.0000       0.126165         3.4331

MULLIKEN ATOMIC CHARGES
-----------------------
   0 S :    0.115236
   1 C :   -0.135653
   2 C :   -0.082100
   3 C :    0.019100
   4 C :   -0.144190
   5 H :   -0.009768
   6 C :    0.067877
   7 H :    0.042694
   8 H :    0.072998
   9 C :   -0.101382
  10 H :    0.036828
  11 H :    0.026260
  12 C :   -0.083767
  13 H :    0.041513
  14 H :    0.048488
  15 H :    0.037639
  16 S :    0.105430
  17 C :   -0.130845
  18 C :   -0.010030
  19 C :    0.017042
  20 C :   -0.191346
  21 H :    0.006584
  22 C :    0.001736
  23 H :    0.046639
  24 H :    0.038468
  25 C :   -0.050928
  26 H :    0.024978
  27 H :    0.045826
  28 C :   -0.036878
  29 H :    0.007200
  30 H :    0.042199
  31 H :    0.009152
  32 H :    0.037547
  33 H :    0.085451
Sum of atomic charges:    0.0000000

LOEWDIN ATOMIC CHARGES
----------------------
   0 S :    0.394999
   1 C :   -0.179907
   2 C :   -0.057053
   3 C :   -0.059187
   4 C :   -0.208328
   5 H :    0.021624
   6 C :   -0.034222
   7 H :    0.040406
   8 H :    0.050053
   9 C :   -0.043711
  10 H :    0.027426
  11 H :    0.017182
  12 C :   -0.071737
  13 H :    0.029973
  14 H :    0.027627
  15 H :    0.027000
  16 S :    0.387841
  17 C :   -0.186624
  18 C :   -0.073543
  19 C :   -0.052913
  20 C :   -0.189769
  21 H :    0.028427
  22 C :   -0.042535
  23 H :    0.040027
  24 H :    0.037654
  25 C :   -0.027251
  26 H :    0.018031
  27 H :    0.027276
  28 C :   -0.065772
  29 H :    0.017761
  30 H :    0.029926
  31 H :    0.015361
  32 H :    0.013764
  33 H :    0.040191

  Mayer bond orders larger than 0.100000
B(  0-S ,  1-C ) :   1.1291 B(  0-S ,  4-C ) :   1.1334 B(  1-C ,  2-C ) :   1.6300
B(  1-C , 32-H ) :   0.9721 B(  2-C ,  3-C ) :   1.1945 B(  2-C ,  6-C ) :   1.0045
B(  3-C ,  4-C ) :   1.6115 B(  3-C ,  5-H ) :   1.0008 B(  4-C , 20-C ) :   1.0661
B(  6-C ,  7-H ) :   0.9431 B(  6-C ,  8-H ) :   0.9338 B(  6-C ,  9-C ) :   1.0674
B(  9-C , 10-H ) :   0.9644 B(  9-C , 11-H ) :   0.9519 B(  9-C , 12-C ) :   1.0810
B( 12-C , 13-H ) :   0.9758 B( 12-C , 14-H ) :   0.9768 B( 12-C , 15-H ) :   0.9773
B( 16-S , 17-C ) :   1.1770 B( 16-S , 20-C ) :   1.1321 B( 17-C , 18-C ) :   1.5726
B( 17-C , 20-C ) :   0.1067 B( 17-C , 33-H ) :   0.9565 B( 18-C , 19-C ) :   1.2578
B( 18-C , 21-H ) :   1.0000 B( 19-C , 20-C ) :   1.5615 B( 19-C , 22-C ) :   1.0607
B( 22-C , 23-H ) :   0.9224 B( 22-C , 24-H ) :   0.9379 B( 22-C , 25-C ) :   1.0516
B( 25-C , 26-H ) :   0.9631 B( 25-C , 27-H ) :   0.9577 B( 25-C , 28-C ) :   1.0722
B( 28-C , 29-H ) :   0.9732 B( 28-C , 30-H ) :   0.9773 B( 28-C , 31-H ) :   0.9736

Dispersion correction           -0.013853975
FINAL SINGLE POINT ENERGY     -1339.863103928632

DIPOLE MOMENT
-------------
                                X             Y             Z
Electronic contribution:      4.41964      10.92971      27.92577
Nuclear contribution   :     -4.52687     -11.25886     -28.38922
                        -----------------------------------------
Total Dipole Moment    :     -0.10724      -0.32916      -0.46345
                        -----------------------------------------
Magnitude (a.u.)       :      0.57847
Magnitude (Debye)      :      1.47037

Rotational constants in cm-1:     0.018712     0.007896     0.005981
Rotational constants in MHz :   560.976691   236.726641   179.291119

                             ****ORCA TERMINATED NORMALLY****
TOTAL RUN TIME: 0 days 0 hours 0 minutes 19 seconds 912 msec
