                         Program Version 4.2.1 -  RELEASE  -
|  1> ! wB97X-D3 SP def2-SVP
|  2> %pal
|  3> nprocs 24
|  4> end
|  5>
|  6> * xyz 0 1
|  7> S 	 -34.9312 	 -36.2907 	 -82.7486
|  8> C 	 -34.707 	 -34.5063 	 -82.4697
|  9> C 	 -33.558 	 -34.0225 	 -83.0729
| 10> C 	 -32.8839 	 -35.0352 	 -83.7681
| 11> C 	 -33.5359 	 -36.2384 	 -83.8572
| 12> H 	 -31.9604 	 -34.9191 	 -84.3697
| 13> C 	 -33.0158 	 -32.6916 	 -82.8785
| 14> H 	 -33.6257 	 -31.9557 	 -83.4055
| 15> H 	 -31.9697 	 -32.5962 	 -83.1679
| 16> C 	 -32.9664 	 -32.2308 	 -81.4181
| 17> H 	 -33.9777 	 -32.225 	 -80.955
| 18> H 	 -32.4098 	 -32.949 	 -80.7817
| 19> C 	 -32.3712 	 -30.9043 	 -81.1665
| 20> H 	 -32.4187 	 -30.5871 	 -80.1225
| 21> H 	 -31.3016 	 -30.9281 	 -81.4715
| 22> H 	 -32.7836 	 -30.0527 	 -81.6798
| 23> S 	 -32.3902 	 -38.7551 	 -83.8122
| 24> C 	 -32.0942 	 -39.6619 	 -85.2514
| 25> C 	 -32.3789 	 -38.8432 	 -86.3574
| 26> C 	 -32.9552 	 -37.6088 	 -85.9898
| 27> C 	 -33.1123 	 -37.399 	 -84.6328
| 28> H 	 -32.1456 	 -39.2772 	 -87.3198
| 29> C 	 -33.1831 	 -36.5319 	 -87.0653
| 30> H 	 -32.4349 	 -35.7924 	 -86.9121
| 31> H 	 -34.1655 	 -36.0919 	 -86.882
| 32> C 	 -33.1582 	 -36.9603 	 -88.5406
| 33> H 	 -33.8788 	 -37.7673 	 -88.6657
| 34> H 	 -32.2214 	 -37.3745 	 -88.8316
| 35> C 	 -33.4209 	 -35.8608 	 -89.4937
| 36> H 	 -34.203 	 -35.2129 	 -89.1629
| 37> H 	 -33.6974 	 -36.1714 	 -90.4913
| 38> H 	 -32.573 	 -35.1924 	 -89.55
| 39> H 	 -35.3648 	 -33.9319 	 -81.7528
| 40> H 	 -31.4523 	 -40.5032 	 -85.1409
| 41> *
| 42>
| 43>                          ****END OF INPUT****

CARTESIAN COORDINATES (ANGSTROEM)
---------------------------------
  S    -34.931200  -36.290700  -82.748600
  C    -34.707000  -34.506300  -82.469700
  C    -33.558000  -34.022500  -83.072900
  C    -32.883900  -35.035200  -83.768100
  C    -33.535900  -36.238400  -83.857200
  H    -31.960400  -34.919100  -84.369700
  C    -33.015800  -32.691600  -82.878500
  H    -33.625700  -31.955700  -83.405500
  H    -31.969700  -32.596200  -83.167900
  C    -32.966400  -32.230800  -81.418100
  H    -33.977700  -32.225000  -80.955000
  H    -32.409800  -32.949000  -80.781700
  C    -32.371200  -30.904300  -81.166500
  H    -32.418700  -30.587100  -80.122500
  H    -31.301600  -30.928100  -81.471500
  H    -32.783600  -30.052700  -81.679800
  S    -32.390200  -38.755100  -83.812200
  C    -32.094200  -39.661900  -85.251400
  C    -32.378900  -38.843200  -86.357400
  C    -32.955200  -37.608800  -85.989800
  C    -33.112300  -37.399000  -84.632800
  H    -32.145600  -39.277200  -87.319800
  C    -33.183100  -36.531900  -87.065300
  H    -32.434900  -35.792400  -86.912100
  H    -34.165500  -36.091900  -86.882000
  C    -33.158200  -36.960300  -88.540600
  H    -33.878800  -37.767300  -88.665700
  H    -32.221400  -37.374500  -88.831600
  C    -33.420900  -35.860800  -89.493700
  H    -34.203000  -35.212900  -89.162900
  H    -33.697400  -36.171400  -90.491300
  H    -32.573000  -35.192400  -89.550000
  H    -35.364800  -33.931900  -81.752800
  H    -31.452300  -40.503200  -85.140900

 Total Charge           Charge          ....    0
 Multiplicity           Mult            ....    1
 Number of Electrons    NEL             ....  134
 Basis Dimension        Dim             ....  322

ORBITAL ENERGIES
----------------

  NO   OCC          E(Eh)            E(eV)
   0   2.0000     -88.967393     -2420.9258
   1   2.0000     -88.959822     -2420.7198
   2   2.0000     -10.330555      -281.1087
   3   2.0000     -10.323721      -280.9227
   4   2.0000     -10.322897      -280.9003
   5   2.0000     -10.315427      -280.6970
   6   2.0000     -10.303632      -280.3761
   7   2.0000     -10.299075      -280.2521
   8   2.0000     -10.294932      -280.1393
   9   2.0000     -10.294491      -280.1273
  10   2.0000     -10.290692      -280.0240
  11   2.0000     -10.287421      -279.9350
  12   2.0000     -10.286661      -279.9143
  13   2.0000     -10.278452      -279.6909
  14   2.0000     -10.276304      -279.6324
  15   2.0000     -10.269252      -279.4406
  16   2.0000      -8.080581      -219.8838
  17   2.0000      -8.075482      -219.7450
  18   2.0000      -6.039122      -164.3329
  19   2.0000      -6.035457      -164.2331
  20   2.0000      -6.033741      -164.1864
  21   2.0000      -6.031234      -164.1182
  22   2.0000      -6.029667      -164.0756
  23   2.0000      -6.026633      -163.9930
  24   2.0000      -1.006183       -27.3796
  25   2.0000      -0.984584       -26.7919
  26   2.0000      -0.921302       -25.0699
  27   2.0000      -0.913291       -24.8519
  28   2.0000      -0.871468       -23.7138
  29   2.0000      -0.855543       -23.2805
  30   2.0000      -0.848351       -23.0848
  31   2.0000      -0.814840       -22.1729
  32   2.0000      -0.783854       -21.3297
  33   2.0000      -0.772557       -21.0224
  34   2.0000      -0.707292       -19.2464
  35   2.0000      -0.706293       -19.2192
  36   2.0000      -0.694321       -18.8934
  37   2.0000      -0.654125       -17.7997
  38   2.0000      -0.639128       -17.3915
  39   2.0000      -0.618482       -16.8298
  40   2.0000      -0.599977       -16.3262
  41   2.0000      -0.581946       -15.8356
  42   2.0000      -0.575821       -15.6689
  43   2.0000      -0.564757       -15.3678
  44   2.0000      -0.532029       -14.4773
  45   2.0000      -0.524796       -14.2804
  46   2.0000      -0.520374       -14.1601
  47   2.0000      -0.513641       -13.9769
  48   2.0000      -0.512890       -13.9564
  49   2.0000      -0.495188       -13.4747
  50   2.0000      -0.491012       -13.3611
  51   2.0000      -0.481092       -13.0912
  52   2.0000      -0.474316       -12.9068
  53   2.0000      -0.465554       -12.6684
  54   2.0000      -0.457872       -12.4593
  55   2.0000      -0.452381       -12.3099
  56   2.0000      -0.443098       -12.0573
  57   2.0000      -0.434083       -11.8120
  58   2.0000      -0.426840       -11.6149
  59   2.0000      -0.424700       -11.5567
  60   2.0000      -0.421225       -11.4621
  61   2.0000      -0.415698       -11.3117
  62   2.0000      -0.412008       -11.2113
  63   2.0000      -0.337660        -9.1882
  64   2.0000      -0.330967        -9.0061
  65   2.0000      -0.326548        -8.8858
  66   2.0000      -0.300586        -8.1793
  67   0.0000       0.031674         0.8619
  68   0.0000       0.054795         1.4910
  69   0.0000       0.105599         2.8735
  70   0.0000       0.124595         3.3904
  71   0.0000       0.136278         3.7083

MULLIKEN ATOMIC CHARGES
-----------------------
   0 S :    0.105971
   1 C :   -0.156222
   2 C :   -0.040362
   3 C :    0.028962
   4 C :   -0.177830
   5 H :    0.025290
   6 C :    0.101921
   7 H :    0.037465
   8 H :    0.018137
   9 C :   -0.118593
  10 H :    0.021748
  11 H :    0.034859
  12 C :   -0.040404
  13 H :    0.034664
  14 H :    0.025655
  15 H :    0.019054
  16 S :    0.096806
  17 C :   -0.092024
  18 C :   -0.060696
  19 C :   -0.025701
  20 C :   -0.159093
  21 H :    0.026700
  22 C :    0.075754
  23 H :    0.024116
  24 H :    0.034182
  25 C :   -0.076760
  26 H :    0.025763
  27 H :    0.017899
  28 C :    0.000648
  29 H :    0.009914
  30 H :    0.030126
  31 H :    0.018799
  32 H :    0.072128
  33 H :    0.061124
Sum of atomic charges:   -0.0000000

LOEWDIN ATOMIC CHARGES
----------------------
   0 S :    0.369153
   1 C :   -0.176827
   2 C :   -0.069123
   3 C :   -0.057342
   4 C :   -0.185138
   5 H :    0.038547
   6 C :   -0.031366
   7 H :    0.038721
   8 H :    0.032148
   9 C :   -0.047671
  10 H :    0.020310
  11 H :    0.029434
  12 C :   -0.070750
  13 H :    0.030892
  14 H :    0.026375
  15 H :    0.020080
  16 S :    0.425660
  17 C :   -0.187796
  18 C :   -0.076675
  19 C :   -0.054807
  20 C :   -0.215004
  21 H :    0.033145
  22 C :   -0.023918
  23 H :    0.025365
  24 H :    0.035244
  25 C :   -0.043756
  26 H :    0.023860
  27 H :    0.017851
  28 C :   -0.058929
  29 H :    0.020421
  30 H :    0.027570
  31 H :    0.024059
  32 H :    0.036973
  33 H :    0.023298

  Mayer bond orders larger than 0.100000
B(  0-S ,  1-C ) :   1.1285 B(  0-S ,  4-C ) :   1.1362 B(  1-C ,  2-C ) :   1.6010
B(  1-C ,  4-C ) :   0.1045 B(  1-C , 32-H ) :   0.9606 B(  2-C ,  3-C ) :   1.2409
B(  2-C ,  6-C ) :   1.0375 B(  3-C ,  4-C ) :   1.6001 B(  3-C ,  5-H ) :   0.9854
B(  4-C , 20-C ) :   1.0244 B(  6-C ,  7-H ) :   0.9161 B(  6-C ,  8-H ) :   0.9459
B(  6-C ,  9-C ) :   1.0654 B(  9-C , 10-H ) :   0.9461 B(  9-C , 11-H ) :   0.9544
B(  9-C , 12-C ) :   1.1033 B( 12-C , 13-H ) :   0.9697 B( 12-C , 14-H ) :   0.9693
B( 12-C , 15-H ) :   0.9699 B( 16-S , 17-C ) :   1.1999 B( 16-S , 20-C ) :   1.1656
B( 17-C , 18-C ) :   1.5313 B( 17-C , 20-C ) :   0.1120 B( 17-C , 33-H ) :   0.9697
B( 18-C , 19-C ) :   1.2837 B( 18-C , 21-H ) :   0.9960 B( 19-C , 20-C ) :   1.5730
B( 19-C , 22-C ) :   1.0210 B( 22-C , 23-H ) :   0.9347 B( 22-C , 24-H ) :   0.9283
B( 22-C , 25-C ) :   1.0912 B( 25-C , 26-H ) :   0.9537 B( 25-C , 27-H ) :   0.9420
B( 25-C , 28-C ) :   1.0950 B( 28-C , 29-H ) :   0.9691 B( 28-C , 30-H ) :   0.9698
B( 28-C , 31-H ) :   0.9706

Dispersion correction           -0.013370242
FINAL SINGLE POINT ENERGY     -1339.877434003982

DIPOLE MOMENT
-------------
                                X             Y             Z
Electronic contribution:     -4.80902     -22.94157      11.03071
Nuclear contribution   :      5.20039      23.50825     -11.34590
                        -----------------------------------------
Total Dipole Moment    :      0.39137       0.56669      -0.31520
                        -----------------------------------------
Magnitude (a.u.)       :      0.75740
Magnitude (Debye)      :      1.92515

Rotational constants in cm-1:     0.019051     0.007295     0.006007
Rotational constants in MHz :   571.133725   218.704245   180.099699

                             ****ORCA TERMINATED NORMALLY****
TOTAL RUN TIME: 0 days 0 hours 0 minutes 20 seconds 840 msec
