                         Program Version 4.2.1 -  RELEASE  -
|  1> ! wB97X-D3 SP def2-SVP
|  2> %pal
|  3> nprocs 24
|  4> end
|  5>
|  6> * xyz 0 1
|  7> S 	 -139.205 	 66.8323 	 -64.9724
|  8> C 	 -138.964 	 68.2775 	 -66.0398
|  9> C 	 -139.082 	 69.4562 	 -65.2863
| 10> C 	 -139.463 	 69.254 	 -63.94
| 11> C 	 -139.686 	 67.9128 	 -63.6375
| 12> H 	 -139.667 	 70.0001 	 -63.2512
| 13> C 	 -138.801 	 70.8627 	 -65.7956
| 14> H 	 -137.862 	 70.8193 	 -66.4098
| 15> H 	 -138.591 	 71.5494 	 -64.9603
| 16> C 	 -139.935 	 71.3611 	 -66.7881
| 17> H 	 -140.989 	 71.346 	 -66.3915
| 18> H 	 -139.731 	 72.4759 	 -66.7961
| 19> C 	 -139.787 	 70.7818 	 -68.2163
| 20> H 	 -140.095 	 69.7125 	 -68.3628
| 21> H 	 -140.336 	 71.4472 	 -68.867
| 22> H 	 -138.801 	 70.738 	 -68.6056
| 23> S 	 -141.94 	 67.3285 	 -62.2704
| 24> C 	 -141.825 	 66.827 	 -60.6176
| 25> C 	 -140.563 	 66.9491 	 -60.1459
| 26> C 	 -139.631 	 67.2602 	 -61.1619
| 27> C 	 -140.214 	 67.3848 	 -62.4172
| 28> H 	 -140.475 	 66.8486 	 -59.0942
| 29> C 	 -138.219 	 67.5508 	 -60.7345
| 30> H 	 -137.992 	 67.4597 	 -59.6799
| 31> H 	 -137.92 	 68.5698 	 -60.8263
| 32> C 	 -137.196 	 66.7571 	 -61.4958
| 33> H 	 -136.228 	 67.1455 	 -61.0798
| 34> H 	 -137 	 66.9492 	 -62.5287
| 35> C 	 -137.269 	 65.3073 	 -61.1941
| 36> H 	 -138.178 	 64.8012 	 -61.7323
| 37> H 	 -137.173 	 65.1075 	 -60.1555
| 38> H 	 -136.366 	 64.921 	 -61.7339
| 39> H 	 -138.698 	 68.1211 	 -67.0674
| 40> H 	 -142.529 	 66.48 	 -59.8788
| 41> *
| 42>
| 43>                          ****END OF INPUT****

CARTESIAN COORDINATES (ANGSTROEM)
---------------------------------
  S    -139.205000   66.832300  -64.972400
  C    -138.964000   68.277500  -66.039800
  C    -139.082000   69.456200  -65.286300
  C    -139.463000   69.254000  -63.940000
  C    -139.686000   67.912800  -63.637500
  H    -139.667000   70.000100  -63.251200
  C    -138.801000   70.862700  -65.795600
  H    -137.862000   70.819300  -66.409800
  H    -138.591000   71.549400  -64.960300
  C    -139.935000   71.361100  -66.788100
  H    -140.989000   71.346000  -66.391500
  H    -139.731000   72.475900  -66.796100
  C    -139.787000   70.781800  -68.216300
  H    -140.095000   69.712500  -68.362800
  H    -140.336000   71.447200  -68.867000
  H    -138.801000   70.738000  -68.605600
  S    -141.940000   67.328500  -62.270400
  C    -141.825000   66.827000  -60.617600
  C    -140.563000   66.949100  -60.145900
  C    -139.631000   67.260200  -61.161900
  C    -140.214000   67.384800  -62.417200
  H    -140.475000   66.848600  -59.094200
  C    -138.219000   67.550800  -60.734500
  H    -137.992000   67.459700  -59.679900
  H    -137.920000   68.569800  -60.826300
  C    -137.196000   66.757100  -61.495800
  H    -136.228000   67.145500  -61.079800
  H    -137.000000   66.949200  -62.528700
  C    -137.269000   65.307300  -61.194100
  H    -138.178000   64.801200  -61.732300
  H    -137.173000   65.107500  -60.155500
  H    -136.366000   64.921000  -61.733900
  H    -138.698000   68.121100  -67.067400
  H    -142.529000   66.480000  -59.878800

 Total Charge           Charge          ....    0
 Multiplicity           Mult            ....    1
 Number of Electrons    NEL             ....  134
 Basis Dimension        Dim             ....  322

ORBITAL ENERGIES
----------------

  NO   OCC          E(Eh)            E(eV)
   0   2.0000     -88.964838     -2420.8563
   1   2.0000     -88.964700     -2420.8526
   2   2.0000     -10.328488      -281.0525
   3   2.0000     -10.319153      -280.7984
   4   2.0000     -10.318723      -280.7867
   5   2.0000     -10.307572      -280.4833
   6   2.0000     -10.303503      -280.3726
   7   2.0000     -10.301245      -280.3111
   8   2.0000     -10.300364      -280.2872
   9   2.0000     -10.299642      -280.2675
  10   2.0000     -10.290318      -280.0138
  11   2.0000     -10.281189      -279.7654
  12   2.0000     -10.280353      -279.7426
  13   2.0000     -10.280312      -279.7415
  14   2.0000     -10.272489      -279.5286
  15   2.0000     -10.271802      -279.5099
  16   2.0000      -8.080006      -219.8681
  17   2.0000      -8.077904      -219.8110
  18   2.0000      -6.038563      -164.3177
  19   2.0000      -6.036419      -164.2593
  20   2.0000      -6.034489      -164.2068
  21   2.0000      -6.032671      -164.1573
  22   2.0000      -6.030641      -164.1021
  23   2.0000      -6.028712      -164.0496
  24   2.0000      -1.008160       -27.4334
  25   2.0000      -0.978146       -26.6167
  26   2.0000      -0.915678       -24.9169
  27   2.0000      -0.903299       -24.5800
  28   2.0000      -0.868798       -23.6412
  29   2.0000      -0.847114       -23.0511
  30   2.0000      -0.846233       -23.0272
  31   2.0000      -0.812275       -22.1031
  32   2.0000      -0.783816       -21.3287
  33   2.0000      -0.771739       -21.0001
  34   2.0000      -0.710920       -19.3451
  35   2.0000      -0.698985       -19.0203
  36   2.0000      -0.682314       -18.5667
  37   2.0000      -0.655285       -17.8312
  38   2.0000      -0.647376       -17.6160
  39   2.0000      -0.619722       -16.8635
  40   2.0000      -0.600196       -16.3322
  41   2.0000      -0.569319       -15.4920
  42   2.0000      -0.555421       -15.1138
  43   2.0000      -0.546275       -14.8649
  44   2.0000      -0.534710       -14.5502
  45   2.0000      -0.531365       -14.4592
  46   2.0000      -0.521960       -14.2032
  47   2.0000      -0.512384       -13.9427
  48   2.0000      -0.503697       -13.7063
  49   2.0000      -0.492990       -13.4149
  50   2.0000      -0.488715       -13.2986
  51   2.0000      -0.479644       -13.0518
  52   2.0000      -0.469567       -12.7776
  53   2.0000      -0.467497       -12.7212
  54   2.0000      -0.459699       -12.5090
  55   2.0000      -0.442934       -12.0528
  56   2.0000      -0.438536       -11.9332
  57   2.0000      -0.436768       -11.8851
  58   2.0000      -0.428308       -11.6549
  59   2.0000      -0.423176       -11.5152
  60   2.0000      -0.420437       -11.4407
  61   2.0000      -0.405894       -11.0449
  62   2.0000      -0.395435       -10.7603
  63   2.0000      -0.336437        -9.1549
  64   2.0000      -0.327487        -8.9114
  65   2.0000      -0.313112        -8.5202
  66   2.0000      -0.307490        -8.3672
  67   0.0000       0.036932         1.0050
  68   0.0000       0.051708         1.4070
  69   0.0000       0.100942         2.7468
  70   0.0000       0.115645         3.1469
  71   0.0000       0.134262         3.6535

MULLIKEN ATOMIC CHARGES
-----------------------
   0 S :    0.097729
   1 C :   -0.140167
   2 C :   -0.045934
   3 C :    0.079656
   4 C :   -0.189009
   5 H :   -0.012660
   6 C :    0.027302
   7 H :    0.038618
   8 H :    0.032700
   9 C :   -0.095505
  10 H :    0.049590
  11 H :    0.034213
  12 C :   -0.043720
  13 H :    0.045096
  14 H :    0.036563
  15 H :    0.014921
  16 S :    0.129065
  17 C :   -0.072212
  18 C :   -0.057659
  19 C :    0.024259
  20 C :   -0.173665
  21 H :    0.004608
  22 C :    0.118068
  23 H :    0.004648
  24 H :    0.012001
  25 C :   -0.106488
  26 H :    0.006481
  27 H :    0.029613
  28 C :   -0.049241
  29 H :    0.056546
  30 H :    0.024304
  31 H :    0.029840
  32 H :    0.048171
  33 H :    0.042271
Sum of atomic charges:   -0.0000000

LOEWDIN ATOMIC CHARGES
----------------------
   0 S :    0.371383
   1 C :   -0.180291
   2 C :   -0.058627
   3 C :   -0.047752
   4 C :   -0.182301
   5 H :    0.022758
   6 C :   -0.035293
   7 H :    0.036601
   8 H :    0.030114
   9 C :   -0.043567
  10 H :    0.032497
  11 H :    0.028751
  12 C :   -0.070944
  13 H :    0.031744
  14 H :    0.029057
  15 H :    0.018512
  16 S :    0.431324
  17 C :   -0.191180
  18 C :   -0.074657
  19 C :   -0.044413
  20 C :   -0.220302
  21 H :    0.027872
  22 C :   -0.033850
  23 H :    0.030642
  24 H :    0.029203
  25 C :   -0.051641
  26 H :    0.024763
  27 H :    0.019559
  28 C :   -0.069607
  29 H :    0.037530
  30 H :    0.016893
  31 H :    0.031366
  32 H :    0.020700
  33 H :    0.033154

  Mayer bond orders larger than 0.100000
B(  0-S ,  1-C ) :   1.1274 B(  0-S ,  4-C ) :   1.1471 B(  1-C ,  2-C ) :   1.5919
B(  1-C ,  4-C ) :   0.1104 B(  1-C , 32-H ) :   0.9740 B(  2-C ,  3-C ) :   1.2398
B(  2-C ,  6-C ) :   1.0174 B(  3-C ,  4-C ) :   1.5807 B(  3-C ,  5-H ) :   1.0083
B(  4-C , 20-C ) :   1.0297 B(  6-C ,  7-H ) :   0.9446 B(  6-C ,  8-H ) :   0.9501
B(  6-C ,  9-C ) :   1.0521 B(  9-C , 10-H ) :   0.9590 B(  9-C , 11-H ) :   0.9584
B(  9-C , 12-C ) :   1.0685 B( 12-C , 13-H ) :   0.9705 B( 12-C , 14-H ) :   0.9732
B( 12-C , 15-H ) :   0.9746 B( 16-S , 17-C ) :   1.1578 B( 16-S , 20-C ) :   1.1469
B( 17-C , 18-C ) :   1.6333 B( 17-C , 33-H ) :   0.9608 B( 18-C , 19-C ) :   1.2382
B( 18-C , 21-H ) :   0.9986 B( 19-C , 20-C ) :   1.5746 B( 19-C , 22-C ) :   1.0379
B( 22-C , 23-H ) :   0.9370 B( 22-C , 24-H ) :   0.9212 B( 22-C , 25-C ) :   1.0826
B( 25-C , 26-H ) :   0.9466 B( 25-C , 27-H ) :   0.9551 B( 25-C , 28-C ) :   1.0843
B( 28-C , 29-H ) :   0.9677 B( 28-C , 30-H ) :   0.9736 B( 28-C , 31-H ) :   0.9718

Dispersion correction           -0.015270885
FINAL SINGLE POINT ENERGY     -1339.849526789170

DIPOLE MOMENT
-------------
                                X             Y             Z
Electronic contribution:    -13.22245      -9.33620       4.72805
Nuclear contribution   :     13.54106       9.96626      -4.55264
                        -----------------------------------------
Total Dipole Moment    :      0.31861       0.63006       0.17541
                        -----------------------------------------
Magnitude (a.u.)       :      0.72750
Magnitude (Debye)      :      1.84915

Rotational constants in cm-1:     0.023184     0.008054     0.007083
Rotational constants in MHz :   695.029289   241.438405   212.350290

                             ****ORCA TERMINATED NORMALLY****
TOTAL RUN TIME: 0 days 0 hours 0 minutes 22 seconds 107 msec
