                         Program Version 4.2.1 -  RELEASE  -
|  1> ! wB97X-D3 SP def2-SVP
|  2> %pal
|  3> nprocs 24
|  4> end
|  5>
|  6> * xyz 0 1
|  7> S 	 -67.7422 	 16.8802 	 -105.128
|  8> C 	 -69.2596 	 16.0697 	 -105.224
|  9> C 	 -69.1068 	 14.7198 	 -104.896
| 10> C 	 -67.7378 	 14.4458 	 -104.513
| 11> C 	 -66.9269 	 15.6063 	 -104.325
| 12> H 	 -67.546 	 13.4616 	 -104.092
| 13> C 	 -70.3264 	 13.8581 	 -104.658
| 14> H 	 -70.9264 	 14.3512 	 -104.003
| 15> H 	 -70.0484 	 12.8964 	 -104.221
| 16> C 	 -70.9985 	 13.4438 	 -105.941
| 17> H 	 -71.5325 	 14.2916 	 -106.439
| 18> H 	 -70.2873 	 13.1267 	 -106.693
| 19> C 	 -72.1673 	 12.5164 	 -105.705
| 20> H 	 -71.7442 	 11.6222 	 -105.385
| 21> H 	 -72.9374 	 12.8711 	 -104.948
| 22> H 	 -72.5582 	 12.395 	 -106.74
| 23> S 	 -65.1424 	 14.9722 	 -102.326
| 24> C 	 -63.4517 	 15.4674 	 -102.365
| 25> C 	 -63.2271 	 16.1771 	 -103.548
| 26> C 	 -64.3899 	 16.3154 	 -104.379
| 27> C 	 -65.506 	 15.6708 	 -103.871
| 28> H 	 -62.1711 	 16.4485 	 -103.747
| 29> C 	 -64.2592 	 16.9815 	 -105.66
| 30> H 	 -63.5957 	 17.8127 	 -105.607
| 31> H 	 -65.2049 	 17.4523 	 -105.986
| 32> C 	 -63.7664 	 16.1622 	 -106.875
| 33> H 	 -62.7549 	 15.7787 	 -106.743
| 34> H 	 -63.607 	 16.7454 	 -107.715
| 35> C 	 -64.7061 	 14.9594 	 -107.053
| 36> H 	 -64.3826 	 14.2822 	 -107.879
| 37> H 	 -65.7222 	 15.3645 	 -107.231
| 38> H 	 -64.8213 	 14.2707 	 -106.208
| 39> H 	 -70.1873 	 16.5021 	 -105.481
| 40> H 	 -62.6796 	 15.1402 	 -101.708
| 41> *
| 42>
| 43>                          ****END OF INPUT****

CARTESIAN COORDINATES (ANGSTROEM)
---------------------------------
  S    -67.742200   16.880200  -105.128000
  C    -69.259600   16.069700  -105.224000
  C    -69.106800   14.719800  -104.896000
  C    -67.737800   14.445800  -104.513000
  C    -66.926900   15.606300  -104.325000
  H    -67.546000   13.461600  -104.092000
  C    -70.326400   13.858100  -104.658000
  H    -70.926400   14.351200  -104.003000
  H    -70.048400   12.896400  -104.221000
  C    -70.998500   13.443800  -105.941000
  H    -71.532500   14.291600  -106.439000
  H    -70.287300   13.126700  -106.693000
  C    -72.167300   12.516400  -105.705000
  H    -71.744200   11.622200  -105.385000
  H    -72.937400   12.871100  -104.948000
  H    -72.558200   12.395000  -106.740000
  S    -65.142400   14.972200  -102.326000
  C    -63.451700   15.467400  -102.365000
  C    -63.227100   16.177100  -103.548000
  C    -64.389900   16.315400  -104.379000
  C    -65.506000   15.670800  -103.871000
  H    -62.171100   16.448500  -103.747000
  C    -64.259200   16.981500  -105.660000
  H    -63.595700   17.812700  -105.607000
  H    -65.204900   17.452300  -105.986000
  C    -63.766400   16.162200  -106.875000
  H    -62.754900   15.778700  -106.743000
  H    -63.607000   16.745400  -107.715000
  C    -64.706100   14.959400  -107.053000
  H    -64.382600   14.282200  -107.879000
  H    -65.722200   15.364500  -107.231000
  H    -64.821300   14.270700  -106.208000
  H    -70.187300   16.502100  -105.481000
  H    -62.679600   15.140200  -101.708000

 Total Charge           Charge          ....    0
 Multiplicity           Mult            ....    1
 Number of Electrons    NEL             ....  134
 Basis Dimension        Dim             ....  322

ORBITAL ENERGIES
----------------

  NO   OCC          E(Eh)            E(eV)
   0   2.0000     -88.968867     -2420.9659
   1   2.0000     -88.965780     -2420.8819
   2   2.0000     -10.338197      -281.3167
   3   2.0000     -10.332054      -281.1495
   4   2.0000     -10.318285      -280.7748
   5   2.0000     -10.310688      -280.5681
   6   2.0000     -10.301457      -280.3169
   7   2.0000     -10.301274      -280.3119
   8   2.0000     -10.301102      -280.3072
   9   2.0000     -10.298427      -280.2344
  10   2.0000     -10.284667      -279.8600
  11   2.0000     -10.282941      -279.8131
  12   2.0000     -10.281917      -279.7852
  13   2.0000     -10.278758      -279.6992
  14   2.0000     -10.277889      -279.6756
  15   2.0000     -10.270798      -279.4826
  16   2.0000      -8.083918      -219.9746
  17   2.0000      -8.080383      -219.8784
  18   2.0000      -6.042391      -164.4218
  19   2.0000      -6.038936      -164.3278
  20   2.0000      -6.038133      -164.3059
  21   2.0000      -6.034933      -164.2189
  22   2.0000      -6.034767      -164.2144
  23   2.0000      -6.031241      -164.1184
  24   2.0000      -1.008382       -27.4395
  25   2.0000      -0.987821       -26.8800
  26   2.0000      -0.922198       -25.0943
  27   2.0000      -0.911421       -24.8010
  28   2.0000      -0.869379       -23.6570
  29   2.0000      -0.850786       -23.1511
  30   2.0000      -0.842474       -22.9249
  31   2.0000      -0.814301       -22.1582
  32   2.0000      -0.783217       -21.3124
  33   2.0000      -0.771182       -20.9849
  34   2.0000      -0.708079       -19.2678
  35   2.0000      -0.697225       -18.9725
  36   2.0000      -0.695829       -18.9345
  37   2.0000      -0.664583       -18.0842
  38   2.0000      -0.639081       -17.3903
  39   2.0000      -0.620276       -16.8786
  40   2.0000      -0.596287       -16.2258
  41   2.0000      -0.580383       -15.7930
  42   2.0000      -0.572467       -15.5776
  43   2.0000      -0.552859       -15.0441
  44   2.0000      -0.539046       -14.6682
  45   2.0000      -0.531490       -14.4626
  46   2.0000      -0.519307       -14.1311
  47   2.0000      -0.510630       -13.8950
  48   2.0000      -0.505299       -13.7499
  49   2.0000      -0.502878       -13.6840
  50   2.0000      -0.498909       -13.5760
  51   2.0000      -0.473866       -12.8946
  52   2.0000      -0.469588       -12.7781
  53   2.0000      -0.464628       -12.6432
  54   2.0000      -0.454888       -12.3781
  55   2.0000      -0.451617       -12.2891
  56   2.0000      -0.449337       -12.2271
  57   2.0000      -0.436774       -11.8852
  58   2.0000      -0.425736       -11.5849
  59   2.0000      -0.422631       -11.5004
  60   2.0000      -0.416670       -11.3382
  61   2.0000      -0.406616       -11.0646
  62   2.0000      -0.402180       -10.9439
  63   2.0000      -0.348237        -9.4760
  64   2.0000      -0.327974        -8.9246
  65   2.0000      -0.327686        -8.9168
  66   2.0000      -0.292897        -7.9701
  67   0.0000       0.024765         0.6739
  68   0.0000       0.068452         1.8627
  69   0.0000       0.111353         3.0301
  70   0.0000       0.122618         3.3366
  71   0.0000       0.128803         3.5049

MULLIKEN ATOMIC CHARGES
-----------------------
   0 S :    0.116260
   1 C :   -0.095681
   2 C :   -0.114906
   3 C :    0.036747
   4 C :   -0.141329
   5 H :    0.015922
   6 C :    0.122430
   7 H :    0.014292
   8 H :    0.009497
   9 C :   -0.133544
  10 H :    0.018568
  11 H :    0.035955
  12 C :   -0.019891
  13 H :    0.011629
  14 H :    0.048096
  15 H :    0.039408
  16 S :    0.102949
  17 C :   -0.094250
  18 C :   -0.054947
  19 C :   -0.027808
  20 C :   -0.132881
  21 H :    0.035847
  22 C :    0.042116
  23 H :    0.010855
  24 H :    0.022388
  25 C :   -0.006820
  26 H :    0.008435
  27 H :    0.011806
  28 C :   -0.079887
  29 H :    0.031527
  30 H :    0.029382
  31 H :    0.047588
  32 H :    0.035329
  33 H :    0.054916
Sum of atomic charges:   -0.0000000

LOEWDIN ATOMIC CHARGES
----------------------
   0 S :    0.449351
   1 C :   -0.197679
   2 C :   -0.059256
   3 C :   -0.067988
   4 C :   -0.206945
   5 H :    0.026542
   6 C :   -0.022347
   7 H :    0.020708
   8 H :    0.030024
   9 C :   -0.046640
  10 H :    0.021003
  11 H :    0.026817
  12 C :   -0.062694
  13 H :    0.009595
  14 H :    0.035553
  15 H :    0.034621
  16 S :    0.415006
  17 C :   -0.184635
  18 C :   -0.066306
  19 C :   -0.066027
  20 C :   -0.199228
  21 H :    0.038756
  22 C :   -0.039204
  23 H :    0.027952
  24 H :    0.022848
  25 C :   -0.029527
  26 H :    0.019471
  27 H :    0.015914
  28 C :   -0.072124
  29 H :    0.025999
  30 H :    0.023818
  31 H :    0.028356
  32 H :    0.020825
  33 H :    0.027442

  Mayer bond orders larger than 0.100000
B(  0-S ,  1-C ) :   1.1642 B(  0-S ,  4-C ) :   1.1794 B(  1-C ,  2-C ) :   1.5551
B(  1-C ,  4-C ) :   0.1050 B(  1-C , 32-H ) :   0.9773 B(  2-C ,  3-C ) :   1.3018
B(  2-C ,  6-C ) :   1.0220 B(  3-C ,  4-C ) :   1.5102 B(  3-C ,  5-H ) :   0.9809
B(  4-C , 20-C ) :   1.0207 B(  6-C ,  7-H ) :   0.9414 B(  6-C ,  8-H ) :   0.9404
B(  6-C ,  9-C ) :   1.0600 B(  9-C , 10-H ) :   0.9569 B(  9-C , 11-H ) :   0.9578
B(  9-C , 12-C ) :   1.0755 B( 12-C , 13-H ) :   0.9740 B( 12-C , 14-H ) :   0.9713
B( 12-C , 15-H ) :   0.9739 B( 16-S , 17-C ) :   1.1544 B( 16-S , 20-C ) :   1.1525
B( 17-C , 18-C ) :   1.6048 B( 17-C , 33-H ) :   0.9705 B( 18-C , 19-C ) :   1.2369
B( 18-C , 21-H ) :   0.9860 B( 19-C , 20-C ) :   1.5701 B( 19-C , 22-C ) :   1.0743
B( 22-C , 23-H ) :   0.9186 B( 22-C , 24-H ) :   0.9321 B( 22-C , 25-C ) :   1.0788
B( 25-C , 26-H ) :   0.9495 B( 25-C , 27-H ) :   0.9538 B( 25-C , 28-C ) :   1.0689
B( 28-C , 29-H ) :   0.9730 B( 28-C , 30-H ) :   0.9755 B( 28-C , 31-H ) :   0.9735

Dispersion correction           -0.015106882
FINAL SINGLE POINT ENERGY     -1339.858158108702

DIPOLE MOMENT
-------------
                                X             Y             Z
Electronic contribution:      9.96269      10.28962      15.56785
Nuclear contribution   :    -10.02537     -10.49182     -15.77930
                        -----------------------------------------
Total Dipole Moment    :     -0.06268      -0.20220      -0.21144
                        -----------------------------------------
Magnitude (a.u.)       :      0.29920
Magnitude (Debye)      :      0.76051

Rotational constants in cm-1:     0.024567     0.007430     0.006624
Rotational constants in MHz :   736.495250   222.754846   198.573547

                             ****ORCA TERMINATED NORMALLY****
TOTAL RUN TIME: 0 days 0 hours 0 minutes 22 seconds 1 msec
