                         Program Version 4.2.1 -  RELEASE  -
|  1> ! wB97X-D3 SP def2-SVP
|  2> %pal
|  3> nprocs 24
|  4> end
|  5>
|  6> * xyz 0 1
|  7> S 	 -136.492 	 23.5624 	 -17.1887
|  8> C 	 -137.656 	 22.4265 	 -16.6276
|  9> C 	 -138.64 	 22.0326 	 -17.5649
| 10> C 	 -138.247 	 22.6691 	 -18.8231
| 11> C 	 -137.22 	 23.5842 	 -18.78
| 12> H 	 -138.831 	 22.4774 	 -19.7021
| 13> C 	 -139.772 	 20.9612 	 -17.4754
| 14> H 	 -140.774 	 21.3172 	 -17.1572
| 15> H 	 -139.322 	 20.3667 	 -16.6378
| 16> C 	 -140.004 	 20.0447 	 -18.6904
| 17> H 	 -140.786 	 19.31 	 -18.4303
| 18> H 	 -140.443 	 20.5745 	 -19.5711
| 19> C 	 -138.823 	 19.212 	 -19.0577
| 20> H 	 -138.702 	 18.4454 	 -18.2488
| 21> H 	 -139.092 	 18.7124 	 -19.9802
| 22> H 	 -137.86 	 19.6797 	 -19.2406
| 23> S 	 -135.095 	 24.1676 	 -20.2428
| 24> C 	 -135.195 	 25.2076 	 -21.6742
| 25> C 	 -136.534 	 25.5388 	 -21.8657
| 26> C 	 -137.39 	 24.9819 	 -20.9221
| 27> C 	 -136.746 	 24.3358 	 -19.922
| 28> H 	 -136.867 	 26.1468 	 -22.7371
| 29> C 	 -138.889 	 25.2865 	 -20.9923
| 30> H 	 -139.101 	 26.3197 	 -21.339
| 31> H 	 -139.357 	 25.1107 	 -20.0644
| 32> C 	 -139.665 	 24.3701 	 -21.9219
| 33> H 	 -139.605 	 23.4252 	 -21.3548
| 34> H 	 -139.214 	 24.3096 	 -22.9023
| 35> C 	 -141.173 	 24.7643 	 -21.903
| 36> H 	 -141.282 	 25.7274 	 -22.2895
| 37> H 	 -141.82 	 24.6401 	 -20.9576
| 38> H 	 -141.679 	 24.2698 	 -22.7548
| 39> H 	 -137.71 	 21.9617 	 -15.6674
| 40> H 	 -134.31 	 25.5099 	 -22.2428
| 41> *
| 42>
| 43>                          ****END OF INPUT****

CARTESIAN COORDINATES (ANGSTROEM)
---------------------------------
  S    -136.492000   23.562400  -17.188700
  C    -137.656000   22.426500  -16.627600
  C    -138.640000   22.032600  -17.564900
  C    -138.247000   22.669100  -18.823100
  C    -137.220000   23.584200  -18.780000
  H    -138.831000   22.477400  -19.702100
  C    -139.772000   20.961200  -17.475400
  H    -140.774000   21.317200  -17.157200
  H    -139.322000   20.366700  -16.637800
  C    -140.004000   20.044700  -18.690400
  H    -140.786000   19.310000  -18.430300
  H    -140.443000   20.574500  -19.571100
  C    -138.823000   19.212000  -19.057700
  H    -138.702000   18.445400  -18.248800
  H    -139.092000   18.712400  -19.980200
  H    -137.860000   19.679700  -19.240600
  S    -135.095000   24.167600  -20.242800
  C    -135.195000   25.207600  -21.674200
  C    -136.534000   25.538800  -21.865700
  C    -137.390000   24.981900  -20.922100
  C    -136.746000   24.335800  -19.922000
  H    -136.867000   26.146800  -22.737100
  C    -138.889000   25.286500  -20.992300
  H    -139.101000   26.319700  -21.339000
  H    -139.357000   25.110700  -20.064400
  C    -139.665000   24.370100  -21.921900
  H    -139.605000   23.425200  -21.354800
  H    -139.214000   24.309600  -22.902300
  C    -141.173000   24.764300  -21.903000
  H    -141.282000   25.727400  -22.289500
  H    -141.820000   24.640100  -20.957600
  H    -141.679000   24.269800  -22.754800
  H    -137.710000   21.961700  -15.667400
  H    -134.310000   25.509900  -22.242800

 Total Charge           Charge          ....    0
 Multiplicity           Mult            ....    1
 Number of Electrons    NEL             ....  134
 Basis Dimension        Dim             ....  322

ORBITAL ENERGIES
----------------

  NO   OCC          E(Eh)            E(eV)
   0   2.0000     -88.972865     -2421.0747
   1   2.0000     -88.962067     -2420.7809
   2   2.0000     -10.326691      -281.0035
   3   2.0000     -10.319590      -280.8103
   4   2.0000     -10.318679      -280.7855
   5   2.0000     -10.315607      -280.7019
   6   2.0000     -10.308992      -280.5219
   7   2.0000     -10.306577      -280.4562
   8   2.0000     -10.295198      -280.1466
   9   2.0000     -10.294082      -280.1162
  10   2.0000     -10.293457      -280.0992
  11   2.0000     -10.291539      -280.0470
  12   2.0000     -10.287292      -279.9314
  13   2.0000     -10.283879      -279.8386
  14   2.0000     -10.282227      -279.7936
  15   2.0000     -10.275195      -279.6023
  16   2.0000      -8.087553      -220.0735
  17   2.0000      -8.077939      -219.8119
  18   2.0000      -6.046176      -164.5248
  19   2.0000      -6.042047      -164.4124
  20   2.0000      -6.038215      -164.3082
  21   2.0000      -6.036327      -164.2568
  22   2.0000      -6.032172      -164.1438
  23   2.0000      -6.028863      -164.0537
  24   2.0000      -1.015261       -27.6266
  25   2.0000      -0.986705       -26.8496
  26   2.0000      -0.913894       -24.8683
  27   2.0000      -0.911444       -24.8017
  28   2.0000      -0.873140       -23.7594
  29   2.0000      -0.851383       -23.1673
  30   2.0000      -0.846200       -23.0263
  31   2.0000      -0.812123       -22.0990
  32   2.0000      -0.782518       -21.2934
  33   2.0000      -0.774815       -21.0838
  34   2.0000      -0.704566       -19.1722
  35   2.0000      -0.694849       -18.9078
  36   2.0000      -0.691875       -18.8269
  37   2.0000      -0.668589       -18.1932
  38   2.0000      -0.635012       -17.2795
  39   2.0000      -0.623540       -16.9674
  40   2.0000      -0.601692       -16.3729
  41   2.0000      -0.571138       -15.5415
  42   2.0000      -0.563003       -15.3201
  43   2.0000      -0.556800       -15.1513
  44   2.0000      -0.542998       -14.7757
  45   2.0000      -0.521899       -14.2016
  46   2.0000      -0.518867       -14.1191
  47   2.0000      -0.514001       -13.9867
  48   2.0000      -0.502100       -13.6628
  49   2.0000      -0.496661       -13.5148
  50   2.0000      -0.483493       -13.1565
  51   2.0000      -0.481715       -13.1081
  52   2.0000      -0.473946       -12.8967
  53   2.0000      -0.468036       -12.7359
  54   2.0000      -0.453855       -12.3500
  55   2.0000      -0.445823       -12.1315
  56   2.0000      -0.445396       -12.1198
  57   2.0000      -0.437817       -11.9136
  58   2.0000      -0.436181       -11.8691
  59   2.0000      -0.427102       -11.6220
  60   2.0000      -0.416273       -11.3274
  61   2.0000      -0.415414       -11.3040
  62   2.0000      -0.410533       -11.1712
  63   2.0000      -0.349509        -9.5106
  64   2.0000      -0.330781        -9.0010
  65   2.0000      -0.329564        -8.9679
  66   2.0000      -0.292828        -7.9682
  67   0.0000       0.031602         0.8599
  68   0.0000       0.074425         2.0252
  69   0.0000       0.113190         3.0801
  70   0.0000       0.120704         3.2845
  71   0.0000       0.129143         3.5142

MULLIKEN ATOMIC CHARGES
-----------------------
   0 S :    0.140150
   1 C :   -0.104604
   2 C :   -0.117393
   3 C :    0.022888
   4 C :   -0.133596
   5 H :   -0.011803
   6 C :    0.063583
   7 H :    0.052771
   8 H :    0.024760
   9 C :   -0.107473
  10 H :    0.034513
  11 H :    0.039878
  12 C :   -0.054727
  13 H :    0.033165
  14 H :    0.028647
  15 H :    0.049462
  16 S :    0.097784
  17 C :   -0.112121
  18 C :   -0.040653
  19 C :   -0.013336
  20 C :   -0.139243
  21 H :    0.031337
  22 C :    0.061606
  23 H :    0.022919
  24 H :    0.009415
  25 C :   -0.079717
  26 H :    0.023560
  27 H :    0.033320
  28 C :   -0.047021
  29 H :    0.006174
  30 H :    0.060595
  31 H :    0.024499
  32 H :    0.033583
  33 H :    0.067082
Sum of atomic charges:    0.0000000

LOEWDIN ATOMIC CHARGES
----------------------
   0 S :    0.425526
   1 C :   -0.205155
   2 C :   -0.061891
   3 C :   -0.058352
   4 C :   -0.206034
   5 H :    0.019502
   6 C :   -0.035965
   7 H :    0.036672
   8 H :    0.036840
   9 C :   -0.052541
  10 H :    0.034215
  11 H :    0.025426
  12 C :   -0.068502
  13 H :    0.030203
  14 H :    0.027339
  15 H :    0.026044
  16 S :    0.423601
  17 C :   -0.184799
  18 C :   -0.070158
  19 C :   -0.066917
  20 C :   -0.209668
  21 H :    0.038673
  22 C :   -0.026171
  23 H :    0.027586
  24 H :    0.022272
  25 C :   -0.035690
  26 H :    0.022539
  27 H :    0.022398
  28 C :   -0.077771
  29 H :    0.013856
  30 H :    0.040840
  31 H :    0.031012
  32 H :    0.022572
  33 H :    0.032498

  Mayer bond orders larger than 0.100000
B(  0-S ,  1-C ) :   1.1575 B(  0-S ,  4-C ) :   1.1308 B(  1-C ,  2-C ) :   1.6182
B(  1-C , 32-H ) :   0.9587 B(  2-C ,  3-C ) :   1.2575 B(  2-C ,  6-C ) :   0.9928
B(  3-C ,  4-C ) :   1.5710 B(  3-C ,  5-H ) :   0.9888 B(  4-C , 20-C ) :   1.0296
B(  6-C ,  7-H ) :   0.9391 B(  6-C ,  8-H ) :   0.9420 B(  6-C ,  9-C ) :   1.0860
B(  9-C , 10-H ) :   0.9494 B(  9-C , 11-H ) :   0.9499 B(  9-C , 12-C ) :   1.0796
B( 12-C , 13-H ) :   0.9742 B( 12-C , 14-H ) :   0.9707 B( 12-C , 15-H ) :   0.9763
B( 16-S , 17-C ) :   1.1595 B( 16-S , 20-C ) :   1.1661 B( 17-C , 18-C ) :   1.5649
B( 17-C , 20-C ) :   0.1077 B( 17-C , 33-H ) :   0.9730 B( 18-C , 19-C ) :   1.2686
B( 18-C , 21-H ) :   0.9853 B( 19-C , 20-C ) :   1.5927 B( 19-C , 22-C ) :   1.0422
B( 22-C , 23-H ) :   0.9458 B( 22-C , 24-H ) :   0.9350 B( 22-C , 25-C ) :   1.0562
B( 25-C , 26-H ) :   0.9527 B( 25-C , 27-H ) :   0.9555 B( 25-C , 28-C ) :   1.0832
B( 28-C , 29-H ) :   0.9683 B( 28-C , 30-H ) :   0.9730 B( 28-C , 31-H ) :   0.9689

Dispersion correction           -0.014646237
FINAL SINGLE POINT ENERGY     -1339.866019851084

DIPOLE MOMENT
-------------
                                X             Y             Z
Electronic contribution:     25.64424      11.23162       9.45126
Nuclear contribution   :    -26.25101     -11.49215      -9.77161
                        -----------------------------------------
Total Dipole Moment    :     -0.60677      -0.26053      -0.32035
                        -----------------------------------------
Magnitude (a.u.)       :      0.73394
Magnitude (Debye)      :      1.86552

Rotational constants in cm-1:     0.015988     0.010359     0.007531
Rotational constants in MHz :   479.314362   310.541270   225.781301

                             ****ORCA TERMINATED NORMALLY****
TOTAL RUN TIME: 0 days 0 hours 0 minutes 21 seconds 119 msec
