                         Program Version 4.2.1 -  RELEASE  -
|  1> ! wB97X-D3 SP def2-SVP
|  2> %pal
|  3> nprocs 24
|  4> end
|  5>
|  6> * xyz 0 1
|  7> S 	 44.4428 	 -8.16948 	 -105.726
|  8> C 	 44.8162 	 -6.66002 	 -106.559
|  9> C 	 43.9503 	 -6.31617 	 -107.53
| 10> C 	 42.9033 	 -7.28832 	 -107.565
| 11> C 	 42.8764 	 -8.23317 	 -106.574
| 12> H 	 42.1624 	 -7.37512 	 -108.372
| 13> C 	 44.0783 	 -5.14836 	 -108.543
| 14> H 	 44.4311 	 -5.61695 	 -109.481
| 15> H 	 44.673 	 -4.39287 	 -108.223
| 16> C 	 42.6309 	 -4.6361 	 -108.938
| 17> H 	 42.1859 	 -5.28368 	 -109.624
| 18> H 	 41.9873 	 -4.81823 	 -108.11
| 19> C 	 42.6111 	 -3.18852 	 -109.445
| 20> H 	 42.9681 	 -3.31855 	 -110.431
| 21> H 	 41.6502 	 -2.8814 	 -109.728
| 22> H 	 43.1128 	 -2.50101 	 -108.818
| 23> S 	 42.4445 	 -10.8716 	 -106.6
| 24> C 	 40.8234 	 -11.5451 	 -106.651
| 25> C 	 39.8338 	 -10.5707 	 -106.798
| 26> C 	 40.419 	 -9.24691 	 -106.652
| 27> C 	 41.7953 	 -9.25734 	 -106.513
| 28> H 	 38.8085 	 -10.8606 	 -106.942
| 29> C 	 39.5997 	 -7.95289 	 -106.781
| 30> H 	 40.2447 	 -7.09478 	 -106.922
| 31> H 	 39.0205 	 -7.91749 	 -105.9
| 32> C 	 38.6255 	 -7.84641 	 -107.974
| 33> H 	 37.9899 	 -6.88593 	 -107.905
| 34> H 	 37.8456 	 -8.56642 	 -107.869
| 35> C 	 39.1979 	 -7.91608 	 -109.442
| 36> H 	 40.0445 	 -7.23918 	 -109.633
| 37> H 	 38.4782 	 -7.72857 	 -110.203
| 38> H 	 39.6207 	 -8.87351 	 -109.604
| 39> H 	 45.7767 	 -6.22659 	 -106.429
| 40> H 	 40.5433 	 -12.5371 	 -106.894
| 41> *
| 42>
| 43>                          ****END OF INPUT****

CARTESIAN COORDINATES (ANGSTROEM)
---------------------------------
  S     44.442800   -8.169480  -105.726000
  C     44.816200   -6.660020  -106.559000
  C     43.950300   -6.316170  -107.530000
  C     42.903300   -7.288320  -107.565000
  C     42.876400   -8.233170  -106.574000
  H     42.162400   -7.375120  -108.372000
  C     44.078300   -5.148360  -108.543000
  H     44.431100   -5.616950  -109.481000
  H     44.673000   -4.392870  -108.223000
  C     42.630900   -4.636100  -108.938000
  H     42.185900   -5.283680  -109.624000
  H     41.987300   -4.818230  -108.110000
  C     42.611100   -3.188520  -109.445000
  H     42.968100   -3.318550  -110.431000
  H     41.650200   -2.881400  -109.728000
  H     43.112800   -2.501010  -108.818000
  S     42.444500  -10.871600  -106.600000
  C     40.823400  -11.545100  -106.651000
  C     39.833800  -10.570700  -106.798000
  C     40.419000   -9.246910  -106.652000
  C     41.795300   -9.257340  -106.513000
  H     38.808500  -10.860600  -106.942000
  C     39.599700   -7.952890  -106.781000
  H     40.244700   -7.094780  -106.922000
  H     39.020500   -7.917490  -105.900000
  C     38.625500   -7.846410  -107.974000
  H     37.989900   -6.885930  -107.905000
  H     37.845600   -8.566420  -107.869000
  C     39.197900   -7.916080  -109.442000
  H     40.044500   -7.239180  -109.633000
  H     38.478200   -7.728570  -110.203000
  H     39.620700   -8.873510  -109.604000
  H     45.776700   -6.226590  -106.429000
  H     40.543300  -12.537100  -106.894000

 Total Charge           Charge          ....    0
 Multiplicity           Mult            ....    1
 Number of Electrons    NEL             ....  134
 Basis Dimension        Dim             ....  322

ORBITAL ENERGIES
----------------

  NO   OCC          E(Eh)            E(eV)
   0   2.0000     -88.965950     -2420.8866
   1   2.0000     -88.965313     -2420.8692
   2   2.0000     -10.331837      -281.1436
   3   2.0000     -10.329396      -281.0771
   4   2.0000     -10.316158      -280.7169
   5   2.0000     -10.309361      -280.5320
   6   2.0000     -10.309294      -280.5302
   7   2.0000     -10.300605      -280.2937
   8   2.0000     -10.299636      -280.2673
   9   2.0000     -10.295792      -280.1627
  10   2.0000     -10.294657      -280.1319
  11   2.0000     -10.292050      -280.0609
  12   2.0000     -10.289140      -279.9817
  13   2.0000     -10.280854      -279.7563
  14   2.0000     -10.277404      -279.6624
  15   2.0000     -10.270434      -279.4727
  16   2.0000      -8.080213      -219.8738
  17   2.0000      -8.080036      -219.8690
  18   2.0000      -6.038793      -164.3239
  19   2.0000      -6.038759      -164.3230
  20   2.0000      -6.034865      -164.2170
  21   2.0000      -6.034747      -164.2138
  22   2.0000      -6.030830      -164.1072
  23   2.0000      -6.030373      -164.0948
  24   2.0000      -1.005258       -27.3545
  25   2.0000      -0.983649       -26.7664
  26   2.0000      -0.910625       -24.7794
  27   2.0000      -0.903084       -24.5742
  28   2.0000      -0.871754       -23.7216
  29   2.0000      -0.848734       -23.0952
  30   2.0000      -0.843324       -22.9480
  31   2.0000      -0.817050       -22.2331
  32   2.0000      -0.788007       -21.4428
  33   2.0000      -0.780588       -21.2409
  34   2.0000      -0.717887       -19.5347
  35   2.0000      -0.701607       -19.0917
  36   2.0000      -0.692823       -18.8527
  37   2.0000      -0.660613       -17.9762
  38   2.0000      -0.642175       -17.4745
  39   2.0000      -0.621893       -16.9226
  40   2.0000      -0.590287       -16.0625
  41   2.0000      -0.576708       -15.6930
  42   2.0000      -0.567028       -15.4296
  43   2.0000      -0.559164       -15.2156
  44   2.0000      -0.539000       -14.6669
  45   2.0000      -0.527486       -14.3536
  46   2.0000      -0.517128       -14.0718
  47   2.0000      -0.512721       -13.9518
  48   2.0000      -0.502252       -13.6670
  49   2.0000      -0.495727       -13.4894
  50   2.0000      -0.493883       -13.4392
  51   2.0000      -0.487470       -13.2647
  52   2.0000      -0.469269       -12.7695
  53   2.0000      -0.465176       -12.6581
  54   2.0000      -0.458592       -12.4789
  55   2.0000      -0.451064       -12.2741
  56   2.0000      -0.448718       -12.2102
  57   2.0000      -0.443405       -12.0657
  58   2.0000      -0.441461       -12.0128
  59   2.0000      -0.426137       -11.5958
  60   2.0000      -0.420783       -11.4501
  61   2.0000      -0.413796       -11.2600
  62   2.0000      -0.407985       -11.1018
  63   2.0000      -0.347842        -9.4653
  64   2.0000      -0.329635        -8.9698
  65   2.0000      -0.328787        -8.9467
  66   2.0000      -0.294859        -8.0235
  67   0.0000       0.030461         0.8289
  68   0.0000       0.070957         1.9308
  69   0.0000       0.099534         2.7085
  70   0.0000       0.125755         3.4220
  71   0.0000       0.130047         3.5388

MULLIKEN ATOMIC CHARGES
-----------------------
   0 S :    0.098235
   1 C :   -0.129374
   2 C :   -0.070289
   3 C :   -0.011844
   4 C :   -0.120402
   5 H :    0.013876
   6 C :    0.138581
   7 H :    0.047634
   8 H :    0.002286
   9 C :   -0.122645
  10 H :    0.011206
  11 H :    0.023332
  12 C :    0.040027
  13 H :    0.008671
  14 H :    0.007348
  15 H :    0.042091
  16 S :    0.097874
  17 C :   -0.060623
  18 C :   -0.057540
  19 C :   -0.064957
  20 C :   -0.152645
  21 H :    0.023886
  22 C :    0.121994
  23 H :    0.025623
  24 H :    0.028528
  25 C :   -0.119364
  26 H :    0.035593
  27 H :    0.015253
  28 C :   -0.033606
  29 H :    0.024721
  30 H :    0.031696
  31 H :    0.027144
  32 H :    0.033694
  33 H :    0.043994
Sum of atomic charges:   -0.0000000

LOEWDIN ATOMIC CHARGES
----------------------
   0 S :    0.376148
   1 C :   -0.178719
   2 C :   -0.063254
   3 C :   -0.063428
   4 C :   -0.191684
   5 H :    0.029205
   6 C :   -0.006780
   7 H :    0.042638
   8 H :    0.012553
   9 C :   -0.035917
  10 H :    0.013293
  11 H :    0.014595
  12 C :   -0.053427
  13 H :    0.027203
  14 H :    0.023073
  15 H :    0.022986
  16 S :    0.407862
  17 C :   -0.179055
  18 C :   -0.065613
  19 C :   -0.056677
  20 C :   -0.191334
  21 H :    0.032036
  22 C :   -0.023859
  23 H :    0.028545
  24 H :    0.031600
  25 C :   -0.042874
  26 H :    0.033023
  27 H :    0.012396
  28 C :   -0.065137
  29 H :    0.022493
  30 H :    0.024903
  31 H :    0.021368
  32 H :    0.019759
  33 H :    0.022078

  Mayer bond orders larger than 0.100000
B(  0-S ,  1-C ) :   1.1258 B(  0-S ,  4-C ) :   1.1231 B(  1-C ,  2-C ) :   1.6565
B(  1-C , 32-H ) :   0.9665 B(  2-C ,  3-C ) :   1.2202 B(  2-C ,  6-C ) :   1.0160
B(  3-C ,  4-C ) :   1.5992 B(  3-C ,  5-H ) :   0.9805 B(  4-C , 20-C ) :   1.0252
B(  6-C ,  7-H ) :   0.9353 B(  6-C ,  8-H ) :   0.9502 B(  6-C ,  9-C ) :   1.0524
B(  9-C , 10-H ) :   0.9455 B(  9-C , 11-H ) :   0.9676 B(  9-C , 12-C ) :   1.0877
B( 12-C , 13-H ) :   0.9650 B( 12-C , 14-H ) :   0.9638 B( 12-C , 15-H ) :   0.9796
B( 16-S , 17-C ) :   1.1539 B( 16-S , 20-C ) :   1.1402 B( 17-C , 18-C ) :   1.6339
B( 17-C , 33-H ) :   0.9655 B( 18-C , 19-C ) :   1.2109 B( 18-C , 21-H ) :   0.9936
B( 19-C , 20-C ) :   1.6352 B( 19-C , 22-C ) :   1.0272 B( 22-C , 23-H ) :   0.9433
B( 22-C , 24-H ) :   0.9254 B( 22-C , 25-C ) :   1.0787 B( 25-C , 26-H ) :   0.9576
B( 25-C , 27-H ) :   0.9525 B( 25-C , 28-C ) :   1.0661 B( 28-C , 29-H ) :   0.9726
B( 28-C , 30-H ) :   0.9729 B( 28-C , 31-H ) :   0.9740

Dispersion correction           -0.015131879
FINAL SINGLE POINT ENERGY     -1339.847181641429

DIPOLE MOMENT
-------------
                                X             Y             Z
Electronic contribution:     15.37262     -22.03237      18.33869
Nuclear contribution   :    -15.78929      22.42832     -19.06337
                        -----------------------------------------
Total Dipole Moment    :     -0.41667       0.39596      -0.72467
                        -----------------------------------------
Magnitude (a.u.)       :      0.92496
Magnitude (Debye)      :      2.35106

Rotational constants in cm-1:     0.016999     0.010269     0.006878
Rotational constants in MHz :   509.614523   307.852602   206.210448

                             ****ORCA TERMINATED NORMALLY****
TOTAL RUN TIME: 0 days 0 hours 0 minutes 22 seconds 368 msec
