                         Program Version 4.2.1 -  RELEASE  -
|  1> ! wB97X-D3 SP def2-SVP
|  2> %pal
|  3> nprocs 24
|  4> end
|  5>
|  6> * xyz 0 1
|  7> S 	 -107.344 	 51.0698 	 -8.21764
|  8> C 	 -106.937 	 52.583 	 -8.93554
|  9> C 	 -105.894 	 52.4324 	 -9.84227
| 10> C 	 -105.39 	 51.1041 	 -9.89782
| 11> C 	 -106.134 	 50.2211 	 -9.1384
| 12> H 	 -104.623 	 50.7416 	 -10.5543
| 13> C 	 -105.477 	 53.5464 	 -10.7204
| 14> H 	 -104.384 	 53.6625 	 -10.4203
| 15> H 	 -105.993 	 54.5324 	 -10.494
| 16> C 	 -105.494 	 53.3527 	 -12.2418
| 17> H 	 -104.833 	 54.0265 	 -12.7534
| 18> H 	 -105.02 	 52.4527 	 -12.516
| 19> C 	 -106.909 	 53.4874 	 -12.8347
| 20> H 	 -107.359 	 54.4343 	 -12.515
| 21> H 	 -106.903 	 53.3774 	 -13.8981
| 22> H 	 -107.505 	 52.6636 	 -12.3636
| 23> S 	 -106.573 	 48.0805 	 -7.53197
| 24> C 	 -106.098 	 46.4474 	 -8.05055
| 25> C 	 -105.404 	 46.5778 	 -9.2582
| 26> C 	 -105.41 	 47.8823 	 -9.85861
| 27> C 	 -105.963 	 48.8466 	 -9.01004
| 28> H 	 -104.984 	 45.7789 	 -9.70215
| 29> C 	 -104.828 	 48.2324 	 -11.2746
| 30> H 	 -103.837 	 48.668 	 -11.2451
| 31> H 	 -105.469 	 49.1082 	 -11.6641
| 32> C 	 -104.954 	 47.1209 	 -12.3848
| 33> H 	 -104.34 	 46.2401 	 -12.101
| 34> H 	 -104.454 	 47.3856 	 -13.2551
| 35> C 	 -106.366 	 46.6719 	 -12.7452
| 36> H 	 -106.377 	 45.7909 	 -13.3622
| 37> H 	 -107.031 	 47.4514 	 -13.1232
| 38> H 	 -106.882 	 46.2766 	 -11.8592
| 39> H 	 -107.498 	 53.5164 	 -8.79644
| 40> H 	 -106.258 	 45.4873 	 -7.54589
| 41> *
| 42>
| 43>                          ****END OF INPUT****

CARTESIAN COORDINATES (ANGSTROEM)
---------------------------------
  S    -107.344000   51.069800   -8.217640
  C    -106.937000   52.583000   -8.935540
  C    -105.894000   52.432400   -9.842270
  C    -105.390000   51.104100   -9.897820
  C    -106.134000   50.221100   -9.138400
  H    -104.623000   50.741600  -10.554300
  C    -105.477000   53.546400  -10.720400
  H    -104.384000   53.662500  -10.420300
  H    -105.993000   54.532400  -10.494000
  C    -105.494000   53.352700  -12.241800
  H    -104.833000   54.026500  -12.753400
  H    -105.020000   52.452700  -12.516000
  C    -106.909000   53.487400  -12.834700
  H    -107.359000   54.434300  -12.515000
  H    -106.903000   53.377400  -13.898100
  H    -107.505000   52.663600  -12.363600
  S    -106.573000   48.080500   -7.531970
  C    -106.098000   46.447400   -8.050550
  C    -105.404000   46.577800   -9.258200
  C    -105.410000   47.882300   -9.858610
  C    -105.963000   48.846600   -9.010040
  H    -104.984000   45.778900   -9.702150
  C    -104.828000   48.232400  -11.274600
  H    -103.837000   48.668000  -11.245100
  H    -105.469000   49.108200  -11.664100
  C    -104.954000   47.120900  -12.384800
  H    -104.340000   46.240100  -12.101000
  H    -104.454000   47.385600  -13.255100
  C    -106.366000   46.671900  -12.745200
  H    -106.377000   45.790900  -13.362200
  H    -107.031000   47.451400  -13.123200
  H    -106.882000   46.276600  -11.859200
  H    -107.498000   53.516400   -8.796440
  H    -106.258000   45.487300   -7.545890

 Total Charge           Charge          ....    0
 Multiplicity           Mult            ....    1
 Number of Electrons    NEL             ....  134
 Basis Dimension        Dim             ....  322

ORBITAL ENERGIES
----------------

  NO   OCC          E(Eh)            E(eV)
   0   2.0000     -88.966099     -2420.8906
   1   2.0000     -88.965493     -2420.8741
   2   2.0000     -10.326903      -281.0093
   3   2.0000     -10.326359      -280.9945
   4   2.0000     -10.324999      -280.9575
   5   2.0000     -10.313143      -280.6349
   6   2.0000     -10.310077      -280.5515
   7   2.0000     -10.307929      -280.4930
   8   2.0000     -10.300670      -280.2955
   9   2.0000     -10.298513      -280.2368
  10   2.0000     -10.294022      -280.1146
  11   2.0000     -10.291090      -280.0348
  12   2.0000     -10.289031      -279.9788
  13   2.0000     -10.281846      -279.7832
  14   2.0000     -10.278393      -279.6893
  15   2.0000     -10.275381      -279.6073
  16   2.0000      -8.081452      -219.9075
  17   2.0000      -8.079425      -219.8523
  18   2.0000      -6.039937      -164.3550
  19   2.0000      -6.038194      -164.3076
  20   2.0000      -6.035826      -164.2432
  21   2.0000      -6.033953      -164.1922
  22   2.0000      -6.032244      -164.1457
  23   2.0000      -6.030039      -164.0857
  24   2.0000      -1.012775       -27.5590
  25   2.0000      -0.981346       -26.7038
  26   2.0000      -0.915323       -24.9072
  27   2.0000      -0.901308       -24.5258
  28   2.0000      -0.877443       -23.8764
  29   2.0000      -0.855257       -23.2727
  30   2.0000      -0.841488       -22.8981
  31   2.0000      -0.816146       -22.2085
  32   2.0000      -0.784104       -21.3366
  33   2.0000      -0.771383       -20.9904
  34   2.0000      -0.719310       -19.5734
  35   2.0000      -0.702935       -19.1278
  36   2.0000      -0.698399       -19.0044
  37   2.0000      -0.663118       -18.0444
  38   2.0000      -0.640770       -17.4362
  39   2.0000      -0.626363       -17.0442
  40   2.0000      -0.593056       -16.1379
  41   2.0000      -0.565872       -15.3981
  42   2.0000      -0.557723       -15.1764
  43   2.0000      -0.553729       -15.0677
  44   2.0000      -0.539800       -14.6887
  45   2.0000      -0.535047       -14.5594
  46   2.0000      -0.522870       -14.2280
  47   2.0000      -0.512100       -13.9350
  48   2.0000      -0.510683       -13.8964
  49   2.0000      -0.496749       -13.5172
  50   2.0000      -0.492413       -13.3992
  51   2.0000      -0.479010       -13.0345
  52   2.0000      -0.470910       -12.8141
  53   2.0000      -0.469845       -12.7851
  54   2.0000      -0.459640       -12.5074
  55   2.0000      -0.448104       -12.1935
  56   2.0000      -0.447251       -12.1703
  57   2.0000      -0.442263       -12.0346
  58   2.0000      -0.434682       -11.8283
  59   2.0000      -0.428773       -11.6675
  60   2.0000      -0.417451       -11.3594
  61   2.0000      -0.413691       -11.2571
  62   2.0000      -0.406540       -11.0625
  63   2.0000      -0.361832        -9.8460
  64   2.0000      -0.332320        -9.0429
  65   2.0000      -0.327888        -8.9223
  66   2.0000      -0.279766        -7.6128
  67   0.0000       0.014862         0.4044
  68   0.0000       0.086145         2.3441
  69   0.0000       0.099970         2.7203
  70   0.0000       0.118960         3.2371
  71   0.0000       0.131114         3.5678

MULLIKEN ATOMIC CHARGES
-----------------------
   0 S :    0.112071
   1 C :   -0.124091
   2 C :   -0.063824
   3 C :    0.007761
   4 C :   -0.130279
   5 H :   -0.002618
   6 C :    0.008890
   7 H :    0.042202
   8 H :    0.029372
   9 C :   -0.031784
  10 H :    0.013349
  11 H :    0.001150
  12 C :   -0.048883
  13 H :    0.027820
  14 H :    0.036575
  15 H :    0.043001
  16 S :    0.088639
  17 C :   -0.093685
  18 C :    0.012528
  19 C :   -0.044901
  20 C :   -0.117878
  21 H :   -0.031157
  22 C :   -0.006919
  23 H :    0.055121
  24 H :    0.048201
  25 C :   -0.037188
  26 H :    0.021804
  27 H :    0.008708
  28 C :   -0.045843
  29 H :    0.027354
  30 H :    0.039908
  31 H :    0.027352
  32 H :    0.056379
  33 H :    0.070866
Sum of atomic charges:   -0.0000000

LOEWDIN ATOMIC CHARGES
----------------------
   0 S :    0.417945
   1 C :   -0.210137
   2 C :   -0.067282
   3 C :   -0.061303
   4 C :   -0.189977
   5 H :    0.027476
   6 C :   -0.039157
   7 H :    0.043166
   8 H :    0.034514
   9 C :   -0.042057
  10 H :    0.021392
  11 H :    0.014400
  12 C :   -0.062004
  13 H :    0.023709
  14 H :    0.022003
  15 H :    0.033071
  16 S :    0.382289
  17 C :   -0.180428
  18 C :   -0.055666
  19 C :   -0.056307
  20 C :   -0.184677
  21 H :    0.008369
  22 C :   -0.036003
  23 H :    0.028755
  24 H :    0.040954
  25 C :   -0.042200
  26 H :    0.025389
  27 H :    0.016278
  28 C :   -0.068707
  29 H :    0.026442
  30 H :    0.027584
  31 H :    0.028519
  32 H :    0.034128
  33 H :    0.039522

  Mayer bond orders larger than 0.100000
B(  0-S ,  1-C ) :   1.1370 B(  0-S ,  4-C ) :   1.1460 B(  1-C ,  2-C ) :   1.5856
B(  1-C , 32-H ) :   0.9680 B(  2-C ,  3-C ) :   1.2403 B(  2-C ,  6-C ) :   1.0344
B(  3-C ,  4-C ) :   1.5246 B(  3-C ,  5-H ) :   0.9952 B(  4-C , 20-C ) :   1.1471
B(  6-C ,  7-H ) :   0.9252 B(  6-C ,  8-H ) :   0.9483 B(  6-C ,  9-C ) :   1.0810
B(  9-C , 10-H ) :   0.9491 B(  9-C , 11-H ) :   0.9489 B(  9-C , 12-C ) :   1.0695
B( 12-C , 13-H ) :   0.9752 B( 12-C , 14-H ) :   0.9747 B( 12-C , 15-H ) :   0.9787
B( 16-S , 17-C ) :   1.1353 B( 16-S , 20-C ) :   1.1229 B( 17-C , 18-C ) :   1.5939
B( 17-C , 20-C ) :   0.1036 B( 17-C , 33-H ) :   0.9685 B( 18-C , 19-C ) :   1.2549
B( 18-C , 21-H ) :   0.9999 B( 19-C , 20-C ) :   1.5667 B( 19-C , 22-C ) :   1.0216
B( 22-C , 23-H ) :   0.9363 B( 22-C , 24-H ) :   0.9364 B( 22-C , 25-C ) :   1.0642
B( 25-C , 26-H ) :   0.9490 B( 25-C , 27-H ) :   0.9519 B( 25-C , 28-C ) :   1.0817
B( 28-C , 29-H ) :   0.9711 B( 28-C , 30-H ) :   0.9746 B( 28-C , 31-H ) :   0.9710

Dispersion correction           -0.014508913
FINAL SINGLE POINT ENERGY     -1339.875930753751

DIPOLE MOMENT
-------------
                                X             Y             Z
Electronic contribution:     -5.33819      -4.46895      28.07655
Nuclear contribution   :      5.67185       4.44880     -28.80128
                        -----------------------------------------
Total Dipole Moment    :      0.33366      -0.02015      -0.72474
                        -----------------------------------------
Magnitude (a.u.)       :      0.79811
Magnitude (Debye)      :      2.02863

Rotational constants in cm-1:     0.018254     0.009611     0.006863
Rotational constants in MHz :   547.251425   288.117475   205.744743

                             ****ORCA TERMINATED NORMALLY****
TOTAL RUN TIME: 0 days 0 hours 0 minutes 22 seconds 23 msec
