                         Program Version 4.2.1 -  RELEASE  -
|  1> ! wB97X-D3 SP def2-SVP
|  2> %pal
|  3> nprocs 24
|  4> end
|  5>
|  6> * xyz 0 1
|  7> S 	 -107.63 	 44.6813 	 -5.29629
|  8> C 	 -108.981 	 45.7831 	 -5.44801
|  9> C 	 -109.012 	 46.4129 	 -6.68011
| 10> C 	 -107.995 	 45.8273 	 -7.53219
| 11> C 	 -107.138 	 44.9425 	 -6.92208
| 12> H 	 -107.96 	 46.03 	 -8.57361
| 13> C 	 -110.04 	 47.4111 	 -7.0947
| 14> H 	 -110.941 	 46.7695 	 -7.28239
| 15> H 	 -109.614 	 47.8971 	 -7.9442
| 16> C 	 -110.376 	 48.5258 	 -6.03119
| 17> H 	 -111.121 	 49.248 	 -6.36009
| 18> H 	 -110.761 	 47.939 	 -5.18809
| 19> C 	 -109.174 	 49.3662 	 -5.53583
| 20> H 	 -108.744 	 49.9372 	 -6.35724
| 21> H 	 -109.492 	 50.0249 	 -4.73163
| 22> H 	 -108.36 	 48.7547 	 -5.08388
| 23> S 	 -106.766 	 42.4107 	 -8.13568
| 24> C 	 -105.335 	 42.25 	 -9.1303
| 25> C 	 -104.498 	 43.2951 	 -8.96436
| 26> C 	 -104.964 	 44.299 	 -8.15904
| 27> C 	 -106.199 	 44.0133 	 -7.5561
| 28> H 	 -103.612 	 43.3353 	 -9.50193
| 29> C 	 -104.22 	 45.6345 	 -8.02297
| 30> H 	 -103.185 	 45.371 	 -7.79474
| 31> H 	 -104.708 	 46.1058 	 -7.11429
| 32> C 	 -104.225 	 46.5508 	 -9.25539
| 33> H 	 -103.869 	 46.03 	 -10.0578
| 34> H 	 -103.479 	 47.2847 	 -8.94729
| 35> C 	 -105.656 	 47.1341 	 -9.58717
| 36> H 	 -106.239 	 47.64 	 -8.79442
| 37> H 	 -106.31 	 46.4032 	 -10.0188
| 38> H 	 -105.537 	 47.7846 	 -10.488
| 39> H 	 -109.589 	 45.9273 	 -4.61754
| 40> H 	 -105.324 	 41.4969 	 -9.83821
| 41> *
| 42>
| 43>                          ****END OF INPUT****

CARTESIAN COORDINATES (ANGSTROEM)
---------------------------------
  S    -107.630000   44.681300   -5.296290
  C    -108.981000   45.783100   -5.448010
  C    -109.012000   46.412900   -6.680110
  C    -107.995000   45.827300   -7.532190
  C    -107.138000   44.942500   -6.922080
  H    -107.960000   46.030000   -8.573610
  C    -110.040000   47.411100   -7.094700
  H    -110.941000   46.769500   -7.282390
  H    -109.614000   47.897100   -7.944200
  C    -110.376000   48.525800   -6.031190
  H    -111.121000   49.248000   -6.360090
  H    -110.761000   47.939000   -5.188090
  C    -109.174000   49.366200   -5.535830
  H    -108.744000   49.937200   -6.357240
  H    -109.492000   50.024900   -4.731630
  H    -108.360000   48.754700   -5.083880
  S    -106.766000   42.410700   -8.135680
  C    -105.335000   42.250000   -9.130300
  C    -104.498000   43.295100   -8.964360
  C    -104.964000   44.299000   -8.159040
  C    -106.199000   44.013300   -7.556100
  H    -103.612000   43.335300   -9.501930
  C    -104.220000   45.634500   -8.022970
  H    -103.185000   45.371000   -7.794740
  H    -104.708000   46.105800   -7.114290
  C    -104.225000   46.550800   -9.255390
  H    -103.869000   46.030000  -10.057800
  H    -103.479000   47.284700   -8.947290
  C    -105.656000   47.134100   -9.587170
  H    -106.239000   47.640000   -8.794420
  H    -106.310000   46.403200  -10.018800
  H    -105.537000   47.784600  -10.488000
  H    -109.589000   45.927300   -4.617540
  H    -105.324000   41.496900   -9.838210

 Total Charge           Charge          ....    0
 Multiplicity           Mult            ....    1
 Number of Electrons    NEL             ....  134
 Basis Dimension        Dim             ....  322

ORBITAL ENERGIES
----------------

  NO   OCC          E(Eh)            E(eV)
   0   2.0000     -88.961551     -2420.7669
   1   2.0000     -88.959727     -2420.7172
   2   2.0000     -10.324598      -280.9466
   3   2.0000     -10.323219      -280.9091
   4   2.0000     -10.311140      -280.5804
   5   2.0000     -10.307729      -280.4876
   6   2.0000     -10.301094      -280.3070
   7   2.0000     -10.296024      -280.1691
   8   2.0000     -10.295926      -280.1664
   9   2.0000     -10.292890      -280.0838
  10   2.0000     -10.291716      -280.0518
  11   2.0000     -10.291504      -280.0461
  12   2.0000     -10.286529      -279.9107
  13   2.0000     -10.282175      -279.7922
  14   2.0000     -10.279904      -279.7304
  15   2.0000     -10.278619      -279.6955
  16   2.0000      -8.075954      -219.7579
  17   2.0000      -8.075387      -219.7424
  18   2.0000      -6.034321      -164.2022
  19   2.0000      -6.033763      -164.1870
  20   2.0000      -6.030483      -164.0978
  21   2.0000      -6.029610      -164.0740
  22   2.0000      -6.026898      -164.0002
  23   2.0000      -6.026400      -163.9867
  24   2.0000      -1.005648       -27.3651
  25   2.0000      -0.986019       -26.8309
  26   2.0000      -0.911065       -24.7913
  27   2.0000      -0.904785       -24.6205
  28   2.0000      -0.865471       -23.5507
  29   2.0000      -0.846785       -23.0422
  30   2.0000      -0.845464       -23.0062
  31   2.0000      -0.813801       -22.1447
  32   2.0000      -0.783351       -21.3161
  33   2.0000      -0.774499       -21.0752
  34   2.0000      -0.708808       -19.2877
  35   2.0000      -0.705111       -19.1870
  36   2.0000      -0.697989       -18.9932
  37   2.0000      -0.658607       -17.9216
  38   2.0000      -0.647141       -17.6096
  39   2.0000      -0.610955       -16.6249
  40   2.0000      -0.599589       -16.3156
  41   2.0000      -0.577240       -15.7075
  42   2.0000      -0.554482       -15.0882
  43   2.0000      -0.550049       -14.9676
  44   2.0000      -0.541692       -14.7402
  45   2.0000      -0.538354       -14.6494
  46   2.0000      -0.525974       -14.3125
  47   2.0000      -0.514243       -13.9933
  48   2.0000      -0.498125       -13.5547
  49   2.0000      -0.495682       -13.4882
  50   2.0000      -0.489697       -13.3253
  51   2.0000      -0.474601       -12.9146
  52   2.0000      -0.470288       -12.7972
  53   2.0000      -0.463864       -12.6224
  54   2.0000      -0.460476       -12.5302
  55   2.0000      -0.443378       -12.0649
  56   2.0000      -0.439879       -11.9697
  57   2.0000      -0.439098       -11.9485
  58   2.0000      -0.435364       -11.8469
  59   2.0000      -0.424218       -11.5436
  60   2.0000      -0.423194       -11.5157
  61   2.0000      -0.415234       -11.2991
  62   2.0000      -0.411057       -11.1854
  63   2.0000      -0.340056        -9.2534
  64   2.0000      -0.325444        -8.8558
  65   2.0000      -0.320024        -8.7083
  66   2.0000      -0.304549        -8.2872
  67   0.0000       0.042028         1.1436
  68   0.0000       0.051916         1.4127
  69   0.0000       0.117554         3.1988
  70   0.0000       0.123906         3.3717
  71   0.0000       0.130929         3.5628

MULLIKEN ATOMIC CHARGES
-----------------------
   0 S :    0.102198
   1 C :   -0.125169
   2 C :   -0.111339
   3 C :    0.055652
   4 C :   -0.176737
   5 H :   -0.011591
   6 C :    0.088845
   7 H :    0.065159
   8 H :    0.014664
   9 C :   -0.086414
  10 H :    0.039938
  11 H :    0.025710
  12 C :   -0.072797
  13 H :    0.033699
  14 H :    0.037379
  15 H :    0.044985
  16 S :    0.096277
  17 C :   -0.070314
  18 C :    0.005479
  19 C :   -0.029935
  20 C :   -0.154284
  21 H :   -0.012273
  22 C :    0.033547
  23 H :    0.025855
  24 H :    0.044324
  25 C :   -0.003037
  26 H :    0.004890
  27 H :    0.036801
  28 C :   -0.082456
  29 H :    0.053730
  30 H :    0.035334
  31 H :    0.029797
  32 H :    0.027851
  33 H :    0.034236
Sum of atomic charges:    0.0000000

LOEWDIN ATOMIC CHARGES
----------------------
   0 S :    0.418514
   1 C :   -0.184248
   2 C :   -0.064280
   3 C :   -0.051299
   4 C :   -0.214334
   5 H :    0.022929
   6 C :   -0.031846
   7 H :    0.048944
   8 H :    0.023463
   9 C :   -0.039004
  10 H :    0.026872
  11 H :    0.021100
  12 C :   -0.070525
  13 H :    0.023251
  14 H :    0.027378
  15 H :    0.029891
  16 S :    0.388343
  17 C :   -0.155915
  18 C :   -0.072836
  19 C :   -0.052457
  20 C :   -0.200970
  21 H :    0.022048
  22 C :   -0.031462
  23 H :    0.029630
  24 H :    0.038127
  25 C :   -0.024648
  26 H :    0.011234
  27 H :    0.030428
  28 C :   -0.071875
  29 H :    0.029012
  30 H :    0.021329
  31 H :    0.030984
  32 H :    0.008994
  33 H :    0.013227

  Mayer bond orders larger than 0.100000
B(  0-S ,  1-C ) :   1.1598 B(  0-S ,  4-C ) :   1.1574 B(  1-C ,  2-C ) :   1.5718
B(  1-C , 32-H ) :   0.9829 B(  2-C ,  3-C ) :   1.2527 B(  2-C ,  6-C ) :   1.0073
B(  3-C ,  4-C ) :   1.5800 B(  3-C ,  5-H ) :   0.9959 B(  4-C , 20-C ) :   0.9964
B(  6-C ,  7-H ) :   0.9385 B(  6-C ,  8-H ) :   0.9396 B(  6-C ,  9-C ) :   1.0681
B(  9-C , 10-H ) :   0.9602 B(  9-C , 11-H ) :   0.9545 B(  9-C , 12-C ) :   1.0800
B( 12-C , 13-H ) :   0.9766 B( 12-C , 14-H ) :   0.9743 B( 12-C , 15-H ) :   0.9721
B( 16-S , 17-C ) :   1.1742 B( 16-S , 20-C ) :   1.1390 B( 17-C , 18-C ) :   1.5687
B( 17-C , 20-C ) :   0.1026 B( 17-C , 33-H ) :   0.9782 B( 18-C , 19-C ) :   1.2729
B( 18-C , 21-H ) :   1.0061 B( 19-C , 20-C ) :   1.5825 B( 19-C , 22-C ) :   1.0291
B( 22-C , 23-H ) :   0.9355 B( 22-C , 24-H ) :   0.9354 B( 22-C , 25-C ) :   1.0745
B( 25-C , 26-H ) :   0.9525 B( 25-C , 27-H ) :   0.9576 B( 25-C , 28-C ) :   1.0690
B( 28-C , 29-H ) :   0.9749 B( 28-C , 30-H ) :   0.9690 B( 28-C , 31-H ) :   0.9674

Dispersion correction           -0.015794554
FINAL SINGLE POINT ENERGY     -1339.871408685593

DIPOLE MOMENT
-------------
                                X             Y             Z
Electronic contribution:      1.73035     -26.18080       5.41241
Nuclear contribution   :     -1.76265      26.68744      -5.89719
                        -----------------------------------------
Total Dipole Moment    :     -0.03230       0.50664      -0.48478
                        -----------------------------------------
Magnitude (a.u.)       :      0.70196
Magnitude (Debye)      :      1.78423

Rotational constants in cm-1:     0.021872     0.008808     0.007202
Rotational constants in MHz :   655.699104   264.068525   215.921319

                             ****ORCA TERMINATED NORMALLY****
TOTAL RUN TIME: 0 days 0 hours 0 minutes 22 seconds 677 msec
