                         Program Version 4.2.1 -  RELEASE  -
|  1> ! wB97X-D3 SP def2-SVP
|  2> %pal
|  3> nprocs 24
|  4> end
|  5>
|  6> * xyz 0 1
|  7> S 	 37.9091 	 -32.269 	 -111.831
|  8> C 	 36.9434 	 -33.7446 	 -111.762
|  9> C 	 37.0014 	 -34.5093 	 -112.944
| 10> C 	 37.852 	 -33.8478 	 -113.907
| 11> C 	 38.3987 	 -32.6123 	 -113.463
| 12> H 	 38.1813 	 -34.3623 	 -114.799
| 13> C 	 36.2446 	 -35.7992 	 -113.144
| 14> H 	 36.0097 	 -35.8773 	 -114.186
| 15> H 	 35.3638 	 -35.7198 	 -112.565
| 16> C 	 37.0604 	 -37.1118 	 -112.83
| 17> H 	 38.0735 	 -36.9847 	 -113.095
| 18> H 	 37.1856 	 -37.2786 	 -111.778
| 19> C 	 36.3921 	 -38.3007 	 -113.491
| 20> H 	 35.3396 	 -38.4647 	 -113.253
| 21> H 	 36.4426 	 -38.2898 	 -114.602
| 22> H 	 36.9361 	 -39.2188 	 -113.232
| 23> S 	 39.0891 	 -31.1926 	 -115.647
| 24> C 	 40.7255 	 -30.4791 	 -115.759
| 25> C 	 41.4826 	 -30.6917 	 -114.609
| 26> C 	 40.8511 	 -31.6348 	 -113.746
| 27> C 	 39.5233 	 -31.9365 	 -114.126
| 28> H 	 42.4377 	 -30.2085 	 -114.559
| 29> C 	 41.4372 	 -32.136 	 -112.44
| 30> H 	 40.7727 	 -32.8294 	 -111.94
| 31> H 	 41.5986 	 -31.3375 	 -111.733
| 32> C 	 42.8318 	 -32.8568 	 -112.619
| 33> H 	 43.0838 	 -33.2786 	 -111.655
| 34> H 	 43.6328 	 -32.1751 	 -112.833
| 35> C 	 42.8051 	 -33.9076 	 -113.732
| 36> H 	 42.8129 	 -33.5363 	 -114.696
| 37> H 	 41.9965 	 -34.6334 	 -113.59
| 38> H 	 43.7702 	 -34.48 	 -113.669
| 39> H 	 36.3743 	 -34.0815 	 -110.871
| 40> H 	 41.068 	 -29.7884 	 -116.458
| 41> *
| 42>
| 43>                          ****END OF INPUT****

CARTESIAN COORDINATES (ANGSTROEM)
---------------------------------
  S     37.909100  -32.269000  -111.831000
  C     36.943400  -33.744600  -111.762000
  C     37.001400  -34.509300  -112.944000
  C     37.852000  -33.847800  -113.907000
  C     38.398700  -32.612300  -113.463000
  H     38.181300  -34.362300  -114.799000
  C     36.244600  -35.799200  -113.144000
  H     36.009700  -35.877300  -114.186000
  H     35.363800  -35.719800  -112.565000
  C     37.060400  -37.111800  -112.830000
  H     38.073500  -36.984700  -113.095000
  H     37.185600  -37.278600  -111.778000
  C     36.392100  -38.300700  -113.491000
  H     35.339600  -38.464700  -113.253000
  H     36.442600  -38.289800  -114.602000
  H     36.936100  -39.218800  -113.232000
  S     39.089100  -31.192600  -115.647000
  C     40.725500  -30.479100  -115.759000
  C     41.482600  -30.691700  -114.609000
  C     40.851100  -31.634800  -113.746000
  C     39.523300  -31.936500  -114.126000
  H     42.437700  -30.208500  -114.559000
  C     41.437200  -32.136000  -112.440000
  H     40.772700  -32.829400  -111.940000
  H     41.598600  -31.337500  -111.733000
  C     42.831800  -32.856800  -112.619000
  H     43.083800  -33.278600  -111.655000
  H     43.632800  -32.175100  -112.833000
  C     42.805100  -33.907600  -113.732000
  H     42.812900  -33.536300  -114.696000
  H     41.996500  -34.633400  -113.590000
  H     43.770200  -34.480000  -113.669000
  H     36.374300  -34.081500  -110.871000
  H     41.068000  -29.788400  -116.458000

 Total Charge           Charge          ....    0
 Multiplicity           Mult            ....    1
 Number of Electrons    NEL             ....  134
 Basis Dimension        Dim             ....  322

ORBITAL ENERGIES
----------------

  NO   OCC          E(Eh)            E(eV)
   0   2.0000     -88.972399     -2421.0621
   1   2.0000     -88.965548     -2420.8756
   2   2.0000     -10.332711      -281.1674
   3   2.0000     -10.327407      -281.0230
   4   2.0000     -10.320021      -280.8220
   5   2.0000     -10.313783      -280.6523
   6   2.0000     -10.305617      -280.4301
   7   2.0000     -10.304861      -280.4095
   8   2.0000     -10.299763      -280.2708
   9   2.0000     -10.295049      -280.1425
  10   2.0000     -10.290784      -280.0265
  11   2.0000     -10.285586      -279.8850
  12   2.0000     -10.285097      -279.8717
  13   2.0000     -10.282205      -279.7930
  14   2.0000     -10.281505      -279.7740
  15   2.0000     -10.268100      -279.4092
  16   2.0000      -8.086249      -220.0380
  17   2.0000      -8.079500      -219.8544
  18   2.0000      -6.044731      -164.4855
  19   2.0000      -6.040737      -164.3768
  20   2.0000      -6.037994      -164.3022
  21   2.0000      -6.037227      -164.2813
  22   2.0000      -6.034107      -164.1964
  23   2.0000      -6.030330      -164.0936
  24   2.0000      -0.999532       -27.1987
  25   2.0000      -0.976418       -26.5697
  26   2.0000      -0.912030       -24.8176
  27   2.0000      -0.900598       -24.5065
  28   2.0000      -0.867157       -23.5965
  29   2.0000      -0.851061       -23.1585
  30   2.0000      -0.839658       -22.8483
  31   2.0000      -0.811332       -22.0775
  32   2.0000      -0.781289       -21.2600
  33   2.0000      -0.768264       -20.9055
  34   2.0000      -0.712670       -19.3927
  35   2.0000      -0.702863       -19.1259
  36   2.0000      -0.692146       -18.8343
  37   2.0000      -0.658875       -17.9289
  38   2.0000      -0.636295       -17.3145
  39   2.0000      -0.617508       -16.8033
  40   2.0000      -0.591447       -16.0941
  41   2.0000      -0.571726       -15.5575
  42   2.0000      -0.559803       -15.2330
  43   2.0000      -0.550045       -14.9675
  44   2.0000      -0.536248       -14.5920
  45   2.0000      -0.525309       -14.2944
  46   2.0000      -0.520504       -14.1636
  47   2.0000      -0.511097       -13.9076
  48   2.0000      -0.498425       -13.5628
  49   2.0000      -0.492698       -13.4070
  50   2.0000      -0.486298       -13.2328
  51   2.0000      -0.475922       -12.9505
  52   2.0000      -0.465875       -12.6771
  53   2.0000      -0.464095       -12.6287
  54   2.0000      -0.458325       -12.4717
  55   2.0000      -0.453700       -12.3458
  56   2.0000      -0.447924       -12.1886
  57   2.0000      -0.440574       -11.9886
  58   2.0000      -0.428262       -11.6536
  59   2.0000      -0.425790       -11.5863
  60   2.0000      -0.422713       -11.5026
  61   2.0000      -0.421344       -11.4653
  62   2.0000      -0.411358       -11.1936
  63   2.0000      -0.339550        -9.2396
  64   2.0000      -0.333322        -9.0701
  65   2.0000      -0.322986        -8.7889
  66   2.0000      -0.291831        -7.9411
  67   0.0000       0.030668         0.8345
  68   0.0000       0.061749         1.6803
  69   0.0000       0.112658         3.0656
  70   0.0000       0.114426         3.1137
  71   0.0000       0.121828         3.3151

MULLIKEN ATOMIC CHARGES
-----------------------
   0 S :    0.127740
   1 C :   -0.144554
   2 C :   -0.116077
   3 C :    0.043397
   4 C :   -0.150421
   5 H :    0.017513
   6 C :    0.097921
   7 H :    0.017496
   8 H :    0.021904
   9 C :   -0.033474
  10 H :    0.016225
  11 H :    0.018482
  12 C :   -0.065871
  13 H :    0.036078
  14 H :    0.033168
  15 H :    0.031287
  16 S :    0.109209
  17 C :   -0.074527
  18 C :   -0.039962
  19 C :   -0.027103
  20 C :   -0.174207
  21 H :    0.022139
  22 C :    0.076284
  23 H :    0.022974
  24 H :    0.030739
  25 C :   -0.081959
  26 H :    0.023219
  27 H :    0.019696
  28 C :   -0.033348
  29 H :    0.026704
  30 H :    0.031206
  31 H :    0.026054
  32 H :    0.059228
  33 H :    0.032839
Sum of atomic charges:   -0.0000000

LOEWDIN ATOMIC CHARGES
----------------------
   0 S :    0.423023
   1 C :   -0.203584
   2 C :   -0.062022
   3 C :   -0.055586
   4 C :   -0.214594
   5 H :    0.029803
   6 C :   -0.021292
   7 H :    0.029896
   8 H :    0.027568
   9 C :   -0.034474
  10 H :    0.020940
  11 H :    0.022280
  12 C :   -0.070478
  13 H :    0.026272
  14 H :    0.027103
  15 H :    0.028384
  16 S :    0.401113
  17 C :   -0.169254
  18 C :   -0.062049
  19 C :   -0.056668
  20 C :   -0.199158
  21 H :    0.032938
  22 C :   -0.032407
  23 H :    0.022672
  24 H :    0.029670
  25 C :   -0.036784
  26 H :    0.022337
  27 H :    0.016976
  28 C :   -0.062692
  29 H :    0.015147
  30 H :    0.025850
  31 H :    0.030825
  32 H :    0.033084
  33 H :    0.015159

  Mayer bond orders larger than 0.100000
B(  0-S ,  1-C ) :   1.1506 B(  0-S ,  4-C ) :   1.1569 B(  1-C ,  2-C ) :   1.5876
B(  1-C , 32-H ) :   0.9611 B(  2-C ,  3-C ) :   1.2765 B(  2-C ,  6-C ) :   1.0302
B(  3-C ,  4-C ) :   1.5380 B(  3-C ,  5-H ) :   0.9862 B(  4-C , 20-C ) :   1.0121
B(  6-C ,  7-H ) :   0.9440 B(  6-C ,  8-H ) :   0.9370 B(  6-C ,  9-C ) :   1.0495
B(  9-C , 10-H ) :   0.9562 B(  9-C , 11-H ) :   0.9519 B(  9-C , 12-C ) :   1.0843
B( 12-C , 13-H ) :   0.9749 B( 12-C , 14-H ) :   0.9748 B( 12-C , 15-H ) :   0.9722
B( 16-S , 17-C ) :   1.1456 B( 16-S , 20-C ) :   1.1509 B( 17-C , 18-C ) :   1.6313
B( 17-C , 20-C ) :   0.1023 B( 17-C , 33-H ) :   0.9707 B( 18-C , 19-C ) :   1.2167
B( 18-C , 21-H ) :   0.9922 B( 19-C , 20-C ) :   1.5853 B( 19-C , 22-C ) :   1.0478
B( 22-C , 23-H ) :   0.9354 B( 22-C , 24-H ) :   0.9390 B( 22-C , 25-C ) :   1.0661
B( 25-C , 26-H ) :   0.9597 B( 25-C , 27-H ) :   0.9557 B( 25-C , 28-C ) :   1.0824
B( 28-C , 29-H ) :   0.9707 B( 28-C , 30-H ) :   0.9779 B( 28-C , 31-H ) :   0.9716

Dispersion correction           -0.014516046
FINAL SINGLE POINT ENERGY     -1339.878172713259

DIPOLE MOMENT
-------------
                                X             Y             Z
Electronic contribution:     -6.99577      23.81343      -3.53175
Nuclear contribution   :      7.22584     -24.27994       3.73258
                        -----------------------------------------
Total Dipole Moment    :      0.23007      -0.46650       0.20084
                        -----------------------------------------
Magnitude (a.u.)       :      0.55758
Magnitude (Debye)      :      1.41725

Rotational constants in cm-1:     0.019589     0.007690     0.007097
Rotational constants in MHz :   587.269039   230.548912   212.771801

                             ****ORCA TERMINATED NORMALLY****
TOTAL RUN TIME: 0 days 0 hours 0 minutes 21 seconds 471 msec
