                         Program Version 4.2.1 -  RELEASE  -
|  1> ! wB97X-D3 SP def2-SVP
|  2> %pal
|  3> nprocs 24
|  4> end
|  5>
|  6> * xyz 0 1
|  7> S 	 -111.243 	 65.1587 	 -73.8286
|  8> C 	 -109.699 	 64.3515 	 -73.7998
|  9> C 	 -109.542 	 63.4195 	 -74.8043
| 10> C 	 -110.716 	 63.3573 	 -75.625
| 11> C 	 -111.769 	 64.2302 	 -75.2335
| 12> H 	 -110.952 	 62.7579 	 -76.4613
| 13> C 	 -108.342 	 62.4835 	 -75.0021
| 14> H 	 -107.597 	 62.8294 	 -74.3031
| 15> H 	 -108.086 	 62.4743 	 -76.0449
| 16> C 	 -108.732 	 61.0202 	 -74.5324
| 17> H 	 -107.852 	 60.4025 	 -74.6548
| 18> H 	 -108.939 	 61.0145 	 -73.4981
| 19> C 	 -109.88 	 60.3447 	 -75.3795
| 20> H 	 -109.91 	 59.2617 	 -75.242
| 21> H 	 -110.838 	 60.7282 	 -75.1749
| 22> H 	 -109.604 	 60.4812 	 -76.372
| 23> S 	 -114.294 	 64.2141 	 -74.3595
| 24> C 	 -115.63 	 64.17 	 -75.4283
| 25> C 	 -115.247 	 64.0224 	 -76.7167
| 26> C 	 -113.818 	 64.0543 	 -76.8661
| 27> C 	 -113.136 	 64.23 	 -75.6739
| 28> H 	 -116 	 64.104 	 -77.4414
| 29> C 	 -113.211 	 63.9868 	 -78.2494
| 30> H 	 -113.536 	 62.964 	 -78.6427
| 31> H 	 -112.187 	 63.8986 	 -78.1646
| 32> C 	 -113.725 	 65.082 	 -79.1867
| 33> H 	 -114.777 	 65.1993 	 -79.377
| 34> H 	 -113.167 	 64.7758 	 -80.1245
| 35> C 	 -113.23 	 66.4716 	 -78.7717
| 36> H 	 -112.134 	 66.561 	 -78.9158
| 37> H 	 -113.582 	 66.8051 	 -77.7628
| 38> H 	 -113.691 	 67.1876 	 -79.4372
| 39> H 	 -108.77 	 64.5142 	 -73.2884
| 40> H 	 -116.652 	 64.2755 	 -75.1253
| 41> *
| 42>
| 43>                          ****END OF INPUT****

CARTESIAN COORDINATES (ANGSTROEM)
---------------------------------
  S    -111.243000   65.158700  -73.828600
  C    -109.699000   64.351500  -73.799800
  C    -109.542000   63.419500  -74.804300
  C    -110.716000   63.357300  -75.625000
  C    -111.769000   64.230200  -75.233500
  H    -110.952000   62.757900  -76.461300
  C    -108.342000   62.483500  -75.002100
  H    -107.597000   62.829400  -74.303100
  H    -108.086000   62.474300  -76.044900
  C    -108.732000   61.020200  -74.532400
  H    -107.852000   60.402500  -74.654800
  H    -108.939000   61.014500  -73.498100
  C    -109.880000   60.344700  -75.379500
  H    -109.910000   59.261700  -75.242000
  H    -110.838000   60.728200  -75.174900
  H    -109.604000   60.481200  -76.372000
  S    -114.294000   64.214100  -74.359500
  C    -115.630000   64.170000  -75.428300
  C    -115.247000   64.022400  -76.716700
  C    -113.818000   64.054300  -76.866100
  C    -113.136000   64.230000  -75.673900
  H    -116.000000   64.104000  -77.441400
  C    -113.211000   63.986800  -78.249400
  H    -113.536000   62.964000  -78.642700
  H    -112.187000   63.898600  -78.164600
  C    -113.725000   65.082000  -79.186700
  H    -114.777000   65.199300  -79.377000
  H    -113.167000   64.775800  -80.124500
  C    -113.230000   66.471600  -78.771700
  H    -112.134000   66.561000  -78.915800
  H    -113.582000   66.805100  -77.762800
  H    -113.691000   67.187600  -79.437200
  H    -108.770000   64.514200  -73.288400
  H    -116.652000   64.275500  -75.125300

 Total Charge           Charge          ....    0
 Multiplicity           Mult            ....    1
 Number of Electrons    NEL             ....  134
 Basis Dimension        Dim             ....  322

ORBITAL ENERGIES
----------------

  NO   OCC          E(Eh)            E(eV)
   0   2.0000     -88.970249     -2421.0036
   1   2.0000     -88.958296     -2420.6783
   2   2.0000     -10.332169      -281.1526
   3   2.0000     -10.324327      -280.9392
   4   2.0000     -10.310569      -280.5649
   5   2.0000     -10.308871      -280.5186
   6   2.0000     -10.301839      -280.3273
   7   2.0000     -10.300716      -280.2967
   8   2.0000     -10.297699      -280.2146
   9   2.0000     -10.293599      -280.1031
  10   2.0000     -10.290474      -280.0180
  11   2.0000     -10.290153      -280.0093
  12   2.0000     -10.287037      -279.9245
  13   2.0000     -10.285301      -279.8773
  14   2.0000     -10.275420      -279.6084
  15   2.0000     -10.270237      -279.4674
  16   2.0000      -8.084245      -219.9835
  17   2.0000      -8.074225      -219.7108
  18   2.0000      -6.042897      -164.4356
  19   2.0000      -6.038782      -164.3236
  20   2.0000      -6.034949      -164.2193
  21   2.0000      -6.032759      -164.1597
  22   2.0000      -6.028492      -164.0436
  23   2.0000      -6.024952      -163.9473
  24   2.0000      -1.009295       -27.4643
  25   2.0000      -0.984217       -26.7819
  26   2.0000      -0.911901       -24.8141
  27   2.0000      -0.907953       -24.7067
  28   2.0000      -0.873013       -23.7559
  29   2.0000      -0.847662       -23.0660
  30   2.0000      -0.839532       -22.8448
  31   2.0000      -0.817545       -22.2465
  32   2.0000      -0.786560       -21.4034
  33   2.0000      -0.775346       -21.0982
  34   2.0000      -0.710875       -19.3439
  35   2.0000      -0.705096       -19.1866
  36   2.0000      -0.694490       -18.8980
  37   2.0000      -0.659625       -17.9493
  38   2.0000      -0.637681       -17.3522
  39   2.0000      -0.616810       -16.7842
  40   2.0000      -0.601265       -16.3612
  41   2.0000      -0.578583       -15.7440
  42   2.0000      -0.555040       -15.1034
  43   2.0000      -0.549729       -14.9589
  44   2.0000      -0.536401       -14.5962
  45   2.0000      -0.534042       -14.5320
  46   2.0000      -0.523665       -14.2496
  47   2.0000      -0.516188       -14.0462
  48   2.0000      -0.507263       -13.8033
  49   2.0000      -0.495281       -13.4773
  50   2.0000      -0.490805       -13.3555
  51   2.0000      -0.476089       -12.9550
  52   2.0000      -0.470846       -12.8124
  53   2.0000      -0.463283       -12.6066
  54   2.0000      -0.461559       -12.5597
  55   2.0000      -0.446161       -12.1407
  56   2.0000      -0.441818       -12.0225
  57   2.0000      -0.436487       -11.8774
  58   2.0000      -0.434292       -11.8177
  59   2.0000      -0.429962       -11.6999
  60   2.0000      -0.422837       -11.5060
  61   2.0000      -0.419367       -11.4116
  62   2.0000      -0.403751       -10.9866
  63   2.0000      -0.354815        -9.6550
  64   2.0000      -0.330107        -8.9827
  65   2.0000      -0.326004        -8.8710
  66   2.0000      -0.285780        -7.7765
  67   0.0000       0.027326         0.7436
  68   0.0000       0.079289         2.1576
  69   0.0000       0.114383         3.1125
  70   0.0000       0.116926         3.1817
  71   0.0000       0.137323         3.7367

MULLIKEN ATOMIC CHARGES
-----------------------
   0 S :    0.124351
   1 C :   -0.083829
   2 C :   -0.133770
   3 C :    0.041096
   4 C :   -0.170225
   5 H :   -0.005967
   6 C :    0.097033
   7 H :    0.016019
   8 H :    0.035408
   9 C :   -0.071795
  10 H :    0.026902
  11 H :    0.022183
  12 C :   -0.029901
  13 H :    0.031427
  14 H :    0.046884
  15 H :    0.010407
  16 S :    0.087637
  17 C :   -0.077806
  18 C :   -0.016160
  19 C :   -0.077378
  20 C :   -0.127530
  21 H :   -0.000682
  22 C :    0.113903
  23 H :    0.036904
  24 H :   -0.010260
  25 C :   -0.092028
  26 H :    0.038809
  27 H :    0.036870
  28 C :   -0.060272
  29 H :    0.038969
  30 H :    0.050624
  31 H :    0.021971
  32 H :    0.031974
  33 H :    0.048230
Sum of atomic charges:    0.0000000

LOEWDIN ATOMIC CHARGES
----------------------
   0 S :    0.409809
   1 C :   -0.210073
   2 C :   -0.061483
   3 C :   -0.056991
   4 C :   -0.193710
   5 H :    0.019655
   6 C :   -0.018615
   7 H :    0.028844
   8 H :    0.029182
   9 C :   -0.025953
  10 H :    0.021571
  11 H :    0.017111
  12 C :   -0.056285
  13 H :    0.029488
  14 H :    0.020777
  15 H :    0.014056
  16 S :    0.409722
  17 C :   -0.184127
  18 C :   -0.070938
  19 C :   -0.056692
  20 C :   -0.201338
  21 H :    0.023787
  22 C :   -0.028632
  23 H :    0.040982
  24 H :    0.014611
  25 C :   -0.041639
  26 H :    0.022996
  27 H :    0.034577
  28 C :   -0.069726
  29 H :    0.028469
  30 H :    0.031696
  31 H :    0.021881
  32 H :    0.030097
  33 H :    0.026891

  Mayer bond orders larger than 0.100000
B(  0-S ,  1-C ) :   1.1288 B(  0-S ,  4-C ) :   1.1456 B(  1-C ,  2-C ) :   1.6336
B(  1-C , 32-H ) :   0.9548 B(  2-C ,  3-C ) :   1.2392 B(  2-C ,  6-C ) :   1.0268
B(  3-C ,  4-C ) :   1.5547 B(  3-C ,  5-H ) :   0.9892 B(  4-C , 20-C ) :   1.0651
B(  6-C ,  7-H ) :   0.9336 B(  6-C ,  8-H ) :   0.9415 B(  6-C ,  9-C ) :   1.0746
B(  9-C , 10-H ) :   0.9594 B(  9-C , 11-H ) :   0.9568 B(  9-C , 12-C ) :   1.0767
B( 12-C , 13-H ) :   0.9711 B( 12-C , 14-H ) :   0.9715 B( 12-C , 15-H ) :   0.9739
B( 16-S , 17-C ) :   1.1587 B( 16-S , 20-C ) :   1.1267 B( 17-C , 18-C ) :   1.6286
B( 17-C , 33-H ) :   0.9673 B( 18-C , 19-C ) :   1.2118 B( 18-C , 21-H ) :   1.0006
B( 19-C , 20-C ) :   1.6010 B( 19-C , 22-C ) :   1.0460 B( 22-C , 23-H ) :   0.9296
B( 22-C , 24-H ) :   0.9309 B( 22-C , 25-C ) :   1.0634 B( 25-C , 26-H ) :   0.9621
B( 25-C , 27-H ) :   0.9527 B( 25-C , 28-C ) :   1.0785 B( 28-C , 29-H ) :   0.9755
B( 28-C , 30-H ) :   0.9726 B( 28-C , 31-H ) :   0.9733

Dispersion correction           -0.014789963
FINAL SINGLE POINT ENERGY     -1339.866357645374

DIPOLE MOMENT
-------------
                                X             Y             Z
Electronic contribution:     -8.86449       9.04847      17.22508
Nuclear contribution   :      9.01314      -9.38322     -17.77077
                        -----------------------------------------
Total Dipole Moment    :      0.14865      -0.33475      -0.54569
                        -----------------------------------------
Magnitude (a.u.)       :      0.65722
Magnitude (Debye)      :      1.67051

Rotational constants in cm-1:     0.019636     0.008603     0.007843
Rotational constants in MHz :   588.678085   257.908497   235.115846

                             ****ORCA TERMINATED NORMALLY****
TOTAL RUN TIME: 0 days 0 hours 0 minutes 22 seconds 304 msec
