                         Program Version 4.2.1 -  RELEASE  -
|  1> ! wB97X-D3 SP def2-SVP
|  2> %pal
|  3> nprocs 24
|  4> end
|  5>
|  6> * xyz 0 1
|  7> S 	 -109.379 	 21.719 	 -107.891
|  8> C 	 -107.819 	 21.1287 	 -108.315
|  9> C 	 -107.465 	 21.4189 	 -109.573
| 10> C 	 -108.539 	 22.0325 	 -110.278
| 11> C 	 -109.647 	 22.2682 	 -109.533
| 12> H 	 -108.485 	 22.1511 	 -111.353
| 13> C 	 -106.187 	 21.0945 	 -110.211
| 14> H 	 -106.405 	 20.4336 	 -111.052
| 15> H 	 -105.757 	 20.3818 	 -109.493
| 16> C 	 -105.171 	 22.2791 	 -110.4
| 17> H 	 -105.167 	 22.8678 	 -109.437
| 18> H 	 -104.138 	 21.9486 	 -110.408
| 19> C 	 -105.488 	 23.2675 	 -111.541
| 20> H 	 -105.385 	 22.7581 	 -112.564
| 21> H 	 -106.597 	 23.5499 	 -111.416
| 22> H 	 -104.933 	 24.1707 	 -111.661
| 23> S 	 -111.419 	 24.2399 	 -108.838
| 24> C 	 -112.303 	 25.0907 	 -110.1
| 25> C 	 -112.296 	 24.2944 	 -111.239
| 26> C 	 -111.43 	 23.1641 	 -111.153
| 27> C 	 -110.825 	 23.033 	 -109.936
| 28> H 	 -112.914 	 24.5331 	 -112.101
| 29> C 	 -111.162 	 22.2803 	 -112.399
| 30> H 	 -112.105 	 21.7499 	 -112.439
| 31> H 	 -110.463 	 21.5486 	 -112.217
| 32> C 	 -110.937 	 22.8986 	 -113.754
| 33> H 	 -111.841 	 23.5334 	 -113.958
| 34> H 	 -110.89 	 22.088 	 -114.51
| 35> C 	 -109.612 	 23.6383 	 -113.812
| 36> H 	 -109.449 	 24.4276 	 -113.117
| 37> H 	 -109.359 	 24.0647 	 -114.784
| 38> H 	 -108.797 	 22.9637 	 -113.566
| 39> H 	 -107.186 	 20.7022 	 -107.591
| 40> H 	 -112.844 	 26.0317 	 -109.932
| 41> *
| 42>
| 43>                          ****END OF INPUT****

CARTESIAN COORDINATES (ANGSTROEM)
---------------------------------
  S    -109.379000   21.719000  -107.891000
  C    -107.819000   21.128700  -108.315000
  C    -107.465000   21.418900  -109.573000
  C    -108.539000   22.032500  -110.278000
  C    -109.647000   22.268200  -109.533000
  H    -108.485000   22.151100  -111.353000
  C    -106.187000   21.094500  -110.211000
  H    -106.405000   20.433600  -111.052000
  H    -105.757000   20.381800  -109.493000
  C    -105.171000   22.279100  -110.400000
  H    -105.167000   22.867800  -109.437000
  H    -104.138000   21.948600  -110.408000
  C    -105.488000   23.267500  -111.541000
  H    -105.385000   22.758100  -112.564000
  H    -106.597000   23.549900  -111.416000
  H    -104.933000   24.170700  -111.661000
  S    -111.419000   24.239900  -108.838000
  C    -112.303000   25.090700  -110.100000
  C    -112.296000   24.294400  -111.239000
  C    -111.430000   23.164100  -111.153000
  C    -110.825000   23.033000  -109.936000
  H    -112.914000   24.533100  -112.101000
  C    -111.162000   22.280300  -112.399000
  H    -112.105000   21.749900  -112.439000
  H    -110.463000   21.548600  -112.217000
  C    -110.937000   22.898600  -113.754000
  H    -111.841000   23.533400  -113.958000
  H    -110.890000   22.088000  -114.510000
  C    -109.612000   23.638300  -113.812000
  H    -109.449000   24.427600  -113.117000
  H    -109.359000   24.064700  -114.784000
  H    -108.797000   22.963700  -113.566000
  H    -107.186000   20.702200  -107.591000
  H    -112.844000   26.031700  -109.932000

 Total Charge           Charge          ....    0
 Multiplicity           Mult            ....    1
 Number of Electrons    NEL             ....  134
 Basis Dimension        Dim             ....  322

ORBITAL ENERGIES
----------------

  NO   OCC          E(Eh)            E(eV)
   0   2.0000     -88.963148     -2420.8103
   1   2.0000     -88.961655     -2420.7697
   2   2.0000     -10.327839      -281.0348
   3   2.0000     -10.323071      -280.9050
   4   2.0000     -10.322987      -280.9028
   5   2.0000     -10.303772      -280.3799
   6   2.0000     -10.302464      -280.3443
   7   2.0000     -10.297130      -280.1992
   8   2.0000     -10.296822      -280.1908
   9   2.0000     -10.293798      -280.1085
  10   2.0000     -10.293688      -280.1055
  11   2.0000     -10.289612      -279.9946
  12   2.0000     -10.287448      -279.9357
  13   2.0000     -10.286783      -279.9176
  14   2.0000     -10.283816      -279.8369
  15   2.0000     -10.273229      -279.5488
  16   2.0000      -8.078788      -219.8350
  17   2.0000      -8.076874      -219.7829
  18   2.0000      -6.037285      -164.2829
  19   2.0000      -6.035437      -164.2326
  20   2.0000      -6.033245      -164.1729
  21   2.0000      -6.031314      -164.1204
  22   2.0000      -6.029452      -164.0697
  23   2.0000      -6.027528      -164.0174
  24   2.0000      -1.013768       -27.5860
  25   2.0000      -0.991019       -26.9670
  26   2.0000      -0.914890       -24.8954
  27   2.0000      -0.911177       -24.7944
  28   2.0000      -0.871018       -23.7016
  29   2.0000      -0.850958       -23.1557
  30   2.0000      -0.843745       -22.9595
  31   2.0000      -0.819817       -22.3084
  32   2.0000      -0.787226       -21.4215
  33   2.0000      -0.775768       -21.1097
  34   2.0000      -0.707982       -19.2652
  35   2.0000      -0.704512       -19.1707
  36   2.0000      -0.698862       -19.0170
  37   2.0000      -0.662133       -18.0176
  38   2.0000      -0.642451       -17.4820
  39   2.0000      -0.624123       -16.9832
  40   2.0000      -0.601102       -16.3568
  41   2.0000      -0.569018       -15.4838
  42   2.0000      -0.554586       -15.0910
  43   2.0000      -0.550103       -14.9691
  44   2.0000      -0.546652       -14.8752
  45   2.0000      -0.534473       -14.5437
  46   2.0000      -0.519500       -14.1363
  47   2.0000      -0.510192       -13.8830
  48   2.0000      -0.506159       -13.7733
  49   2.0000      -0.502471       -13.6729
  50   2.0000      -0.491500       -13.3744
  51   2.0000      -0.487860       -13.2753
  52   2.0000      -0.470522       -12.8036
  53   2.0000      -0.465618       -12.6701
  54   2.0000      -0.462449       -12.5839
  55   2.0000      -0.443631       -12.0718
  56   2.0000      -0.443186       -12.0597
  57   2.0000      -0.438514       -11.9326
  58   2.0000      -0.432852       -11.7785
  59   2.0000      -0.425165       -11.5693
  60   2.0000      -0.421174       -11.4607
  61   2.0000      -0.413166       -11.2428
  62   2.0000      -0.410292       -11.1646
  63   2.0000      -0.358292        -9.7496
  64   2.0000      -0.333116        -9.0645
  65   2.0000      -0.325549        -8.8586
  66   2.0000      -0.289794        -7.8857
  67   0.0000       0.031945         0.8693
  68   0.0000       0.073989         2.0133
  69   0.0000       0.110546         3.0081
  70   0.0000       0.123298         3.3551
  71   0.0000       0.128832         3.5057

MULLIKEN ATOMIC CHARGES
-----------------------
   0 S :    0.102514
   1 C :   -0.104793
   2 C :   -0.098485
   3 C :    0.022726
   4 C :   -0.122117
   5 H :   -0.013557
   6 C :    0.068193
   7 H :    0.035861
   8 H :    0.008383
   9 C :   -0.046679
  10 H :    0.031677
  11 H :    0.031025
  12 C :   -0.087543
  13 H :    0.034106
  14 H :    0.045454
  15 H :    0.039020
  16 S :    0.091063
  17 C :   -0.108956
  18 C :   -0.035287
  19 C :   -0.062615
  20 C :   -0.118540
  21 H :    0.023507
  22 C :    0.085856
  23 H :    0.031062
  24 H :   -0.004975
  25 C :   -0.053681
  26 H :    0.032173
  27 H :    0.037007
  28 C :   -0.041675
  29 H :    0.031445
  30 H :    0.029806
  31 H :    0.020799
  32 H :    0.024625
  33 H :    0.072600
Sum of atomic charges:   -0.0000000

LOEWDIN ATOMIC CHARGES
----------------------
   0 S :    0.405776
   1 C :   -0.190513
   2 C :   -0.071452
   3 C :   -0.065445
   4 C :   -0.183101
   5 H :    0.024691
   6 C :   -0.034920
   7 H :    0.034219
   8 H :    0.035577
   9 C :   -0.041064
  10 H :    0.033499
  11 H :    0.022340
  12 C :   -0.080451
  13 H :    0.028799
  14 H :    0.035621
  15 H :    0.022027
  16 S :    0.400718
  17 C :   -0.180006
  18 C :   -0.072775
  19 C :   -0.057439
  20 C :   -0.201982
  21 H :    0.031123
  22 C :   -0.027416
  23 H :    0.039210
  24 H :    0.014334
  25 C :   -0.038146
  26 H :    0.025543
  27 H :    0.032739
  28 C :   -0.068612
  29 H :    0.023176
  30 H :    0.026664
  31 H :    0.022908
  32 H :    0.018052
  33 H :    0.036306

  Mayer bond orders larger than 0.100000
B(  0-S ,  1-C ) :   1.1314 B(  0-S ,  4-C ) :   1.1450 B(  1-C ,  2-C ) :   1.6387
B(  1-C , 32-H ) :   0.9663 B(  2-C ,  3-C ) :   1.2413 B(  2-C ,  6-C ) :   1.0278
B(  3-C ,  4-C ) :   1.5801 B(  3-C ,  5-H ) :   0.9841 B(  4-C , 20-C ) :   1.0270
B(  6-C ,  7-H ) :   0.9394 B(  6-C ,  8-H ) :   0.9296 B(  6-C ,  9-C ) :   1.0489
B(  9-C , 10-H ) :   0.9525 B(  9-C , 11-H ) :   0.9602 B(  9-C , 12-C ) :   1.0675
B( 12-C , 13-H ) :   0.9757 B( 12-C , 14-H ) :   0.9699 B( 12-C , 15-H ) :   0.9751
B( 16-S , 17-C ) :   1.1574 B( 16-S , 20-C ) :   1.1329 B( 17-C , 18-C ) :   1.5873
B( 17-C , 33-H ) :   0.9700 B( 18-C , 19-C ) :   1.2428 B( 18-C , 21-H ) :   0.9913
B( 19-C , 20-C ) :   1.6155 B( 19-C , 22-C ) :   1.0186 B( 22-C , 23-H ) :   0.9221
B( 22-C , 24-H ) :   0.9376 B( 22-C , 25-C ) :   1.0919 B( 25-C , 26-H ) :   0.9476
B( 25-C , 27-H ) :   0.9487 B( 25-C , 28-C ) :   1.0770 B( 28-C , 29-H ) :   0.9770
B( 28-C , 30-H ) :   0.9712 B( 28-C , 31-H ) :   0.9644

Dispersion correction           -0.015462932
FINAL SINGLE POINT ENERGY     -1339.879029483615

DIPOLE MOMENT
-------------
                                X             Y             Z
Electronic contribution:    -16.21126       0.13024      24.13526
Nuclear contribution   :     16.51704      -0.15657     -24.76387
                        -----------------------------------------
Total Dipole Moment    :      0.30578      -0.02633      -0.62861
                        -----------------------------------------
Magnitude (a.u.)       :      0.69953
Magnitude (Debye)      :      1.77807

Rotational constants in cm-1:     0.017243     0.010523     0.007616
Rotational constants in MHz :   516.940165   315.482152   228.325292

                             ****ORCA TERMINATED NORMALLY****
TOTAL RUN TIME: 0 days 0 hours 0 minutes 23 seconds 29 msec
