                         Program Version 4.2.1 -  RELEASE  -
|  1> ! wB97X-D3 SP def2-SVP
|  2> %pal
|  3> nprocs 24
|  4> end
|  5>
|  6> * xyz 0 1
|  7> S 	 -109.751 	 69.2122 	 -9.56668
|  8> C 	 -109.114 	 70.4014 	 -10.7119
|  9> C 	 -108.847 	 69.8581 	 -11.9724
| 10> C 	 -109.103 	 68.4418 	 -12.014
| 11> C 	 -109.599 	 67.9764 	 -10.8159
| 12> H 	 -108.881 	 67.8085 	 -12.8486
| 13> C 	 -108.21 	 70.6646 	 -13.1118
| 14> H 	 -107.79 	 70.0523 	 -13.9776
| 15> H 	 -107.388 	 71.2627 	 -12.6481
| 16> C 	 -109.226 	 71.5873 	 -13.6954
| 17> H 	 -110.157 	 71.1745 	 -14.0341
| 18> H 	 -109.573 	 72.1457 	 -12.8646
| 19> C 	 -108.679 	 72.4575 	 -14.7977
| 20> H 	 -109.27 	 73.3475 	 -14.9822
| 21> H 	 -107.727 	 72.9523 	 -14.5493
| 22> H 	 -108.57 	 72.0099 	 -15.7798
| 23> S 	 -108.709 	 65.9384 	 -9.29392
| 24> C 	 -109.515 	 64.3993 	 -9.31846
| 25> C 	 -110.509 	 64.3691 	 -10.2586
| 26> C 	 -110.59 	 65.5803 	 -10.9651
| 27> C 	 -109.749 	 66.5355 	 -10.5477
| 28> H 	 -111.03 	 63.4429 	 -10.3824
| 29> C 	 -111.573 	 65.6823 	 -12.0795
| 30> H 	 -111.457 	 64.8959 	 -12.8073
| 31> H 	 -111.375 	 66.6053 	 -12.6843
| 32> C 	 -113.041 	 65.6978 	 -11.5641
| 33> H 	 -113.348 	 64.6943 	 -11.0822
| 34> H 	 -113.622 	 65.8019 	 -12.4169
| 35> C 	 -113.318 	 66.8612 	 -10.5083
| 36> H 	 -112.791 	 66.8582 	 -9.57297
| 37> H 	 -114.351 	 66.9307 	 -10.1933
| 38> H 	 -113.115 	 67.824 	 -11.0152
| 39> H 	 -108.882 	 71.4264 	 -10.4609
| 40> H 	 -109.223 	 63.5288 	 -8.71961
| 41> *
| 42>
| 43>                          ****END OF INPUT****

CARTESIAN COORDINATES (ANGSTROEM)
---------------------------------
  S    -109.751000   69.212200   -9.566680
  C    -109.114000   70.401400  -10.711900
  C    -108.847000   69.858100  -11.972400
  C    -109.103000   68.441800  -12.014000
  C    -109.599000   67.976400  -10.815900
  H    -108.881000   67.808500  -12.848600
  C    -108.210000   70.664600  -13.111800
  H    -107.790000   70.052300  -13.977600
  H    -107.388000   71.262700  -12.648100
  C    -109.226000   71.587300  -13.695400
  H    -110.157000   71.174500  -14.034100
  H    -109.573000   72.145700  -12.864600
  C    -108.679000   72.457500  -14.797700
  H    -109.270000   73.347500  -14.982200
  H    -107.727000   72.952300  -14.549300
  H    -108.570000   72.009900  -15.779800
  S    -108.709000   65.938400   -9.293920
  C    -109.515000   64.399300   -9.318460
  C    -110.509000   64.369100  -10.258600
  C    -110.590000   65.580300  -10.965100
  C    -109.749000   66.535500  -10.547700
  H    -111.030000   63.442900  -10.382400
  C    -111.573000   65.682300  -12.079500
  H    -111.457000   64.895900  -12.807300
  H    -111.375000   66.605300  -12.684300
  C    -113.041000   65.697800  -11.564100
  H    -113.348000   64.694300  -11.082200
  H    -113.622000   65.801900  -12.416900
  C    -113.318000   66.861200  -10.508300
  H    -112.791000   66.858200   -9.572970
  H    -114.351000   66.930700  -10.193300
  H    -113.115000   67.824000  -11.015200
  H    -108.882000   71.426400  -10.460900
  H    -109.223000   63.528800   -8.719610

 Total Charge           Charge          ....    0
 Multiplicity           Mult            ....    1
 Number of Electrons    NEL             ....  134
 Basis Dimension        Dim             ....  322

ORBITAL ENERGIES
----------------

  NO   OCC          E(Eh)            E(eV)
   0   2.0000     -88.972418     -2421.0626
   1   2.0000     -88.958655     -2420.6881
   2   2.0000     -10.329755      -281.0869
   3   2.0000     -10.316561      -280.7279
   4   2.0000     -10.315866      -280.7090
   5   2.0000     -10.312532      -280.6182
   6   2.0000     -10.304374      -280.3963
   7   2.0000     -10.298981      -280.2495
   8   2.0000     -10.293844      -280.1097
   9   2.0000     -10.291599      -280.0487
  10   2.0000     -10.290796      -280.0268
  11   2.0000     -10.288475      -279.9636
  12   2.0000     -10.285009      -279.8693
  13   2.0000     -10.276325      -279.6330
  14   2.0000     -10.274397      -279.5806
  15   2.0000     -10.272700      -279.5344
  16   2.0000      -8.086109      -220.0342
  17   2.0000      -8.074394      -219.7154
  18   2.0000      -6.044705      -164.4848
  19   2.0000      -6.040813      -164.3789
  20   2.0000      -6.036794      -164.2695
  21   2.0000      -6.032854      -164.1623
  22   2.0000      -6.028756      -164.0508
  23   2.0000      -6.025139      -163.9524
  24   2.0000      -1.010585       -27.4994
  25   2.0000      -0.983957       -26.7748
  26   2.0000      -0.918278       -24.9876
  27   2.0000      -0.902872       -24.5684
  28   2.0000      -0.868143       -23.6234
  29   2.0000      -0.850087       -23.1320
  30   2.0000      -0.839405       -22.8414
  31   2.0000      -0.814255       -22.1570
  32   2.0000      -0.781033       -21.2530
  33   2.0000      -0.771767       -21.0008
  34   2.0000      -0.704502       -19.1705
  35   2.0000      -0.703555       -19.1447
  36   2.0000      -0.692105       -18.8331
  37   2.0000      -0.662866       -18.0375
  38   2.0000      -0.642198       -17.4751
  39   2.0000      -0.619325       -16.8527
  40   2.0000      -0.596030       -16.2188
  41   2.0000      -0.575721       -15.6662
  42   2.0000      -0.560703       -15.2575
  43   2.0000      -0.545114       -14.8333
  44   2.0000      -0.536653       -14.6031
  45   2.0000      -0.518961       -14.1216
  46   2.0000      -0.517953       -14.0942
  47   2.0000      -0.505490       -13.7551
  48   2.0000      -0.504852       -13.7377
  49   2.0000      -0.495252       -13.4765
  50   2.0000      -0.490279       -13.3412
  51   2.0000      -0.473462       -12.8836
  52   2.0000      -0.470352       -12.7989
  53   2.0000      -0.462487       -12.5849
  54   2.0000      -0.454342       -12.3633
  55   2.0000      -0.451718       -12.2919
  56   2.0000      -0.446350       -12.1458
  57   2.0000      -0.436927       -11.8894
  58   2.0000      -0.435271       -11.8443
  59   2.0000      -0.428525       -11.6607
  60   2.0000      -0.419066       -11.4034
  61   2.0000      -0.411161       -11.1883
  62   2.0000      -0.407849       -11.0981
  63   2.0000      -0.343086        -9.3358
  64   2.0000      -0.330763        -9.0005
  65   2.0000      -0.327163        -8.9025
  66   2.0000      -0.298366        -8.1189
  67   0.0000       0.038395         1.0448
  68   0.0000       0.067079         1.8253
  69   0.0000       0.112675         3.0660
  70   0.0000       0.125038         3.4025
  71   0.0000       0.128746         3.5034

MULLIKEN ATOMIC CHARGES
-----------------------
   0 S :    0.130239
   1 C :   -0.135285
   2 C :   -0.071643
   3 C :    0.044229
   4 C :   -0.141785
   5 H :    0.013423
   6 C :    0.036136
   7 H :    0.037297
   8 H :    0.041786
   9 C :   -0.042756
  10 H :    0.021366
  11 H :    0.002069
  12 C :   -0.034002
  13 H :    0.021082
  14 H :    0.015783
  15 H :    0.034160
  16 S :    0.100553
  17 C :   -0.101622
  18 C :   -0.037473
  19 C :   -0.002161
  20 C :   -0.187878
  21 H :    0.011450
  22 C :    0.064972
  23 H :    0.025940
  24 H :    0.020635
  25 C :   -0.068992
  26 H :    0.039000
  27 H :    0.017910
  28 C :   -0.060945
  29 H :    0.041660
  30 H :    0.026441
  31 H :    0.031759
  32 H :    0.047100
  33 H :    0.059552
Sum of atomic charges:    0.0000000

LOEWDIN ATOMIC CHARGES
----------------------
   0 S :    0.400651
   1 C :   -0.197958
   2 C :   -0.054915
   3 C :   -0.053778
   4 C :   -0.190062
   5 H :    0.031629
   6 C :   -0.032609
   7 H :    0.034962
   8 H :    0.037497
   9 C :   -0.046722
  10 H :    0.025876
  11 H :    0.018928
  12 C :   -0.071376
  13 H :    0.027098
  14 H :    0.024878
  15 H :    0.024796
  16 S :    0.409505
  17 C :   -0.184173
  18 C :   -0.070321
  19 C :   -0.063838
  20 C :   -0.202617
  21 H :    0.031113
  22 C :   -0.032136
  23 H :    0.028912
  24 H :    0.031399
  25 C :   -0.031012
  26 H :    0.028067
  27 H :    0.013510
  28 C :   -0.070489
  29 H :    0.024347
  30 H :    0.023948
  31 H :    0.028130
  32 H :    0.024553
  33 H :    0.032208

  Mayer bond orders larger than 0.100000
B(  0-S ,  1-C ) :   1.1287 B(  0-S ,  4-C ) :   1.1476 B(  1-C ,  2-C ) :   1.6157
B(  1-C , 32-H ) :   0.9643 B(  2-C ,  3-C ) :   1.2415 B(  2-C ,  6-C ) :   1.0103
B(  3-C ,  4-C ) :   1.5813 B(  3-C ,  5-H ) :   0.9964 B(  4-C , 20-C ) :   1.0027
B(  6-C ,  7-H ) :   0.9519 B(  6-C ,  8-H ) :   0.9399 B(  6-C ,  9-C ) :   1.0607
B(  9-C , 10-H ) :   0.9507 B(  9-C , 11-H ) :   0.9504 B(  9-C , 12-C ) :   1.0890
B( 12-C , 13-H ) :   0.9695 B( 12-C , 14-H ) :   0.9689 B( 12-C , 15-H ) :   0.9741
B( 16-S , 17-C ) :   1.1581 B( 16-S , 20-C ) :   1.1387 B( 17-C , 18-C ) :   1.6201
B( 17-C , 33-H ) :   0.9642 B( 18-C , 19-C ) :   1.2118 B( 18-C , 21-H ) :   1.0018
B( 19-C , 20-C ) :   1.6414 B( 19-C , 22-C ) :   1.0504 B( 22-C , 23-H ) :   0.9339
B( 22-C , 24-H ) :   0.9323 B( 22-C , 25-C ) :   1.0720 B( 25-C , 26-H ) :   0.9574
B( 25-C , 27-H ) :   0.9578 B( 25-C , 28-C ) :   1.0596 B( 28-C , 29-H ) :   0.9767
B( 28-C , 30-H ) :   0.9765 B( 28-C , 31-H ) :   0.9768

Dispersion correction           -0.014830426
FINAL SINGLE POINT ENERGY     -1339.880835049379

DIPOLE MOMENT
-------------
                                X             Y             Z
Electronic contribution:      9.82771     -10.65739      19.62580
Nuclear contribution   :     -9.93873      10.68189     -20.14298
                        -----------------------------------------
Total Dipole Moment    :     -0.11102       0.02450      -0.51718
                        -----------------------------------------
Magnitude (a.u.)       :      0.52953
Magnitude (Debye)      :      1.34595

Rotational constants in cm-1:     0.022628     0.007680     0.006828
Rotational constants in MHz :   678.376835   230.247745   204.698545

                             ****ORCA TERMINATED NORMALLY****
TOTAL RUN TIME: 0 days 0 hours 0 minutes 20 seconds 607 msec
