                         Program Version 4.2.1 -  RELEASE  -
|  1> ! wB97X-D3 SP def2-SVP
|  2> %pal
|  3> nprocs 24
|  4> end
|  5>
|  6> * xyz 0 1
|  7> S 	 -103.413 	 37.8954 	 -23.9351
|  8> C 	 -103.135 	 36.2688 	 -24.353
|  9> C 	 -103.87 	 35.4154 	 -23.5481
| 10> C 	 -104.885 	 36.1616 	 -22.8623
| 11> C 	 -104.918 	 37.5344 	 -23.1483
| 12> H 	 -105.624 	 35.6201 	 -22.1672
| 13> C 	 -103.678 	 33.9287 	 -23.4078
| 14> H 	 -103.25 	 33.5464 	 -24.2925
| 15> H 	 -104.658 	 33.4536 	 -23.3609
| 16> C 	 -102.783 	 33.5446 	 -22.1628
| 17> H 	 -102.839 	 32.4649 	 -22.0695
| 18> H 	 -101.798 	 33.7216 	 -22.4683
| 19> C 	 -103.215 	 34.1083 	 -20.8148
| 20> H 	 -102.981 	 35.1759 	 -20.7614
| 21> H 	 -104.277 	 33.9766 	 -20.7169
| 22> H 	 -102.87 	 33.5524 	 -19.9498
| 23> S 	 -106.074 	 38.9777 	 -21.0341
| 24> C 	 -107.171 	 40.3037 	 -21.367
| 25> C 	 -107.267 	 40.458 	 -22.7073
| 26> C 	 -106.556 	 39.4687 	 -23.5343
| 27> C 	 -105.853 	 38.5757 	 -22.7465
| 28> H 	 -107.784 	 41.3495 	 -23.0402
| 29> C 	 -106.509 	 39.4842 	 -25.0817
| 30> H 	 -106.655 	 38.5036 	 -25.5511
| 31> H 	 -105.626 	 39.9387 	 -25.4343
| 32> C 	 -107.668 	 40.4009 	 -25.6606
| 33> H 	 -107.575 	 41.4518 	 -25.3367
| 34> H 	 -108.578 	 39.9809 	 -25.1971
| 35> C 	 -107.8 	 40.4016 	 -27.1916
| 36> H 	 -108.674 	 40.9587 	 -27.532
| 37> H 	 -107.927 	 39.4001 	 -27.595
| 38> H 	 -106.912 	 40.8436 	 -27.68
| 39> H 	 -102.3 	 35.955 	 -24.8904
| 40> H 	 -107.745 	 40.8473 	 -20.6376
| 41> *
| 42>
| 43>                          ****END OF INPUT****

CARTESIAN COORDINATES (ANGSTROEM)
---------------------------------
  S    -103.413000   37.895400  -23.935100
  C    -103.135000   36.268800  -24.353000
  C    -103.870000   35.415400  -23.548100
  C    -104.885000   36.161600  -22.862300
  C    -104.918000   37.534400  -23.148300
  H    -105.624000   35.620100  -22.167200
  C    -103.678000   33.928700  -23.407800
  H    -103.250000   33.546400  -24.292500
  H    -104.658000   33.453600  -23.360900
  C    -102.783000   33.544600  -22.162800
  H    -102.839000   32.464900  -22.069500
  H    -101.798000   33.721600  -22.468300
  C    -103.215000   34.108300  -20.814800
  H    -102.981000   35.175900  -20.761400
  H    -104.277000   33.976600  -20.716900
  H    -102.870000   33.552400  -19.949800
  S    -106.074000   38.977700  -21.034100
  C    -107.171000   40.303700  -21.367000
  C    -107.267000   40.458000  -22.707300
  C    -106.556000   39.468700  -23.534300
  C    -105.853000   38.575700  -22.746500
  H    -107.784000   41.349500  -23.040200
  C    -106.509000   39.484200  -25.081700
  H    -106.655000   38.503600  -25.551100
  H    -105.626000   39.938700  -25.434300
  C    -107.668000   40.400900  -25.660600
  H    -107.575000   41.451800  -25.336700
  H    -108.578000   39.980900  -25.197100
  C    -107.800000   40.401600  -27.191600
  H    -108.674000   40.958700  -27.532000
  H    -107.927000   39.400100  -27.595000
  H    -106.912000   40.843600  -27.680000
  H    -102.300000   35.955000  -24.890400
  H    -107.745000   40.847300  -20.637600

 Total Charge           Charge          ....    0
 Multiplicity           Mult            ....    1
 Number of Electrons    NEL             ....  134
 Basis Dimension        Dim             ....  322

ORBITAL ENERGIES
----------------

  NO   OCC          E(Eh)            E(eV)
   0   2.0000     -88.963039     -2420.8074
   1   2.0000     -88.959982     -2420.7242
   2   2.0000     -10.329045      -281.0676
   3   2.0000     -10.327401      -281.0229
   4   2.0000     -10.315773      -280.7064
   5   2.0000     -10.310064      -280.5511
   6   2.0000     -10.306212      -280.4463
   7   2.0000     -10.301614      -280.3212
   8   2.0000     -10.298630      -280.2400
   9   2.0000     -10.293946      -280.1125
  10   2.0000     -10.292214      -280.0654
  11   2.0000     -10.290647      -280.0228
  12   2.0000     -10.288098      -279.9534
  13   2.0000     -10.284140      -279.8457
  14   2.0000     -10.277891      -279.6756
  15   2.0000     -10.274892      -279.5940
  16   2.0000      -8.078826      -219.8360
  17   2.0000      -8.074595      -219.7209
  18   2.0000      -6.037154      -164.2793
  19   2.0000      -6.033356      -164.1760
  20   2.0000      -6.033188      -164.1714
  21   2.0000      -6.029537      -164.0720
  22   2.0000      -6.029083      -164.0597
  23   2.0000      -6.025283      -163.9563
  24   2.0000      -1.007533       -27.4164
  25   2.0000      -0.984942       -26.8016
  26   2.0000      -0.910631       -24.7795
  27   2.0000      -0.899250       -24.4698
  28   2.0000      -0.871588       -23.7171
  29   2.0000      -0.844673       -22.9847
  30   2.0000      -0.839994       -22.8574
  31   2.0000      -0.816102       -22.2073
  32   2.0000      -0.785406       -21.3720
  33   2.0000      -0.772087       -21.0095
  34   2.0000      -0.706475       -19.2242
  35   2.0000      -0.702281       -19.1100
  36   2.0000      -0.696578       -18.9549
  37   2.0000      -0.649729       -17.6800
  38   2.0000      -0.635283       -17.2869
  39   2.0000      -0.615709       -16.7543
  40   2.0000      -0.595905       -16.2154
  41   2.0000      -0.574938       -15.6449
  42   2.0000      -0.568325       -15.4649
  43   2.0000      -0.552631       -15.0379
  44   2.0000      -0.541236       -14.7278
  45   2.0000      -0.522188       -14.2094
  46   2.0000      -0.510949       -13.9036
  47   2.0000      -0.510476       -13.8907
  48   2.0000      -0.503974       -13.7138
  49   2.0000      -0.499538       -13.5931
  50   2.0000      -0.487618       -13.2688
  51   2.0000      -0.478378       -13.0173
  52   2.0000      -0.472413       -12.8550
  53   2.0000      -0.471085       -12.8189
  54   2.0000      -0.459483       -12.5032
  55   2.0000      -0.451602       -12.2887
  56   2.0000      -0.442514       -12.0414
  57   2.0000      -0.434154       -11.8139
  58   2.0000      -0.428119       -11.6497
  59   2.0000      -0.425751       -11.5853
  60   2.0000      -0.416605       -11.3364
  61   2.0000      -0.414567       -11.2809
  62   2.0000      -0.410770       -11.1776
  63   2.0000      -0.335959        -9.1419
  64   2.0000      -0.327744        -8.9184
  65   2.0000      -0.321863        -8.7583
  66   2.0000      -0.303920        -8.2701
  67   0.0000       0.028109         0.7649
  68   0.0000       0.069407         1.8886
  69   0.0000       0.106820         2.9067
  70   0.0000       0.126614         3.4453
  71   0.0000       0.134584         3.6622

MULLIKEN ATOMIC CHARGES
-----------------------
   0 S :    0.124851
   1 C :   -0.086746
   2 C :   -0.130801
   3 C :    0.011597
   4 C :   -0.185589
   5 H :    0.038312
   6 C :    0.087381
   7 H :    0.007091
   8 H :    0.023975
   9 C :   -0.051619
  10 H :    0.022744
  11 H :    0.015495
  12 C :   -0.037855
  13 H :    0.056153
  14 H :    0.014412
  15 H :    0.033566
  16 S :    0.095347
  17 C :   -0.082039
  18 C :   -0.048049
  19 C :   -0.040557
  20 C :   -0.139256
  21 H :    0.021354
  22 C :    0.109568
  23 H :    0.044414
  24 H :    0.027853
  25 C :   -0.154945
  26 H :    0.039222
  27 H :    0.034506
  28 C :   -0.023816
  29 H :    0.034139
  30 H :    0.024639
  31 H :    0.033018
  32 H :    0.023323
  33 H :    0.058313
Sum of atomic charges:    0.0000000

LOEWDIN ATOMIC CHARGES
----------------------
   0 S :    0.435945
   1 C :   -0.199110
   2 C :   -0.068619
   3 C :   -0.064514
   4 C :   -0.207544
   5 H :    0.040811
   6 C :   -0.025529
   7 H :    0.025164
   8 H :    0.029219
   9 C :   -0.030408
  10 H :    0.024211
  11 H :    0.014361
  12 C :   -0.064966
  13 H :    0.031240
  14 H :    0.022669
  15 H :    0.029263
  16 S :    0.386720
  17 C :   -0.178675
  18 C :   -0.077544
  19 C :   -0.048864
  20 C :   -0.198298
  21 H :    0.031175
  22 C :   -0.023428
  23 H :    0.037041
  24 H :    0.023911
  25 C :   -0.046303
  26 H :    0.022130
  27 H :    0.023775
  28 C :   -0.068449
  29 H :    0.028170
  30 H :    0.022534
  31 H :    0.026832
  32 H :    0.013901
  33 H :    0.033181

  Mayer bond orders larger than 0.100000
B(  0-S ,  1-C ) :   1.1687 B(  0-S ,  4-C ) :   1.1648 B(  1-C ,  2-C ) :   1.5726
B(  1-C ,  4-C ) :   0.1050 B(  1-C , 32-H ) :   0.9741 B(  2-C ,  3-C ) :   1.2756
B(  2-C ,  6-C ) :   1.0321 B(  3-C ,  4-C ) :   1.5370 B(  3-C ,  5-H ) :   0.9831
B(  4-C , 20-C ) :   1.0503 B(  6-C ,  7-H ) :   0.9377 B(  6-C ,  8-H ) :   0.9402
B(  6-C ,  9-C ) :   1.0675 B(  9-C , 10-H ) :   0.9551 B(  9-C , 11-H ) :   0.9596
B(  9-C , 12-C ) :   1.0811 B( 12-C , 13-H ) :   0.9719 B( 12-C , 14-H ) :   0.9700
B( 12-C , 15-H ) :   0.9715 B( 16-S , 17-C ) :   1.1401 B( 16-S , 20-C ) :   1.1313
B( 17-C , 18-C ) :   1.6378 B( 17-C , 33-H ) :   0.9651 B( 18-C , 19-C ) :   1.2136
B( 18-C , 21-H ) :   0.9872 B( 19-C , 20-C ) :   1.6171 B( 19-C , 22-C ) :   1.0359
B( 22-C , 23-H ) :   0.9396 B( 22-C , 24-H ) :   0.9280 B( 22-C , 25-C ) :   1.0709
B( 25-C , 26-H ) :   0.9492 B( 25-C , 27-H ) :   0.9609 B( 25-C , 28-C ) :   1.0855
B( 28-C , 29-H ) :   0.9723 B( 28-C , 30-H ) :   0.9732 B( 28-C , 31-H ) :   0.9731

Dispersion correction           -0.014294905
FINAL SINGLE POINT ENERGY     -1339.876085079978

DIPOLE MOMENT
-------------
                                X             Y             Z
Electronic contribution:      3.78213       8.41445       9.51739
Nuclear contribution   :     -3.86257      -8.64868      -9.71327
                        -----------------------------------------
Total Dipole Moment    :     -0.08044      -0.23423      -0.19588
                        -----------------------------------------
Magnitude (a.u.)       :      0.31576
Magnitude (Debye)      :      0.80259

Rotational constants in cm-1:     0.021629     0.007789     0.006297
Rotational constants in MHz :   648.421771   233.514728   188.769010

                             ****ORCA TERMINATED NORMALLY****
TOTAL RUN TIME: 0 days 0 hours 0 minutes 21 seconds 173 msec
