                         Program Version 4.2.1 -  RELEASE  -
|  1> ! wB97X-D3 SP def2-SVP
|  2> %pal
|  3> nprocs 24
|  4> end
|  5>
|  6> * xyz 0 1
|  7> S 	 -67.4369 	 10.7505 	 -75.0482
|  8> C 	 -69.1422 	 11.1222 	 -74.9555
|  9> C 	 -69.6538 	 11.0425 	 -73.6648
| 10> C 	 -68.5797 	 11.1862 	 -72.7316
| 11> C 	 -67.3241 	 11.0501 	 -73.3373
| 12> H 	 -68.5944 	 11.2713 	 -71.6444
| 13> C 	 -71.0791 	 11.1973 	 -73.3531
| 14> H 	 -71.6051 	 11.5052 	 -74.2839
| 15> H 	 -71.204 	 11.9746 	 -72.5801
| 16> C 	 -71.9081 	 10.0383 	 -72.8559
| 17> H 	 -71.9232 	 10.1521 	 -71.8063
| 18> H 	 -72.957 	 10.182 	 -73.1672
| 19> C 	 -71.5238 	 8.57606 	 -73.0673
| 20> H 	 -72.3987 	 7.91571 	 -72.9606
| 21> H 	 -71.128 	 8.45154 	 -74.0778
| 22> H 	 -70.7467 	 8.28674 	 -72.3556
| 23> S 	 -65.1346 	 12.4674 	 -72.4771
| 24> C 	 -63.9841 	 11.704 	 -71.4824
| 25> C 	 -64.3875 	 10.439 	 -71.1442
| 26> C 	 -65.5658 	 10.0598 	 -71.7699
| 27> C 	 -66.0714 	 11.0399 	 -72.5731
| 28> H 	 -63.8077 	 9.94809 	 -70.463
| 29> C 	 -66.064 	 8.65114 	 -71.648
| 30> H 	 -67.1736 	 8.59302 	 -71.9231
| 31> H 	 -65.7844 	 8.47494 	 -70.6075
| 32> C 	 -65.1719 	 7.74565 	 -72.5392
| 33> H 	 -64.1311 	 7.9533 	 -72.3151
| 34> H 	 -65.3866 	 8.09333 	 -73.5307
| 35> C 	 -65.4645 	 6.29005 	 -72.2114
| 36> H 	 -65.4893 	 6.09187 	 -71.1033
| 37> H 	 -64.588 	 5.67514 	 -72.5093
| 38> H 	 -66.3822 	 5.84109 	 -72.6949
| 39> H 	 -69.7787 	 11.0972 	 -75.8002
| 40> H 	 -63.1401 	 12.1071 	 -71.0636
| 41> *
| 42>
| 43>                          ****END OF INPUT****

CARTESIAN COORDINATES (ANGSTROEM)
---------------------------------
  S    -67.436900   10.750500  -75.048200
  C    -69.142200   11.122200  -74.955500
  C    -69.653800   11.042500  -73.664800
  C    -68.579700   11.186200  -72.731600
  C    -67.324100   11.050100  -73.337300
  H    -68.594400   11.271300  -71.644400
  C    -71.079100   11.197300  -73.353100
  H    -71.605100   11.505200  -74.283900
  H    -71.204000   11.974600  -72.580100
  C    -71.908100   10.038300  -72.855900
  H    -71.923200   10.152100  -71.806300
  H    -72.957000   10.182000  -73.167200
  C    -71.523800    8.576060  -73.067300
  H    -72.398700    7.915710  -72.960600
  H    -71.128000    8.451540  -74.077800
  H    -70.746700    8.286740  -72.355600
  S    -65.134600   12.467400  -72.477100
  C    -63.984100   11.704000  -71.482400
  C    -64.387500   10.439000  -71.144200
  C    -65.565800   10.059800  -71.769900
  C    -66.071400   11.039900  -72.573100
  H    -63.807700    9.948090  -70.463000
  C    -66.064000    8.651140  -71.648000
  H    -67.173600    8.593020  -71.923100
  H    -65.784400    8.474940  -70.607500
  C    -65.171900    7.745650  -72.539200
  H    -64.131100    7.953300  -72.315100
  H    -65.386600    8.093330  -73.530700
  C    -65.464500    6.290050  -72.211400
  H    -65.489300    6.091870  -71.103300
  H    -64.588000    5.675140  -72.509300
  H    -66.382200    5.841090  -72.694900
  H    -69.778700   11.097200  -75.800200
  H    -63.140100   12.107100  -71.063600

 Total Charge           Charge          ....    0
 Multiplicity           Mult            ....    1
 Number of Electrons    NEL             ....  134
 Basis Dimension        Dim             ....  322

ORBITAL ENERGIES
----------------

  NO   OCC          E(Eh)            E(eV)
   0   2.0000     -88.968876     -2420.9662
   1   2.0000     -88.961463     -2420.7645
   2   2.0000     -10.325752      -280.9780
   3   2.0000     -10.312723      -280.6235
   4   2.0000     -10.311072      -280.5785
   5   2.0000     -10.302973      -280.3581
   6   2.0000     -10.301275      -280.3119
   7   2.0000     -10.295869      -280.1648
   8   2.0000     -10.290553      -280.0202
   9   2.0000     -10.289911      -280.0027
  10   2.0000     -10.289452      -279.9902
  11   2.0000     -10.284002      -279.8419
  12   2.0000     -10.282692      -279.8063
  13   2.0000     -10.278719      -279.6982
  14   2.0000     -10.277226      -279.6575
  15   2.0000     -10.276653      -279.6419
  16   2.0000      -8.083625      -219.9666
  17   2.0000      -8.077846      -219.8094
  18   2.0000      -6.041917      -164.4089
  19   2.0000      -6.038391      -164.3130
  20   2.0000      -6.036135      -164.2516
  21   2.0000      -6.034366      -164.2034
  22   2.0000      -6.032020      -164.1396
  23   2.0000      -6.028848      -164.0533
  24   2.0000      -1.015045       -27.6208
  25   2.0000      -0.991253       -26.9734
  26   2.0000      -0.917149       -24.9569
  27   2.0000      -0.912848       -24.8399
  28   2.0000      -0.870336       -23.6830
  29   2.0000      -0.851832       -23.1795
  30   2.0000      -0.851083       -23.1591
  31   2.0000      -0.815514       -22.1913
  32   2.0000      -0.785909       -21.3857
  33   2.0000      -0.769188       -20.9307
  34   2.0000      -0.706631       -19.2284
  35   2.0000      -0.695233       -18.9182
  36   2.0000      -0.694422       -18.8962
  37   2.0000      -0.668928       -18.2025
  38   2.0000      -0.640315       -17.4239
  39   2.0000      -0.616482       -16.7753
  40   2.0000      -0.592871       -16.1328
  41   2.0000      -0.569842       -15.5062
  42   2.0000      -0.565408       -15.3855
  43   2.0000      -0.563309       -15.3284
  44   2.0000      -0.546259       -14.8645
  45   2.0000      -0.522670       -14.2226
  46   2.0000      -0.517747       -14.0886
  47   2.0000      -0.509829       -13.8731
  48   2.0000      -0.504918       -13.7395
  49   2.0000      -0.493228       -13.4214
  50   2.0000      -0.491188       -13.3659
  51   2.0000      -0.476645       -12.9702
  52   2.0000      -0.470745       -12.8096
  53   2.0000      -0.468579       -12.7507
  54   2.0000      -0.465605       -12.6697
  55   2.0000      -0.448350       -12.2002
  56   2.0000      -0.446470       -12.1491
  57   2.0000      -0.440628       -11.9901
  58   2.0000      -0.430150       -11.7050
  59   2.0000      -0.425678       -11.5833
  60   2.0000      -0.423874       -11.5342
  61   2.0000      -0.412751       -11.2315
  62   2.0000      -0.402792       -10.9605
  63   2.0000      -0.335323        -9.1246
  64   2.0000      -0.328056        -8.9268
  65   2.0000      -0.317992        -8.6530
  66   2.0000      -0.309361        -8.4181
  67   0.0000       0.041043         1.1168
  68   0.0000       0.063098         1.7170
  69   0.0000       0.105069         2.8591
  70   0.0000       0.122623         3.3367
  71   0.0000       0.129622         3.5272

MULLIKEN ATOMIC CHARGES
-----------------------
   0 S :    0.126761
   1 C :   -0.100909
   2 C :   -0.075732
   3 C :    0.042890
   4 C :   -0.186993
   5 H :    0.019527
   6 C :    0.061586
   7 H :    0.023657
   8 H :    0.037346
   9 C :   -0.096502
  10 H :    0.010235
  11 H :    0.028252
  12 C :   -0.030082
  13 H :    0.038814
  14 H :    0.026097
  15 H :    0.034278
  16 S :    0.130981
  17 C :   -0.047440
  18 C :   -0.039219
  19 C :   -0.000555
  20 C :   -0.206807
  21 H :   -0.025156
  22 C :    0.058372
  23 H :    0.052729
  24 H :    0.017446
  25 C :   -0.048485
  26 H :    0.025421
  27 H :    0.021914
  28 C :   -0.057703
  29 H :    0.030957
  30 H :    0.031507
  31 H :    0.050032
  32 H :    0.033074
  33 H :    0.013709
Sum of atomic charges:    0.0000000

LOEWDIN ATOMIC CHARGES
----------------------
   0 S :    0.412126
   1 C :   -0.186844
   2 C :   -0.063068
   3 C :   -0.054409
   4 C :   -0.202473
   5 H :    0.034489
   6 C :   -0.038065
   7 H :    0.036458
   8 H :    0.039632
   9 C :   -0.049636
  10 H :    0.016303
  11 H :    0.028081
  12 C :   -0.065743
  13 H :    0.031234
  14 H :    0.022741
  15 H :    0.026305
  16 S :    0.446123
  17 C :   -0.181334
  18 C :   -0.066883
  19 C :   -0.059518
  20 C :   -0.229581
  21 H :    0.015252
  22 C :   -0.030705
  23 H :    0.039639
  24 H :    0.028625
  25 C :   -0.034157
  26 H :    0.024783
  27 H :    0.022376
  28 C :   -0.078338
  29 H :    0.029234
  30 H :    0.027354
  31 H :    0.032540
  32 H :    0.015260
  33 H :    0.012197

  Mayer bond orders larger than 0.100000
B(  0-S ,  1-C ) :   1.1463 B(  0-S ,  4-C ) :   1.1562 B(  1-C ,  2-C ) :   1.5977
B(  1-C , 32-H ) :   0.9668 B(  2-C ,  3-C ) :   1.2051 B(  2-C ,  6-C ) :   1.0600
B(  3-C ,  4-C ) :   1.5935 B(  3-C ,  5-H ) :   0.9937 B(  4-C , 20-C ) :   1.0089
B(  6-C ,  7-H ) :   0.9379 B(  6-C ,  8-H ) :   0.9466 B(  6-C ,  9-C ) :   1.0512
B(  9-C , 10-H ) :   0.9569 B(  9-C , 11-H ) :   0.9592 B(  9-C , 12-C ) :   1.0971
B( 12-C , 13-H ) :   0.9727 B( 12-C , 14-H ) :   0.9733 B( 12-C , 15-H ) :   0.9713
B( 16-S , 17-C ) :   1.1794 B( 16-S , 20-C ) :   1.1610 B( 17-C , 18-C ) :   1.5910
B( 17-C , 33-H ) :   0.9750 B( 18-C , 19-C ) :   1.2512 B( 18-C , 21-H ) :   1.0092
B( 19-C , 20-C ) :   1.5876 B( 19-C , 22-C ) :   1.0382 B( 22-C , 23-H ) :   0.9301
B( 22-C , 24-H ) :   0.9243 B( 22-C , 25-C ) :   1.0724 B( 25-C , 26-H ) :   0.9572
B( 25-C , 27-H ) :   0.9525 B( 25-C , 28-C ) :   1.0761 B( 28-C , 29-H ) :   0.9722
B( 28-C , 30-H ) :   0.9739 B( 28-C , 31-H ) :   0.9740

Dispersion correction           -0.014708053
FINAL SINGLE POINT ENERGY     -1339.862703305837

DIPOLE MOMENT
-------------
                                X             Y             Z
Electronic contribution:     14.07341      21.05641      -7.12180
Nuclear contribution   :    -14.32532     -21.40387       7.49654
                        -----------------------------------------
Total Dipole Moment    :     -0.25190      -0.34746       0.37473
                        -----------------------------------------
Magnitude (a.u.)       :      0.56974
Magnitude (Debye)      :      1.44817

Rotational constants in cm-1:     0.018240     0.009055     0.007289
Rotational constants in MHz :   546.823708   271.470620   218.521630

                             ****ORCA TERMINATED NORMALLY****
TOTAL RUN TIME: 0 days 0 hours 0 minutes 22 seconds 122 msec
