                         Program Version 4.2.1 -  RELEASE  -
|  1> ! wB97X-D3 SP def2-SVP
|  2> %pal
|  3> nprocs 24
|  4> end
|  5>
|  6> * xyz 0 1
|  7> S 	 -125.131 	 56.014 	 -60.6985
|  8> C 	 -125.066 	 56.1665 	 -62.4116
|  9> C 	 -126.008 	 57.1131 	 -62.7909
| 10> C 	 -126.541 	 57.8414 	 -61.6896
| 11> C 	 -126.166 	 57.376 	 -60.4547
| 12> H 	 -127.279 	 58.6304 	 -61.7143
| 13> C 	 -126.391 	 57.4263 	 -64.2014
| 14> H 	 -127.418 	 57.6752 	 -64.2188
| 15> H 	 -126.304 	 56.564 	 -64.8814
| 16> C 	 -125.607 	 58.6054 	 -64.731
| 17> H 	 -124.557 	 58.3019 	 -64.7374
| 18> H 	 -125.847 	 58.6935 	 -65.8032
| 19> C 	 -125.949 	 59.9822 	 -64.1977
| 20> H 	 -125.361 	 60.8137 	 -64.5131
| 21> H 	 -127.047 	 60.2034 	 -64.2422
| 22> H 	 -125.748 	 60.0505 	 -63.1028
| 23> S 	 -126.722 	 59.2107 	 -58.4632
| 24> C 	 -127.708 	 58.7283 	 -57.1036
| 25> C 	 -128.193 	 57.439 	 -57.2566
| 26> C 	 -127.724 	 56.7533 	 -58.436
| 27> C 	 -126.864 	 57.6054 	 -59.2072
| 28> H 	 -128.791 	 56.9344 	 -56.4753
| 29> C 	 -128.11 	 55.3446 	 -58.8471
| 30> H 	 -127.722 	 55.1195 	 -59.8269
| 31> H 	 -129.15 	 55.2737 	 -58.9525
| 32> C 	 -127.509 	 54.258 	 -57.8822
| 33> H 	 -127.768 	 54.5252 	 -56.8528
| 34> H 	 -126.476 	 54.3104 	 -57.8228
| 35> C 	 -128.026 	 52.8518 	 -58.3497
| 36> H 	 -127.508 	 52.1856 	 -57.6911
| 37> H 	 -127.988 	 52.6411 	 -59.3982
| 38> H 	 -129.016 	 52.6092 	 -58.1208
| 39> H 	 -124.507 	 55.5707 	 -63.1414
| 40> H 	 -127.785 	 59.1204 	 -56.0552
| 41> *
| 42>
| 43>                          ****END OF INPUT****

CARTESIAN COORDINATES (ANGSTROEM)
---------------------------------
  S    -125.131000   56.014000  -60.698500
  C    -125.066000   56.166500  -62.411600
  C    -126.008000   57.113100  -62.790900
  C    -126.541000   57.841400  -61.689600
  C    -126.166000   57.376000  -60.454700
  H    -127.279000   58.630400  -61.714300
  C    -126.391000   57.426300  -64.201400
  H    -127.418000   57.675200  -64.218800
  H    -126.304000   56.564000  -64.881400
  C    -125.607000   58.605400  -64.731000
  H    -124.557000   58.301900  -64.737400
  H    -125.847000   58.693500  -65.803200
  C    -125.949000   59.982200  -64.197700
  H    -125.361000   60.813700  -64.513100
  H    -127.047000   60.203400  -64.242200
  H    -125.748000   60.050500  -63.102800
  S    -126.722000   59.210700  -58.463200
  C    -127.708000   58.728300  -57.103600
  C    -128.193000   57.439000  -57.256600
  C    -127.724000   56.753300  -58.436000
  C    -126.864000   57.605400  -59.207200
  H    -128.791000   56.934400  -56.475300
  C    -128.110000   55.344600  -58.847100
  H    -127.722000   55.119500  -59.826900
  H    -129.150000   55.273700  -58.952500
  C    -127.509000   54.258000  -57.882200
  H    -127.768000   54.525200  -56.852800
  H    -126.476000   54.310400  -57.822800
  C    -128.026000   52.851800  -58.349700
  H    -127.508000   52.185600  -57.691100
  H    -127.988000   52.641100  -59.398200
  H    -129.016000   52.609200  -58.120800
  H    -124.507000   55.570700  -63.141400
  H    -127.785000   59.120400  -56.055200

 Total Charge           Charge          ....    0
 Multiplicity           Mult            ....    1
 Number of Electrons    NEL             ....  134
 Basis Dimension        Dim             ....  322

ORBITAL ENERGIES
----------------

  NO   OCC          E(Eh)            E(eV)
   0   2.0000     -88.968942     -2420.9680
   1   2.0000     -88.965984     -2420.8875
   2   2.0000     -10.331526      -281.1351
   3   2.0000     -10.324459      -280.9428
   4   2.0000     -10.319141      -280.7981
   5   2.0000     -10.315365      -280.6954
   6   2.0000     -10.307923      -280.4929
   7   2.0000     -10.298738      -280.2429
   8   2.0000     -10.296535      -280.1830
   9   2.0000     -10.291414      -280.0436
  10   2.0000     -10.286760      -279.9170
  11   2.0000     -10.284917      -279.8668
  12   2.0000     -10.284751      -279.8623
  13   2.0000     -10.284424      -279.8534
  14   2.0000     -10.278684      -279.6972
  15   2.0000     -10.270036      -279.4619
  16   2.0000      -8.082811      -219.9445
  17   2.0000      -8.080960      -219.8941
  18   2.0000      -6.041393      -164.3947
  19   2.0000      -6.039425      -164.3411
  20   2.0000      -6.037377      -164.2854
  21   2.0000      -6.035241      -164.2273
  22   2.0000      -6.033606      -164.1828
  23   2.0000      -6.031913      -164.1367
  24   2.0000      -1.009927       -27.4815
  25   2.0000      -0.981314       -26.7029
  26   2.0000      -0.918448       -24.9922
  27   2.0000      -0.903155       -24.5761
  28   2.0000      -0.870897       -23.6983
  29   2.0000      -0.847218       -23.0540
  30   2.0000      -0.843316       -22.9478
  31   2.0000      -0.815296       -22.1853
  32   2.0000      -0.786716       -21.4076
  33   2.0000      -0.770537       -20.9674
  34   2.0000      -0.714661       -19.4469
  35   2.0000      -0.702097       -19.1050
  36   2.0000      -0.698093       -18.9961
  37   2.0000      -0.656533       -17.8652
  38   2.0000      -0.640797       -17.4370
  39   2.0000      -0.615486       -16.7482
  40   2.0000      -0.593424       -16.1479
  41   2.0000      -0.577029       -15.7018
  42   2.0000      -0.555442       -15.1143
  43   2.0000      -0.551788       -15.0149
  44   2.0000      -0.538606       -14.6562
  45   2.0000      -0.529328       -14.4038
  46   2.0000      -0.511803       -13.9269
  47   2.0000      -0.510900       -13.9023
  48   2.0000      -0.505572       -13.7573
  49   2.0000      -0.502226       -13.6663
  50   2.0000      -0.490458       -13.3460
  51   2.0000      -0.482829       -13.1384
  52   2.0000      -0.473198       -12.8764
  53   2.0000      -0.469071       -12.7641
  54   2.0000      -0.458037       -12.4638
  55   2.0000      -0.450998       -12.2723
  56   2.0000      -0.446056       -12.1378
  57   2.0000      -0.437510       -11.9053
  58   2.0000      -0.435807       -11.8589
  59   2.0000      -0.420961       -11.4549
  60   2.0000      -0.418323       -11.3831
  61   2.0000      -0.410289       -11.1645
  62   2.0000      -0.403698       -10.9852
  63   2.0000      -0.346011        -9.4154
  64   2.0000      -0.331818        -9.0292
  65   2.0000      -0.323768        -8.8102
  66   2.0000      -0.291953        -7.9445
  67   0.0000       0.035168         0.9570
  68   0.0000       0.058474         1.5912
  69   0.0000       0.108145         2.9428
  70   0.0000       0.124753         3.3947
  71   0.0000       0.130613         3.5541

MULLIKEN ATOMIC CHARGES
-----------------------
   0 S :    0.109654
   1 C :   -0.108398
   2 C :   -0.118138
   3 C :    0.044605
   4 C :   -0.146017
   5 H :    0.009667
   6 C :    0.088627
   7 H :    0.008993
   8 H :    0.023984
   9 C :   -0.056686
  10 H :    0.024520
  11 H :    0.025305
  12 C :   -0.056484
  13 H :    0.033467
  14 H :    0.034003
  15 H :    0.026429
  16 S :    0.115485
  17 C :   -0.099145
  18 C :   -0.062777
  19 C :   -0.040004
  20 C :   -0.185953
  21 H :    0.031238
  22 C :    0.099873
  23 H :    0.015762
  24 H :    0.019456
  25 C :   -0.067657
  26 H :    0.017079
  27 H :    0.014874
  28 C :    0.002173
  29 H :    0.022793
  30 H :    0.032124
  31 H :    0.007926
  32 H :    0.054441
  33 H :    0.078781
Sum of atomic charges:   -0.0000000

LOEWDIN ATOMIC CHARGES
----------------------
   0 S :    0.438815
   1 C :   -0.211282
   2 C :   -0.064153
   3 C :   -0.058766
   4 C :   -0.213378
   5 H :    0.029223
   6 C :   -0.030746
   7 H :    0.024695
   8 H :    0.033656
   9 C :   -0.042784
  10 H :    0.024675
  11 H :    0.025071
  12 C :   -0.074411
  13 H :    0.026022
  14 H :    0.030910
  15 H :    0.027197
  16 S :    0.405020
  17 C :   -0.210641
  18 C :   -0.076771
  19 C :   -0.049873
  20 C :   -0.194921
  21 H :    0.034369
  22 C :   -0.027313
  23 H :    0.021904
  24 H :    0.024709
  25 C :   -0.023815
  26 H :    0.021927
  27 H :    0.014336
  28 C :   -0.060427
  29 H :    0.027331
  30 H :    0.025904
  31 H :    0.018342
  32 H :    0.036386
  33 H :    0.048788

  Mayer bond orders larger than 0.100000
B(  0-S ,  1-C ) :   1.1524 B(  0-S ,  4-C ) :   1.1626 B(  1-C ,  2-C ) :   1.5731
B(  1-C , 32-H ) :   0.9701 B(  2-C ,  3-C ) :   1.2731 B(  2-C ,  6-C ) :   1.0370
B(  3-C ,  4-C ) :   1.5512 B(  3-C ,  5-H ) :   0.9903 B(  4-C , 20-C ) :   1.0145
B(  6-C ,  7-H ) :   0.9327 B(  6-C ,  8-H ) :   0.9385 B(  6-C ,  9-C ) :   1.0801
B(  9-C , 10-H ) :   0.9520 B(  9-C , 11-H ) :   0.9515 B(  9-C , 12-C ) :   1.0798
B( 12-C , 13-H ) :   0.9706 B( 12-C , 14-H ) :   0.9713 B( 12-C , 15-H ) :   0.9657
B( 16-S , 17-C ) :   1.1481 B( 16-S , 20-C ) :   1.1432 B( 17-C , 18-C ) :   1.6183
B( 17-C , 20-C ) :   0.1015 B( 17-C , 33-H ) :   0.9549 B( 18-C , 19-C ) :   1.2530
B( 18-C , 21-H ) :   0.9774 B( 19-C , 20-C ) :   1.5716 B( 19-C , 22-C ) :   1.0465
B( 22-C , 23-H ) :   0.9293 B( 22-C , 24-H ) :   0.9376 B( 22-C , 25-C ) :   1.0493
B( 25-C , 26-H ) :   0.9597 B( 25-C , 27-H ) :   0.9575 B( 25-C , 28-C ) :   1.0694
B( 28-C , 29-H ) :   0.9723 B( 28-C , 30-H ) :   0.9762 B( 28-C , 31-H ) :   0.9731

Dispersion correction           -0.014793550
FINAL SINGLE POINT ENERGY     -1339.863298415343

DIPOLE MOMENT
-------------
                                X             Y             Z
Electronic contribution:      6.31900       7.82135      10.75823
Nuclear contribution   :     -6.65059      -8.16266     -11.00491
                        -----------------------------------------
Total Dipole Moment    :     -0.33159      -0.34131      -0.24668
                        -----------------------------------------
Magnitude (a.u.)       :      0.53600
Magnitude (Debye)      :      1.36239

Rotational constants in cm-1:     0.019429     0.008876     0.006757
Rotational constants in MHz :   582.464741   266.090929   202.565982

                             ****ORCA TERMINATED NORMALLY****
TOTAL RUN TIME: 0 days 0 hours 0 minutes 21 seconds 621 msec
