                         Program Version 4.2.1 -  RELEASE  -
|  1> ! wB97X-D3 SP def2-SVP
|  2> %pal
|  3> nprocs 24
|  4> end
|  5>
|  6> * xyz 0 1
|  7> S 	 -91.1481 	 -35.4572 	 -58.2985
|  8> C 	 -91.8631 	 -36.8285 	 -57.489
|  9> C 	 -92.9709 	 -36.4396 	 -56.8172
| 10> C 	 -93.2702 	 -35.044 	 -56.9954
| 11> C 	 -92.4157 	 -34.3323 	 -57.8268
| 12> H 	 -94.0837 	 -34.5806 	 -56.5054
| 13> C 	 -93.8078 	 -37.2916 	 -56.0104
| 14> H 	 -94.1907 	 -36.6617 	 -55.2325
| 15> H 	 -93.1736 	 -37.9749 	 -55.474
| 16> C 	 -95.0007 	 -37.8047 	 -56.7861
| 17> H 	 -95.2908 	 -37.1745 	 -57.6061
| 18> H 	 -94.5377 	 -38.6493 	 -57.2593
| 19> C 	 -96.2496 	 -38.274 	 -55.9236
| 20> H 	 -97.1526 	 -38.5792 	 -56.453
| 21> H 	 -95.9521 	 -39.1629 	 -55.3439
| 22> H 	 -96.6034 	 -37.5664 	 -55.1437
| 23> S 	 -90.9324 	 -32.0431 	 -58.5282
| 24> C 	 -91.791 	 -30.4912 	 -58.8318
| 25> C 	 -93.0651 	 -30.6228 	 -58.424
| 26> C 	 -93.4508 	 -31.9509 	 -58.0792
| 27> C 	 -92.4241 	 -32.8703 	 -58.1244
| 28> H 	 -93.7464 	 -29.8213 	 -58.5041
| 29> C 	 -94.8938 	 -32.2868 	 -57.8876
| 30> H 	 -95.0283 	 -33.2942 	 -58.0715
| 31> H 	 -95.4619 	 -31.801 	 -58.6574
| 32> C 	 -95.5679 	 -31.8915 	 -56.5526
| 33> H 	 -95.3165 	 -30.8596 	 -56.2559
| 34> H 	 -95.3258 	 -32.6672 	 -55.7653
| 35> C 	 -97.0895 	 -31.872 	 -56.391
| 36> H 	 -97.4437 	 -32.9356 	 -56.3085
| 37> H 	 -97.7346 	 -31.368 	 -57.188
| 38> H 	 -97.2217 	 -31.4032 	 -55.4156
| 39> H 	 -91.4307 	 -37.8542 	 -57.478
| 40> H 	 -91.2875 	 -29.5951 	 -59.2284
| 41> *
| 42>
| 43>                          ****END OF INPUT****

CARTESIAN COORDINATES (ANGSTROEM)
---------------------------------
  S    -91.148100  -35.457200  -58.298500
  C    -91.863100  -36.828500  -57.489000
  C    -92.970900  -36.439600  -56.817200
  C    -93.270200  -35.044000  -56.995400
  C    -92.415700  -34.332300  -57.826800
  H    -94.083700  -34.580600  -56.505400
  C    -93.807800  -37.291600  -56.010400
  H    -94.190700  -36.661700  -55.232500
  H    -93.173600  -37.974900  -55.474000
  C    -95.000700  -37.804700  -56.786100
  H    -95.290800  -37.174500  -57.606100
  H    -94.537700  -38.649300  -57.259300
  C    -96.249600  -38.274000  -55.923600
  H    -97.152600  -38.579200  -56.453000
  H    -95.952100  -39.162900  -55.343900
  H    -96.603400  -37.566400  -55.143700
  S    -90.932400  -32.043100  -58.528200
  C    -91.791000  -30.491200  -58.831800
  C    -93.065100  -30.622800  -58.424000
  C    -93.450800  -31.950900  -58.079200
  C    -92.424100  -32.870300  -58.124400
  H    -93.746400  -29.821300  -58.504100
  C    -94.893800  -32.286800  -57.887600
  H    -95.028300  -33.294200  -58.071500
  H    -95.461900  -31.801000  -58.657400
  C    -95.567900  -31.891500  -56.552600
  H    -95.316500  -30.859600  -56.255900
  H    -95.325800  -32.667200  -55.765300
  C    -97.089500  -31.872000  -56.391000
  H    -97.443700  -32.935600  -56.308500
  H    -97.734600  -31.368000  -57.188000
  H    -97.221700  -31.403200  -55.415600
  H    -91.430700  -37.854200  -57.478000
  H    -91.287500  -29.595100  -59.228400

 Total Charge           Charge          ....    0
 Multiplicity           Mult            ....    1
 Number of Electrons    NEL             ....  134
 Basis Dimension        Dim             ....  322

ORBITAL ENERGIES
----------------

  NO   OCC          E(Eh)            E(eV)
   0   2.0000     -88.963933     -2420.8317
   1   2.0000     -88.962537     -2420.7937
   2   2.0000     -10.337859      -281.3074
   3   2.0000     -10.333914      -281.2001
   4   2.0000     -10.322618      -280.8927
   5   2.0000     -10.315115      -280.6885
   6   2.0000     -10.301322      -280.3132
   7   2.0000     -10.294394      -280.1247
   8   2.0000     -10.293893      -280.1111
   9   2.0000     -10.291903      -280.0569
  10   2.0000     -10.290730      -280.0250
  11   2.0000     -10.288859      -279.9741
  12   2.0000     -10.288171      -279.9554
  13   2.0000     -10.286888      -279.9205
  14   2.0000     -10.283297      -279.8227
  15   2.0000     -10.282560      -279.8027
  16   2.0000      -8.078634      -219.8308
  17   2.0000      -8.076859      -219.7825
  18   2.0000      -6.037336      -164.2843
  19   2.0000      -6.035598      -164.2370
  20   2.0000      -6.033085      -164.1686
  21   2.0000      -6.031475      -164.1248
  22   2.0000      -6.029231      -164.0637
  23   2.0000      -6.027348      -164.0125
  24   2.0000      -1.007951       -27.4278
  25   2.0000      -0.989620       -26.9289
  26   2.0000      -0.921770       -25.0826
  27   2.0000      -0.909360       -24.7449
  28   2.0000      -0.871336       -23.7103
  29   2.0000      -0.854001       -23.2385
  30   2.0000      -0.843310       -22.9476
  31   2.0000      -0.822364       -22.3777
  32   2.0000      -0.783559       -21.3217
  33   2.0000      -0.775411       -21.1000
  34   2.0000      -0.714112       -19.4320
  35   2.0000      -0.704577       -19.1725
  36   2.0000      -0.688346       -18.7309
  37   2.0000      -0.667742       -18.1702
  38   2.0000      -0.640420       -17.4267
  39   2.0000      -0.627175       -17.0663
  40   2.0000      -0.601643       -16.3715
  41   2.0000      -0.574513       -15.6333
  42   2.0000      -0.569533       -15.4978
  43   2.0000      -0.556258       -15.1365
  44   2.0000      -0.533992       -14.5307
  45   2.0000      -0.527862       -14.3639
  46   2.0000      -0.524689       -14.2775
  47   2.0000      -0.520386       -14.1604
  48   2.0000      -0.504665       -13.7326
  49   2.0000      -0.500400       -13.6166
  50   2.0000      -0.495418       -13.4810
  51   2.0000      -0.486607       -13.2412
  52   2.0000      -0.471793       -12.8382
  53   2.0000      -0.462917       -12.5966
  54   2.0000      -0.459658       -12.5079
  55   2.0000      -0.454175       -12.3587
  56   2.0000      -0.447432       -12.1753
  57   2.0000      -0.442081       -12.0296
  58   2.0000      -0.427004       -11.6194
  59   2.0000      -0.420038       -11.4298
  60   2.0000      -0.417355       -11.3568
  61   2.0000      -0.415169       -11.2973
  62   2.0000      -0.408590       -11.1183
  63   2.0000      -0.364024        -9.9056
  64   2.0000      -0.331283        -9.0147
  65   2.0000      -0.325009        -8.8440
  66   2.0000      -0.291274        -7.9260
  67   0.0000       0.021967         0.5977
  68   0.0000       0.089386         2.4323
  69   0.0000       0.103549         2.8177
  70   0.0000       0.121926         3.3178
  71   0.0000       0.129131         3.5138

MULLIKEN ATOMIC CHARGES
-----------------------
   0 S :    0.093802
   1 C :   -0.135387
   2 C :   -0.114820
   3 C :    0.026072
   4 C :   -0.107370
   5 H :   -0.028378
   6 C :    0.109881
   7 H :    0.001252
   8 H :    0.021075
   9 C :   -0.042644
  10 H :    0.038423
  11 H :    0.017790
  12 C :   -0.067853
  13 H :    0.039652
  14 H :    0.028546
  15 H :    0.034932
  16 S :    0.079214
  17 C :   -0.104499
  18 C :    0.017367
  19 C :   -0.063751
  20 C :   -0.103793
  21 H :    0.002765
  22 C :    0.115273
  23 H :   -0.003975
  24 H :    0.010332
  25 C :   -0.108938
  26 H :    0.032045
  27 H :    0.040684
  28 C :   -0.082518
  29 H :    0.032464
  30 H :    0.045511
  31 H :    0.041115
  32 H :    0.062946
  33 H :    0.072787
Sum of atomic charges:   -0.0000000

LOEWDIN ATOMIC CHARGES
----------------------
   0 S :    0.397773
   1 C :   -0.200259
   2 C :   -0.068202
   3 C :   -0.060122
   4 C :   -0.181612
   5 H :    0.019225
   6 C :   -0.033262
   7 H :    0.026320
   8 H :    0.030256
   9 C :   -0.032950
  10 H :    0.025645
  11 H :    0.026161
  12 C :   -0.075424
  13 H :    0.027417
  14 H :    0.027531
  15 H :    0.026178
  16 S :    0.372723
  17 C :   -0.161885
  18 C :   -0.062730
  19 C :   -0.058225
  20 C :   -0.184736
  21 H :    0.026407
  22 C :   -0.030831
  23 H :    0.018286
  24 H :    0.030177
  25 C :   -0.045883
  26 H :    0.024588
  27 H :    0.030923
  28 C :   -0.075381
  29 H :    0.024374
  30 H :    0.027503
  31 H :    0.030320
  32 H :    0.041147
  33 H :    0.038547

  Mayer bond orders larger than 0.100000
B(  0-S ,  1-C ) :   1.1279 B(  0-S ,  4-C ) :   1.1476 B(  1-C ,  2-C ) :   1.6091
B(  1-C , 32-H ) :   0.9646 B(  2-C ,  3-C ) :   1.2539 B(  2-C ,  6-C ) :   1.0408
B(  3-C ,  4-C ) :   1.5463 B(  3-C ,  5-H ) :   0.9973 B(  4-C , 20-C ) :   1.0549
B(  6-C ,  7-H ) :   0.9302 B(  6-C ,  8-H ) :   0.9353 B(  6-C ,  9-C ) :   1.0285
B(  9-C , 10-H ) :   0.9645 B(  9-C , 11-H ) :   0.9542 B(  9-C , 12-C ) :   1.0625
B( 12-C , 13-H ) :   0.9786 B( 12-C , 14-H ) :   0.9754 B( 12-C , 15-H ) :   0.9794
B( 16-S , 17-C ) :   1.1282 B( 16-S , 20-C ) :   1.1230 B( 17-C , 18-C ) :   1.6222
B( 17-C , 33-H ) :   0.9681 B( 18-C , 19-C ) :   1.2305 B( 18-C , 21-H ) :   0.9960
B( 19-C , 20-C ) :   1.6118 B( 19-C , 22-C ) :   1.0546 B( 22-C , 23-H ) :   0.9255
B( 22-C , 24-H ) :   0.9282 B( 22-C , 25-C ) :   1.0569 B( 25-C , 26-H ) :   0.9633
B( 25-C , 27-H ) :   0.9525 B( 25-C , 28-C ) :   1.0726 B( 28-C , 29-H ) :   0.9787
B( 28-C , 30-H ) :   0.9718 B( 28-C , 31-H ) :   0.9753

Dispersion correction           -0.013751076
FINAL SINGLE POINT ENERGY     -1339.867736446997

DIPOLE MOMENT
-------------
                                X             Y             Z
Electronic contribution:     30.44836       8.10128     -12.80167
Nuclear contribution   :    -31.17498      -8.13642      13.09022
                        -----------------------------------------
Total Dipole Moment    :     -0.72662      -0.03514       0.28856
                        -----------------------------------------
Magnitude (a.u.)       :      0.78261
Magnitude (Debye)      :      1.98923

Rotational constants in cm-1:     0.016721     0.009499     0.006232
Rotational constants in MHz :   501.272005   284.771012   186.833278

                             ****ORCA TERMINATED NORMALLY****
TOTAL RUN TIME: 0 days 0 hours 0 minutes 21 seconds 484 msec
