                         Program Version 4.2.1 -  RELEASE  -
|  1> ! wB97X-D3 SP def2-SVP
|  2> %pal
|  3> nprocs 24
|  4> end
|  5>
|  6> * xyz 0 1
|  7> S 	 -125.865 	 63.8408 	 -56.0767
|  8> C 	 -124.38 	 64.2703 	 -55.2974
|  9> C 	 -124.15 	 63.6138 	 -54.1244
| 10> C 	 -125.256 	 62.6744 	 -53.858
| 11> C 	 -126.218 	 62.653 	 -54.8739
| 12> H 	 -125.462 	 61.9693 	 -53.069
| 13> C 	 -123.007 	 63.8084 	 -53.202
| 14> H 	 -122.428 	 64.725 	 -53.4697
| 15> H 	 -122.329 	 62.9497 	 -53.4196
| 16> C 	 -123.218 	 63.8678 	 -51.7043
| 17> H 	 -123.613 	 62.8324 	 -51.5368
| 18> H 	 -122.352 	 64.1689 	 -51.011
| 19> C 	 -124.362 	 64.8688 	 -51.3938
| 20> H 	 -125.319 	 64.55 	 -51.862
| 21> H 	 -124.485 	 64.9689 	 -50.3102
| 22> H 	 -123.997 	 65.8523 	 -51.813
| 23> S 	 -127.956 	 61.1509 	 -56.3564
| 24> C 	 -129.444 	 60.4777 	 -55.6458
| 25> C 	 -129.467 	 60.7747 	 -54.3066
| 26> C 	 -128.416 	 61.661 	 -53.8522
| 27> C 	 -127.481 	 61.956 	 -54.8812
| 28> H 	 -130.285 	 60.3071 	 -53.7017
| 29> C 	 -128.43 	 62.1022 	 -52.4036
| 30> H 	 -129.363 	 62.6478 	 -52.2462
| 31> H 	 -127.696 	 62.9031 	 -52.1696
| 32> C 	 -128.487 	 61.0087 	 -51.3913
| 33> H 	 -127.83 	 60.1812 	 -51.6507
| 34> H 	 -129.533 	 60.628 	 -51.4328
| 35> C 	 -128.163 	 61.462 	 -49.9184
| 36> H 	 -127.502 	 62.2918 	 -49.9495
| 37> H 	 -127.637 	 60.7212 	 -49.3817
| 38> H 	 -129.046 	 61.6454 	 -49.3497
| 39> H 	 -123.672 	 65.032 	 -55.551
| 40> H 	 -130.111 	 59.7572 	 -56.1887
| 41> *
| 42>
| 43>                          ****END OF INPUT****

CARTESIAN COORDINATES (ANGSTROEM)
---------------------------------
  S    -125.865000   63.840800  -56.076700
  C    -124.380000   64.270300  -55.297400
  C    -124.150000   63.613800  -54.124400
  C    -125.256000   62.674400  -53.858000
  C    -126.218000   62.653000  -54.873900
  H    -125.462000   61.969300  -53.069000
  C    -123.007000   63.808400  -53.202000
  H    -122.428000   64.725000  -53.469700
  H    -122.329000   62.949700  -53.419600
  C    -123.218000   63.867800  -51.704300
  H    -123.613000   62.832400  -51.536800
  H    -122.352000   64.168900  -51.011000
  C    -124.362000   64.868800  -51.393800
  H    -125.319000   64.550000  -51.862000
  H    -124.485000   64.968900  -50.310200
  H    -123.997000   65.852300  -51.813000
  S    -127.956000   61.150900  -56.356400
  C    -129.444000   60.477700  -55.645800
  C    -129.467000   60.774700  -54.306600
  C    -128.416000   61.661000  -53.852200
  C    -127.481000   61.956000  -54.881200
  H    -130.285000   60.307100  -53.701700
  C    -128.430000   62.102200  -52.403600
  H    -129.363000   62.647800  -52.246200
  H    -127.696000   62.903100  -52.169600
  C    -128.487000   61.008700  -51.391300
  H    -127.830000   60.181200  -51.650700
  H    -129.533000   60.628000  -51.432800
  C    -128.163000   61.462000  -49.918400
  H    -127.502000   62.291800  -49.949500
  H    -127.637000   60.721200  -49.381700
  H    -129.046000   61.645400  -49.349700
  H    -123.672000   65.032000  -55.551000
  H    -130.111000   59.757200  -56.188700

 Total Charge           Charge          ....    0
 Multiplicity           Mult            ....    1
 Number of Electrons    NEL             ....  134
 Basis Dimension        Dim             ....  322

ORBITAL ENERGIES
----------------

  NO   OCC          E(Eh)            E(eV)
   0   2.0000     -88.967507     -2420.9290
   1   2.0000     -88.964123     -2420.8369
   2   2.0000     -10.332628      -281.1651
   3   2.0000     -10.329525      -281.0807
   4   2.0000     -10.324795      -280.9519
   5   2.0000     -10.312055      -280.6053
   6   2.0000     -10.310086      -280.5517
   7   2.0000     -10.306469      -280.4533
   8   2.0000     -10.300822      -280.2996
   9   2.0000     -10.299730      -280.2699
  10   2.0000     -10.297322      -280.2044
  11   2.0000     -10.295720      -280.1608
  12   2.0000     -10.291221      -280.0384
  13   2.0000     -10.289051      -279.9793
  14   2.0000     -10.282361      -279.7973
  15   2.0000     -10.273577      -279.5583
  16   2.0000      -8.082902      -219.9469
  17   2.0000      -8.078634      -219.8308
  18   2.0000      -6.041432      -164.3957
  19   2.0000      -6.037340      -164.2844
  20   2.0000      -6.037203      -164.2807
  21   2.0000      -6.033563      -164.1816
  22   2.0000      -6.033090      -164.1687
  23   2.0000      -6.029406      -164.0685
  24   2.0000      -1.008195       -27.4344
  25   2.0000      -0.983278       -26.7564
  26   2.0000      -0.919586       -25.0232
  27   2.0000      -0.912788       -24.8382
  28   2.0000      -0.873590       -23.7716
  29   2.0000      -0.847915       -23.0729
  30   2.0000      -0.841484       -22.8979
  31   2.0000      -0.816756       -22.2251
  32   2.0000      -0.784027       -21.3345
  33   2.0000      -0.775533       -21.1033
  34   2.0000      -0.711349       -19.3568
  35   2.0000      -0.697381       -18.9767
  36   2.0000      -0.688710       -18.7408
  37   2.0000      -0.654743       -17.8165
  38   2.0000      -0.638772       -17.3819
  39   2.0000      -0.620393       -16.8817
  40   2.0000      -0.599415       -16.3109
  41   2.0000      -0.569165       -15.4878
  42   2.0000      -0.565365       -15.3844
  43   2.0000      -0.555694       -15.1212
  44   2.0000      -0.551008       -14.9937
  45   2.0000      -0.525903       -14.3105
  46   2.0000      -0.516572       -14.0566
  47   2.0000      -0.509136       -13.8543
  48   2.0000      -0.501928       -13.6581
  49   2.0000      -0.498850       -13.5744
  50   2.0000      -0.492638       -13.4054
  51   2.0000      -0.484563       -13.1856
  52   2.0000      -0.472329       -12.8527
  53   2.0000      -0.466771       -12.7015
  54   2.0000      -0.459245       -12.4967
  55   2.0000      -0.448510       -12.2046
  56   2.0000      -0.446678       -12.1547
  57   2.0000      -0.439963       -11.9720
  58   2.0000      -0.433296       -11.7906
  59   2.0000      -0.421573       -11.4716
  60   2.0000      -0.419615       -11.4183
  61   2.0000      -0.412592       -11.2272
  62   2.0000      -0.407608       -11.0916
  63   2.0000      -0.352835        -9.6011
  64   2.0000      -0.328502        -8.9390
  65   2.0000      -0.327705        -8.9173
  66   2.0000      -0.292588        -7.9617
  67   0.0000       0.027765         0.7555
  68   0.0000       0.075313         2.0494
  69   0.0000       0.112290         3.0556
  70   0.0000       0.114058         3.1037
  71   0.0000       0.118920         3.2360

MULLIKEN ATOMIC CHARGES
-----------------------
   0 S :    0.125199
   1 C :   -0.088175
   2 C :   -0.095240
   3 C :    0.007548
   4 C :   -0.149109
   5 H :    0.010503
   6 C :    0.054860
   7 H :    0.019393
   8 H :    0.053366
   9 C :   -0.110501
  10 H :    0.032536
  11 H :    0.059954
  12 C :   -0.080361
  13 H :    0.056946
  14 H :    0.037581
  15 H :    0.032078
  16 S :    0.088639
  17 C :   -0.112665
  18 C :   -0.061547
  19 C :   -0.016200
  20 C :   -0.149841
  21 H :    0.042735
  22 C :    0.054054
  23 H :    0.029560
  24 H :    0.023281
  25 C :   -0.118499
  26 H :    0.035115
  27 H :    0.034984
  28 C :    0.001541
  29 H :    0.018235
  30 H :    0.019415
  31 H :    0.032750
  32 H :    0.030062
  33 H :    0.081801
Sum of atomic charges:   -0.0000000

LOEWDIN ATOMIC CHARGES
----------------------
   0 S :    0.424436
   1 C :   -0.200445
   2 C :   -0.059284
   3 C :   -0.064003
   4 C :   -0.201945
   5 H :    0.028742
   6 C :   -0.045259
   7 H :    0.028766
   8 H :    0.042153
   9 C :   -0.052498
  10 H :    0.024202
  11 H :    0.040987
  12 C :   -0.071711
  13 H :    0.027865
  14 H :    0.022685
  15 H :    0.028234
  16 S :    0.392000
  17 C :   -0.184569
  18 C :   -0.077180
  19 C :   -0.052582
  20 C :   -0.203023
  21 H :    0.040818
  22 C :   -0.046022
  23 H :    0.037172
  24 H :    0.028525
  25 C :   -0.041848
  26 H :    0.021501
  27 H :    0.026841
  28 C :   -0.054273
  29 H :    0.020692
  30 H :    0.023535
  31 H :    0.024757
  32 H :    0.027572
  33 H :    0.043157

  Mayer bond orders larger than 0.100000
B(  0-S ,  1-C ) :   1.1284 B(  0-S ,  4-C ) :   1.1559 B(  1-C ,  2-C ) :   1.6560
B(  1-C , 32-H ) :   0.9610 B(  2-C ,  3-C ) :   1.1793 B(  2-C ,  6-C ) :   1.0257
B(  3-C ,  4-C ) :   1.6011 B(  3-C ,  5-H ) :   0.9967 B(  4-C , 20-C ) :   1.0406
B(  6-C ,  7-H ) :   0.9386 B(  6-C ,  8-H ) :   0.9343 B(  6-C ,  9-C ) :   1.0599
B(  9-C , 10-H ) :   0.9483 B(  9-C , 11-H ) :   0.9584 B(  9-C , 12-C ) :   1.0774
B( 12-C , 13-H ) :   0.9676 B( 12-C , 14-H ) :   0.9762 B( 12-C , 15-H ) :   0.9746
B( 16-S , 17-C ) :   1.1392 B( 16-S , 20-C ) :   1.1457 B( 17-C , 18-C ) :   1.6272
B( 17-C , 33-H ) :   0.9620 B( 18-C , 19-C ) :   1.2241 B( 18-C , 21-H ) :   0.9798
B( 19-C , 20-C ) :   1.5756 B( 19-C , 22-C ) :   1.0503 B( 22-C , 23-H ) :   0.9263
B( 22-C , 24-H ) :   0.9418 B( 22-C , 25-C ) :   1.0495 B( 25-C , 26-H ) :   0.9687
B( 25-C , 27-H ) :   0.9525 B( 25-C , 28-C ) :   1.0741 B( 28-C , 29-H ) :   0.9774
B( 28-C , 30-H ) :   0.9758 B( 28-C , 31-H ) :   0.9777

Dispersion correction           -0.014738544
FINAL SINGLE POINT ENERGY     -1339.873416133116

DIPOLE MOMENT
-------------
                                X             Y             Z
Electronic contribution:     -5.13295      -2.69000     -31.00856
Nuclear contribution   :      5.14982       2.58324      31.79280
                        -----------------------------------------
Total Dipole Moment    :      0.01686      -0.10675       0.78425
                        -----------------------------------------
Magnitude (a.u.)       :      0.79166
Magnitude (Debye)      :      2.01224

Rotational constants in cm-1:     0.016473     0.010587     0.006843
Rotational constants in MHz :   493.860543   317.376394   205.147615

                             ****ORCA TERMINATED NORMALLY****
TOTAL RUN TIME: 0 days 0 hours 0 minutes 22 seconds 265 msec
