                         Program Version 4.2.1 -  RELEASE  -
|  1> ! wB97X-D3 SP def2-SVP
|  2> %pal
|  3> nprocs 24
|  4> end
|  5>
|  6> * xyz 0 1
|  7> S 	 -55.8712 	 14.0589 	 -99.0809
|  8> C 	 -56.5814 	 15.327 	 -99.8808
|  9> C 	 -57.9559 	 15.3236 	 -99.8102
| 10> C 	 -58.4792 	 14.1769 	 -99.1103
| 11> C 	 -57.4087 	 13.4085 	 -98.6568
| 12> H 	 -59.5008 	 13.8076 	 -99.0552
| 13> C 	 -58.8976 	 16.3269 	 -100.439
| 14> H 	 -58.2547 	 17.087 	 -100.879
| 15> H 	 -59.4697 	 16.7853 	 -99.6917
| 16> C 	 -59.7442 	 15.7447 	 -101.569
| 17> H 	 -59.0499 	 15.2424 	 -102.248
| 18> H 	 -60.4617 	 15.0491 	 -101.114
| 19> C 	 -60.6009 	 16.773 	 -102.34
| 20> H 	 -61.2012 	 16.3132 	 -103.167
| 21> H 	 -61.339 	 17.1963 	 -101.715
| 22> H 	 -59.9653 	 17.5131 	 -102.825
| 23> S 	 -56.9912 	 12.3364 	 -96.1443
| 24> C 	 -57.6294 	 10.7301 	 -95.7575
| 25> C 	 -58.1092 	 10.1777 	 -96.9108
| 26> C 	 -58.0149 	 10.9231 	 -98.1061
| 27> C 	 -57.634 	 12.2535 	 -97.7955
| 28> H 	 -58.5402 	 9.13487 	 -96.8633
| 29> C 	 -58.3158 	 10.4398 	 -99.5261
| 30> H 	 -59.2803 	 10.9524 	 -99.7431
| 31> H 	 -58.4009 	 9.43167 	 -99.3243
| 32> C 	 -57.2801 	 10.6234 	 -100.629
| 33> H 	 -56.259 	 10.2703 	 -100.207
| 34> H 	 -57.3329 	 11.7028 	 -100.82
| 35> C 	 -57.5812 	 9.73907 	 -101.901
| 36> H 	 -58.6295 	 9.72783 	 -102.325
| 37> H 	 -57.3661 	 8.67803 	 -101.785
| 38> H 	 -56.8866 	 10.023 	 -102.733
| 39> H 	 -56.0605 	 16.07 	 -100.447
| 40> H 	 -57.5545 	 10.2076 	 -94.7811
| 41> *
| 42>
| 43>                          ****END OF INPUT****

CARTESIAN COORDINATES (ANGSTROEM)
---------------------------------
  S    -55.871200   14.058900  -99.080900
  C    -56.581400   15.327000  -99.880800
  C    -57.955900   15.323600  -99.810200
  C    -58.479200   14.176900  -99.110300
  C    -57.408700   13.408500  -98.656800
  H    -59.500800   13.807600  -99.055200
  C    -58.897600   16.326900  -100.439000
  H    -58.254700   17.087000  -100.879000
  H    -59.469700   16.785300  -99.691700
  C    -59.744200   15.744700  -101.569000
  H    -59.049900   15.242400  -102.248000
  H    -60.461700   15.049100  -101.114000
  C    -60.600900   16.773000  -102.340000
  H    -61.201200   16.313200  -103.167000
  H    -61.339000   17.196300  -101.715000
  H    -59.965300   17.513100  -102.825000
  S    -56.991200   12.336400  -96.144300
  C    -57.629400   10.730100  -95.757500
  C    -58.109200   10.177700  -96.910800
  C    -58.014900   10.923100  -98.106100
  C    -57.634000   12.253500  -97.795500
  H    -58.540200    9.134870  -96.863300
  C    -58.315800   10.439800  -99.526100
  H    -59.280300   10.952400  -99.743100
  H    -58.400900    9.431670  -99.324300
  C    -57.280100   10.623400  -100.629000
  H    -56.259000   10.270300  -100.207000
  H    -57.332900   11.702800  -100.820000
  C    -57.581200    9.739070  -101.901000
  H    -58.629500    9.727830  -102.325000
  H    -57.366100    8.678030  -101.785000
  H    -56.886600   10.023000  -102.733000
  H    -56.060500   16.070000  -100.447000
  H    -57.554500   10.207600  -94.781100

 Total Charge           Charge          ....    0
 Multiplicity           Mult            ....    1
 Number of Electrons    NEL             ....  134
 Basis Dimension        Dim             ....  322

ORBITAL ENERGIES
----------------

  NO   OCC          E(Eh)            E(eV)
   0   2.0000     -88.969941     -2420.9952
   1   2.0000     -88.961098     -2420.7545
   2   2.0000     -10.324429      -280.9420
   3   2.0000     -10.324153      -280.9345
   4   2.0000     -10.317606      -280.7563
   5   2.0000     -10.305665      -280.4314
   6   2.0000     -10.302647      -280.3493
   7   2.0000     -10.297828      -280.2181
   8   2.0000     -10.296659      -280.1863
   9   2.0000     -10.295037      -280.1422
  10   2.0000     -10.293665      -280.1049
  11   2.0000     -10.287901      -279.9480
  12   2.0000     -10.286989      -279.9232
  13   2.0000     -10.286890      -279.9205
  14   2.0000     -10.284032      -279.8427
  15   2.0000     -10.278803      -279.7004
  16   2.0000      -8.086493      -220.0447
  17   2.0000      -8.075158      -219.7362
  18   2.0000      -6.044724      -164.4853
  19   2.0000      -6.040686      -164.3754
  20   2.0000      -6.037491      -164.2885
  21   2.0000      -6.033661      -164.1843
  22   2.0000      -6.029784      -164.0788
  23   2.0000      -6.025943      -163.9742
  24   2.0000      -1.013142       -27.5690
  25   2.0000      -0.984379       -26.7863
  26   2.0000      -0.913576       -24.8597
  27   2.0000      -0.903798       -24.5936
  28   2.0000      -0.870365       -23.6838
  29   2.0000      -0.853512       -23.2252
  30   2.0000      -0.841321       -22.8935
  31   2.0000      -0.812050       -22.0970
  32   2.0000      -0.781338       -21.2613
  33   2.0000      -0.770012       -20.9531
  34   2.0000      -0.709545       -19.3077
  35   2.0000      -0.697534       -18.9809
  36   2.0000      -0.686830       -18.6896
  37   2.0000      -0.654846       -17.8193
  38   2.0000      -0.645349       -17.5608
  39   2.0000      -0.614102       -16.7106
  40   2.0000      -0.584822       -15.9138
  41   2.0000      -0.578610       -15.7448
  42   2.0000      -0.569757       -15.5039
  43   2.0000      -0.559175       -15.2159
  44   2.0000      -0.521521       -14.1913
  45   2.0000      -0.515490       -14.0272
  46   2.0000      -0.513341       -13.9687
  47   2.0000      -0.510136       -13.8815
  48   2.0000      -0.508960       -13.8495
  49   2.0000      -0.496331       -13.5058
  50   2.0000      -0.491283       -13.3685
  51   2.0000      -0.486691       -13.2435
  52   2.0000      -0.472423       -12.8553
  53   2.0000      -0.463841       -12.6218
  54   2.0000      -0.462153       -12.5758
  55   2.0000      -0.449416       -12.2292
  56   2.0000      -0.441574       -12.0159
  57   2.0000      -0.433961       -11.8087
  58   2.0000      -0.429480       -11.6867
  59   2.0000      -0.426944       -11.6177
  60   2.0000      -0.420796       -11.4504
  61   2.0000      -0.415709       -11.3120
  62   2.0000      -0.410321       -11.1654
  63   2.0000      -0.341193        -9.2843
  64   2.0000      -0.327728        -8.9179
  65   2.0000      -0.325440        -8.8557
  66   2.0000      -0.295707        -8.0466
  67   0.0000       0.039301         1.0694
  68   0.0000       0.060422         1.6442
  69   0.0000       0.118120         3.2142
  70   0.0000       0.125296         3.4095
  71   0.0000       0.132323         3.6007

MULLIKEN ATOMIC CHARGES
-----------------------
   0 S :    0.156904
   1 C :   -0.108498
   2 C :   -0.104288
   3 C :    0.022869
   4 C :   -0.185258
   5 H :    0.028574
   6 C :    0.122156
   7 H :   -0.001368
   8 H :    0.020753
   9 C :   -0.100166
  10 H :    0.034802
  11 H :    0.028839
  12 C :   -0.036532
  13 H :    0.035502
  14 H :    0.023701
  15 H :    0.030839
  16 S :    0.094041
  17 C :   -0.104304
  18 C :   -0.056744
  19 C :   -0.065614
  20 C :   -0.183539
  21 H :    0.031668
  22 C :    0.126172
  23 H :    0.045656
  24 H :   -0.010978
  25 C :   -0.088344
  26 H :    0.049721
  27 H :    0.056604
  28 C :   -0.080801
  29 H :    0.040323
  30 H :    0.029342
  31 H :    0.041398
  32 H :    0.034914
  33 H :    0.071657
Sum of atomic charges:    0.0000000

LOEWDIN ATOMIC CHARGES
----------------------
   0 S :    0.462930
   1 C :   -0.227985
   2 C :   -0.061514
   3 C :   -0.053967
   4 C :   -0.215252
   5 H :    0.036125
   6 C :   -0.027588
   7 H :    0.025017
   8 H :    0.023485
   9 C :   -0.038577
  10 H :    0.026094
  11 H :    0.022310
  12 C :   -0.064940
  13 H :    0.032483
  14 H :    0.018582
  15 H :    0.023382
  16 S :    0.385202
  17 C :   -0.191430
  18 C :   -0.086495
  19 C :   -0.058134
  20 C :   -0.192938
  21 H :    0.037723
  22 C :   -0.030564
  23 H :    0.040672
  24 H :    0.016655
  25 C :   -0.041326
  26 H :    0.039454
  27 H :    0.028506
  28 C :   -0.081024
  29 H :    0.030449
  30 H :    0.023260
  31 H :    0.032407
  32 H :    0.025461
  33 H :    0.041540

  Mayer bond orders larger than 0.100000
B(  0-S ,  1-C ) :   1.1543 B(  0-S ,  4-C ) :   1.1762 B(  1-C ,  2-C ) :   1.6079
B(  1-C , 32-H ) :   0.9643 B(  2-C ,  3-C ) :   1.2394 B(  2-C ,  6-C ) :   1.0338
B(  3-C ,  4-C ) :   1.5566 B(  3-C ,  5-H ) :   0.9942 B(  4-C , 20-C ) :   1.0375
B(  6-C ,  7-H ) :   0.9343 B(  6-C ,  8-H ) :   0.9313 B(  6-C ,  9-C ) :   1.0636
B(  9-C , 10-H ) :   0.9578 B(  9-C , 11-H ) :   0.9540 B(  9-C , 12-C ) :   1.0903
B( 12-C , 13-H ) :   0.9742 B( 12-C , 14-H ) :   0.9740 B( 12-C , 15-H ) :   0.9757
B( 16-S , 17-C ) :   1.1424 B( 16-S , 20-C ) :   1.1525 B( 17-C , 18-C ) :   1.6078
B( 17-C , 20-C ) :   0.1091 B( 17-C , 33-H ) :   0.9636 B( 18-C , 19-C ) :   1.2758
B( 18-C , 21-H ) :   0.9716 B( 19-C , 20-C ) :   1.5526 B( 19-C , 22-C ) :   1.0131
B( 22-C , 23-H ) :   0.9266 B( 22-C , 24-H ) :   0.9268 B( 22-C , 25-C ) :   1.0663
B( 25-C , 26-H ) :   0.9559 B( 25-C , 27-H ) :   0.9533 B( 25-C , 28-C ) :   1.0711
B( 28-C , 29-H ) :   0.9756 B( 28-C , 30-H ) :   0.9750 B( 28-C , 31-H ) :   0.9762

Dispersion correction           -0.014522696
FINAL SINGLE POINT ENERGY     -1339.870963333286

DIPOLE MOMENT
-------------
                                X             Y             Z
Electronic contribution:     14.76765      -0.31356      24.50623
Nuclear contribution   :    -15.10494       0.20126     -24.99855
                        -----------------------------------------
Total Dipole Moment    :     -0.33729      -0.11230      -0.49233
                        -----------------------------------------
Magnitude (a.u.)       :      0.60726
Magnitude (Debye)      :      1.54352

Rotational constants in cm-1:     0.018010     0.008541     0.007143
Rotational constants in MHz :   539.911763   256.051058   214.148759

                             ****ORCA TERMINATED NORMALLY****
TOTAL RUN TIME: 0 days 0 hours 0 minutes 20 seconds 591 msec
