                         Program Version 4.2.1 -  RELEASE  -
|  1> ! wB97X-D3 SP def2-SVP
|  2> %pal
|  3> nprocs 24
|  4> end
|  5>
|  6> * xyz 0 1
|  7> S 	 31.2796 	 -3.66787 	 -119.922
|  8> C 	 29.7623 	 -3.2536 	 -120.725
|  9> C 	 29.0458 	 -4.39968 	 -121.118
| 10> C 	 29.8283 	 -5.5545 	 -120.948
| 11> C 	 31.0416 	 -5.33412 	 -120.324
| 12> H 	 29.5046 	 -6.45773 	 -121.325
| 13> C 	 27.7279 	 -4.38022 	 -121.862
| 14> H 	 27.1404 	 -3.57165 	 -121.553
| 15> H 	 27.1733 	 -5.19099 	 -121.317
| 16> C 	 27.8178 	 -4.4436 	 -123.393
| 17> H 	 28.1913 	 -3.55606 	 -123.84
| 18> H 	 28.4744 	 -5.24454 	 -123.689
| 19> C 	 26.4553 	 -4.69496 	 -123.928
| 20> H 	 26.1036 	 -5.73476 	 -123.746
| 21> H 	 25.6563 	 -3.99081 	 -123.628
| 22> H 	 26.6816 	 -4.65369 	 -125.021
| 23> S 	 33.4414 	 -5.96557 	 -121.339
| 24> C 	 34.2883 	 -7.41412 	 -120.839
| 25> C 	 33.445 	 -8.20562 	 -120.054
| 26> C 	 32.2118 	 -7.50331 	 -119.629
| 27> C 	 32.0641 	 -6.28834 	 -120.305
| 28> H 	 33.7568 	 -9.24048 	 -119.804
| 29> C 	 31.0917 	 -8.21541 	 -118.869
| 30> H 	 30.2428 	 -8.55052 	 -119.519
| 31> H 	 30.5821 	 -7.49422 	 -118.18
| 32> C 	 31.509 	 -9.26324 	 -117.962
| 33> H 	 32.2788 	 -8.83654 	 -117.332
| 34> H 	 31.9615 	 -10.1317 	 -118.429
| 35> C 	 30.3844 	 -9.72746 	 -117.082
| 36> H 	 29.5245 	 -10.2082 	 -117.608
| 37> H 	 29.9599 	 -8.85414 	 -116.536
| 38> H 	 30.7235 	 -10.499 	 -116.465
| 39> H 	 29.387 	 -2.27402 	 -120.83
| 40> H 	 35.1729 	 -7.81805 	 -121.312
| 41> *
| 42>
| 43>                          ****END OF INPUT****

CARTESIAN COORDINATES (ANGSTROEM)
---------------------------------
  S     31.279600   -3.667870  -119.922000
  C     29.762300   -3.253600  -120.725000
  C     29.045800   -4.399680  -121.118000
  C     29.828300   -5.554500  -120.948000
  C     31.041600   -5.334120  -120.324000
  H     29.504600   -6.457730  -121.325000
  C     27.727900   -4.380220  -121.862000
  H     27.140400   -3.571650  -121.553000
  H     27.173300   -5.190990  -121.317000
  C     27.817800   -4.443600  -123.393000
  H     28.191300   -3.556060  -123.840000
  H     28.474400   -5.244540  -123.689000
  C     26.455300   -4.694960  -123.928000
  H     26.103600   -5.734760  -123.746000
  H     25.656300   -3.990810  -123.628000
  H     26.681600   -4.653690  -125.021000
  S     33.441400   -5.965570  -121.339000
  C     34.288300   -7.414120  -120.839000
  C     33.445000   -8.205620  -120.054000
  C     32.211800   -7.503310  -119.629000
  C     32.064100   -6.288340  -120.305000
  H     33.756800   -9.240480  -119.804000
  C     31.091700   -8.215410  -118.869000
  H     30.242800   -8.550520  -119.519000
  H     30.582100   -7.494220  -118.180000
  C     31.509000   -9.263240  -117.962000
  H     32.278800   -8.836540  -117.332000
  H     31.961500  -10.131700  -118.429000
  C     30.384400   -9.727460  -117.082000
  H     29.524500  -10.208200  -117.608000
  H     29.959900   -8.854140  -116.536000
  H     30.723500  -10.499000  -116.465000
  H     29.387000   -2.274020  -120.830000
  H     35.172900   -7.818050  -121.312000

 Total Charge           Charge          ....    0
 Multiplicity           Mult            ....    1
 Number of Electrons    NEL             ....  134
 Basis Dimension        Dim             ....  322

ORBITAL ENERGIES
----------------

  NO   OCC          E(Eh)            E(eV)
   0   2.0000     -88.968488     -2420.9556
   1   2.0000     -88.961232     -2420.7582
   2   2.0000     -10.320864      -280.8450
   3   2.0000     -10.320045      -280.8227
   4   2.0000     -10.316074      -280.7146
   5   2.0000     -10.312224      -280.6099
   6   2.0000     -10.306855      -280.4638
   7   2.0000     -10.300966      -280.3035
   8   2.0000     -10.296902      -280.1930
   9   2.0000     -10.289522      -279.9921
  10   2.0000     -10.289372      -279.9881
  11   2.0000     -10.285829      -279.8916
  12   2.0000     -10.283814      -279.8368
  13   2.0000     -10.281899      -279.7847
  14   2.0000     -10.274437      -279.5816
  15   2.0000     -10.274141      -279.5736
  16   2.0000      -8.083107      -219.9525
  17   2.0000      -8.076063      -219.7608
  18   2.0000      -6.041509      -164.3978
  19   2.0000      -6.037618      -164.2919
  20   2.0000      -6.034669      -164.2117
  21   2.0000      -6.034007      -164.1937
  22   2.0000      -6.030444      -164.0967
  23   2.0000      -6.026805      -163.9977
  24   2.0000      -1.007862       -27.4253
  25   2.0000      -0.977773       -26.6065
  26   2.0000      -0.922678       -25.1074
  27   2.0000      -0.919017       -25.0077
  28   2.0000      -0.874376       -23.7930
  29   2.0000      -0.856615       -23.3097
  30   2.0000      -0.843230       -22.9455
  31   2.0000      -0.811791       -22.0900
  32   2.0000      -0.781236       -21.2585
  33   2.0000      -0.768878       -20.9222
  34   2.0000      -0.707265       -19.2456
  35   2.0000      -0.702724       -19.1221
  36   2.0000      -0.696693       -18.9580
  37   2.0000      -0.649685       -17.6788
  38   2.0000      -0.642826       -17.4922
  39   2.0000      -0.628159       -17.0931
  40   2.0000      -0.600444       -16.3389
  41   2.0000      -0.575689       -15.6653
  42   2.0000      -0.567112       -15.4319
  43   2.0000      -0.562569       -15.3083
  44   2.0000      -0.539005       -14.6671
  45   2.0000      -0.525282       -14.2937
  46   2.0000      -0.517566       -14.0837
  47   2.0000      -0.514927       -14.0119
  48   2.0000      -0.502448       -13.6723
  49   2.0000      -0.500999       -13.6329
  50   2.0000      -0.490587       -13.3495
  51   2.0000      -0.474024       -12.8989
  52   2.0000      -0.468494       -12.7484
  53   2.0000      -0.463313       -12.6074
  54   2.0000      -0.458561       -12.4781
  55   2.0000      -0.451914       -12.2972
  56   2.0000      -0.447931       -12.1888
  57   2.0000      -0.439887       -11.9699
  58   2.0000      -0.432325       -11.7642
  59   2.0000      -0.426600       -11.6084
  60   2.0000      -0.418715       -11.3938
  61   2.0000      -0.412019       -11.2116
  62   2.0000      -0.408012       -11.1026
  63   2.0000      -0.340932        -9.2772
  64   2.0000      -0.326645        -8.8885
  65   2.0000      -0.322233        -8.7684
  66   2.0000      -0.295288        -8.0352
  67   0.0000       0.031479         0.8566
  68   0.0000       0.063092         1.7168
  69   0.0000       0.114386         3.1126
  70   0.0000       0.116604         3.1729
  71   0.0000       0.135973         3.7000

MULLIKEN ATOMIC CHARGES
-----------------------
   0 S :    0.130993
   1 C :   -0.118091
   2 C :   -0.082674
   3 C :    0.060611
   4 C :   -0.160919
   5 H :   -0.023421
   6 C :    0.058059
   7 H :   -0.003267
   8 H :    0.028326
   9 C :   -0.013703
  10 H :    0.024849
  11 H :    0.025462
  12 C :   -0.071767
  13 H :    0.034350
  14 H :    0.044125
  15 H :    0.034971
  16 S :    0.108934
  17 C :   -0.086400
  18 C :   -0.071088
  19 C :   -0.005333
  20 C :   -0.159300
  21 H :    0.038105
  22 C :    0.039236
  23 H :    0.039209
  24 H :    0.022428
  25 C :   -0.085134
  26 H :    0.026970
  27 H :    0.022240
  28 C :   -0.026096
  29 H :    0.025114
  30 H :    0.033877
  31 H :    0.020039
  32 H :    0.029042
  33 H :    0.060253
Sum of atomic charges:   -0.0000000

LOEWDIN ATOMIC CHARGES
----------------------
   0 S :    0.417302
   1 C :   -0.186032
   2 C :   -0.061351
   3 C :   -0.040521
   4 C :   -0.213557
   5 H :    0.017636
   6 C :   -0.036392
   7 H :    0.020427
   8 H :    0.039414
   9 C :   -0.032085
  10 H :    0.024177
  11 H :    0.026659
  12 C :   -0.069383
  13 H :    0.026342
  14 H :    0.027302
  15 H :    0.032565
  16 S :    0.406536
  17 C :   -0.194284
  18 C :   -0.072918
  19 C :   -0.055829
  20 C :   -0.197737
  21 H :    0.034925
  22 C :   -0.041977
  23 H :    0.033779
  24 H :    0.037099
  25 C :   -0.051095
  26 H :    0.028361
  27 H :    0.019164
  28 C :   -0.059853
  29 H :    0.027256
  30 H :    0.028852
  31 H :    0.018671
  32 H :    0.016088
  33 H :    0.030461

  Mayer bond orders larger than 0.100000
B(  0-S ,  1-C ) :   1.1486 B(  0-S ,  4-C ) :   1.1561 B(  1-C ,  2-C ) :   1.5744
B(  1-C , 32-H ) :   0.9745 B(  2-C ,  3-C ) :   1.2766 B(  2-C ,  6-C ) :   1.0250
B(  3-C ,  4-C ) :   1.5293 B(  3-C ,  5-H ) :   1.0067 B(  4-C , 20-C ) :   1.0688
B(  6-C ,  7-H ) :   0.9305 B(  6-C ,  8-H ) :   0.9432 B(  6-C ,  9-C ) :   1.0570
B(  9-C , 10-H ) :   0.9532 B(  9-C , 11-H ) :   0.9545 B(  9-C , 12-C ) :   1.0819
B( 12-C , 13-H ) :   0.9760 B( 12-C , 14-H ) :   0.9731 B( 12-C , 15-H ) :   0.9740
B( 16-S , 17-C ) :   1.1465 B( 16-S , 20-C ) :   1.1468 B( 17-C , 18-C ) :   1.6267
B( 17-C , 33-H ) :   0.9642 B( 18-C , 19-C ) :   1.2159 B( 18-C , 21-H ) :   0.9783
B( 19-C , 20-C ) :   1.5954 B( 19-C , 22-C ) :   1.0473 B( 22-C , 23-H ) :   0.9340
B( 22-C , 24-H ) :   0.9253 B( 22-C , 25-C ) :   1.0852 B( 25-C , 26-H ) :   0.9513
B( 25-C , 27-H ) :   0.9372 B( 25-C , 28-C ) :   1.1009 B( 28-C , 29-H ) :   0.9697
B( 28-C , 30-H ) :   0.9706 B( 28-C , 31-H ) :   0.9687

Dispersion correction           -0.013448407
FINAL SINGLE POINT ENERGY     -1339.862567624934

DIPOLE MOMENT
-------------
                                X             Y             Z
Electronic contribution:     21.65476      13.46370       0.14549
Nuclear contribution   :    -22.21006     -13.84464      -0.38650
                        -----------------------------------------
Total Dipole Moment    :     -0.55530      -0.38094      -0.24101
                        -----------------------------------------
Magnitude (a.u.)       :      0.71523
Magnitude (Debye)      :      1.81797

Rotational constants in cm-1:     0.017628     0.007771     0.006623
Rotational constants in MHz :   528.465023   232.966953   198.546720

                             ****ORCA TERMINATED NORMALLY****
TOTAL RUN TIME: 0 days 0 hours 0 minutes 20 seconds 939 msec
