                         Program Version 4.2.1 -  RELEASE  -
|  1> ! wB97X-D3 SP def2-SVP
|  2> %pal
|  3> nprocs 24
|  4> end
|  5>
|  6> * xyz 0 1
|  7> S 	 -51.4979 	 15.6734 	 24.8353
|  8> C 	 -49.7837 	 15.0816 	 25.0661
|  9> C 	 -49.0677 	 16.0529 	 25.7183
| 10> C 	 -49.8361 	 17.179 	 26.1734
| 11> C 	 -51.1977 	 17.0549 	 25.797
| 12> H 	 -49.4471 	 17.956 	 26.8215
| 13> C 	 -47.6024 	 15.9788 	 26.1609
| 14> H 	 -47.2871 	 14.9468 	 26.1298
| 15> H 	 -47.4759 	 16.3358 	 27.1404
| 16> C 	 -46.6096 	 16.6442 	 25.273
| 17> H 	 -47.0887 	 17.4015 	 24.7008
| 18> H 	 -45.8979 	 17.1958 	 25.9175
| 19> C 	 -45.7551 	 15.6762 	 24.4193
| 20> H 	 -46.3697 	 15.1088 	 23.652
| 21> H 	 -45.0624 	 16.2694 	 23.9207
| 22> H 	 -45.1393 	 14.9001 	 24.9626
| 23> S 	 -52.018 	 19.5735 	 25.3878
| 24> C 	 -53.4763 	 20.169 	 26.1551
| 25> C 	 -54.0668 	 19.1319 	 26.8739
| 26> C 	 -53.3683 	 17.9151 	 26.8628
| 27> C 	 -52.212 	 18.0054 	 26.071
| 28> H 	 -54.9366 	 19.2881 	 27.4558
| 29> C 	 -53.7449 	 16.6755 	 27.6603
| 30> H 	 -54.048 	 16.0092 	 26.8611
| 31> H 	 -54.6338 	 16.908 	 28.1745
| 32> C 	 -52.8039 	 16.1127 	 28.73
| 33> H 	 -52.3625 	 16.959 	 29.2159
| 34> H 	 -51.9319 	 15.5671 	 28.1891
| 35> C 	 -53.6921 	 15.3355 	 29.7697
| 36> H 	 -54.3558 	 16.0614 	 30.211
| 37> H 	 -53.0979 	 14.9798 	 30.567
| 38> H 	 -54.3201 	 14.5974 	 29.3353
| 39> H 	 -49.3386 	 14.2188 	 24.5195
| 40> H 	 -53.8714 	 21.1854 	 26.0476
| 41> *
| 42>
| 43>                          ****END OF INPUT****

CARTESIAN COORDINATES (ANGSTROEM)
---------------------------------
  S    -51.497900   15.673400   24.835300
  C    -49.783700   15.081600   25.066100
  C    -49.067700   16.052900   25.718300
  C    -49.836100   17.179000   26.173400
  C    -51.197700   17.054900   25.797000
  H    -49.447100   17.956000   26.821500
  C    -47.602400   15.978800   26.160900
  H    -47.287100   14.946800   26.129800
  H    -47.475900   16.335800   27.140400
  C    -46.609600   16.644200   25.273000
  H    -47.088700   17.401500   24.700800
  H    -45.897900   17.195800   25.917500
  C    -45.755100   15.676200   24.419300
  H    -46.369700   15.108800   23.652000
  H    -45.062400   16.269400   23.920700
  H    -45.139300   14.900100   24.962600
  S    -52.018000   19.573500   25.387800
  C    -53.476300   20.169000   26.155100
  C    -54.066800   19.131900   26.873900
  C    -53.368300   17.915100   26.862800
  C    -52.212000   18.005400   26.071000
  H    -54.936600   19.288100   27.455800
  C    -53.744900   16.675500   27.660300
  H    -54.048000   16.009200   26.861100
  H    -54.633800   16.908000   28.174500
  C    -52.803900   16.112700   28.730000
  H    -52.362500   16.959000   29.215900
  H    -51.931900   15.567100   28.189100
  C    -53.692100   15.335500   29.769700
  H    -54.355800   16.061400   30.211000
  H    -53.097900   14.979800   30.567000
  H    -54.320100   14.597400   29.335300
  H    -49.338600   14.218800   24.519500
  H    -53.871400   21.185400   26.047600

 Total Charge           Charge          ....    0
 Multiplicity           Mult            ....    1
 Number of Electrons    NEL             ....  134
 Basis Dimension        Dim             ....  322

ORBITAL ENERGIES
----------------

  NO   OCC          E(Eh)            E(eV)
   0   2.0000     -88.967991     -2420.9421
   1   2.0000     -88.965963     -2420.8869
   2   2.0000     -10.328254      -281.0461
   3   2.0000     -10.320382      -280.8319
   4   2.0000     -10.317968      -280.7662
   5   2.0000     -10.316925      -280.7378
   6   2.0000     -10.302119      -280.3349
   7   2.0000     -10.298308      -280.2312
   8   2.0000     -10.295354      -280.1508
   9   2.0000     -10.289442      -279.9899
  10   2.0000     -10.289115      -279.9811
  11   2.0000     -10.282084      -279.7897
  12   2.0000     -10.281476      -279.7732
  13   2.0000     -10.281223      -279.7663
  14   2.0000     -10.280508      -279.7469
  15   2.0000     -10.273337      -279.5517
  16   2.0000      -8.082010      -219.9227
  17   2.0000      -8.080829      -219.8905
  18   2.0000      -6.040550      -164.3717
  19   2.0000      -6.039196      -164.3349
  20   2.0000      -6.036568      -164.2634
  21   2.0000      -6.035133      -164.2243
  22   2.0000      -6.032820      -164.1614
  23   2.0000      -6.031919      -164.1369
  24   2.0000      -1.008200       -27.4345
  25   2.0000      -0.980118       -26.6704
  26   2.0000      -0.917203       -24.9584
  27   2.0000      -0.906772       -24.6745
  28   2.0000      -0.870737       -23.6940
  29   2.0000      -0.851138       -23.1606
  30   2.0000      -0.842004       -22.9121
  31   2.0000      -0.805957       -21.9312
  32   2.0000      -0.786290       -21.3960
  33   2.0000      -0.772703       -21.0263
  34   2.0000      -0.711195       -19.3526
  35   2.0000      -0.698371       -19.0036
  36   2.0000      -0.692318       -18.8389
  37   2.0000      -0.665981       -18.1223
  38   2.0000      -0.635978       -17.3058
  39   2.0000      -0.617731       -16.8093
  40   2.0000      -0.593274       -16.1438
  41   2.0000      -0.572470       -15.5777
  42   2.0000      -0.561847       -15.2886
  43   2.0000      -0.554506       -15.0889
  44   2.0000      -0.530156       -14.4263
  45   2.0000      -0.528691       -14.3864
  46   2.0000      -0.519541       -14.1374
  47   2.0000      -0.513066       -13.9612
  48   2.0000      -0.502851       -13.6833
  49   2.0000      -0.495276       -13.4771
  50   2.0000      -0.484979       -13.1969
  51   2.0000      -0.481532       -13.1031
  52   2.0000      -0.474162       -12.9026
  53   2.0000      -0.466530       -12.6949
  54   2.0000      -0.458955       -12.4888
  55   2.0000      -0.447000       -12.1635
  56   2.0000      -0.443949       -12.0805
  57   2.0000      -0.441429       -12.0119
  58   2.0000      -0.433099       -11.7852
  59   2.0000      -0.422762       -11.5039
  60   2.0000      -0.418190       -11.3795
  61   2.0000      -0.413351       -11.2479
  62   2.0000      -0.408036       -11.1032
  63   2.0000      -0.338857        -9.2208
  64   2.0000      -0.330769        -9.0007
  65   2.0000      -0.328912        -8.9501
  66   2.0000      -0.294530        -8.0146
  67   0.0000       0.031172         0.8482
  68   0.0000       0.065121         1.7720
  69   0.0000       0.110281         3.0009
  70   0.0000       0.115790         3.1508
  71   0.0000       0.131461         3.5772

MULLIKEN ATOMIC CHARGES
-----------------------
   0 S :    0.113057
   1 C :   -0.150935
   2 C :   -0.077246
   3 C :    0.024288
   4 C :   -0.171729
   5 H :    0.019070
   6 C :    0.101439
   7 H :    0.008823
   8 H :    0.016110
   9 C :   -0.059377
  10 H :    0.024381
  11 H :    0.020208
  12 C :   -0.069011
  13 H :    0.038317
  14 H :    0.021440
  15 H :    0.040443
  16 S :    0.129576
  17 C :   -0.109016
  18 C :   -0.023970
  19 C :   -0.047133
  20 C :   -0.181658
  21 H :   -0.000142
  22 C :    0.113013
  23 H :    0.033494
  24 H :   -0.021022
  25 C :   -0.077963
  26 H :    0.024977
  27 H :    0.062916
  28 C :   -0.018680
  29 H :    0.021745
  30 H :    0.028701
  31 H :    0.033472
  32 H :    0.066486
  33 H :    0.065927
Sum of atomic charges:   -0.0000000

LOEWDIN ATOMIC CHARGES
----------------------
   0 S :    0.401340
   1 C :   -0.193683
   2 C :   -0.056145
   3 C :   -0.067867
   4 C :   -0.205137
   5 H :    0.032277
   6 C :   -0.027492
   7 H :    0.029353
   8 H :    0.025925
   9 C :   -0.039482
  10 H :    0.021272
  11 H :    0.027388
  12 C :   -0.068531
  13 H :    0.028784
  14 H :    0.016390
  15 H :    0.030474
  16 S :    0.433627
  17 C :   -0.195061
  18 C :   -0.069047
  19 C :   -0.055120
  20 C :   -0.221478
  21 H :    0.023968
  22 C :   -0.034648
  23 H :    0.033859
  24 H :    0.019090
  25 C :   -0.037263
  26 H :    0.021672
  27 H :    0.037187
  28 C :   -0.053913
  29 H :    0.025223
  30 H :    0.021691
  31 H :    0.022548
  32 H :    0.038453
  33 H :    0.034346

  Mayer bond orders larger than 0.100000
B(  0-S ,  1-C ) :   1.1029 B(  0-S ,  4-C ) :   1.1767 B(  1-C ,  2-C ) :   1.6351
B(  1-C , 32-H ) :   0.9618 B(  2-C ,  3-C ) :   1.2259 B(  2-C ,  6-C ) :   1.0323
B(  3-C ,  4-C ) :   1.5410 B(  3-C ,  5-H ) :   0.9973 B(  4-C , 20-C ) :   1.0470
B(  6-C ,  7-H ) :   0.9460 B(  6-C ,  8-H ) :   0.9416 B(  6-C ,  9-C ) :   1.0520
B(  9-C , 10-H ) :   0.9575 B(  9-C , 11-H ) :   0.9539 B(  9-C , 12-C ) :   1.0905
B( 12-C , 13-H ) :   0.9745 B( 12-C , 14-H ) :   0.9744 B( 12-C , 15-H ) :   0.9730
B( 16-S , 17-C ) :   1.1668 B( 16-S , 20-C ) :   1.1749 B( 17-C , 18-C ) :   1.5538
B( 17-C , 20-C ) :   0.1110 B( 17-C , 33-H ) :   0.9685 B( 18-C , 19-C ) :   1.3023
B( 18-C , 21-H ) :   0.9912 B( 19-C , 20-C ) :   1.5269 B( 19-C , 22-C ) :   1.0325
B( 22-C , 23-H ) :   0.9138 B( 22-C , 24-H ) :   0.9263 B( 22-C , 25-C ) :   1.0532
B( 25-C , 26-H ) :   0.9583 B( 25-C , 27-H ) :   0.9513 B( 25-C , 28-C ) :   1.0750
B( 28-C , 29-H ) :   0.9714 B( 28-C , 30-H ) :   0.9749 B( 28-C , 31-H ) :   0.9789

Dispersion correction           -0.014579489
FINAL SINGLE POINT ENERGY     -1339.868570297309

DIPOLE MOMENT
-------------
                                X             Y             Z
Electronic contribution:    -12.33207      10.74014     -11.80491
Nuclear contribution   :     12.54429     -10.72718      12.21894
                        -----------------------------------------
Total Dipole Moment    :      0.21222       0.01296       0.41403
                        -----------------------------------------
Magnitude (a.u.)       :      0.46543
Magnitude (Debye)      :      1.18303

Rotational constants in cm-1:     0.020010     0.008146     0.006744
Rotational constants in MHz :   599.882099   244.196970   202.178602

                             ****ORCA TERMINATED NORMALLY****
TOTAL RUN TIME: 0 days 0 hours 0 minutes 20 seconds 209 msec
