                         Program Version 4.2.1 -  RELEASE  -
|  1> ! wB97X-D3 SP def2-SVP
|  2> %pal
|  3> nprocs 24
|  4> end
|  5>
|  6> * xyz 0 1
|  7> S 	 -68.89 	 21.1339 	 -73.0027
|  8> C 	 -67.8956 	 20.193 	 -74.1221
|  9> C 	 -67.1838 	 19.1966 	 -73.4944
| 10> C 	 -67.6582 	 19.0386 	 -72.1343
| 11> C 	 -68.6332 	 19.9738 	 -71.782
| 12> H 	 -67.3502 	 18.2551 	 -71.4203
| 13> C 	 -66.1619 	 18.2238 	 -74.1753
| 14> H 	 -65.6597 	 17.5776 	 -73.4196
| 15> H 	 -65.3973 	 18.862 	 -74.5254
| 16> C 	 -66.6131 	 17.4088 	 -75.351
| 17> H 	 -67.5229 	 16.8266 	 -75.0425
| 18> H 	 -66.9765 	 18.1076 	 -76.034
| 19> C 	 -65.5364 	 16.3477 	 -75.8092
| 20> H 	 -65.9552 	 15.6822 	 -76.5491
| 21> H 	 -64.6536 	 16.8443 	 -76.1488
| 22> H 	 -65.3007 	 15.7046 	 -74.9313
| 23> S 	 -68.8612 	 21.4756 	 -69.4162
| 24> C 	 -69.6945 	 20.758 	 -68.1072
| 25> C 	 -70.3231 	 19.587 	 -68.4444
| 26> C 	 -70.0411 	 19.2136 	 -69.7683
| 27> C 	 -69.2022 	 20.0715 	 -70.4293
| 28> H 	 -70.8885 	 19.1388 	 -67.7044
| 29> C 	 -70.788 	 18.0516 	 -70.3617
| 30> H 	 -70.7671 	 18.0875 	 -71.4252
| 31> H 	 -71.8789 	 18.2114 	 -70.163
| 32> C 	 -70.3157 	 16.6672 	 -69.8922
| 33> H 	 -70.9459 	 15.8282 	 -70.327
| 34> H 	 -70.6142 	 16.7439 	 -68.8608
| 35> C 	 -68.8534 	 16.3954 	 -70.0256
| 36> H 	 -68.2887 	 16.9451 	 -69.2483
| 37> H 	 -68.566 	 16.8115 	 -71.0237
| 38> H 	 -68.7111 	 15.3264 	 -70.0183
| 39> H 	 -67.8846 	 20.2863 	 -75.1891
| 40> H 	 -69.8139 	 21.0935 	 -67.0998
| 41> *
| 42>
| 43>                          ****END OF INPUT****

CARTESIAN COORDINATES (ANGSTROEM)
---------------------------------
  S    -68.890000   21.133900  -73.002700
  C    -67.895600   20.193000  -74.122100
  C    -67.183800   19.196600  -73.494400
  C    -67.658200   19.038600  -72.134300
  C    -68.633200   19.973800  -71.782000
  H    -67.350200   18.255100  -71.420300
  C    -66.161900   18.223800  -74.175300
  H    -65.659700   17.577600  -73.419600
  H    -65.397300   18.862000  -74.525400
  C    -66.613100   17.408800  -75.351000
  H    -67.522900   16.826600  -75.042500
  H    -66.976500   18.107600  -76.034000
  C    -65.536400   16.347700  -75.809200
  H    -65.955200   15.682200  -76.549100
  H    -64.653600   16.844300  -76.148800
  H    -65.300700   15.704600  -74.931300
  S    -68.861200   21.475600  -69.416200
  C    -69.694500   20.758000  -68.107200
  C    -70.323100   19.587000  -68.444400
  C    -70.041100   19.213600  -69.768300
  C    -69.202200   20.071500  -70.429300
  H    -70.888500   19.138800  -67.704400
  C    -70.788000   18.051600  -70.361700
  H    -70.767100   18.087500  -71.425200
  H    -71.878900   18.211400  -70.163000
  C    -70.315700   16.667200  -69.892200
  H    -70.945900   15.828200  -70.327000
  H    -70.614200   16.743900  -68.860800
  C    -68.853400   16.395400  -70.025600
  H    -68.288700   16.945100  -69.248300
  H    -68.566000   16.811500  -71.023700
  H    -68.711100   15.326400  -70.018300
  H    -67.884600   20.286300  -75.189100
  H    -69.813900   21.093500  -67.099800

 Total Charge           Charge          ....    0
 Multiplicity           Mult            ....    1
 Number of Electrons    NEL             ....  134
 Basis Dimension        Dim             ....  322

ORBITAL ENERGIES
----------------

  NO   OCC          E(Eh)            E(eV)
   0   2.0000     -88.969085     -2420.9719
   1   2.0000     -88.965632     -2420.8779
   2   2.0000     -10.327162      -281.0164
   3   2.0000     -10.323667      -280.9213
   4   2.0000     -10.313683      -280.6496
   5   2.0000     -10.309585      -280.5381
   6   2.0000     -10.306498      -280.4541
   7   2.0000     -10.296826      -280.1909
   8   2.0000     -10.296284      -280.1761
   9   2.0000     -10.292276      -280.0671
  10   2.0000     -10.287272      -279.9309
  11   2.0000     -10.285688      -279.8878
  12   2.0000     -10.283744      -279.8349
  13   2.0000     -10.281787      -279.7816
  14   2.0000     -10.281432      -279.7720
  15   2.0000     -10.275921      -279.6220
  16   2.0000      -8.084258      -219.9838
  17   2.0000      -8.080857      -219.8913
  18   2.0000      -6.042777      -164.4323
  19   2.0000      -6.039284      -164.3373
  20   2.0000      -6.038716      -164.3218
  21   2.0000      -6.035367      -164.2307
  22   2.0000      -6.034971      -164.2199
  23   2.0000      -6.031612      -164.1285
  24   2.0000      -1.010366       -27.4934
  25   2.0000      -0.988652       -26.9026
  26   2.0000      -0.913120       -24.8473
  27   2.0000      -0.912338       -24.8260
  28   2.0000      -0.868919       -23.6445
  29   2.0000      -0.851601       -23.1732
  30   2.0000      -0.845864       -23.0171
  31   2.0000      -0.813923       -22.1480
  32   2.0000      -0.785851       -21.3841
  33   2.0000      -0.775785       -21.1102
  34   2.0000      -0.708062       -19.2674
  35   2.0000      -0.702886       -19.1265
  36   2.0000      -0.689001       -18.7487
  37   2.0000      -0.658340       -17.9143
  38   2.0000      -0.640653       -17.4330
  39   2.0000      -0.616873       -16.7860
  40   2.0000      -0.596188       -16.2231
  41   2.0000      -0.576458       -15.6862
  42   2.0000      -0.567051       -15.4302
  43   2.0000      -0.554030       -15.0759
  44   2.0000      -0.545440       -14.8422
  45   2.0000      -0.526885       -14.3373
  46   2.0000      -0.518500       -14.1091
  47   2.0000      -0.506625       -13.7860
  48   2.0000      -0.500392       -13.6164
  49   2.0000      -0.498610       -13.5679
  50   2.0000      -0.490994       -13.3606
  51   2.0000      -0.481139       -13.0925
  52   2.0000      -0.468653       -12.7527
  53   2.0000      -0.466576       -12.6962
  54   2.0000      -0.461068       -12.5463
  55   2.0000      -0.451415       -12.2836
  56   2.0000      -0.447263       -12.1707
  57   2.0000      -0.441508       -12.0140
  58   2.0000      -0.434281       -11.8174
  59   2.0000      -0.430269       -11.7082
  60   2.0000      -0.418098       -11.3770
  61   2.0000      -0.413239       -11.2448
  62   2.0000      -0.402857       -10.9623
  63   2.0000      -0.339030        -9.2255
  64   2.0000      -0.334932        -9.1140
  65   2.0000      -0.329737        -8.9726
  66   2.0000      -0.296763        -8.0753
  67   0.0000       0.039834         1.0839
  68   0.0000       0.061040         1.6610
  69   0.0000       0.109765         2.9868
  70   0.0000       0.123586         3.3630
  71   0.0000       0.133953         3.6451

MULLIKEN ATOMIC CHARGES
-----------------------
   0 S :    0.125680
   1 C :   -0.130638
   2 C :   -0.069909
   3 C :    0.017871
   4 C :   -0.169427
   5 H :    0.027512
   6 C :    0.069636
   7 H :    0.019552
   8 H :    0.020992
   9 C :   -0.074817
  10 H :    0.032256
  11 H :    0.012549
  12 C :   -0.040208
  13 H :    0.040320
  14 H :    0.034894
  15 H :    0.037138
  16 S :    0.121345
  17 C :   -0.074111
  18 C :   -0.028675
  19 C :   -0.017933
  20 C :   -0.172026
  21 H :   -0.009895
  22 C :    0.059764
  23 H :    0.014115
  24 H :    0.036312
  25 C :   -0.093831
  26 H :    0.038192
  27 H :    0.011425
  28 C :   -0.033742
  29 H :    0.051608
  30 H :    0.027372
  31 H :    0.035565
  32 H :    0.040641
  33 H :    0.040476
Sum of atomic charges:   -0.0000000

LOEWDIN ATOMIC CHARGES
----------------------
   0 S :    0.420531
   1 C :   -0.192698
   2 C :   -0.054442
   3 C :   -0.062785
   4 C :   -0.211259
   5 H :    0.035289
   6 C :   -0.031604
   7 H :    0.029996
   8 H :    0.026328
   9 C :   -0.040144
  10 H :    0.028516
  11 H :    0.011912
  12 C :   -0.056851
  13 H :    0.027420
  14 H :    0.021159
  15 H :    0.032342
  16 S :    0.414413
  17 C :   -0.188719
  18 C :   -0.067401
  19 C :   -0.057973
  20 C :   -0.197875
  21 H :    0.020873
  22 C :   -0.032633
  23 H :    0.019296
  24 H :    0.038937
  25 C :   -0.048197
  26 H :    0.029872
  27 H :    0.015518
  28 C :   -0.068197
  29 H :    0.032653
  30 H :    0.027949
  31 H :    0.027420
  32 H :    0.022860
  33 H :    0.027494

  Mayer bond orders larger than 0.100000
B(  0-S ,  1-C ) :   1.1335 B(  0-S ,  4-C ) :   1.1610 B(  1-C ,  2-C ) :   1.6224
B(  1-C , 32-H ) :   0.9718 B(  2-C ,  3-C ) :   1.2401 B(  2-C ,  6-C ) :   1.0052
B(  3-C ,  4-C ) :   1.5749 B(  3-C ,  5-H ) :   0.9781 B(  4-C , 20-C ) :   1.0112
B(  6-C ,  7-H ) :   0.9479 B(  6-C ,  8-H ) :   0.9312 B(  6-C ,  9-C ) :   1.0671
B(  9-C , 10-H ) :   0.9583 B(  9-C , 11-H ) :   0.9551 B(  9-C , 12-C ) :   1.0707
B( 12-C , 13-H ) :   0.9763 B( 12-C , 14-H ) :   0.9794 B( 12-C , 15-H ) :   0.9742
B( 16-S , 17-C ) :   1.1635 B( 16-S , 20-C ) :   1.1332 B( 17-C , 18-C ) :   1.6250
B( 17-C , 33-H ) :   0.9638 B( 18-C , 19-C ) :   1.2213 B( 18-C , 21-H ) :   1.0066
B( 19-C , 20-C ) :   1.6170 B( 19-C , 22-C ) :   1.0416 B( 22-C , 23-H ) :   0.9295
B( 22-C , 24-H ) :   0.9455 B( 22-C , 25-C ) :   1.0595 B( 25-C , 26-H ) :   0.9556
B( 25-C , 27-H ) :   0.9592 B( 25-C , 28-C ) :   1.0778 B( 28-C , 29-H ) :   0.9662
B( 28-C , 30-H ) :   0.9660 B( 28-C , 31-H ) :   0.9667

Dispersion correction           -0.014978201
FINAL SINGLE POINT ENERGY     -1339.871429677778

DIPOLE MOMENT
-------------
                                X             Y             Z
Electronic contribution:     -6.59847      27.84851       9.39222
Nuclear contribution   :      6.62999     -28.47299      -9.48929
                        -----------------------------------------
Total Dipole Moment    :      0.03152      -0.62448      -0.09707
                        -----------------------------------------
Magnitude (a.u.)       :      0.63276
Magnitude (Debye)      :      1.60836

Rotational constants in cm-1:     0.021111     0.008318     0.006610
Rotational constants in MHz :   632.893796   249.380305   198.173323

                             ****ORCA TERMINATED NORMALLY****
TOTAL RUN TIME: 0 days 0 hours 0 minutes 22 seconds 122 msec
