                         Program Version 4.2.1 -  RELEASE  -
|  1> ! wB97X-D3 SP def2-SVP
|  2> %pal
|  3> nprocs 24
|  4> end
|  5>
|  6> * xyz 0 1
|  7> S 	 -58.6916 	 13.5957 	 -97.1618
|  8> C 	 -58.1161 	 15.1549 	 -96.6881
|  9> C 	 -57.3329 	 15.7142 	 -97.6755
| 10> C 	 -57.3117 	 14.9675 	 -98.8743
| 11> C 	 -58.0556 	 13.8005 	 -98.7847
| 12> H 	 -56.8843 	 15.3611 	 -99.8259
| 13> C 	 -56.8947 	 17.1908 	 -97.6291
| 14> H 	 -56.6419 	 17.3572 	 -96.5543
| 15> H 	 -57.7802 	 17.8527 	 -97.874
| 16> C 	 -55.6944 	 17.6648 	 -98.4962
| 17> H 	 -55.936 	 17.5781 	 -99.5912
| 18> H 	 -55.5766 	 18.6822 	 -98.243
| 19> C 	 -54.3913 	 16.9917 	 -98.0876
| 20> H 	 -54.0377 	 17.1493 	 -97.0446
| 21> H 	 -54.5053 	 15.9168 	 -98.2793
| 22> H 	 -53.5319 	 17.261 	 -98.7494
| 23> S 	 -58.2397 	 11.1636 	 -99.0806
| 24> C 	 -58.338 	 10.5165 	 -100.74
| 25> C 	 -58.4381 	 11.5241 	 -101.718
| 26> C 	 -58.2847 	 12.8227 	 -101.152
| 27> C 	 -58.2462 	 12.7765 	 -99.7689
| 28> H 	 -58.4523 	 11.2154 	 -102.728
| 29> C 	 -58.1773 	 14.0612 	 -101.986
| 30> H 	 -58.4449 	 14.9377 	 -101.406
| 31> H 	 -58.8578 	 14.0055 	 -102.848
| 32> C 	 -56.7546 	 14.1383 	 -102.58
| 33> H 	 -56.4645 	 13.2205 	 -103.089
| 34> H 	 -56.0415 	 14.1913 	 -101.821
| 35> C 	 -56.6375 	 15.416 	 -103.384
| 36> H 	 -55.7887 	 15.3989 	 -104.089
| 37> H 	 -56.5544 	 16.3543 	 -102.822
| 38> H 	 -57.5196 	 15.53 	 -104.07
| 39> H 	 -58.4784 	 15.6862 	 -95.9565
| 40> H 	 -58.4562 	 9.46376 	 -100.95
| 41> *
| 42>
| 43>                          ****END OF INPUT****

CARTESIAN COORDINATES (ANGSTROEM)
---------------------------------
  S    -58.691600   13.595700  -97.161800
  C    -58.116100   15.154900  -96.688100
  C    -57.332900   15.714200  -97.675500
  C    -57.311700   14.967500  -98.874300
  C    -58.055600   13.800500  -98.784700
  H    -56.884300   15.361100  -99.825900
  C    -56.894700   17.190800  -97.629100
  H    -56.641900   17.357200  -96.554300
  H    -57.780200   17.852700  -97.874000
  C    -55.694400   17.664800  -98.496200
  H    -55.936000   17.578100  -99.591200
  H    -55.576600   18.682200  -98.243000
  C    -54.391300   16.991700  -98.087600
  H    -54.037700   17.149300  -97.044600
  H    -54.505300   15.916800  -98.279300
  H    -53.531900   17.261000  -98.749400
  S    -58.239700   11.163600  -99.080600
  C    -58.338000   10.516500  -100.740000
  C    -58.438100   11.524100  -101.718000
  C    -58.284700   12.822700  -101.152000
  C    -58.246200   12.776500  -99.768900
  H    -58.452300   11.215400  -102.728000
  C    -58.177300   14.061200  -101.986000
  H    -58.444900   14.937700  -101.406000
  H    -58.857800   14.005500  -102.848000
  C    -56.754600   14.138300  -102.580000
  H    -56.464500   13.220500  -103.089000
  H    -56.041500   14.191300  -101.821000
  C    -56.637500   15.416000  -103.384000
  H    -55.788700   15.398900  -104.089000
  H    -56.554400   16.354300  -102.822000
  H    -57.519600   15.530000  -104.070000
  H    -58.478400   15.686200  -95.956500
  H    -58.456200    9.463760  -100.950000

 Total Charge           Charge          ....    0
 Multiplicity           Mult            ....    1
 Number of Electrons    NEL             ....  134
 Basis Dimension        Dim             ....  322

ORBITAL ENERGIES
----------------

  NO   OCC          E(Eh)            E(eV)
   0   2.0000     -88.967337     -2420.9243
   1   2.0000     -88.966623     -2420.9049
   2   2.0000     -10.328923      -281.0643
   3   2.0000     -10.323438      -280.9150
   4   2.0000     -10.320235      -280.8279
   5   2.0000     -10.302819      -280.3539
   6   2.0000     -10.299614      -280.2668
   7   2.0000     -10.298724      -280.2425
   8   2.0000     -10.298116      -280.2260
   9   2.0000     -10.296233      -280.1747
  10   2.0000     -10.294652      -280.1317
  11   2.0000     -10.293195      -280.0921
  12   2.0000     -10.290977      -280.0317
  13   2.0000     -10.283780      -279.8359
  14   2.0000     -10.283699      -279.8337
  15   2.0000     -10.280759      -279.7537
  16   2.0000      -8.081620      -219.9121
  17   2.0000      -8.081596      -219.9114
  18   2.0000      -6.040158      -164.3611
  19   2.0000      -6.040107      -164.3597
  20   2.0000      -6.036353      -164.2575
  21   2.0000      -6.036057      -164.2495
  22   2.0000      -6.032403      -164.1500
  23   2.0000      -6.032183      -164.1440
  24   2.0000      -1.010307       -27.4919
  25   2.0000      -0.982931       -26.7469
  26   2.0000      -0.917008       -24.9531
  27   2.0000      -0.907680       -24.6992
  28   2.0000      -0.872908       -23.7530
  29   2.0000      -0.855706       -23.2850
  30   2.0000      -0.844430       -22.9781
  31   2.0000      -0.815017       -22.1777
  32   2.0000      -0.780007       -21.2251
  33   2.0000      -0.769461       -20.9381
  34   2.0000      -0.712744       -19.3948
  35   2.0000      -0.704135       -19.1605
  36   2.0000      -0.697641       -18.9838
  37   2.0000      -0.667310       -18.1584
  38   2.0000      -0.639091       -17.3906
  39   2.0000      -0.625332       -17.0161
  40   2.0000      -0.597415       -16.2565
  41   2.0000      -0.573234       -15.5985
  42   2.0000      -0.561508       -15.2794
  43   2.0000      -0.548881       -14.9358
  44   2.0000      -0.541503       -14.7350
  45   2.0000      -0.525825       -14.3084
  46   2.0000      -0.519527       -14.1370
  47   2.0000      -0.516965       -14.0673
  48   2.0000      -0.506301       -13.7772
  49   2.0000      -0.498529       -13.5657
  50   2.0000      -0.485155       -13.2017
  51   2.0000      -0.484372       -13.1804
  52   2.0000      -0.469575       -12.7778
  53   2.0000      -0.466430       -12.6922
  54   2.0000      -0.456212       -12.4142
  55   2.0000      -0.453781       -12.3480
  56   2.0000      -0.448003       -12.1908
  57   2.0000      -0.437944       -11.9171
  58   2.0000      -0.435307       -11.8453
  59   2.0000      -0.426805       -11.6139
  60   2.0000      -0.423469       -11.5232
  61   2.0000      -0.418692       -11.3932
  62   2.0000      -0.412427       -11.2227
  63   2.0000      -0.355057        -9.6616
  64   2.0000      -0.335782        -9.1371
  65   2.0000      -0.329619        -8.9694
  66   2.0000      -0.279168        -7.5965
  67   0.0000       0.022330         0.6076
  68   0.0000       0.068500         1.8640
  69   0.0000       0.099309         2.7023
  70   0.0000       0.114316         3.1107
  71   0.0000       0.120245         3.2720

MULLIKEN ATOMIC CHARGES
-----------------------
   0 S :    0.105167
   1 C :   -0.042721
   2 C :   -0.076548
   3 C :   -0.005986
   4 C :   -0.136409
   5 H :    0.018543
   6 C :   -0.010006
   7 H :    0.029786
   8 H :    0.058008
   9 C :   -0.050017
  10 H :    0.042234
  11 H :    0.023552
  12 C :   -0.082953
  13 H :    0.044418
  14 H :    0.035607
  15 H :    0.035490
  16 S :    0.095220
  17 C :   -0.098753
  18 C :   -0.016691
  19 C :   -0.051284
  20 C :   -0.109378
  21 H :    0.008613
  22 C :    0.053380
  23 H :    0.030846
  24 H :    0.025464
  25 C :   -0.046271
  26 H :    0.028163
  27 H :    0.011093
  28 C :   -0.047824
  29 H :    0.031555
  30 H :    0.037049
  31 H :    0.024321
  32 H :   -0.019464
  33 H :    0.055796
Sum of atomic charges:   -0.0000000

LOEWDIN ATOMIC CHARGES
----------------------
   0 S :    0.410645
   1 C :   -0.180685
   2 C :   -0.061508
   3 C :   -0.077229
   4 C :   -0.183599
   5 H :    0.035266
   6 C :   -0.038088
   7 H :    0.032037
   8 H :    0.039974
   9 C :   -0.045422
  10 H :    0.028563
  11 H :    0.022488
  12 C :   -0.075551
  13 H :    0.030902
  14 H :    0.026040
  15 H :    0.029399
  16 S :    0.388588
  17 C :   -0.171970
  18 C :   -0.059420
  19 C :   -0.055027
  20 C :   -0.191641
  21 H :    0.027198
  22 C :   -0.026374
  23 H :    0.029082
  24 H :    0.032293
  25 C :   -0.036535
  26 H :    0.028502
  27 H :    0.015339
  28 C :   -0.070659
  29 H :    0.027067
  30 H :    0.025772
  31 H :    0.026248
  32 H :   -0.006142
  33 H :    0.024446

  Mayer bond orders larger than 0.100000
B(  0-S ,  1-C ) :   1.1335 B(  0-S ,  4-C ) :   1.1559 B(  1-C ,  2-C ) :   1.6062
B(  1-C ,  4-C ) :   0.1027 B(  1-C , 32-H ) :   0.9880 B(  2-C ,  3-C ) :   1.2580
B(  2-C ,  6-C ) :   1.0079 B(  3-C ,  4-C ) :   1.5465 B(  3-C ,  5-H ) :   0.9814
B(  4-C , 20-C ) :   1.0691 B(  6-C ,  7-H ) :   0.9425 B(  6-C ,  8-H ) :   0.9440
B(  6-C ,  9-C ) :   1.0798 B(  9-C , 10-H ) :   0.9492 B(  9-C , 11-H ) :   0.9504
B(  9-C , 12-C ) :   1.0769 B( 12-C , 13-H ) :   0.9743 B( 12-C , 14-H ) :   0.9753
B( 12-C , 15-H ) :   0.9730 B( 16-S , 17-C ) :   1.1423 B( 16-S , 20-C ) :   1.1281
B( 17-C , 18-C ) :   1.6221 B( 17-C , 20-C ) :   0.1034 B( 17-C , 33-H ) :   0.9673
B( 18-C , 19-C ) :   1.2156 B( 18-C , 21-H ) :   0.9961 B( 19-C , 20-C ) :   1.6081
B( 19-C , 22-C ) :   1.0596 B( 22-C , 23-H ) :   0.9353 B( 22-C , 24-H ) :   0.9278
B( 22-C , 25-C ) :   1.0550 B( 25-C , 26-H ) :   0.9545 B( 25-C , 27-H ) :   0.9487
B( 25-C , 28-C ) :   1.0788 B( 28-C , 29-H ) :   0.9724 B( 28-C , 30-H ) :   0.9748
B( 28-C , 31-H ) :   0.9711

Dispersion correction           -0.014703760
FINAL SINGLE POINT ENERGY     -1339.872479471823

DIPOLE MOMENT
-------------
                                X             Y             Z
Electronic contribution:    -15.25276     -23.03958      14.81002
Nuclear contribution   :     15.43691      23.53774     -15.34227
                        -----------------------------------------
Total Dipole Moment    :      0.18415       0.49816      -0.53226
                        -----------------------------------------
Magnitude (a.u.)       :      0.75191
Magnitude (Debye)      :      1.91122

Rotational constants in cm-1:     0.016742     0.010581     0.007113
Rotational constants in MHz :   501.923784   317.220667   213.236725

                             ****ORCA TERMINATED NORMALLY****
TOTAL RUN TIME: 0 days 0 hours 0 minutes 21 seconds 355 msec
