                         Program Version 4.2.1 -  RELEASE  -
|  1> ! wB97X-D3 SP def2-SVP
|  2> %pal
|  3> nprocs 24
|  4> end
|  5>
|  6> * xyz 0 1
|  7> S 	 -102.589 	 -0.0900934 	 -111.163
|  8> C 	 -103.84 	 -0.520333 	 -112.343
|  9> C 	 -104.999 	 -1.01854 	 -111.782
| 10> C 	 -104.931 	 -1.05923 	 -110.358
| 11> C 	 -103.65 	 -0.818944 	 -109.861
| 12> H 	 -105.711 	 -1.48788 	 -109.677
| 13> C 	 -106.327 	 -1.27412 	 -112.534
| 14> H 	 -106.274 	 -0.966654 	 -113.605
| 15> H 	 -106.988 	 -0.609985 	 -112.032
| 16> C 	 -106.965 	 -2.64788 	 -112.341
| 17> H 	 -106.334 	 -3.45769 	 -112.724
| 18> H 	 -106.968 	 -2.91954 	 -111.28
| 19> C 	 -108.307 	 -2.73252 	 -113.018
| 20> H 	 -108.314 	 -3.17215 	 -113.986
| 21> H 	 -109.03 	 -3.26955 	 -112.383
| 22> H 	 -108.768 	 -1.76924 	 -113.083
| 23> S 	 -102.28 	 -2.2931 	 -107.927
| 24> C 	 -102.422 	 -1.73 	 -106.227
| 25> C 	 -103.12 	 -0.572916 	 -106.121
| 26> C 	 -103.606 	 -0.0323156 	 -107.354
| 27> C 	 -103.312 	 -0.894173 	 -108.435
| 28> H 	 -103.174 	 -0.0144972 	 -105.151
| 29> C 	 -104.248 	 1.2886 	 -107.394
| 30> H 	 -105.023 	 1.43271 	 -106.673
| 31> H 	 -104.672 	 1.42377 	 -108.42
| 32> C 	 -103.332 	 2.583 	 -107.347
| 33> H 	 -102.52 	 2.5502 	 -106.633
| 34> H 	 -103.899 	 3.42436 	 -107.092
| 35> C 	 -102.7 	 2.79202 	 -108.762
| 36> H 	 -103.29 	 3.35959 	 -109.501
| 37> H 	 -102.578 	 1.87108 	 -109.329
| 38> H 	 -101.722 	 3.26057 	 -108.898
| 39> H 	 -103.838 	 -0.451365 	 -113.439
| 40> H 	 -101.827 	 -2.14529 	 -105.413
| 41> *
| 42>
| 43>                          ****END OF INPUT****

CARTESIAN COORDINATES (ANGSTROEM)
---------------------------------
  S    -102.589000   -0.090093  -111.163000
  C    -103.840000   -0.520333  -112.343000
  C    -104.999000   -1.018540  -111.782000
  C    -104.931000   -1.059230  -110.358000
  C    -103.650000   -0.818944  -109.861000
  H    -105.711000   -1.487880  -109.677000
  C    -106.327000   -1.274120  -112.534000
  H    -106.274000   -0.966654  -113.605000
  H    -106.988000   -0.609985  -112.032000
  C    -106.965000   -2.647880  -112.341000
  H    -106.334000   -3.457690  -112.724000
  H    -106.968000   -2.919540  -111.280000
  C    -108.307000   -2.732520  -113.018000
  H    -108.314000   -3.172150  -113.986000
  H    -109.030000   -3.269550  -112.383000
  H    -108.768000   -1.769240  -113.083000
  S    -102.280000   -2.293100  -107.927000
  C    -102.422000   -1.730000  -106.227000
  C    -103.120000   -0.572916  -106.121000
  C    -103.606000   -0.032316  -107.354000
  C    -103.312000   -0.894173  -108.435000
  H    -103.174000   -0.014497  -105.151000
  C    -104.248000    1.288600  -107.394000
  H    -105.023000    1.432710  -106.673000
  H    -104.672000    1.423770  -108.420000
  C    -103.332000    2.583000  -107.347000
  H    -102.520000    2.550200  -106.633000
  H    -103.899000    3.424360  -107.092000
  C    -102.700000    2.792020  -108.762000
  H    -103.290000    3.359590  -109.501000
  H    -102.578000    1.871080  -109.329000
  H    -101.722000    3.260570  -108.898000
  H    -103.838000   -0.451365  -113.439000
  H    -101.827000   -2.145290  -105.413000

 Total Charge           Charge          ....    0
 Multiplicity           Mult            ....    1
 Number of Electrons    NEL             ....  134
 Basis Dimension        Dim             ....  322

ORBITAL ENERGIES
----------------

  NO   OCC          E(Eh)            E(eV)
   0   2.0000     -88.972248     -2421.0579
   1   2.0000     -88.965394     -2420.8714
   2   2.0000     -10.335913      -281.2545
   3   2.0000     -10.333895      -281.1996
   4   2.0000     -10.320036      -280.8224
   5   2.0000     -10.317357      -280.7496
   6   2.0000     -10.308004      -280.4951
   7   2.0000     -10.301844      -280.3274
   8   2.0000     -10.301549      -280.3194
   9   2.0000     -10.295956      -280.1672
  10   2.0000     -10.295287      -280.1490
  11   2.0000     -10.291801      -280.0542
  12   2.0000     -10.288040      -279.9518
  13   2.0000     -10.285199      -279.8745
  14   2.0000     -10.273408      -279.5537
  15   2.0000     -10.269231      -279.4400
  16   2.0000      -8.084363      -219.9867
  17   2.0000      -8.078650      -219.8313
  18   2.0000      -6.043105      -164.4412
  19   2.0000      -6.039408      -164.3406
  20   2.0000      -6.037290      -164.2830
  21   2.0000      -6.034837      -164.2163
  22   2.0000      -6.033514      -164.1803
  23   2.0000      -6.029211      -164.0632
  24   2.0000      -0.994485       -27.0613
  25   2.0000      -0.975053       -26.5326
  26   2.0000      -0.912424       -24.8283
  27   2.0000      -0.903366       -24.5818
  28   2.0000      -0.867183       -23.5972
  29   2.0000      -0.848110       -23.0782
  30   2.0000      -0.842557       -22.9271
  31   2.0000      -0.810930       -22.0665
  32   2.0000      -0.781461       -21.2646
  33   2.0000      -0.767351       -20.8807
  34   2.0000      -0.714244       -19.4356
  35   2.0000      -0.703959       -19.1557
  36   2.0000      -0.695659       -18.9298
  37   2.0000      -0.655279       -17.8310
  38   2.0000      -0.633105       -17.2277
  39   2.0000      -0.615301       -16.7432
  40   2.0000      -0.597328       -16.2541
  41   2.0000      -0.569169       -15.4879
  42   2.0000      -0.558599       -15.2003
  43   2.0000      -0.554145       -15.0791
  44   2.0000      -0.533076       -14.5057
  45   2.0000      -0.518538       -14.1101
  46   2.0000      -0.508313       -13.8319
  47   2.0000      -0.506661       -13.7870
  48   2.0000      -0.504090       -13.7170
  49   2.0000      -0.494693       -13.4613
  50   2.0000      -0.487975       -13.2785
  51   2.0000      -0.476017       -12.9531
  52   2.0000      -0.469507       -12.7759
  53   2.0000      -0.460700       -12.5363
  54   2.0000      -0.455540       -12.3959
  55   2.0000      -0.448769       -12.2116
  56   2.0000      -0.439112       -11.9489
  57   2.0000      -0.435000       -11.8369
  58   2.0000      -0.430905       -11.7255
  59   2.0000      -0.429280       -11.6813
  60   2.0000      -0.421970       -11.4824
  61   2.0000      -0.417978       -11.3738
  62   2.0000      -0.412203       -11.2166
  63   2.0000      -0.338319        -9.2061
  64   2.0000      -0.330317        -8.9884
  65   2.0000      -0.319871        -8.7041
  66   2.0000      -0.305716        -8.3189
  67   0.0000       0.033469         0.9107
  68   0.0000       0.048337         1.3153
  69   0.0000       0.099056         2.6954
  70   0.0000       0.108655         2.9566
  71   0.0000       0.126646         3.4462

MULLIKEN ATOMIC CHARGES
-----------------------
   0 S :    0.107214
   1 C :   -0.114647
   2 C :   -0.084137
   3 C :    0.030062
   4 C :   -0.167464
   5 H :    0.045108
   6 C :    0.064945
   7 H :    0.030695
   8 H :    0.027773
   9 C :   -0.090042
  10 H :    0.027391
  11 H :    0.025192
  12 C :   -0.017827
  13 H :    0.037775
  14 H :    0.027357
  15 H :    0.013165
  16 S :    0.092819
  17 C :   -0.091612
  18 C :   -0.036818
  19 C :    0.019368
  20 C :   -0.198727
  21 H :    0.036940
  22 C :    0.022801
  23 H :    0.025681
  24 H :    0.036028
  25 C :   -0.004204
  26 H :    0.026131
  27 H :    0.021607
  28 C :   -0.072534
  29 H :    0.022708
  30 H :    0.003133
  31 H :    0.025252
  32 H :    0.045298
  33 H :    0.063568
Sum of atomic charges:    0.0000000

LOEWDIN ATOMIC CHARGES
----------------------
   0 S :    0.377439
   1 C :   -0.193922
   2 C :   -0.066589
   3 C :   -0.053043
   4 C :   -0.179097
   5 H :    0.042962
   6 C :   -0.027531
   7 H :    0.032387
   8 H :    0.030147
   9 C :   -0.048729
  10 H :    0.026458
  11 H :    0.024391
  12 C :   -0.063624
  13 H :    0.024673
  14 H :    0.032262
  15 H :    0.021257
  16 S :    0.362352
  17 C :   -0.168335
  18 C :   -0.074912
  19 C :   -0.048946
  20 C :   -0.183561
  21 H :    0.041166
  22 C :   -0.033281
  23 H :    0.027375
  24 H :    0.041037
  25 C :   -0.022849
  26 H :    0.021477
  27 H :    0.018707
  28 C :   -0.086306
  29 H :    0.025960
  30 H :    0.009295
  31 H :    0.025100
  32 H :    0.033552
  33 H :    0.032729

  Mayer bond orders larger than 0.100000
B(  0-S ,  1-C ) :   1.1192 B(  0-S ,  4-C ) :   1.1134 B(  1-C ,  2-C ) :   1.6571
B(  1-C , 32-H ) :   0.9574 B(  2-C ,  3-C ) :   1.2160 B(  2-C ,  6-C ) :   1.0155
B(  3-C ,  4-C ) :   1.6152 B(  3-C ,  5-H ) :   0.9756 B(  4-C , 20-C ) :   1.0462
B(  6-C ,  7-H ) :   0.9483 B(  6-C ,  8-H ) :   0.9337 B(  6-C ,  9-C ) :   1.0607
B(  9-C , 10-H ) :   0.9546 B(  9-C , 11-H ) :   0.9584 B(  9-C , 12-C ) :   1.0744
B( 12-C , 13-H ) :   0.9766 B( 12-C , 14-H ) :   0.9716 B( 12-C , 15-H ) :   0.9733
B( 16-S , 17-C ) :   1.1302 B( 16-S , 20-C ) :   1.1240 B( 17-C , 18-C ) :   1.6523
B( 17-C , 33-H ) :   0.9621 B( 18-C , 19-C ) :   1.2137 B( 18-C , 21-H ) :   0.9764
B( 19-C , 20-C ) :   1.5986 B( 19-C , 22-C ) :   1.0696 B( 22-C , 23-H ) :   0.9349
B( 22-C , 24-H ) :   0.9340 B( 22-C , 25-C ) :   1.0608 B( 25-C , 26-H ) :   0.9634
B( 25-C , 27-H ) :   0.9592 B( 25-C , 28-C ) :   1.0529 B( 28-C , 29-H ) :   0.9720
B( 28-C , 30-H ) :   0.9777 B( 28-C , 31-H ) :   0.9737

Dispersion correction           -0.014802549
FINAL SINGLE POINT ENERGY     -1339.862433954051

DIPOLE MOMENT
-------------
                                X             Y             Z
Electronic contribution:     18.09099      -7.77682       6.41192
Nuclear contribution   :    -18.66532       8.00099      -6.33671
                        -----------------------------------------
Total Dipole Moment    :     -0.57432       0.22417       0.07521
                        -----------------------------------------
Magnitude (a.u.)       :      0.62109
Magnitude (Debye)      :      1.57869

Rotational constants in cm-1:     0.019608     0.007797     0.007065
Rotational constants in MHz :   587.845529   233.735333   211.807514

                             ****ORCA TERMINATED NORMALLY****
TOTAL RUN TIME: 0 days 0 hours 0 minutes 21 seconds 621 msec
