                         Program Version 4.2.1 -  RELEASE  -
|  1> ! wB97X-D3 SP def2-SVP
|  2> %pal
|  3> nprocs 24
|  4> end
|  5>
|  6> * xyz 0 1
|  7> S 	 -49.5352 	 2.33173 	 -18.1091
|  8> C 	 -49.3757 	 1.06045 	 -19.3225
|  9> C 	 -49.1011 	 -0.160146 	 -18.7618
| 10> C 	 -48.9055 	 -0.0428672 	 -17.3768
| 11> C 	 -49.1145 	 1.27795 	 -16.8577
| 12> H 	 -48.6042 	 -0.766153 	 -16.676
| 13> C 	 -48.8024 	 -1.47869 	 -19.4946
| 14> H 	 -47.7364 	 -1.6365 	 -19.5273
| 15> H 	 -49.1024 	 -1.23031 	 -20.5011
| 16> C 	 -49.4464 	 -2.77638 	 -19.0143
| 17> H 	 -49.3529 	 -2.90539 	 -17.9366
| 18> H 	 -50.5503 	 -2.70954 	 -19.0933
| 19> C 	 -48.8382 	 -3.9716 	 -19.7252
| 20> H 	 -49.2051 	 -4.8954 	 -19.3401
| 21> H 	 -49.1609 	 -3.95237 	 -20.772
| 22> H 	 -47.7417 	 -4.04085 	 -19.6598
| 23> S 	 -48.0126 	 3.15115 	 -15.2952
| 24> C 	 -48.2176 	 3.06303 	 -13.5173
| 25> C 	 -48.95 	 1.88387 	 -13.1514
| 26> C 	 -49.411 	 1.15211 	 -14.2708
| 27> C 	 -48.9739 	 1.74515 	 -15.4631
| 28> H 	 -49.1392 	 1.73593 	 -12.1251
| 29> C 	 -50.3288 	 -0.0387305 	 -14.1618
| 30> H 	 -49.9685 	 -0.50512 	 -13.2113
| 31> H 	 -50.1788 	 -0.711896 	 -14.9547
| 32> C 	 -51.8355 	 0.319446 	 -14.1399
| 33> H 	 -52.1007 	 0.570625 	 -15.2109
| 34> H 	 -51.8574 	 1.21071 	 -13.4453
| 35> C 	 -52.6858 	 -0.874046 	 -13.6544
| 36> H 	 -52.6358 	 -1.7137 	 -14.2964
| 37> H 	 -53.7604 	 -0.591746 	 -13.6163
| 38> H 	 -52.4806 	 -1.16887 	 -12.6411
| 39> H 	 -49.4349 	 1.1869 	 -20.4086
| 40> H 	 -47.9007 	 3.79794 	 -12.7744
| 41> *
| 42>
| 43>                          ****END OF INPUT****

CARTESIAN COORDINATES (ANGSTROEM)
---------------------------------
  S    -49.535200    2.331730  -18.109100
  C    -49.375700    1.060450  -19.322500
  C    -49.101100   -0.160146  -18.761800
  C    -48.905500   -0.042867  -17.376800
  C    -49.114500    1.277950  -16.857700
  H    -48.604200   -0.766153  -16.676000
  C    -48.802400   -1.478690  -19.494600
  H    -47.736400   -1.636500  -19.527300
  H    -49.102400   -1.230310  -20.501100
  C    -49.446400   -2.776380  -19.014300
  H    -49.352900   -2.905390  -17.936600
  H    -50.550300   -2.709540  -19.093300
  C    -48.838200   -3.971600  -19.725200
  H    -49.205100   -4.895400  -19.340100
  H    -49.160900   -3.952370  -20.772000
  H    -47.741700   -4.040850  -19.659800
  S    -48.012600    3.151150  -15.295200
  C    -48.217600    3.063030  -13.517300
  C    -48.950000    1.883870  -13.151400
  C    -49.411000    1.152110  -14.270800
  C    -48.973900    1.745150  -15.463100
  H    -49.139200    1.735930  -12.125100
  C    -50.328800   -0.038730  -14.161800
  H    -49.968500   -0.505120  -13.211300
  H    -50.178800   -0.711896  -14.954700
  C    -51.835500    0.319446  -14.139900
  H    -52.100700    0.570625  -15.210900
  H    -51.857400    1.210710  -13.445300
  C    -52.685800   -0.874046  -13.654400
  H    -52.635800   -1.713700  -14.296400
  H    -53.760400   -0.591746  -13.616300
  H    -52.480600   -1.168870  -12.641100
  H    -49.434900    1.186900  -20.408600
  H    -47.900700    3.797940  -12.774400

 Total Charge           Charge          ....    0
 Multiplicity           Mult            ....    1
 Number of Electrons    NEL             ....  134
 Basis Dimension        Dim             ....  322

ORBITAL ENERGIES
----------------

  NO   OCC          E(Eh)            E(eV)
   0   2.0000     -88.971525     -2421.0383
   1   2.0000     -88.969114     -2420.9727
   2   2.0000     -10.327478      -281.0250
   3   2.0000     -10.325381      -280.9679
   4   2.0000     -10.324153      -280.9345
   5   2.0000     -10.312779      -280.6250
   6   2.0000     -10.302620      -280.3485
   7   2.0000     -10.298824      -280.2452
   8   2.0000     -10.297516      -280.2097
   9   2.0000     -10.294985      -280.1408
  10   2.0000     -10.291392      -280.0430
  11   2.0000     -10.289515      -279.9919
  12   2.0000     -10.287740      -279.9436
  13   2.0000     -10.287422      -279.9350
  14   2.0000     -10.279327      -279.7147
  15   2.0000     -10.276372      -279.6343
  16   2.0000      -8.085825      -220.0265
  17   2.0000      -8.084341      -219.9861
  18   2.0000      -6.044231      -164.4719
  19   2.0000      -6.042758      -164.4318
  20   2.0000      -6.040317      -164.3654
  21   2.0000      -6.038600      -164.3187
  22   2.0000      -6.036790      -164.2694
  23   2.0000      -6.035356      -164.2304
  24   2.0000      -1.008609       -27.4456
  25   2.0000      -0.982891       -26.7458
  26   2.0000      -0.914871       -24.8949
  27   2.0000      -0.907017       -24.6812
  28   2.0000      -0.870372       -23.6840
  29   2.0000      -0.850408       -23.1408
  30   2.0000      -0.845841       -23.0165
  31   2.0000      -0.808797       -22.0085
  32   2.0000      -0.784821       -21.3561
  33   2.0000      -0.771838       -21.0028
  34   2.0000      -0.709607       -19.3094
  35   2.0000      -0.697445       -18.9785
  36   2.0000      -0.688587       -18.7374
  37   2.0000      -0.667086       -18.1523
  38   2.0000      -0.640539       -17.4300
  39   2.0000      -0.619072       -16.8458
  40   2.0000      -0.593157       -16.1406
  41   2.0000      -0.574459       -15.6318
  42   2.0000      -0.565305       -15.3827
  43   2.0000      -0.558437       -15.1958
  44   2.0000      -0.526812       -14.3353
  45   2.0000      -0.520867       -14.1735
  46   2.0000      -0.512453       -13.9446
  47   2.0000      -0.510587       -13.8938
  48   2.0000      -0.502334       -13.6692
  49   2.0000      -0.497843       -13.5470
  50   2.0000      -0.492601       -13.4043
  51   2.0000      -0.485079       -13.1997
  52   2.0000      -0.471299       -12.8247
  53   2.0000      -0.466592       -12.6966
  54   2.0000      -0.458794       -12.4844
  55   2.0000      -0.448739       -12.2108
  56   2.0000      -0.445711       -12.1284
  57   2.0000      -0.442000       -12.0274
  58   2.0000      -0.432010       -11.7556
  59   2.0000      -0.428750       -11.6669
  60   2.0000      -0.423819       -11.5327
  61   2.0000      -0.418300       -11.3825
  62   2.0000      -0.415255       -11.2997
  63   2.0000      -0.343208        -9.3392
  64   2.0000      -0.336541        -9.1577
  65   2.0000      -0.329817        -8.9748
  66   2.0000      -0.285658        -7.7731
  67   0.0000       0.026487         0.7208
  68   0.0000       0.072918         1.9842
  69   0.0000       0.106211         2.8902
  70   0.0000       0.119777         3.2593
  71   0.0000       0.133022         3.6197

MULLIKEN ATOMIC CHARGES
-----------------------
   0 S :    0.125048
   1 C :   -0.141572
   2 C :   -0.060663
   3 C :    0.036419
   4 C :   -0.177695
   5 H :   -0.004789
   6 C :    0.087644
   7 H :    0.035570
   8 H :    0.005448
   9 C :   -0.087256
  10 H :    0.023873
  11 H :    0.031775
  12 C :   -0.033181
  13 H :    0.021907
  14 H :    0.032412
  15 H :    0.037083
  16 S :    0.124665
  17 C :   -0.113156
  18 C :   -0.042000
  19 C :   -0.025967
  20 C :   -0.158506
  21 H :    0.006426
  22 C :    0.083933
  23 H :    0.024885
  24 H :   -0.001842
  25 C :   -0.088519
  26 H :    0.050866
  27 H :    0.038903
  28 C :   -0.024744
  29 H :    0.025890
  30 H :    0.034586
  31 H :    0.023651
  32 H :    0.046381
  33 H :    0.062525
Sum of atomic charges:   -0.0000000

LOEWDIN ATOMIC CHARGES
----------------------
   0 S :    0.433993
   1 C :   -0.205292
   2 C :   -0.063805
   3 C :   -0.066044
   4 C :   -0.216579
   5 H :    0.018842
   6 C :   -0.025603
   7 H :    0.032371
   8 H :    0.026029
   9 C :   -0.045262
  10 H :    0.020838
  11 H :    0.029398
  12 C :   -0.061957
  13 H :    0.022428
  14 H :    0.028249
  15 H :    0.028653
  16 S :    0.420554
  17 C :   -0.186563
  18 C :   -0.059078
  19 C :   -0.059599
  20 C :   -0.212553
  21 H :    0.024678
  22 C :   -0.032408
  23 H :    0.033321
  24 H :    0.017341
  25 C :   -0.037211
  26 H :    0.036044
  27 H :    0.029657
  28 C :   -0.065845
  29 H :    0.020250
  30 H :    0.031820
  31 H :    0.021901
  32 H :    0.030592
  33 H :    0.030839

  Mayer bond orders larger than 0.100000
B(  0-S ,  1-C ) :   1.1417 B(  0-S ,  4-C ) :   1.1902 B(  1-C ,  2-C ) :   1.5951
B(  1-C ,  4-C ) :   0.1029 B(  1-C , 32-H ) :   0.9634 B(  2-C ,  3-C ) :   1.2641
B(  2-C ,  6-C ) :   1.0110 B(  3-C ,  4-C ) :   1.5295 B(  3-C ,  5-H ) :   0.9991
B(  4-C , 20-C ) :   1.0156 B(  6-C ,  7-H ) :   0.9448 B(  6-C ,  8-H ) :   0.9349
B(  6-C ,  9-C ) :   1.0587 B(  9-C , 10-H ) :   0.9559 B(  9-C , 11-H ) :   0.9519
B(  9-C , 12-C ) :   1.0865 B( 12-C , 13-H ) :   0.9714 B( 12-C , 14-H ) :   0.9747
B( 12-C , 15-H ) :   0.9742 B( 16-S , 17-C ) :   1.1515 B( 16-S , 20-C ) :   1.1729
B( 17-C , 18-C ) :   1.5867 B( 17-C , 20-C ) :   0.1118 B( 17-C , 33-H ) :   0.9679
B( 18-C , 19-C ) :   1.2572 B( 18-C , 21-H ) :   0.9947 B( 19-C , 20-C ) :   1.5532
B( 19-C , 22-C ) :   1.0476 B( 22-C , 23-H ) :   0.9355 B( 22-C , 24-H ) :   0.9228
B( 22-C , 25-C ) :   1.0566 B( 25-C , 26-H ) :   0.9527 B( 25-C , 27-H ) :   0.9597
B( 25-C , 28-C ) :   1.0797 B( 28-C , 29-H ) :   0.9738 B( 28-C , 30-H ) :   0.9735
B( 28-C , 31-H ) :   0.9750

Dispersion correction           -0.013782060
FINAL SINGLE POINT ENERGY     -1339.881366530332

DIPOLE MOMENT
-------------
                                X             Y             Z
Electronic contribution:     10.87451      28.25336       0.23326
Nuclear contribution   :    -11.00149     -28.85938      -0.09816
                        -----------------------------------------
Total Dipole Moment    :     -0.12699      -0.60602       0.13510
                        -----------------------------------------
Magnitude (a.u.)       :      0.63375
Magnitude (Debye)      :      1.61087

Rotational constants in cm-1:     0.016928     0.008692     0.006665
Rotational constants in MHz :   507.497731   260.570803   199.816717

                             ****ORCA TERMINATED NORMALLY****
TOTAL RUN TIME: 0 days 0 hours 0 minutes 21 seconds 317 msec
