                         Program Version 4.2.1 -  RELEASE  -
|  1> ! wB97X-D3 SP def2-SVP
|  2> %pal
|  3> nprocs 24
|  4> end
|  5>
|  6> * xyz 0 1
|  7> S 	 -45.2223 	 -8.43923 	 -20.4613
|  8> C 	 -45.8047 	 -10.0967 	 -20.5301
|  9> C 	 -45.4406 	 -10.7006 	 -19.32
| 10> C 	 -44.6328 	 -9.85652 	 -18.4523
| 11> C 	 -44.5626 	 -8.53493 	 -18.8841
| 12> H 	 -44.1302 	 -10.128 	 -17.5533
| 13> C 	 -45.7449 	 -12.1238 	 -18.9533
| 14> H 	 -46.4187 	 -12.6168 	 -19.6678
| 15> H 	 -46.4005 	 -12.1284 	 -18.0699
| 16> C 	 -44.5275 	 -13.0899 	 -18.8404
| 17> H 	 -44.1938 	 -13.2738 	 -19.8456
| 18> H 	 -43.7149 	 -12.6729 	 -18.2495
| 19> C 	 -44.8309 	 -14.5224 	 -18.218
| 20> H 	 -45.1665 	 -15.2695 	 -18.8947
| 21> H 	 -43.9501 	 -14.9522 	 -17.7713
| 22> H 	 -45.6175 	 -14.5142 	 -17.4952
| 23> S 	 -42.4758 	 -6.66335 	 -19.3152
| 24> C 	 -41.6156 	 -6.01347 	 -17.9397
| 25> C 	 -42.2367 	 -6.45088 	 -16.7872
| 26> C 	 -43.3364 	 -7.34844 	 -16.985
| 27> C 	 -43.6571 	 -7.47723 	 -18.299
| 28> H 	 -41.8292 	 -6.06317 	 -15.8886
| 29> C 	 -44.111 	 -7.78726 	 -15.8181
| 30> H 	 -43.5801 	 -8.6894 	 -15.4143
| 31> H 	 -45.1422 	 -7.9657 	 -16.2094
| 32> C 	 -44.4005 	 -6.83286 	 -14.6493
| 33> H 	 -44.8889 	 -5.94394 	 -15.0637
| 34> H 	 -43.5193 	 -6.49867 	 -14.2131
| 35> C 	 -45.2484 	 -7.36986 	 -13.4419
| 36> H 	 -44.8221 	 -8.31197 	 -12.943
| 37> H 	 -46.2707 	 -7.53076 	 -13.8643
| 38> H 	 -45.2822 	 -6.54923 	 -12.6935
| 39> H 	 -46.4205 	 -10.4861 	 -21.3768
| 40> H 	 -40.8574 	 -5.30264 	 -17.9919
| 41> *
| 42>
| 43>                          ****END OF INPUT****

CARTESIAN COORDINATES (ANGSTROEM)
---------------------------------
  S    -45.222300   -8.439230  -20.461300
  C    -45.804700  -10.096700  -20.530100
  C    -45.440600  -10.700600  -19.320000
  C    -44.632800   -9.856520  -18.452300
  C    -44.562600   -8.534930  -18.884100
  H    -44.130200  -10.128000  -17.553300
  C    -45.744900  -12.123800  -18.953300
  H    -46.418700  -12.616800  -19.667800
  H    -46.400500  -12.128400  -18.069900
  C    -44.527500  -13.089900  -18.840400
  H    -44.193800  -13.273800  -19.845600
  H    -43.714900  -12.672900  -18.249500
  C    -44.830900  -14.522400  -18.218000
  H    -45.166500  -15.269500  -18.894700
  H    -43.950100  -14.952200  -17.771300
  H    -45.617500  -14.514200  -17.495200
  S    -42.475800   -6.663350  -19.315200
  C    -41.615600   -6.013470  -17.939700
  C    -42.236700   -6.450880  -16.787200
  C    -43.336400   -7.348440  -16.985000
  C    -43.657100   -7.477230  -18.299000
  H    -41.829200   -6.063170  -15.888600
  C    -44.111000   -7.787260  -15.818100
  H    -43.580100   -8.689400  -15.414300
  H    -45.142200   -7.965700  -16.209400
  C    -44.400500   -6.832860  -14.649300
  H    -44.888900   -5.943940  -15.063700
  H    -43.519300   -6.498670  -14.213100
  C    -45.248400   -7.369860  -13.441900
  H    -44.822100   -8.311970  -12.943000
  H    -46.270700   -7.530760  -13.864300
  H    -45.282200   -6.549230  -12.693500
  H    -46.420500  -10.486100  -21.376800
  H    -40.857400   -5.302640  -17.991900

 Total Charge           Charge          ....    0
 Multiplicity           Mult            ....    1
 Number of Electrons    NEL             ....  134
 Basis Dimension        Dim             ....  322

ORBITAL ENERGIES
----------------

  NO   OCC          E(Eh)            E(eV)
   0   2.0000     -88.964025     -2420.8342
   1   2.0000     -88.963336     -2420.8154
   2   2.0000     -10.332419      -281.1594
   3   2.0000     -10.330134      -281.0972
   4   2.0000     -10.322867      -280.8995
   5   2.0000     -10.314205      -280.6638
   6   2.0000     -10.308299      -280.5031
   7   2.0000     -10.299190      -280.2552
   8   2.0000     -10.295404      -280.1522
   9   2.0000     -10.293940      -280.1124
  10   2.0000     -10.293796      -280.1084
  11   2.0000     -10.293053      -280.0882
  12   2.0000     -10.290554      -280.0202
  13   2.0000     -10.290262      -280.0123
  14   2.0000     -10.283977      -279.8412
  15   2.0000     -10.273938      -279.5681
  16   2.0000      -8.078802      -219.8354
  17   2.0000      -8.078606      -219.8300
  18   2.0000      -6.037430      -164.2868
  19   2.0000      -6.037099      -164.2778
  20   2.0000      -6.033207      -164.1719
  21   2.0000      -6.032873      -164.1628
  22   2.0000      -6.029513      -164.0714
  23   2.0000      -6.029508      -164.0712
  24   2.0000      -1.008493       -27.4425
  25   2.0000      -0.986655       -26.8482
  26   2.0000      -0.910694       -24.7813
  27   2.0000      -0.904478       -24.6121
  28   2.0000      -0.867719       -23.6118
  29   2.0000      -0.851352       -23.1665
  30   2.0000      -0.841062       -22.8865
  31   2.0000      -0.817240       -22.2382
  32   2.0000      -0.780774       -21.2459
  33   2.0000      -0.773551       -21.0494
  34   2.0000      -0.708813       -19.2878
  35   2.0000      -0.700623       -19.0649
  36   2.0000      -0.695864       -18.9354
  37   2.0000      -0.657050       -17.8792
  38   2.0000      -0.644331       -17.5331
  39   2.0000      -0.620338       -16.8803
  40   2.0000      -0.599080       -16.3018
  41   2.0000      -0.575143       -15.6504
  42   2.0000      -0.567755       -15.4494
  43   2.0000      -0.556920       -15.1546
  44   2.0000      -0.529885       -14.4189
  45   2.0000      -0.522198       -14.2097
  46   2.0000      -0.519876       -14.1466
  47   2.0000      -0.509395       -13.8613
  48   2.0000      -0.508131       -13.8269
  49   2.0000      -0.500556       -13.6208
  50   2.0000      -0.495538       -13.4843
  51   2.0000      -0.474869       -12.9218
  52   2.0000      -0.469389       -12.7727
  53   2.0000      -0.462682       -12.5902
  54   2.0000      -0.460036       -12.5182
  55   2.0000      -0.451412       -12.2835
  56   2.0000      -0.449389       -12.2285
  57   2.0000      -0.433809       -11.8045
  58   2.0000      -0.430192       -11.7061
  59   2.0000      -0.425534       -11.5794
  60   2.0000      -0.421141       -11.4598
  61   2.0000      -0.409405       -11.1405
  62   2.0000      -0.407245       -11.0817
  63   2.0000      -0.353744        -9.6259
  64   2.0000      -0.329666        -8.9707
  65   2.0000      -0.324587        -8.8325
  66   2.0000      -0.296136        -8.0583
  67   0.0000       0.028737         0.7820
  68   0.0000       0.077943         2.1209
  69   0.0000       0.117963         3.2099
  70   0.0000       0.118907         3.2356
  71   0.0000       0.131753         3.5852

MULLIKEN ATOMIC CHARGES
-----------------------
   0 S :    0.087100
   1 C :   -0.134555
   2 C :   -0.080734
   3 C :    0.025492
   4 C :   -0.137199
   5 H :    0.007620
   6 C :    0.050270
   7 H :    0.011956
   8 H :    0.033277
   9 C :   -0.072527
  10 H :    0.033048
  11 H :    0.037185
  12 C :   -0.040846
  13 H :    0.020874
  14 H :    0.030645
  15 H :    0.017097
  16 S :    0.093807
  17 C :   -0.070791
  18 C :   -0.027831
  19 C :   -0.045535
  20 C :   -0.096182
  21 H :    0.005558
  22 C :    0.026073
  23 H :    0.043889
  24 H :    0.041134
  25 C :   -0.068113
  26 H :    0.031246
  27 H :    0.008255
  28 C :   -0.084846
  29 H :    0.050792
  30 H :    0.043723
  31 H :    0.045512
  32 H :    0.078445
  33 H :    0.036158
Sum of atomic charges:    0.0000000

LOEWDIN ATOMIC CHARGES
----------------------
   0 S :    0.414572
   1 C :   -0.203177
   2 C :   -0.062008
   3 C :   -0.058032
   4 C :   -0.202360
   5 H :    0.026338
   6 C :   -0.041643
   7 H :    0.029389
   8 H :    0.031402
   9 C :   -0.030557
  10 H :    0.025616
  11 H :    0.022512
  12 C :   -0.065815
  13 H :    0.020386
  14 H :    0.027139
  15 H :    0.019417
  16 S :    0.400027
  17 C :   -0.170101
  18 C :   -0.063649
  19 C :   -0.067842
  20 C :   -0.192069
  21 H :    0.024736
  22 C :   -0.042292
  23 H :    0.037282
  24 H :    0.039468
  25 C :   -0.040355
  26 H :    0.028083
  27 H :    0.006523
  28 C :   -0.068911
  29 H :    0.033531
  30 H :    0.028431
  31 H :    0.031489
  32 H :    0.044065
  33 H :    0.018407

  Mayer bond orders larger than 0.100000
B(  0-S ,  1-C ) :   1.1407 B(  0-S ,  4-C ) :   1.1721 B(  1-C ,  2-C ) :   1.5769
B(  1-C , 32-H ) :   0.9693 B(  2-C ,  3-C ) :   1.2451 B(  2-C ,  6-C ) :   1.0410
B(  3-C ,  4-C ) :   1.5513 B(  3-C ,  5-H ) :   0.9937 B(  4-C , 20-C ) :   1.0045
B(  6-C ,  7-H ) :   0.9448 B(  6-C ,  8-H ) :   0.9387 B(  6-C ,  9-C ) :   1.0497
B(  9-C , 10-H ) :   0.9594 B(  9-C , 11-H ) :   0.9683 B(  9-C , 12-C ) :   1.0645
B( 12-C , 13-H ) :   0.9779 B( 12-C , 14-H ) :   0.9781 B( 12-C , 15-H ) :   0.9788
B( 16-S , 17-C ) :   1.1541 B( 16-S , 20-C ) :   1.1321 B( 17-C , 18-C ) :   1.6136
B( 17-C , 33-H ) :   0.9759 B( 18-C , 19-C ) :   1.2173 B( 18-C , 21-H ) :   0.9995
B( 19-C , 20-C ) :   1.6208 B( 19-C , 22-C ) :   1.0498 B( 22-C , 23-H ) :   0.9127
B( 22-C , 24-H ) :   0.9471 B( 22-C , 25-C ) :   1.0784 B( 25-C , 26-H ) :   0.9549
B( 25-C , 27-H ) :   0.9448 B( 25-C , 28-C ) :   1.0825 B( 28-C , 29-H ) :   0.9737
B( 28-C , 30-H ) :   0.9770 B( 28-C , 31-H ) :   0.9735

Dispersion correction           -0.013333725
FINAL SINGLE POINT ENERGY     -1339.868576965183

DIPOLE MOMENT
-------------
                                X             Y             Z
Electronic contribution:      6.22909      18.89562     -21.82600
Nuclear contribution   :     -6.19219     -19.25492      22.40560
                        -----------------------------------------
Total Dipole Moment    :      0.03690      -0.35930       0.57959
                        -----------------------------------------
Magnitude (a.u.)       :      0.68293
Magnitude (Debye)      :      1.73586

Rotational constants in cm-1:     0.015958     0.008242     0.006386
Rotational constants in MHz :   478.402546   247.093079   191.433075

                             ****ORCA TERMINATED NORMALLY****
TOTAL RUN TIME: 0 days 0 hours 0 minutes 19 seconds 817 msec
