                         Program Version 4.2.1 -  RELEASE  -
|  1> ! wB97X-D3 SP def2-SVP
|  2> %pal
|  3> nprocs 24
|  4> end
|  5>
|  6> * xyz 0 1
|  7> S 	 -98.1789 	 -22.9361 	 -67.1807
|  8> C 	 -98.3341 	 -21.2139 	 -66.8323
|  9> C 	 -97.6605 	 -20.8287 	 -65.71
| 10> C 	 -96.9991 	 -21.9326 	 -65.0624
| 11> C 	 -97.1874 	 -23.1337 	 -65.747
| 12> H 	 -96.478 	 -21.8885 	 -64.1564
| 13> C 	 -97.6103 	 -19.4492 	 -65.2219
| 14> H 	 -97.423 	 -18.7244 	 -66.037
| 15> H 	 -96.7248 	 -19.32 	 -64.6706
| 16> C 	 -98.7062 	 -18.9343 	 -64.2804
| 17> H 	 -98.6339 	 -17.8669 	 -64.2539
| 18> H 	 -99.6887 	 -19.2019 	 -64.7018
| 19> C 	 -98.6597 	 -19.4521 	 -62.8065
| 20> H 	 -97.8531 	 -19.0017 	 -62.2707
| 21> H 	 -99.5976 	 -19.1272 	 -62.1907
| 22> H 	 -98.4732 	 -20.5098 	 -62.7451
| 23> S 	 -95.9537 	 -25.4669 	 -66.49
| 24> C 	 -95.626 	 -26.7785 	 -65.3042
| 25> C 	 -95.8766 	 -26.3066 	 -64.0371
| 26> C 	 -96.5153 	 -25.011 	 -64.019
| 27> C 	 -96.6638 	 -24.4437 	 -65.2936
| 28> H 	 -95.5912 	 -26.8331 	 -63.1068
| 29> C 	 -96.981 	 -24.5026 	 -62.7118
| 30> H 	 -97.5842 	 -25.1879 	 -62.1192
| 31> H 	 -97.6055 	 -23.6917 	 -62.8511
| 32> C 	 -95.8277 	 -23.894 	 -61.8377
| 33> H 	 -95.136 	 -23.3391 	 -62.3874
| 34> H 	 -95.3575 	 -24.815 	 -61.5702
| 35> C 	 -96.2672 	 -23.1435 	 -60.5572
| 36> H 	 -96.9553 	 -23.6804 	 -59.936
| 37> H 	 -96.7016 	 -22.1406 	 -60.7824
| 38> H 	 -95.4539 	 -22.7556 	 -59.8869
| 39> H 	 -98.9305 	 -20.565 	 -67.4601
| 40> H 	 -95.0971 	 -27.7096 	 -65.5597
| 41> *
| 42>
| 43>                          ****END OF INPUT****

CARTESIAN COORDINATES (ANGSTROEM)
---------------------------------
  S    -98.178900  -22.936100  -67.180700
  C    -98.334100  -21.213900  -66.832300
  C    -97.660500  -20.828700  -65.710000
  C    -96.999100  -21.932600  -65.062400
  C    -97.187400  -23.133700  -65.747000
  H    -96.478000  -21.888500  -64.156400
  C    -97.610300  -19.449200  -65.221900
  H    -97.423000  -18.724400  -66.037000
  H    -96.724800  -19.320000  -64.670600
  C    -98.706200  -18.934300  -64.280400
  H    -98.633900  -17.866900  -64.253900
  H    -99.688700  -19.201900  -64.701800
  C    -98.659700  -19.452100  -62.806500
  H    -97.853100  -19.001700  -62.270700
  H    -99.597600  -19.127200  -62.190700
  H    -98.473200  -20.509800  -62.745100
  S    -95.953700  -25.466900  -66.490000
  C    -95.626000  -26.778500  -65.304200
  C    -95.876600  -26.306600  -64.037100
  C    -96.515300  -25.011000  -64.019000
  C    -96.663800  -24.443700  -65.293600
  H    -95.591200  -26.833100  -63.106800
  C    -96.981000  -24.502600  -62.711800
  H    -97.584200  -25.187900  -62.119200
  H    -97.605500  -23.691700  -62.851100
  C    -95.827700  -23.894000  -61.837700
  H    -95.136000  -23.339100  -62.387400
  H    -95.357500  -24.815000  -61.570200
  C    -96.267200  -23.143500  -60.557200
  H    -96.955300  -23.680400  -59.936000
  H    -96.701600  -22.140600  -60.782400
  H    -95.453900  -22.755600  -59.886900
  H    -98.930500  -20.565000  -67.460100
  H    -95.097100  -27.709600  -65.559700

 Total Charge           Charge          ....    0
 Multiplicity           Mult            ....    1
 Number of Electrons    NEL             ....  134
 Basis Dimension        Dim             ....  322

ORBITAL ENERGIES
----------------

  NO   OCC          E(Eh)            E(eV)
   0   2.0000     -88.969994     -2420.9966
   1   2.0000     -88.964215     -2420.8394
   2   2.0000     -10.335004      -281.2298
   3   2.0000     -10.331351      -281.1304
   4   2.0000     -10.323130      -280.9067
   5   2.0000     -10.314282      -280.6659
   6   2.0000     -10.303271      -280.3662
   7   2.0000     -10.299438      -280.2620
   8   2.0000     -10.298620      -280.2397
   9   2.0000     -10.294917      -280.1389
  10   2.0000     -10.289280      -279.9855
  11   2.0000     -10.286407      -279.9074
  12   2.0000     -10.285886      -279.8932
  13   2.0000     -10.284687      -279.8606
  14   2.0000     -10.284277      -279.8494
  15   2.0000     -10.283189      -279.8198
  16   2.0000      -8.084352      -219.9864
  17   2.0000      -8.078796      -219.8352
  18   2.0000      -6.042864      -164.4347
  19   2.0000      -6.038966      -164.3286
  20   2.0000      -6.037436      -164.2870
  21   2.0000      -6.035074      -164.2227
  22   2.0000      -6.033280      -164.1739
  23   2.0000      -6.029458      -164.0699
  24   2.0000      -1.005064       -27.3492
  25   2.0000      -0.983349       -26.7583
  26   2.0000      -0.915230       -24.9047
  27   2.0000      -0.909693       -24.7540
  28   2.0000      -0.867830       -23.6149
  29   2.0000      -0.850398       -23.1405
  30   2.0000      -0.845258       -23.0006
  31   2.0000      -0.817385       -22.2422
  32   2.0000      -0.784044       -21.3349
  33   2.0000      -0.772620       -21.0241
  34   2.0000      -0.710171       -19.3247
  35   2.0000      -0.707062       -19.2401
  36   2.0000      -0.697133       -18.9699
  37   2.0000      -0.665718       -18.1151
  38   2.0000      -0.643625       -17.5139
  39   2.0000      -0.619579       -16.8596
  40   2.0000      -0.601375       -16.3642
  41   2.0000      -0.575361       -15.6564
  42   2.0000      -0.569497       -15.4968
  43   2.0000      -0.549671       -14.9573
  44   2.0000      -0.537586       -14.6285
  45   2.0000      -0.517473       -14.0811
  46   2.0000      -0.516588       -14.0571
  47   2.0000      -0.512344       -13.9416
  48   2.0000      -0.506344       -13.7783
  49   2.0000      -0.494940       -13.4680
  50   2.0000      -0.492586       -13.4039
  51   2.0000      -0.484843       -13.1932
  52   2.0000      -0.473649       -12.8887
  53   2.0000      -0.469049       -12.7635
  54   2.0000      -0.462193       -12.5769
  55   2.0000      -0.452355       -12.3092
  56   2.0000      -0.447123       -12.1668
  57   2.0000      -0.441931       -12.0256
  58   2.0000      -0.436158       -11.8685
  59   2.0000      -0.426987       -11.6189
  60   2.0000      -0.424986       -11.5645
  61   2.0000      -0.415403       -11.3037
  62   2.0000      -0.403948       -10.9920
  63   2.0000      -0.352207        -9.5840
  64   2.0000      -0.334133        -9.0922
  65   2.0000      -0.327509        -8.9120
  66   2.0000      -0.291405        -7.9295
  67   0.0000       0.025697         0.6993
  68   0.0000       0.074095         2.0162
  69   0.0000       0.103062         2.8045
  70   0.0000       0.119085         3.2405
  71   0.0000       0.120967         3.2917

MULLIKEN ATOMIC CHARGES
-----------------------
   0 S :    0.117283
   1 C :   -0.125931
   2 C :   -0.056800
   3 C :    0.046479
   4 C :   -0.131080
   5 H :   -0.020344
   6 C :    0.062818
   7 H :    0.032214
   8 H :   -0.004761
   9 C :   -0.037916
  10 H :    0.025893
  11 H :    0.027420
  12 C :   -0.083797
  13 H :    0.018432
  14 H :    0.052255
  15 H :    0.037792
  16 S :    0.088856
  17 C :   -0.103504
  18 C :   -0.028596
  19 C :   -0.059198
  20 C :   -0.131493
  21 H :    0.037299
  22 C :    0.086089
  23 H :    0.030475
  24 H :   -0.015002
  25 C :   -0.051948
  26 H :    0.023725
  27 H :    0.012514
  28 C :   -0.060769
  29 H :    0.032183
  30 H :    0.025585
  31 H :    0.037146
  32 H :    0.045111
  33 H :    0.071571
Sum of atomic charges:    0.0000000

LOEWDIN ATOMIC CHARGES
----------------------
   0 S :    0.401307
   1 C :   -0.183244
   2 C :   -0.063184
   3 C :   -0.051080
   4 C :   -0.187742
   5 H :    0.021174
   6 C :   -0.039883
   7 H :    0.039378
   8 H :    0.024042
   9 C :   -0.032055
  10 H :    0.022412
  11 H :    0.022961
  12 C :   -0.072755
  13 H :    0.017023
  14 H :    0.041340
  15 H :    0.019960
  16 S :    0.393802
  17 C :   -0.177148
  18 C :   -0.067288
  19 C :   -0.061047
  20 C :   -0.198585
  21 H :    0.037710
  22 C :   -0.028541
  23 H :    0.032605
  24 H :    0.013763
  25 C :   -0.029341
  26 H :    0.015718
  27 H :    0.018498
  28 C :   -0.074863
  29 H :    0.021436
  30 H :    0.026473
  31 H :    0.034624
  32 H :    0.026642
  33 H :    0.035885

  Mayer bond orders larger than 0.100000
B(  0-S ,  1-C ) :   1.1260 B(  0-S ,  4-C ) :   1.1563 B(  1-C ,  2-C ) :   1.6213
B(  1-C , 32-H ) :   0.9699 B(  2-C ,  3-C ) :   1.2250 B(  2-C ,  6-C ) :   1.0413
B(  3-C ,  4-C ) :   1.5604 B(  3-C ,  5-H ) :   1.0057 B(  4-C , 20-C ) :   1.0263
B(  6-C ,  7-H ) :   0.9352 B(  6-C ,  8-H ) :   0.9280 B(  6-C ,  9-C ) :   1.0669
B(  9-C , 10-H ) :   0.9543 B(  9-C , 11-H ) :   0.9595 B(  9-C , 12-C ) :   1.0716
B( 12-C , 13-H ) :   0.9743 B( 12-C , 14-H ) :   0.9735 B( 12-C , 15-H ) :   0.9792
B( 16-S , 17-C ) :   1.1348 B( 16-S , 20-C ) :   1.1493 B( 17-C , 18-C ) :   1.6102
B( 17-C , 33-H ) :   0.9670 B( 18-C , 19-C ) :   1.2380 B( 18-C , 21-H ) :   0.9805
B( 19-C , 20-C ) :   1.5879 B( 19-C , 22-C ) :   1.0675 B( 22-C , 23-H ) :   0.9385
B( 22-C , 24-H ) :   0.9252 B( 22-C , 25-C ) :   1.0340 B( 25-C , 26-H ) :   0.9581
B( 25-C , 27-H ) :   0.9583 B( 25-C , 28-C ) :   1.0819 B( 28-C , 29-H ) :   0.9751
B( 28-C , 30-H ) :   0.9727 B( 28-C , 31-H ) :   0.9721

Dispersion correction           -0.014830208
FINAL SINGLE POINT ENERGY     -1339.876837077904

DIPOLE MOMENT
-------------
                                X             Y             Z
Electronic contribution:      1.93253     -17.79697     -27.83734
Nuclear contribution   :     -1.83142      18.20099      28.47349
                        -----------------------------------------
Total Dipole Moment    :      0.10111       0.40401       0.63615
                        -----------------------------------------
Magnitude (a.u.)       :      0.76035
Magnitude (Debye)      :      1.93266

Rotational constants in cm-1:     0.016909     0.010265     0.006701
Rotational constants in MHz :   506.932756   307.731709   200.904842

                             ****ORCA TERMINATED NORMALLY****
TOTAL RUN TIME: 0 days 0 hours 0 minutes 22 seconds 223 msec
