                         Program Version 4.2.1 -  RELEASE  -
|  1> ! wB97X-D3 SP def2-SVP
|  2> %pal
|  3> nprocs 24
|  4> end
|  5>
|  6> * xyz 0 1
|  7> S 	 -87.2998 	 0.157228 	 -62.5714
|  8> C 	 -86.5369 	 0.96682 	 -63.8929
|  9> C 	 -85.2548 	 0.372542 	 -64.1298
| 10> C 	 -84.9223 	 -0.656762 	 -63.1596
| 11> C 	 -85.9072 	 -0.912816 	 -62.2664
| 12> H 	 -83.935 	 -1.21266 	 -63.0685
| 13> C 	 -84.2328 	 0.794163 	 -65.2028
| 14> H 	 -83.3091 	 0.349697 	 -64.795
| 15> H 	 -84.043 	 1.84558 	 -64.9518
| 16> C 	 -84.4821 	 0.467939 	 -66.7081
| 17> H 	 -83.6385 	 0.845253 	 -67.293
| 18> H 	 -84.5704 	 -0.635883 	 -66.9579
| 19> C 	 -85.6701 	 1.23013 	 -67.263
| 20> H 	 -85.5646 	 2.21958 	 -66.8519
| 21> H 	 -85.6577 	 1.43785 	 -68.319
| 22> H 	 -86.6257 	 0.887678 	 -67.0197
| 23> S 	 -87.4724 	 -2.53249 	 -60.6651
| 24> C 	 -86.6608 	 -3.53783 	 -59.428
| 25> C 	 -85.311 	 -3.46148 	 -59.4716
| 26> C 	 -84.8824 	 -2.50749 	 -60.5023
| 27> C 	 -85.9494 	 -1.86862 	 -61.1339
| 28> H 	 -84.7614 	 -4.16793 	 -58.8893
| 29> C 	 -83.382 	 -2.29086 	 -60.671
| 30> H 	 -82.8793 	 -2.39715 	 -59.7507
| 31> H 	 -83.2922 	 -1.20592 	 -60.9667
| 32> C 	 -82.7248 	 -3.28141 	 -61.6276
| 33> H 	 -83.1424 	 -3.24659 	 -62.6294
| 34> H 	 -82.6721 	 -4.33565 	 -61.1665
| 35> C 	 -81.2987 	 -2.72933 	 -61.9242
| 36> H 	 -80.7491 	 -2.70408 	 -60.9735
| 37> H 	 -81.2745 	 -1.67404 	 -62.2803
| 38> H 	 -80.9102 	 -3.49071 	 -62.5864
| 39> H 	 -86.9764 	 1.80696 	 -64.4411
| 40> H 	 -87.2294 	 -4.3855 	 -58.9923
| 41> *
| 42>
| 43>                          ****END OF INPUT****

CARTESIAN COORDINATES (ANGSTROEM)
---------------------------------
  S    -87.299800    0.157228  -62.571400
  C    -86.536900    0.966820  -63.892900
  C    -85.254800    0.372542  -64.129800
  C    -84.922300   -0.656762  -63.159600
  C    -85.907200   -0.912816  -62.266400
  H    -83.935000   -1.212660  -63.068500
  C    -84.232800    0.794163  -65.202800
  H    -83.309100    0.349697  -64.795000
  H    -84.043000    1.845580  -64.951800
  C    -84.482100    0.467939  -66.708100
  H    -83.638500    0.845253  -67.293000
  H    -84.570400   -0.635883  -66.957900
  C    -85.670100    1.230130  -67.263000
  H    -85.564600    2.219580  -66.851900
  H    -85.657700    1.437850  -68.319000
  H    -86.625700    0.887678  -67.019700
  S    -87.472400   -2.532490  -60.665100
  C    -86.660800   -3.537830  -59.428000
  C    -85.311000   -3.461480  -59.471600
  C    -84.882400   -2.507490  -60.502300
  C    -85.949400   -1.868620  -61.133900
  H    -84.761400   -4.167930  -58.889300
  C    -83.382000   -2.290860  -60.671000
  H    -82.879300   -2.397150  -59.750700
  H    -83.292200   -1.205920  -60.966700
  C    -82.724800   -3.281410  -61.627600
  H    -83.142400   -3.246590  -62.629400
  H    -82.672100   -4.335650  -61.166500
  C    -81.298700   -2.729330  -61.924200
  H    -80.749100   -2.704080  -60.973500
  H    -81.274500   -1.674040  -62.280300
  H    -80.910200   -3.490710  -62.586400
  H    -86.976400    1.806960  -64.441100
  H    -87.229400   -4.385500  -58.992300

 Total Charge           Charge          ....    0
 Multiplicity           Mult            ....    1
 Number of Electrons    NEL             ....  134
 Basis Dimension        Dim             ....  322

ORBITAL ENERGIES
----------------

  NO   OCC          E(Eh)            E(eV)
   0   2.0000     -88.965045     -2420.8620
   1   2.0000     -88.964017     -2420.8340
   2   2.0000     -10.331954      -281.1468
   3   2.0000     -10.330536      -281.1082
   4   2.0000     -10.320298      -280.8296
   5   2.0000     -10.318427      -280.7787
   6   2.0000     -10.309769      -280.5431
   7   2.0000     -10.306832      -280.4632
   8   2.0000     -10.299155      -280.2543
   9   2.0000     -10.297488      -280.2089
  10   2.0000     -10.296364      -280.1783
  11   2.0000     -10.296203      -280.1739
  12   2.0000     -10.295604      -280.1576
  13   2.0000     -10.292601      -280.0759
  14   2.0000     -10.283467      -279.8274
  15   2.0000     -10.267894      -279.4036
  16   2.0000      -8.079585      -219.8567
  17   2.0000      -8.078897      -219.8380
  18   2.0000      -6.038173      -164.3070
  19   2.0000      -6.037485      -164.2883
  20   2.0000      -6.033996      -164.1934
  21   2.0000      -6.033531      -164.1807
  22   2.0000      -6.030399      -164.0955
  23   2.0000      -6.029426      -164.0690
  24   2.0000      -1.003811       -27.3151
  25   2.0000      -0.979981       -26.6666
  26   2.0000      -0.913239       -24.8505
  27   2.0000      -0.906131       -24.6571
  28   2.0000      -0.869507       -23.6605
  29   2.0000      -0.853216       -23.2172
  30   2.0000      -0.845258       -23.0006
  31   2.0000      -0.818186       -22.2640
  32   2.0000      -0.779180       -21.2026
  33   2.0000      -0.767900       -20.8956
  34   2.0000      -0.705535       -19.1986
  35   2.0000      -0.697749       -18.9867
  36   2.0000      -0.687919       -18.7192
  37   2.0000      -0.664822       -18.0907
  38   2.0000      -0.636534       -17.3210
  39   2.0000      -0.616180       -16.7671
  40   2.0000      -0.593951       -16.1622
  41   2.0000      -0.573745       -15.6124
  42   2.0000      -0.565958       -15.4005
  43   2.0000      -0.546998       -14.8846
  44   2.0000      -0.543372       -14.7859
  45   2.0000      -0.535620       -14.5750
  46   2.0000      -0.517589       -14.0843
  47   2.0000      -0.506457       -13.7814
  48   2.0000      -0.499080       -13.5806
  49   2.0000      -0.497784       -13.5454
  50   2.0000      -0.492199       -13.3934
  51   2.0000      -0.481638       -13.1060
  52   2.0000      -0.470023       -12.7900
  53   2.0000      -0.464188       -12.6312
  54   2.0000      -0.458157       -12.4671
  55   2.0000      -0.450078       -12.2472
  56   2.0000      -0.447106       -12.1664
  57   2.0000      -0.437098       -11.8940
  58   2.0000      -0.433449       -11.7948
  59   2.0000      -0.427009       -11.6195
  60   2.0000      -0.421189       -11.4611
  61   2.0000      -0.409531       -11.1439
  62   2.0000      -0.403951       -10.9921
  63   2.0000      -0.362712        -9.8699
  64   2.0000      -0.334288        -9.0964
  65   2.0000      -0.324361        -8.8263
  66   2.0000      -0.284710        -7.7473
  67   0.0000       0.025808         0.7023
  68   0.0000       0.077555         2.1104
  69   0.0000       0.098514         2.6807
  70   0.0000       0.113945         3.1006
  71   0.0000       0.123120         3.3503

MULLIKEN ATOMIC CHARGES
-----------------------
   0 S :    0.097338
   1 C :   -0.121291
   2 C :   -0.120699
   3 C :   -0.022146
   4 C :   -0.115817
   5 H :    0.023712
   6 C :    0.042911
   7 H :    0.010441
   8 H :    0.038537
   9 C :   -0.040826
  10 H :    0.030978
  11 H :    0.047303
  12 C :   -0.032352
  13 H :    0.006318
  14 H :    0.025873
  15 H :    0.029233
  16 S :    0.085866
  17 C :   -0.102611
  18 C :   -0.012114
  19 C :   -0.067356
  20 C :   -0.083448
  21 H :    0.017915
  22 C :    0.025485
  23 H :    0.012585
  24 H :    0.041419
  25 C :   -0.105455
  26 H :    0.041456
  27 H :    0.052833
  28 C :   -0.051726
  29 H :    0.023208
  30 H :    0.043848
  31 H :    0.042132
  32 H :    0.064496
  33 H :    0.071956
Sum of atomic charges:    0.0000000

LOEWDIN ATOMIC CHARGES
----------------------
   0 S :    0.397953
   1 C :   -0.210290
   2 C :   -0.061907
   3 C :   -0.082360
   4 C :   -0.177343
   5 H :    0.043753
   6 C :   -0.041354
   7 H :    0.030350
   8 H :    0.036377
   9 C :   -0.038211
  10 H :    0.029236
  11 H :    0.033352
  12 C :   -0.065290
  13 H :    0.022479
  14 H :    0.026250
  15 H :    0.015252
  16 S :    0.388530
  17 C :   -0.174819
  18 C :   -0.065118
  19 C :   -0.053039
  20 C :   -0.202359
  21 H :    0.032330
  22 C :   -0.039683
  23 H :    0.024220
  24 H :    0.036293
  25 C :   -0.042575
  26 H :    0.021378
  27 H :    0.037834
  28 C :   -0.066628
  29 H :    0.021632
  30 H :    0.028347
  31 H :    0.026127
  32 H :    0.034582
  33 H :    0.034702

  Mayer bond orders larger than 0.100000
B(  0-S ,  1-C ) :   1.1483 B(  0-S ,  4-C ) :   1.1398 B(  1-C ,  2-C ) :   1.5849
B(  1-C , 32-H ) :   0.9707 B(  2-C ,  3-C ) :   1.2495 B(  2-C ,  6-C ) :   1.0029
B(  3-C ,  4-C ) :   1.6066 B(  3-C ,  5-H ) :   0.9693 B(  4-C , 20-C ) :   1.0349
B(  6-C ,  7-H ) :   0.9411 B(  6-C ,  8-H ) :   0.9425 B(  6-C ,  9-C ) :   1.0649
B(  9-C , 10-H ) :   0.9513 B(  9-C , 11-H ) :   0.9583 B(  9-C , 12-C ) :   1.0773
B( 12-C , 13-H ) :   0.9698 B( 12-C , 14-H ) :   0.9712 B( 12-C , 15-H ) :   0.9755
B( 16-S , 17-C ) :   1.1308 B( 16-S , 20-C ) :   1.1303 B( 17-C , 18-C ) :   1.6601
B( 17-C , 33-H ) :   0.9569 B( 18-C , 19-C ) :   1.2032 B( 18-C , 21-H ) :   0.9921
B( 19-C , 20-C ) :   1.6252 B( 19-C , 22-C ) :   1.0347 B( 22-C , 23-H ) :   0.9322
B( 22-C , 24-H ) :   0.9440 B( 22-C , 25-C ) :   1.0642 B( 25-C , 26-H ) :   0.9579
B( 25-C , 27-H ) :   0.9486 B( 25-C , 28-C ) :   1.0699 B( 28-C , 29-H ) :   0.9719
B( 28-C , 30-H ) :   0.9750 B( 28-C , 31-H ) :   0.9761

Dispersion correction           -0.014279240
FINAL SINGLE POINT ENERGY     -1339.865399197506

DIPOLE MOMENT
-------------
                                X             Y             Z
Electronic contribution:    -23.77754      -1.95635      16.43232
Nuclear contribution   :     24.50963       1.77982     -16.66763
                        -----------------------------------------
Total Dipole Moment    :      0.73210      -0.17653      -0.23531
                        -----------------------------------------
Magnitude (a.u.)       :      0.78898
Magnitude (Debye)      :      2.00544

Rotational constants in cm-1:     0.018909     0.008829     0.006356
Rotational constants in MHz :   566.879017   264.700620   190.561895

                             ****ORCA TERMINATED NORMALLY****
TOTAL RUN TIME: 0 days 0 hours 0 minutes 21 seconds 545 msec
