                         Program Version 4.2.1 -  RELEASE  -
|  1> ! wB97X-D3 SP def2-SVP
|  2> %pal
|  3> nprocs 24
|  4> end
|  5>
|  6> * xyz 0 1
|  7> S 	 -87.7613 	 -28.4489 	 -61.9678
|  8> C 	 -88.6373 	 -27.0129 	 -62.4817
|  9> C 	 -88.8949 	 -26.2296 	 -61.3805
| 10> C 	 -88.3993 	 -26.7712 	 -60.1446
| 11> C 	 -87.6676 	 -27.918 	 -60.2581
| 12> H 	 -88.4185 	 -26.2096 	 -59.2362
| 13> C 	 -89.4221 	 -24.7979 	 -61.5183
| 14> H 	 -89.2205 	 -24.4104 	 -62.5399
| 15> H 	 -88.7617 	 -24.1399 	 -60.8703
| 16> C 	 -90.8947 	 -24.6536 	 -61.1262
| 17> H 	 -91.2252 	 -23.5774 	 -61.4535
| 18> H 	 -91.5123 	 -25.387 	 -61.7372
| 19> C 	 -91.2554 	 -24.9019 	 -59.6694
| 20> H 	 -91.3 	 -26.0127 	 -59.4101
| 21> H 	 -90.6006 	 -24.4988 	 -58.9617
| 22> H 	 -92.2673 	 -24.5107 	 -59.4249
| 23> S 	 -87.1732 	 -30.5798 	 -59.415
| 24> C 	 -86.2769 	 -30.9069 	 -58.0019
| 25> C 	 -85.9877 	 -29.7195 	 -57.3349
| 26> C 	 -86.516 	 -28.5958 	 -58.0191
| 27> C 	 -87.2051 	 -28.8056 	 -59.183
| 28> H 	 -85.4879 	 -29.7746 	 -56.3871
| 29> C 	 -86.2567 	 -27.2135 	 -57.5188
| 30> H 	 -86.3386 	 -26.5167 	 -58.3522
| 31> H 	 -85.1785 	 -27.1192 	 -57.2091
| 32> C 	 -87.2591 	 -26.7902 	 -56.4324
| 33> H 	 -87.2694 	 -27.5702 	 -55.6431
| 34> H 	 -88.2169 	 -26.883 	 -56.8748
| 35> C 	 -86.9203 	 -25.3958 	 -55.7392
| 36> H 	 -87.6214 	 -25.1217 	 -54.8829
| 37> H 	 -86.9809 	 -24.6076 	 -56.4652
| 38> H 	 -85.807 	 -25.3742 	 -55.3252
| 39> H 	 -88.8338 	 -26.769 	 -63.5183
| 40> H 	 -85.9358 	 -31.8897 	 -57.6831
| 41> *
| 42>
| 43>                          ****END OF INPUT****

CARTESIAN COORDINATES (ANGSTROEM)
---------------------------------
  S    -87.761300  -28.448900  -61.967800
  C    -88.637300  -27.012900  -62.481700
  C    -88.894900  -26.229600  -61.380500
  C    -88.399300  -26.771200  -60.144600
  C    -87.667600  -27.918000  -60.258100
  H    -88.418500  -26.209600  -59.236200
  C    -89.422100  -24.797900  -61.518300
  H    -89.220500  -24.410400  -62.539900
  H    -88.761700  -24.139900  -60.870300
  C    -90.894700  -24.653600  -61.126200
  H    -91.225200  -23.577400  -61.453500
  H    -91.512300  -25.387000  -61.737200
  C    -91.255400  -24.901900  -59.669400
  H    -91.300000  -26.012700  -59.410100
  H    -90.600600  -24.498800  -58.961700
  H    -92.267300  -24.510700  -59.424900
  S    -87.173200  -30.579800  -59.415000
  C    -86.276900  -30.906900  -58.001900
  C    -85.987700  -29.719500  -57.334900
  C    -86.516000  -28.595800  -58.019100
  C    -87.205100  -28.805600  -59.183000
  H    -85.487900  -29.774600  -56.387100
  C    -86.256700  -27.213500  -57.518800
  H    -86.338600  -26.516700  -58.352200
  H    -85.178500  -27.119200  -57.209100
  C    -87.259100  -26.790200  -56.432400
  H    -87.269400  -27.570200  -55.643100
  H    -88.216900  -26.883000  -56.874800
  C    -86.920300  -25.395800  -55.739200
  H    -87.621400  -25.121700  -54.882900
  H    -86.980900  -24.607600  -56.465200
  H    -85.807000  -25.374200  -55.325200
  H    -88.833800  -26.769000  -63.518300
  H    -85.935800  -31.889700  -57.683100

 Total Charge           Charge          ....    0
 Multiplicity           Mult            ....    1
 Number of Electrons    NEL             ....  134
 Basis Dimension        Dim             ....  322

ORBITAL ENERGIES
----------------

  NO   OCC          E(Eh)            E(eV)
   0   2.0000     -88.965991     -2420.8877
   1   2.0000     -88.964185     -2420.8385
   2   2.0000     -10.339185      -281.3435
   3   2.0000     -10.331361      -281.1306
   4   2.0000     -10.319946      -280.8200
   5   2.0000     -10.318854      -280.7903
   6   2.0000     -10.303552      -280.3739
   7   2.0000     -10.301547      -280.3193
   8   2.0000     -10.300779      -280.2985
   9   2.0000     -10.300347      -280.2867
  10   2.0000     -10.297212      -280.2014
  11   2.0000     -10.295930      -280.1665
  12   2.0000     -10.293703      -280.1059
  13   2.0000     -10.291047      -280.0336
  14   2.0000     -10.289433      -279.9897
  15   2.0000     -10.280527      -279.7474
  16   2.0000      -8.080006      -219.8681
  17   2.0000      -8.079182      -219.8457
  18   2.0000      -6.038723      -164.3220
  19   2.0000      -6.037684      -164.2937
  20   2.0000      -6.034555      -164.2086
  21   2.0000      -6.033478      -164.1793
  22   2.0000      -6.030621      -164.1015
  23   2.0000      -6.030073      -164.0866
  24   2.0000      -1.008931       -27.4544
  25   2.0000      -0.987697       -26.8766
  26   2.0000      -0.909223       -24.7412
  27   2.0000      -0.907744       -24.7010
  28   2.0000      -0.871942       -23.7267
  29   2.0000      -0.846143       -23.0247
  30   2.0000      -0.840315       -22.8661
  31   2.0000      -0.820989       -22.3402
  32   2.0000      -0.780831       -21.2475
  33   2.0000      -0.770261       -20.9599
  34   2.0000      -0.707741       -19.2586
  35   2.0000      -0.700068       -19.0498
  36   2.0000      -0.692342       -18.8396
  37   2.0000      -0.664929       -18.0936
  38   2.0000      -0.644068       -17.5260
  39   2.0000      -0.623796       -16.9743
  40   2.0000      -0.595866       -16.2143
  41   2.0000      -0.573729       -15.6120
  42   2.0000      -0.558986       -15.2108
  43   2.0000      -0.542528       -14.7630
  44   2.0000      -0.539023       -14.6675
  45   2.0000      -0.521627       -14.1942
  46   2.0000      -0.519935       -14.1481
  47   2.0000      -0.513861       -13.9829
  48   2.0000      -0.506298       -13.7771
  49   2.0000      -0.505370       -13.7518
  50   2.0000      -0.488859       -13.3025
  51   2.0000      -0.484783       -13.1916
  52   2.0000      -0.468151       -12.7390
  53   2.0000      -0.467443       -12.7198
  54   2.0000      -0.458673       -12.4811
  55   2.0000      -0.448042       -12.1919
  56   2.0000      -0.441876       -12.0240
  57   2.0000      -0.439244       -11.9524
  58   2.0000      -0.430262       -11.7080
  59   2.0000      -0.426867       -11.6156
  60   2.0000      -0.418021       -11.3749
  61   2.0000      -0.409489       -11.1428
  62   2.0000      -0.402358       -10.9487
  63   2.0000      -0.362165        -9.8550
  64   2.0000      -0.330411        -8.9909
  65   2.0000      -0.330014        -8.9801
  66   2.0000      -0.292856        -7.9690
  67   0.0000       0.022218         0.6046
  68   0.0000       0.074171         2.0183
  69   0.0000       0.104999         2.8572
  70   0.0000       0.117561         3.1990
  71   0.0000       0.127675         3.4742

MULLIKEN ATOMIC CHARGES
-----------------------
   0 S :    0.088551
   1 C :   -0.121106
   2 C :   -0.077112
   3 C :    0.025320
   4 C :   -0.111366
   5 H :    0.002856
   6 C :    0.028642
   7 H :    0.029750
   8 H :    0.038180
   9 C :   -0.096795
  10 H :    0.043317
  11 H :    0.041599
  12 C :   -0.057564
  13 H :    0.046483
  14 H :    0.016406
  15 H :    0.039868
  16 S :    0.093328
  17 C :   -0.091171
  18 C :   -0.018887
  19 C :   -0.072995
  20 C :   -0.108620
  21 H :    0.017616
  22 C :    0.031250
  23 H :    0.016658
  24 H :    0.030343
  25 C :   -0.051838
  26 H :    0.025016
  27 H :    0.020420
  28 C :   -0.079449
  29 H :    0.054234
  30 H :    0.027533
  31 H :    0.048903
  32 H :    0.056866
  33 H :    0.063764
Sum of atomic charges:   -0.0000000

LOEWDIN ATOMIC CHARGES
----------------------
   0 S :    0.381595
   1 C :   -0.184638
   2 C :   -0.067264
   3 C :   -0.063254
   4 C :   -0.169899
   5 H :    0.025547
   6 C :   -0.037811
   7 H :    0.033202
   8 H :    0.034374
   9 C :   -0.052554
  10 H :    0.031825
  11 H :    0.032345
  12 C :   -0.074595
  13 H :    0.035891
  14 H :    0.011426
  15 H :    0.033474
  16 S :    0.408189
  17 C :   -0.188794
  18 C :   -0.075986
  19 C :   -0.060433
  20 C :   -0.187937
  21 H :    0.031974
  22 C :   -0.036033
  23 H :    0.023534
  24 H :    0.033047
  25 C :   -0.038916
  26 H :    0.024783
  27 H :    0.017451
  28 C :   -0.077476
  29 H :    0.034371
  30 H :    0.016162
  31 H :    0.039204
  32 H :    0.032546
  33 H :    0.034648

  Mayer bond orders larger than 0.100000
B(  0-S ,  1-C ) :   1.1343 B(  0-S ,  4-C ) :   1.1284 B(  1-C ,  2-C ) :   1.6151
B(  1-C , 32-H ) :   0.9704 B(  2-C ,  3-C ) :   1.2446 B(  2-C ,  6-C ) :   1.0052
B(  3-C ,  4-C ) :   1.5698 B(  3-C ,  5-H ) :   0.9894 B(  4-C , 20-C ) :   1.0591
B(  6-C ,  7-H ) :   0.9489 B(  6-C ,  8-H ) :   0.9485 B(  6-C ,  9-C ) :   1.0647
B(  9-C , 10-H ) :   0.9564 B(  9-C , 11-H ) :   0.9532 B(  9-C , 12-C ) :   1.0790
B( 12-C , 13-H ) :   0.9695 B( 12-C , 14-H ) :   0.9752 B( 12-C , 15-H ) :   0.9715
B( 16-S , 17-C ) :   1.1890 B( 16-S , 20-C ) :   1.1095 B( 17-C , 18-C ) :   1.5660
B( 17-C , 33-H ) :   0.9663 B( 18-C , 19-C ) :   1.2594 B( 18-C , 21-H ) :   1.0011
B( 19-C , 20-C ) :   1.5884 B( 19-C , 22-C ) :   1.0585 B( 22-C , 23-H ) :   0.9309
B( 22-C , 24-H ) :   0.9379 B( 22-C , 25-C ) :   1.0478 B( 25-C , 26-H ) :   0.9593
B( 25-C , 27-H ) :   0.9520 B( 25-C , 28-C ) :   1.0602 B( 28-C , 29-H ) :   0.9762
B( 28-C , 30-H ) :   0.9771 B( 28-C , 31-H ) :   0.9744

Dispersion correction           -0.014553091
FINAL SINGLE POINT ENERGY     -1339.881990929323

DIPOLE MOMENT
-------------
                                X             Y             Z
Electronic contribution:      8.72927     -25.41741     -14.56453
Nuclear contribution   :     -8.72741      25.96537      14.89768
                        -----------------------------------------
Total Dipole Moment    :      0.00186       0.54797       0.33316
                        -----------------------------------------
Magnitude (a.u.)       :      0.64130
Magnitude (Debye)      :      1.63005

Rotational constants in cm-1:     0.016843     0.009893     0.006838
Rotational constants in MHz :   504.939968   296.573778   204.991943

                             ****ORCA TERMINATED NORMALLY****
TOTAL RUN TIME: 0 days 0 hours 0 minutes 20 seconds 838 msec
