                         Program Version 4.2.1 -  RELEASE  -
|  1> ! wB97X-D3 SP def2-SVP
|  2> %pal
|  3> nprocs 24
|  4> end
|  5>
|  6> * xyz 0 1
|  7> S 	 -100.214 	 15.0286 	 -123.85
|  8> C 	 -101.765 	 15.663 	 -124.394
|  9> C 	 -102.727 	 14.7286 	 -124.508
| 10> C 	 -102.208 	 13.4257 	 -124.25
| 11> C 	 -100.876 	 13.402 	 -123.933
| 12> H 	 -102.836 	 12.5209 	 -124.339
| 13> C 	 -104.23 	 15.0035 	 -124.585
| 14> H 	 -104.789 	 14.1585 	 -124.811
| 15> H 	 -104.497 	 15.6583 	 -125.466
| 16> C 	 -104.86 	 15.6462 	 -123.366
| 17> H 	 -104.67 	 16.6883 	 -123.297
| 18> H 	 -105.937 	 15.6925 	 -123.604
| 19> C 	 -104.489 	 15.0025 	 -122.04
| 20> H 	 -103.458 	 14.922 	 -121.814
| 21> H 	 -104.882 	 15.6189 	 -121.203
| 22> H 	 -104.851 	 13.9763 	 -121.951
| 23> S 	 -99.0763 	 12.2091 	 -122.304
| 24> C 	 -98.8233 	 10.494 	 -122.342
| 25> C 	 -99.3645 	 9.95754 	 -123.458
| 26> C 	 -100.205 	 10.9236 	 -124.194
| 27> C 	 -100.134 	 12.2108 	 -123.683
| 28> H 	 -99.1829 	 8.91511 	 -123.741
| 29> C 	 -101.063 	 10.4229 	 -125.321
| 30> H 	 -100.342 	 10.1482 	 -126.085
| 31> H 	 -101.631 	 11.2026 	 -125.808
| 32> C 	 -102.073 	 9.33964 	 -124.976
| 33> H 	 -101.469 	 8.56243 	 -124.586
| 34> H 	 -102.523 	 8.87948 	 -125.853
| 35> C 	 -103.093 	 9.67977 	 -123.893
| 36> H 	 -103.938 	 10.3055 	 -124.187
| 37> H 	 -102.631 	 10.0844 	 -123
| 38> H 	 -103.515 	 8.7268 	 -123.524
| 39> H 	 -102.068 	 16.7307 	 -124.378
| 40> H 	 -98.0173 	 10.0296 	 -121.797
| 41> *
| 42>
| 43>                          ****END OF INPUT****

CARTESIAN COORDINATES (ANGSTROEM)
---------------------------------
  S    -100.214000   15.028600  -123.850000
  C    -101.765000   15.663000  -124.394000
  C    -102.727000   14.728600  -124.508000
  C    -102.208000   13.425700  -124.250000
  C    -100.876000   13.402000  -123.933000
  H    -102.836000   12.520900  -124.339000
  C    -104.230000   15.003500  -124.585000
  H    -104.789000   14.158500  -124.811000
  H    -104.497000   15.658300  -125.466000
  C    -104.860000   15.646200  -123.366000
  H    -104.670000   16.688300  -123.297000
  H    -105.937000   15.692500  -123.604000
  C    -104.489000   15.002500  -122.040000
  H    -103.458000   14.922000  -121.814000
  H    -104.882000   15.618900  -121.203000
  H    -104.851000   13.976300  -121.951000
  S    -99.076300   12.209100  -122.304000
  C    -98.823300   10.494000  -122.342000
  C    -99.364500    9.957540  -123.458000
  C    -100.205000   10.923600  -124.194000
  C    -100.134000   12.210800  -123.683000
  H    -99.182900    8.915110  -123.741000
  C    -101.063000   10.422900  -125.321000
  H    -100.342000   10.148200  -126.085000
  H    -101.631000   11.202600  -125.808000
  C    -102.073000    9.339640  -124.976000
  H    -101.469000    8.562430  -124.586000
  H    -102.523000    8.879480  -125.853000
  C    -103.093000    9.679770  -123.893000
  H    -103.938000   10.305500  -124.187000
  H    -102.631000   10.084400  -123.000000
  H    -103.515000    8.726800  -123.524000
  H    -102.068000   16.730700  -124.378000
  H    -98.017300   10.029600  -121.797000

 Total Charge           Charge          ....    0
 Multiplicity           Mult            ....    1
 Number of Electrons    NEL             ....  134
 Basis Dimension        Dim             ....  322

ORBITAL ENERGIES
----------------

  NO   OCC          E(Eh)            E(eV)
   0   2.0000     -88.969660     -2420.9875
   1   2.0000     -88.958638     -2420.6876
   2   2.0000     -10.327469      -281.0247
   3   2.0000     -10.324663      -280.9484
   4   2.0000     -10.313936      -280.6565
   5   2.0000     -10.312335      -280.6129
   6   2.0000     -10.306368      -280.4505
   7   2.0000     -10.297609      -280.2122
   8   2.0000     -10.295594      -280.1574
   9   2.0000     -10.292440      -280.0715
  10   2.0000     -10.290477      -280.0181
  11   2.0000     -10.285063      -279.8708
  12   2.0000     -10.283388      -279.8252
  13   2.0000     -10.282855      -279.8107
  14   2.0000     -10.278525      -279.6929
  15   2.0000     -10.271710      -279.5074
  16   2.0000      -8.083983      -219.9764
  17   2.0000      -8.074569      -219.7202
  18   2.0000      -6.042677      -164.4296
  19   2.0000      -6.038684      -164.3210
  20   2.0000      -6.034439      -164.2054
  21   2.0000      -6.033186      -164.1713
  22   2.0000      -6.028867      -164.0538
  23   2.0000      -6.025179      -163.9535
  24   2.0000      -1.011449       -27.5229
  25   2.0000      -0.987537       -26.8722
  26   2.0000      -0.915378       -24.9087
  27   2.0000      -0.913251       -24.8508
  28   2.0000      -0.876052       -23.8386
  29   2.0000      -0.849731       -23.1224
  30   2.0000      -0.842124       -22.9153
  31   2.0000      -0.816267       -22.2117
  32   2.0000      -0.788429       -21.4542
  33   2.0000      -0.778781       -21.1917
  34   2.0000      -0.712568       -19.3900
  35   2.0000      -0.706558       -19.2264
  36   2.0000      -0.695963       -18.9381
  37   2.0000      -0.660370       -17.9696
  38   2.0000      -0.631336       -17.1795
  39   2.0000      -0.619301       -16.8520
  40   2.0000      -0.599159       -16.3039
  41   2.0000      -0.576459       -15.6862
  42   2.0000      -0.556578       -15.1452
  43   2.0000      -0.551556       -15.0086
  44   2.0000      -0.545742       -14.8504
  45   2.0000      -0.536864       -14.6088
  46   2.0000      -0.515882       -14.0379
  47   2.0000      -0.508103       -13.8262
  48   2.0000      -0.503775       -13.7084
  49   2.0000      -0.497370       -13.5341
  50   2.0000      -0.495617       -13.4864
  51   2.0000      -0.475036       -12.9264
  52   2.0000      -0.472623       -12.8607
  53   2.0000      -0.467863       -12.7312
  54   2.0000      -0.463390       -12.6095
  55   2.0000      -0.447178       -12.1683
  56   2.0000      -0.444509       -12.0957
  57   2.0000      -0.442488       -12.0407
  58   2.0000      -0.435586       -11.8529
  59   2.0000      -0.428432       -11.6582
  60   2.0000      -0.414250       -11.2723
  61   2.0000      -0.409266       -11.1367
  62   2.0000      -0.408158       -11.1065
  63   2.0000      -0.358395        -9.7524
  64   2.0000      -0.334804        -9.1105
  65   2.0000      -0.324102        -8.8193
  66   2.0000      -0.292990        -7.9727
  67   0.0000       0.027336         0.7439
  68   0.0000       0.076019         2.0686
  69   0.0000       0.108474         2.9517
  70   0.0000       0.120118         3.2686
  71   0.0000       0.130161         3.5419

MULLIKEN ATOMIC CHARGES
-----------------------
   0 S :    0.116634
   1 C :   -0.125922
   2 C :   -0.078349
   3 C :   -0.004499
   4 C :   -0.116686
   5 H :    0.003155
   6 C :    0.076336
   7 H :   -0.000003
   8 H :    0.030889
   9 C :   -0.056709
  10 H :    0.010690
  11 H :    0.025489
  12 C :   -0.040325
  13 H :    0.037596
  14 H :    0.032674
  15 H :    0.025927
  16 S :    0.077600
  17 C :   -0.073622
  18 C :   -0.048222
  19 C :   -0.089138
  20 C :   -0.115558
  21 H :    0.033855
  22 C :    0.066674
  23 H :    0.032393
  24 H :    0.013619
  25 C :   -0.042576
  26 H :    0.004206
  27 H :    0.028350
  28 C :   -0.058223
  29 H :    0.043663
  30 H :    0.043095
  31 H :    0.028944
  32 H :    0.055014
  33 H :    0.063027
Sum of atomic charges:   -0.0000000

LOEWDIN ATOMIC CHARGES
----------------------
   0 S :    0.395782
   1 C :   -0.192329
   2 C :   -0.068556
   3 C :   -0.059740
   4 C :   -0.190774
   5 H :    0.033748
   6 C :   -0.030533
   7 H :    0.018175
   8 H :    0.040104
   9 C :   -0.042843
  10 H :    0.016016
  11 H :    0.030172
  12 C :   -0.066002
  13 H :    0.024547
  14 H :    0.031852
  15 H :    0.024605
  16 S :    0.401616
  17 C :   -0.187266
  18 C :   -0.070582
  19 C :   -0.054044
  20 C :   -0.198412
  21 H :    0.034913
  22 C :   -0.039096
  23 H :    0.036924
  24 H :    0.024784
  25 C :   -0.038449
  26 H :    0.016268
  27 H :    0.027084
  28 C :   -0.067895
  29 H :    0.021543
  30 H :    0.029386
  31 H :    0.032488
  32 H :    0.035872
  33 H :    0.030639

  Mayer bond orders larger than 0.100000
B(  0-S ,  1-C ) :   1.1206 B(  0-S ,  4-C ) :   1.1292 B(  1-C ,  2-C ) :   1.6514
B(  1-C , 32-H ) :   0.9574 B(  2-C ,  3-C ) :   1.2336 B(  2-C ,  6-C ) :   1.0251
B(  3-C ,  4-C ) :   1.5788 B(  3-C ,  5-H ) :   0.9878 B(  4-C , 20-C ) :   1.0591
B(  6-C ,  7-H ) :   0.9407 B(  6-C ,  8-H ) :   0.9329 B(  6-C ,  9-C ) :   1.0821
B(  9-C , 10-H ) :   0.9524 B(  9-C , 11-H ) :   0.9507 B(  9-C , 12-C ) :   1.0765
B( 12-C , 13-H ) :   0.9706 B( 12-C , 14-H ) :   0.9724 B( 12-C , 15-H ) :   0.9762
B( 16-S , 17-C ) :   1.1498 B( 16-S , 20-C ) :   1.1248 B( 17-C , 18-C ) :   1.6385
B( 17-C , 33-H ) :   0.9615 B( 18-C , 19-C ) :   1.2046 B( 18-C , 21-H ) :   0.9856
B( 19-C , 20-C ) :   1.6126 B( 19-C , 22-C ) :   1.0452 B( 22-C , 23-H ) :   0.9273
B( 22-C , 24-H ) :   0.9366 B( 22-C , 25-C ) :   1.0722 B( 25-C , 26-H ) :   0.9517
B( 25-C , 27-H ) :   0.9523 B( 25-C , 28-C ) :   1.0859 B( 28-C , 29-H ) :   0.9675
B( 28-C , 30-H ) :   0.9685 B( 28-C , 31-H ) :   0.9688

Dispersion correction           -0.015749056
FINAL SINGLE POINT ENERGY     -1339.883124638392

DIPOLE MOMENT
-------------
                                X             Y             Z
Electronic contribution:     24.69472       7.12366       2.49198
Nuclear contribution   :    -25.23316      -7.50946      -2.65918
                        -----------------------------------------
Total Dipole Moment    :     -0.53844      -0.38580      -0.16719
                        -----------------------------------------
Magnitude (a.u.)       :      0.68316
Magnitude (Debye)      :      1.73646

Rotational constants in cm-1:     0.019560     0.009658     0.007675
Rotational constants in MHz :   586.408185   289.530103   230.100954

                             ****ORCA TERMINATED NORMALLY****
TOTAL RUN TIME: 0 days 0 hours 0 minutes 22 seconds 925 msec
