                         Program Version 4.2.1 -  RELEASE  -
|  1> ! wB97X-D3 SP def2-SVP
|  2> %pal
|  3> nprocs 24
|  4> end
|  5>
|  6> * xyz 0 1
|  7> S 	 -145.297 	 6.73512 	 2.99445
|  8> C 	 -145.686 	 6.16143 	 4.58341
|  9> C 	 -146.569 	 7.03893 	 5.18104
| 10> C 	 -146.875 	 8.20157 	 4.36183
| 11> C 	 -146.131 	 8.21275 	 3.10701
| 12> H 	 -147.344 	 9.10049 	 4.66342
| 13> C 	 -147.121 	 6.91845 	 6.62464
| 14> H 	 -147.45 	 7.87522 	 7.04938
| 15> H 	 -146.256 	 6.60909 	 7.23022
| 16> C 	 -148.249 	 5.88627 	 6.89459
| 17> H 	 -147.94 	 4.92184 	 6.51141
| 18> H 	 -148.204 	 5.76407 	 8.00354
| 19> C 	 -149.597 	 6.15991 	 6.26511
| 20> H 	 -149.41 	 6.18309 	 5.18942
| 21> H 	 -150.366 	 5.42767 	 6.33608
| 22> H 	 -149.985 	 7.09091 	 6.64258
| 23> S 	 -147.169 	 9.62896 	 0.949328
| 24> C 	 -146.231 	 10.9226 	 0.255372
| 25> C 	 -144.972 	 10.9619 	 0.807614
| 26> C 	 -144.764 	 10.0005 	 1.81098
| 27> C 	 -145.918 	 9.31947 	 2.13302
| 28> H 	 -144.267 	 11.7443 	 0.672937
| 29> C 	 -143.436 	 9.72637 	 2.47347
| 30> H 	 -143.663 	 9.24782 	 3.41062
| 31> H 	 -142.954 	 10.6603 	 2.81298
| 32> C 	 -142.36 	 8.96431 	 1.6574
| 33> H 	 -142.003 	 9.55299 	 0.745889
| 34> H 	 -142.797 	 7.99656 	 1.35695
| 35> C 	 -141.171 	 8.81371 	 2.50326
| 36> H 	 -141.365 	 8.28127 	 3.42869
| 37> H 	 -140.648 	 9.72997 	 2.70455
| 38> H 	 -140.491 	 8.16905 	 1.98222
| 39> H 	 -145.258 	 5.23228 	 4.90694
| 40> H 	 -146.425 	 11.6202 	 -0.538146
| 41> *
| 42>
| 43>                          ****END OF INPUT****

CARTESIAN COORDINATES (ANGSTROEM)
---------------------------------
  S    -145.297000    6.735120    2.994450
  C    -145.686000    6.161430    4.583410
  C    -146.569000    7.038930    5.181040
  C    -146.875000    8.201570    4.361830
  C    -146.131000    8.212750    3.107010
  H    -147.344000    9.100490    4.663420
  C    -147.121000    6.918450    6.624640
  H    -147.450000    7.875220    7.049380
  H    -146.256000    6.609090    7.230220
  C    -148.249000    5.886270    6.894590
  H    -147.940000    4.921840    6.511410
  H    -148.204000    5.764070    8.003540
  C    -149.597000    6.159910    6.265110
  H    -149.410000    6.183090    5.189420
  H    -150.366000    5.427670    6.336080
  H    -149.985000    7.090910    6.642580
  S    -147.169000    9.628960    0.949328
  C    -146.231000   10.922600    0.255372
  C    -144.972000   10.961900    0.807614
  C    -144.764000   10.000500    1.810980
  C    -145.918000    9.319470    2.133020
  H    -144.267000   11.744300    0.672937
  C    -143.436000    9.726370    2.473470
  H    -143.663000    9.247820    3.410620
  H    -142.954000   10.660300    2.812980
  C    -142.360000    8.964310    1.657400
  H    -142.003000    9.552990    0.745889
  H    -142.797000    7.996560    1.356950
  C    -141.171000    8.813710    2.503260
  H    -141.365000    8.281270    3.428690
  H    -140.648000    9.729970    2.704550
  H    -140.491000    8.169050    1.982220
  H    -145.258000    5.232280    4.906940
  H    -146.425000   11.620200   -0.538146

 Total Charge           Charge          ....    0
 Multiplicity           Mult            ....    1
 Number of Electrons    NEL             ....  134
 Basis Dimension        Dim             ....  322

ORBITAL ENERGIES
----------------

  NO   OCC          E(Eh)            E(eV)
   0   2.0000     -88.967190     -2420.9203
   1   2.0000     -88.966754     -2420.9085
   2   2.0000     -10.334530      -281.2169
   3   2.0000     -10.326023      -280.9854
   4   2.0000     -10.316588      -280.7286
   5   2.0000     -10.315184      -280.6904
   6   2.0000     -10.310126      -280.5528
   7   2.0000     -10.300798      -280.2990
   8   2.0000     -10.297091      -280.1981
   9   2.0000     -10.296831      -280.1910
  10   2.0000     -10.287352      -279.9331
  11   2.0000     -10.286646      -279.9139
  12   2.0000     -10.285481      -279.8822
  13   2.0000     -10.285472      -279.8819
  14   2.0000     -10.270615      -279.4776
  15   2.0000     -10.266578      -279.3678
  16   2.0000      -8.082141      -219.9262
  17   2.0000      -8.081800      -219.9170
  18   2.0000      -6.040453      -164.3691
  19   2.0000      -6.040326      -164.3656
  20   2.0000      -6.036333      -164.2570
  21   2.0000      -6.036137      -164.2516
  22   2.0000      -6.033496      -164.1798
  23   2.0000      -6.032524      -164.1533
  24   2.0000      -1.007642       -27.4193
  25   2.0000      -0.987372       -26.8677
  26   2.0000      -0.912686       -24.8354
  27   2.0000      -0.907230       -24.6870
  28   2.0000      -0.867815       -23.6145
  29   2.0000      -0.856845       -23.3159
  30   2.0000      -0.843828       -22.9617
  31   2.0000      -0.813273       -22.1303
  32   2.0000      -0.784814       -21.3559
  33   2.0000      -0.771605       -20.9964
  34   2.0000      -0.699372       -19.0309
  35   2.0000      -0.696634       -18.9564
  36   2.0000      -0.692154       -18.8345
  37   2.0000      -0.662243       -18.0205
  38   2.0000      -0.650522       -17.7016
  39   2.0000      -0.606065       -16.4919
  40   2.0000      -0.595814       -16.2129
  41   2.0000      -0.577173       -15.7057
  42   2.0000      -0.569198       -15.4887
  43   2.0000      -0.549333       -14.9481
  44   2.0000      -0.540046       -14.6954
  45   2.0000      -0.525092       -14.2885
  46   2.0000      -0.517491       -14.0816
  47   2.0000      -0.515584       -14.0297
  48   2.0000      -0.506983       -13.7957
  49   2.0000      -0.504337       -13.7237
  50   2.0000      -0.484405       -13.1813
  51   2.0000      -0.481121       -13.0920
  52   2.0000      -0.472346       -12.8532
  53   2.0000      -0.466839       -12.7033
  54   2.0000      -0.458230       -12.4691
  55   2.0000      -0.447484       -12.1767
  56   2.0000      -0.444408       -12.0929
  57   2.0000      -0.433492       -11.7959
  58   2.0000      -0.430602       -11.7173
  59   2.0000      -0.420112       -11.4318
  60   2.0000      -0.415534       -11.3073
  61   2.0000      -0.415077       -11.2948
  62   2.0000      -0.410282       -11.1643
  63   2.0000      -0.335489        -9.1291
  64   2.0000      -0.331409        -9.0181
  65   2.0000      -0.325494        -8.8571
  66   2.0000      -0.304525        -8.2865
  67   0.0000       0.032845         0.8938
  68   0.0000       0.063538         1.7290
  69   0.0000       0.115307         3.1377
  70   0.0000       0.120596         3.2816
  71   0.0000       0.130016         3.5379

MULLIKEN ATOMIC CHARGES
-----------------------
   0 S :    0.120939
   1 C :   -0.135969
   2 C :   -0.074799
   3 C :    0.066919
   4 C :   -0.207312
   5 H :    0.004801
   6 C :    0.044185
   7 H :    0.024831
   8 H :    0.032093
   9 C :   -0.070885
  10 H :    0.011790
  11 H :    0.029979
  12 C :   -0.021548
  13 H :    0.035985
  14 H :    0.027804
  15 H :    0.023228
  16 S :    0.121629
  17 C :   -0.066434
  18 C :   -0.031266
  19 C :   -0.010254
  20 C :   -0.161758
  21 H :    0.008166
  22 C :    0.036708
  23 H :    0.021601
  24 H :    0.011448
  25 C :   -0.066722
  26 H :    0.037270
  27 H :    0.029798
  28 C :   -0.011483
  29 H :    0.022704
  30 H :    0.026218
  31 H :    0.019779
  32 H :    0.051691
  33 H :    0.048866
Sum of atomic charges:   -0.0000000

LOEWDIN ATOMIC CHARGES
----------------------
   0 S :    0.449571
   1 C :   -0.203857
   2 C :   -0.064968
   3 C :   -0.058622
   4 C :   -0.218947
   5 H :    0.024232
   6 C :   -0.030418
   7 H :    0.028355
   8 H :    0.035456
   9 C :   -0.042977
  10 H :    0.018197
  11 H :    0.025270
  12 C :   -0.064420
  13 H :    0.033291
  14 H :    0.023440
  15 H :    0.020933
  16 S :    0.416815
  17 C :   -0.185030
  18 C :   -0.069871
  19 C :   -0.053893
  20 C :   -0.209556
  21 H :    0.026944
  22 C :   -0.037960
  23 H :    0.026135
  24 H :    0.029000
  25 C :   -0.038617
  26 H :    0.032705
  27 H :    0.022003
  28 C :   -0.063408
  29 H :    0.024367
  30 H :    0.022882
  31 H :    0.024655
  32 H :    0.026295
  33 H :    0.031996

  Mayer bond orders larger than 0.100000
B(  0-S ,  1-C ) :   1.1644 B(  0-S ,  4-C ) :   1.2050 B(  1-C ,  2-C ) :   1.5545
B(  1-C ,  4-C ) :   0.1045 B(  1-C , 32-H ) :   0.9809 B(  2-C ,  3-C ) :   1.2754
B(  2-C ,  6-C ) :   1.0115 B(  3-C ,  4-C ) :   1.5191 B(  3-C ,  5-H ) :   0.9964
B(  4-C , 20-C ) :   0.9884 B(  6-C ,  7-H ) :   0.9492 B(  6-C ,  8-H ) :   0.9433
B(  6-C ,  9-C ) :   1.0726 B(  9-C , 10-H ) :   0.9565 B(  9-C , 11-H ) :   0.9559
B(  9-C , 12-C ) :   1.0704 B( 12-C , 13-H ) :   0.9712 B( 12-C , 14-H ) :   0.9742
B( 12-C , 15-H ) :   0.9769 B( 16-S , 17-C ) :   1.1561 B( 16-S , 20-C ) :   1.1442
B( 17-C , 18-C ) :   1.6017 B( 17-C , 33-H ) :   0.9654 B( 18-C , 19-C ) :   1.2626
B( 18-C , 21-H ) :   0.9886 B( 19-C , 20-C ) :   1.6007 B( 19-C , 22-C ) :   1.0492
B( 22-C , 23-H ) :   0.9298 B( 22-C , 24-H ) :   0.9311 B( 22-C , 25-C ) :   1.0650
B( 25-C , 26-H ) :   0.9497 B( 25-C , 27-H ) :   0.9475 B( 25-C , 28-C ) :   1.1010
B( 28-C , 29-H ) :   0.9686 B( 28-C , 30-H ) :   0.9702 B( 28-C , 31-H ) :   0.9674

Dispersion correction           -0.014422621
FINAL SINGLE POINT ENERGY     -1339.876658330041

DIPOLE MOMENT
-------------
                                X             Y             Z
Electronic contribution:     -6.40789       4.08913     -15.39288
Nuclear contribution   :      6.77235      -4.01285      15.74863
                        -----------------------------------------
Total Dipole Moment    :      0.36446       0.07627       0.35575
                        -----------------------------------------
Magnitude (a.u.)       :      0.51498
Magnitude (Debye)      :      1.30899

Rotational constants in cm-1:     0.020779     0.008134     0.006401
Rotational constants in MHz :   622.939185   243.846720   191.905328

                             ****ORCA TERMINATED NORMALLY****
TOTAL RUN TIME: 0 days 0 hours 0 minutes 21 seconds 335 msec
