                         Program Version 4.2.1 -  RELEASE  -
|  1> ! wB97X-D3 SP def2-SVP
|  2> %pal
|  3> nprocs 24
|  4> end
|  5>
|  6> * xyz 0 1
|  7> S 	 -125.308 	 63.7537 	 -55.8711
|  8> C 	 -125.462 	 64.4949 	 -57.432
|  9> C 	 -126.369 	 65.4933 	 -57.3686
| 10> C 	 -127.158 	 65.6028 	 -56.1664
| 11> C 	 -126.742 	 64.6299 	 -55.2851
| 12> H 	 -127.9 	 66.3107 	 -55.8741
| 13> C 	 -126.624 	 66.4106 	 -58.5485
| 14> H 	 -127.703 	 66.4641 	 -58.4898
| 15> H 	 -126.342 	 65.9414 	 -59.4664
| 16> C 	 -125.861 	 67.7753 	 -58.45
| 17> H 	 -125.942 	 68.2544 	 -59.4357
| 18> H 	 -126.375 	 68.3792 	 -57.7097
| 19> C 	 -124.402 	 67.5509 	 -58.0574
| 20> H 	 -124.031 	 66.7506 	 -58.7174
| 21> H 	 -123.795 	 68.3891 	 -58.3455
| 22> H 	 -124.351 	 67.3272 	 -57.0638
| 23> S 	 -126.587 	 64.274 	 -52.5316
| 24> C 	 -127.976 	 64.246 	 -51.6236
| 25> C 	 -129.13 	 64.1075 	 -52.4164
| 26> C 	 -128.829 	 64.2404 	 -53.8102
| 27> C 	 -127.437 	 64.3258 	 -54.0571
| 28> H 	 -130.074 	 64.0343 	 -51.9374
| 29> C 	 -129.955 	 64.3074 	 -54.7864
| 30> H 	 -129.556 	 64.513 	 -55.8532
| 31> H 	 -130.572 	 65.1352 	 -54.513
| 32> C 	 -130.908 	 63.0599 	 -54.8364
| 33> H 	 -131.52 	 63.1651 	 -53.9195
| 34> H 	 -130.352 	 62.1548 	 -54.7969
| 35> C 	 -131.77 	 63.138 	 -56.1064
| 36> H 	 -132.226 	 64.1483 	 -56.2471
| 37> H 	 -132.579 	 62.374 	 -55.9656
| 38> H 	 -131.271 	 62.8732 	 -57.0287
| 39> H 	 -124.712 	 64.3764 	 -58.2381
| 40> H 	 -128.036 	 64.3461 	 -50.5308
| 41> *
| 42>
| 43>                          ****END OF INPUT****

CARTESIAN COORDINATES (ANGSTROEM)
---------------------------------
  S    -125.308000   63.753700  -55.871100
  C    -125.462000   64.494900  -57.432000
  C    -126.369000   65.493300  -57.368600
  C    -127.158000   65.602800  -56.166400
  C    -126.742000   64.629900  -55.285100
  H    -127.900000   66.310700  -55.874100
  C    -126.624000   66.410600  -58.548500
  H    -127.703000   66.464100  -58.489800
  H    -126.342000   65.941400  -59.466400
  C    -125.861000   67.775300  -58.450000
  H    -125.942000   68.254400  -59.435700
  H    -126.375000   68.379200  -57.709700
  C    -124.402000   67.550900  -58.057400
  H    -124.031000   66.750600  -58.717400
  H    -123.795000   68.389100  -58.345500
  H    -124.351000   67.327200  -57.063800
  S    -126.587000   64.274000  -52.531600
  C    -127.976000   64.246000  -51.623600
  C    -129.130000   64.107500  -52.416400
  C    -128.829000   64.240400  -53.810200
  C    -127.437000   64.325800  -54.057100
  H    -130.074000   64.034300  -51.937400
  C    -129.955000   64.307400  -54.786400
  H    -129.556000   64.513000  -55.853200
  H    -130.572000   65.135200  -54.513000
  C    -130.908000   63.059900  -54.836400
  H    -131.520000   63.165100  -53.919500
  H    -130.352000   62.154800  -54.796900
  C    -131.770000   63.138000  -56.106400
  H    -132.226000   64.148300  -56.247100
  H    -132.579000   62.374000  -55.965600
  H    -131.271000   62.873200  -57.028700
  H    -124.712000   64.376400  -58.238100
  H    -128.036000   64.346100  -50.530800

 Total Charge           Charge          ....    0
 Multiplicity           Mult            ....    1
 Number of Electrons    NEL             ....  134
 Basis Dimension        Dim             ....  322

ORBITAL ENERGIES
----------------

  NO   OCC          E(Eh)            E(eV)
   0   2.0000     -88.966163     -2420.8924
   1   2.0000     -88.961227     -2420.7580
   2   2.0000     -10.329730      -281.0862
   3   2.0000     -10.324536      -280.9449
   4   2.0000     -10.316274      -280.7201
   5   2.0000     -10.308211      -280.5007
   6   2.0000     -10.306099      -280.4432
   7   2.0000     -10.294829      -280.1365
   8   2.0000     -10.292815      -280.0817
   9   2.0000     -10.291662      -280.0504
  10   2.0000     -10.291575      -280.0480
  11   2.0000     -10.287834      -279.9462
  12   2.0000     -10.285091      -279.8716
  13   2.0000     -10.283393      -279.8253
  14   2.0000     -10.283380      -279.8250
  15   2.0000     -10.266981      -279.3787
  16   2.0000      -8.082695      -219.9413
  17   2.0000      -8.076161      -219.7635
  18   2.0000      -6.040971      -164.3832
  19   2.0000      -6.036799      -164.2697
  20   2.0000      -6.034764      -164.2143
  21   2.0000      -6.033739      -164.1864
  22   2.0000      -6.030809      -164.1066
  23   2.0000      -6.026645      -163.9933
  24   2.0000      -1.010063       -27.4852
  25   2.0000      -0.988837       -26.9076
  26   2.0000      -0.909955       -24.7611
  27   2.0000      -0.909173       -24.7398
  28   2.0000      -0.871529       -23.7155
  29   2.0000      -0.853237       -23.2178
  30   2.0000      -0.845541       -23.0083
  31   2.0000      -0.812036       -22.0966
  32   2.0000      -0.780440       -21.2369
  33   2.0000      -0.769484       -20.9387
  34   2.0000      -0.707415       -19.2497
  35   2.0000      -0.696165       -18.9436
  36   2.0000      -0.692432       -18.8420
  37   2.0000      -0.658852       -17.9283
  38   2.0000      -0.640744       -17.4355
  39   2.0000      -0.619529       -16.8582
  40   2.0000      -0.596148       -16.2220
  41   2.0000      -0.571307       -15.5461
  42   2.0000      -0.563277       -15.3275
  43   2.0000      -0.553092       -15.0504
  44   2.0000      -0.546116       -14.8606
  45   2.0000      -0.521704       -14.1963
  46   2.0000      -0.521375       -14.1873
  47   2.0000      -0.512484       -13.9454
  48   2.0000      -0.501268       -13.6402
  49   2.0000      -0.498762       -13.5720
  50   2.0000      -0.483952       -13.1690
  51   2.0000      -0.482343       -13.1252
  52   2.0000      -0.473352       -12.8806
  53   2.0000      -0.468131       -12.7385
  54   2.0000      -0.463872       -12.6226
  55   2.0000      -0.447946       -12.1892
  56   2.0000      -0.438958       -11.9447
  57   2.0000      -0.437460       -11.9039
  58   2.0000      -0.436524       -11.8784
  59   2.0000      -0.428577       -11.6622
  60   2.0000      -0.422167       -11.4878
  61   2.0000      -0.412560       -11.2263
  62   2.0000      -0.405174       -11.0253
  63   2.0000      -0.350477        -9.5370
  64   2.0000      -0.328710        -8.9447
  65   2.0000      -0.326183        -8.8759
  66   2.0000      -0.287259        -7.8167
  67   0.0000       0.031996         0.8707
  68   0.0000       0.069428         1.8892
  69   0.0000       0.115069         3.1312
  70   0.0000       0.120067         3.2672
  71   0.0000       0.133312         3.6276

MULLIKEN ATOMIC CHARGES
-----------------------
   0 S :    0.094516
   1 C :   -0.124833
   2 C :   -0.119215
   3 C :    0.017582
   4 C :   -0.129037
   5 H :    0.021016
   6 C :    0.068944
   7 H :    0.023106
   8 H :    0.012968
   9 C :   -0.079293
  10 H :    0.034183
  11 H :    0.026129
  12 C :   -0.002892
  13 H :    0.011399
  14 H :    0.027740
  15 H :    0.039422
  16 S :    0.129261
  17 C :   -0.102054
  18 C :   -0.043816
  19 C :   -0.021258
  20 C :   -0.156165
  21 H :    0.008964
  22 C :    0.011670
  23 H :    0.039869
  24 H :    0.026414
  25 C :   -0.063261
  26 H :    0.032602
  27 H :    0.035873
  28 C :   -0.065069
  29 H :    0.035312
  30 H :    0.037473
  31 H :    0.041348
  32 H :    0.062718
  33 H :    0.068385
Sum of atomic charges:   -0.0000000

LOEWDIN ATOMIC CHARGES
----------------------
   0 S :    0.384250
   1 C :   -0.208267
   2 C :   -0.065656
   3 C :   -0.062177
   4 C :   -0.172081
   5 H :    0.033672
   6 C :   -0.029643
   7 H :    0.028208
   8 H :    0.021905
   9 C :   -0.034537
  10 H :    0.024530
  11 H :    0.019205
  12 C :   -0.051634
  13 H :    0.024699
  14 H :    0.025293
  15 H :    0.016595
  16 S :    0.450987
  17 C :   -0.212686
  18 C :   -0.075708
  19 C :   -0.048872
  20 C :   -0.216170
  21 H :    0.024955
  22 C :   -0.041891
  23 H :    0.035551
  24 H :    0.027377
  25 C :   -0.032082
  26 H :    0.024689
  27 H :    0.022010
  28 C :   -0.068910
  29 H :    0.028266
  30 H :    0.031064
  31 H :    0.025071
  32 H :    0.035550
  33 H :    0.036437

  Mayer bond orders larger than 0.100000
B(  0-S ,  1-C ) :   1.1096 B(  0-S ,  4-C ) :   1.1444 B(  1-C ,  2-C ) :   1.6460
B(  1-C , 32-H ) :   0.9627 B(  2-C ,  3-C ) :   1.1937 B(  2-C ,  6-C ) :   1.0184
B(  3-C ,  4-C ) :   1.5808 B(  3-C ,  5-H ) :   1.0033 B(  4-C , 20-C ) :   1.0493
B(  6-C ,  7-H ) :   0.9452 B(  6-C ,  8-H ) :   0.9450 B(  6-C ,  9-C ) :   1.0615
B(  9-C , 10-H ) :   0.9607 B(  9-C , 11-H ) :   0.9583 B(  9-C , 12-C ) :   1.0842
B( 12-C , 13-H ) :   0.9730 B( 12-C , 14-H ) :   0.9706 B( 12-C , 15-H ) :   0.9699
B( 16-S , 17-C ) :   1.2099 B( 16-S , 20-C ) :   1.1447 B( 17-C , 18-C ) :   1.5564
B( 17-C , 33-H ) :   0.9639 B( 18-C , 19-C ) :   1.2624 B( 18-C , 21-H ) :   1.0003
B( 19-C , 20-C ) :   1.5467 B( 19-C , 22-C ) :   1.0550 B( 22-C , 23-H ) :   0.9405
B( 22-C , 24-H ) :   0.9253 B( 22-C , 25-C ) :   1.0526 B( 25-C , 26-H ) :   0.9528
B( 25-C , 27-H ) :   0.9611 B( 25-C , 28-C ) :   1.0880 B( 28-C , 29-H ) :   0.9723
B( 28-C , 30-H ) :   0.9742 B( 28-C , 31-H ) :   0.9753

Dispersion correction           -0.014465779
FINAL SINGLE POINT ENERGY     -1339.875983631164

DIPOLE MOMENT
-------------
                                X             Y             Z
Electronic contribution:     14.08165      -8.72406      17.12102
Nuclear contribution   :    -14.59394       9.10228     -17.27372
                        -----------------------------------------
Total Dipole Moment    :     -0.51230       0.37823      -0.15269
                        -----------------------------------------
Magnitude (a.u.)       :      0.65484
Magnitude (Debye)      :      1.66447

Rotational constants in cm-1:     0.018524     0.008669     0.006877
Rotational constants in MHz :   555.341406   259.888314   206.159682

                             ****ORCA TERMINATED NORMALLY****
TOTAL RUN TIME: 0 days 0 hours 0 minutes 21 seconds 925 msec
