                         Program Version 4.2.1 -  RELEASE  -
|  1> ! wB97X-D3 SP def2-SVP
|  2> %pal
|  3> nprocs 24
|  4> end
|  5>
|  6> * xyz 0 1
|  7> S 	 -63.2997 	 20.7906 	 -73.1555
|  8> C 	 -62.393 	 19.9952 	 -74.4898
|  9> C 	 -63.0506 	 18.834 	 -74.824
| 10> C 	 -64.373 	 18.7709 	 -74.2739
| 11> C 	 -64.6462 	 19.6962 	 -73.3368
| 12> H 	 -65.1226 	 18.0065 	 -74.4522
| 13> C 	 -62.455 	 17.9001 	 -75.8574
| 14> H 	 -62.5307 	 16.9003 	 -75.4012
| 15> H 	 -61.3978 	 18.0806 	 -76.1248
| 16> C 	 -63.2578 	 17.8191 	 -77.1504
| 17> H 	 -64.2814 	 17.498 	 -77.0138
| 18> H 	 -63.327 	 18.7774 	 -77.5572
| 19> C 	 -62.8455 	 16.8466 	 -78.2551
| 20> H 	 -63.6729 	 16.6167 	 -78.8999
| 21> H 	 -62.0094 	 17.2311 	 -78.7865
| 22> H 	 -62.5413 	 15.9647 	 -77.7192
| 23> S 	 -65.4464 	 19.3289 	 -70.7249
| 24> C 	 -67.1436 	 19.3414 	 -70.3141
| 25> C 	 -67.9479 	 19.5716 	 -71.3917
| 26> C 	 -67.1589 	 19.7593 	 -72.5902
| 27> C 	 -65.7789 	 19.717 	 -72.4011
| 28> H 	 -69.0281 	 19.5457 	 -71.2686
| 29> C 	 -67.773 	 19.9403 	 -73.9796
| 30> H 	 -66.9376 	 19.7324 	 -74.6281
| 31> H 	 -68.0551 	 21.0051 	 -74.0434
| 32> C 	 -69.0405 	 19.0859 	 -74.3351
| 33> H 	 -69.8638 	 19.6341 	 -74.819
| 34> H 	 -69.708 	 18.7581 	 -73.4835
| 35> C 	 -68.6105 	 17.855 	 -75.1361
| 36> H 	 -68.5751 	 18.2315 	 -76.1518
| 37> H 	 -69.2714 	 17.0224 	 -75.1963
| 38> H 	 -67.702 	 17.5933 	 -74.792
| 39> H 	 -61.4608 	 20.2357 	 -74.8249
| 40> H 	 -67.5133 	 19.045 	 -69.4
| 41> *
| 42>
| 43>                          ****END OF INPUT****

CARTESIAN COORDINATES (ANGSTROEM)
---------------------------------
  S    -63.299700   20.790600  -73.155500
  C    -62.393000   19.995200  -74.489800
  C    -63.050600   18.834000  -74.824000
  C    -64.373000   18.770900  -74.273900
  C    -64.646200   19.696200  -73.336800
  H    -65.122600   18.006500  -74.452200
  C    -62.455000   17.900100  -75.857400
  H    -62.530700   16.900300  -75.401200
  H    -61.397800   18.080600  -76.124800
  C    -63.257800   17.819100  -77.150400
  H    -64.281400   17.498000  -77.013800
  H    -63.327000   18.777400  -77.557200
  C    -62.845500   16.846600  -78.255100
  H    -63.672900   16.616700  -78.899900
  H    -62.009400   17.231100  -78.786500
  H    -62.541300   15.964700  -77.719200
  S    -65.446400   19.328900  -70.724900
  C    -67.143600   19.341400  -70.314100
  C    -67.947900   19.571600  -71.391700
  C    -67.158900   19.759300  -72.590200
  C    -65.778900   19.717000  -72.401100
  H    -69.028100   19.545700  -71.268600
  C    -67.773000   19.940300  -73.979600
  H    -66.937600   19.732400  -74.628100
  H    -68.055100   21.005100  -74.043400
  C    -69.040500   19.085900  -74.335100
  H    -69.863800   19.634100  -74.819000
  H    -69.708000   18.758100  -73.483500
  C    -68.610500   17.855000  -75.136100
  H    -68.575100   18.231500  -76.151800
  H    -69.271400   17.022400  -75.196300
  H    -67.702000   17.593300  -74.792000
  H    -61.460800   20.235700  -74.824900
  H    -67.513300   19.045000  -69.400000

 Total Charge           Charge          ....    0
 Multiplicity           Mult            ....    1
 Number of Electrons    NEL             ....  134
 Basis Dimension        Dim             ....  322

ORBITAL ENERGIES
----------------

  NO   OCC          E(Eh)            E(eV)
   0   2.0000     -88.963630     -2420.8234
   1   2.0000     -88.963101     -2420.8091
   2   2.0000     -10.330146      -281.0976
   3   2.0000     -10.327637      -281.0293
   4   2.0000     -10.312162      -280.6082
   5   2.0000     -10.311558      -280.5918
   6   2.0000     -10.307684      -280.4863
   7   2.0000     -10.305181      -280.4182
   8   2.0000     -10.297487      -280.2089
   9   2.0000     -10.295237      -280.1476
  10   2.0000     -10.294813      -280.1361
  11   2.0000     -10.293810      -280.1088
  12   2.0000     -10.292442      -280.0716
  13   2.0000     -10.275450      -279.6092
  14   2.0000     -10.271947      -279.5139
  15   2.0000     -10.265724      -279.3446
  16   2.0000      -8.078584      -219.8295
  17   2.0000      -8.077477      -219.7993
  18   2.0000      -6.037153      -164.2793
  19   2.0000      -6.036121      -164.2512
  20   2.0000      -6.033037      -164.1673
  21   2.0000      -6.032015      -164.1395
  22   2.0000      -6.029282      -164.0651
  23   2.0000      -6.028105      -164.0331
  24   2.0000      -1.008370       -27.4392
  25   2.0000      -0.985373       -26.8134
  26   2.0000      -0.915894       -24.9227
  27   2.0000      -0.906111       -24.6565
  28   2.0000      -0.875486       -23.8232
  29   2.0000      -0.851049       -23.1582
  30   2.0000      -0.845429       -23.0053
  31   2.0000      -0.825155       -22.4536
  32   2.0000      -0.784554       -21.3488
  33   2.0000      -0.772357       -21.0169
  34   2.0000      -0.711911       -19.3721
  35   2.0000      -0.706656       -19.2291
  36   2.0000      -0.696779       -18.9603
  37   2.0000      -0.655327       -17.8323
  38   2.0000      -0.651671       -17.7329
  39   2.0000      -0.621720       -16.9179
  40   2.0000      -0.594057       -16.1651
  41   2.0000      -0.574932       -15.6447
  42   2.0000      -0.571345       -15.5471
  43   2.0000      -0.565627       -15.3915
  44   2.0000      -0.536392       -14.5960
  45   2.0000      -0.528613       -14.3843
  46   2.0000      -0.525023       -14.2866
  47   2.0000      -0.517140       -14.0721
  48   2.0000      -0.509225       -13.8567
  49   2.0000      -0.501564       -13.6483
  50   2.0000      -0.497446       -13.5362
  51   2.0000      -0.484820       -13.1926
  52   2.0000      -0.470751       -12.8098
  53   2.0000      -0.466504       -12.6942
  54   2.0000      -0.456076       -12.4105
  55   2.0000      -0.453771       -12.3477
  56   2.0000      -0.447021       -12.1641
  57   2.0000      -0.438088       -11.9210
  58   2.0000      -0.431264       -11.7353
  59   2.0000      -0.429542       -11.6884
  60   2.0000      -0.419270       -11.4089
  61   2.0000      -0.412692       -11.2299
  62   2.0000      -0.399012       -10.8577
  63   2.0000      -0.346602        -9.4315
  64   2.0000      -0.329534        -8.9671
  65   2.0000      -0.327463        -8.9107
  66   2.0000      -0.301685        -8.2093
  67   0.0000       0.039364         1.0711
  68   0.0000       0.061948         1.6857
  69   0.0000       0.115261         3.1364
  70   0.0000       0.118831         3.2336
  71   0.0000       0.129591         3.5263

MULLIKEN ATOMIC CHARGES
-----------------------
   0 S :    0.094831
   1 C :   -0.077016
   2 C :   -0.075196
   3 C :    0.047208
   4 C :   -0.167795
   5 H :    0.011125
   6 C :    0.076773
   7 H :    0.027624
   8 H :    0.029032
   9 C :   -0.095816
  10 H :    0.016324
  11 H :    0.012376
  12 C :   -0.012405
  13 H :    0.037626
  14 H :    0.025232
  15 H :    0.015294
  16 S :    0.105085
  17 C :   -0.058584
  18 C :   -0.023832
  19 C :   -0.064137
  20 C :   -0.143213
  21 H :    0.025216
  22 C :    0.081652
  23 H :    0.021918
  24 H :    0.048234
  25 C :   -0.109137
  26 H :    0.021613
  27 H :    0.024609
  28 C :    0.005822
  29 H :    0.030852
  30 H :    0.022755
  31 H :    0.009562
  32 H :    0.010956
  33 H :    0.025414
Sum of atomic charges:   -0.0000000

LOEWDIN ATOMIC CHARGES
----------------------
   0 S :    0.383434
   1 C :   -0.162010
   2 C :   -0.053402
   3 C :   -0.064264
   4 C :   -0.192601
   5 H :    0.031482
   6 C :   -0.030410
   7 H :    0.033842
   8 H :    0.032875
   9 C :   -0.044223
  10 H :    0.022081
  11 H :    0.013237
  12 C :   -0.053985
  13 H :    0.027839
  14 H :    0.018109
  15 H :    0.022508
  16 S :    0.406555
  17 C :   -0.166499
  18 C :   -0.070989
  19 C :   -0.051088
  20 C :   -0.207911
  21 H :    0.035221
  22 C :   -0.027221
  23 H :    0.028141
  24 H :    0.041061
  25 C :   -0.049679
  26 H :    0.023081
  27 H :    0.025355
  28 C :   -0.051265
  29 H :    0.030262
  30 H :    0.021813
  31 H :    0.006461
  32 H :    0.009207
  33 H :    0.012985

  Mayer bond orders larger than 0.100000
B(  0-S ,  1-C ) :   1.1158 B(  0-S ,  4-C ) :   1.1413 B(  1-C ,  2-C ) :   1.6297
B(  1-C , 32-H ) :   0.9842 B(  2-C ,  3-C ) :   1.2013 B(  2-C ,  6-C ) :   1.0405
B(  3-C ,  4-C ) :   1.6169 B(  3-C ,  5-H ) :   0.9897 B(  4-C , 20-C ) :   1.0043
B(  6-C ,  7-H ) :   0.9212 B(  6-C ,  8-H ) :   0.9481 B(  6-C ,  9-C ) :   1.0670
B(  9-C , 10-H ) :   0.9548 B(  9-C , 11-H ) :   0.9572 B(  9-C , 12-C ) :   1.0815
B( 12-C , 13-H ) :   0.9768 B( 12-C , 14-H ) :   0.9765 B( 12-C , 15-H ) :   0.9730
B( 16-S , 17-C ) :   1.1614 B( 16-S , 20-C ) :   1.1349 B( 17-C , 18-C ) :   1.6231
B( 17-C , 33-H ) :   0.9728 B( 18-C , 19-C ) :   1.2199 B( 18-C , 21-H ) :   0.9914
B( 19-C , 20-C ) :   1.6159 B( 19-C , 22-C ) :   1.0390 B( 22-C , 23-H ) :   0.9438
B( 22-C , 24-H ) :   0.9293 B( 22-C , 25-C ) :   1.0390 B( 25-C , 26-H ) :   0.9624
B( 25-C , 27-H ) :   0.9611 B( 25-C , 28-C ) :   1.0610 B( 28-C , 29-H ) :   0.9764
B( 28-C , 30-H ) :   0.9726 B( 28-C , 31-H ) :   0.9829

Dispersion correction           -0.014101187
FINAL SINGLE POINT ENERGY     -1339.855989928840

DIPOLE MOMENT
-------------
                                X             Y             Z
Electronic contribution:      8.46309      14.01578      26.26894
Nuclear contribution   :     -8.82598     -14.47872     -26.74932
                        -----------------------------------------
Total Dipole Moment    :     -0.36289      -0.46294      -0.48038
                        -----------------------------------------
Magnitude (a.u.)       :      0.75945
Magnitude (Debye)      :      1.93037

Rotational constants in cm-1:     0.017681     0.008943     0.006574
Rotational constants in MHz :   530.058737   268.108700   197.082754

                             ****ORCA TERMINATED NORMALLY****
TOTAL RUN TIME: 0 days 0 hours 0 minutes 21 seconds 581 msec
