                         Program Version 4.2.1 -  RELEASE  -
|  1> ! wB97X-D3 SP def2-SVP
|  2> %pal
|  3> nprocs 24
|  4> end
|  5>
|  6> * xyz 0 1
|  7> S 	 -41.7021 	 20.5793 	 24.324
|  8> C 	 -41.5446 	 18.869 	 24.8257
|  9> C 	 -40.7282 	 18.163 	 24.0483
| 10> C 	 -40.2516 	 18.9725 	 22.9341
| 11> C 	 -40.6848 	 20.2843 	 22.9366
| 12> H 	 -39.7101 	 18.692 	 22.0562
| 13> C 	 -40.3691 	 16.64 	 24.1609
| 14> H 	 -41.2324 	 16.0622 	 24.0106
| 15> H 	 -40.1062 	 16.5518 	 25.2595
| 16> C 	 -39.1994 	 16.0737 	 23.3102
| 17> H 	 -39.1903 	 16.5233 	 22.329
| 18> H 	 -38.1881 	 16.3078 	 23.7481
| 19> C 	 -39.3405 	 14.517 	 23.2067
| 20> H 	 -39.262 	 14.0347 	 24.1436
| 21> H 	 -40.3411 	 14.3017 	 22.818
| 22> H 	 -38.5433 	 14.1181 	 22.5767
| 23> S 	 -41.8274 	 22.3261 	 21.6825
| 24> C 	 -40.9724 	 23.0278 	 20.2305
| 25> C 	 -39.7127 	 22.5779 	 20.1464
| 26> C 	 -39.4985 	 21.4969 	 20.97
| 27> C 	 -40.4939 	 21.3 	 21.8972
| 28> H 	 -39.1693 	 22.9552 	 19.308
| 29> C 	 -38.099 	 20.8202 	 21.0661
| 30> H 	 -37.8369 	 20.7673 	 19.9623
| 31> H 	 -38.0849 	 19.8688 	 21.4703
| 32> C 	 -36.9807 	 21.6164 	 21.6437
| 33> H 	 -36.9968 	 22.6118 	 21.2953
| 34> H 	 -36.0169 	 21.1812 	 21.3691
| 35> C 	 -36.9936 	 21.6897 	 23.1676
| 36> H 	 -37.9181 	 22.0963 	 23.5772
| 37> H 	 -36.1809 	 22.2711 	 23.503
| 38> H 	 -36.8881 	 20.7522 	 23.6353
| 39> H 	 -42.1083 	 18.3607 	 25.6205
| 40> H 	 -41.3386 	 23.773 	 19.5431
| 41> *
| 42>
| 43>                          ****END OF INPUT****

CARTESIAN COORDINATES (ANGSTROEM)
---------------------------------
  S    -41.702100   20.579300   24.324000
  C    -41.544600   18.869000   24.825700
  C    -40.728200   18.163000   24.048300
  C    -40.251600   18.972500   22.934100
  C    -40.684800   20.284300   22.936600
  H    -39.710100   18.692000   22.056200
  C    -40.369100   16.640000   24.160900
  H    -41.232400   16.062200   24.010600
  H    -40.106200   16.551800   25.259500
  C    -39.199400   16.073700   23.310200
  H    -39.190300   16.523300   22.329000
  H    -38.188100   16.307800   23.748100
  C    -39.340500   14.517000   23.206700
  H    -39.262000   14.034700   24.143600
  H    -40.341100   14.301700   22.818000
  H    -38.543300   14.118100   22.576700
  S    -41.827400   22.326100   21.682500
  C    -40.972400   23.027800   20.230500
  C    -39.712700   22.577900   20.146400
  C    -39.498500   21.496900   20.970000
  C    -40.493900   21.300000   21.897200
  H    -39.169300   22.955200   19.308000
  C    -38.099000   20.820200   21.066100
  H    -37.836900   20.767300   19.962300
  H    -38.084900   19.868800   21.470300
  C    -36.980700   21.616400   21.643700
  H    -36.996800   22.611800   21.295300
  H    -36.016900   21.181200   21.369100
  C    -36.993600   21.689700   23.167600
  H    -37.918100   22.096300   23.577200
  H    -36.180900   22.271100   23.503000
  H    -36.888100   20.752200   23.635300
  H    -42.108300   18.360700   25.620500
  H    -41.338600   23.773000   19.543100

 Total Charge           Charge          ....    0
 Multiplicity           Mult            ....    1
 Number of Electrons    NEL             ....  134
 Basis Dimension        Dim             ....  322

ORBITAL ENERGIES
----------------

  NO   OCC          E(Eh)            E(eV)
   0   2.0000     -88.966161     -2420.8923
   1   2.0000     -88.965453     -2420.8731
   2   2.0000     -10.328830      -281.0618
   3   2.0000     -10.323682      -280.9217
   4   2.0000     -10.316224      -280.7187
   5   2.0000     -10.311339      -280.5858
   6   2.0000     -10.302964      -280.3579
   7   2.0000     -10.299845      -280.2730
   8   2.0000     -10.299184      -280.2550
   9   2.0000     -10.296016      -280.1688
  10   2.0000     -10.290212      -280.0109
  11   2.0000     -10.287620      -279.9404
  12   2.0000     -10.286826      -279.9188
  13   2.0000     -10.280790      -279.7545
  14   2.0000     -10.275925      -279.6221
  15   2.0000     -10.258591      -279.1505
  16   2.0000      -8.081084      -219.8975
  17   2.0000      -8.079727      -219.8606
  18   2.0000      -6.039534      -164.3441
  19   2.0000      -6.038490      -164.3157
  20   2.0000      -6.035713      -164.2401
  21   2.0000      -6.034416      -164.2048
  22   2.0000      -6.031703      -164.1310
  23   2.0000      -6.030136      -164.0883
  24   2.0000      -1.014341       -27.6016
  25   2.0000      -0.986089       -26.8328
  26   2.0000      -0.912900       -24.8413
  27   2.0000      -0.906773       -24.6745
  28   2.0000      -0.879940       -23.9444
  29   2.0000      -0.848893       -23.0995
  30   2.0000      -0.842492       -22.9254
  31   2.0000      -0.817645       -22.2492
  32   2.0000      -0.782684       -21.2979
  33   2.0000      -0.777366       -21.1532
  34   2.0000      -0.714595       -19.4451
  35   2.0000      -0.696194       -18.9444
  36   2.0000      -0.694208       -18.8904
  37   2.0000      -0.665904       -18.1202
  38   2.0000      -0.638233       -17.3672
  39   2.0000      -0.618750       -16.8370
  40   2.0000      -0.601088       -16.3564
  41   2.0000      -0.571973       -15.5642
  42   2.0000      -0.565121       -15.3777
  43   2.0000      -0.551280       -15.0011
  44   2.0000      -0.540189       -14.6993
  45   2.0000      -0.524545       -14.2736
  46   2.0000      -0.516152       -14.0452
  47   2.0000      -0.510502       -13.8915
  48   2.0000      -0.500790       -13.6272
  49   2.0000      -0.499028       -13.5792
  50   2.0000      -0.494103       -13.4452
  51   2.0000      -0.484788       -13.1917
  52   2.0000      -0.471097       -12.8192
  53   2.0000      -0.468355       -12.7446
  54   2.0000      -0.456976       -12.4349
  55   2.0000      -0.447215       -12.1693
  56   2.0000      -0.446899       -12.1607
  57   2.0000      -0.441108       -12.0031
  58   2.0000      -0.433564       -11.7979
  59   2.0000      -0.428133       -11.6501
  60   2.0000      -0.423758       -11.5310
  61   2.0000      -0.415359       -11.3025
  62   2.0000      -0.403623       -10.9832
  63   2.0000      -0.362873        -9.8743
  64   2.0000      -0.335102        -9.1186
  65   2.0000      -0.330110        -8.9827
  66   2.0000      -0.286300        -7.7906
  67   0.0000       0.025980         0.7070
  68   0.0000       0.077035         2.0962
  69   0.0000       0.098790         2.6882
  70   0.0000       0.123272         3.3544
  71   0.0000       0.140069         3.8115

MULLIKEN ATOMIC CHARGES
-----------------------
   0 S :    0.092603
   1 C :   -0.142130
   2 C :   -0.040839
   3 C :   -0.019261
   4 C :   -0.116566
   5 H :    0.009904
   6 C :    0.052062
   7 H :    0.029064
   8 H :    0.044446
   9 C :   -0.094002
  10 H :    0.036269
  11 H :    0.041171
  12 C :   -0.043443
  13 H :    0.026337
  14 H :    0.033761
  15 H :    0.038356
  16 S :    0.094988
  17 C :   -0.095075
  18 C :   -0.020407
  19 C :   -0.055977
  20 C :   -0.109684
  21 H :    0.017853
  22 C :    0.075621
  23 H :    0.023414
  24 H :   -0.009176
  25 C :   -0.030435
  26 H :    0.009494
  27 H :    0.023228
  28 C :   -0.022938
  29 H :    0.033251
  30 H :    0.017293
  31 H :    0.009381
  32 H :    0.045135
  33 H :    0.046300
Sum of atomic charges:    0.0000000

LOEWDIN ATOMIC CHARGES
----------------------
   0 S :    0.376457
   1 C :   -0.190346
   2 C :   -0.059562
   3 C :   -0.073407
   4 C :   -0.184305
   5 H :    0.023386
   6 C :   -0.029209
   7 H :    0.023166
   8 H :    0.042874
   9 C :   -0.040413
  10 H :    0.019565
  11 H :    0.030224
  12 C :   -0.058275
  13 H :    0.019300
  14 H :    0.025689
  15 H :    0.028576
  16 S :    0.396949
  17 C :   -0.154569
  18 C :   -0.066797
  19 C :   -0.064623
  20 C :   -0.204626
  21 H :    0.036373
  22 C :   -0.023212
  23 H :    0.037952
  24 H :    0.012562
  25 C :   -0.034194
  26 H :    0.017340
  27 H :    0.026382
  28 C :   -0.058642
  29 H :    0.027146
  30 H :    0.019538
  31 H :    0.016401
  32 H :    0.034635
  33 H :    0.027664

  Mayer bond orders larger than 0.100000
B(  0-S ,  1-C ) :   1.0983 B(  0-S ,  4-C ) :   1.1285 B(  1-C ,  2-C ) :   1.7036
B(  1-C , 32-H ) :   0.9650 B(  2-C ,  3-C ) :   1.1882 B(  2-C ,  6-C ) :   0.9804
B(  3-C ,  4-C ) :   1.6327 B(  3-C ,  5-H ) :   0.9857 B(  4-C , 20-C ) :   1.0344
B(  6-C ,  7-H ) :   0.9508 B(  6-C ,  8-H ) :   0.9418 B(  6-C ,  9-C ) :   1.0636
B(  9-C , 10-H ) :   0.9547 B(  9-C , 11-H ) :   0.9566 B(  9-C , 12-C ) :   1.0811
B( 12-C , 13-H ) :   0.9772 B( 12-C , 14-H ) :   0.9777 B( 12-C , 15-H ) :   0.9744
B( 16-S , 17-C ) :   1.1260 B( 16-S , 20-C ) :   1.1449 B( 17-C , 18-C ) :   1.6544
B( 17-C , 33-H ) :   0.9665 B( 18-C , 19-C ) :   1.2261 B( 18-C , 21-H ) :   0.9849
B( 19-C , 20-C ) :   1.5985 B( 19-C , 22-C ) :   1.0415 B( 22-C , 23-H ) :   0.9257
B( 22-C , 24-H ) :   0.9405 B( 22-C , 25-C ) :   1.0901 B( 25-C , 26-H ) :   0.9488
B( 25-C , 27-H ) :   0.9483 B( 25-C , 28-C ) :   1.0886 B( 28-C , 29-H ) :   0.9748
B( 28-C , 30-H ) :   0.9716 B( 28-C , 31-H ) :   0.9722

Dispersion correction           -0.014380645
FINAL SINGLE POINT ENERGY     -1339.860204986288

DIPOLE MOMENT
-------------
                                X             Y             Z
Electronic contribution:    -21.28860      19.02671       0.45148
Nuclear contribution   :     21.74642     -19.49306      -0.76267
                        -----------------------------------------
Total Dipole Moment    :      0.45782      -0.46635      -0.31119
                        -----------------------------------------
Magnitude (a.u.)       :      0.72383
Magnitude (Debye)      :      1.83982

Rotational constants in cm-1:     0.018659     0.008821     0.007161
Rotational constants in MHz :   559.386451   264.450672   214.671316

                             ****ORCA TERMINATED NORMALLY****
TOTAL RUN TIME: 0 days 0 hours 0 minutes 22 seconds 55 msec
