                         Program Version 4.2.1 -  RELEASE  -
|  1> ! wB97X-D3 SP def2-SVP
|  2> %pal
|  3> nprocs 24
|  4> end
|  5>
|  6> * xyz 0 1
|  7> S 	 -120.38 	 52.4485 	 -31.0353
|  8> C 	 -120.027 	 51.267 	 -32.3266
|  9> C 	 -119.303 	 51.792 	 -33.3379
| 10> C 	 -118.884 	 53.0993 	 -33.0054
| 11> C 	 -119.253 	 53.5865 	 -31.7549
| 12> H 	 -118.419 	 53.7665 	 -33.7741
| 13> C 	 -118.83 	 51.0398 	 -34.529
| 14> H 	 -119.637 	 50.2824 	 -34.7112
| 15> H 	 -117.893 	 50.5665 	 -34.2903
| 16> C 	 -118.686 	 51.9135 	 -35.7626
| 17> H 	 -119.511 	 52.5885 	 -35.726
| 18> H 	 -117.74 	 52.5215 	 -35.6046
| 19> C 	 -118.499 	 51.0624 	 -37.033
| 20> H 	 -118.108 	 51.6316 	 -37.8023
| 21> H 	 -117.755 	 50.2789 	 -36.8737
| 22> H 	 -119.407 	 50.5636 	 -37.3358
| 23> S 	 -117.358 	 55.5152 	 -31.7245
| 24> C 	 -117.657 	 57.073 	 -31.0331
| 25> C 	 -118.814 	 57.011 	 -30.3048
| 26> C 	 -119.51 	 55.7683 	 -30.415
| 27> C 	 -118.921 	 54.8664 	 -31.2173
| 28> H 	 -119.198 	 57.8618 	 -29.6553
| 29> C 	 -120.841 	 55.5987 	 -29.7144
| 30> H 	 -120.509 	 55.1589 	 -28.796
| 31> H 	 -121.349 	 54.7615 	 -30.1962
| 32> C 	 -121.803 	 56.8916 	 -29.6224
| 33> H 	 -122.053 	 57.1788 	 -30.588
| 34> H 	 -121.25 	 57.687 	 -29.2604
| 35> C 	 -122.961 	 56.8931 	 -28.7155
| 36> H 	 -123.443 	 57.8656 	 -28.6114
| 37> H 	 -122.584 	 56.6166 	 -27.7109
| 38> H 	 -123.69 	 56.1404 	 -28.9906
| 39> H 	 -120.382 	 50.2349 	 -32.2653
| 40> H 	 -117.022 	 57.8932 	 -31.0752
| 41> *
| 42>
| 43>                          ****END OF INPUT****

CARTESIAN COORDINATES (ANGSTROEM)
---------------------------------
  S    -120.380000   52.448500  -31.035300
  C    -120.027000   51.267000  -32.326600
  C    -119.303000   51.792000  -33.337900
  C    -118.884000   53.099300  -33.005400
  C    -119.253000   53.586500  -31.754900
  H    -118.419000   53.766500  -33.774100
  C    -118.830000   51.039800  -34.529000
  H    -119.637000   50.282400  -34.711200
  H    -117.893000   50.566500  -34.290300
  C    -118.686000   51.913500  -35.762600
  H    -119.511000   52.588500  -35.726000
  H    -117.740000   52.521500  -35.604600
  C    -118.499000   51.062400  -37.033000
  H    -118.108000   51.631600  -37.802300
  H    -117.755000   50.278900  -36.873700
  H    -119.407000   50.563600  -37.335800
  S    -117.358000   55.515200  -31.724500
  C    -117.657000   57.073000  -31.033100
  C    -118.814000   57.011000  -30.304800
  C    -119.510000   55.768300  -30.415000
  C    -118.921000   54.866400  -31.217300
  H    -119.198000   57.861800  -29.655300
  C    -120.841000   55.598700  -29.714400
  H    -120.509000   55.158900  -28.796000
  H    -121.349000   54.761500  -30.196200
  C    -121.803000   56.891600  -29.622400
  H    -122.053000   57.178800  -30.588000
  H    -121.250000   57.687000  -29.260400
  C    -122.961000   56.893100  -28.715500
  H    -123.443000   57.865600  -28.611400
  H    -122.584000   56.616600  -27.710900
  H    -123.690000   56.140400  -28.990600
  H    -120.382000   50.234900  -32.265300
  H    -117.022000   57.893200  -31.075200

 Total Charge           Charge          ....    0
 Multiplicity           Mult            ....    1
 Number of Electrons    NEL             ....  134
 Basis Dimension        Dim             ....  322

ORBITAL ENERGIES
----------------

  NO   OCC          E(Eh)            E(eV)
   0   2.0000     -88.966785     -2420.9093
   1   2.0000     -88.959444     -2420.7095
   2   2.0000     -10.331485      -281.1340
   3   2.0000     -10.321507      -280.8625
   4   2.0000     -10.312397      -280.6146
   5   2.0000     -10.311547      -280.5914
   6   2.0000     -10.296768      -280.1893
   7   2.0000     -10.294057      -280.1155
   8   2.0000     -10.293229      -280.0930
   9   2.0000     -10.292578      -280.0753
  10   2.0000     -10.292305      -280.0679
  11   2.0000     -10.289793      -279.9995
  12   2.0000     -10.288684      -279.9693
  13   2.0000     -10.277600      -279.6677
  14   2.0000     -10.275653      -279.6147
  15   2.0000     -10.274342      -279.5791
  16   2.0000      -8.080613      -219.8847
  17   2.0000      -8.074481      -219.7178
  18   2.0000      -6.039244      -164.3362
  19   2.0000      -6.035366      -164.2307
  20   2.0000      -6.033176      -164.1711
  21   2.0000      -6.031195      -164.1172
  22   2.0000      -6.028895      -164.0546
  23   2.0000      -6.025062      -163.9503
  24   2.0000      -1.011459       -27.5232
  25   2.0000      -0.988059       -26.8865
  26   2.0000      -0.919232       -25.0136
  27   2.0000      -0.908626       -24.7250
  28   2.0000      -0.876818       -23.8594
  29   2.0000      -0.859528       -23.3889
  30   2.0000      -0.847060       -23.0497
  31   2.0000      -0.810311       -22.0497
  32   2.0000      -0.784792       -21.3553
  33   2.0000      -0.776020       -21.1166
  34   2.0000      -0.717415       -19.5219
  35   2.0000      -0.710898       -19.3445
  36   2.0000      -0.690475       -18.7888
  37   2.0000      -0.667565       -18.1654
  38   2.0000      -0.626825       -17.0568
  39   2.0000      -0.617355       -16.7991
  40   2.0000      -0.597839       -16.2680
  41   2.0000      -0.581416       -15.8211
  42   2.0000      -0.568064       -15.4578
  43   2.0000      -0.563414       -15.3313
  44   2.0000      -0.535028       -14.5589
  45   2.0000      -0.526682       -14.3318
  46   2.0000      -0.523960       -14.2577
  47   2.0000      -0.513749       -13.9798
  48   2.0000      -0.508577       -13.8391
  49   2.0000      -0.499359       -13.5882
  50   2.0000      -0.489931       -13.3317
  51   2.0000      -0.484063       -13.1720
  52   2.0000      -0.471819       -12.8389
  53   2.0000      -0.467633       -12.7249
  54   2.0000      -0.461435       -12.5563
  55   2.0000      -0.452326       -12.3084
  56   2.0000      -0.451287       -12.2801
  57   2.0000      -0.434867       -11.8333
  58   2.0000      -0.429254       -11.6806
  59   2.0000      -0.426253       -11.5989
  60   2.0000      -0.421170       -11.4606
  61   2.0000      -0.411063       -11.1856
  62   2.0000      -0.409647       -11.1471
  63   2.0000      -0.360790        -9.8176
  64   2.0000      -0.331926        -9.0322
  65   2.0000      -0.325827        -8.8662
  66   2.0000      -0.284341        -7.7373
  67   0.0000       0.022264         0.6058
  68   0.0000       0.084777         2.3069
  69   0.0000       0.106181         2.8893
  70   0.0000       0.121514         3.3066
  71   0.0000       0.134025         3.6470

MULLIKEN ATOMIC CHARGES
-----------------------
   0 S :    0.091429
   1 C :   -0.150039
   2 C :   -0.055754
   3 C :   -0.055416
   4 C :   -0.109507
   5 H :    0.039063
   6 C :    0.073751
   7 H :    0.025724
   8 H :    0.046552
   9 C :   -0.133755
  10 H :    0.032314
  11 H :    0.043414
  12 C :    0.020841
  13 H :    0.017215
  14 H :    0.020302
  15 H :    0.032168
  16 S :    0.089974
  17 C :   -0.055568
  18 C :   -0.061548
  19 C :   -0.079217
  20 C :   -0.124208
  21 H :    0.041650
  22 C :    0.072642
  23 H :    0.030813
  24 H :    0.020077
  25 C :   -0.022276
  26 H :    0.016276
  27 H :    0.002625
  28 C :   -0.039553
  29 H :    0.038755
  30 H :    0.022820
  31 H :    0.029174
  32 H :    0.047278
  33 H :    0.031984
Sum of atomic charges:    0.0000000

LOEWDIN ATOMIC CHARGES
----------------------
   0 S :    0.389446
   1 C :   -0.181416
   2 C :   -0.072326
   3 C :   -0.078259
   4 C :   -0.184953
   5 H :    0.033415
   6 C :   -0.029195
   7 H :    0.033985
   8 H :    0.033442
   9 C :   -0.041430
  10 H :    0.020491
  11 H :    0.031034
  12 C :   -0.054105
  13 H :    0.017221
  14 H :    0.028695
  15 H :    0.025375
  16 S :    0.407515
  17 C :   -0.176311
  18 C :   -0.079550
  19 C :   -0.065673
  20 C :   -0.187949
  21 H :    0.040715
  22 C :   -0.029768
  23 H :    0.032935
  24 H :    0.017498
  25 C :   -0.030922
  26 H :    0.018503
  27 H :    0.014132
  28 C :   -0.060049
  29 H :    0.030548
  30 H :    0.028099
  31 H :    0.021642
  32 H :    0.028758
  33 H :    0.018456

  Mayer bond orders larger than 0.100000
B(  0-S ,  1-C ) :   1.1219 B(  0-S ,  4-C ) :   1.1310 B(  1-C ,  2-C ) :   1.6257
B(  1-C , 32-H ) :   0.9672 B(  2-C ,  3-C ) :   1.2466 B(  2-C ,  6-C ) :   1.0155
B(  3-C ,  4-C ) :   1.5447 B(  3-C ,  5-H ) :   0.9760 B(  4-C , 20-C ) :   1.0910
B(  6-C ,  7-H ) :   0.9417 B(  6-C ,  8-H ) :   0.9301 B(  6-C ,  9-C ) :   1.0733
B(  9-C , 10-H ) :   0.9668 B(  9-C , 11-H ) :   0.9419 B(  9-C , 12-C ) :   1.0830
B( 12-C , 13-H ) :   0.9718 B( 12-C , 14-H ) :   0.9685 B( 12-C , 15-H ) :   0.9747
B( 16-S , 17-C ) :   1.1515 B( 16-S , 20-C ) :   1.1168 B( 17-C , 18-C ) :   1.6012
B( 17-C , 33-H ) :   0.9784 B( 18-C , 19-C ) :   1.2446 B( 18-C , 21-H ) :   0.9761
B( 19-C , 20-C ) :   1.6118 B( 19-C , 22-C ) :   1.0238 B( 22-C , 23-H ) :   0.9289
B( 22-C , 24-H ) :   0.9311 B( 22-C , 25-C ) :   1.0459 B( 25-C , 26-H ) :   0.9545
B( 25-C , 27-H ) :   0.9492 B( 25-C , 28-C ) :   1.0991 B( 28-C , 29-H ) :   0.9710
B( 28-C , 30-H ) :   0.9718 B( 28-C , 31-H ) :   0.9746

Dispersion correction           -0.013258900
FINAL SINGLE POINT ENERGY     -1339.867942114220

DIPOLE MOMENT
-------------
                                X             Y             Z
Electronic contribution:      9.60452       0.12651       8.18778
Nuclear contribution   :     -9.74769      -0.03309      -8.41065
                        -----------------------------------------
Total Dipole Moment    :     -0.14317       0.09342      -0.22287
                        -----------------------------------------
Magnitude (a.u.)       :      0.28088
Magnitude (Debye)      :      0.71394

Rotational constants in cm-1:     0.022037     0.007236     0.006015
Rotational constants in MHz :   660.643823   216.940170   180.325021

                             ****ORCA TERMINATED NORMALLY****
TOTAL RUN TIME: 0 days 0 hours 0 minutes 21 seconds 41 msec
