                         Program Version 4.2.1 -  RELEASE  -
|  1> ! wB97X-D3 SP def2-SVP
|  2> %pal
|  3> nprocs 24
|  4> end
|  5>
|  6> * xyz 0 1
|  7> S 	 -123.417 	 55.0409 	 -33.3454
|  8> C 	 -122.287 	 54.4751 	 -32.158
|  9> C 	 -121.156 	 53.9665 	 -32.726
| 10> C 	 -121.171 	 54.1126 	 -34.1378
| 11> C 	 -122.285 	 54.767 	 -34.6217
| 12> H 	 -120.335 	 53.7622 	 -34.6356
| 13> C 	 -119.986 	 53.44 	 -31.8655
| 14> H 	 -120.429 	 53.3535 	 -30.9268
| 15> H 	 -119.169 	 54.1807 	 -31.9775
| 16> C 	 -119.333 	 52.0573 	 -32.2603
| 17> H 	 -118.667 	 52.0908 	 -33.1324
| 18> H 	 -118.588 	 51.8444 	 -31.4628
| 19> C 	 -120.321 	 50.9091 	 -32.4383
| 20> H 	 -120.639 	 50.4708 	 -31.4521
| 21> H 	 -121.235 	 51.1728 	 -32.9648
| 22> H 	 -119.693 	 50.2181 	 -33.1383
| 23> S 	 -123.469 	 56.7645 	 -36.082
| 24> C 	 -123.021 	 56.9374 	 -37.7537
| 25> C 	 -122.452 	 55.7562 	 -38.1826
| 26> C 	 -122.152 	 54.7719 	 -37.205
| 27> C 	 -122.565 	 55.2632 	 -35.9507
| 28> H 	 -122.283 	 55.5602 	 -39.2666
| 29> C 	 -121.564 	 53.4134 	 -37.5189
| 30> H 	 -121.549 	 52.7789 	 -36.563
| 31> H 	 -120.52 	 53.6294 	 -37.8156
| 32> C 	 -122.459 	 52.6819 	 -38.5234
| 33> H 	 -122.79 	 53.2737 	 -39.4154
| 34> H 	 -123.366 	 52.3858 	 -38.0168
| 35> C 	 -121.774 	 51.4209 	 -38.9193
| 36> H 	 -122.407 	 50.7435 	 -39.5129
| 37> H 	 -121.497 	 50.8393 	 -38.0374
| 38> H 	 -120.865 	 51.5702 	 -39.4567
| 39> H 	 -122.506 	 54.4589 	 -31.0755
| 40> H 	 -123.479 	 57.639 	 -38.3685
| 41> *
| 42>
| 43>                          ****END OF INPUT****

CARTESIAN COORDINATES (ANGSTROEM)
---------------------------------
  S    -123.417000   55.040900  -33.345400
  C    -122.287000   54.475100  -32.158000
  C    -121.156000   53.966500  -32.726000
  C    -121.171000   54.112600  -34.137800
  C    -122.285000   54.767000  -34.621700
  H    -120.335000   53.762200  -34.635600
  C    -119.986000   53.440000  -31.865500
  H    -120.429000   53.353500  -30.926800
  H    -119.169000   54.180700  -31.977500
  C    -119.333000   52.057300  -32.260300
  H    -118.667000   52.090800  -33.132400
  H    -118.588000   51.844400  -31.462800
  C    -120.321000   50.909100  -32.438300
  H    -120.639000   50.470800  -31.452100
  H    -121.235000   51.172800  -32.964800
  H    -119.693000   50.218100  -33.138300
  S    -123.469000   56.764500  -36.082000
  C    -123.021000   56.937400  -37.753700
  C    -122.452000   55.756200  -38.182600
  C    -122.152000   54.771900  -37.205000
  C    -122.565000   55.263200  -35.950700
  H    -122.283000   55.560200  -39.266600
  C    -121.564000   53.413400  -37.518900
  H    -121.549000   52.778900  -36.563000
  H    -120.520000   53.629400  -37.815600
  C    -122.459000   52.681900  -38.523400
  H    -122.790000   53.273700  -39.415400
  H    -123.366000   52.385800  -38.016800
  C    -121.774000   51.420900  -38.919300
  H    -122.407000   50.743500  -39.512900
  H    -121.497000   50.839300  -38.037400
  H    -120.865000   51.570200  -39.456700
  H    -122.506000   54.458900  -31.075500
  H    -123.479000   57.639000  -38.368500

 Total Charge           Charge          ....    0
 Multiplicity           Mult            ....    1
 Number of Electrons    NEL             ....  134
 Basis Dimension        Dim             ....  322

ORBITAL ENERGIES
----------------

  NO   OCC          E(Eh)            E(eV)
   0   2.0000     -88.963323     -2420.8151
   1   2.0000     -88.963192     -2420.8115
   2   2.0000     -10.328183      -281.0441
   3   2.0000     -10.326755      -281.0053
   4   2.0000     -10.311059      -280.5782
   5   2.0000     -10.309280      -280.5298
   6   2.0000     -10.302604      -280.3481
   7   2.0000     -10.302251      -280.3385
   8   2.0000     -10.295201      -280.1467
   9   2.0000     -10.294774      -280.1350
  10   2.0000     -10.294666      -280.1321
  11   2.0000     -10.293195      -280.0921
  12   2.0000     -10.288448      -279.9629
  13   2.0000     -10.287334      -279.9326
  14   2.0000     -10.286449      -279.9085
  15   2.0000     -10.273407      -279.5536
  16   2.0000      -8.079061      -219.8424
  17   2.0000      -8.078239      -219.8201
  18   2.0000      -6.037602      -164.2915
  19   2.0000      -6.036711      -164.2672
  20   2.0000      -6.033452      -164.1786
  21   2.0000      -6.032812      -164.1612
  22   2.0000      -6.029720      -164.0770
  23   2.0000      -6.028899      -164.0547
  24   2.0000      -1.010925       -27.5087
  25   2.0000      -0.986757       -26.8510
  26   2.0000      -0.918007       -24.9803
  27   2.0000      -0.907178       -24.6856
  28   2.0000      -0.869352       -23.6563
  29   2.0000      -0.856953       -23.3189
  30   2.0000      -0.844041       -22.9675
  31   2.0000      -0.814765       -22.1709
  32   2.0000      -0.782206       -21.2849
  33   2.0000      -0.770374       -20.9629
  34   2.0000      -0.709179       -19.2977
  35   2.0000      -0.702332       -19.1114
  36   2.0000      -0.691338       -18.8123
  37   2.0000      -0.657191       -17.8831
  38   2.0000      -0.634335       -17.2611
  39   2.0000      -0.629409       -17.1271
  40   2.0000      -0.601932       -16.3794
  41   2.0000      -0.567484       -15.4420
  42   2.0000      -0.557418       -15.1681
  43   2.0000      -0.553649       -15.0656
  44   2.0000      -0.534075       -14.5329
  45   2.0000      -0.533174       -14.5084
  46   2.0000      -0.521507       -14.1909
  47   2.0000      -0.518777       -14.1166
  48   2.0000      -0.503642       -13.7048
  49   2.0000      -0.500717       -13.6252
  50   2.0000      -0.490783       -13.3549
  51   2.0000      -0.479836       -13.0570
  52   2.0000      -0.466382       -12.6909
  53   2.0000      -0.464835       -12.6488
  54   2.0000      -0.457857       -12.4589
  55   2.0000      -0.452306       -12.3079
  56   2.0000      -0.449944       -12.2436
  57   2.0000      -0.440027       -11.9737
  58   2.0000      -0.433385       -11.7930
  59   2.0000      -0.422309       -11.4916
  60   2.0000      -0.415735       -11.3127
  61   2.0000      -0.413777       -11.2594
  62   2.0000      -0.411883       -11.2079
  63   2.0000      -0.355596        -9.6763
  64   2.0000      -0.332898        -9.0586
  65   2.0000      -0.326986        -8.8977
  66   2.0000      -0.282584        -7.6895
  67   0.0000       0.022148         0.6027
  68   0.0000       0.079372         2.1598
  69   0.0000       0.108786         2.9602
  70   0.0000       0.125956         3.4274
  71   0.0000       0.128732         3.5030

MULLIKEN ATOMIC CHARGES
-----------------------
   0 S :    0.102320
   1 C :   -0.148561
   2 C :   -0.127973
   3 C :    0.046016
   4 C :   -0.111242
   5 H :   -0.029798
   6 C :    0.117552
   7 H :    0.004208
   8 H :    0.050389
   9 C :   -0.107994
  10 H :    0.025400
  11 H :    0.034996
  12 C :   -0.085555
  13 H :    0.046903
  14 H :    0.049424
  15 H :    0.045409
  16 S :    0.097940
  17 C :   -0.059198
  18 C :   -0.062399
  19 C :   -0.037868
  20 C :   -0.147330
  21 H :    0.027134
  22 C :    0.035788
  23 H :    0.046710
  24 H :    0.046535
  25 C :   -0.078984
  26 H :    0.041648
  27 H :    0.033053
  28 C :   -0.020540
  29 H :    0.030939
  30 H :    0.017911
  31 H :    0.020853
  32 H :    0.054708
  33 H :    0.041605
Sum of atomic charges:   -0.0000000

LOEWDIN ATOMIC CHARGES
----------------------
   0 S :    0.412784
   1 C :   -0.208829
   2 C :   -0.067711
   3 C :   -0.063114
   4 C :   -0.189290
   5 H :    0.016736
   6 C :   -0.020917
   7 H :    0.020670
   8 H :    0.040334
   9 C :   -0.053571
  10 H :    0.020039
  11 H :    0.030959
  12 C :   -0.077479
  13 H :    0.030955
  14 H :    0.024681
  15 H :    0.040649
  16 S :    0.404017
  17 C :   -0.185580
  18 C :   -0.070319
  19 C :   -0.059331
  20 C :   -0.195016
  21 H :    0.032591
  22 C :   -0.033273
  23 H :    0.042694
  24 H :    0.035602
  25 C :   -0.040815
  26 H :    0.028229
  27 H :    0.030340
  28 C :   -0.065162
  29 H :    0.026259
  30 H :    0.025135
  31 H :    0.018939
  32 H :    0.031771
  33 H :    0.017025

  Mayer bond orders larger than 0.100000
B(  0-S ,  1-C ) :   1.1351 B(  0-S ,  4-C ) :   1.1589 B(  1-C ,  2-C ) :   1.6175
B(  1-C , 32-H ) :   0.9615 B(  2-C ,  3-C ) :   1.2633 B(  2-C ,  6-C ) :   1.0142
B(  3-C ,  4-C ) :   1.5252 B(  3-C ,  5-H ) :   1.0131 B(  4-C , 20-C ) :   1.0667
B(  6-C ,  7-H ) :   0.9375 B(  6-C ,  8-H ) :   0.9391 B(  6-C ,  9-C ) :   1.0673
B(  9-C , 10-H ) :   0.9627 B(  9-C , 11-H ) :   0.9544 B(  9-C , 12-C ) :   1.0613
B( 12-C , 13-H ) :   0.9757 B( 12-C , 14-H ) :   0.9757 B( 12-C , 15-H ) :   0.9778
B( 16-S , 17-C ) :   1.1462 B( 16-S , 20-C ) :   1.1536 B( 17-C , 18-C ) :   1.5890
B( 17-C , 20-C ) :   0.1068 B( 17-C , 33-H ) :   0.9752 B( 18-C , 19-C ) :   1.2667
B( 18-C , 21-H ) :   0.9771 B( 19-C , 20-C ) :   1.5547 B( 19-C , 22-C ) :   1.0297
B( 22-C , 23-H ) :   0.9327 B( 22-C , 24-H ) :   0.9354 B( 22-C , 25-C ) :   1.0579
B( 25-C , 26-H ) :   0.9584 B( 25-C , 27-H ) :   0.9478 B( 25-C , 28-C ) :   1.0943
B( 28-C , 29-H ) :   0.9713 B( 28-C , 30-H ) :   0.9649 B( 28-C , 31-H ) :   0.9747

Dispersion correction           -0.013935197
FINAL SINGLE POINT ENERGY     -1339.874899122892

DIPOLE MOMENT
-------------
                                X             Y             Z
Electronic contribution:    -15.38160      25.33266       3.91181
Nuclear contribution   :     15.79523     -25.84637      -4.09407
                        -----------------------------------------
Total Dipole Moment    :      0.41363      -0.51372      -0.18226
                        -----------------------------------------
Magnitude (a.u.)       :      0.68426
Magnitude (Debye)      :      1.73925

Rotational constants in cm-1:     0.017051     0.009440     0.006642
Rotational constants in MHz :   511.170266   283.011821   199.112907

                             ****ORCA TERMINATED NORMALLY****
TOTAL RUN TIME: 0 days 0 hours 0 minutes 21 seconds 714 msec
