                         Program Version 4.2.1 -  RELEASE  -
|  1> ! wB97X-D3 SP def2-SVP
|  2> %pal
|  3> nprocs 24
|  4> end
|  5>
|  6> * xyz 0 1
|  7> S 	 -118.328 	 59.3327 	 -37.7454
|  8> C 	 -117.852 	 57.9553 	 -36.7509
|  9> C 	 -117.023 	 58.3419 	 -35.702
| 10> C 	 -117.16 	 59.7568 	 -35.4995
| 11> C 	 -117.829 	 60.4276 	 -36.5133
| 12> H 	 -116.783 	 60.314 	 -34.6662
| 13> C 	 -116.304 	 57.3793 	 -34.7965
| 14> H 	 -115.498 	 57.9082 	 -34.3707
| 15> H 	 -115.878 	 56.6335 	 -35.3734
| 16> C 	 -117.226 	 57.0147 	 -33.596
| 17> H 	 -117.464 	 57.9147 	 -33.049
| 18> H 	 -118.166 	 56.6263 	 -34.0431
| 19> C 	 -116.559 	 55.8988 	 -32.69
| 20> H 	 -115.751 	 56.3706 	 -32.0924
| 21> H 	 -117.167 	 55.2935 	 -32.0412
| 22> H 	 -115.946 	 55.2308 	 -33.249
| 23> S 	 -117.519 	 62.5442 	 -38.2718
| 24> C 	 -117.641 	 64.2076 	 -37.558
| 25> C 	 -117.822 	 64.218 	 -36.2055
| 26> C 	 -117.868 	 62.8584 	 -35.7323
| 27> C 	 -117.957 	 61.8716 	 -36.6955
| 28> H 	 -117.766 	 65.1724 	 -35.7276
| 29> C 	 -118.333 	 62.6718 	 -34.29
| 30> H 	 -118.284 	 63.6728 	 -33.7815
| 31> H 	 -117.645 	 62.1603 	 -33.6507
| 32> C 	 -119.821 	 62.2819 	 -34.0963
| 33> H 	 -119.932 	 61.2006 	 -34.3015
| 34> H 	 -120.412 	 62.8518 	 -34.8369
| 35> C 	 -120.262 	 62.5597 	 -32.6316
| 36> H 	 -121.306 	 62.3485 	 -32.6526
| 37> H 	 -120.062 	 63.5757 	 -32.2807
| 38> H 	 -119.738 	 61.9088 	 -31.8809
| 39> H 	 -118.121 	 56.9068 	 -37.0817
| 40> H 	 -117.569 	 65.1677 	 -37.9979
| 41> *
| 42>
| 43>                          ****END OF INPUT****

CARTESIAN COORDINATES (ANGSTROEM)
---------------------------------
  S    -118.328000   59.332700  -37.745400
  C    -117.852000   57.955300  -36.750900
  C    -117.023000   58.341900  -35.702000
  C    -117.160000   59.756800  -35.499500
  C    -117.829000   60.427600  -36.513300
  H    -116.783000   60.314000  -34.666200
  C    -116.304000   57.379300  -34.796500
  H    -115.498000   57.908200  -34.370700
  H    -115.878000   56.633500  -35.373400
  C    -117.226000   57.014700  -33.596000
  H    -117.464000   57.914700  -33.049000
  H    -118.166000   56.626300  -34.043100
  C    -116.559000   55.898800  -32.690000
  H    -115.751000   56.370600  -32.092400
  H    -117.167000   55.293500  -32.041200
  H    -115.946000   55.230800  -33.249000
  S    -117.519000   62.544200  -38.271800
  C    -117.641000   64.207600  -37.558000
  C    -117.822000   64.218000  -36.205500
  C    -117.868000   62.858400  -35.732300
  C    -117.957000   61.871600  -36.695500
  H    -117.766000   65.172400  -35.727600
  C    -118.333000   62.671800  -34.290000
  H    -118.284000   63.672800  -33.781500
  H    -117.645000   62.160300  -33.650700
  C    -119.821000   62.281900  -34.096300
  H    -119.932000   61.200600  -34.301500
  H    -120.412000   62.851800  -34.836900
  C    -120.262000   62.559700  -32.631600
  H    -121.306000   62.348500  -32.652600
  H    -120.062000   63.575700  -32.280700
  H    -119.738000   61.908800  -31.880900
  H    -118.121000   56.906800  -37.081700
  H    -117.569000   65.167700  -37.997900

 Total Charge           Charge          ....    0
 Multiplicity           Mult            ....    1
 Number of Electrons    NEL             ....  134
 Basis Dimension        Dim             ....  322

ORBITAL ENERGIES
----------------

  NO   OCC          E(Eh)            E(eV)
   0   2.0000     -88.967680     -2420.9337
   1   2.0000     -88.964971     -2420.8599
   2   2.0000     -10.328096      -281.0418
   3   2.0000     -10.327803      -281.0338
   4   2.0000     -10.319583      -280.8101
   5   2.0000     -10.315785      -280.7068
   6   2.0000     -10.304800      -280.4079
   7   2.0000     -10.301993      -280.3315
   8   2.0000     -10.296708      -280.1877
   9   2.0000     -10.293853      -280.1100
  10   2.0000     -10.292549      -280.0745
  11   2.0000     -10.288088      -279.9531
  12   2.0000     -10.287437      -279.9354
  13   2.0000     -10.286485      -279.9095
  14   2.0000     -10.280482      -279.7461
  15   2.0000     -10.279216      -279.7117
  16   2.0000      -8.081111      -219.8982
  17   2.0000      -8.080151      -219.8721
  18   2.0000      -6.039947      -164.3553
  19   2.0000      -6.038617      -164.3191
  20   2.0000      -6.035964      -164.2469
  21   2.0000      -6.034711      -164.2128
  22   2.0000      -6.031429      -164.1235
  23   2.0000      -6.030831      -164.1073
  24   2.0000      -1.006567       -27.3901
  25   2.0000      -0.981158       -26.6987
  26   2.0000      -0.914325       -24.8800
  27   2.0000      -0.900709       -24.5095
  28   2.0000      -0.869620       -23.6636
  29   2.0000      -0.847469       -23.0608
  30   2.0000      -0.841863       -22.9082
  31   2.0000      -0.815300       -22.1854
  32   2.0000      -0.784477       -21.3467
  33   2.0000      -0.766119       -20.8472
  34   2.0000      -0.713465       -19.4144
  35   2.0000      -0.704589       -19.1729
  36   2.0000      -0.688018       -18.7219
  37   2.0000      -0.663616       -18.0579
  38   2.0000      -0.639035       -17.3890
  39   2.0000      -0.622076       -16.9275
  40   2.0000      -0.590354       -16.0643
  41   2.0000      -0.573813       -15.6142
  42   2.0000      -0.562003       -15.2929
  43   2.0000      -0.553926       -15.0731
  44   2.0000      -0.527605       -14.3569
  45   2.0000      -0.526303       -14.3214
  46   2.0000      -0.513997       -13.9866
  47   2.0000      -0.509454       -13.8630
  48   2.0000      -0.503863       -13.7108
  49   2.0000      -0.495445       -13.4817
  50   2.0000      -0.487949       -13.2778
  51   2.0000      -0.479675       -13.0526
  52   2.0000      -0.473101       -12.8737
  53   2.0000      -0.462691       -12.5905
  54   2.0000      -0.453562       -12.3420
  55   2.0000      -0.450210       -12.2508
  56   2.0000      -0.447666       -12.1816
  57   2.0000      -0.438211       -11.9243
  58   2.0000      -0.431422       -11.7396
  59   2.0000      -0.430628       -11.7180
  60   2.0000      -0.419981       -11.4283
  61   2.0000      -0.414785       -11.2869
  62   2.0000      -0.407031       -11.0759
  63   2.0000      -0.355690        -9.6788
  64   2.0000      -0.332204        -9.0397
  65   2.0000      -0.328455        -8.9377
  66   2.0000      -0.283834        -7.7235
  67   0.0000       0.022465         0.6113
  68   0.0000       0.069493         1.8910
  69   0.0000       0.097381         2.6499
  70   0.0000       0.122887         3.3439
  71   0.0000       0.125674         3.4198

MULLIKEN ATOMIC CHARGES
-----------------------
   0 S :    0.100515
   1 C :   -0.152076
   2 C :   -0.105102
   3 C :    0.019270
   4 C :   -0.140494
   5 H :   -0.004899
   6 C :    0.127503
   7 H :    0.006786
   8 H :    0.014287
   9 C :   -0.082056
  10 H :    0.035441
  11 H :    0.034755
  12 C :   -0.022879
  13 H :    0.021374
  14 H :    0.040388
  15 H :    0.012169
  16 S :    0.088164
  17 C :   -0.058264
  18 C :   -0.034155
  19 C :   -0.044500
  20 C :   -0.075710
  21 H :    0.023500
  22 C :    0.008239
  23 H :    0.005199
  24 H :    0.013018
  25 C :   -0.063716
  26 H :    0.044236
  27 H :    0.040301
  28 C :   -0.058036
  29 H :    0.036284
  30 H :    0.030748
  31 H :    0.036124
  32 H :    0.071774
  33 H :    0.031814
Sum of atomic charges:   -0.0000000

LOEWDIN ATOMIC CHARGES
----------------------
   0 S :    0.405471
   1 C :   -0.199081
   2 C :   -0.054552
   3 C :   -0.060196
   4 C :   -0.200498
   5 H :    0.025551
   6 C :   -0.021014
   7 H :    0.026656
   8 H :    0.022431
   9 C :   -0.026723
  10 H :    0.024640
  11 H :    0.025294
  12 C :   -0.071469
  13 H :    0.028894
  14 H :    0.024065
  15 H :    0.020062
  16 S :    0.368896
  17 C :   -0.156822
  18 C :   -0.064460
  19 C :   -0.060846
  20 C :   -0.187481
  21 H :    0.035997
  22 C :   -0.044158
  23 H :    0.029271
  24 H :    0.017202
  25 C :   -0.034443
  26 H :    0.028243
  27 H :    0.029004
  28 C :   -0.066441
  29 H :    0.024691
  30 H :    0.021730
  31 H :    0.029925
  32 H :    0.036715
  33 H :    0.023442

  Mayer bond orders larger than 0.100000
B(  0-S ,  1-C ) :   1.1449 B(  0-S ,  4-C ) :   1.1496 B(  1-C ,  2-C ) :   1.5886
B(  1-C , 32-H ) :   0.9651 B(  2-C ,  3-C ) :   1.2386 B(  2-C ,  6-C ) :   1.0384
B(  3-C ,  4-C ) :   1.5697 B(  3-C ,  5-H ) :   0.9926 B(  4-C , 20-C ) :   1.0515
B(  6-C ,  7-H ) :   0.9289 B(  6-C ,  8-H ) :   0.9387 B(  6-C ,  9-C ) :   1.0495
B(  9-C , 10-H ) :   0.9609 B(  9-C , 11-H ) :   0.9651 B(  9-C , 12-C ) :   1.0596
B( 12-C , 13-H ) :   0.9732 B( 12-C , 14-H ) :   0.9795 B( 12-C , 15-H ) :   0.9756
B( 16-S , 17-C ) :   1.1237 B( 16-S , 20-C ) :   1.1092 B( 17-C , 18-C ) :   1.6803
B( 17-C , 33-H ) :   0.9619 B( 18-C , 19-C ) :   1.1951 B( 18-C , 21-H ) :   0.9905
B( 19-C , 20-C ) :   1.6247 B( 19-C , 22-C ) :   1.0519 B( 22-C , 23-H ) :   0.9444
B( 22-C , 24-H ) :   0.9321 B( 22-C , 25-C ) :   1.0498 B( 25-C , 26-H ) :   0.9505
B( 25-C , 27-H ) :   0.9576 B( 25-C , 28-C ) :   1.0768 B( 28-C , 29-H ) :   0.9751
B( 28-C , 30-H ) :   0.9764 B( 28-C , 31-H ) :   0.9748

Dispersion correction           -0.014141225
FINAL SINGLE POINT ENERGY     -1339.853660855485

DIPOLE MOMENT
-------------
                                X             Y             Z
Electronic contribution:      1.97482       8.96573     -29.38806
Nuclear contribution   :     -1.77968      -9.01242      30.09487
                        -----------------------------------------
Total Dipole Moment    :      0.19514      -0.04669       0.70681
                        -----------------------------------------
Magnitude (a.u.)       :      0.73474
Magnitude (Debye)      :      1.86756

Rotational constants in cm-1:     0.018339     0.008657     0.006580
Rotational constants in MHz :   549.776354   259.519201   197.259370

                             ****ORCA TERMINATED NORMALLY****
TOTAL RUN TIME: 0 days 0 hours 0 minutes 21 seconds 855 msec
