                         Program Version 4.2.1 -  RELEASE  -
|  1> ! wB97X-D3 SP def2-SVP
|  2> %pal
|  3> nprocs 24
|  4> end
|  5>
|  6> * xyz 0 1
|  7> S 	 -52.4422 	 19.9654 	 -100.857
|  8> C 	 -54.0729 	 19.3169 	 -100.909
|  9> C 	 -54.6147 	 19.3346 	 -102.199
| 10> C 	 -53.768 	 20.0846 	 -103.092
| 11> C 	 -52.553 	 20.43 	 -102.493
| 12> H 	 -53.9322 	 20.2299 	 -104.078
| 13> C 	 -56.0275 	 18.824 	 -102.484
| 14> H 	 -56.2779 	 18.1183 	 -101.689
| 15> H 	 -55.9897 	 18.2063 	 -103.411
| 16> C 	 -57.0896 	 19.8027 	 -102.62
| 17> H 	 -57.0768 	 20.3067 	 -103.52
| 18> H 	 -57.8911 	 19.1125 	 -102.651
| 19> C 	 -57.0762 	 20.8934 	 -101.545
| 20> H 	 -57.9715 	 21.5858 	 -101.563
| 21> H 	 -57.1112 	 20.4482 	 -100.486
| 22> H 	 -56.1562 	 21.4727 	 -101.562
| 23> S 	 -50.7286 	 22.5606 	 -102.72
| 24> C 	 -49.5192 	 22.4883 	 -103.991
| 25> C 	 -49.7125 	 21.2798 	 -104.703
| 26> C 	 -50.7662 	 20.4868 	 -104.267
| 27> C 	 -51.4551 	 21.019 	 -103.229
| 28> H 	 -48.9963 	 21.0725 	 -105.474
| 29> C 	 -50.9363 	 19.0672 	 -104.738
| 30> H 	 -51.6284 	 18.5899 	 -104.037
| 31> H 	 -50.0992 	 18.4094 	 -104.488
| 32> C 	 -51.2789 	 18.8885 	 -106.167
| 33> H 	 -51.188 	 17.8442 	 -106.416
| 34> H 	 -50.4523 	 19.5193 	 -106.605
| 35> C 	 -52.6326 	 19.4343 	 -106.608
| 36> H 	 -52.8664 	 20.5127 	 -106.511
| 37> H 	 -53.3507 	 18.8944 	 -105.978
| 38> H 	 -52.8785 	 19.0855 	 -107.614
| 39> H 	 -54.5748 	 18.9846 	 -100.009
| 40> H 	 -48.7469 	 23.1998 	 -104.235
| 41> *
| 42>
| 43>                          ****END OF INPUT****

CARTESIAN COORDINATES (ANGSTROEM)
---------------------------------
  S    -52.442200   19.965400  -100.857000
  C    -54.072900   19.316900  -100.909000
  C    -54.614700   19.334600  -102.199000
  C    -53.768000   20.084600  -103.092000
  C    -52.553000   20.430000  -102.493000
  H    -53.932200   20.229900  -104.078000
  C    -56.027500   18.824000  -102.484000
  H    -56.277900   18.118300  -101.689000
  H    -55.989700   18.206300  -103.411000
  C    -57.089600   19.802700  -102.620000
  H    -57.076800   20.306700  -103.520000
  H    -57.891100   19.112500  -102.651000
  C    -57.076200   20.893400  -101.545000
  H    -57.971500   21.585800  -101.563000
  H    -57.111200   20.448200  -100.486000
  H    -56.156200   21.472700  -101.562000
  S    -50.728600   22.560600  -102.720000
  C    -49.519200   22.488300  -103.991000
  C    -49.712500   21.279800  -104.703000
  C    -50.766200   20.486800  -104.267000
  C    -51.455100   21.019000  -103.229000
  H    -48.996300   21.072500  -105.474000
  C    -50.936300   19.067200  -104.738000
  H    -51.628400   18.589900  -104.037000
  H    -50.099200   18.409400  -104.488000
  C    -51.278900   18.888500  -106.167000
  H    -51.188000   17.844200  -106.416000
  H    -50.452300   19.519300  -106.605000
  C    -52.632600   19.434300  -106.608000
  H    -52.866400   20.512700  -106.511000
  H    -53.350700   18.894400  -105.978000
  H    -52.878500   19.085500  -107.614000
  H    -54.574800   18.984600  -100.009000
  H    -48.746900   23.199800  -104.235000

 Total Charge           Charge          ....    0
 Multiplicity           Mult            ....    1
 Number of Electrons    NEL             ....  134
 Basis Dimension        Dim             ....  322

ORBITAL ENERGIES
----------------

  NO   OCC          E(Eh)            E(eV)
   0   2.0000     -88.968402     -2420.9533
   1   2.0000     -88.966000     -2420.8879
   2   2.0000     -10.324675      -280.9487
   3   2.0000     -10.322387      -280.8864
   4   2.0000     -10.321879      -280.8726
   5   2.0000     -10.313538      -280.6456
   6   2.0000     -10.302382      -280.3421
   7   2.0000     -10.294486      -280.1272
   8   2.0000     -10.291171      -280.0370
   9   2.0000     -10.290534      -280.0197
  10   2.0000     -10.288428      -279.9624
  11   2.0000     -10.285195      -279.8744
  12   2.0000     -10.283111      -279.8177
  13   2.0000     -10.281097      -279.7629
  14   2.0000     -10.279027      -279.7065
  15   2.0000     -10.272761      -279.5360
  16   2.0000      -8.083711      -219.9690
  17   2.0000      -8.080074      -219.8700
  18   2.0000      -6.042043      -164.4123
  19   2.0000      -6.038580      -164.3181
  20   2.0000      -6.038122      -164.3057
  21   2.0000      -6.034655      -164.2113
  22   2.0000      -6.034513      -164.2075
  23   2.0000      -6.031041      -164.1130
  24   2.0000      -1.009233       -27.4626
  25   2.0000      -0.984688       -26.7947
  26   2.0000      -0.925676       -25.1889
  27   2.0000      -0.916189       -24.9308
  28   2.0000      -0.868023       -23.6201
  29   2.0000      -0.850635       -23.1470
  30   2.0000      -0.845681       -23.0122
  31   2.0000      -0.809517       -22.0281
  32   2.0000      -0.786837       -21.4109
  33   2.0000      -0.779185       -21.2027
  34   2.0000      -0.710408       -19.3312
  35   2.0000      -0.697100       -18.9691
  36   2.0000      -0.694167       -18.8892
  37   2.0000      -0.656666       -17.8688
  38   2.0000      -0.647002       -17.6058
  39   2.0000      -0.623024       -16.9533
  40   2.0000      -0.605062       -16.4646
  41   2.0000      -0.569869       -15.5069
  42   2.0000      -0.557896       -15.1811
  43   2.0000      -0.552290       -15.0286
  44   2.0000      -0.545874       -14.8540
  45   2.0000      -0.543151       -14.7799
  46   2.0000      -0.523179       -14.2364
  47   2.0000      -0.516143       -14.0450
  48   2.0000      -0.498590       -13.5673
  49   2.0000      -0.494137       -13.4462
  50   2.0000      -0.491152       -13.3649
  51   2.0000      -0.479753       -13.0548
  52   2.0000      -0.467967       -12.7340
  53   2.0000      -0.464157       -12.6304
  54   2.0000      -0.460394       -12.5280
  55   2.0000      -0.451705       -12.2915
  56   2.0000      -0.444228       -12.0881
  57   2.0000      -0.439442       -11.9578
  58   2.0000      -0.432657       -11.7732
  59   2.0000      -0.420195       -11.4341
  60   2.0000      -0.418175       -11.3791
  61   2.0000      -0.412929       -11.2364
  62   2.0000      -0.400896       -10.9089
  63   2.0000      -0.336626        -9.1601
  64   2.0000      -0.333581        -9.0772
  65   2.0000      -0.330780        -9.0010
  66   2.0000      -0.297617        -8.0986
  67   0.0000       0.032433         0.8826
  68   0.0000       0.065826         1.7912
  69   0.0000       0.113414         3.0862
  70   0.0000       0.121145         3.2965
  71   0.0000       0.133060         3.6207

MULLIKEN ATOMIC CHARGES
-----------------------
   0 S :    0.131048
   1 C :   -0.137463
   2 C :   -0.100744
   3 C :    0.091737
   4 C :   -0.171638
   5 H :   -0.054540
   6 C :    0.047175
   7 H :    0.018199
   8 H :    0.030640
   9 C :    0.018521
  10 H :    0.010650
  11 H :    0.017599
  12 C :   -0.096353
  13 H :    0.044220
  14 H :    0.022607
  15 H :    0.056445
  16 S :    0.108891
  17 C :   -0.099518
  18 C :   -0.053311
  19 C :    0.023860
  20 C :   -0.182577
  21 H :    0.017427
  22 C :    0.049345
  23 H :    0.014156
  24 H :    0.030872
  25 C :   -0.054437
  26 H :    0.029520
  27 H :    0.025782
  28 C :   -0.055482
  29 H :    0.057539
  30 H :    0.020110
  31 H :    0.031188
  32 H :    0.049522
  33 H :    0.059011
Sum of atomic charges:    0.0000000

LOEWDIN ATOMIC CHARGES
----------------------
   0 S :    0.428842
   1 C :   -0.199373
   2 C :   -0.057055
   3 C :   -0.045846
   4 C :   -0.207333
   5 H :    0.008538
   6 C :   -0.031330
   7 H :    0.029640
   8 H :    0.036827
   9 C :   -0.040375
  10 H :    0.015716
  11 H :    0.027206
  12 C :   -0.071276
  13 H :    0.030982
  14 H :    0.026071
  15 H :    0.029731
  16 S :    0.394786
  17 C :   -0.182373
  18 C :   -0.069994
  19 C :   -0.061761
  20 C :   -0.191928
  21 H :    0.027483
  22 C :   -0.039561
  23 H :    0.026651
  24 H :    0.036708
  25 C :   -0.041492
  26 H :    0.026744
  27 H :    0.027974
  28 C :   -0.071812
  29 H :    0.031205
  30 H :    0.023187
  31 H :    0.027689
  32 H :    0.023809
  33 H :    0.031720

  Mayer bond orders larger than 0.100000
B(  0-S ,  1-C ) :   1.1446 B(  0-S ,  4-C ) :   1.1775 B(  1-C ,  2-C ) :   1.5818
B(  1-C , 32-H ) :   0.9697 B(  2-C ,  3-C ) :   1.2408 B(  2-C ,  6-C ) :   1.0298
B(  3-C ,  4-C ) :   1.5405 B(  3-C ,  5-H ) :   1.0137 B(  4-C , 20-C ) :   1.0303
B(  6-C ,  7-H ) :   0.9412 B(  6-C ,  8-H ) :   0.9321 B(  6-C ,  9-C ) :   1.0792
B(  9-C , 10-H ) :   0.9478 B(  9-C , 11-H ) :   0.9515 B(  9-C , 12-C ) :   1.0721
B( 12-C , 13-H ) :   0.9752 B( 12-C , 14-H ) :   0.9757 B( 12-C , 15-H ) :   0.9668
B( 16-S , 17-C ) :   1.1604 B( 16-S , 20-C ) :   1.1362 B( 17-C , 18-C ) :   1.5922
B( 17-C , 20-C ) :   0.1076 B( 17-C , 33-H ) :   0.9696 B( 18-C , 19-C ) :   1.2491
B( 18-C , 21-H ) :   0.9894 B( 19-C , 20-C ) :   1.5909 B( 19-C , 22-C ) :   1.0343
B( 22-C , 23-H ) :   0.9214 B( 22-C , 24-H ) :   0.9379 B( 22-C , 25-C ) :   1.0735
B( 25-C , 26-H ) :   0.9499 B( 25-C , 27-H ) :   0.9545 B( 25-C , 28-C ) :   1.0821
B( 28-C , 29-H ) :   0.9701 B( 28-C , 30-H ) :   0.9660 B( 28-C , 31-H ) :   0.9695

Dispersion correction           -0.015821706
FINAL SINGLE POINT ENERGY     -1339.868227517985

DIPOLE MOMENT
-------------
                                X             Y             Z
Electronic contribution:     17.85476      10.02692      13.42187
Nuclear contribution   :    -18.05844     -10.44166     -13.81558
                        -----------------------------------------
Total Dipole Moment    :     -0.20368      -0.41475      -0.39371
                        -----------------------------------------
Magnitude (a.u.)       :      0.60705
Magnitude (Debye)      :      1.54299

Rotational constants in cm-1:     0.020103     0.009254     0.007527
Rotational constants in MHz :   602.683865   277.431591   225.650351

                             ****ORCA TERMINATED NORMALLY****
TOTAL RUN TIME: 0 days 0 hours 0 minutes 22 seconds 918 msec
