                         Program Version 4.2.1 -  RELEASE  -
|  1> ! wB97X-D3 SP def2-SVP
|  2> %pal
|  3> nprocs 24
|  4> end
|  5>
|  6> * xyz 0 1
|  7> S 	 -103.421 	 28.8757 	 -116.845
|  8> C 	 -103.845 	 29.602 	 -115.326
|  9> C 	 -105.037 	 30.2453 	 -115.404
| 10> C 	 -105.786 	 29.863 	 -116.588
| 11> C 	 -105.03 	 29.1609 	 -117.556
| 12> H 	 -106.816 	 30.1049 	 -116.729
| 13> C 	 -105.461 	 31.2014 	 -114.35
| 14> H 	 -105.375 	 32.2752 	 -114.672
| 15> H 	 -104.746 	 31.1157 	 -113.517
| 16> C 	 -106.786 	 30.8998 	 -113.66
| 17> H 	 -107.474 	 30.6467 	 -114.409
| 18> H 	 -106.661 	 30.0848 	 -112.909
| 19> C 	 -107.322 	 32.0978 	 -112.858
| 20> H 	 -106.604 	 32.5099 	 -112.173
| 21> H 	 -107.622 	 32.9126 	 -113.47
| 22> H 	 -108.203 	 31.7983 	 -112.334
| 23> S 	 -103.87 	 28.5828 	 -119.899
| 24> C 	 -104.82 	 28.4775 	 -121.308
| 25> C 	 -106.16 	 28.4827 	 -121.056
| 26> C 	 -106.487 	 28.7701 	 -119.698
| 27> C 	 -105.311 	 28.8819 	 -118.945
| 28> H 	 -106.773 	 28.2131 	 -121.905
| 29> C 	 -107.889 	 28.6598 	 -119.198
| 30> H 	 -108.44 	 28.7933 	 -120.146
| 31> H 	 -108.192 	 29.5239 	 -118.541
| 32> C 	 -108.259 	 27.2649 	 -118.625
| 33> H 	 -107.899 	 26.4267 	 -119.202
| 34> H 	 -109.392 	 27.2217 	 -118.768
| 35> C 	 -107.954 	 27.0587 	 -117.148
| 36> H 	 -107.983 	 26.0261 	 -116.927
| 37> H 	 -108.631 	 27.5624 	 -116.472
| 38> H 	 -106.921 	 27.2939 	 -116.839
| 39> H 	 -103.156 	 29.9644 	 -114.632
| 40> H 	 -104.468 	 28.4869 	 -122.324
| 41> *
| 42>
| 43>                          ****END OF INPUT****

CARTESIAN COORDINATES (ANGSTROEM)
---------------------------------
  S    -103.421000   28.875700  -116.845000
  C    -103.845000   29.602000  -115.326000
  C    -105.037000   30.245300  -115.404000
  C    -105.786000   29.863000  -116.588000
  C    -105.030000   29.160900  -117.556000
  H    -106.816000   30.104900  -116.729000
  C    -105.461000   31.201400  -114.350000
  H    -105.375000   32.275200  -114.672000
  H    -104.746000   31.115700  -113.517000
  C    -106.786000   30.899800  -113.660000
  H    -107.474000   30.646700  -114.409000
  H    -106.661000   30.084800  -112.909000
  C    -107.322000   32.097800  -112.858000
  H    -106.604000   32.509900  -112.173000
  H    -107.622000   32.912600  -113.470000
  H    -108.203000   31.798300  -112.334000
  S    -103.870000   28.582800  -119.899000
  C    -104.820000   28.477500  -121.308000
  C    -106.160000   28.482700  -121.056000
  C    -106.487000   28.770100  -119.698000
  C    -105.311000   28.881900  -118.945000
  H    -106.773000   28.213100  -121.905000
  C    -107.889000   28.659800  -119.198000
  H    -108.440000   28.793300  -120.146000
  H    -108.192000   29.523900  -118.541000
  C    -108.259000   27.264900  -118.625000
  H    -107.899000   26.426700  -119.202000
  H    -109.392000   27.221700  -118.768000
  C    -107.954000   27.058700  -117.148000
  H    -107.983000   26.026100  -116.927000
  H    -108.631000   27.562400  -116.472000
  H    -106.921000   27.293900  -116.839000
  H    -103.156000   29.964400  -114.632000
  H    -104.468000   28.486900  -122.324000

 Total Charge           Charge          ....    0
 Multiplicity           Mult            ....    1
 Number of Electrons    NEL             ....  134
 Basis Dimension        Dim             ....  322

ORBITAL ENERGIES
----------------

  NO   OCC          E(Eh)            E(eV)
   0   2.0000     -88.967586     -2420.9311
   1   2.0000     -88.962281     -2420.7867
   2   2.0000     -10.337406      -281.2951
   3   2.0000     -10.329449      -281.0786
   4   2.0000     -10.310868      -280.5730
   5   2.0000     -10.306459      -280.4530
   6   2.0000     -10.301100      -280.3072
   7   2.0000     -10.299086      -280.2524
   8   2.0000     -10.297029      -280.1964
   9   2.0000     -10.295655      -280.1590
  10   2.0000     -10.292685      -280.0782
  11   2.0000     -10.291671      -280.0506
  12   2.0000     -10.291189      -280.0375
  13   2.0000     -10.283793      -279.8362
  14   2.0000     -10.270760      -279.4816
  15   2.0000     -10.267588      -279.3953
  16   2.0000      -8.083337      -219.9588
  17   2.0000      -8.076831      -219.7817
  18   2.0000      -6.041763      -164.4047
  19   2.0000      -6.037821      -164.2975
  20   2.0000      -6.035603      -164.2371
  21   2.0000      -6.034011      -164.1938
  22   2.0000      -6.031413      -164.1231
  23   2.0000      -6.027289      -164.0109
  24   2.0000      -1.011322       -27.5195
  25   2.0000      -0.986073       -26.8324
  26   2.0000      -0.915293       -24.9064
  27   2.0000      -0.910335       -24.7715
  28   2.0000      -0.875736       -23.8300
  29   2.0000      -0.854070       -23.2404
  30   2.0000      -0.842809       -22.9340
  31   2.0000      -0.818969       -22.2853
  32   2.0000      -0.785365       -21.3709
  33   2.0000      -0.773708       -21.0537
  34   2.0000      -0.716531       -19.4978
  35   2.0000      -0.697480       -18.9794
  36   2.0000      -0.692493       -18.8437
  37   2.0000      -0.664090       -18.0708
  38   2.0000      -0.636428       -17.3181
  39   2.0000      -0.624463       -16.9925
  40   2.0000      -0.597421       -16.2566
  41   2.0000      -0.568802       -15.4779
  42   2.0000      -0.567944       -15.4545
  43   2.0000      -0.547967       -14.9109
  44   2.0000      -0.539262       -14.6741
  45   2.0000      -0.525671       -14.3042
  46   2.0000      -0.518034       -14.0964
  47   2.0000      -0.513357       -13.9692
  48   2.0000      -0.506072       -13.7709
  49   2.0000      -0.500778       -13.6269
  50   2.0000      -0.494796       -13.4641
  51   2.0000      -0.480781       -13.0827
  52   2.0000      -0.478287       -13.0148
  53   2.0000      -0.462747       -12.5920
  54   2.0000      -0.459751       -12.5105
  55   2.0000      -0.451060       -12.2740
  56   2.0000      -0.442268       -12.0347
  57   2.0000      -0.438348       -11.9280
  58   2.0000      -0.434249       -11.8165
  59   2.0000      -0.428822       -11.6688
  60   2.0000      -0.419180       -11.4065
  61   2.0000      -0.412466       -11.2238
  62   2.0000      -0.405383       -11.0310
  63   2.0000      -0.364687        -9.9236
  64   2.0000      -0.336665        -9.1611
  65   2.0000      -0.322162        -8.7665
  66   2.0000      -0.278025        -7.5654
  67   0.0000       0.015839         0.4310
  68   0.0000       0.077095         2.0979
  69   0.0000       0.106668         2.9026
  70   0.0000       0.114456         3.1145
  71   0.0000       0.131374         3.5749

MULLIKEN ATOMIC CHARGES
-----------------------
   0 S :    0.073343
   1 C :   -0.058879
   2 C :   -0.118801
   3 C :    0.028825
   4 C :   -0.112307
   5 H :   -0.010949
   6 C :    0.035654
   7 H :    0.050091
   8 H :    0.011923
   9 C :   -0.078872
  10 H :    0.019658
  11 H :    0.041505
  12 C :   -0.025833
  13 H :    0.023889
  14 H :    0.017967
  15 H :    0.026601
  16 S :    0.107158
  17 C :   -0.073879
  18 C :   -0.058747
  19 C :   -0.036888
  20 C :   -0.135060
  21 H :    0.019670
  22 C :    0.041841
  23 H :    0.020901
  24 H :    0.045704
  25 C :   -0.062790
  26 H :    0.029545
  27 H :    0.033803
  28 C :   -0.026661
  29 H :    0.014971
  30 H :    0.026840
  31 H :    0.045535
  32 H :    0.034437
  33 H :    0.049803
Sum of atomic charges:   -0.0000000

LOEWDIN ATOMIC CHARGES
----------------------
   0 S :    0.382613
   1 C :   -0.200854
   2 C :   -0.058981
   3 C :   -0.066618
   4 C :   -0.173762
   5 H :    0.018480
   6 C :   -0.039713
   7 H :    0.038441
   8 H :    0.031404
   9 C :   -0.033774
  10 H :    0.012649
  11 H :    0.032196
  12 C :   -0.059439
  13 H :    0.022043
  14 H :    0.019174
  15 H :    0.024212
  16 S :    0.424204
  17 C :   -0.195504
  18 C :   -0.075392
  19 C :   -0.056271
  20 C :   -0.191298
  21 H :    0.034124
  22 C :   -0.039028
  23 H :    0.035006
  24 H :    0.036764
  25 C :   -0.035965
  26 H :    0.025807
  27 H :    0.032041
  28 C :   -0.068979
  29 H :    0.022544
  30 H :    0.022417
  31 H :    0.032673
  32 H :    0.019157
  33 H :    0.029628

  Mayer bond orders larger than 0.100000
B(  0-S ,  1-C ) :   1.1128 B(  0-S ,  4-C ) :   1.1392 B(  1-C ,  2-C ) :   1.6599
B(  1-C , 32-H ) :   0.9571 B(  2-C ,  3-C ) :   1.2290 B(  2-C ,  6-C ) :   1.0380
B(  3-C ,  4-C ) :   1.5521 B(  3-C ,  5-H ) :   0.9925 B(  4-C , 20-C ) :   1.1133
B(  6-C ,  7-H ) :   0.9394 B(  6-C ,  8-H ) :   0.9365 B(  6-C ,  9-C ) :   1.0544
B(  9-C , 10-H ) :   0.9625 B(  9-C , 11-H ) :   0.9577 B(  9-C , 12-C ) :   1.0869
B( 12-C , 13-H ) :   0.9743 B( 12-C , 14-H ) :   0.9741 B( 12-C , 15-H ) :   0.9730
B( 16-S , 17-C ) :   1.1622 B( 16-S , 20-C ) :   1.1430 B( 17-C , 18-C ) :   1.6263
B( 17-C , 33-H ) :   0.9644 B( 18-C , 19-C ) :   1.2402 B( 18-C , 21-H ) :   0.9882
B( 19-C , 20-C ) :   1.5464 B( 19-C , 22-C ) :   1.0564 B( 22-C , 23-H ) :   0.9266
B( 22-C , 24-H ) :   0.9298 B( 22-C , 25-C ) :   1.0614 B( 25-C , 26-H ) :   0.9570
B( 25-C , 27-H ) :   0.9549 B( 25-C , 28-C ) :   1.0837 B( 28-C , 29-H ) :   0.9674
B( 28-C , 30-H ) :   0.9750 B( 28-C , 31-H ) :   0.9706

Dispersion correction           -0.014706719
FINAL SINGLE POINT ENERGY     -1339.868174686181

DIPOLE MOMENT
-------------
                                X             Y             Z
Electronic contribution:     23.05356      -5.00141     -17.75166
Nuclear contribution   :    -23.65646       5.21569      17.72571
                        -----------------------------------------
Total Dipole Moment    :     -0.60290       0.21428      -0.02596
                        -----------------------------------------
Magnitude (a.u.)       :      0.64037
Magnitude (Debye)      :      1.62770

Rotational constants in cm-1:     0.020729     0.008676     0.006866
Rotational constants in MHz :   621.431628   260.104404   205.833140

                             ****ORCA TERMINATED NORMALLY****
TOTAL RUN TIME: 0 days 0 hours 0 minutes 22 seconds 240 msec
