                         Program Version 4.2.1 -  RELEASE  -
|  1> ! wB97X-D3 SP def2-SVP
|  2> %pal
|  3> nprocs 24
|  4> end
|  5>
|  6> * xyz 0 1
|  7> S 	 2.1228 	 -18.1527 	 -105.186
|  8> C 	 3.66844 	 -18.7146 	 -104.699
|  9> C 	 4.37913 	 -17.831 	 -103.898
| 10> C 	 3.82416 	 -16.5701 	 -103.999
| 11> C 	 2.62824 	 -16.497 	 -104.67
| 12> H 	 4.17645 	 -15.6453 	 -103.548
| 13> C 	 5.70201 	 -18.0413 	 -103.222
| 14> H 	 5.53015 	 -18.691 	 -102.389
| 15> H 	 5.94376 	 -17.0718 	 -102.814
| 16> C 	 6.82553 	 -18.6107 	 -104.154
| 17> H 	 6.5998 	 -19.6408 	 -104.309
| 18> H 	 6.81219 	 -18.1861 	 -105.15
| 19> C 	 8.25199 	 -18.511 	 -103.576
| 20> H 	 8.30587 	 -19.0296 	 -102.604
| 21> H 	 9.03163 	 -19.0011 	 -104.167
| 22> H 	 8.46331 	 -17.4401 	 -103.392
| 23> S 	 1.58781 	 -14.5444 	 -106.419
| 24> C 	 0.824024 	 -13.191 	 -105.686
| 25> C 	 0.905733 	 -13.156 	 -104.296
| 26> C 	 1.53617 	 -14.3595 	 -103.789
| 27> C 	 1.92339 	 -15.2204 	 -104.819
| 28> H 	 0.581163 	 -12.2408 	 -103.783
| 29> C 	 1.87947 	 -14.4509 	 -102.304
| 30> H 	 2.29345 	 -15.4424 	 -102.074
| 31> H 	 1.02567 	 -14.2324 	 -101.565
| 32> C 	 2.96999 	 -13.443 	 -102.015
| 33> H 	 2.51962 	 -12.4922 	 -102.396
| 34> H 	 3.87765 	 -13.5926 	 -102.606
| 35> C 	 3.18824 	 -13.2497 	 -100.571
| 36> H 	 3.84672 	 -12.3649 	 -100.345
| 37> H 	 3.6696 	 -14.1034 	 -100.182
| 38> H 	 2.25449 	 -13.109 	 -100.041
| 39> H 	 3.79678 	 -19.7897 	 -104.736
| 40> H 	 0.415531 	 -12.3152 	 -106.2
| 41> *
| 42>
| 43>                          ****END OF INPUT****

CARTESIAN COORDINATES (ANGSTROEM)
---------------------------------
  S      2.122800  -18.152700  -105.186000
  C      3.668440  -18.714600  -104.699000
  C      4.379130  -17.831000  -103.898000
  C      3.824160  -16.570100  -103.999000
  C      2.628240  -16.497000  -104.670000
  H      4.176450  -15.645300  -103.548000
  C      5.702010  -18.041300  -103.222000
  H      5.530150  -18.691000  -102.389000
  H      5.943760  -17.071800  -102.814000
  C      6.825530  -18.610700  -104.154000
  H      6.599800  -19.640800  -104.309000
  H      6.812190  -18.186100  -105.150000
  C      8.251990  -18.511000  -103.576000
  H      8.305870  -19.029600  -102.604000
  H      9.031630  -19.001100  -104.167000
  H      8.463310  -17.440100  -103.392000
  S      1.587810  -14.544400  -106.419000
  C      0.824024  -13.191000  -105.686000
  C      0.905733  -13.156000  -104.296000
  C      1.536170  -14.359500  -103.789000
  C      1.923390  -15.220400  -104.819000
  H      0.581163  -12.240800  -103.783000
  C      1.879470  -14.450900  -102.304000
  H      2.293450  -15.442400  -102.074000
  H      1.025670  -14.232400  -101.565000
  C      2.969990  -13.443000  -102.015000
  H      2.519620  -12.492200  -102.396000
  H      3.877650  -13.592600  -102.606000
  C      3.188240  -13.249700  -100.571000
  H      3.846720  -12.364900  -100.345000
  H      3.669600  -14.103400  -100.182000
  H      2.254490  -13.109000  -100.041000
  H      3.796780  -19.789700  -104.736000
  H      0.415531  -12.315200  -106.200000

 Total Charge           Charge          ....    0
 Multiplicity           Mult            ....    1
 Number of Electrons    NEL             ....  134
 Basis Dimension        Dim             ....  322

ORBITAL ENERGIES
----------------

  NO   OCC          E(Eh)            E(eV)
   0   2.0000     -88.967630     -2420.9323
   1   2.0000     -88.967518     -2420.9292
   2   2.0000     -10.326560      -281.0000
   3   2.0000     -10.325659      -280.9755
   4   2.0000     -10.315937      -280.7109
   5   2.0000     -10.310951      -280.5752
   6   2.0000     -10.307507      -280.4815
   7   2.0000     -10.296276      -280.1759
   8   2.0000     -10.295818      -280.1634
   9   2.0000     -10.295519      -280.1553
  10   2.0000     -10.291463      -280.0450
  11   2.0000     -10.287052      -279.9249
  12   2.0000     -10.286343      -279.9056
  13   2.0000     -10.282773      -279.8085
  14   2.0000     -10.282343      -279.7968
  15   2.0000     -10.274104      -279.5726
  16   2.0000      -8.082370      -219.9325
  17   2.0000      -8.082036      -219.9234
  18   2.0000      -6.040792      -164.3783
  19   2.0000      -6.040399      -164.3676
  20   2.0000      -6.036962      -164.2741
  21   2.0000      -6.036731      -164.2678
  22   2.0000      -6.033120      -164.1696
  23   2.0000      -6.032848      -164.1621
  24   2.0000      -1.005198       -27.3528
  25   2.0000      -0.985367       -26.8132
  26   2.0000      -0.920511       -25.0484
  27   2.0000      -0.908233       -24.7143
  28   2.0000      -0.868492       -23.6329
  29   2.0000      -0.855687       -23.2844
  30   2.0000      -0.851238       -23.1634
  31   2.0000      -0.810539       -22.0559
  32   2.0000      -0.782595       -21.2955
  33   2.0000      -0.766735       -20.8639
  34   2.0000      -0.709781       -19.3141
  35   2.0000      -0.695531       -18.9264
  36   2.0000      -0.689842       -18.7716
  37   2.0000      -0.658608       -17.9216
  38   2.0000      -0.642831       -17.4923
  39   2.0000      -0.618835       -16.8394
  40   2.0000      -0.595735       -16.2108
  41   2.0000      -0.574997       -15.6465
  42   2.0000      -0.566909       -15.4264
  43   2.0000      -0.558687       -15.2026
  44   2.0000      -0.522826       -14.2268
  45   2.0000      -0.520508       -14.1638
  46   2.0000      -0.518671       -14.1138
  47   2.0000      -0.514600       -14.0030
  48   2.0000      -0.504474       -13.7274
  49   2.0000      -0.498782       -13.5725
  50   2.0000      -0.486392       -13.2354
  51   2.0000      -0.477924       -13.0050
  52   2.0000      -0.468643       -12.7524
  53   2.0000      -0.464062       -12.6278
  54   2.0000      -0.458435       -12.4747
  55   2.0000      -0.451691       -12.2911
  56   2.0000      -0.444686       -12.1005
  57   2.0000      -0.439743       -11.9660
  58   2.0000      -0.437620       -11.9082
  59   2.0000      -0.429544       -11.6885
  60   2.0000      -0.427228       -11.6255
  61   2.0000      -0.422171       -11.4879
  62   2.0000      -0.408806       -11.1242
  63   2.0000      -0.342779        -9.3275
  64   2.0000      -0.330795        -9.0014
  65   2.0000      -0.328321        -8.9341
  66   2.0000      -0.292862        -7.9692
  67   0.0000       0.031922         0.8686
  68   0.0000       0.064929         1.7668
  69   0.0000       0.107978         2.9382
  70   0.0000       0.117002         3.1838
  71   0.0000       0.129617         3.5271

MULLIKEN ATOMIC CHARGES
-----------------------
   0 S :    0.120533
   1 C :   -0.138232
   2 C :   -0.072509
   3 C :    0.010383
   4 C :   -0.147814
   5 H :   -0.002770
   6 C :    0.114107
   7 H :    0.028763
   8 H :    0.005201
   9 C :   -0.070053
  10 H :    0.019924
  11 H :    0.037696
  12 C :   -0.062113
  13 H :    0.025771
  14 H :    0.041664
  15 H :    0.037840
  16 S :    0.128728
  17 C :   -0.097060
  18 C :   -0.061808
  19 C :   -0.004980
  20 C :   -0.188897
  21 H :    0.034895
  22 C :    0.035306
  23 H :    0.028974
  24 H :    0.040985
  25 C :   -0.108924
  26 H :    0.016748
  27 H :    0.038036
  28 C :    0.003789
  29 H :    0.039671
  30 H :    0.014483
  31 H :    0.022413
  32 H :    0.050999
  33 H :    0.058252
Sum of atomic charges:   -0.0000000

LOEWDIN ATOMIC CHARGES
----------------------
   0 S :    0.402168
   1 C :   -0.201294
   2 C :   -0.067935
   3 C :   -0.057912
   4 C :   -0.184840
   5 H :    0.030984
   6 C :   -0.021950
   7 H :    0.031375
   8 H :    0.024827
   9 C :   -0.035802
  10 H :    0.018831
  11 H :    0.025892
  12 C :   -0.069518
  13 H :    0.025214
  14 H :    0.028449
  15 H :    0.026946
  16 S :    0.413694
  17 C :   -0.196980
  18 C :   -0.078044
  19 C :   -0.044992
  20 C :   -0.202075
  21 H :    0.036204
  22 C :   -0.034506
  23 H :    0.025829
  24 H :    0.039516
  25 C :   -0.048068
  26 H :    0.024508
  27 H :    0.022693
  28 C :   -0.061964
  29 H :    0.033658
  30 H :    0.017091
  31 H :    0.024250
  32 H :    0.021558
  33 H :    0.032195

  Mayer bond orders larger than 0.100000
B(  0-S ,  1-C ) :   1.1694 B(  0-S ,  4-C ) :   1.1385 B(  1-C ,  2-C ) :   1.5624
B(  1-C , 32-H ) :   0.9650 B(  2-C ,  3-C ) :   1.2698 B(  2-C ,  6-C ) :   1.0274
B(  3-C ,  4-C ) :   1.5673 B(  3-C ,  5-H ) :   0.9885 B(  4-C , 20-C ) :   1.0547
B(  6-C ,  7-H ) :   0.9212 B(  6-C ,  8-H ) :   0.9451 B(  6-C ,  9-C ) :   1.0579
B(  9-C , 10-H ) :   0.9495 B(  9-C , 11-H ) :   0.9631 B(  9-C , 12-C ) :   1.0869
B( 12-C , 13-H ) :   0.9734 B( 12-C , 14-H ) :   0.9744 B( 12-C , 15-H ) :   0.9780
B( 16-S , 17-C ) :   1.1625 B( 16-S , 20-C ) :   1.1307 B( 17-C , 18-C ) :   1.6327
B( 17-C , 33-H ) :   0.9605 B( 18-C , 19-C ) :   1.2138 B( 18-C , 21-H ) :   0.9815
B( 19-C , 20-C ) :   1.6089 B( 19-C , 22-C ) :   1.0518 B( 22-C , 23-H ) :   0.9273
B( 22-C , 24-H ) :   0.9373 B( 22-C , 25-C ) :   1.0572 B( 25-C , 26-H ) :   0.9519
B( 25-C , 27-H ) :   0.9451 B( 25-C , 28-C ) :   1.0915 B( 28-C , 29-H ) :   0.9698
B( 28-C , 30-H ) :   0.9686 B( 28-C , 31-H ) :   0.9676

Dispersion correction           -0.014229177
FINAL SINGLE POINT ENERGY     -1339.878734470689

DIPOLE MOMENT
-------------
                                X             Y             Z
Electronic contribution:    -21.22019      -2.73129     -20.97838
Nuclear contribution   :     21.63297       2.92726      21.54576
                        -----------------------------------------
Total Dipole Moment    :      0.41279       0.19597       0.56738
                        -----------------------------------------
Magnitude (a.u.)       :      0.72850
Magnitude (Debye)      :      1.85170

Rotational constants in cm-1:     0.017543     0.008517     0.006570
Rotational constants in MHz :   525.933173   255.337304   196.955680

                             ****ORCA TERMINATED NORMALLY****
TOTAL RUN TIME: 0 days 0 hours 0 minutes 21 seconds 734 msec
