                         Program Version 4.2.1 -  RELEASE  -
|  1> ! wB97X-D3 SP def2-SVP
|  2> %pal
|  3> nprocs 24
|  4> end
|  5>
|  6> * xyz 0 1
|  7> S 	 -32.6373 	 8.3921 	 3.89536
|  8> C 	 -32.2437 	 9.98775 	 3.3077
|  9> C 	 -31.571 	 10.7619 	 4.22219
| 10> C 	 -31.3529 	 9.98051 	 5.47021
| 11> C 	 -31.8565 	 8.71213 	 5.40002
| 12> H 	 -30.9136 	 10.316 	 6.45834
| 13> C 	 -31.0952 	 12.1249 	 4.07621
| 14> H 	 -31.0248 	 12.2257 	 3.02711
| 15> H 	 -30.0784 	 12.2033 	 4.38036
| 16> C 	 -32.0333 	 13.15 	 4.6982
| 17> H 	 -32.9904 	 13.3369 	 4.22551
| 18> H 	 -32.2829 	 12.9457 	 5.74314
| 19> C 	 -31.3623 	 14.5254 	 4.55199
| 20> H 	 -31.9505 	 15.3422 	 4.96022
| 21> H 	 -30.3784 	 14.5295 	 5.05051
| 22> H 	 -31.2459 	 14.6776 	 3.52867
| 23> S 	 -33.2884 	 6.83225 	 6.80314
| 24> C 	 -32.4905 	 5.77069 	 7.87658
| 25> C 	 -31.1284 	 5.9383 	 7.77569
| 26> C 	 -30.7037 	 7.00255 	 6.8892
| 27> C 	 -31.7978 	 7.65397 	 6.36748
| 28> H 	 -30.4981 	 5.21873 	 8.15494
| 29> C 	 -29.2478 	 7.20763 	 6.61555
| 30> H 	 -29.1722 	 8.00606 	 5.79708
| 31> H 	 -28.8713 	 6.25215 	 6.26952
| 32> C 	 -28.4688 	 7.66658 	 7.79312
| 33> H 	 -27.3739 	 7.55455 	 7.58202
| 34> H 	 -28.7747 	 7.00008 	 8.62917
| 35> C 	 -28.6014 	 9.11669 	 8.22364
| 36> H 	 -27.7502 	 9.38132 	 8.87513
| 37> H 	 -29.5596 	 9.41962 	 8.6873
| 38> H 	 -28.5315 	 9.82665 	 7.4218
| 39> H 	 -32.5706 	 10.3098 	 2.3189
| 40> H 	 -33.0462 	 5.05237 	 8.43057
| 41> *
| 42>
| 43>                          ****END OF INPUT****

CARTESIAN COORDINATES (ANGSTROEM)
---------------------------------
  S    -32.637300    8.392100    3.895360
  C    -32.243700    9.987750    3.307700
  C    -31.571000   10.761900    4.222190
  C    -31.352900    9.980510    5.470210
  C    -31.856500    8.712130    5.400020
  H    -30.913600   10.316000    6.458340
  C    -31.095200   12.124900    4.076210
  H    -31.024800   12.225700    3.027110
  H    -30.078400   12.203300    4.380360
  C    -32.033300   13.150000    4.698200
  H    -32.990400   13.336900    4.225510
  H    -32.282900   12.945700    5.743140
  C    -31.362300   14.525400    4.551990
  H    -31.950500   15.342200    4.960220
  H    -30.378400   14.529500    5.050510
  H    -31.245900   14.677600    3.528670
  S    -33.288400    6.832250    6.803140
  C    -32.490500    5.770690    7.876580
  C    -31.128400    5.938300    7.775690
  C    -30.703700    7.002550    6.889200
  C    -31.797800    7.653970    6.367480
  H    -30.498100    5.218730    8.154940
  C    -29.247800    7.207630    6.615550
  H    -29.172200    8.006060    5.797080
  H    -28.871300    6.252150    6.269520
  C    -28.468800    7.666580    7.793120
  H    -27.373900    7.554550    7.582020
  H    -28.774700    7.000080    8.629170
  C    -28.601400    9.116690    8.223640
  H    -27.750200    9.381320    8.875130
  H    -29.559600    9.419620    8.687300
  H    -28.531500    9.826650    7.421800
  H    -32.570600   10.309800    2.318900
  H    -33.046200    5.052370    8.430570

 Total Charge           Charge          ....    0
 Multiplicity           Mult            ....    1
 Number of Electrons    NEL             ....  134
 Basis Dimension        Dim             ....  322

ORBITAL ENERGIES
----------------

  NO   OCC          E(Eh)            E(eV)
   0   2.0000     -88.960913     -2420.7495
   1   2.0000     -88.960504     -2420.7384
   2   2.0000     -10.321066      -280.8505
   3   2.0000     -10.320830      -280.8441
   4   2.0000     -10.314286      -280.6660
   5   2.0000     -10.311818      -280.5988
   6   2.0000     -10.301036      -280.3054
   7   2.0000     -10.300672      -280.2955
   8   2.0000     -10.297337      -280.2048
   9   2.0000     -10.290919      -280.0301
  10   2.0000     -10.288049      -279.9521
  11   2.0000     -10.287190      -279.9287
  12   2.0000     -10.285294      -279.8771
  13   2.0000     -10.283434      -279.8265
  14   2.0000     -10.276965      -279.6504
  15   2.0000     -10.271420      -279.4995
  16   2.0000      -8.076767      -219.7800
  17   2.0000      -8.076170      -219.7638
  18   2.0000      -6.035255      -164.2276
  19   2.0000      -6.034732      -164.2134
  20   2.0000      -6.031049      -164.1132
  21   2.0000      -6.030580      -164.1004
  22   2.0000      -6.027564      -164.0184
  23   2.0000      -6.026800      -163.9976
  24   2.0000      -1.010586       -27.4994
  25   2.0000      -0.985862       -26.8267
  26   2.0000      -0.923163       -25.1205
  27   2.0000      -0.917860       -24.9762
  28   2.0000      -0.873468       -23.7683
  29   2.0000      -0.851799       -23.1786
  30   2.0000      -0.845300       -23.0018
  31   2.0000      -0.815563       -22.1926
  32   2.0000      -0.786641       -21.4056
  33   2.0000      -0.773985       -21.0612
  34   2.0000      -0.709049       -19.2942
  35   2.0000      -0.700502       -19.0616
  36   2.0000      -0.693341       -18.8668
  37   2.0000      -0.662459       -18.0264
  38   2.0000      -0.644683       -17.5427
  39   2.0000      -0.615443       -16.7470
  40   2.0000      -0.601903       -16.3786
  41   2.0000      -0.573872       -15.6158
  42   2.0000      -0.561326       -15.2745
  43   2.0000      -0.557971       -15.1832
  44   2.0000      -0.546216       -14.8633
  45   2.0000      -0.533498       -14.5172
  46   2.0000      -0.521700       -14.1962
  47   2.0000      -0.514876       -14.0105
  48   2.0000      -0.506392       -13.7796
  49   2.0000      -0.501124       -13.6363
  50   2.0000      -0.499741       -13.5987
  51   2.0000      -0.474014       -12.8986
  52   2.0000      -0.464768       -12.6470
  53   2.0000      -0.461858       -12.5678
  54   2.0000      -0.454533       -12.3685
  55   2.0000      -0.448918       -12.2157
  56   2.0000      -0.444148       -12.0859
  57   2.0000      -0.441520       -12.0144
  58   2.0000      -0.437181       -11.8963
  59   2.0000      -0.423950       -11.5363
  60   2.0000      -0.420297       -11.4369
  61   2.0000      -0.417500       -11.3608
  62   2.0000      -0.411565       -11.1993
  63   2.0000      -0.344649        -9.3784
  64   2.0000      -0.328456        -8.9377
  65   2.0000      -0.323904        -8.8139
  66   2.0000      -0.297307        -8.0901
  67   0.0000       0.041269         1.1230
  68   0.0000       0.071444         1.9441
  69   0.0000       0.113204         3.0804
  70   0.0000       0.122545         3.3346
  71   0.0000       0.127991         3.4828

MULLIKEN ATOMIC CHARGES
-----------------------
   0 S :    0.105531
   1 C :   -0.123429
   2 C :   -0.101259
   3 C :    0.003505
   4 C :   -0.154138
   5 H :    0.029303
   6 C :    0.116719
   7 H :   -0.000799
   8 H :    0.019113
   9 C :   -0.070646
  10 H :    0.028835
  11 H :    0.032552
  12 C :   -0.026461
  13 H :    0.031799
  14 H :    0.026733
  15 H :    0.013860
  16 S :    0.100797
  17 C :   -0.076530
  18 C :   -0.009398
  19 C :   -0.033650
  20 C :   -0.180234
  21 H :   -0.006588
  22 C :    0.088202
  23 H :    0.037881
  24 H :    0.031224
  25 C :   -0.084721
  26 H :    0.036481
  27 H :    0.033822
  28 C :   -0.057918
  29 H :    0.037855
  30 H :    0.042498
  31 H :    0.012407
  32 H :    0.044061
  33 H :    0.052590
Sum of atomic charges:   -0.0000000

LOEWDIN ATOMIC CHARGES
----------------------
   0 S :    0.406485
   1 C :   -0.198746
   2 C :   -0.055707
   3 C :   -0.072717
   4 C :   -0.200719
   5 H :    0.040733
   6 C :   -0.032932
   7 H :    0.029706
   8 H :    0.032396
   9 C :   -0.031811
  10 H :    0.027884
  11 H :    0.023729
  12 C :   -0.058772
  13 H :    0.023820
  14 H :    0.023476
  15 H :    0.014882
  16 S :    0.413455
  17 C :   -0.183329
  18 C :   -0.067805
  19 C :   -0.050147
  20 C :   -0.205531
  21 H :    0.015658
  22 C :   -0.034838
  23 H :    0.038190
  24 H :    0.035345
  25 C :   -0.047218
  26 H :    0.031435
  27 H :    0.027775
  28 C :   -0.072328
  29 H :    0.032634
  30 H :    0.026715
  31 H :    0.017208
  32 H :    0.026347
  33 H :    0.024725

  Mayer bond orders larger than 0.100000
B(  0-S ,  1-C ) :   1.1216 B(  0-S ,  4-C ) :   1.1473 B(  1-C ,  2-C ) :   1.6516
B(  1-C , 32-H ) :   0.9666 B(  2-C ,  3-C ) :   1.1771 B(  2-C ,  6-C ) :   1.0383
B(  3-C ,  4-C ) :   1.6315 B(  3-C ,  5-H ) :   0.9827 B(  4-C , 20-C ) :   1.0245
B(  6-C ,  7-H ) :   0.9210 B(  6-C ,  8-H ) :   0.9345 B(  6-C ,  9-C ) :   1.0558
B(  9-C , 10-H ) :   0.9543 B(  9-C , 11-H ) :   0.9621 B(  9-C , 12-C ) :   1.0800
B( 12-C , 13-H ) :   0.9743 B( 12-C , 14-H ) :   0.9756 B( 12-C , 15-H ) :   0.9739
B( 16-S , 17-C ) :   1.1654 B( 16-S , 20-C ) :   1.1402 B( 17-C , 18-C ) :   1.5919
B( 17-C , 33-H ) :   0.9755 B( 18-C , 19-C ) :   1.2288 B( 18-C , 21-H ) :   0.9964
B( 19-C , 20-C ) :   1.5967 B( 19-C , 22-C ) :   1.0469 B( 22-C , 23-H ) :   0.9304
B( 22-C , 24-H ) :   0.9248 B( 22-C , 25-C ) :   1.0814 B( 25-C , 26-H ) :   0.9527
B( 25-C , 27-H ) :   0.9514 B( 25-C , 28-C ) :   1.0807 B( 28-C , 29-H ) :   0.9718
B( 28-C , 30-H ) :   0.9721 B( 28-C , 31-H ) :   0.9676

Dispersion correction           -0.014469982
FINAL SINGLE POINT ENERGY     -1339.884001974694

DIPOLE MOMENT
-------------
                                X             Y             Z
Electronic contribution:    -17.63082     -21.71317      -4.72178
Nuclear contribution   :     18.09749      21.95546       4.77363
                        -----------------------------------------
Total Dipole Moment    :      0.46667       0.24229       0.05185
                        -----------------------------------------
Magnitude (a.u.)       :      0.52837
Magnitude (Debye)      :      1.34301

Rotational constants in cm-1:     0.019835     0.008509     0.006769
Rotational constants in MHz :   594.641413   255.094458   202.923291

                             ****ORCA TERMINATED NORMALLY****
TOTAL RUN TIME: 0 days 0 hours 0 minutes 21 seconds 941 msec
