                         Program Version 4.2.1 -  RELEASE  -
|  1> ! wB97X-D3 SP def2-SVP
|  2> %pal
|  3> nprocs 24
|  4> end
|  5>
|  6> * xyz 0 1
|  7> S 	 -59.1755 	 15.1923 	 -90.9992
|  8> C 	 -57.9884 	 16.5286 	 -90.9797
|  9> C 	 -56.7044 	 16.0436 	 -91.1875
| 10> C 	 -56.6484 	 14.6337 	 -91.2869
| 11> C 	 -57.8803 	 14.004 	 -91.1622
| 12> H 	 -55.7202 	 14.1584 	 -91.5919
| 13> C 	 -55.536 	 16.8782 	 -91.6532
| 14> H 	 -54.6219 	 16.2529 	 -91.6113
| 15> H 	 -55.2722 	 17.6115 	 -90.8344
| 16> C 	 -55.7954 	 17.6342 	 -92.9428
| 17> H 	 -56.667 	 18.3387 	 -92.7759
| 18> H 	 -54.9489 	 18.2413 	 -93.2517
| 19> C 	 -55.9203 	 16.6028 	 -94.0954
| 20> H 	 -56.7879 	 15.8741 	 -94.0942
| 21> H 	 -56.1861 	 17.1157 	 -95.0703
| 22> H 	 -54.9249 	 16.1934 	 -94.2313
| 23> S 	 -59.6804 	 12.1573 	 -92.1128
| 24> C 	 -59.3628 	 10.4749 	 -91.9135
| 25> C 	 -58.0871 	 10.2697 	 -91.3545
| 26> C 	 -57.3588 	 11.4701 	 -91.1091
| 27> C 	 -58.1176 	 12.5962 	 -91.3958
| 28> H 	 -57.8188 	 9.22108 	 -91.2772
| 29> C 	 -56.0285 	 11.3417 	 -90.3938
| 30> H 	 -56.1463 	 10.3986 	 -89.8307
| 31> H 	 -55.8699 	 12.1874 	 -89.8595
| 32> C 	 -54.816 	 10.9657 	 -91.1898
| 33> H 	 -54.726 	 11.4887 	 -92.1226
| 34> H 	 -54.7701 	 9.87328 	 -91.4599
| 35> C 	 -53.5348 	 11.276 	 -90.3896
| 36> H 	 -53.3724 	 12.36 	 -90.4242
| 37> H 	 -52.7159 	 10.6744 	 -90.7204
| 38> H 	 -53.6689 	 11.0773 	 -89.3444
| 39> H 	 -58.3723 	 17.479 	 -91.0196
| 40> H 	 -59.9941 	 9.63708 	 -92.1493
| 41> *
| 42>
| 43>                          ****END OF INPUT****

CARTESIAN COORDINATES (ANGSTROEM)
---------------------------------
  S    -59.175500   15.192300  -90.999200
  C    -57.988400   16.528600  -90.979700
  C    -56.704400   16.043600  -91.187500
  C    -56.648400   14.633700  -91.286900
  C    -57.880300   14.004000  -91.162200
  H    -55.720200   14.158400  -91.591900
  C    -55.536000   16.878200  -91.653200
  H    -54.621900   16.252900  -91.611300
  H    -55.272200   17.611500  -90.834400
  C    -55.795400   17.634200  -92.942800
  H    -56.667000   18.338700  -92.775900
  H    -54.948900   18.241300  -93.251700
  C    -55.920300   16.602800  -94.095400
  H    -56.787900   15.874100  -94.094200
  H    -56.186100   17.115700  -95.070300
  H    -54.924900   16.193400  -94.231300
  S    -59.680400   12.157300  -92.112800
  C    -59.362800   10.474900  -91.913500
  C    -58.087100   10.269700  -91.354500
  C    -57.358800   11.470100  -91.109100
  C    -58.117600   12.596200  -91.395800
  H    -57.818800    9.221080  -91.277200
  C    -56.028500   11.341700  -90.393800
  H    -56.146300   10.398600  -89.830700
  H    -55.869900   12.187400  -89.859500
  C    -54.816000   10.965700  -91.189800
  H    -54.726000   11.488700  -92.122600
  H    -54.770100    9.873280  -91.459900
  C    -53.534800   11.276000  -90.389600
  H    -53.372400   12.360000  -90.424200
  H    -52.715900   10.674400  -90.720400
  H    -53.668900   11.077300  -89.344400
  H    -58.372300   17.479000  -91.019600
  H    -59.994100    9.637080  -92.149300

 Total Charge           Charge          ....    0
 Multiplicity           Mult            ....    1
 Number of Electrons    NEL             ....  134
 Basis Dimension        Dim             ....  322

ORBITAL ENERGIES
----------------

  NO   OCC          E(Eh)            E(eV)
   0   2.0000     -88.968062     -2420.9440
   1   2.0000     -88.966823     -2420.9103
   2   2.0000     -10.333331      -281.1842
   3   2.0000     -10.328941      -281.0648
   4   2.0000     -10.315688      -280.7041
   5   2.0000     -10.312140      -280.6076
   6   2.0000     -10.304238      -280.3926
   7   2.0000     -10.300910      -280.3020
   8   2.0000     -10.295885      -280.1653
   9   2.0000     -10.294977      -280.1406
  10   2.0000     -10.293395      -280.0975
  11   2.0000     -10.293311      -280.0952
  12   2.0000     -10.284980      -279.8685
  13   2.0000     -10.284076      -279.8439
  14   2.0000     -10.284038      -279.8429
  15   2.0000     -10.274993      -279.5968
  16   2.0000      -8.081924      -219.9203
  17   2.0000      -8.081520      -219.9094
  18   2.0000      -6.040544      -164.3716
  19   2.0000      -6.040026      -164.3575
  20   2.0000      -6.036557      -164.2631
  21   2.0000      -6.036022      -164.2485
  22   2.0000      -6.032642      -164.1565
  23   2.0000      -6.032311      -164.1475
  24   2.0000      -1.005418       -27.3588
  25   2.0000      -0.981928       -26.7196
  26   2.0000      -0.918717       -24.9996
  27   2.0000      -0.912681       -24.8353
  28   2.0000      -0.866730       -23.5849
  29   2.0000      -0.855904       -23.2903
  30   2.0000      -0.844366       -22.9764
  31   2.0000      -0.809986       -22.0408
  32   2.0000      -0.783510       -21.3204
  33   2.0000      -0.772167       -21.0117
  34   2.0000      -0.710145       -19.3240
  35   2.0000      -0.701773       -19.0962
  36   2.0000      -0.693673       -18.8758
  37   2.0000      -0.664630       -18.0855
  38   2.0000      -0.642557       -17.4849
  39   2.0000      -0.619222       -16.8499
  40   2.0000      -0.596614       -16.2347
  41   2.0000      -0.576937       -15.6992
  42   2.0000      -0.574855       -15.6426
  43   2.0000      -0.546561       -14.8727
  44   2.0000      -0.544596       -14.8192
  45   2.0000      -0.531878       -14.4731
  46   2.0000      -0.516870       -14.0647
  47   2.0000      -0.509872       -13.8743
  48   2.0000      -0.503000       -13.6873
  49   2.0000      -0.501761       -13.6536
  50   2.0000      -0.483597       -13.1593
  51   2.0000      -0.482254       -13.1228
  52   2.0000      -0.470331       -12.7984
  53   2.0000      -0.463635       -12.6162
  54   2.0000      -0.460235       -12.5236
  55   2.0000      -0.447082       -12.1657
  56   2.0000      -0.446351       -12.1458
  57   2.0000      -0.436088       -11.8666
  58   2.0000      -0.427652       -11.6370
  59   2.0000      -0.422649       -11.5009
  60   2.0000      -0.418463       -11.3870
  61   2.0000      -0.416222       -11.3260
  62   2.0000      -0.412441       -11.2231
  63   2.0000      -0.356217        -9.6931
  64   2.0000      -0.333307        -9.0698
  65   2.0000      -0.330132        -8.9833
  66   2.0000      -0.281331        -7.6554
  67   0.0000       0.017983         0.4893
  68   0.0000       0.073664         2.0045
  69   0.0000       0.102463         2.7882
  70   0.0000       0.120159         3.2697
  71   0.0000       0.125987         3.4283

MULLIKEN ATOMIC CHARGES
-----------------------
   0 S :    0.090083
   1 C :   -0.117059
   2 C :   -0.048061
   3 C :   -0.008580
   4 C :   -0.109411
   5 H :    0.010879
   6 C :    0.028170
   7 H :    0.018582
   8 H :    0.035949
   9 C :   -0.048964
  10 H :    0.042091
  11 H :    0.033046
  12 C :   -0.095368
  13 H :    0.063086
  14 H :    0.030138
  15 H :    0.035067
  16 S :    0.105450
  17 C :   -0.093766
  18 C :   -0.059975
  19 C :   -0.022219
  20 C :   -0.140968
  21 H :    0.020852
  22 C :    0.108379
  23 H :    0.033660
  24 H :   -0.000861
  25 C :   -0.089724
  26 H :    0.023907
  27 H :    0.029164
  28 C :   -0.034598
  29 H :    0.031478
  30 H :    0.033768
  31 H :    0.018336
  32 H :    0.023847
  33 H :    0.053622
Sum of atomic charges:   -0.0000000

LOEWDIN ATOMIC CHARGES
----------------------
   0 S :    0.385695
   1 C :   -0.170784
   2 C :   -0.058470
   3 C :   -0.068196
   4 C :   -0.182589
   5 H :    0.030948
   6 C :   -0.042756
   7 H :    0.027961
   8 H :    0.036674
   9 C :   -0.041414
  10 H :    0.029749
  11 H :    0.027003
  12 C :   -0.078400
  13 H :    0.036448
  14 H :    0.029155
  15 H :    0.025325
  16 S :    0.404697
  17 C :   -0.194710
  18 C :   -0.073444
  19 C :   -0.051853
  20 C :   -0.188160
  21 H :    0.031784
  22 C :   -0.023565
  23 H :    0.045931
  24 H :    0.013491
  25 C :   -0.039854
  26 H :    0.015838
  27 H :    0.025770
  28 C :   -0.058882
  29 H :    0.025971
  30 H :    0.023893
  31 H :    0.020221
  32 H :    0.006822
  33 H :    0.029702

  Mayer bond orders larger than 0.100000
B(  0-S ,  1-C ) :   1.1284 B(  0-S ,  4-C ) :   1.1522 B(  1-C ,  2-C ) :   1.5699
B(  1-C , 32-H ) :   0.9900 B(  2-C ,  3-C ) :   1.2798 B(  2-C ,  6-C ) :   1.0228
B(  3-C ,  4-C ) :   1.5262 B(  3-C ,  5-H ) :   0.9909 B(  4-C , 20-C ) :   1.0911
B(  6-C ,  7-H ) :   0.9460 B(  6-C ,  8-H ) :   0.9301 B(  6-C ,  9-C ) :   1.0737
B(  9-C , 10-H ) :   0.9535 B(  9-C , 11-H ) :   0.9537 B(  9-C , 12-C ) :   1.0635
B( 12-C , 13-H ) :   0.9749 B( 12-C , 14-H ) :   0.9734 B( 12-C , 15-H ) :   0.9751
B( 16-S , 17-C ) :   1.1574 B( 16-S , 20-C ) :   1.1268 B( 17-C , 18-C ) :   1.6178
B( 17-C , 33-H ) :   0.9674 B( 18-C , 19-C ) :   1.2383 B( 18-C , 21-H ) :   0.9883
B( 19-C , 20-C ) :   1.5739 B( 19-C , 22-C ) :   1.0474 B( 22-C , 23-H ) :   0.9249
B( 22-C , 24-H ) :   0.9383 B( 22-C , 25-C ) :   1.0624 B( 25-C , 26-H ) :   0.9570
B( 25-C , 27-H ) :   0.9561 B( 25-C , 28-C ) :   1.0818 B( 28-C , 29-H ) :   0.9768
B( 28-C , 30-H ) :   0.9750 B( 28-C , 31-H ) :   0.9713

Dispersion correction           -0.014584031
FINAL SINGLE POINT ENERGY     -1339.865605949632

DIPOLE MOMENT
-------------
                                X             Y             Z
Electronic contribution:    -26.95990      -2.43825       3.59169
Nuclear contribution   :     27.57794       2.36006      -3.77590
                        -----------------------------------------
Total Dipole Moment    :      0.61804      -0.07819      -0.18421
                        -----------------------------------------
Magnitude (a.u.)       :      0.64963
Magnitude (Debye)      :      1.65122

Rotational constants in cm-1:     0.016883     0.009850     0.007156
Rotational constants in MHz :   506.129188   295.303147   214.526448

                             ****ORCA TERMINATED NORMALLY****
TOTAL RUN TIME: 0 days 0 hours 0 minutes 20 seconds 969 msec
