                         Program Version 4.2.1 -  RELEASE  -
|  1> ! wB97X-D3 SP def2-SVP
|  2> %pal
|  3> nprocs 24
|  4> end
|  5>
|  6> * xyz 0 1
|  7> S 	 -90.4878 	 -31.8121 	 -72.9878
|  8> C 	 -90.0092 	 -32.8861 	 -74.264
|  9> C 	 -90.9157 	 -32.8582 	 -75.2843
| 10> C 	 -91.9953 	 -31.9758 	 -75.0291
| 11> C 	 -91.9233 	 -31.2813 	 -73.8298
| 12> H 	 -92.8464 	 -31.8611 	 -75.649
| 13> C 	 -90.7292 	 -33.5879 	 -76.6283
| 14> H 	 -89.7137 	 -33.915 	 -76.8061
| 15> H 	 -91.0103 	 -32.8769 	 -77.3666
| 16> C 	 -91.5917 	 -34.9599 	 -76.5903
| 17> H 	 -91.1901 	 -35.6898 	 -77.3258
| 18> H 	 -91.5147 	 -35.354 	 -75.5487
| 19> C 	 -93.1162 	 -34.8069 	 -76.9355
| 20> H 	 -93.1565 	 -34.4622 	 -77.9918
| 21> H 	 -93.6064 	 -35.76 	 -76.7705
| 22> H 	 -93.724 	 -34.2386 	 -76.1674
| 23> S 	 -92.639 	 -30.1314 	 -71.5231
| 24> C 	 -93.884 	 -28.8695 	 -71.5108
| 25> C 	 -94.3033 	 -28.6277 	 -72.7779
| 26> C 	 -93.6592 	 -29.4643 	 -73.755
| 27> C 	 -92.7612 	 -30.3502 	 -73.2139
| 28> H 	 -94.9248 	 -27.7634 	 -72.9978
| 29> C 	 -93.9344 	 -29.2849 	 -75.2515
| 30> H 	 -94.7128 	 -28.5509 	 -75.4232
| 31> H 	 -94.217 	 -30.2832 	 -75.6764
| 32> C 	 -92.7392 	 -28.6222 	 -76.0637
| 33> H 	 -91.9068 	 -29.0898 	 -75.6385
| 34> H 	 -92.717 	 -27.5083 	 -76.1298
| 35> C 	 -92.9359 	 -28.9218 	 -77.5034
| 36> H 	 -94.0187 	 -28.7698 	 -77.8213
| 37> H 	 -92.7101 	 -29.9422 	 -77.5304
| 38> H 	 -92.3249 	 -28.2487 	 -78.1286
| 39> H 	 -89.0861 	 -33.4167 	 -74.4787
| 40> H 	 -94.1311 	 -28.1845 	 -70.7523
| 41> *
| 42>
| 43>                          ****END OF INPUT****

CARTESIAN COORDINATES (ANGSTROEM)
---------------------------------
  S    -90.487800  -31.812100  -72.987800
  C    -90.009200  -32.886100  -74.264000
  C    -90.915700  -32.858200  -75.284300
  C    -91.995300  -31.975800  -75.029100
  C    -91.923300  -31.281300  -73.829800
  H    -92.846400  -31.861100  -75.649000
  C    -90.729200  -33.587900  -76.628300
  H    -89.713700  -33.915000  -76.806100
  H    -91.010300  -32.876900  -77.366600
  C    -91.591700  -34.959900  -76.590300
  H    -91.190100  -35.689800  -77.325800
  H    -91.514700  -35.354000  -75.548700
  C    -93.116200  -34.806900  -76.935500
  H    -93.156500  -34.462200  -77.991800
  H    -93.606400  -35.760000  -76.770500
  H    -93.724000  -34.238600  -76.167400
  S    -92.639000  -30.131400  -71.523100
  C    -93.884000  -28.869500  -71.510800
  C    -94.303300  -28.627700  -72.777900
  C    -93.659200  -29.464300  -73.755000
  C    -92.761200  -30.350200  -73.213900
  H    -94.924800  -27.763400  -72.997800
  C    -93.934400  -29.284900  -75.251500
  H    -94.712800  -28.550900  -75.423200
  H    -94.217000  -30.283200  -75.676400
  C    -92.739200  -28.622200  -76.063700
  H    -91.906800  -29.089800  -75.638500
  H    -92.717000  -27.508300  -76.129800
  C    -92.935900  -28.921800  -77.503400
  H    -94.018700  -28.769800  -77.821300
  H    -92.710100  -29.942200  -77.530400
  H    -92.324900  -28.248700  -78.128600
  H    -89.086100  -33.416700  -74.478700
  H    -94.131100  -28.184500  -70.752300

 Total Charge           Charge          ....    0
 Multiplicity           Mult            ....    1
 Number of Electrons    NEL             ....  134
 Basis Dimension        Dim             ....  322

ORBITAL ENERGIES
----------------

  NO   OCC          E(Eh)            E(eV)
   0   2.0000     -88.967209     -2420.9208
   1   2.0000     -88.966112     -2420.8910
   2   2.0000     -10.330083      -281.0959
   3   2.0000     -10.322056      -280.8774
   4   2.0000     -10.313565      -280.6464
   5   2.0000     -10.310129      -280.5529
   6   2.0000     -10.301974      -280.3310
   7   2.0000     -10.299066      -280.2518
   8   2.0000     -10.298701      -280.2419
   9   2.0000     -10.297339      -280.2048
  10   2.0000     -10.297279      -280.2032
  11   2.0000     -10.293420      -280.0982
  12   2.0000     -10.292121      -280.0629
  13   2.0000     -10.286210      -279.9020
  14   2.0000     -10.279159      -279.7101
  15   2.0000     -10.274019      -279.5703
  16   2.0000      -8.082184      -219.9274
  17   2.0000      -8.081355      -219.9048
  18   2.0000      -6.040780      -164.3780
  19   2.0000      -6.040045      -164.3580
  20   2.0000      -6.036608      -164.2645
  21   2.0000      -6.035785      -164.2421
  22   2.0000      -6.032865      -164.1626
  23   2.0000      -6.031883      -164.1359
  24   2.0000      -1.019161       -27.7328
  25   2.0000      -0.989618       -26.9289
  26   2.0000      -0.912664       -24.8349
  27   2.0000      -0.905984       -24.6531
  28   2.0000      -0.876618       -23.8540
  29   2.0000      -0.856725       -23.3127
  30   2.0000      -0.841591       -22.9009
  31   2.0000      -0.822125       -22.3712
  32   2.0000      -0.782246       -21.2860
  33   2.0000      -0.768914       -20.9232
  34   2.0000      -0.715035       -19.4571
  35   2.0000      -0.695585       -18.9278
  36   2.0000      -0.686942       -18.6927
  37   2.0000      -0.671267       -18.2661
  38   2.0000      -0.638195       -17.3662
  39   2.0000      -0.624347       -16.9893
  40   2.0000      -0.593782       -16.1576
  41   2.0000      -0.583626       -15.8813
  42   2.0000      -0.573748       -15.6125
  43   2.0000      -0.548717       -14.9314
  44   2.0000      -0.533607       -14.5202
  45   2.0000      -0.530070       -14.4239
  46   2.0000      -0.521389       -14.1877
  47   2.0000      -0.514188       -13.9918
  48   2.0000      -0.512805       -13.9541
  49   2.0000      -0.508200       -13.8288
  50   2.0000      -0.488639       -13.2965
  51   2.0000      -0.483693       -13.1619
  52   2.0000      -0.476617       -12.9694
  53   2.0000      -0.465185       -12.6583
  54   2.0000      -0.459863       -12.5135
  55   2.0000      -0.454025       -12.3547
  56   2.0000      -0.440608       -11.9895
  57   2.0000      -0.434000       -11.8098
  58   2.0000      -0.428289       -11.6543
  59   2.0000      -0.424050       -11.5390
  60   2.0000      -0.421308       -11.4644
  61   2.0000      -0.409121       -11.1327
  62   2.0000      -0.398909       -10.8549
  63   2.0000      -0.367381        -9.9969
  64   2.0000      -0.337008        -9.1705
  65   2.0000      -0.327370        -8.9082
  66   2.0000      -0.283671        -7.7191
  67   0.0000       0.016610         0.4520
  68   0.0000       0.083968         2.2849
  69   0.0000       0.101855         2.7716
  70   0.0000       0.116589         3.1725
  71   0.0000       0.138688         3.7739

MULLIKEN ATOMIC CHARGES
-----------------------
   0 S :    0.099665
   1 C :   -0.089773
   2 C :   -0.119863
   3 C :    0.014653
   4 C :   -0.123177
   5 H :   -0.022529
   6 C :    0.091721
   7 H :    0.020283
   8 H :    0.029012
   9 C :   -0.110262
  10 H :    0.042600
  11 H :    0.044780
  12 C :   -0.081492
  13 H :    0.049874
  14 H :    0.032692
  15 H :    0.043278
  16 S :    0.096853
  17 C :   -0.057719
  18 C :   -0.031567
  19 C :   -0.063110
  20 C :   -0.096534
  21 H :    0.022427
  22 C :    0.001752
  23 H :    0.016315
  24 H :    0.050394
  25 C :   -0.053030
  26 H :    0.031781
  27 H :    0.036522
  28 C :   -0.038173
  29 H :    0.032721
  30 H :    0.008794
  31 H :    0.038207
  32 H :    0.041836
  33 H :    0.041070
Sum of atomic charges:   -0.0000000

LOEWDIN ATOMIC CHARGES
----------------------
   0 S :    0.411103
   1 C :   -0.208332
   2 C :   -0.062756
   3 C :   -0.068728
   4 C :   -0.182379
   5 H :    0.018387
   6 C :   -0.021759
   7 H :    0.027959
   8 H :    0.025014
   9 C :   -0.039674
  10 H :    0.024993
  11 H :    0.029493
  12 C :   -0.081860
  13 H :    0.030047
  14 H :    0.026640
  15 H :    0.031618
  16 S :    0.409639
  17 C :   -0.173823
  18 C :   -0.064607
  19 C :   -0.059761
  20 C :   -0.212428
  21 H :    0.034666
  22 C :   -0.031197
  23 H :    0.027895
  24 H :    0.032001
  25 C :   -0.034558
  26 H :    0.014964
  27 H :    0.030010
  28 C :   -0.062002
  29 H :    0.029450
  30 H :    0.012533
  31 H :    0.026585
  32 H :    0.035497
  33 H :    0.025368

  Mayer bond orders larger than 0.100000
B(  0-S ,  1-C ) :   1.1308 B(  0-S ,  4-C ) :   1.1377 B(  1-C ,  2-C ) :   1.6297
B(  1-C , 32-H ) :   0.9585 B(  2-C ,  3-C ) :   1.2545 B(  2-C ,  6-C ) :   1.0193
B(  3-C ,  4-C ) :   1.5360 B(  3-C ,  5-H ) :   0.9971 B(  4-C , 20-C ) :   1.1257
B(  6-C ,  7-H ) :   0.9440 B(  6-C ,  8-H ) :   0.9519 B(  6-C ,  9-C ) :   1.0377
B(  9-C , 10-H ) :   0.9622 B(  9-C , 11-H ) :   0.9580 B(  9-C , 12-C ) :   1.0792
B( 12-C , 13-H ) :   0.9771 B( 12-C , 14-H ) :   0.9706 B( 12-C , 15-H ) :   0.9697
B( 16-S , 17-C ) :   1.1309 B( 16-S , 20-C ) :   1.1236 B( 17-C , 18-C ) :   1.6341
B( 17-C , 33-H ) :   0.9683 B( 18-C , 19-C ) :   1.2570 B( 18-C , 21-H ) :   0.9836
B( 19-C , 20-C ) :   1.5743 B( 19-C , 22-C ) :   1.0418 B( 22-C , 23-H ) :   0.9286
B( 22-C , 24-H ) :   0.9448 B( 22-C , 25-C ) :   1.0445 B( 25-C , 26-H ) :   0.9654
B( 25-C , 27-H ) :   0.9623 B( 25-C , 28-C ) :   1.0674 B( 28-C , 29-H ) :   0.9678
B( 28-C , 30-H ) :   0.9795 B( 28-C , 31-H ) :   0.9742

Dispersion correction           -0.015023179
FINAL SINGLE POINT ENERGY     -1339.855326242491

DIPOLE MOMENT
-------------
                                X             Y             Z
Electronic contribution:      6.53672       5.12198      28.27888
Nuclear contribution   :     -6.68158      -4.99762     -28.92986
                        -----------------------------------------
Total Dipole Moment    :     -0.14485       0.12437      -0.65098
                        -----------------------------------------
Magnitude (a.u.)       :      0.67840
Magnitude (Debye)      :      1.72436

Rotational constants in cm-1:     0.018448     0.009769     0.007523
Rotational constants in MHz :   553.065679   292.873806   225.526239

                             ****ORCA TERMINATED NORMALLY****
TOTAL RUN TIME: 0 days 0 hours 0 minutes 21 seconds 527 msec
