                         Program Version 4.2.1 -  RELEASE  -
|  1> ! wB97X-D3 SP def2-SVP
|  2> %pal
|  3> nprocs 24
|  4> end
|  5>
|  6> * xyz 0 1
|  7> S 	 -49.0087 	 -43.8566 	 -77.5281
|  8> C 	 -49.7609 	 -42.24 	 -77.8123
|  9> C 	 -49.1434 	 -41.2202 	 -77.0698
| 10> C 	 -48.0131 	 -41.7209 	 -76.3283
| 11> C 	 -47.7446 	 -43.0895 	 -76.5541
| 12> H 	 -47.3405 	 -41.1131 	 -75.792
| 13> C 	 -49.5943 	 -39.7562 	 -77.1394
| 14> H 	 -49.9986 	 -39.6588 	 -78.1455
| 15> H 	 -48.7553 	 -39.0962 	 -77.2493
| 16> C 	 -50.5978 	 -39.4772 	 -76.0181
| 17> H 	 -51.3795 	 -40.2094 	 -76.137
| 18> H 	 -50.1193 	 -39.8476 	 -75.0584
| 19> C 	 -51.1255 	 -38.0865 	 -75.9068
| 20> H 	 -51.7161 	 -37.9206 	 -75.0164
| 21> H 	 -50.2768 	 -37.3903 	 -75.9584
| 22> H 	 -51.7005 	 -37.8828 	 -76.8099
| 23> S 	 -47.3673 	 -45.2434 	 -74.9179
| 24> C 	 -45.7342 	 -45.7071 	 -74.4967
| 25> C 	 -44.8006 	 -45.0529 	 -75.2321
| 26> C 	 -45.379 	 -44.1326 	 -76.1299
| 27> C 	 -46.7645 	 -43.9834 	 -75.9593
| 28> H 	 -43.808 	 -45.4025 	 -75.1873
| 29> C 	 -44.4972 	 -43.3637 	 -77.0076
| 30> H 	 -43.4837 	 -43.427 	 -76.6308
| 31> H 	 -44.8488 	 -42.3121 	 -76.9632
| 32> C 	 -44.4983 	 -43.7501 	 -78.5003
| 33> H 	 -45.5344 	 -43.7338 	 -78.9209
| 34> H 	 -44.181 	 -44.8052 	 -78.5792
| 35> C 	 -43.8432 	 -42.7342 	 -79.4165
| 36> H 	 -42.7355 	 -43.0063 	 -79.5112
| 37> H 	 -43.797 	 -41.734 	 -79.0449
| 38> H 	 -44.3032 	 -42.6561 	 -80.4172
| 39> H 	 -50.6155 	 -42.0329 	 -78.3886
| 40> H 	 -45.4849 	 -46.4089 	 -73.7027
| 41> *
| 42>
| 43>                          ****END OF INPUT****

CARTESIAN COORDINATES (ANGSTROEM)
---------------------------------
  S    -49.008700  -43.856600  -77.528100
  C    -49.760900  -42.240000  -77.812300
  C    -49.143400  -41.220200  -77.069800
  C    -48.013100  -41.720900  -76.328300
  C    -47.744600  -43.089500  -76.554100
  H    -47.340500  -41.113100  -75.792000
  C    -49.594300  -39.756200  -77.139400
  H    -49.998600  -39.658800  -78.145500
  H    -48.755300  -39.096200  -77.249300
  C    -50.597800  -39.477200  -76.018100
  H    -51.379500  -40.209400  -76.137000
  H    -50.119300  -39.847600  -75.058400
  C    -51.125500  -38.086500  -75.906800
  H    -51.716100  -37.920600  -75.016400
  H    -50.276800  -37.390300  -75.958400
  H    -51.700500  -37.882800  -76.809900
  S    -47.367300  -45.243400  -74.917900
  C    -45.734200  -45.707100  -74.496700
  C    -44.800600  -45.052900  -75.232100
  C    -45.379000  -44.132600  -76.129900
  C    -46.764500  -43.983400  -75.959300
  H    -43.808000  -45.402500  -75.187300
  C    -44.497200  -43.363700  -77.007600
  H    -43.483700  -43.427000  -76.630800
  H    -44.848800  -42.312100  -76.963200
  C    -44.498300  -43.750100  -78.500300
  H    -45.534400  -43.733800  -78.920900
  H    -44.181000  -44.805200  -78.579200
  C    -43.843200  -42.734200  -79.416500
  H    -42.735500  -43.006300  -79.511200
  H    -43.797000  -41.734000  -79.044900
  H    -44.303200  -42.656100  -80.417200
  H    -50.615500  -42.032900  -78.388600
  H    -45.484900  -46.408900  -73.702700

 Total Charge           Charge          ....    0
 Multiplicity           Mult            ....    1
 Number of Electrons    NEL             ....  134
 Basis Dimension        Dim             ....  322

ORBITAL ENERGIES
----------------

  NO   OCC          E(Eh)            E(eV)
   0   2.0000     -88.968892     -2420.9666
   1   2.0000     -88.964461     -2420.8460
   2   2.0000     -10.334886      -281.2265
   3   2.0000     -10.324182      -280.9353
   4   2.0000     -10.315733      -280.7054
   5   2.0000     -10.313757      -280.6516
   6   2.0000     -10.306168      -280.4451
   7   2.0000     -10.298668      -280.2410
   8   2.0000     -10.298100      -280.2256
   9   2.0000     -10.293335      -280.0959
  10   2.0000     -10.286860      -279.9197
  11   2.0000     -10.285378      -279.8794
  12   2.0000     -10.284650      -279.8596
  13   2.0000     -10.284482      -279.8550
  14   2.0000     -10.278127      -279.6821
  15   2.0000     -10.277809      -279.6734
  16   2.0000      -8.082144      -219.9263
  17   2.0000      -8.079524      -219.8550
  18   2.0000      -6.040724      -164.3764
  19   2.0000      -6.037940      -164.3007
  20   2.0000      -6.036870      -164.2716
  21   2.0000      -6.034006      -164.1937
  22   2.0000      -6.032911      -164.1639
  23   2.0000      -6.030337      -164.0938
  24   2.0000      -1.005614       -27.3642
  25   2.0000      -0.977026       -26.5862
  26   2.0000      -0.915098       -24.9011
  27   2.0000      -0.909374       -24.7453
  28   2.0000      -0.871038       -23.7022
  29   2.0000      -0.851706       -23.1761
  30   2.0000      -0.844669       -22.9846
  31   2.0000      -0.816724       -22.2242
  32   2.0000      -0.784037       -21.3347
  33   2.0000      -0.767095       -20.8737
  34   2.0000      -0.707679       -19.2569
  35   2.0000      -0.701107       -19.0781
  36   2.0000      -0.689567       -18.7641
  37   2.0000      -0.664411       -18.0795
  38   2.0000      -0.642813       -17.4918
  39   2.0000      -0.619157       -16.8481
  40   2.0000      -0.595480       -16.2038
  41   2.0000      -0.571433       -15.5495
  42   2.0000      -0.562139       -15.2966
  43   2.0000      -0.553416       -15.0592
  44   2.0000      -0.535576       -14.5738
  45   2.0000      -0.525303       -14.2942
  46   2.0000      -0.518382       -14.1059
  47   2.0000      -0.506873       -13.7927
  48   2.0000      -0.505727       -13.7615
  49   2.0000      -0.500171       -13.6103
  50   2.0000      -0.495704       -13.4888
  51   2.0000      -0.486348       -13.2342
  52   2.0000      -0.470701       -12.8084
  53   2.0000      -0.459043       -12.4912
  54   2.0000      -0.455102       -12.3840
  55   2.0000      -0.452085       -12.3019
  56   2.0000      -0.442162       -12.0318
  57   2.0000      -0.438478       -11.9316
  58   2.0000      -0.432437       -11.7672
  59   2.0000      -0.427738       -11.6394
  60   2.0000      -0.424634       -11.5549
  61   2.0000      -0.409399       -11.1403
  62   2.0000      -0.400453       -10.8969
  63   2.0000      -0.340246        -9.2586
  64   2.0000      -0.332290        -9.0421
  65   2.0000      -0.325826        -8.8662
  66   2.0000      -0.292856        -7.9690
  67   0.0000       0.033629         0.9151
  68   0.0000       0.052493         1.4284
  69   0.0000       0.105310         2.8656
  70   0.0000       0.125099         3.4041
  71   0.0000       0.130656         3.5553

MULLIKEN ATOMIC CHARGES
-----------------------
   0 S :    0.102597
   1 C :   -0.088873
   2 C :   -0.137729
   3 C :    0.083764
   4 C :   -0.173276
   5 H :   -0.002981
   6 C :    0.081150
   7 H :    0.011889
   8 H :    0.016876
   9 C :   -0.087118
  10 H :    0.017233
  11 H :    0.030488
  12 C :    0.008823
  13 H :    0.044304
  14 H :    0.024443
  15 H :    0.025130
  16 S :    0.113797
  17 C :   -0.091980
  18 C :   -0.025261
  19 C :   -0.010008
  20 C :   -0.171625
  21 H :    0.007402
  22 C :    0.076306
  23 H :    0.017949
  24 H :    0.022099
  25 C :   -0.092390
  26 H :    0.035418
  27 H :    0.032285
  28 C :   -0.051656
  29 H :    0.031815
  30 H :    0.021578
  31 H :    0.044337
  32 H :    0.026643
  33 H :    0.056571
Sum of atomic charges:   -0.0000000

LOEWDIN ATOMIC CHARGES
----------------------
   0 S :    0.380227
   1 C :   -0.178983
   2 C :   -0.052142
   3 C :   -0.053297
   4 C :   -0.184517
   5 H :    0.023705
   6 C :   -0.030431
   7 H :    0.029006
   8 H :    0.025121
   9 C :   -0.046779
  10 H :    0.022255
  11 H :    0.029998
  12 C :   -0.063694
  13 H :    0.029453
  14 H :    0.026771
  15 H :    0.026792
  16 S :    0.412445
  17 C :   -0.177875
  18 C :   -0.072439
  19 C :   -0.052054
  20 C :   -0.214015
  21 H :    0.028718
  22 C :   -0.035299
  23 H :    0.027664
  24 H :    0.035378
  25 C :   -0.048092
  26 H :    0.030804
  27 H :    0.025262
  28 C :   -0.072799
  29 H :    0.030486
  30 H :    0.020757
  31 H :    0.030762
  32 H :    0.016302
  33 H :    0.030511

  Mayer bond orders larger than 0.100000
B(  0-S ,  1-C ) :   1.1239 B(  0-S ,  4-C ) :   1.1435 B(  1-C ,  2-C ) :   1.6294
B(  1-C ,  4-C ) :   0.1058 B(  1-C , 32-H ) :   0.9675 B(  2-C ,  3-C ) :   1.2342
B(  2-C ,  6-C ) :   1.0174 B(  3-C ,  4-C ) :   1.5853 B(  3-C ,  5-H ) :   0.9963
B(  4-C , 20-C ) :   1.0264 B(  6-C ,  7-H ) :   0.9380 B(  6-C ,  8-H ) :   0.9412
B(  6-C ,  9-C ) :   1.0444 B(  9-C , 10-H ) :   0.9516 B(  9-C , 11-H ) :   0.9567
B(  9-C , 12-C ) :   1.0822 B( 12-C , 13-H ) :   0.9722 B( 12-C , 14-H ) :   0.9711
B( 12-C , 15-H ) :   0.9697 B( 16-S , 17-C ) :   1.1611 B( 16-S , 20-C ) :   1.1458
B( 17-C , 18-C ) :   1.6106 B( 17-C , 20-C ) :   0.1008 B( 17-C , 33-H ) :   0.9630
B( 18-C , 19-C ) :   1.2487 B( 18-C , 21-H ) :   0.9970 B( 19-C , 20-C ) :   1.5674
B( 19-C , 22-C ) :   1.0659 B( 22-C , 23-H ) :   0.9338 B( 22-C , 24-H ) :   0.9215
B( 22-C , 25-C ) :   1.0638 B( 25-C , 26-H ) :   0.9621 B( 25-C , 27-H ) :   0.9558
B( 25-C , 28-C ) :   1.0658 B( 28-C , 29-H ) :   0.9735 B( 28-C , 30-H ) :   0.9719
B( 28-C , 31-H ) :   0.9797

Dispersion correction           -0.013809615
FINAL SINGLE POINT ENERGY     -1339.872742080763

DIPOLE MOMENT
-------------
                                X             Y             Z
Electronic contribution:     -4.22538     -22.16528       8.24624
Nuclear contribution   :      4.46036      22.64154      -8.28500
                        -----------------------------------------
Total Dipole Moment    :      0.23499       0.47626      -0.03876
                        -----------------------------------------
Magnitude (a.u.)       :      0.53249
Magnitude (Debye)      :      1.35349

Rotational constants in cm-1:     0.019378     0.007641     0.006526
Rotational constants in MHz :   580.924028   229.061397   195.632210

                             ****ORCA TERMINATED NORMALLY****
TOTAL RUN TIME: 0 days 0 hours 0 minutes 21 seconds 44 msec
