                         Program Version 4.2.1 -  RELEASE  -
|  1> ! wB97X-D3 SP def2-SVP
|  2> %pal
|  3> nprocs 24
|  4> end
|  5>
|  6> * xyz 0 1
|  7> S 	 -41.2765 	 14.9197 	 25.5705
|  8> C 	 -42.4064 	 15.8159 	 26.7012
|  9> C 	 -43.4406 	 16.4177 	 26.0621
| 10> C 	 -43.2132 	 16.3805 	 24.6462
| 11> C 	 -42.1651 	 15.6403 	 24.1657
| 12> H 	 -44.0258 	 16.8033 	 24.0544
| 13> C 	 -44.5712 	 17.2065 	 26.7076
| 14> H 	 -45.0655 	 16.4229 	 27.2883
| 15> H 	 -45.405 	 17.5045 	 26.0016
| 16> C 	 -44.1356 	 18.4443 	 27.5703
| 17> H 	 -43.3314 	 18.0706 	 28.1706
| 18> H 	 -43.6958 	 19.2264 	 26.9258
| 19> C 	 -45.4279 	 18.9789 	 28.3273
| 20> H 	 -45.7787 	 18.235 	 29.0414
| 21> H 	 -45.4231 	 19.8947 	 28.9003
| 22> H 	 -46.2961 	 19.1824 	 27.663
| 23> S 	 -41.1308 	 13.9505 	 22.2764
| 24> C 	 -41.0271 	 14.4841 	 20.6687
| 25> C 	 -41.4844 	 15.7761 	 20.5157
| 26> C 	 -42.0233 	 16.3348 	 21.6881
| 27> C 	 -41.7692 	 15.5049 	 22.7894
| 28> H 	 -41.3705 	 16.1714 	 19.5269
| 29> C 	 -42.5368 	 17.7478 	 21.6876
| 30> H 	 -42.098 	 18.34 	 20.7967
| 31> H 	 -42.2606 	 18.1852 	 22.6411
| 32> C 	 -44.0161 	 17.928 	 21.3271
| 33> H 	 -44.6602 	 17.3957 	 22.0502
| 34> H 	 -44.2538 	 17.6763 	 20.3065
| 35> C 	 -44.4217 	 19.3814 	 21.4422
| 36> H 	 -43.7332 	 19.9869 	 20.7967
| 37> H 	 -44.6445 	 19.7769 	 22.4682
| 38> H 	 -45.3292 	 19.5548 	 20.8952
| 39> H 	 -42.3726 	 15.6177 	 27.7374
| 40> H 	 -40.7322 	 13.9118 	 19.7701
| 41> *
| 42>
| 43>                          ****END OF INPUT****

CARTESIAN COORDINATES (ANGSTROEM)
---------------------------------
  S    -41.276500   14.919700   25.570500
  C    -42.406400   15.815900   26.701200
  C    -43.440600   16.417700   26.062100
  C    -43.213200   16.380500   24.646200
  C    -42.165100   15.640300   24.165700
  H    -44.025800   16.803300   24.054400
  C    -44.571200   17.206500   26.707600
  H    -45.065500   16.422900   27.288300
  H    -45.405000   17.504500   26.001600
  C    -44.135600   18.444300   27.570300
  H    -43.331400   18.070600   28.170600
  H    -43.695800   19.226400   26.925800
  C    -45.427900   18.978900   28.327300
  H    -45.778700   18.235000   29.041400
  H    -45.423100   19.894700   28.900300
  H    -46.296100   19.182400   27.663000
  S    -41.130800   13.950500   22.276400
  C    -41.027100   14.484100   20.668700
  C    -41.484400   15.776100   20.515700
  C    -42.023300   16.334800   21.688100
  C    -41.769200   15.504900   22.789400
  H    -41.370500   16.171400   19.526900
  C    -42.536800   17.747800   21.687600
  H    -42.098000   18.340000   20.796700
  H    -42.260600   18.185200   22.641100
  C    -44.016100   17.928000   21.327100
  H    -44.660200   17.395700   22.050200
  H    -44.253800   17.676300   20.306500
  C    -44.421700   19.381400   21.442200
  H    -43.733200   19.986900   20.796700
  H    -44.644500   19.776900   22.468200
  H    -45.329200   19.554800   20.895200
  H    -42.372600   15.617700   27.737400
  H    -40.732200   13.911800   19.770100

 Total Charge           Charge          ....    0
 Multiplicity           Mult            ....    1
 Number of Electrons    NEL             ....  134
 Basis Dimension        Dim             ....  322

ORBITAL ENERGIES
----------------

  NO   OCC          E(Eh)            E(eV)
   0   2.0000     -88.968300     -2420.9505
   1   2.0000     -88.965000     -2420.8607
   2   2.0000     -10.334134      -281.2061
   3   2.0000     -10.327770      -281.0329
   4   2.0000     -10.314594      -280.6744
   5   2.0000     -10.313511      -280.6449
   6   2.0000     -10.304056      -280.3876
   7   2.0000     -10.302788      -280.3531
   8   2.0000     -10.301288      -280.3123
   9   2.0000     -10.300577      -280.2930
  10   2.0000     -10.296971      -280.1948
  11   2.0000     -10.291491      -280.0457
  12   2.0000     -10.287659      -279.9414
  13   2.0000     -10.287508      -279.9373
  14   2.0000     -10.286852      -279.9195
  15   2.0000     -10.280775      -279.7541
  16   2.0000      -8.083777      -219.9707
  17   2.0000      -8.077839      -219.8092
  18   2.0000      -6.042122      -164.4145
  19   2.0000      -6.038195      -164.3076
  20   2.0000      -6.036753      -164.2684
  21   2.0000      -6.034658      -164.2114
  22   2.0000      -6.032832      -164.1617
  23   2.0000      -6.028069      -164.0321
  24   2.0000      -1.008523       -27.4433
  25   2.0000      -0.980088       -26.6695
  26   2.0000      -0.915616       -24.9152
  27   2.0000      -0.906449       -24.6657
  28   2.0000      -0.868868       -23.6431
  29   2.0000      -0.859648       -23.3922
  30   2.0000      -0.839402       -22.8413
  31   2.0000      -0.812216       -22.1015
  32   2.0000      -0.782642       -21.2968
  33   2.0000      -0.771910       -21.0047
  34   2.0000      -0.715531       -19.4706
  35   2.0000      -0.707941       -19.2640
  36   2.0000      -0.691249       -18.8098
  37   2.0000      -0.662215       -18.0198
  38   2.0000      -0.634902       -17.2766
  39   2.0000      -0.623293       -16.9607
  40   2.0000      -0.596077       -16.2201
  41   2.0000      -0.578386       -15.7387
  42   2.0000      -0.570719       -15.5300
  43   2.0000      -0.553151       -15.0520
  44   2.0000      -0.529613       -14.4115
  45   2.0000      -0.522726       -14.2241
  46   2.0000      -0.513866       -13.9830
  47   2.0000      -0.508640       -13.8408
  48   2.0000      -0.501126       -13.6363
  49   2.0000      -0.496601       -13.5132
  50   2.0000      -0.487276       -13.2595
  51   2.0000      -0.480421       -13.0729
  52   2.0000      -0.472667       -12.8619
  53   2.0000      -0.460876       -12.5411
  54   2.0000      -0.457968       -12.4619
  55   2.0000      -0.450799       -12.2669
  56   2.0000      -0.445562       -12.1244
  57   2.0000      -0.440072       -11.9750
  58   2.0000      -0.431803       -11.7500
  59   2.0000      -0.427606       -11.6357
  60   2.0000      -0.421935       -11.4814
  61   2.0000      -0.417424       -11.3587
  62   2.0000      -0.414615       -11.2822
  63   2.0000      -0.357584        -9.7304
  64   2.0000      -0.334106        -9.0915
  65   2.0000      -0.331210        -9.0127
  66   2.0000      -0.283191        -7.7060
  67   0.0000       0.020546         0.5591
  68   0.0000       0.071934         1.9574
  69   0.0000       0.101370         2.7584
  70   0.0000       0.121019         3.2931
  71   0.0000       0.130143         3.5414

MULLIKEN ATOMIC CHARGES
-----------------------
   0 S :    0.078217
   1 C :   -0.133272
   2 C :   -0.055840
   3 C :   -0.025078
   4 C :   -0.072052
   5 H :   -0.007189
   6 C :    0.006309
   7 H :    0.037453
   8 H :    0.029889
   9 C :   -0.033294
  10 H :    0.030925
  11 H :    0.044697
  12 C :   -0.065349
  13 H :    0.030293
  14 H :    0.032940
  15 H :    0.030415
  16 S :    0.118560
  17 C :   -0.096668
  18 C :   -0.045091
  19 C :    0.009549
  20 C :   -0.136806
  21 H :    0.007684
  22 C :    0.013779
  23 H :    0.032354
  24 H :    0.040030
  25 C :   -0.063760
  26 H :    0.031285
  27 H :    0.026838
  28 C :   -0.055262
  29 H :    0.022121
  30 H :    0.046892
  31 H :    0.017912
  32 H :    0.037902
  33 H :    0.063617
Sum of atomic charges:   -0.0000000

LOEWDIN ATOMIC CHARGES
----------------------
   0 S :    0.336012
   1 C :   -0.161402
   2 C :   -0.061258
   3 C :   -0.071090
   4 C :   -0.167899
   5 H :    0.028031
   6 C :   -0.037601
   7 H :    0.034989
   8 H :    0.033201
   9 C :   -0.027705
  10 H :    0.021926
  11 H :    0.030651
  12 C :   -0.076328
  13 H :    0.026231
  14 H :    0.024333
  15 H :    0.029787
  16 S :    0.430114
  17 C :   -0.207074
  18 C :   -0.073353
  19 C :   -0.050371
  20 C :   -0.195790
  21 H :    0.029296
  22 C :   -0.034254
  23 H :    0.041273
  24 H :    0.032324
  25 C :   -0.039859
  26 H :    0.019757
  27 H :    0.025178
  28 C :   -0.072730
  29 H :    0.026814
  30 H :    0.030066
  31 H :    0.021931
  32 H :    0.016072
  33 H :    0.038725

  Mayer bond orders larger than 0.100000
B(  0-S ,  1-C ) :   1.1060 B(  0-S ,  4-C ) :   1.1016 B(  1-C ,  2-C ) :   1.6556
B(  1-C , 32-H ) :   0.9649 B(  2-C ,  3-C ) :   1.2358 B(  2-C ,  6-C ) :   1.0052
B(  3-C ,  4-C ) :   1.5893 B(  3-C ,  5-H ) :   0.9842 B(  4-C , 20-C ) :   1.0847
B(  6-C ,  7-H ) :   0.9387 B(  6-C ,  8-H ) :   0.9471 B(  6-C ,  9-C ) :   1.0452
B(  9-C , 10-H ) :   0.9620 B(  9-C , 11-H ) :   0.9606 B(  9-C , 12-C ) :   1.0524
B( 12-C , 13-H ) :   0.9789 B( 12-C , 14-H ) :   0.9785 B( 12-C , 15-H ) :   0.9765
B( 16-S , 17-C ) :   1.1712 B( 16-S , 20-C ) :   1.1404 B( 17-C , 18-C ) :   1.6046
B( 17-C , 33-H ) :   0.9595 B( 18-C , 19-C ) :   1.2541 B( 18-C , 21-H ) :   0.9953
B( 19-C , 20-C ) :   1.5519 B( 19-C , 22-C ) :   1.0442 B( 22-C , 23-H ) :   0.9363
B( 22-C , 24-H ) :   0.9390 B( 22-C , 25-C ) :   1.0637 B( 25-C , 26-H ) :   0.9485
B( 25-C , 27-H ) :   0.9522 B( 25-C , 28-C ) :   1.0955 B( 28-C , 29-H ) :   0.9651
B( 28-C , 30-H ) :   0.9746 B( 28-C , 31-H ) :   0.9716

Dispersion correction           -0.013787025
FINAL SINGLE POINT ENERGY     -1339.865231426928

DIPOLE MOMENT
-------------
                                X             Y             Z
Electronic contribution:     21.03418     -26.16649      -4.54012
Nuclear contribution   :    -21.67075      26.67131       4.34842
                        -----------------------------------------
Total Dipole Moment    :     -0.63657       0.50482      -0.19170
                        -----------------------------------------
Magnitude (a.u.)       :      0.83475
Magnitude (Debye)      :      2.12177

Rotational constants in cm-1:     0.018151     0.008779     0.006125
Rotational constants in MHz :   544.152383   263.174398   183.633726

                             ****ORCA TERMINATED NORMALLY****
TOTAL RUN TIME: 0 days 0 hours 0 minutes 21 seconds 414 msec
