                         Program Version 4.2.1 -  RELEASE  -
|  1> ! wB97X-D3 SP def2-SVP
|  2> %pal
|  3> nprocs 24
|  4> end
|  5>
|  6> * xyz 0 1
|  7> S 	 -78.1426 	 -19.3303 	 -50.2323
|  8> C 	 -78.9243 	 -18.7931 	 -48.7226
|  9> C 	 -80.2325 	 -18.4054 	 -48.998
| 10> C 	 -80.555 	 -18.4919 	 -50.3751
| 11> C 	 -79.5152 	 -18.8625 	 -51.1753
| 12> H 	 -81.5198 	 -18.2909 	 -50.7991
| 13> C 	 -81.2534 	 -17.9066 	 -48.0229
| 14> H 	 -81.421 	 -18.4869 	 -47.0723
| 15> H 	 -82.2215 	 -17.7468 	 -48.5323
| 16> C 	 -80.862 	 -16.4958 	 -47.452
| 17> H 	 -81.5404 	 -16.3606 	 -46.6632
| 18> H 	 -79.9525 	 -16.5202 	 -46.959
| 19> C 	 -80.8453 	 -15.3033 	 -48.4275
| 20> H 	 -81.8109 	 -15.2138 	 -48.9011
| 21> H 	 -80.655 	 -14.3381 	 -47.8136
| 22> H 	 -80.1117 	 -15.3222 	 -49.1765
| 23> S 	 -80.9141 	 -20.0894 	 -53.2223
| 24> C 	 -80.261 	 -19.9851 	 -54.8153
| 25> C 	 -79.091 	 -19.265 	 -54.9717
| 26> C 	 -78.766 	 -18.6539 	 -53.6571
| 27> C 	 -79.5188 	 -19.1098 	 -52.595
| 28> H 	 -78.6636 	 -19.1348 	 -55.9014
| 29> C 	 -77.5249 	 -17.8062 	 -53.5352
| 30> H 	 -76.7634 	 -18.2245 	 -54.1838
| 31> H 	 -77.0425 	 -17.8207 	 -52.5354
| 32> C 	 -77.7207 	 -16.3094 	 -54.0362
| 33> H 	 -77.6029 	 -16.4201 	 -55.157
| 34> H 	 -76.8811 	 -15.8308 	 -53.5483
| 35> C 	 -79.1353 	 -15.7782 	 -53.6376
| 36> H 	 -79.9319 	 -16.3903 	 -54.0597
| 37> H 	 -79.353 	 -14.7569 	 -54.0823
| 38> H 	 -79.3004 	 -15.751 	 -52.5542
| 39> H 	 -78.6097 	 -18.9559 	 -47.6366
| 40> H 	 -80.6674 	 -20.5753 	 -55.6491
| 41> *
| 42>
| 43>                          ****END OF INPUT****

CARTESIAN COORDINATES (ANGSTROEM)
---------------------------------
  S    -78.142600  -19.330300  -50.232300
  C    -78.924300  -18.793100  -48.722600
  C    -80.232500  -18.405400  -48.998000
  C    -80.555000  -18.491900  -50.375100
  C    -79.515200  -18.862500  -51.175300
  H    -81.519800  -18.290900  -50.799100
  C    -81.253400  -17.906600  -48.022900
  H    -81.421000  -18.486900  -47.072300
  H    -82.221500  -17.746800  -48.532300
  C    -80.862000  -16.495800  -47.452000
  H    -81.540400  -16.360600  -46.663200
  H    -79.952500  -16.520200  -46.959000
  C    -80.845300  -15.303300  -48.427500
  H    -81.810900  -15.213800  -48.901100
  H    -80.655000  -14.338100  -47.813600
  H    -80.111700  -15.322200  -49.176500
  S    -80.914100  -20.089400  -53.222300
  C    -80.261000  -19.985100  -54.815300
  C    -79.091000  -19.265000  -54.971700
  C    -78.766000  -18.653900  -53.657100
  C    -79.518800  -19.109800  -52.595000
  H    -78.663600  -19.134800  -55.901400
  C    -77.524900  -17.806200  -53.535200
  H    -76.763400  -18.224500  -54.183800
  H    -77.042500  -17.820700  -52.535400
  C    -77.720700  -16.309400  -54.036200
  H    -77.602900  -16.420100  -55.157000
  H    -76.881100  -15.830800  -53.548300
  C    -79.135300  -15.778200  -53.637600
  H    -79.931900  -16.390300  -54.059700
  H    -79.353000  -14.756900  -54.082300
  H    -79.300400  -15.751000  -52.554200
  H    -78.609700  -18.955900  -47.636600
  H    -80.667400  -20.575300  -55.649100

 Total Charge           Charge          ....    0
 Multiplicity           Mult            ....    1
 Number of Electrons    NEL             ....  134
 Basis Dimension        Dim             ....  322

ORBITAL ENERGIES
----------------

  NO   OCC          E(Eh)            E(eV)
   0   2.0000     -88.969087     -2420.9719
   1   2.0000     -88.965034     -2420.8616
   2   2.0000     -10.328247      -281.0459
   3   2.0000     -10.326463      -280.9973
   4   2.0000     -10.320211      -280.8272
   5   2.0000     -10.319977      -280.8209
   6   2.0000     -10.310445      -280.5615
   7   2.0000     -10.300393      -280.2879
   8   2.0000     -10.297781      -280.2169
   9   2.0000     -10.296112      -280.1714
  10   2.0000     -10.293548      -280.1017
  11   2.0000     -10.289123      -279.9813
  12   2.0000     -10.288204      -279.9563
  13   2.0000     -10.278571      -279.6941
  14   2.0000     -10.276720      -279.6438
  15   2.0000     -10.276601      -279.6405
  16   2.0000      -8.083087      -219.9520
  17   2.0000      -8.079456      -219.8532
  18   2.0000      -6.041724      -164.4037
  19   2.0000      -6.038047      -164.3036
  20   2.0000      -6.037625      -164.2921
  21   2.0000      -6.034127      -164.1969
  22   2.0000      -6.033810      -164.1883
  23   2.0000      -6.030035      -164.0856
  24   2.0000      -1.006434       -27.3865
  25   2.0000      -0.980662       -26.6852
  26   2.0000      -0.910953       -24.7883
  27   2.0000      -0.900458       -24.5027
  28   2.0000      -0.868018       -23.6200
  29   2.0000      -0.848118       -23.0785
  30   2.0000      -0.837369       -22.7860
  31   2.0000      -0.812149       -22.0997
  32   2.0000      -0.782991       -21.3063
  33   2.0000      -0.771832       -21.0026
  34   2.0000      -0.708572       -19.2812
  35   2.0000      -0.705373       -19.1942
  36   2.0000      -0.683763       -18.6061
  37   2.0000      -0.663756       -18.0617
  38   2.0000      -0.635073       -17.2812
  39   2.0000      -0.615238       -16.7415
  40   2.0000      -0.591011       -16.0822
  41   2.0000      -0.576416       -15.6851
  42   2.0000      -0.555231       -15.1086
  43   2.0000      -0.542762       -14.7693
  44   2.0000      -0.540221       -14.7002
  45   2.0000      -0.531162       -14.4537
  46   2.0000      -0.513421       -13.9709
  47   2.0000      -0.508226       -13.8295
  48   2.0000      -0.498989       -13.5782
  49   2.0000      -0.496341       -13.5061
  50   2.0000      -0.490180       -13.3385
  51   2.0000      -0.474496       -12.9117
  52   2.0000      -0.468401       -12.7458
  53   2.0000      -0.464348       -12.6356
  54   2.0000      -0.458107       -12.4657
  55   2.0000      -0.450145       -12.2491
  56   2.0000      -0.440770       -11.9940
  57   2.0000      -0.434515       -11.8238
  58   2.0000      -0.429294       -11.6817
  59   2.0000      -0.424348       -11.5471
  60   2.0000      -0.418799       -11.3961
  61   2.0000      -0.415116       -11.2959
  62   2.0000      -0.408699       -11.1213
  63   2.0000      -0.344955        -9.3867
  64   2.0000      -0.331697        -9.0259
  65   2.0000      -0.328524        -8.9396
  66   2.0000      -0.293564        -7.9883
  67   0.0000       0.030482         0.8295
  68   0.0000       0.064204         1.7471
  69   0.0000       0.101245         2.7550
  70   0.0000       0.114719         3.1217
  71   0.0000       0.117270         3.1911

MULLIKEN ATOMIC CHARGES
-----------------------
   0 S :    0.118137
   1 C :   -0.145811
   2 C :   -0.063739
   3 C :    0.011215
   4 C :   -0.132990
   5 H :    0.003821
   6 C :    0.023987
   7 H :    0.044677
   8 H :    0.026432
   9 C :   -0.041814
  10 H :    0.008919
  11 H :    0.006699
  12 C :   -0.051329
  13 H :    0.023186
  14 H :    0.040006
  15 H :    0.035562
  16 S :    0.097075
  17 C :   -0.088754
  18 C :    0.004706
  19 C :   -0.053186
  20 C :   -0.141952
  21 H :   -0.000568
  22 C :    0.021954
  23 H :    0.025611
  24 H :    0.029143
  25 C :   -0.081377
  26 H :    0.040483
  27 H :    0.040358
  28 C :   -0.063880
  29 H :    0.044538
  30 H :    0.038520
  31 H :    0.042128
  32 H :    0.074102
  33 H :    0.064139
Sum of atomic charges:    0.0000000

LOEWDIN ATOMIC CHARGES
----------------------
   0 S :    0.417506
   1 C :   -0.211238
   2 C :   -0.063986
   3 C :   -0.069141
   4 C :   -0.197303
   5 H :    0.027119
   6 C :   -0.033466
   7 H :    0.039464
   8 H :    0.031150
   9 C :   -0.032250
  10 H :    0.016322
  11 H :    0.011737
  12 C :   -0.062087
  13 H :    0.020449
  14 H :    0.038590
  15 H :    0.017290
  16 S :    0.383293
  17 C :   -0.180195
  18 C :   -0.063502
  19 C :   -0.043251
  20 C :   -0.185262
  21 H :    0.021167
  22 C :   -0.042708
  23 H :    0.028837
  24 H :    0.023009
  25 C :   -0.036635
  26 H :    0.028451
  27 H :    0.026007
  28 C :   -0.074842
  29 H :    0.027953
  30 H :    0.030164
  31 H :    0.027948
  32 H :    0.047671
  33 H :    0.031740

  Mayer bond orders larger than 0.100000
B(  0-S ,  1-C ) :   1.1288 B(  0-S ,  4-C ) :   1.1633 B(  1-C ,  2-C ) :   1.6022
B(  1-C , 32-H ) :   0.9567 B(  2-C ,  3-C ) :   1.2459 B(  2-C ,  6-C ) :   1.0322
B(  3-C ,  4-C ) :   1.5620 B(  3-C ,  5-H ) :   1.0013 B(  4-C , 20-C ) :   1.0417
B(  6-C ,  7-H ) :   0.9399 B(  6-C ,  8-H ) :   0.9452 B(  6-C ,  9-C ) :   1.0706
B(  9-C , 10-H ) :   0.9565 B(  9-C , 11-H ) :   0.9552 B(  9-C , 12-C ) :   1.0719
B( 12-C , 13-H ) :   0.9767 B( 12-C , 14-H ) :   0.9726 B( 12-C , 15-H ) :   0.9787
B( 16-S , 17-C ) :   1.1607 B( 16-S , 20-C ) :   1.0908 B( 17-C , 18-C ) :   1.6484
B( 17-C , 33-H ) :   0.9574 B( 18-C , 19-C ) :   1.1697 B( 18-C , 21-H ) :   1.0017
B( 19-C , 20-C ) :   1.6412 B( 19-C , 22-C ) :   1.0556 B( 22-C , 23-H ) :   0.9443
B( 22-C , 24-H ) :   0.9422 B( 22-C , 25-C ) :   1.0398 B( 25-C , 26-H ) :   0.9601
B( 25-C , 27-H ) :   0.9615 B( 25-C , 28-C ) :   1.0847 B( 28-C , 29-H ) :   0.9618
B( 28-C , 30-H ) :   0.9753 B( 28-C , 31-H ) :   0.9765

Dispersion correction           -0.015547797
FINAL SINGLE POINT ENERGY     -1339.869149575106

DIPOLE MOMENT
-------------
                                X             Y             Z
Electronic contribution:      1.47606     -22.09990      -5.53978
Nuclear contribution   :     -1.55689      22.34011       5.55251
                        -----------------------------------------
Total Dipole Moment    :     -0.08084       0.24022       0.01273
                        -----------------------------------------
Magnitude (a.u.)       :      0.25377
Magnitude (Debye)      :      0.64504

Rotational constants in cm-1:     0.020497     0.008751     0.007875
Rotational constants in MHz :   614.470150   262.347417   236.096211

                             ****ORCA TERMINATED NORMALLY****
TOTAL RUN TIME: 0 days 0 hours 0 minutes 21 seconds 47 msec
