                         Program Version 4.2.1 -  RELEASE  -
|  1> ! wB97X-D3 SP def2-SVP
|  2> %pal
|  3> nprocs 24
|  4> end
|  5>
|  6> * xyz 0 1
|  7> S 	 -51.3195 	 -44.2203 	 -76.4128
|  8> C 	 -52.2559 	 -42.7948 	 -76.2038
|  9> C 	 -53.2088 	 -42.5919 	 -77.1615
| 10> C 	 -53.1895 	 -43.5783 	 -78.1867
| 11> C 	 -52.1462 	 -44.5074 	 -78.0071
| 12> H 	 -53.7845 	 -43.6454 	 -79.0525
| 13> C 	 -54.3317 	 -41.5232 	 -77.2279
| 14> H 	 -54.8867 	 -41.5266 	 -76.2867
| 15> H 	 -55.0477 	 -41.8431 	 -78.0614
| 16> C 	 -53.889 	 -40.2115 	 -77.5516
| 17> H 	 -53.0726 	 -40.0427 	 -76.827
| 18> H 	 -53.4705 	 -40.2078 	 -78.5882
| 19> C 	 -54.9555 	 -39.1736 	 -77.4805
| 20> H 	 -55.4672 	 -39.1644 	 -76.5104
| 21> H 	 -54.42 	 -38.2581 	 -77.4325
| 22> H 	 -55.6067 	 -39.184 	 -78.3492
| 23> S 	 -51.7561 	 -47.2534 	 -78.1459
| 24> C 	 -51.6826 	 -48.1616 	 -79.6897
| 25> C 	 -51.6455 	 -47.2039 	 -80.6726
| 26> C 	 -51.7156 	 -45.8264 	 -80.2593
| 27> C 	 -51.8416 	 -45.6615 	 -78.8438
| 28> H 	 -51.5834 	 -47.5089 	 -81.6559
| 29> C 	 -51.6152 	 -44.6838 	 -81.2836
| 30> H 	 -52.6929 	 -44.3211 	 -81.2458
| 31> H 	 -51.4858 	 -45.0212 	 -82.3042
| 32> C 	 -50.5271 	 -43.6555 	 -80.9611
| 33> H 	 -50.5217 	 -43.3049 	 -79.9265
| 34> H 	 -50.7362 	 -42.7885 	 -81.6104
| 35> C 	 -49.2064 	 -44.1738 	 -81.4391
| 36> H 	 -49.2243 	 -44.4545 	 -82.4747
| 37> H 	 -48.9077 	 -45.0126 	 -80.8381
| 38> H 	 -48.301 	 -43.5133 	 -81.4809
| 39> H 	 -52.4198 	 -42.211 	 -75.2785
| 40> H 	 -51.7057 	 -49.2507 	 -79.8002
| 41> *
| 42>
| 43>                          ****END OF INPUT****

CARTESIAN COORDINATES (ANGSTROEM)
---------------------------------
  S    -51.319500  -44.220300  -76.412800
  C    -52.255900  -42.794800  -76.203800
  C    -53.208800  -42.591900  -77.161500
  C    -53.189500  -43.578300  -78.186700
  C    -52.146200  -44.507400  -78.007100
  H    -53.784500  -43.645400  -79.052500
  C    -54.331700  -41.523200  -77.227900
  H    -54.886700  -41.526600  -76.286700
  H    -55.047700  -41.843100  -78.061400
  C    -53.889000  -40.211500  -77.551600
  H    -53.072600  -40.042700  -76.827000
  H    -53.470500  -40.207800  -78.588200
  C    -54.955500  -39.173600  -77.480500
  H    -55.467200  -39.164400  -76.510400
  H    -54.420000  -38.258100  -77.432500
  H    -55.606700  -39.184000  -78.349200
  S    -51.756100  -47.253400  -78.145900
  C    -51.682600  -48.161600  -79.689700
  C    -51.645500  -47.203900  -80.672600
  C    -51.715600  -45.826400  -80.259300
  C    -51.841600  -45.661500  -78.843800
  H    -51.583400  -47.508900  -81.655900
  C    -51.615200  -44.683800  -81.283600
  H    -52.692900  -44.321100  -81.245800
  H    -51.485800  -45.021200  -82.304200
  C    -50.527100  -43.655500  -80.961100
  H    -50.521700  -43.304900  -79.926500
  H    -50.736200  -42.788500  -81.610400
  C    -49.206400  -44.173800  -81.439100
  H    -49.224300  -44.454500  -82.474700
  H    -48.907700  -45.012600  -80.838100
  H    -48.301000  -43.513300  -81.480900
  H    -52.419800  -42.211000  -75.278500
  H    -51.705700  -49.250700  -79.800200

 Total Charge           Charge          ....    0
 Multiplicity           Mult            ....    1
 Number of Electrons    NEL             ....  134
 Basis Dimension        Dim             ....  322

ORBITAL ENERGIES
----------------

  NO   OCC          E(Eh)            E(eV)
   0   2.0000     -88.972536     -2421.0658
   1   2.0000     -88.961595     -2420.7681
   2   2.0000     -10.339303      -281.3467
   3   2.0000     -10.332176      -281.1528
   4   2.0000     -10.323806      -280.9250
   5   2.0000     -10.313876      -280.6548
   6   2.0000     -10.309224      -280.5283
   7   2.0000     -10.299353      -280.2596
   8   2.0000     -10.296958      -280.1945
   9   2.0000     -10.296577      -280.1841
  10   2.0000     -10.290701      -280.0242
  11   2.0000     -10.289999      -280.0051
  12   2.0000     -10.282929      -279.8127
  13   2.0000     -10.278639      -279.6960
  14   2.0000     -10.273811      -279.5646
  15   2.0000     -10.269110      -279.4367
  16   2.0000      -8.086411      -220.0424
  17   2.0000      -8.075946      -219.7577
  18   2.0000      -6.045011      -164.4931
  19   2.0000      -6.041101      -164.3867
  20   2.0000      -6.037059      -164.2767
  21   2.0000      -6.034624      -164.2105
  22   2.0000      -6.030275      -164.0921
  23   2.0000      -6.026737      -163.9958
  24   2.0000      -1.001739       -27.2587
  25   2.0000      -0.981559       -26.7096
  26   2.0000      -0.928794       -25.2738
  27   2.0000      -0.909514       -24.7491
  28   2.0000      -0.872989       -23.7552
  29   2.0000      -0.855061       -23.2674
  30   2.0000      -0.841642       -22.9022
  31   2.0000      -0.816293       -22.2125
  32   2.0000      -0.784377       -21.3440
  33   2.0000      -0.768665       -20.9164
  34   2.0000      -0.711934       -19.3727
  35   2.0000      -0.692045       -18.8315
  36   2.0000      -0.687858       -18.7176
  37   2.0000      -0.664483       -18.0815
  38   2.0000      -0.640021       -17.4159
  39   2.0000      -0.620088       -16.8734
  40   2.0000      -0.592185       -16.1142
  41   2.0000      -0.585492       -15.9320
  42   2.0000      -0.567964       -15.4551
  43   2.0000      -0.551695       -15.0124
  44   2.0000      -0.551322       -15.0022
  45   2.0000      -0.523490       -14.2449
  46   2.0000      -0.518229       -14.1017
  47   2.0000      -0.510869       -13.9015
  48   2.0000      -0.507982       -13.8229
  49   2.0000      -0.499737       -13.5985
  50   2.0000      -0.489166       -13.3109
  51   2.0000      -0.481125       -13.0921
  52   2.0000      -0.474955       -12.9242
  53   2.0000      -0.468905       -12.7596
  54   2.0000      -0.460085       -12.5196
  55   2.0000      -0.449146       -12.2219
  56   2.0000      -0.440331       -11.9820
  57   2.0000      -0.433745       -11.8028
  58   2.0000      -0.428427       -11.6581
  59   2.0000      -0.420857       -11.4521
  60   2.0000      -0.415747       -11.3130
  61   2.0000      -0.409960       -11.1556
  62   2.0000      -0.402414       -10.9502
  63   2.0000      -0.351362        -9.5610
  64   2.0000      -0.336332        -9.1520
  65   2.0000      -0.323038        -8.7903
  66   2.0000      -0.289108        -7.8670
  67   0.0000       0.020260         0.5513
  68   0.0000       0.066719         1.8155
  69   0.0000       0.105123         2.8605
  70   0.0000       0.127606         3.4723
  71   0.0000       0.131772         3.5857

MULLIKEN ATOMIC CHARGES
-----------------------
   0 S :    0.120168
   1 C :   -0.106264
   2 C :   -0.097106
   3 C :    0.053862
   4 C :   -0.173353
   5 H :   -0.002000
   6 C :    0.051222
   7 H :    0.025766
   8 H :    0.021546
   9 C :   -0.096675
  10 H :    0.019692
  11 H :    0.028912
  12 C :    0.011178
  13 H :    0.021706
  14 H :    0.019217
  15 H :    0.039377
  16 S :    0.082922
  17 C :   -0.100944
  18 C :    0.001620
  19 C :   -0.068112
  20 C :   -0.138678
  21 H :   -0.011665
  22 C :    0.048685
  23 H :    0.043082
  24 H :    0.012973
  25 C :   -0.034964
  26 H :    0.054282
  27 H :    0.023580
  28 C :   -0.055597
  29 H :    0.010896
  30 H :    0.033482
  31 H :    0.032703
  32 H :    0.055836
  33 H :    0.072651
Sum of atomic charges:   -0.0000000

LOEWDIN ATOMIC CHARGES
----------------------
   0 S :    0.398768
   1 C :   -0.217970
   2 C :   -0.064197
   3 C :   -0.045260
   4 C :   -0.173113
   5 H :    0.024928
   6 C :   -0.034166
   7 H :    0.027226
   8 H :    0.032485
   9 C :   -0.054862
  10 H :    0.023954
  11 H :    0.030876
  12 C :   -0.059697
  13 H :    0.026889
  14 H :    0.026712
  15 H :    0.027701
  16 S :    0.393741
  17 C :   -0.173623
  18 C :   -0.069470
  19 C :   -0.057765
  20 C :   -0.211598
  21 H :    0.017240
  22 C :   -0.032762
  23 H :    0.038598
  24 H :    0.026967
  25 C :   -0.039916
  26 H :    0.030165
  27 H :    0.026939
  28 C :   -0.070505
  29 H :    0.019811
  30 H :    0.023640
  31 H :    0.030409
  32 H :    0.038147
  33 H :    0.039707

  Mayer bond orders larger than 0.100000
B(  0-S ,  1-C ) :   1.1366 B(  0-S ,  4-C ) :   1.1327 B(  1-C ,  2-C ) :   1.6424
B(  1-C , 32-H ) :   0.9481 B(  2-C ,  3-C ) :   1.2486 B(  2-C ,  6-C ) :   1.0021
B(  3-C ,  4-C ) :   1.5662 B(  3-C ,  5-H ) :   0.9977 B(  4-C , 20-C ) :   1.0659
B(  6-C ,  7-H ) :   0.9352 B(  6-C ,  8-H ) :   0.9406 B(  6-C ,  9-C ) :   1.0888
B(  9-C , 10-H ) :   0.9515 B(  9-C , 11-H ) :   0.9424 B(  9-C , 12-C ) :   1.0940
B( 12-C , 13-H ) :   0.9671 B( 12-C , 14-H ) :   0.9678 B( 12-C , 15-H ) :   0.9719
B( 16-S , 17-C ) :   1.1510 B( 16-S , 20-C ) :   1.1493 B( 17-C , 18-C ) :   1.5725
B( 17-C , 20-C ) :   0.1063 B( 17-C , 33-H ) :   0.9711 B( 18-C , 19-C ) :   1.2736
B( 18-C , 21-H ) :   1.0030 B( 19-C , 20-C ) :   1.5313 B( 19-C , 22-C ) :   1.0225
B( 22-C , 23-H ) :   0.9327 B( 22-C , 24-H ) :   0.9415 B( 22-C , 25-C ) :   1.0646
B( 25-C , 26-H ) :   0.9577 B( 25-C , 27-H ) :   0.9506 B( 25-C , 28-C ) :   1.0715
B( 28-C , 29-H ) :   0.9699 B( 28-C , 30-H ) :   0.9777 B( 28-C , 31-H ) :   0.9732

Dispersion correction           -0.014387554
FINAL SINGLE POINT ENERGY     -1339.858148581232

DIPOLE MOMENT
-------------
                                X             Y             Z
Electronic contribution:      4.64387     -23.44236      12.83673
Nuclear contribution   :     -5.00379      23.82033     -13.32856
                        -----------------------------------------
Total Dipole Moment    :     -0.35991       0.37797      -0.49183
                        -----------------------------------------
Magnitude (a.u.)       :      0.71714
Magnitude (Debye)      :      1.82284

Rotational constants in cm-1:     0.020875     0.007928     0.006753
Rotational constants in MHz :   625.823326   237.681974   202.463122

                             ****ORCA TERMINATED NORMALLY****
TOTAL RUN TIME: 0 days 0 hours 0 minutes 21 seconds 769 msec
