                         Program Version 4.2.1 -  RELEASE  -
|  1> ! wB97X-D3 SP def2-SVP
|  2> %pal
|  3> nprocs 24
|  4> end
|  5>
|  6> * xyz 0 1
|  7> S 	 -117.295 	 46.0116 	 -111.937
|  8> C 	 -117.887 	 44.5279 	 -111.175
|  9> C 	 -116.847 	 43.815 	 -110.651
| 10> C 	 -115.59 	 44.4929 	 -110.724
| 11> C 	 -115.706 	 45.7219 	 -111.36
| 12> H 	 -114.663 	 44.1834 	 -110.309
| 13> C 	 -117.119 	 42.5897 	 -109.787
| 14> H 	 -116.184 	 42.1816 	 -109.464
| 15> H 	 -117.65 	 41.8735 	 -110.361
| 16> C 	 -118.006 	 42.7956 	 -108.545
| 17> H 	 -117.59 	 43.4402 	 -107.824
| 18> H 	 -118.989 	 43.096 	 -108.815
| 19> C 	 -118.414 	 41.4304 	 -107.868
| 20> H 	 -117.414 	 40.9659 	 -107.735
| 21> H 	 -119.031 	 41.3565 	 -106.889
| 22> H 	 -118.871 	 40.7192 	 -108.607
| 23> S 	 -114.611 	 48.2322 	 -110.712
| 24> C 	 -113.149 	 48.6824 	 -111.356
| 25> C 	 -112.655 	 47.7703 	 -112.291
| 26> C 	 -113.471 	 46.6053 	 -112.426
| 27> C 	 -114.544 	 46.6842 	 -111.597
| 28> H 	 -111.773 	 47.9423 	 -112.794
| 29> C 	 -113.219 	 45.4427 	 -113.417
| 30> H 	 -114.022 	 44.7232 	 -113.444
| 31> H 	 -112.361 	 45.0101 	 -113.024
| 32> C 	 -113.061 	 45.9657 	 -114.837
| 33> H 	 -112.87 	 45.1889 	 -115.586
| 34> H 	 -112.171 	 46.6512 	 -114.896
| 35> C 	 -114.301 	 46.7714 	 -115.339
| 36> H 	 -115.252 	 46.1737 	 -115.431
| 37> H 	 -114.108 	 47.1301 	 -116.32
| 38> H 	 -114.419 	 47.6328 	 -114.684
| 39> H 	 -118.888 	 44.1837 	 -110.969
| 40> H 	 -112.727 	 49.6401 	 -111.173
| 41> *
| 42>
| 43>                          ****END OF INPUT****

CARTESIAN COORDINATES (ANGSTROEM)
---------------------------------
  S    -117.295000   46.011600  -111.937000
  C    -117.887000   44.527900  -111.175000
  C    -116.847000   43.815000  -110.651000
  C    -115.590000   44.492900  -110.724000
  C    -115.706000   45.721900  -111.360000
  H    -114.663000   44.183400  -110.309000
  C    -117.119000   42.589700  -109.787000
  H    -116.184000   42.181600  -109.464000
  H    -117.650000   41.873500  -110.361000
  C    -118.006000   42.795600  -108.545000
  H    -117.590000   43.440200  -107.824000
  H    -118.989000   43.096000  -108.815000
  C    -118.414000   41.430400  -107.868000
  H    -117.414000   40.965900  -107.735000
  H    -119.031000   41.356500  -106.889000
  H    -118.871000   40.719200  -108.607000
  S    -114.611000   48.232200  -110.712000
  C    -113.149000   48.682400  -111.356000
  C    -112.655000   47.770300  -112.291000
  C    -113.471000   46.605300  -112.426000
  C    -114.544000   46.684200  -111.597000
  H    -111.773000   47.942300  -112.794000
  C    -113.219000   45.442700  -113.417000
  H    -114.022000   44.723200  -113.444000
  H    -112.361000   45.010100  -113.024000
  C    -113.061000   45.965700  -114.837000
  H    -112.870000   45.188900  -115.586000
  H    -112.171000   46.651200  -114.896000
  C    -114.301000   46.771400  -115.339000
  H    -115.252000   46.173700  -115.431000
  H    -114.108000   47.130100  -116.320000
  H    -114.419000   47.632800  -114.684000
  H    -118.888000   44.183700  -110.969000
  H    -112.727000   49.640100  -111.173000

 Total Charge           Charge          ....    0
 Multiplicity           Mult            ....    1
 Number of Electrons    NEL             ....  134
 Basis Dimension        Dim             ....  322

ORBITAL ENERGIES
----------------

  NO   OCC          E(Eh)            E(eV)
   0   2.0000     -88.968396     -2420.9531
   1   2.0000     -88.963701     -2420.8254
   2   2.0000     -10.329338      -281.0756
   3   2.0000     -10.325141      -280.9614
   4   2.0000     -10.312312      -280.6123
   5   2.0000     -10.309388      -280.5327
   6   2.0000     -10.303161      -280.3633
   7   2.0000     -10.297235      -280.2020
   8   2.0000     -10.291473      -280.0452
   9   2.0000     -10.290885      -280.0292
  10   2.0000     -10.289667      -279.9961
  11   2.0000     -10.289542      -279.9927
  12   2.0000     -10.288525      -279.9650
  13   2.0000     -10.287823      -279.9459
  14   2.0000     -10.284700      -279.8609
  15   2.0000     -10.272942      -279.5410
  16   2.0000      -8.082951      -219.9483
  17   2.0000      -8.080009      -219.8682
  18   2.0000      -6.041481      -164.3971
  19   2.0000      -6.038151      -164.3064
  20   2.0000      -6.037393      -164.2858
  21   2.0000      -6.034344      -164.2029
  22   2.0000      -6.033793      -164.1879
  23   2.0000      -6.031009      -164.1121
  24   2.0000      -1.008192       -27.4343
  25   2.0000      -0.989820       -26.9344
  26   2.0000      -0.912528       -24.8312
  27   2.0000      -0.910791       -24.7839
  28   2.0000      -0.861794       -23.4506
  29   2.0000      -0.849433       -23.1143
  30   2.0000      -0.843206       -22.9448
  31   2.0000      -0.811324       -22.0772
  32   2.0000      -0.787252       -21.4222
  33   2.0000      -0.771249       -20.9868
  34   2.0000      -0.703806       -19.1515
  35   2.0000      -0.697493       -18.9798
  36   2.0000      -0.691535       -18.8176
  37   2.0000      -0.660679       -17.9780
  38   2.0000      -0.639624       -17.4050
  39   2.0000      -0.617215       -16.7953
  40   2.0000      -0.601762       -16.3748
  41   2.0000      -0.577726       -15.7207
  42   2.0000      -0.565498       -15.3880
  43   2.0000      -0.560545       -15.2532
  44   2.0000      -0.544473       -14.8159
  45   2.0000      -0.517789       -14.0898
  46   2.0000      -0.513480       -13.9725
  47   2.0000      -0.507728       -13.8160
  48   2.0000      -0.504802       -13.7363
  49   2.0000      -0.492109       -13.3910
  50   2.0000      -0.482581       -13.1317
  51   2.0000      -0.479474       -13.0471
  52   2.0000      -0.471518       -12.8307
  53   2.0000      -0.466029       -12.6813
  54   2.0000      -0.460118       -12.5204
  55   2.0000      -0.449641       -12.2353
  56   2.0000      -0.446384       -12.1467
  57   2.0000      -0.440125       -11.9764
  58   2.0000      -0.436557       -11.8793
  59   2.0000      -0.430022       -11.7015
  60   2.0000      -0.419432       -11.4133
  61   2.0000      -0.413533       -11.2528
  62   2.0000      -0.404357       -11.0031
  63   2.0000      -0.338251        -9.2043
  64   2.0000      -0.331982        -9.0337
  65   2.0000      -0.327160        -8.9025
  66   2.0000      -0.305960        -8.3256
  67   0.0000       0.042665         1.1610
  68   0.0000       0.065372         1.7789
  69   0.0000       0.118841         3.2338
  70   0.0000       0.127938         3.4814
  71   0.0000       0.131017         3.5652

MULLIKEN ATOMIC CHARGES
-----------------------
   0 S :    0.128335
   1 C :   -0.122899
   2 C :   -0.070607
   3 C :    0.052301
   4 C :   -0.160905
   5 H :   -0.001587
   6 C :    0.082958
   7 H :    0.011851
   8 H :    0.017723
   9 C :   -0.034205
  10 H :    0.034250
  11 H :    0.017868
  12 C :   -0.126646
  13 H :    0.021439
  14 H :    0.067471
  15 H :    0.032209
  16 S :    0.120869
  17 C :   -0.069245
  18 C :   -0.028418
  19 C :   -0.040050
  20 C :   -0.221337
  21 H :   -0.016765
  22 C :    0.176494
  23 H :    0.028458
  24 H :    0.018859
  25 C :   -0.126735
  26 H :    0.034024
  27 H :    0.029814
  28 C :   -0.054802
  29 H :    0.042439
  30 H :    0.021584
  31 H :    0.046382
  32 H :    0.040141
  33 H :    0.048731
Sum of atomic charges:   -0.0000000

LOEWDIN ATOMIC CHARGES
----------------------
   0 S :    0.417694
   1 C :   -0.194080
   2 C :   -0.063139
   3 C :   -0.061342
   4 C :   -0.203952
   5 H :    0.026969
   6 C :   -0.022594
   7 H :    0.024479
   8 H :    0.028046
   9 C :   -0.028918
  10 H :    0.019686
  11 H :    0.016326
  12 C :   -0.087204
  13 H :    0.021396
  14 H :    0.040574
  15 H :    0.025189
  16 S :    0.430492
  17 C :   -0.198666
  18 C :   -0.070674
  19 C :   -0.047002
  20 C :   -0.197458
  21 H :    0.014689
  22 C :   -0.014906
  23 H :    0.031454
  24 H :    0.024769
  25 C :   -0.043175
  26 H :    0.023792
  27 H :    0.023742
  28 C :   -0.065161
  29 H :    0.031045
  30 H :    0.019320
  31 H :    0.026535
  32 H :    0.028665
  33 H :    0.023411

  Mayer bond orders larger than 0.100000
B(  0-S ,  1-C ) :   1.1257 B(  0-S ,  4-C ) :   1.1787 B(  1-C ,  2-C ) :   1.6192
B(  1-C , 32-H ) :   0.9709 B(  2-C ,  3-C ) :   1.2333 B(  2-C ,  6-C ) :   1.0330
B(  3-C ,  4-C ) :   1.5752 B(  3-C ,  5-H ) :   1.0044 B(  4-C , 20-C ) :   0.9743
B(  6-C ,  7-H ) :   0.9426 B(  6-C ,  8-H ) :   0.9321 B(  6-C ,  9-C ) :   1.0705
B(  9-C , 10-H ) :   0.9621 B(  9-C , 11-H ) :   0.9555 B(  9-C , 12-C ) :   1.0513
B( 12-C , 13-H ) :   0.9766 B( 12-C , 14-H ) :   0.9739 B( 12-C , 15-H ) :   0.9749
B( 16-S , 17-C ) :   1.1930 B( 16-S , 20-C ) :   1.1513 B( 17-C , 18-C ) :   1.5758
B( 17-C , 33-H ) :   0.9707 B( 18-C , 19-C ) :   1.2347 B( 18-C , 21-H ) :   1.0066
B( 19-C , 20-C ) :   1.6307 B( 19-C , 22-C ) :   1.0110 B( 22-C , 23-H ) :   0.9376
B( 22-C , 24-H ) :   0.9290 B( 22-C , 25-C ) :   1.0708 B( 25-C , 26-H ) :   0.9593
B( 25-C , 27-H ) :   0.9553 B( 25-C , 28-C ) :   1.0730 B( 28-C , 29-H ) :   0.9751
B( 28-C , 30-H ) :   0.9730 B( 28-C , 31-H ) :   0.9731

Dispersion correction           -0.014611825
FINAL SINGLE POINT ENERGY     -1339.869638178591

DIPOLE MOMENT
-------------
                                X             Y             Z
Electronic contribution:      0.71144      18.49297       1.59314
Nuclear contribution   :     -0.45353     -18.80956      -1.61866
                        -----------------------------------------
Total Dipole Moment    :      0.25791      -0.31658      -0.02552
                        -----------------------------------------
Magnitude (a.u.)       :      0.40914
Magnitude (Debye)      :      1.03995

Rotational constants in cm-1:     0.024426     0.007028     0.006456
Rotational constants in MHz :   732.280921   210.697825   193.551483

                             ****ORCA TERMINATED NORMALLY****
TOTAL RUN TIME: 0 days 0 hours 0 minutes 21 seconds 370 msec
