                         Program Version 4.2.1 -  RELEASE  -
|  1> ! wB97X-D3 SP def2-SVP
|  2> %pal
|  3> nprocs 24
|  4> end
|  5>
|  6> * xyz 0 1
|  7> S 	 -132.121 	 66.0144 	 -53.436
|  8> C 	 -133.611 	 65.8955 	 -54.2992
|  9> C 	 -133.488 	 66.4438 	 -55.5679
| 10> C 	 -132.153 	 66.692 	 -55.9337
| 11> C 	 -131.293 	 66.4811 	 -54.848
| 12> H 	 -131.847 	 67.1858 	 -56.9125
| 13> C 	 -134.63 	 66.7065 	 -56.515
| 14> H 	 -135.542 	 66.292 	 -56.0158
| 15> H 	 -134.584 	 66.0892 	 -57.4295
| 16> C 	 -134.913 	 68.197 	 -56.8724
| 17> H 	 -134.164 	 68.5249 	 -57.5668
| 18> H 	 -135.889 	 68.3084 	 -57.3154
| 19> C 	 -134.878 	 69.2464 	 -55.786
| 20> H 	 -135.201 	 69.0354 	 -54.7754
| 21> H 	 -133.803 	 69.6402 	 -55.809
| 22> H 	 -135.487 	 70.1178 	 -56.1691
| 23> S 	 -129.393 	 68.3163 	 -55.3077
| 24> C 	 -127.724 	 67.8866 	 -54.8764
| 25> C 	 -127.639 	 66.6904 	 -54.2252
| 26> C 	 -128.848 	 65.8906 	 -54.2722
| 27> C 	 -129.869 	 66.6903 	 -54.8079
| 28> H 	 -126.729 	 66.3017 	 -53.8453
| 29> C 	 -128.988 	 64.483 	 -53.6806
| 30> H 	 -129.885 	 63.9508 	 -54.0584
| 31> H 	 -128.94 	 64.5218 	 -52.5797
| 32> C 	 -127.773 	 63.5412 	 -54.0535
| 33> H 	 -127.79 	 62.655 	 -53.3118
| 34> H 	 -126.865 	 64.0366 	 -53.7192
| 35> C 	 -127.624 	 63.1243 	 -55.4973
| 36> H 	 -128.622 	 62.8426 	 -55.8304
| 37> H 	 -127.104 	 62.2214 	 -55.6029
| 38> H 	 -127.132 	 63.8894 	 -56.1533
| 39> H 	 -134.529 	 65.57 	 -53.8562
| 40> H 	 -126.961 	 68.6069 	 -55.1704
| 41> *
| 42>
| 43>                          ****END OF INPUT****

CARTESIAN COORDINATES (ANGSTROEM)
---------------------------------
  S    -132.121000   66.014400  -53.436000
  C    -133.611000   65.895500  -54.299200
  C    -133.488000   66.443800  -55.567900
  C    -132.153000   66.692000  -55.933700
  C    -131.293000   66.481100  -54.848000
  H    -131.847000   67.185800  -56.912500
  C    -134.630000   66.706500  -56.515000
  H    -135.542000   66.292000  -56.015800
  H    -134.584000   66.089200  -57.429500
  C    -134.913000   68.197000  -56.872400
  H    -134.164000   68.524900  -57.566800
  H    -135.889000   68.308400  -57.315400
  C    -134.878000   69.246400  -55.786000
  H    -135.201000   69.035400  -54.775400
  H    -133.803000   69.640200  -55.809000
  H    -135.487000   70.117800  -56.169100
  S    -129.393000   68.316300  -55.307700
  C    -127.724000   67.886600  -54.876400
  C    -127.639000   66.690400  -54.225200
  C    -128.848000   65.890600  -54.272200
  C    -129.869000   66.690300  -54.807900
  H    -126.729000   66.301700  -53.845300
  C    -128.988000   64.483000  -53.680600
  H    -129.885000   63.950800  -54.058400
  H    -128.940000   64.521800  -52.579700
  C    -127.773000   63.541200  -54.053500
  H    -127.790000   62.655000  -53.311800
  H    -126.865000   64.036600  -53.719200
  C    -127.624000   63.124300  -55.497300
  H    -128.622000   62.842600  -55.830400
  H    -127.104000   62.221400  -55.602900
  H    -127.132000   63.889400  -56.153300
  H    -134.529000   65.570000  -53.856200
  H    -126.961000   68.606900  -55.170400

 Total Charge           Charge          ....    0
 Multiplicity           Mult            ....    1
 Number of Electrons    NEL             ....  134
 Basis Dimension        Dim             ....  322

ORBITAL ENERGIES
----------------

  NO   OCC          E(Eh)            E(eV)
   0   2.0000     -88.966894     -2420.9123
   1   2.0000     -88.963256     -2420.8133
   2   2.0000     -10.324059      -280.9319
   3   2.0000     -10.321524      -280.8630
   4   2.0000     -10.319078      -280.7964
   5   2.0000     -10.308470      -280.5077
   6   2.0000     -10.307542      -280.4825
   7   2.0000     -10.301180      -280.3094
   8   2.0000     -10.296222      -280.1744
   9   2.0000     -10.295060      -280.1428
  10   2.0000     -10.293937      -280.1123
  11   2.0000     -10.292938      -280.0851
  12   2.0000     -10.291625      -280.0493
  13   2.0000     -10.282144      -279.7914
  14   2.0000     -10.278907      -279.7033
  15   2.0000     -10.272970      -279.5417
  16   2.0000      -8.082506      -219.9362
  17   2.0000      -8.077722      -219.8060
  18   2.0000      -6.040800      -164.3785
  19   2.0000      -6.036863      -164.2714
  20   2.0000      -6.036140      -164.2517
  21   2.0000      -6.033477      -164.1793
  22   2.0000      -6.032494      -164.1525
  23   2.0000      -6.028376      -164.0405
  24   2.0000      -1.009919       -27.4813
  25   2.0000      -0.981761       -26.7151
  26   2.0000      -0.908406       -24.7190
  27   2.0000      -0.903022       -24.5725
  28   2.0000      -0.868432       -23.6312
  29   2.0000      -0.852294       -23.1921
  30   2.0000      -0.844074       -22.9684
  31   2.0000      -0.809454       -22.0264
  32   2.0000      -0.785506       -21.3747
  33   2.0000      -0.769784       -20.9469
  34   2.0000      -0.702964       -19.1286
  35   2.0000      -0.694366       -18.8947
  36   2.0000      -0.684584       -18.6285
  37   2.0000      -0.659832       -17.9550
  38   2.0000      -0.632771       -17.2186
  39   2.0000      -0.615549       -16.7499
  40   2.0000      -0.602244       -16.3879
  41   2.0000      -0.560357       -15.2481
  42   2.0000      -0.554070       -15.0770
  43   2.0000      -0.548220       -14.9178
  44   2.0000      -0.542979       -14.7752
  45   2.0000      -0.537115       -14.6157
  46   2.0000      -0.517857       -14.0916
  47   2.0000      -0.512246       -13.9389
  48   2.0000      -0.496488       -13.5101
  49   2.0000      -0.492951       -13.4139
  50   2.0000      -0.486989       -13.2517
  51   2.0000      -0.478188       -13.0122
  52   2.0000      -0.465216       -12.6592
  53   2.0000      -0.460857       -12.5405
  54   2.0000      -0.457409       -12.4467
  55   2.0000      -0.447933       -12.1889
  56   2.0000      -0.443181       -12.0596
  57   2.0000      -0.442007       -12.0276
  58   2.0000      -0.433764       -11.8033
  59   2.0000      -0.418281       -11.3820
  60   2.0000      -0.414627       -11.2826
  61   2.0000      -0.412377       -11.2213
  62   2.0000      -0.407157       -11.0793
  63   2.0000      -0.339151        -9.2288
  64   2.0000      -0.333375        -9.0716
  65   2.0000      -0.326896        -8.8953
  66   2.0000      -0.291015        -7.9189
  67   0.0000       0.028620         0.7788
  68   0.0000       0.076783         2.0894
  69   0.0000       0.102161         2.7800
  70   0.0000       0.119055         3.2396
  71   0.0000       0.124858         3.3976

MULLIKEN ATOMIC CHARGES
-----------------------
   0 S :    0.139297
   1 C :   -0.125105
   2 C :   -0.087269
   3 C :    0.000960
   4 C :   -0.172214
   5 H :    0.041011
   6 C :    0.067691
   7 H :    0.009419
   8 H :    0.040628
   9 C :   -0.070289
  10 H :    0.023944
  11 H :    0.030412
  12 C :   -0.079473
  13 H :    0.041130
  14 H :    0.038269
  15 H :    0.034206
  16 S :    0.094842
  17 C :   -0.100237
  18 C :   -0.003332
  19 C :   -0.031853
  20 C :   -0.156096
  21 H :    0.007386
  22 C :    0.065904
  23 H :    0.045136
  24 H :    0.048404
  25 C :   -0.143826
  26 H :    0.034658
  27 H :    0.016182
  28 C :   -0.003833
  29 H :    0.020006
  30 H :    0.018719
  31 H :    0.053438
  32 H :    0.036910
  33 H :    0.064974
Sum of atomic charges:   -0.0000000

LOEWDIN ATOMIC CHARGES
----------------------
   0 S :    0.453151
   1 C :   -0.209413
   2 C :   -0.066289
   3 C :   -0.077550
   4 C :   -0.214793
   5 H :    0.043044
   6 C :   -0.036657
   7 H :    0.029277
   8 H :    0.035006
   9 C :   -0.044033
  10 H :    0.021804
  11 H :    0.023978
  12 C :   -0.074770
  13 H :    0.021296
  14 H :    0.034396
  15 H :    0.032988
  16 S :    0.384912
  17 C :   -0.170831
  18 C :   -0.061901
  19 C :   -0.056412
  20 C :   -0.191182
  21 H :    0.023754
  22 C :   -0.032887
  23 H :    0.032893
  24 H :    0.039193
  25 C :   -0.051768
  26 H :    0.031600
  27 H :    0.014378
  28 C :   -0.067055
  29 H :    0.026748
  30 H :    0.021203
  31 H :    0.036603
  32 H :    0.021500
  33 H :    0.027817

  Mayer bond orders larger than 0.100000
B(  0-S ,  1-C ) :   1.1530 B(  0-S ,  4-C ) :   1.1919 B(  1-C ,  2-C ) :   1.5710
B(  1-C , 32-H ) :   0.9702 B(  2-C ,  3-C ) :   1.2758 B(  2-C ,  6-C ) :   1.0326
B(  3-C ,  4-C ) :   1.5163 B(  3-C ,  5-H ) :   0.9857 B(  4-C , 20-C ) :   1.0420
B(  6-C ,  7-H ) :   0.9377 B(  6-C ,  8-H ) :   0.9442 B(  6-C ,  9-C ) :   1.0604
B(  9-C , 10-H ) :   0.9592 B(  9-C , 11-H ) :   0.9648 B(  9-C , 12-C ) :   1.0725
B( 12-C , 13-H ) :   0.9789 B( 12-C , 14-H ) :   0.9766 B( 12-C , 15-H ) :   0.9746
B( 16-S , 17-C ) :   1.1310 B( 16-S , 20-C ) :   1.1460 B( 17-C , 18-C ) :   1.6252
B( 17-C , 33-H ) :   0.9721 B( 18-C , 19-C ) :   1.2055 B( 18-C , 21-H ) :   0.9897
B( 19-C , 20-C ) :   1.5978 B( 19-C , 22-C ) :   1.0414 B( 22-C , 23-H ) :   0.9386
B( 22-C , 24-H ) :   0.9346 B( 22-C , 25-C ) :   1.0695 B( 25-C , 26-H ) :   0.9557
B( 25-C , 27-H ) :   0.9539 B( 25-C , 28-C ) :   1.0726 B( 28-C , 29-H ) :   0.9720
B( 28-C , 30-H ) :   0.9707 B( 28-C , 31-H ) :   0.9719

Dispersion correction           -0.014631491
FINAL SINGLE POINT ENERGY     -1339.875387975148

DIPOLE MOMENT
-------------
                                X             Y             Z
Electronic contribution:      4.22977       6.56486       6.98807
Nuclear contribution   :     -4.19621      -6.73469      -7.07406
                        -----------------------------------------
Total Dipole Moment    :      0.03357      -0.16983      -0.08599
                        -----------------------------------------
Magnitude (a.u.)       :      0.19329
Magnitude (Debye)      :      0.49131

Rotational constants in cm-1:     0.023625     0.007990     0.006866
Rotational constants in MHz :   708.270220   239.521400   205.837768

                             ****ORCA TERMINATED NORMALLY****
TOTAL RUN TIME: 0 days 0 hours 0 minutes 20 seconds 380 msec
