                         Program Version 4.2.1 -  RELEASE  -
|  1> ! wB97X-D3 SP def2-SVP
|  2> %pal
|  3> nprocs 24
|  4> end
|  5>
|  6> * xyz 0 1
|  7> S 	 -102.212 	 45.4369 	 -86.3208
|  8> C 	 -101.855 	 44.0545 	 -87.4371
|  9> C 	 -103.024 	 43.2984 	 -87.4263
| 10> C 	 -104.069 	 43.7967 	 -86.5648
| 11> C 	 -103.766 	 44.8495 	 -85.7939
| 12> H 	 -104.995 	 43.3122 	 -86.5446
| 13> C 	 -103.205 	 42.1882 	 -88.4408
| 14> H 	 -103.007 	 42.5583 	 -89.3907
| 15> H 	 -104.245 	 42.0723 	 -88.4874
| 16> C 	 -102.395 	 40.9191 	 -88.1362
| 17> H 	 -102.576 	 40.1418 	 -88.9563
| 18> H 	 -101.386 	 41.1553 	 -88.1607
| 19> C 	 -102.732 	 40.2031 	 -86.8716
| 20> H 	 -101.858 	 39.6626 	 -86.4919
| 21> H 	 -103.033 	 40.9308 	 -86.1083
| 22> H 	 -103.421 	 39.4268 	 -86.9432
| 23> S 	 -104.967 	 47.3149 	 -85.434
| 24> C 	 -106.039 	 47.5102 	 -84.0604
| 25> C 	 -106.315 	 46.3012 	 -83.4808
| 26> C 	 -105.572 	 45.1895 	 -83.9815
| 27> C 	 -104.637 	 45.6311 	 -84.9162
| 28> H 	 -106.938 	 46.354 	 -82.611
| 29> C 	 -105.585 	 43.7434 	 -83.372
| 30> H 	 -105.17 	 43.9057 	 -82.3937
| 31> H 	 -104.813 	 43.1366 	 -83.8718
| 32> C 	 -106.963 	 43.0359 	 -83.2956
| 33> H 	 -107.169 	 42.7195 	 -84.3381
| 34> H 	 -107.729 	 43.7613 	 -83.155
| 35> C 	 -107.009 	 41.9644 	 -82.1914
| 36> H 	 -107.591 	 41.0819 	 -82.5071
| 37> H 	 -107.481 	 42.2874 	 -81.3168
| 38> H 	 -106 	 41.591 	 -81.9723
| 39> H 	 -101.041 	 43.9202 	 -88.1361
| 40> H 	 -106.671 	 48.3901 	 -83.8374
| 41> *
| 42>
| 43>                          ****END OF INPUT****

CARTESIAN COORDINATES (ANGSTROEM)
---------------------------------
  S    -102.212000   45.436900  -86.320800
  C    -101.855000   44.054500  -87.437100
  C    -103.024000   43.298400  -87.426300
  C    -104.069000   43.796700  -86.564800
  C    -103.766000   44.849500  -85.793900
  H    -104.995000   43.312200  -86.544600
  C    -103.205000   42.188200  -88.440800
  H    -103.007000   42.558300  -89.390700
  H    -104.245000   42.072300  -88.487400
  C    -102.395000   40.919100  -88.136200
  H    -102.576000   40.141800  -88.956300
  H    -101.386000   41.155300  -88.160700
  C    -102.732000   40.203100  -86.871600
  H    -101.858000   39.662600  -86.491900
  H    -103.033000   40.930800  -86.108300
  H    -103.421000   39.426800  -86.943200
  S    -104.967000   47.314900  -85.434000
  C    -106.039000   47.510200  -84.060400
  C    -106.315000   46.301200  -83.480800
  C    -105.572000   45.189500  -83.981500
  C    -104.637000   45.631100  -84.916200
  H    -106.938000   46.354000  -82.611000
  C    -105.585000   43.743400  -83.372000
  H    -105.170000   43.905700  -82.393700
  H    -104.813000   43.136600  -83.871800
  C    -106.963000   43.035900  -83.295600
  H    -107.169000   42.719500  -84.338100
  H    -107.729000   43.761300  -83.155000
  C    -107.009000   41.964400  -82.191400
  H    -107.591000   41.081900  -82.507100
  H    -107.481000   42.287400  -81.316800
  H    -106.000000   41.591000  -81.972300
  H    -101.041000   43.920200  -88.136100
  H    -106.671000   48.390100  -83.837400

 Total Charge           Charge          ....    0
 Multiplicity           Mult            ....    1
 Number of Electrons    NEL             ....  134
 Basis Dimension        Dim             ....  322

ORBITAL ENERGIES
----------------

  NO   OCC          E(Eh)            E(eV)
   0   2.0000     -88.966658     -2420.9058
   1   2.0000     -88.960639     -2420.7420
   2   2.0000     -10.331804      -281.1427
   3   2.0000     -10.328025      -281.0398
   4   2.0000     -10.319109      -280.7972
   5   2.0000     -10.318886      -280.7912
   6   2.0000     -10.311887      -280.6007
   7   2.0000     -10.299987      -280.2769
   8   2.0000     -10.296728      -280.1882
   9   2.0000     -10.293007      -280.0870
  10   2.0000     -10.290031      -280.0060
  11   2.0000     -10.287415      -279.9348
  12   2.0000     -10.283346      -279.8241
  13   2.0000     -10.279939      -279.7313
  14   2.0000     -10.279631      -279.7230
  15   2.0000     -10.266533      -279.3666
  16   2.0000      -8.080728      -219.8878
  17   2.0000      -8.074668      -219.7229
  18   2.0000      -6.039253      -164.3364
  19   2.0000      -6.035505      -164.2344
  20   2.0000      -6.033350      -164.1758
  21   2.0000      -6.031304      -164.1201
  22   2.0000      -6.029155      -164.0617
  23   2.0000      -6.025341      -163.9579
  24   2.0000      -1.005661       -27.3654
  25   2.0000      -0.982009       -26.7218
  26   2.0000      -0.916153       -24.9298
  27   2.0000      -0.905160       -24.6307
  28   2.0000      -0.870446       -23.6860
  29   2.0000      -0.850925       -23.1549
  30   2.0000      -0.841068       -22.8866
  31   2.0000      -0.819998       -22.3133
  32   2.0000      -0.786438       -21.4001
  33   2.0000      -0.775476       -21.1018
  34   2.0000      -0.710391       -19.3307
  35   2.0000      -0.706664       -19.2293
  36   2.0000      -0.700459       -19.0605
  37   2.0000      -0.654819       -17.8185
  38   2.0000      -0.639850       -17.4112
  39   2.0000      -0.621516       -16.9123
  40   2.0000      -0.594792       -16.1851
  41   2.0000      -0.575067       -15.6484
  42   2.0000      -0.558176       -15.1887
  43   2.0000      -0.555118       -15.1055
  44   2.0000      -0.543127       -14.7792
  45   2.0000      -0.529217       -14.4007
  46   2.0000      -0.519406       -14.1337
  47   2.0000      -0.515528       -14.0282
  48   2.0000      -0.505554       -13.7568
  49   2.0000      -0.502350       -13.6696
  50   2.0000      -0.494782       -13.4637
  51   2.0000      -0.477068       -12.9817
  52   2.0000      -0.474408       -12.9093
  53   2.0000      -0.468262       -12.7421
  54   2.0000      -0.459697       -12.5090
  55   2.0000      -0.447637       -12.1808
  56   2.0000      -0.443045       -12.0559
  57   2.0000      -0.440970       -11.9994
  58   2.0000      -0.427939       -11.6448
  59   2.0000      -0.426453       -11.6044
  60   2.0000      -0.422865       -11.5067
  61   2.0000      -0.415310       -11.3012
  62   2.0000      -0.400090       -10.8870
  63   2.0000      -0.348508        -9.4834
  64   2.0000      -0.331633        -9.0242
  65   2.0000      -0.325057        -8.8453
  66   2.0000      -0.297590        -8.0978
  67   0.0000       0.025403         0.6912
  68   0.0000       0.065823         1.7911
  69   0.0000       0.106973         2.9109
  70   0.0000       0.115688         3.1480
  71   0.0000       0.129693         3.5291

MULLIKEN ATOMIC CHARGES
-----------------------
   0 S :    0.078472
   1 C :   -0.107961
   2 C :   -0.159819
   3 C :    0.062024
   4 C :   -0.139330
   5 H :   -0.013774
   6 C :    0.133348
   7 H :    0.011035
   8 H :   -0.008937
   9 C :   -0.054050
  10 H :    0.032363
  11 H :    0.012576
  12 C :   -0.031419
  13 H :    0.023018
  14 H :    0.034458
  15 H :    0.015977
  16 S :    0.102183
  17 C :   -0.093732
  18 C :   -0.046986
  19 C :   -0.020930
  20 C :   -0.139598
  21 H :    0.016858
  22 C :    0.041310
  23 H :    0.034681
  24 H :    0.036686
  25 C :   -0.058064
  26 H :    0.029419
  27 H :    0.017926
  28 C :   -0.032824
  29 H :    0.033176
  30 H :    0.029361
  31 H :    0.036598
  32 H :    0.056775
  33 H :    0.069181
Sum of atomic charges:   -0.0000000

LOEWDIN ATOMIC CHARGES
----------------------
   0 S :    0.381769
   1 C :   -0.178830
   2 C :   -0.062089
   3 C :   -0.066032
   4 C :   -0.194056
   5 H :    0.020572
   6 C :   -0.025276
   7 H :    0.024710
   8 H :    0.021529
   9 C :   -0.035419
  10 H :    0.032929
  11 H :    0.013144
  12 C :   -0.065146
  13 H :    0.030975
  14 H :    0.027135
  15 H :    0.015342
  16 S :    0.388481
  17 C :   -0.186293
  18 C :   -0.075438
  19 C :   -0.047194
  20 C :   -0.183158
  21 H :    0.028928
  22 C :   -0.027886
  23 H :    0.029959
  24 H :    0.031560
  25 C :   -0.041338
  26 H :    0.027905
  27 H :    0.019026
  28 C :   -0.060581
  29 H :    0.032337
  30 H :    0.020472
  31 H :    0.028948
  32 H :    0.033649
  33 H :    0.039365

  Mayer bond orders larger than 0.100000
B(  0-S ,  1-C ) :   1.1222 B(  0-S ,  4-C ) :   1.1473 B(  1-C ,  2-C ) :   1.6012
B(  1-C , 32-H ) :   0.9740 B(  2-C ,  3-C ) :   1.2482 B(  2-C ,  6-C ) :   1.0076
B(  3-C ,  4-C ) :   1.5603 B(  3-C ,  5-H ) :   1.0040 B(  4-C , 20-C ) :   1.0259
B(  6-C ,  7-H ) :   0.9392 B(  6-C ,  8-H ) :   0.9374 B(  6-C ,  9-C ) :   1.0675
B(  9-C , 10-H ) :   0.9550 B(  9-C , 11-H ) :   0.9617 B(  9-C , 12-C ) :   1.0806
B( 12-C , 13-H ) :   0.9694 B( 12-C , 14-H ) :   0.9747 B( 12-C , 15-H ) :   0.9763
B( 16-S , 17-C ) :   1.1388 B( 16-S , 20-C ) :   1.1405 B( 17-C , 18-C ) :   1.6492
B( 17-C , 33-H ) :   0.9596 B( 18-C , 19-C ) :   1.2133 B( 18-C , 21-H ) :   0.9883
B( 19-C , 20-C ) :   1.6084 B( 19-C , 22-C ) :   1.0221 B( 22-C , 23-H ) :   0.9467
B( 22-C , 24-H ) :   0.9374 B( 22-C , 25-C ) :   1.0458 B( 25-C , 26-H ) :   0.9575
B( 25-C , 27-H ) :   0.9656 B( 25-C , 28-C ) :   1.0616 B( 28-C , 29-H ) :   0.9749
B( 28-C , 30-H ) :   0.9770 B( 28-C , 31-H ) :   0.9799

Dispersion correction           -0.013980085
FINAL SINGLE POINT ENERGY     -1339.854972640340

DIPOLE MOMENT
-------------
                                X             Y             Z
Electronic contribution:      6.90838      29.37479      -4.08094
Nuclear contribution   :     -7.43189     -29.97634       4.10374
                        -----------------------------------------
Total Dipole Moment    :     -0.52351      -0.60155       0.02280
                        -----------------------------------------
Magnitude (a.u.)       :      0.79777
Magnitude (Debye)      :      2.02777

Rotational constants in cm-1:     0.016535     0.009444     0.006429
Rotational constants in MHz :   495.699212   283.133576   192.724345

                             ****ORCA TERMINATED NORMALLY****
TOTAL RUN TIME: 0 days 0 hours 0 minutes 20 seconds 209 msec
