                         Program Version 4.2.1 -  RELEASE  -
|  1> ! wB97X-D3 SP def2-SVP
|  2> %pal
|  3> nprocs 24
|  4> end
|  5>
|  6> * xyz 0 1
|  7> S 	 -118.805 	 29.6604 	 -19.6211
|  8> C 	 -118.376 	 28.774 	 -21.0421
|  9> C 	 -119.431 	 28.0679 	 -21.6579
| 10> C 	 -120.573 	 28.2726 	 -20.8698
| 11> C 	 -120.378 	 28.8901 	 -19.6404
| 12> H 	 -121.613 	 27.8979 	 -21.0988
| 13> C 	 -119.413 	 27.3808 	 -23.0088
| 14> H 	 -119.656 	 26.3354 	 -23.0525
| 15> H 	 -118.389 	 27.4014 	 -23.2725
| 16> C 	 -120.18 	 28.0593 	 -24.1263
| 17> H 	 -119.792 	 27.6121 	 -25.0328
| 18> H 	 -121.131 	 27.7836 	 -23.832
| 19> C 	 -120.111 	 29.5807 	 -24.3176
| 20> H 	 -120.267 	 30.0574 	 -23.2837
| 21> H 	 -119.258 	 30.0183 	 -24.7207
| 22> H 	 -120.958 	 29.8211 	 -24.9861
| 23> S 	 -121.698 	 30.801 	 -18.0971
| 24> C 	 -123.157 	 30.4981 	 -17.2263
| 25> C 	 -123.491 	 29.1513 	 -17.3588
| 26> C 	 -122.613 	 28.438 	 -18.2672
| 27> C 	 -121.532 	 29.2138 	 -18.7092
| 28> H 	 -124.341 	 28.6191 	 -16.813
| 29> C 	 -122.712 	 26.9366 	 -18.5795
| 30> H 	 -121.622 	 26.7973 	 -18.8011
| 31> H 	 -123.354 	 26.8214 	 -19.48
| 32> C 	 -123.221 	 25.8732 	 -17.5351
| 33> H 	 -123.263 	 24.95 	 -18.0907
| 34> H 	 -124.295 	 26.0891 	 -17.1323
| 35> C 	 -122.292 	 25.6819 	 -16.306
| 36> H 	 -122.479 	 26.1615 	 -15.3753
| 37> H 	 -121.243 	 25.9572 	 -16.6134
| 38> H 	 -122.293 	 24.6243 	 -15.8978
| 39> H 	 -117.442 	 28.9825 	 -21.564
| 40> H 	 -123.724 	 31.259 	 -16.7452
| 41> *
| 42>
| 43>                          ****END OF INPUT****

CARTESIAN COORDINATES (ANGSTROEM)
---------------------------------
  S    -118.805000   29.660400  -19.621100
  C    -118.376000   28.774000  -21.042100
  C    -119.431000   28.067900  -21.657900
  C    -120.573000   28.272600  -20.869800
  C    -120.378000   28.890100  -19.640400
  H    -121.613000   27.897900  -21.098800
  C    -119.413000   27.380800  -23.008800
  H    -119.656000   26.335400  -23.052500
  H    -118.389000   27.401400  -23.272500
  C    -120.180000   28.059300  -24.126300
  H    -119.792000   27.612100  -25.032800
  H    -121.131000   27.783600  -23.832000
  C    -120.111000   29.580700  -24.317600
  H    -120.267000   30.057400  -23.283700
  H    -119.258000   30.018300  -24.720700
  H    -120.958000   29.821100  -24.986100
  S    -121.698000   30.801000  -18.097100
  C    -123.157000   30.498100  -17.226300
  C    -123.491000   29.151300  -17.358800
  C    -122.613000   28.438000  -18.267200
  C    -121.532000   29.213800  -18.709200
  H    -124.341000   28.619100  -16.813000
  C    -122.712000   26.936600  -18.579500
  H    -121.622000   26.797300  -18.801100
  H    -123.354000   26.821400  -19.480000
  C    -123.221000   25.873200  -17.535100
  H    -123.263000   24.950000  -18.090700
  H    -124.295000   26.089100  -17.132300
  C    -122.292000   25.681900  -16.306000
  H    -122.479000   26.161500  -15.375300
  H    -121.243000   25.957200  -16.613400
  H    -122.293000   24.624300  -15.897800
  H    -117.442000   28.982500  -21.564000
  H    -123.724000   31.259000  -16.745200

 Total Charge           Charge          ....    0
 Multiplicity           Mult            ....    1
 Number of Electrons    NEL             ....  134
 Basis Dimension        Dim             ....  322

ORBITAL ENERGIES
----------------

  NO   OCC          E(Eh)            E(eV)
   0   2.0000     -88.975217     -2421.1387
   1   2.0000     -88.963276     -2420.8138
   2   2.0000     -10.335025      -281.2303
   3   2.0000     -10.328849      -281.0623
   4   2.0000     -10.319132      -280.7979
   5   2.0000     -10.316053      -280.7141
   6   2.0000     -10.305428      -280.4249
   7   2.0000     -10.304081      -280.3883
   8   2.0000     -10.301608      -280.3210
   9   2.0000     -10.300570      -280.2927
  10   2.0000     -10.298208      -280.2285
  11   2.0000     -10.297906      -280.2203
  12   2.0000     -10.286704      -279.9155
  13   2.0000     -10.280255      -279.7400
  14   2.0000     -10.279853      -279.7290
  15   2.0000     -10.277110      -279.6544
  16   2.0000      -8.089864      -220.1364
  17   2.0000      -8.079128      -219.8443
  18   2.0000      -6.048233      -164.5808
  19   2.0000      -6.044533      -164.4801
  20   2.0000      -6.040632      -164.3740
  21   2.0000      -6.037522      -164.2893
  22   2.0000      -6.033312      -164.1748
  23   2.0000      -6.030124      -164.0880
  24   2.0000      -1.009008       -27.4565
  25   2.0000      -0.989070       -26.9140
  26   2.0000      -0.918952       -25.0060
  27   2.0000      -0.897789       -24.4301
  28   2.0000      -0.864166       -23.5152
  29   2.0000      -0.853027       -23.2121
  30   2.0000      -0.840566       -22.8730
  31   2.0000      -0.813703       -22.1420
  32   2.0000      -0.787942       -21.4410
  33   2.0000      -0.771243       -20.9866
  34   2.0000      -0.705258       -19.1910
  35   2.0000      -0.698627       -19.0106
  36   2.0000      -0.691806       -18.8250
  37   2.0000      -0.650213       -17.6932
  38   2.0000      -0.638357       -17.3706
  39   2.0000      -0.622525       -16.9398
  40   2.0000      -0.588407       -16.0114
  41   2.0000      -0.571189       -15.5429
  42   2.0000      -0.561254       -15.2725
  43   2.0000      -0.554523       -15.0893
  44   2.0000      -0.540582       -14.7100
  45   2.0000      -0.527871       -14.3641
  46   2.0000      -0.520997       -14.1770
  47   2.0000      -0.516334       -14.0502
  48   2.0000      -0.494867       -13.4660
  49   2.0000      -0.494041       -13.4435
  50   2.0000      -0.482665       -13.1340
  51   2.0000      -0.480286       -13.0692
  52   2.0000      -0.473110       -12.8740
  53   2.0000      -0.465635       -12.6706
  54   2.0000      -0.456749       -12.4288
  55   2.0000      -0.449226       -12.2241
  56   2.0000      -0.442939       -12.0530
  57   2.0000      -0.438930       -11.9439
  58   2.0000      -0.428993       -11.6735
  59   2.0000      -0.419618       -11.4184
  60   2.0000      -0.418382       -11.3848
  61   2.0000      -0.413962       -11.2645
  62   2.0000      -0.406560       -11.0631
  63   2.0000      -0.350927        -9.5492
  64   2.0000      -0.336656        -9.1609
  65   2.0000      -0.325450        -8.8559
  66   2.0000      -0.289605        -7.8806
  67   0.0000       0.025773         0.7013
  68   0.0000       0.073433         1.9982
  69   0.0000       0.108392         2.9495
  70   0.0000       0.121721         3.3122
  71   0.0000       0.136999         3.7279

MULLIKEN ATOMIC CHARGES
-----------------------
   0 S :    0.128265
   1 C :   -0.119681
   2 C :   -0.100859
   3 C :   -0.024326
   4 C :   -0.142292
   5 H :    0.039357
   6 C :    0.123904
   7 H :    0.032845
   8 H :   -0.010781
   9 C :   -0.067190
  10 H :    0.033056
  11 H :    0.015937
  12 C :   -0.058489
  13 H :    0.051439
  14 H :    0.023004
  15 H :    0.039711
  16 S :    0.101073
  17 C :   -0.093126
  18 C :   -0.038640
  19 C :   -0.072796
  20 C :   -0.151363
  21 H :    0.044397
  22 C :   -0.014954
  23 H :    0.056553
  24 H :    0.051425
  25 C :   -0.055386
  26 H :    0.036117
  27 H :    0.042946
  28 C :   -0.078834
  29 H :    0.028098
  30 H :    0.040697
  31 H :    0.032433
  32 H :    0.052176
  33 H :    0.055283
Sum of atomic charges:    0.0000000

LOEWDIN ATOMIC CHARGES
----------------------
   0 S :    0.424102
   1 C :   -0.198983
   2 C :   -0.063750
   3 C :   -0.064606
   4 C :   -0.204037
   5 H :    0.039078
   6 C :   -0.028939
   7 H :    0.033407
   8 H :    0.021104
   9 C :   -0.032984
  10 H :    0.028793
  11 H :    0.014990
  12 C :   -0.066420
  13 H :    0.037772
  14 H :    0.012614
  15 H :    0.033436
  16 S :    0.430138
  17 C :   -0.195310
  18 C :   -0.079341
  19 C :   -0.070753
  20 C :   -0.214678
  21 H :    0.043047
  22 C :   -0.044271
  23 H :    0.040729
  24 H :    0.034598
  25 C :   -0.045164
  26 H :    0.027856
  27 H :    0.031988
  28 C :   -0.081878
  29 H :    0.019904
  30 H :    0.032027
  31 H :    0.032990
  32 H :    0.026180
  33 H :    0.026359

  Mayer bond orders larger than 0.100000
B(  0-S ,  1-C ) :   1.1722 B(  0-S ,  4-C ) :   1.1540 B(  1-C ,  2-C ) :   1.5687
B(  1-C , 32-H ) :   0.9570 B(  2-C ,  3-C ) :   1.2765 B(  2-C ,  6-C ) :   1.0269
B(  3-C ,  4-C ) :   1.5456 B(  3-C ,  5-H ) :   0.9789 B(  4-C , 20-C ) :   1.0262
B(  6-C ,  7-H ) :   0.9415 B(  6-C ,  8-H ) :   0.9232 B(  6-C ,  9-C ) :   1.0610
B(  9-C , 10-H ) :   0.9547 B(  9-C , 11-H ) :   0.9610 B(  9-C , 12-C ) :   1.0868
B( 12-C , 13-H ) :   0.9680 B( 12-C , 14-H ) :   0.9787 B( 12-C , 15-H ) :   0.9731
B( 16-S , 17-C ) :   1.1743 B( 16-S , 20-C ) :   1.1616 B( 17-C , 18-C ) :   1.5581
B( 17-C , 33-H ) :   0.9768 B( 18-C , 19-C ) :   1.2856 B( 18-C , 21-H ) :   0.9776
B( 19-C , 20-C ) :   1.5725 B( 19-C , 22-C ) :   1.0148 B( 22-C , 23-H ) :   0.9420
B( 22-C , 24-H ) :   0.9309 B( 22-C , 25-C ) :   1.0816 B( 25-C , 26-H ) :   0.9535
B( 25-C , 27-H ) :   0.9526 B( 25-C , 28-C ) :   1.0558 B( 28-C , 29-H ) :   0.9779
B( 28-C , 30-H ) :   0.9782 B( 28-C , 31-H ) :   0.9764

Dispersion correction           -0.014397104
FINAL SINGLE POINT ENERGY     -1339.852274127897

DIPOLE MOMENT
-------------
                                X             Y             Z
Electronic contribution:      6.42084      17.57253      10.70160
Nuclear contribution   :     -6.65720     -17.94541     -11.11760
                        -----------------------------------------
Total Dipole Moment    :     -0.23636      -0.37288      -0.41600
                        -----------------------------------------
Magnitude (a.u.)       :      0.60660
Magnitude (Debye)      :      1.54185

Rotational constants in cm-1:     0.019282     0.008195     0.007070
Rotational constants in MHz :   578.071421   245.672260   211.961721

                             ****ORCA TERMINATED NORMALLY****
TOTAL RUN TIME: 0 days 0 hours 0 minutes 21 seconds 514 msec
