                         Program Version 4.2.1 -  RELEASE  -
|  1> ! wB97X-D3 SP def2-SVP
|  2> %pal
|  3> nprocs 24
|  4> end
|  5>
|  6> * xyz 0 1
|  7> S 	 -55.0635 	 14.5162 	 -104.903
|  8> C 	 -54.5652 	 15.1185 	 -103.384
|  9> C 	 -55.6241 	 15.5657 	 -102.61
| 10> C 	 -56.8925 	 15.1851 	 -103.186
| 11> C 	 -56.7702 	 14.6241 	 -104.429
| 12> H 	 -57.8272 	 15.4262 	 -102.768
| 13> C 	 -55.5538 	 16.1734 	 -101.255
| 14> H 	 -55.005 	 17.0601 	 -101.306
| 15> H 	 -55.0145 	 15.551 	 -100.558
| 16> C 	 -56.8939 	 16.382 	 -100.421
| 17> H 	 -57.4647 	 17.1278 	 -100.937
| 18> H 	 -57.4573 	 15.4484 	 -100.443
| 19> C 	 -56.6777 	 16.7851 	 -98.9581
| 20> H 	 -57.6227 	 17.1294 	 -98.6158
| 21> H 	 -56.2005 	 15.8944 	 -98.4525
| 22> H 	 -56.0052 	 17.5435 	 -98.8134
| 23> S 	 -57.5068 	 13.501 	 -106.84
| 24> C 	 -59.2035 	 13.3005 	 -107.151
| 25> C 	 -60.0467 	 13.9824 	 -106.279
| 26> C 	 -59.2393 	 14.552 	 -105.267
| 27> C 	 -57.8851 	 14.3515 	 -105.378
| 28> H 	 -61.1381 	 13.9347 	 -106.305
| 29> C 	 -59.9662 	 15.3877 	 -104.185
| 30> H 	 -59.8087 	 14.8455 	 -103.255
| 31> H 	 -61.0805 	 15.3056 	 -104.362
| 32> C 	 -59.6264 	 16.9129 	 -103.954
| 33> H 	 -58.5588 	 17.227 	 -104.061
| 34> H 	 -60.0343 	 17.1591 	 -102.964
| 35> C 	 -60.3496 	 17.8015 	 -104.93
| 36> H 	 -61.4037 	 17.656 	 -104.794
| 37> H 	 -60.0084 	 17.572 	 -105.928
| 38> H 	 -60.1006 	 18.792 	 -104.63
| 39> H 	 -53.5716 	 15.4022 	 -103.203
| 40> H 	 -59.5974 	 12.7425 	 -107.962
| 41> *
| 42>
| 43>                          ****END OF INPUT****

CARTESIAN COORDINATES (ANGSTROEM)
---------------------------------
  S    -55.063500   14.516200  -104.903000
  C    -54.565200   15.118500  -103.384000
  C    -55.624100   15.565700  -102.610000
  C    -56.892500   15.185100  -103.186000
  C    -56.770200   14.624100  -104.429000
  H    -57.827200   15.426200  -102.768000
  C    -55.553800   16.173400  -101.255000
  H    -55.005000   17.060100  -101.306000
  H    -55.014500   15.551000  -100.558000
  C    -56.893900   16.382000  -100.421000
  H    -57.464700   17.127800  -100.937000
  H    -57.457300   15.448400  -100.443000
  C    -56.677700   16.785100  -98.958100
  H    -57.622700   17.129400  -98.615800
  H    -56.200500   15.894400  -98.452500
  H    -56.005200   17.543500  -98.813400
  S    -57.506800   13.501000  -106.840000
  C    -59.203500   13.300500  -107.151000
  C    -60.046700   13.982400  -106.279000
  C    -59.239300   14.552000  -105.267000
  C    -57.885100   14.351500  -105.378000
  H    -61.138100   13.934700  -106.305000
  C    -59.966200   15.387700  -104.185000
  H    -59.808700   14.845500  -103.255000
  H    -61.080500   15.305600  -104.362000
  C    -59.626400   16.912900  -103.954000
  H    -58.558800   17.227000  -104.061000
  H    -60.034300   17.159100  -102.964000
  C    -60.349600   17.801500  -104.930000
  H    -61.403700   17.656000  -104.794000
  H    -60.008400   17.572000  -105.928000
  H    -60.100600   18.792000  -104.630000
  H    -53.571600   15.402200  -103.203000
  H    -59.597400   12.742500  -107.962000

 Total Charge           Charge          ....    0
 Multiplicity           Mult            ....    1
 Number of Electrons    NEL             ....  134
 Basis Dimension        Dim             ....  322

ORBITAL ENERGIES
----------------

  NO   OCC          E(Eh)            E(eV)
   0   2.0000     -88.968487     -2420.9556
   1   2.0000     -88.965788     -2420.8822
   2   2.0000     -10.330730      -281.1134
   3   2.0000     -10.325649      -280.9752
   4   2.0000     -10.314931      -280.6835
   5   2.0000     -10.305484      -280.4265
   6   2.0000     -10.301390      -280.3151
   7   2.0000     -10.299610      -280.2666
   8   2.0000     -10.298930      -280.2481
   9   2.0000     -10.295690      -280.1600
  10   2.0000     -10.288971      -279.9771
  11   2.0000     -10.288495      -279.9642
  12   2.0000     -10.285716      -279.8886
  13   2.0000     -10.284835      -279.8646
  14   2.0000     -10.276668      -279.6423
  15   2.0000     -10.266694      -279.3709
  16   2.0000      -8.083771      -219.9706
  17   2.0000      -8.080811      -219.8901
  18   2.0000      -6.042156      -164.4154
  19   2.0000      -6.039383      -164.3400
  20   2.0000      -6.038339      -164.3116
  21   2.0000      -6.035364      -164.2306
  22   2.0000      -6.034524      -164.2078
  23   2.0000      -6.031446      -164.1240
  24   2.0000      -1.009269       -27.4636
  25   2.0000      -0.987676       -26.8760
  26   2.0000      -0.909927       -24.7604
  27   2.0000      -0.905995       -24.6534
  28   2.0000      -0.870071       -23.6758
  29   2.0000      -0.858912       -23.3722
  30   2.0000      -0.850760       -23.1503
  31   2.0000      -0.817144       -22.2356
  32   2.0000      -0.782244       -21.2859
  33   2.0000      -0.771990       -21.0069
  34   2.0000      -0.711545       -19.3621
  35   2.0000      -0.698549       -19.0085
  36   2.0000      -0.682432       -18.5699
  37   2.0000      -0.667865       -18.1735
  38   2.0000      -0.641530       -17.4569
  39   2.0000      -0.624897       -17.0043
  40   2.0000      -0.593911       -16.1611
  41   2.0000      -0.576243       -15.6804
  42   2.0000      -0.564929       -15.3725
  43   2.0000      -0.555588       -15.1183
  44   2.0000      -0.548524       -14.9261
  45   2.0000      -0.530962       -14.4482
  46   2.0000      -0.513997       -13.9866
  47   2.0000      -0.508030       -13.8242
  48   2.0000      -0.505191       -13.7470
  49   2.0000      -0.499395       -13.5892
  50   2.0000      -0.494786       -13.4638
  51   2.0000      -0.479427       -13.0459
  52   2.0000      -0.472713       -12.8632
  53   2.0000      -0.471573       -12.8322
  54   2.0000      -0.460823       -12.5396
  55   2.0000      -0.457953       -12.4615
  56   2.0000      -0.442912       -12.0522
  57   2.0000      -0.433824       -11.8050
  58   2.0000      -0.430478       -11.7139
  59   2.0000      -0.425867       -11.5884
  60   2.0000      -0.421342       -11.4653
  61   2.0000      -0.415459       -11.3052
  62   2.0000      -0.410589       -11.1727
  63   2.0000      -0.361549        -9.8382
  64   2.0000      -0.337486        -9.1835
  65   2.0000      -0.326210        -8.8766
  66   2.0000      -0.278997        -7.5919
  67   0.0000       0.022704         0.6178
  68   0.0000       0.085311         2.3214
  69   0.0000       0.091755         2.4968
  70   0.0000       0.125101         3.4042
  71   0.0000       0.130902         3.5620

MULLIKEN ATOMIC CHARGES
-----------------------
   0 S :    0.097346
   1 C :   -0.088798
   2 C :   -0.078559
   3 C :   -0.025709
   4 C :   -0.053717
   5 H :   -0.014545
   6 C :    0.058156
   7 H :    0.016951
   8 H :    0.023398
   9 C :   -0.129800
  10 H :    0.026711
  11 H :    0.042774
  12 C :    0.014071
  13 H :    0.031687
  14 H :    0.039931
  15 H :    0.008105
  16 S :    0.109437
  17 C :   -0.076572
  18 C :   -0.028868
  19 C :   -0.087843
  20 C :   -0.108473
  21 H :    0.030224
  22 C :    0.010180
  23 H :    0.041139
  24 H :    0.020315
  25 C :   -0.107633
  26 H :    0.059729
  27 H :    0.024834
  28 C :   -0.005692
  29 H :    0.016535
  30 H :    0.040437
  31 H :    0.022908
  32 H :    0.031055
  33 H :    0.040285
Sum of atomic charges:   -0.0000000

LOEWDIN ATOMIC CHARGES
----------------------
   0 S :    0.403650
   1 C :   -0.203936
   2 C :   -0.055796
   3 C :   -0.061837
   4 C :   -0.174354
   5 H :    0.021486
   6 C :   -0.033908
   7 H :    0.023578
   8 H :    0.031551
   9 C :   -0.035999
  10 H :    0.014991
  11 H :    0.025165
  12 C :   -0.053648
  13 H :    0.027921
  14 H :    0.035671
  15 H :    0.011404
  16 S :    0.418004
  17 C :   -0.176583
  18 C :   -0.071000
  19 C :   -0.063182
  20 C :   -0.202135
  21 H :    0.038650
  22 C :   -0.038928
  23 H :    0.027468
  24 H :    0.033548
  25 C :   -0.046684
  26 H :    0.033358
  27 H :    0.023946
  28 C :   -0.055461
  29 H :    0.017603
  30 H :    0.026019
  31 H :    0.022173
  32 H :    0.017967
  33 H :    0.019296

  Mayer bond orders larger than 0.100000
B(  0-S ,  1-C ) :   1.1399 B(  0-S ,  4-C ) :   1.1421 B(  1-C ,  2-C ) :   1.6137
B(  1-C , 32-H ) :   0.9729 B(  2-C ,  3-C ) :   1.2556 B(  2-C ,  6-C ) :   1.0170
B(  3-C ,  4-C ) :   1.5685 B(  3-C ,  5-H ) :   0.9896 B(  4-C , 20-C ) :   1.0579
B(  6-C ,  7-H ) :   0.9255 B(  6-C ,  8-H ) :   0.9441 B(  6-C ,  9-C ) :   1.0796
B(  9-C , 10-H ) :   0.9529 B(  9-C , 11-H ) :   0.9499 B(  9-C , 12-C ) :   1.0823
B( 12-C , 13-H ) :   0.9700 B( 12-C , 14-H ) :   0.9722 B( 12-C , 15-H ) :   0.9746
B( 16-S , 17-C ) :   1.1774 B( 16-S , 20-C ) :   1.1226 B( 17-C , 18-C ) :   1.5887
B( 17-C , 33-H ) :   0.9681 B( 18-C , 19-C ) :   1.2677 B( 18-C , 21-H ) :   0.9879
B( 19-C , 20-C ) :   1.6043 B( 19-C , 22-C ) :   1.0218 B( 22-C , 23-H ) :   0.9337
B( 22-C , 24-H ) :   0.9396 B( 22-C , 25-C ) :   1.0509 B( 25-C , 26-H ) :   0.9578
B( 25-C , 27-H ) :   0.9518 B( 25-C , 28-C ) :   1.0834 B( 28-C , 29-H ) :   0.9731
B( 28-C , 30-H ) :   0.9793 B( 28-C , 31-H ) :   0.9724

Dispersion correction           -0.014579611
FINAL SINGLE POINT ENERGY     -1339.866702186494

DIPOLE MOMENT
-------------
                                X             Y             Z
Electronic contribution:     12.64602     -17.94846     -23.64731
Nuclear contribution   :    -13.06697      18.37814      24.15808
                        -----------------------------------------
Total Dipole Moment    :     -0.42096       0.42968       0.51077
                        -----------------------------------------
Magnitude (a.u.)       :      0.78913
Magnitude (Debye)      :      2.00580

Rotational constants in cm-1:     0.018288     0.009608     0.006882
Rotational constants in MHz :   548.261466   288.046060   206.324133

                             ****ORCA TERMINATED NORMALLY****
TOTAL RUN TIME: 0 days 0 hours 0 minutes 21 seconds 376 msec
