                         Program Version 4.2.1 -  RELEASE  -
|  1> ! wB97X-D3 SP def2-SVP
|  2> %pal
|  3> nprocs 24
|  4> end
|  5>
|  6> * xyz 0 1
|  7> S 	 -31.5 	 -10.9853 	 12.6604
|  8> C 	 -32.7211 	 -10.6966 	 13.8316
|  9> C 	 -33.9676 	 -10.481 	 13.3086
| 10> C 	 -33.9515 	 -10.5536 	 11.8722
| 11> C 	 -32.6864 	 -10.8641 	 11.3563
| 12> H 	 -34.8589 	 -10.4789 	 11.3126
| 13> C 	 -35.2892 	 -10.1774 	 14.0789
| 14> H 	 -35.9684 	 -11.0385 	 14.1062
| 15> H 	 -35.7854 	 -9.41076 	 13.4103
| 16> C 	 -35.183 	 -9.78945 	 15.5533
| 17> H 	 -36.1247 	 -9.97421 	 16.0347
| 18> H 	 -34.3609 	 -10.3249 	 16.0382
| 19> C 	 -34.9785 	 -8.23055 	 15.759
| 20> H 	 -34.0454 	 -7.9188 	 15.329
| 21> H 	 -35.7445 	 -7.62456 	 15.2663
| 22> H 	 -34.9404 	 -7.99588 	 16.78
| 23> S 	 -32.1778 	 -12.6166 	 9.34566
| 24> C 	 -31.8877 	 -12.1209 	 7.78853
| 25> C 	 -31.9109 	 -10.7622 	 7.68095
| 26> C 	 -32.1972 	 -10.0923 	 8.93962
| 27> C 	 -32.2831 	 -11.0743 	 9.92097
| 28> H 	 -31.8322 	 -10.2736 	 6.7707
| 29> C 	 -32.266 	 -8.58648 	 9.02306
| 30> H 	 -32.8259 	 -8.38952 	 9.94175
| 31> H 	 -32.7885 	 -8.30617 	 8.15404
| 32> C 	 -30.9005 	 -8.03502 	 9.05788
| 33> H 	 -30.2841 	 -8.17042 	 8.22358
| 34> H 	 -30.2835 	 -8.57554 	 9.77547
| 35> C 	 -30.8719 	 -6.50939 	 9.44345
| 36> H 	 -29.8403 	 -6.28192 	 9.744
| 37> H 	 -31.312 	 -6.1172 	 10.3496
| 38> H 	 -31.239 	 -5.86967 	 8.70544
| 39> H 	 -32.4737 	 -10.5898 	 14.9318
| 40> H 	 -31.8237 	 -12.8907 	 6.96869
| 41> *
| 42>
| 43>                          ****END OF INPUT****

CARTESIAN COORDINATES (ANGSTROEM)
---------------------------------
  S    -31.500000  -10.985300   12.660400
  C    -32.721100  -10.696600   13.831600
  C    -33.967600  -10.481000   13.308600
  C    -33.951500  -10.553600   11.872200
  C    -32.686400  -10.864100   11.356300
  H    -34.858900  -10.478900   11.312600
  C    -35.289200  -10.177400   14.078900
  H    -35.968400  -11.038500   14.106200
  H    -35.785400   -9.410760   13.410300
  C    -35.183000   -9.789450   15.553300
  H    -36.124700   -9.974210   16.034700
  H    -34.360900  -10.324900   16.038200
  C    -34.978500   -8.230550   15.759000
  H    -34.045400   -7.918800   15.329000
  H    -35.744500   -7.624560   15.266300
  H    -34.940400   -7.995880   16.780000
  S    -32.177800  -12.616600    9.345660
  C    -31.887700  -12.120900    7.788530
  C    -31.910900  -10.762200    7.680950
  C    -32.197200  -10.092300    8.939620
  C    -32.283100  -11.074300    9.920970
  H    -31.832200  -10.273600    6.770700
  C    -32.266000   -8.586480    9.023060
  H    -32.825900   -8.389520    9.941750
  H    -32.788500   -8.306170    8.154040
  C    -30.900500   -8.035020    9.057880
  H    -30.284100   -8.170420    8.223580
  H    -30.283500   -8.575540    9.775470
  C    -30.871900   -6.509390    9.443450
  H    -29.840300   -6.281920    9.744000
  H    -31.312000   -6.117200   10.349600
  H    -31.239000   -5.869670    8.705440
  H    -32.473700  -10.589800   14.931800
  H    -31.823700  -12.890700    6.968690

 Total Charge           Charge          ....    0
 Multiplicity           Mult            ....    1
 Number of Electrons    NEL             ....  134
 Basis Dimension        Dim             ....  322

ORBITAL ENERGIES
----------------

  NO   OCC          E(Eh)            E(eV)
   0   2.0000     -88.964774     -2420.8546
   1   2.0000     -88.960466     -2420.7373
   2   2.0000     -10.332410      -281.1592
   3   2.0000     -10.315704      -280.7046
   4   2.0000     -10.313050      -280.6323
   5   2.0000     -10.309641      -280.5396
   6   2.0000     -10.300496      -280.2908
   7   2.0000     -10.300364      -280.2872
   8   2.0000     -10.298275      -280.2303
   9   2.0000     -10.295067      -280.1430
  10   2.0000     -10.290578      -280.0209
  11   2.0000     -10.283832      -279.8373
  12   2.0000     -10.283117      -279.8178
  13   2.0000     -10.279008      -279.7060
  14   2.0000     -10.271919      -279.5131
  15   2.0000     -10.269210      -279.4394
  16   2.0000      -8.079854      -219.8640
  17   2.0000      -8.079198      -219.8461
  18   2.0000      -6.038305      -164.3106
  19   2.0000      -6.037272      -164.2825
  20   2.0000      -6.034290      -164.2014
  21   2.0000      -6.033053      -164.1677
  22   2.0000      -6.030700      -164.1037
  23   2.0000      -6.030259      -164.0917
  24   2.0000      -1.018468       -27.7139
  25   2.0000      -0.988838       -26.9076
  26   2.0000      -0.918496       -24.9936
  27   2.0000      -0.904825       -24.6216
  28   2.0000      -0.863025       -23.4841
  29   2.0000      -0.849786       -23.1239
  30   2.0000      -0.847248       -23.0548
  31   2.0000      -0.809377       -22.0243
  32   2.0000      -0.785864       -21.3845
  33   2.0000      -0.774188       -21.0667
  34   2.0000      -0.711430       -19.3590
  35   2.0000      -0.705206       -19.1896
  36   2.0000      -0.684860       -18.6360
  37   2.0000      -0.665363       -18.1055
  38   2.0000      -0.637071       -17.3356
  39   2.0000      -0.612275       -16.6609
  40   2.0000      -0.599476       -16.3126
  41   2.0000      -0.576817       -15.6960
  42   2.0000      -0.565238       -15.3809
  43   2.0000      -0.545043       -14.8314
  44   2.0000      -0.535911       -14.5829
  45   2.0000      -0.529304       -14.4031
  46   2.0000      -0.519064       -14.1245
  47   2.0000      -0.513922       -13.9845
  48   2.0000      -0.503027       -13.6881
  49   2.0000      -0.494098       -13.4451
  50   2.0000      -0.485321       -13.2063
  51   2.0000      -0.477660       -12.9978
  52   2.0000      -0.477285       -12.9876
  53   2.0000      -0.468674       -12.7533
  54   2.0000      -0.458711       -12.4822
  55   2.0000      -0.447430       -12.1752
  56   2.0000      -0.445018       -12.1095
  57   2.0000      -0.438711       -11.9379
  58   2.0000      -0.435284       -11.8447
  59   2.0000      -0.424117       -11.5408
  60   2.0000      -0.420580       -11.4446
  61   2.0000      -0.417986       -11.3740
  62   2.0000      -0.409533       -11.1439
  63   2.0000      -0.337314        -9.1788
  64   2.0000      -0.327091        -8.9006
  65   2.0000      -0.322810        -8.7841
  66   2.0000      -0.307590        -8.3700
  67   0.0000       0.053725         1.4619
  68   0.0000       0.068410         1.8615
  69   0.0000       0.121901         3.3171
  70   0.0000       0.127864         3.4794
  71   0.0000       0.129888         3.5344

MULLIKEN ATOMIC CHARGES
-----------------------
   0 S :    0.118258
   1 C :   -0.160002
   2 C :   -0.086419
   3 C :    0.059009
   4 C :   -0.181339
   5 H :    0.005456
   6 C :    0.036473
   7 H :    0.045602
   8 H :    0.037273
   9 C :   -0.072883
  10 H :    0.029246
  11 H :    0.036655
  12 C :   -0.041962
  13 H :    0.021842
  14 H :    0.029320
  15 H :    0.024463
  16 S :    0.144544
  17 C :   -0.108937
  18 C :   -0.015238
  19 C :   -0.085298
  20 C :   -0.187136
  21 H :   -0.013779
  22 C :    0.181996
  23 H :    0.027303
  24 H :    0.011730
  25 C :   -0.057879
  26 H :    0.012904
  27 H :    0.019280
  28 C :   -0.034280
  29 H :    0.020978
  30 H :    0.018389
  31 H :    0.022570
  32 H :    0.067339
  33 H :    0.074525
Sum of atomic charges:   -0.0000000

LOEWDIN ATOMIC CHARGES
----------------------
   0 S :    0.411684
   1 C :   -0.222093
   2 C :   -0.069999
   3 C :   -0.056651
   4 C :   -0.190022
   5 H :    0.028733
   6 C :   -0.035149
   7 H :    0.035710
   8 H :    0.036873
   9 C :   -0.036659
  10 H :    0.024440
  11 H :    0.025718
  12 C :   -0.059826
  13 H :    0.020072
  14 H :    0.024808
  15 H :    0.016344
  16 S :    0.488230
  17 C :   -0.222746
  18 C :   -0.070975
  19 C :   -0.045053
  20 C :   -0.252715
  21 H :    0.016426
  22 C :   -0.023316
  23 H :    0.037280
  24 H :    0.026676
  25 C :   -0.033287
  26 H :    0.020459
  27 H :    0.028704
  28 C :   -0.069300
  29 H :    0.030169
  30 H :    0.024872
  31 H :    0.014537
  32 H :    0.036731
  33 H :    0.039322

  Mayer bond orders larger than 0.100000
B(  0-S ,  1-C ) :   1.1438 B(  0-S ,  4-C ) :   1.1669 B(  1-C ,  2-C ) :   1.6359
B(  1-C , 32-H ) :   0.9498 B(  2-C ,  3-C ) :   1.2526 B(  2-C ,  6-C ) :   0.9926
B(  3-C ,  4-C ) :   1.5828 B(  3-C ,  5-H ) :   1.0007 B(  4-C , 20-C ) :   0.9645
B(  6-C ,  7-H ) :   0.9424 B(  6-C ,  8-H ) :   0.9482 B(  6-C ,  9-C ) :   1.0720
B(  9-C , 10-H ) :   0.9569 B(  9-C , 11-H ) :   0.9530 B(  9-C , 12-C ) :   1.0769
B( 12-C , 13-H ) :   0.9789 B( 12-C , 14-H ) :   0.9769 B( 12-C , 15-H ) :   0.9783
B( 16-S , 17-C ) :   1.1951 B( 16-S , 20-C ) :   1.2057 B( 17-C , 18-C ) :   1.5610
B( 17-C , 33-H ) :   0.9630 B( 18-C , 19-C ) :   1.2678 B( 18-C , 21-H ) :   1.0042
B( 19-C , 20-C ) :   1.5696 B( 19-C , 22-C ) :   1.0394 B( 22-C , 23-H ) :   0.9228
B( 22-C , 24-H ) :   0.9161 B( 22-C , 25-C ) :   1.0810 B( 25-C , 26-H ) :   0.9502
B( 25-C , 27-H ) :   0.9511 B( 25-C , 28-C ) :   1.0761 B( 28-C , 29-H ) :   0.9731
B( 28-C , 30-H ) :   0.9756 B( 28-C , 31-H ) :   0.9776

Dispersion correction           -0.014043306
FINAL SINGLE POINT ENERGY     -1339.868914096950

DIPOLE MOMENT
-------------
                                X             Y             Z
Electronic contribution:      7.61525     -23.09063      -9.14021
Nuclear contribution   :     -8.00494      23.43648       9.11814
                        -----------------------------------------
Total Dipole Moment    :     -0.38969       0.34585      -0.02207
                        -----------------------------------------
Magnitude (a.u.)       :      0.52149
Magnitude (Debye)      :      1.32553

Rotational constants in cm-1:     0.019829     0.007927     0.006516
Rotational constants in MHz :   594.461998   237.656370   195.343560

                             ****ORCA TERMINATED NORMALLY****
TOTAL RUN TIME: 0 days 0 hours 0 minutes 21 seconds 110 msec
