                         Program Version 4.2.1 -  RELEASE  -
|  1> ! wB97X-D3 SP def2-SVP
|  2> %pal
|  3> nprocs 24
|  4> end
|  5>
|  6> * xyz 0 1
|  7> S 	 -78.4789 	 -0.421652 	 7.32024
|  8> C 	 -79.2402 	 0.457283 	 8.62823
|  9> C 	 -79.5992 	 1.71869 	 8.20327
| 10> C 	 -78.933 	 2.12854 	 7.01351
| 11> C 	 -78.338 	 1.08261 	 6.38965
| 12> H 	 -78.991 	 3.12644 	 6.55828
| 13> C 	 -80.5538 	 2.67809 	 9.01714
| 14> H 	 -81.4745 	 2.14819 	 9.04137
| 15> H 	 -80.486 	 3.53253 	 8.45055
| 16> C 	 -80.1558 	 2.90326 	 10.4428
| 17> H 	 -80.7989 	 3.70984 	 10.7966
| 18> H 	 -80.3173 	 2.01691 	 11.0293
| 19> C 	 -78.6954 	 3.37128 	 10.6818
| 20> H 	 -78.3981 	 3.13283 	 11.7204
| 21> H 	 -78.0541 	 2.64192 	 10.1325
| 22> H 	 -78.3773 	 4.39365 	 10.4192
| 23> S 	 -76.3433 	 2.45803 	 5.19242
| 24> C 	 -75.7519 	 2.00324 	 3.63312
| 25> C 	 -76.2688 	 0.782013 	 3.30351
| 26> C 	 -77.3236 	 0.284754 	 4.05463
| 27> C 	 -77.5684 	 1.14923 	 5.17469
| 28> H 	 -75.9403 	 0.27025 	 2.39324
| 29> C 	 -78.0266 	 -0.991431 	 3.79508
| 30> H 	 -78.5855 	 -1.43617 	 4.56349
| 31> H 	 -77.3256 	 -1.7638 	 3.42354
| 32> C 	 -79.077 	 -0.725835 	 2.66388
| 33> H 	 -78.4587 	 -0.336779 	 1.84832
| 34> H 	 -79.797 	 0.119908 	 2.8545
| 35> C 	 -79.8692 	 -1.99094 	 2.21433
| 36> H 	 -79.3398 	 -2.63365 	 1.49241
| 37> H 	 -80.6765 	 -1.64722 	 1.50937
| 38> H 	 -80.2471 	 -2.53002 	 3.09413
| 39> H 	 -79.5846 	 0.053914 	 9.51494
| 40> H 	 -74.9299 	 2.53685 	 3.18512
| 41> *
| 42>
| 43>                          ****END OF INPUT****

CARTESIAN COORDINATES (ANGSTROEM)
---------------------------------
  S    -78.478900   -0.421652    7.320240
  C    -79.240200    0.457283    8.628230
  C    -79.599200    1.718690    8.203270
  C    -78.933000    2.128540    7.013510
  C    -78.338000    1.082610    6.389650
  H    -78.991000    3.126440    6.558280
  C    -80.553800    2.678090    9.017140
  H    -81.474500    2.148190    9.041370
  H    -80.486000    3.532530    8.450550
  C    -80.155800    2.903260   10.442800
  H    -80.798900    3.709840   10.796600
  H    -80.317300    2.016910   11.029300
  C    -78.695400    3.371280   10.681800
  H    -78.398100    3.132830   11.720400
  H    -78.054100    2.641920   10.132500
  H    -78.377300    4.393650   10.419200
  S    -76.343300    2.458030    5.192420
  C    -75.751900    2.003240    3.633120
  C    -76.268800    0.782013    3.303510
  C    -77.323600    0.284754    4.054630
  C    -77.568400    1.149230    5.174690
  H    -75.940300    0.270250    2.393240
  C    -78.026600   -0.991431    3.795080
  H    -78.585500   -1.436170    4.563490
  H    -77.325600   -1.763800    3.423540
  C    -79.077000   -0.725835    2.663880
  H    -78.458700   -0.336779    1.848320
  H    -79.797000    0.119908    2.854500
  C    -79.869200   -1.990940    2.214330
  H    -79.339800   -2.633650    1.492410
  H    -80.676500   -1.647220    1.509370
  H    -80.247100   -2.530020    3.094130
  H    -79.584600    0.053914    9.514940
  H    -74.929900    2.536850    3.185120

 Total Charge           Charge          ....    0
 Multiplicity           Mult            ....    1
 Number of Electrons    NEL             ....  134
 Basis Dimension        Dim             ....  322

ORBITAL ENERGIES
----------------

  NO   OCC          E(Eh)            E(eV)
   0   2.0000     -88.965833     -2420.8834
   1   2.0000     -88.962962     -2420.8053
   2   2.0000     -10.329315      -281.0750
   3   2.0000     -10.327438      -281.0239
   4   2.0000     -10.313233      -280.6373
   5   2.0000     -10.306333      -280.4496
   6   2.0000     -10.304154      -280.3903
   7   2.0000     -10.299307      -280.2584
   8   2.0000     -10.292714      -280.0790
   9   2.0000     -10.290257      -280.0121
  10   2.0000     -10.290117      -280.0083
  11   2.0000     -10.289056      -279.9794
  12   2.0000     -10.284745      -279.8621
  13   2.0000     -10.283833      -279.8373
  14   2.0000     -10.283675      -279.8330
  15   2.0000     -10.277254      -279.6583
  16   2.0000      -8.079947      -219.8665
  17   2.0000      -8.077454      -219.7987
  18   2.0000      -6.038562      -164.3176
  19   2.0000      -6.035815      -164.2429
  20   2.0000      -6.034676      -164.2119
  21   2.0000      -6.031930      -164.1372
  22   2.0000      -6.030501      -164.0983
  23   2.0000      -6.028451      -164.0425
  24   2.0000      -1.007052       -27.4033
  25   2.0000      -0.985198       -26.8086
  26   2.0000      -0.913458       -24.8565
  27   2.0000      -0.908993       -24.7350
  28   2.0000      -0.870494       -23.6874
  29   2.0000      -0.848650       -23.0929
  30   2.0000      -0.842677       -22.9304
  31   2.0000      -0.808958       -22.0129
  32   2.0000      -0.785449       -21.3732
  33   2.0000      -0.772867       -21.0308
  34   2.0000      -0.706957       -19.2373
  35   2.0000      -0.699606       -19.0372
  36   2.0000      -0.692887       -18.8544
  37   2.0000      -0.662635       -18.0312
  38   2.0000      -0.638051       -17.3622
  39   2.0000      -0.616350       -16.7717
  40   2.0000      -0.600399       -16.3377
  41   2.0000      -0.578781       -15.7494
  42   2.0000      -0.557926       -15.1819
  43   2.0000      -0.554196       -15.0804
  44   2.0000      -0.536940       -14.6109
  45   2.0000      -0.526978       -14.3398
  46   2.0000      -0.518993       -14.1225
  47   2.0000      -0.516850       -14.0642
  48   2.0000      -0.505323       -13.7505
  49   2.0000      -0.498734       -13.5712
  50   2.0000      -0.486009       -13.2250
  51   2.0000      -0.481783       -13.1100
  52   2.0000      -0.473728       -12.8908
  53   2.0000      -0.465445       -12.6654
  54   2.0000      -0.451231       -12.2786
  55   2.0000      -0.446020       -12.1368
  56   2.0000      -0.442892       -12.0517
  57   2.0000      -0.440490       -11.9863
  58   2.0000      -0.428738       -11.6666
  59   2.0000      -0.426603       -11.6085
  60   2.0000      -0.419925       -11.4267
  61   2.0000      -0.413160       -11.2426
  62   2.0000      -0.401607       -10.9283
  63   2.0000      -0.348646        -9.4871
  64   2.0000      -0.332566        -9.0496
  65   2.0000      -0.328885        -8.9494
  66   2.0000      -0.282764        -7.6944
  67   0.0000       0.022806         0.6206
  68   0.0000       0.070579         1.9206
  69   0.0000       0.104021         2.8306
  70   0.0000       0.110490         3.0066
  71   0.0000       0.138158         3.7595

MULLIKEN ATOMIC CHARGES
-----------------------
   0 S :    0.110127
   1 C :   -0.094827
   2 C :   -0.156083
   3 C :   -0.012498
   4 C :   -0.104711
   5 H :    0.030480
   6 C :    0.188172
   7 H :    0.034500
   8 H :   -0.007543
   9 C :   -0.089024
  10 H :    0.035216
  11 H :    0.025543
  12 C :   -0.080328
  13 H :    0.029571
  14 H :    0.037450
  15 H :    0.044901
  16 S :    0.092272
  17 C :   -0.085977
  18 C :   -0.043281
  19 C :   -0.014312
  20 C :   -0.170672
  21 H :    0.018619
  22 C :    0.095948
  23 H :    0.004592
  24 H :    0.034129
  25 C :   -0.129298
  26 H :    0.018065
  27 H :    0.047009
  28 C :   -0.049571
  29 H :    0.032427
  30 H :    0.036631
  31 H :    0.047248
  32 H :    0.015582
  33 H :    0.059646
Sum of atomic charges:    0.0000000

LOEWDIN ATOMIC CHARGES
----------------------
   0 S :    0.396586
   1 C :   -0.191985
   2 C :   -0.053665
   3 C :   -0.073565
   4 C :   -0.186094
   5 H :    0.037618
   6 C :   -0.013840
   7 H :    0.035017
   8 H :    0.016963
   9 C :   -0.041016
  10 H :    0.028249
  11 H :    0.022067
  12 C :   -0.078051
  13 H :    0.028504
  14 H :    0.029254
  15 H :    0.026090
  16 S :    0.408796
  17 C :   -0.192894
  18 C :   -0.074478
  19 C :   -0.056621
  20 C :   -0.178792
  21 H :    0.031277
  22 C :   -0.029767
  23 H :    0.013782
  24 H :    0.038751
  25 C :   -0.043299
  26 H :    0.019699
  27 H :    0.031732
  28 C :   -0.078439
  29 H :    0.026168
  30 H :    0.034737
  31 H :    0.027488
  32 H :    0.010568
  33 H :    0.029159

  Mayer bond orders larger than 0.100000
B(  0-S ,  1-C ) :   1.1284 B(  0-S ,  4-C ) :   1.1265 B(  1-C ,  2-C ) :   1.6178
B(  1-C , 32-H ) :   0.9793 B(  2-C ,  3-C ) :   1.2263 B(  2-C ,  6-C ) :   0.9933
B(  3-C ,  4-C ) :   1.5691 B(  3-C ,  5-H ) :   0.9879 B(  4-C , 20-C ) :   1.0792
B(  6-C ,  7-H ) :   0.9315 B(  6-C ,  8-H ) :   0.9344 B(  6-C ,  9-C ) :   1.0943
B(  9-C , 10-H ) :   0.9543 B(  9-C , 11-H ) :   0.9521 B(  9-C , 12-C ) :   1.0785
B( 12-C , 13-H ) :   0.9744 B( 12-C , 14-H ) :   0.9682 B( 12-C , 15-H ) :   0.9781
B( 16-S , 17-C ) :   1.1625 B( 16-S , 20-C ) :   1.1608 B( 17-C , 18-C ) :   1.5595
B( 17-C , 20-C ) :   0.1149 B( 17-C , 33-H ) :   0.9732 B( 18-C , 19-C ) :   1.2924
B( 18-C , 21-H ) :   0.9798 B( 19-C , 20-C ) :   1.5077 B( 19-C , 22-C ) :   1.0606
B( 22-C , 23-H ) :   0.9344 B( 22-C , 24-H ) :   0.9340 B( 22-C , 25-C ) :   1.0410
B( 25-C , 26-H ) :   0.9596 B( 25-C , 27-H ) :   0.9602 B( 25-C , 28-C ) :   1.0750
B( 28-C , 29-H ) :   0.9747 B( 28-C , 30-H ) :   0.9725 B( 28-C , 31-H ) :   0.9739

Dispersion correction           -0.014137413
FINAL SINGLE POINT ENERGY     -1339.862582111069

DIPOLE MOMENT
-------------
                                X             Y             Z
Electronic contribution:     11.82936       1.34725      -1.48381
Nuclear contribution   :    -12.07602      -1.34450       1.40479
                        -----------------------------------------
Total Dipole Moment    :     -0.24666       0.00275      -0.07902
                        -----------------------------------------
Magnitude (a.u.)       :      0.25902
Magnitude (Debye)      :      0.65838

Rotational constants in cm-1:     0.022232     0.007826     0.006400
Rotational constants in MHz :   666.513574   234.613143   191.866936

                             ****ORCA TERMINATED NORMALLY****
TOTAL RUN TIME: 0 days 0 hours 0 minutes 20 seconds 33 msec
