                         Program Version 4.2.1 -  RELEASE  -
|  1> ! wB97X-D3 SP def2-SVP
|  2> %pal
|  3> nprocs 24
|  4> end
|  5>
|  6> * xyz 0 1
|  7> S 	 40.9984 	 -15.8366 	 -107.638
|  8> C 	 41.1754 	 -16.7815 	 -109.048
|  9> C 	 42.1346 	 -17.7242 	 -108.994
| 10> C 	 42.8001 	 -17.7706 	 -107.735
| 11> C 	 42.3208 	 -16.749 	 -106.878
| 12> H 	 43.5444 	 -18.4053 	 -107.399
| 13> C 	 42.3798 	 -18.7009 	 -110.133
| 14> H 	 43.061 	 -18.1085 	 -110.729
| 15> H 	 41.5933 	 -18.761 	 -110.861
| 16> C 	 42.6981 	 -20.1579 	 -109.738
| 17> H 	 43.1119 	 -20.7457 	 -110.574
| 18> H 	 43.6333 	 -20.1904 	 -109.143
| 19> C 	 41.5487 	 -20.9716 	 -109.094
| 20> H 	 40.4949 	 -20.7206 	 -109.494
| 21> H 	 41.714 	 -22.0517 	 -109.005
| 22> H 	 41.6215 	 -20.5769 	 -108.074
| 23> S 	 43.814 	 -14.7992 	 -105.903
| 24> C 	 44.4149 	 -14.9199 	 -104.28
| 25> C 	 44.1948 	 -16.1771 	 -103.733
| 26> C 	 43.425 	 -17.0388 	 -104.633
| 27> C 	 43.0645 	 -16.3179 	 -105.752
| 28> H 	 44.4919 	 -16.3966 	 -102.746
| 29> C 	 43.0942 	 -18.4876 	 -104.315
| 30> H 	 43.784 	 -18.9901 	 -103.62
| 31> H 	 42.9633 	 -19.0962 	 -105.156
| 32> C 	 41.7071 	 -18.5216 	 -103.651
| 33> H 	 40.9698 	 -18.0485 	 -104.294
| 34> H 	 41.8842 	 -17.9232 	 -102.779
| 35> C 	 41.2052 	 -19.8999 	 -103.268
| 36> H 	 41.8643 	 -20.3994 	 -102.569
| 37> H 	 41.2256 	 -20.6107 	 -104.058
| 38> H 	 40.204 	 -19.9866 	 -102.851
| 39> H 	 40.6137 	 -16.5942 	 -109.85
| 40> H 	 44.8379 	 -14.1234 	 -103.642
| 41> *
| 42>
| 43>                          ****END OF INPUT****

CARTESIAN COORDINATES (ANGSTROEM)
---------------------------------
  S     40.998400  -15.836600  -107.638000
  C     41.175400  -16.781500  -109.048000
  C     42.134600  -17.724200  -108.994000
  C     42.800100  -17.770600  -107.735000
  C     42.320800  -16.749000  -106.878000
  H     43.544400  -18.405300  -107.399000
  C     42.379800  -18.700900  -110.133000
  H     43.061000  -18.108500  -110.729000
  H     41.593300  -18.761000  -110.861000
  C     42.698100  -20.157900  -109.738000
  H     43.111900  -20.745700  -110.574000
  H     43.633300  -20.190400  -109.143000
  C     41.548700  -20.971600  -109.094000
  H     40.494900  -20.720600  -109.494000
  H     41.714000  -22.051700  -109.005000
  H     41.621500  -20.576900  -108.074000
  S     43.814000  -14.799200  -105.903000
  C     44.414900  -14.919900  -104.280000
  C     44.194800  -16.177100  -103.733000
  C     43.425000  -17.038800  -104.633000
  C     43.064500  -16.317900  -105.752000
  H     44.491900  -16.396600  -102.746000
  C     43.094200  -18.487600  -104.315000
  H     43.784000  -18.990100  -103.620000
  H     42.963300  -19.096200  -105.156000
  C     41.707100  -18.521600  -103.651000
  H     40.969800  -18.048500  -104.294000
  H     41.884200  -17.923200  -102.779000
  C     41.205200  -19.899900  -103.268000
  H     41.864300  -20.399400  -102.569000
  H     41.225600  -20.610700  -104.058000
  H     40.204000  -19.986600  -102.851000
  H     40.613700  -16.594200  -109.850000
  H     44.837900  -14.123400  -103.642000

 Total Charge           Charge          ....    0
 Multiplicity           Mult            ....    1
 Number of Electrons    NEL             ....  134
 Basis Dimension        Dim             ....  322

ORBITAL ENERGIES
----------------

  NO   OCC          E(Eh)            E(eV)
   0   2.0000     -88.968084     -2420.9446
   1   2.0000     -88.964631     -2420.8507
   2   2.0000     -10.326025      -280.9854
   3   2.0000     -10.315189      -280.6906
   4   2.0000     -10.312776      -280.6249
   5   2.0000     -10.302769      -280.3526
   6   2.0000     -10.297817      -280.2179
   7   2.0000     -10.297143      -280.1995
   8   2.0000     -10.294451      -280.1263
   9   2.0000     -10.293532      -280.1012
  10   2.0000     -10.292551      -280.0745
  11   2.0000     -10.291541      -280.0471
  12   2.0000     -10.288102      -279.9535
  13   2.0000     -10.288016      -279.9511
  14   2.0000     -10.277350      -279.6609
  15   2.0000     -10.269179      -279.4386
  16   2.0000      -8.083137      -219.9533
  17   2.0000      -8.080491      -219.8813
  18   2.0000      -6.041441      -164.3960
  19   2.0000      -6.038979      -164.3290
  20   2.0000      -6.037622      -164.2920
  21   2.0000      -6.034951      -164.2194
  22   2.0000      -6.034086      -164.1958
  23   2.0000      -6.031084      -164.1141
  24   2.0000      -1.012816       -27.5601
  25   2.0000      -0.987255       -26.8646
  26   2.0000      -0.912851       -24.8399
  27   2.0000      -0.909343       -24.7445
  28   2.0000      -0.874923       -23.8079
  29   2.0000      -0.851727       -23.1767
  30   2.0000      -0.846317       -23.0295
  31   2.0000      -0.815680       -22.1958
  32   2.0000      -0.786142       -21.3920
  33   2.0000      -0.773377       -21.0447
  34   2.0000      -0.711957       -19.3733
  35   2.0000      -0.697486       -18.9796
  36   2.0000      -0.693343       -18.8668
  37   2.0000      -0.665843       -18.1185
  38   2.0000      -0.651772       -17.7356
  39   2.0000      -0.622248       -16.9322
  40   2.0000      -0.598724       -16.2921
  41   2.0000      -0.572332       -15.5740
  42   2.0000      -0.561772       -15.2866
  43   2.0000      -0.560073       -15.2404
  44   2.0000      -0.532970       -14.5029
  45   2.0000      -0.521911       -14.2019
  46   2.0000      -0.518869       -14.1191
  47   2.0000      -0.507800       -13.8179
  48   2.0000      -0.503824       -13.7098
  49   2.0000      -0.498493       -13.5647
  50   2.0000      -0.489924       -13.3315
  51   2.0000      -0.484257       -13.1773
  52   2.0000      -0.474427       -12.9098
  53   2.0000      -0.470415       -12.8006
  54   2.0000      -0.460211       -12.5230
  55   2.0000      -0.451003       -12.2724
  56   2.0000      -0.445698       -12.1281
  57   2.0000      -0.443054       -12.0561
  58   2.0000      -0.433816       -11.8047
  59   2.0000      -0.427048       -11.6206
  60   2.0000      -0.420126       -11.4322
  61   2.0000      -0.416599       -11.3362
  62   2.0000      -0.401699       -10.9308
  63   2.0000      -0.344822        -9.3831
  64   2.0000      -0.326756        -8.8915
  65   2.0000      -0.325666        -8.8618
  66   2.0000      -0.291469        -7.9313
  67   0.0000       0.031205         0.8491
  68   0.0000       0.070652         1.9225
  69   0.0000       0.111718         3.0400
  70   0.0000       0.119879         3.2621
  71   0.0000       0.136028         3.7015

MULLIKEN ATOMIC CHARGES
-----------------------
   0 S :    0.124959
   1 C :   -0.082350
   2 C :   -0.054105
   3 C :    0.055992
   4 C :   -0.192144
   5 H :   -0.005216
   6 C :    0.087273
   7 H :    0.034763
   8 H :    0.009588
   9 C :   -0.090336
  10 H :    0.021254
  11 H :    0.025123
  12 C :   -0.067206
  13 H :    0.054493
  14 H :    0.047401
  15 H :    0.034305
  16 S :    0.134977
  17 C :   -0.104650
  18 C :   -0.025028
  19 C :   -0.037984
  20 C :   -0.169062
  21 H :    0.000856
  22 C :    0.106967
  23 H :    0.026336
  24 H :   -0.005209
  25 C :   -0.085580
  26 H :    0.037893
  27 H :    0.017868
  28 C :   -0.003415
  29 H :    0.007581
  30 H :    0.005940
  31 H :    0.036115
  32 H :   -0.010522
  33 H :    0.063122
Sum of atomic charges:    0.0000000

LOEWDIN ATOMIC CHARGES
----------------------
   0 S :    0.416236
   1 C :   -0.188453
   2 C :   -0.060588
   3 C :   -0.038761
   4 C :   -0.194153
   5 H :    0.019015
   6 C :   -0.034079
   7 H :    0.039887
   8 H :    0.027150
   9 C :   -0.051960
  10 H :    0.024461
  11 H :    0.023777
  12 C :   -0.074764
  13 H :    0.038116
  14 H :    0.029927
  15 H :    0.028532
  16 S :    0.436628
  17 C :   -0.204705
  18 C :   -0.061960
  19 C :   -0.049750
  20 C :   -0.218803
  21 H :    0.021855
  22 C :   -0.024315
  23 H :    0.033052
  24 H :    0.016457
  25 C :   -0.033751
  26 H :    0.025717
  27 H :    0.019726
  28 C :   -0.070105
  29 H :    0.021644
  30 H :    0.018443
  31 H :    0.029522
  32 H :   -0.000196
  33 H :    0.036199

  Mayer bond orders larger than 0.100000
B(  0-S ,  1-C ) :   1.1418 B(  0-S ,  4-C ) :   1.1555 B(  1-C ,  2-C ) :   1.6139
B(  1-C , 32-H ) :   0.9829 B(  2-C ,  3-C ) :   1.2459 B(  2-C ,  6-C ) :   0.9954
B(  3-C ,  4-C ) :   1.5422 B(  3-C ,  5-H ) :   1.0019 B(  4-C , 20-C ) :   1.0510
B(  6-C ,  7-H ) :   0.9315 B(  6-C ,  8-H ) :   0.9462 B(  6-C ,  9-C ) :   1.0655
B(  9-C , 10-H ) :   0.9541 B(  9-C , 11-H ) :   0.9550 B(  9-C , 12-C ) :   1.0523
B( 12-C , 13-H ) :   0.9751 B( 12-C , 14-H ) :   0.9750 B( 12-C , 15-H ) :   0.9766
B( 16-S , 17-C ) :   1.1406 B( 16-S , 20-C ) :   1.1610 B( 17-C , 18-C ) :   1.6339
B( 17-C , 33-H ) :   0.9626 B( 18-C , 19-C ) :   1.2191 B( 18-C , 21-H ) :   0.9940
B( 19-C , 20-C ) :   1.5997 B( 19-C , 22-C ) :   1.0598 B( 22-C , 23-H ) :   0.9390
B( 22-C , 24-H ) :   0.9239 B( 22-C , 25-C ) :   1.0565 B( 25-C , 26-H ) :   0.9590
B( 25-C , 27-H ) :   0.9581 B( 25-C , 28-C ) :   1.0849 B( 28-C , 29-H ) :   0.9676
B( 28-C , 30-H ) :   0.9686 B( 28-C , 31-H ) :   0.9730

Dispersion correction           -0.014813700
FINAL SINGLE POINT ENERGY     -1339.852604534876

DIPOLE MOMENT
-------------
                                X             Y             Z
Electronic contribution:      3.59577      28.04578      -1.61513
Nuclear contribution   :     -3.47746     -28.58285       1.52049
                        -----------------------------------------
Total Dipole Moment    :      0.11831      -0.53707      -0.09464
                        -----------------------------------------
Magnitude (a.u.)       :      0.55803
Magnitude (Debye)      :      1.41840

Rotational constants in cm-1:     0.016901     0.009984     0.007535
Rotational constants in MHz :   506.687277   299.323070   225.894023

                             ****ORCA TERMINATED NORMALLY****
TOTAL RUN TIME: 0 days 0 hours 0 minutes 21 seconds 132 msec
