                         Program Version 4.2.1 -  RELEASE  -
|  1> ! wB97X-D3 SP def2-SVP
|  2> %pal
|  3> nprocs 24
|  4> end
|  5>
|  6> * xyz 0 1
|  7> S 	 22.2535 	 -7.69513 	 -111.676
|  8> C 	 23.8996 	 -8.34963 	 -111.271
|  9> C 	 24.7882 	 -8.19889 	 -112.317
| 10> C 	 24.148 	 -7.56654 	 -113.458
| 11> C 	 22.8252 	 -7.1607 	 -113.318
| 12> H 	 24.62 	 -7.31267 	 -114.433
| 13> C 	 26.3375 	 -8.55199 	 -112.294
| 14> H 	 26.4424 	 -9.24732 	 -113.138
| 15> H 	 26.5313 	 -9.10931 	 -111.394
| 16> C 	 27.1981 	 -7.34395 	 -112.251
| 17> H 	 27.0338 	 -6.7654 	 -113.132
| 18> H 	 26.9415 	 -6.68945 	 -111.432
| 19> C 	 28.7193 	 -7.54354 	 -112.302
| 20> H 	 29.3214 	 -6.66487 	 -112.689
| 21> H 	 29.0916 	 -7.85291 	 -111.269
| 22> H 	 28.9512 	 -8.39125 	 -112.991
| 23> S 	 21.7912 	 -7.1573 	 -115.788
| 24> C 	 20.4603 	 -6.11761 	 -116.108
| 25> C 	 20.374 	 -5.0965 	 -115.218
| 26> C 	 21.3427 	 -5.2304 	 -114.13
| 27> C 	 21.9211 	 -6.48175 	 -114.222
| 28> H 	 19.5986 	 -4.29908 	 -115.396
| 29> C 	 21.4691 	 -4.17546 	 -113.076
| 30> H 	 21.5776 	 -4.6475 	 -112.138
| 31> H 	 20.6084 	 -3.459 	 -113.063
| 32> C 	 22.557 	 -3.20978 	 -113.23
| 33> H 	 22.4836 	 -2.60349 	 -114.111
| 34> H 	 23.4994 	 -3.62352 	 -113.224
| 35> C 	 22.7096 	 -2.37735 	 -111.901
| 36> H 	 23.0491 	 -3.02419 	 -111.07
| 37> H 	 21.7106 	 -1.95466 	 -111.745
| 38> H 	 23.4589 	 -1.60698 	 -112.12
| 39> H 	 24.3297 	 -8.75023 	 -110.342
| 40> H 	 19.9448 	 -6.07061 	 -117
| 41> *
| 42>
| 43>                          ****END OF INPUT****

CARTESIAN COORDINATES (ANGSTROEM)
---------------------------------
  S     22.253500   -7.695130  -111.676000
  C     23.899600   -8.349630  -111.271000
  C     24.788200   -8.198890  -112.317000
  C     24.148000   -7.566540  -113.458000
  C     22.825200   -7.160700  -113.318000
  H     24.620000   -7.312670  -114.433000
  C     26.337500   -8.551990  -112.294000
  H     26.442400   -9.247320  -113.138000
  H     26.531300   -9.109310  -111.394000
  C     27.198100   -7.343950  -112.251000
  H     27.033800   -6.765400  -113.132000
  H     26.941500   -6.689450  -111.432000
  C     28.719300   -7.543540  -112.302000
  H     29.321400   -6.664870  -112.689000
  H     29.091600   -7.852910  -111.269000
  H     28.951200   -8.391250  -112.991000
  S     21.791200   -7.157300  -115.788000
  C     20.460300   -6.117610  -116.108000
  C     20.374000   -5.096500  -115.218000
  C     21.342700   -5.230400  -114.130000
  C     21.921100   -6.481750  -114.222000
  H     19.598600   -4.299080  -115.396000
  C     21.469100   -4.175460  -113.076000
  H     21.577600   -4.647500  -112.138000
  H     20.608400   -3.459000  -113.063000
  C     22.557000   -3.209780  -113.230000
  H     22.483600   -2.603490  -114.111000
  H     23.499400   -3.623520  -113.224000
  C     22.709600   -2.377350  -111.901000
  H     23.049100   -3.024190  -111.070000
  H     21.710600   -1.954660  -111.745000
  H     23.458900   -1.606980  -112.120000
  H     24.329700   -8.750230  -110.342000
  H     19.944800   -6.070610  -117.000000

 Total Charge           Charge          ....    0
 Multiplicity           Mult            ....    1
 Number of Electrons    NEL             ....  134
 Basis Dimension        Dim             ....  322

ORBITAL ENERGIES
----------------

  NO   OCC          E(Eh)            E(eV)
   0   2.0000     -88.967037     -2420.9162
   1   2.0000     -88.965083     -2420.8630
   2   2.0000     -10.335490      -281.2430
   3   2.0000     -10.324268      -280.9376
   4   2.0000     -10.320582      -280.8373
   5   2.0000     -10.308426      -280.5065
   6   2.0000     -10.307975      -280.4942
   7   2.0000     -10.306524      -280.4548
   8   2.0000     -10.301088      -280.3069
   9   2.0000     -10.299688      -280.2688
  10   2.0000     -10.297534      -280.2102
  11   2.0000     -10.291531      -280.0468
  12   2.0000     -10.285029      -279.8699
  13   2.0000     -10.281878      -279.7841
  14   2.0000     -10.280632      -279.7502
  15   2.0000     -10.270288      -279.4687
  16   2.0000      -8.081435      -219.9070
  17   2.0000      -8.079263      -219.8479
  18   2.0000      -6.039871      -164.3533
  19   2.0000      -6.038113      -164.3054
  20   2.0000      -6.036045      -164.2491
  21   2.0000      -6.034170      -164.1981
  22   2.0000      -6.031831      -164.1345
  23   2.0000      -6.029728      -164.0773
  24   2.0000      -1.012390       -27.5485
  25   2.0000      -0.974399       -26.5148
  26   2.0000      -0.922884       -25.1129
  27   2.0000      -0.913681       -24.8625
  28   2.0000      -0.872542       -23.7431
  29   2.0000      -0.852593       -23.2002
  30   2.0000      -0.836638       -22.7661
  31   2.0000      -0.813239       -22.1293
  32   2.0000      -0.783321       -21.3153
  33   2.0000      -0.772587       -21.0232
  34   2.0000      -0.709152       -19.2970
  35   2.0000      -0.696989       -18.9660
  36   2.0000      -0.692848       -18.8534
  37   2.0000      -0.664929       -18.0936
  38   2.0000      -0.632752       -17.2181
  39   2.0000      -0.614974       -16.7343
  40   2.0000      -0.602942       -16.4069
  41   2.0000      -0.581963       -15.8360
  42   2.0000      -0.568817       -15.4783
  43   2.0000      -0.563660       -15.3380
  44   2.0000      -0.527422       -14.3519
  45   2.0000      -0.522242       -14.2109
  46   2.0000      -0.516245       -14.0477
  47   2.0000      -0.512924       -13.9574
  48   2.0000      -0.506130       -13.7725
  49   2.0000      -0.496867       -13.5204
  50   2.0000      -0.487819       -13.2742
  51   2.0000      -0.481076       -13.0908
  52   2.0000      -0.478768       -13.0279
  53   2.0000      -0.463278       -12.6064
  54   2.0000      -0.454759       -12.3746
  55   2.0000      -0.449775       -12.2390
  56   2.0000      -0.447930       -12.1888
  57   2.0000      -0.440437       -11.9849
  58   2.0000      -0.433797       -11.8042
  59   2.0000      -0.425674       -11.5832
  60   2.0000      -0.416610       -11.3365
  61   2.0000      -0.411200       -11.1893
  62   2.0000      -0.403766       -10.9870
  63   2.0000      -0.343341        -9.3428
  64   2.0000      -0.330837        -9.0025
  65   2.0000      -0.327968        -8.9245
  66   2.0000      -0.297718        -8.1013
  67   0.0000       0.029395         0.7999
  68   0.0000       0.063872         1.7381
  69   0.0000       0.102269         2.7829
  70   0.0000       0.110949         3.0191
  71   0.0000       0.128299         3.4912

MULLIKEN ATOMIC CHARGES
-----------------------
   0 S :    0.092744
   1 C :   -0.113051
   2 C :   -0.118816
   3 C :    0.019382
   4 C :   -0.162308
   5 H :    0.023242
   6 C :    0.092693
   7 H :    0.041635
   8 H :    0.008241
   9 C :   -0.050351
  10 H :    0.016424
  11 H :    0.031213
  12 C :   -0.092056
  13 H :    0.054009
  14 H :    0.039340
  15 H :    0.031610
  16 S :    0.119674
  17 C :   -0.041663
  18 C :   -0.067192
  19 C :    0.002126
  20 C :   -0.179376
  21 H :    0.040812
  22 C :    0.099909
  23 H :    0.003593
  24 H :    0.019588
  25 C :   -0.056480
  26 H :    0.022400
  27 H :    0.004889
  28 C :   -0.068742
  29 H :    0.050879
  30 H :    0.025844
  31 H :    0.039380
  32 H :    0.047683
  33 H :    0.022726
Sum of atomic charges:   -0.0000000

LOEWDIN ATOMIC CHARGES
----------------------
   0 S :    0.350496
   1 C :   -0.187659
   2 C :   -0.059983
   3 C :   -0.074168
   4 C :   -0.171764
   5 H :    0.032498
   6 C :   -0.020970
   7 H :    0.035891
   8 H :    0.024686
   9 C :   -0.050045
  10 H :    0.021516
  11 H :    0.027781
  12 C :   -0.075175
  13 H :    0.035235
  14 H :    0.027136
  15 H :    0.026614
  16 S :    0.433509
  17 C :   -0.182773
  18 C :   -0.072220
  19 C :   -0.039472
  20 C :   -0.217005
  21 H :    0.041712
  22 C :   -0.034139
  23 H :    0.024003
  24 H :    0.037022
  25 C :   -0.034621
  26 H :    0.019406
  27 H :    0.011984
  28 C :   -0.056612
  29 H :    0.030697
  30 H :    0.019345
  31 H :    0.027358
  32 H :    0.035736
  33 H :    0.013981

  Mayer bond orders larger than 0.100000
B(  0-S ,  1-C ) :   1.1083 B(  0-S ,  4-C ) :   1.1075 B(  1-C ,  2-C ) :   1.6817
B(  1-C , 32-H ) :   0.9553 B(  2-C ,  3-C ) :   1.1958 B(  2-C ,  6-C ) :   1.0122
B(  3-C ,  4-C ) :   1.6376 B(  3-C ,  5-H ) :   0.9788 B(  4-C , 20-C ) :   1.0503
B(  6-C ,  7-H ) :   0.9383 B(  6-C ,  8-H ) :   0.9394 B(  6-C ,  9-C ) :   1.0730
B(  9-C , 10-H ) :   0.9531 B(  9-C , 11-H ) :   0.9526 B(  9-C , 12-C ) :   1.0752
B( 12-C , 13-H ) :   0.9761 B( 12-C , 14-H ) :   0.9760 B( 12-C , 15-H ) :   0.9734
B( 16-S , 17-C ) :   1.1473 B( 16-S , 20-C ) :   1.1431 B( 17-C , 18-C ) :   1.6470
B( 17-C , 33-H ) :   0.9726 B( 18-C , 19-C ) :   1.2063 B( 18-C , 21-H ) :   0.9810
B( 19-C , 20-C ) :   1.5818 B( 19-C , 22-C ) :   1.0527 B( 22-C , 23-H ) :   0.9185
B( 22-C , 24-H ) :   0.9337 B( 22-C , 25-C ) :   1.0828 B( 25-C , 26-H ) :   0.9541
B( 25-C , 27-H ) :   0.9493 B( 25-C , 28-C ) :   1.0718 B( 28-C , 29-H ) :   0.9773
B( 28-C , 30-H ) :   0.9754 B( 28-C , 31-H ) :   0.9758

Dispersion correction           -0.013758142
FINAL SINGLE POINT ENERGY     -1339.847915796273

DIPOLE MOMENT
-------------
                                X             Y             Z
Electronic contribution:    -20.29800     -13.68733      -8.71960
Nuclear contribution   :     20.75076      14.13569       8.57952
                        -----------------------------------------
Total Dipole Moment    :      0.45276       0.44837      -0.14008
                        -----------------------------------------
Magnitude (a.u.)       :      0.65242
Magnitude (Debye)      :      1.65831

Rotational constants in cm-1:     0.017474     0.008104     0.007078
Rotational constants in MHz :   523.855493   242.952720   212.194410

                             ****ORCA TERMINATED NORMALLY****
TOTAL RUN TIME: 0 days 0 hours 0 minutes 22 seconds 186 msec
