                         Program Version 4.2.1 -  RELEASE  -
|  1> ! wB97X-D3 SP def2-SVP
|  2> %pal
|  3> nprocs 24
|  4> end
|  5>
|  6> * xyz 0 1
|  7> S 	 -127.663 	 13.8329 	 -9.94938
|  8> C 	 -126.012 	 14.3192 	 -9.96513
|  9> C 	 -125.154 	 13.3937 	 -10.6046
| 10> C 	 -125.853 	 12.2308 	 -10.982
| 11> C 	 -127.192 	 12.3793 	 -10.83
| 12> H 	 -125.462 	 11.3252 	 -11.5041
| 13> C 	 -123.679 	 13.5941 	 -10.9128
| 14> H 	 -123.64 	 14.4786 	 -11.4041
| 15> H 	 -123.481 	 12.7632 	 -11.5777
| 16> C 	 -122.786 	 13.5466 	 -9.64244
| 17> H 	 -123.04 	 14.1354 	 -8.82171
| 18> H 	 -122.659 	 12.507 	 -9.36973
| 19> C 	 -121.425 	 14.1958 	 -10.0003
| 20> H 	 -121.447 	 15.203 	 -10.2936
| 21> H 	 -120.775 	 14.1736 	 -9.14526
| 22> H 	 -120.895 	 13.6606 	 -10.7577
| 23> S 	 -129.503 	 12.2454 	 -12.3091
| 24> C 	 -130.152 	 10.7318 	 -12.6855
| 25> C 	 -129.423 	 9.6915 	 -12.0884
| 26> C 	 -128.287 	 10.0871 	 -11.3474
| 27> C 	 -128.209 	 11.4821 	 -11.3585
| 28> H 	 -129.761 	 8.64692 	 -12.1527
| 29> C 	 -127.373 	 9.03494 	 -10.7981
| 30> H 	 -126.474 	 9.17924 	 -11.3589
| 31> H 	 -127.769 	 8.01456 	 -11.0862
| 32> C 	 -127.08 	 9.07634 	 -9.27532
| 33> H 	 -127.014 	 10.0911 	 -8.90096
| 34> H 	 -126.08 	 8.68073 	 -9.12827
| 35> C 	 -128.194 	 8.18063 	 -8.518
| 36> H 	 -128.002 	 8.1234 	 -7.48247
| 37> H 	 -128.235 	 7.19122 	 -8.90425
| 38> H 	 -129.181 	 8.58679 	 -8.64694
| 39> H 	 -125.681 	 15.3522 	 -9.68004
| 40> H 	 -131.077 	 10.6323 	 -13.3257
| 41> *
| 42>
| 43>                          ****END OF INPUT****

CARTESIAN COORDINATES (ANGSTROEM)
---------------------------------
  S    -127.663000   13.832900   -9.949380
  C    -126.012000   14.319200   -9.965130
  C    -125.154000   13.393700  -10.604600
  C    -125.853000   12.230800  -10.982000
  C    -127.192000   12.379300  -10.830000
  H    -125.462000   11.325200  -11.504100
  C    -123.679000   13.594100  -10.912800
  H    -123.640000   14.478600  -11.404100
  H    -123.481000   12.763200  -11.577700
  C    -122.786000   13.546600   -9.642440
  H    -123.040000   14.135400   -8.821710
  H    -122.659000   12.507000   -9.369730
  C    -121.425000   14.195800  -10.000300
  H    -121.447000   15.203000  -10.293600
  H    -120.775000   14.173600   -9.145260
  H    -120.895000   13.660600  -10.757700
  S    -129.503000   12.245400  -12.309100
  C    -130.152000   10.731800  -12.685500
  C    -129.423000    9.691500  -12.088400
  C    -128.287000   10.087100  -11.347400
  C    -128.209000   11.482100  -11.358500
  H    -129.761000    8.646920  -12.152700
  C    -127.373000    9.034940  -10.798100
  H    -126.474000    9.179240  -11.358900
  H    -127.769000    8.014560  -11.086200
  C    -127.080000    9.076340   -9.275320
  H    -127.014000   10.091100   -8.900960
  H    -126.080000    8.680730   -9.128270
  C    -128.194000    8.180630   -8.518000
  H    -128.002000    8.123400   -7.482470
  H    -128.235000    7.191220   -8.904250
  H    -129.181000    8.586790   -8.646940
  H    -125.681000   15.352200   -9.680040
  H    -131.077000   10.632300  -13.325700

 Total Charge           Charge          ....    0
 Multiplicity           Mult            ....    1
 Number of Electrons    NEL             ....  134
 Basis Dimension        Dim             ....  322

ORBITAL ENERGIES
----------------

  NO   OCC          E(Eh)            E(eV)
   0   2.0000     -88.967417     -2420.9265
   1   2.0000     -88.966161     -2420.8923
   2   2.0000     -10.323275      -280.9106
   3   2.0000     -10.322200      -280.8813
   4   2.0000     -10.316443      -280.7247
   5   2.0000     -10.311766      -280.5974
   6   2.0000     -10.300213      -280.2830
   7   2.0000     -10.298224      -280.2289
   8   2.0000     -10.295588      -280.1572
   9   2.0000     -10.290945      -280.0309
  10   2.0000     -10.290594      -280.0213
  11   2.0000     -10.289832      -280.0006
  12   2.0000     -10.284369      -279.8519
  13   2.0000     -10.283705      -279.8338
  14   2.0000     -10.272739      -279.5354
  15   2.0000     -10.267183      -279.3842
  16   2.0000      -8.082268      -219.9297
  17   2.0000      -8.081461      -219.9077
  18   2.0000      -6.040611      -164.3734
  19   2.0000      -6.039751      -164.3500
  20   2.0000      -6.036878      -164.2718
  21   2.0000      -6.035806      -164.2426
  22   2.0000      -6.033097      -164.1689
  23   2.0000      -6.032523      -164.1533
  24   2.0000      -1.007691       -27.4207
  25   2.0000      -0.984899       -26.8005
  26   2.0000      -0.912036       -24.8178
  27   2.0000      -0.906573       -24.6691
  28   2.0000      -0.862293       -23.4642
  29   2.0000      -0.856328       -23.3019
  30   2.0000      -0.847283       -23.0557
  31   2.0000      -0.807701       -21.9787
  32   2.0000      -0.785502       -21.3746
  33   2.0000      -0.765922       -20.8418
  34   2.0000      -0.712828       -19.3970
  35   2.0000      -0.711092       -19.3498
  36   2.0000      -0.684232       -18.6189
  37   2.0000      -0.661233       -17.9931
  38   2.0000      -0.635653       -17.2970
  39   2.0000      -0.617803       -16.8113
  40   2.0000      -0.592994       -16.1362
  41   2.0000      -0.576290       -15.6817
  42   2.0000      -0.553542       -15.0627
  43   2.0000      -0.547914       -14.9095
  44   2.0000      -0.537879       -14.6364
  45   2.0000      -0.526399       -14.3240
  46   2.0000      -0.513005       -13.9596
  47   2.0000      -0.510579       -13.8936
  48   2.0000      -0.499278       -13.5860
  49   2.0000      -0.490215       -13.3394
  50   2.0000      -0.486069       -13.2266
  51   2.0000      -0.479662       -13.0523
  52   2.0000      -0.473468       -12.8837
  53   2.0000      -0.465843       -12.6762
  54   2.0000      -0.461061       -12.5461
  55   2.0000      -0.447555       -12.1786
  56   2.0000      -0.445552       -12.1241
  57   2.0000      -0.441098       -12.0029
  58   2.0000      -0.438037       -11.9196
  59   2.0000      -0.435286       -11.8447
  60   2.0000      -0.425777       -11.5860
  61   2.0000      -0.420842       -11.4517
  62   2.0000      -0.411901       -11.2084
  63   2.0000      -0.347078        -9.4445
  64   2.0000      -0.332756        -9.0548
  65   2.0000      -0.327690        -8.9169
  66   2.0000      -0.280603        -7.6356
  67   0.0000       0.030476         0.8293
  68   0.0000       0.070135         1.9085
  69   0.0000       0.114023         3.1027
  70   0.0000       0.122611         3.3364
  71   0.0000       0.132870         3.6156

MULLIKEN ATOMIC CHARGES
-----------------------
   0 S :    0.123610
   1 C :   -0.140102
   2 C :   -0.121017
   3 C :    0.000423
   4 C :   -0.156737
   5 H :    0.025374
   6 C :    0.136312
   7 H :    0.005719
   8 H :    0.017443
   9 C :   -0.041327
  10 H :    0.025843
  11 H :    0.030477
  12 C :   -0.038951
  13 H :    0.020937
  14 H :    0.018836
  15 H :    0.015264
  16 S :    0.123953
  17 C :   -0.118258
  18 C :   -0.059611
  19 C :   -0.004962
  20 C :   -0.184466
  21 H :    0.019080
  22 C :    0.049739
  23 H :    0.027986
  24 H :    0.025219
  25 C :   -0.053851
  26 H :    0.046557
  27 H :    0.021568
  28 C :   -0.033486
  29 H :    0.028718
  30 H :    0.018900
  31 H :    0.033920
  32 H :    0.057599
  33 H :    0.079292
Sum of atomic charges:   -0.0000000

LOEWDIN ATOMIC CHARGES
----------------------
   0 S :    0.411784
   1 C :   -0.225837
   2 C :   -0.056569
   3 C :   -0.075117
   4 C :   -0.190068
   5 H :    0.039934
   6 C :   -0.015053
   7 H :    0.017663
   8 H :    0.033024
   9 C :   -0.021539
  10 H :    0.018841
  11 H :    0.027124
  12 C :   -0.061262
  13 H :    0.017122
  14 H :    0.022120
  15 H :    0.018013
  16 S :    0.427157
  17 C :   -0.219498
  18 C :   -0.079766
  19 C :   -0.056134
  20 C :   -0.197824
  21 H :    0.030332
  22 C :   -0.029968
  23 H :    0.028169
  24 H :    0.036550
  25 C :   -0.029632
  26 H :    0.027262
  27 H :    0.022073
  28 C :   -0.056423
  29 H :    0.019589
  30 H :    0.018889
  31 H :    0.026218
  32 H :    0.031979
  33 H :    0.040847

  Mayer bond orders larger than 0.100000
B(  0-S ,  1-C ) :   1.1385 B(  0-S ,  4-C ) :   1.1564 B(  1-C ,  2-C ) :   1.5996
B(  1-C , 32-H ) :   0.9613 B(  2-C ,  3-C ) :   1.2613 B(  2-C ,  6-C ) :   1.0036
B(  3-C ,  4-C ) :   1.5841 B(  3-C ,  5-H ) :   0.9792 B(  4-C , 20-C ) :   1.0392
B(  6-C ,  7-H ) :   0.9390 B(  6-C ,  8-H ) :   0.9370 B(  6-C ,  9-C ) :   1.0664
B(  9-C , 10-H ) :   0.9669 B(  9-C , 11-H ) :   0.9552 B(  9-C , 12-C ) :   1.0787
B( 12-C , 13-H ) :   0.9777 B( 12-C , 14-H ) :   0.9741 B( 12-C , 15-H ) :   0.9731
B( 16-S , 17-C ) :   1.1804 B( 16-S , 20-C ) :   1.1585 B( 17-C , 18-C ) :   1.5599
B( 17-C , 20-C ) :   0.1072 B( 17-C , 33-H ) :   0.9614 B( 18-C , 19-C ) :   1.2788
B( 18-C , 21-H ) :   0.9851 B( 19-C , 20-C ) :   1.5539 B( 19-C , 22-C ) :   1.0334
B( 22-C , 23-H ) :   0.9275 B( 22-C , 24-H ) :   0.9381 B( 22-C , 25-C ) :   1.0607
B( 25-C , 26-H ) :   0.9637 B( 25-C , 27-H ) :   0.9568 B( 25-C , 28-C ) :   1.0592
B( 28-C , 29-H ) :   0.9784 B( 28-C , 30-H ) :   0.9778 B( 28-C , 31-H ) :   0.9808

Dispersion correction           -0.014219304
FINAL SINGLE POINT ENERGY     -1339.867644885978

DIPOLE MOMENT
-------------
                                X             Y             Z
Electronic contribution:    -22.68115      10.87185      -9.17702
Nuclear contribution   :     23.16207     -11.18714       9.12146
                        -----------------------------------------
Total Dipole Moment    :      0.48092      -0.31529      -0.05556
                        -----------------------------------------
Magnitude (a.u.)       :      0.57774
Magnitude (Debye)      :      1.46849

Rotational constants in cm-1:     0.020153     0.007960     0.006566
Rotational constants in MHz :   604.161881   238.642396   196.838395

                             ****ORCA TERMINATED NORMALLY****
TOTAL RUN TIME: 0 days 0 hours 0 minutes 21 seconds 335 msec
