                         Program Version 4.2.1 -  RELEASE  -
|  1> ! wB97X-D3 SP def2-SVP
|  2> %pal
|  3> nprocs 24
|  4> end
|  5>
|  6> * xyz 0 1
|  7> S 	 -98.1382 	 1.42602 	 -122.32
|  8> C 	 -97.6753 	 3.02286 	 -122.732
|  9> C 	 -98.0563 	 3.9473 	 -121.788
| 10> C 	 -98.5607 	 3.3027 	 -120.623
| 11> C 	 -98.631 	 1.94063 	 -120.805
| 12> H 	 -98.8624 	 3.82612 	 -119.687
| 13> C 	 -98.0088 	 5.46165 	 -121.832
| 14> H 	 -96.9866 	 5.6533 	 -122.1
| 15> H 	 -98.2057 	 5.7818 	 -120.875
| 16> C 	 -99.1051 	 6.11817 	 -122.656
| 17> H 	 -98.8612 	 5.97374 	 -123.636
| 18> H 	 -100.021 	 5.52913 	 -122.531
| 19> C 	 -99.3502 	 7.62132 	 -122.35
| 20> H 	 -98.4164 	 8.1678 	 -122.159
| 21> H 	 -99.9887 	 8.28106 	 -123.002
| 22> H 	 -99.7053 	 7.67533 	 -121.325
| 23> S 	 -100.266 	 -0.163602 	 -119.817
| 24> C 	 -99.9249 	 -0.73254 	 -118.174
| 25> C 	 -98.7477 	 -0.213892 	 -117.694
| 26> C 	 -98.1343 	 0.736974 	 -118.568
| 27> C 	 -98.9539 	 1.01314 	 -119.69
| 28> H 	 -98.2674 	 -0.480575 	 -116.83
| 29> C 	 -96.9007 	 1.53069 	 -118.211
| 30> H 	 -97.1773 	 2.39617 	 -117.558
| 31> H 	 -96.6275 	 2.05352 	 -119.101
| 32> C 	 -95.7456 	 0.811865 	 -117.6
| 33> H 	 -95.4147 	 0.0754125 	 -118.324
| 34> H 	 -96.0512 	 0.234959 	 -116.755
| 35> C 	 -94.5877 	 1.73196 	 -117.244
| 36> H 	 -94.7393 	 2.26412 	 -116.312
| 37> H 	 -94.3653 	 2.51202 	 -117.973
| 38> H 	 -93.6111 	 1.27328 	 -117.091
| 39> H 	 -97.2203 	 3.34768 	 -123.618
| 40> H 	 -100.43 	 -1.5262 	 -117.62
| 41> *
| 42>
| 43>                          ****END OF INPUT****

CARTESIAN COORDINATES (ANGSTROEM)
---------------------------------
  S    -98.138200    1.426020  -122.320000
  C    -97.675300    3.022860  -122.732000
  C    -98.056300    3.947300  -121.788000
  C    -98.560700    3.302700  -120.623000
  C    -98.631000    1.940630  -120.805000
  H    -98.862400    3.826120  -119.687000
  C    -98.008800    5.461650  -121.832000
  H    -96.986600    5.653300  -122.100000
  H    -98.205700    5.781800  -120.875000
  C    -99.105100    6.118170  -122.656000
  H    -98.861200    5.973740  -123.636000
  H    -100.021000    5.529130  -122.531000
  C    -99.350200    7.621320  -122.350000
  H    -98.416400    8.167800  -122.159000
  H    -99.988700    8.281060  -123.002000
  H    -99.705300    7.675330  -121.325000
  S    -100.266000   -0.163602  -119.817000
  C    -99.924900   -0.732540  -118.174000
  C    -98.747700   -0.213892  -117.694000
  C    -98.134300    0.736974  -118.568000
  C    -98.953900    1.013140  -119.690000
  H    -98.267400   -0.480575  -116.830000
  C    -96.900700    1.530690  -118.211000
  H    -97.177300    2.396170  -117.558000
  H    -96.627500    2.053520  -119.101000
  C    -95.745600    0.811865  -117.600000
  H    -95.414700    0.075412  -118.324000
  H    -96.051200    0.234959  -116.755000
  C    -94.587700    1.731960  -117.244000
  H    -94.739300    2.264120  -116.312000
  H    -94.365300    2.512020  -117.973000
  H    -93.611100    1.273280  -117.091000
  H    -97.220300    3.347680  -123.618000
  H    -100.430000   -1.526200  -117.620000

 Total Charge           Charge          ....    0
 Multiplicity           Mult            ....    1
 Number of Electrons    NEL             ....  134
 Basis Dimension        Dim             ....  322

ORBITAL ENERGIES
----------------

  NO   OCC          E(Eh)            E(eV)
   0   2.0000     -88.969873     -2420.9933
   1   2.0000     -88.966787     -2420.9094
   2   2.0000     -10.327156      -281.0162
   3   2.0000     -10.321636      -280.8660
   4   2.0000     -10.318237      -280.7735
   5   2.0000     -10.305542      -280.4281
   6   2.0000     -10.301107      -280.3074
   7   2.0000     -10.296141      -280.1723
   8   2.0000     -10.291523      -280.0466
   9   2.0000     -10.285550      -279.8840
  10   2.0000     -10.284425      -279.8534
  11   2.0000     -10.284259      -279.8489
  12   2.0000     -10.283884      -279.8387
  13   2.0000     -10.281642      -279.7777
  14   2.0000     -10.281495      -279.7737
  15   2.0000     -10.275943      -279.6226
  16   2.0000      -8.086452      -220.0435
  17   2.0000      -8.080678      -219.8864
  18   2.0000      -6.044692      -164.4844
  19   2.0000      -6.040708      -164.3760
  20   2.0000      -6.039257      -164.3365
  21   2.0000      -6.037378      -164.2854
  22   2.0000      -6.035362      -164.2306
  23   2.0000      -6.031381      -164.1222
  24   2.0000      -1.015048       -27.6209
  25   2.0000      -0.983762       -26.7695
  26   2.0000      -0.918386       -24.9906
  27   2.0000      -0.913293       -24.8520
  28   2.0000      -0.866567       -23.5805
  29   2.0000      -0.854609       -23.2551
  30   2.0000      -0.848103       -23.0781
  31   2.0000      -0.813469       -22.1356
  32   2.0000      -0.786157       -21.3924
  33   2.0000      -0.772172       -21.0119
  34   2.0000      -0.714758       -19.4496
  35   2.0000      -0.708575       -19.2813
  36   2.0000      -0.697383       -18.9768
  37   2.0000      -0.657033       -17.8788
  38   2.0000      -0.644210       -17.5298
  39   2.0000      -0.616682       -16.7808
  40   2.0000      -0.598006       -16.2726
  41   2.0000      -0.577853       -15.7242
  42   2.0000      -0.566608       -15.4182
  43   2.0000      -0.561791       -15.2871
  44   2.0000      -0.524349       -14.2683
  45   2.0000      -0.522763       -14.2251
  46   2.0000      -0.519157       -14.1270
  47   2.0000      -0.512738       -13.9523
  48   2.0000      -0.501660       -13.6509
  49   2.0000      -0.500185       -13.6107
  50   2.0000      -0.492662       -13.4060
  51   2.0000      -0.479335       -13.0434
  52   2.0000      -0.470781       -12.8106
  53   2.0000      -0.467215       -12.7136
  54   2.0000      -0.459324       -12.4988
  55   2.0000      -0.455157       -12.3855
  56   2.0000      -0.449963       -12.2441
  57   2.0000      -0.437124       -11.8947
  58   2.0000      -0.432980       -11.7820
  59   2.0000      -0.430304       -11.7092
  60   2.0000      -0.424933       -11.5630
  61   2.0000      -0.416175       -11.3247
  62   2.0000      -0.414450       -11.2778
  63   2.0000      -0.338153        -9.2016
  64   2.0000      -0.335156        -9.1201
  65   2.0000      -0.326497        -8.8844
  66   2.0000      -0.296585        -8.0705
  67   0.0000       0.039535         1.0758
  68   0.0000       0.062756         1.7077
  69   0.0000       0.110543         3.0080
  70   0.0000       0.129137         3.5140
  71   0.0000       0.130704         3.5566

MULLIKEN ATOMIC CHARGES
-----------------------
   0 S :    0.151416
   1 C :   -0.106680
   2 C :   -0.131125
   3 C :   -0.011633
   4 C :   -0.154160
   5 H :    0.032906
   6 C :    0.145499
   7 H :    0.028958
   8 H :   -0.022451
   9 C :   -0.023457
  10 H :    0.001719
  11 H :    0.034969
  12 C :   -0.067337
  13 H :    0.021232
  14 H :    0.056798
  15 H :    0.019689
  16 S :    0.104633
  17 C :   -0.080378
  18 C :    0.012783
  19 C :   -0.027772
  20 C :   -0.182180
  21 H :   -0.021705
  22 C :    0.056714
  23 H :    0.034493
  24 H :    0.018576
  25 C :   -0.047717
  26 H :    0.028197
  27 H :    0.022291
  28 C :   -0.043061
  29 H :    0.022885
  30 H :    0.024218
  31 H :    0.027992
  32 H :    0.014808
  33 H :    0.058883
Sum of atomic charges:    0.0000000

LOEWDIN ATOMIC CHARGES
----------------------
   0 S :    0.461231
   1 C :   -0.208624
   2 C :   -0.057932
   3 C :   -0.068220
   4 C :   -0.224233
   5 H :    0.040208
   6 C :   -0.018122
   7 H :    0.031485
   8 H :    0.015404
   9 C :   -0.030747
  10 H :    0.008556
  11 H :    0.030933
  12 C :   -0.078279
  13 H :    0.026526
  14 H :    0.036005
  15 H :    0.024228
  16 S :    0.388289
  17 C :   -0.179523
  18 C :   -0.060110
  19 C :   -0.048067
  20 C :   -0.197493
  21 H :    0.014429
  22 C :   -0.037913
  23 H :    0.035788
  24 H :    0.027726
  25 C :   -0.039715
  26 H :    0.027858
  27 H :    0.019582
  28 C :   -0.067321
  29 H :    0.024100
  30 H :    0.026084
  31 H :    0.027710
  32 H :    0.016259
  33 H :    0.033899

  Mayer bond orders larger than 0.100000
B(  0-S ,  1-C ) :   1.1474 B(  0-S ,  4-C ) :   1.1904 B(  1-C ,  2-C ) :   1.6022
B(  1-C , 32-H ) :   0.9750 B(  2-C ,  3-C ) :   1.2618 B(  2-C ,  6-C ) :   1.0180
B(  3-C ,  4-C ) :   1.5511 B(  3-C ,  5-H ) :   0.9924 B(  4-C , 20-C ) :   1.0120
B(  6-C ,  7-H ) :   0.9288 B(  6-C ,  8-H ) :   0.9326 B(  6-C ,  9-C ) :   1.0546
B(  9-C , 10-H ) :   0.9551 B(  9-C , 11-H ) :   0.9576 B(  9-C , 12-C ) :   1.0686
B( 12-C , 13-H ) :   0.9725 B( 12-C , 14-H ) :   0.9774 B( 12-C , 15-H ) :   0.9717
B( 16-S , 17-C ) :   1.1437 B( 16-S , 20-C ) :   1.1381 B( 17-C , 18-C ) :   1.6081
B( 17-C , 33-H ) :   0.9647 B( 18-C , 19-C ) :   1.2529 B( 18-C , 21-H ) :   0.9975
B( 19-C , 20-C ) :   1.5758 B( 19-C , 22-C ) :   1.0464 B( 22-C , 23-H ) :   0.9366
B( 22-C , 24-H ) :   0.9193 B( 22-C , 25-C ) :   1.0650 B( 25-C , 26-H ) :   0.9534
B( 25-C , 27-H ) :   0.9526 B( 25-C , 28-C ) :   1.0856 B( 28-C , 29-H ) :   0.9723
B( 28-C , 30-H ) :   0.9743 B( 28-C , 31-H ) :   0.9738

Dispersion correction           -0.013866491
FINAL SINGLE POINT ENERGY     -1339.865609939457

DIPOLE MOMENT
-------------
                                X             Y             Z
Electronic contribution:    -13.01307     -22.38903      -7.41052
Nuclear contribution   :     13.43437      22.81904       7.68870
                        -----------------------------------------
Total Dipole Moment    :      0.42130       0.43001       0.27818
                        -----------------------------------------
Magnitude (a.u.)       :      0.66316
Magnitude (Debye)      :      1.68562

Rotational constants in cm-1:     0.017995     0.007844     0.006508
Rotational constants in MHz :   539.476336   235.153499   195.116788

                             ****ORCA TERMINATED NORMALLY****
TOTAL RUN TIME: 0 days 0 hours 0 minutes 21 seconds 395 msec
