                         Program Version 4.2.1 -  RELEASE  -
|  1> ! wB97X-D3 SP def2-SVP
|  2> %pal
|  3> nprocs 24
|  4> end
|  5>
|  6> * xyz 0 1
|  7> S 	 18.4705 	 -12.7022 	 -128.417
|  8> C 	 17.0526 	 -12.653 	 -129.482
|  9> C 	 16.1119 	 -13.5365 	 -128.96
| 10> C 	 16.515 	 -14.2501 	 -127.803
| 11> C 	 17.7293 	 -13.8658 	 -127.275
| 12> H 	 15.8808 	 -14.9567 	 -127.343
| 13> C 	 14.6985 	 -13.672 	 -129.607
| 14> H 	 14.3956 	 -14.6881 	 -129.455
| 15> H 	 14.9102 	 -13.5921 	 -130.649
| 16> C 	 13.5933 	 -12.7542 	 -128.977
| 17> H 	 13.4821 	 -12.9436 	 -127.943
| 18> H 	 14.0485 	 -11.7577 	 -128.952
| 19> C 	 12.2325 	 -12.8565 	 -129.605
| 20> H 	 11.6256 	 -12.1241 	 -129.125
| 21> H 	 12.216 	 -12.6061 	 -130.675
| 22> H 	 11.7598 	 -13.8147 	 -129.419
| 23> S 	 20.1685 	 -14.5806 	 -126.386
| 24> C 	 20.393 	 -15.4022 	 -124.835
| 25> C 	 19.1138 	 -15.6679 	 -124.307
| 26> C 	 18.0214 	 -15.1393 	 -125.069
| 27> C 	 18.4487 	 -14.3736 	 -126.137
| 28> H 	 19.0813 	 -16.2006 	 -123.443
| 29> C 	 16.5874 	 -15.3184 	 -124.608
| 30> H 	 15.8677 	 -14.7832 	 -125.173
| 31> H 	 16.7033 	 -14.7533 	 -123.665
| 32> C 	 16.1551 	 -16.7805 	 -124.408
| 33> H 	 15.1308 	 -16.8295 	 -123.881
| 34> H 	 16.7141 	 -17.2657 	 -123.779
| 35> C 	 15.8703 	 -17.6529 	 -125.687
| 36> H 	 16.7423 	 -18.0095 	 -126.272
| 37> H 	 15.2449 	 -17.1582 	 -126.438
| 38> H 	 15.2752 	 -18.5547 	 -125.47
| 39> H 	 16.8434 	 -12.0178 	 -130.366
| 40> H 	 21.2781 	 -15.8237 	 -124.412
| 41> *
| 42>
| 43>                          ****END OF INPUT****

CARTESIAN COORDINATES (ANGSTROEM)
---------------------------------
  S     18.470500  -12.702200  -128.417000
  C     17.052600  -12.653000  -129.482000
  C     16.111900  -13.536500  -128.960000
  C     16.515000  -14.250100  -127.803000
  C     17.729300  -13.865800  -127.275000
  H     15.880800  -14.956700  -127.343000
  C     14.698500  -13.672000  -129.607000
  H     14.395600  -14.688100  -129.455000
  H     14.910200  -13.592100  -130.649000
  C     13.593300  -12.754200  -128.977000
  H     13.482100  -12.943600  -127.943000
  H     14.048500  -11.757700  -128.952000
  C     12.232500  -12.856500  -129.605000
  H     11.625600  -12.124100  -129.125000
  H     12.216000  -12.606100  -130.675000
  H     11.759800  -13.814700  -129.419000
  S     20.168500  -14.580600  -126.386000
  C     20.393000  -15.402200  -124.835000
  C     19.113800  -15.667900  -124.307000
  C     18.021400  -15.139300  -125.069000
  C     18.448700  -14.373600  -126.137000
  H     19.081300  -16.200600  -123.443000
  C     16.587400  -15.318400  -124.608000
  H     15.867700  -14.783200  -125.173000
  H     16.703300  -14.753300  -123.665000
  C     16.155100  -16.780500  -124.408000
  H     15.130800  -16.829500  -123.881000
  H     16.714100  -17.265700  -123.779000
  C     15.870300  -17.652900  -125.687000
  H     16.742300  -18.009500  -126.272000
  H     15.244900  -17.158200  -126.438000
  H     15.275200  -18.554700  -125.470000
  H     16.843400  -12.017800  -130.366000
  H     21.278100  -15.823700  -124.412000

 Total Charge           Charge          ....    0
 Multiplicity           Mult            ....    1
 Number of Electrons    NEL             ....  134
 Basis Dimension        Dim             ....  322

ORBITAL ENERGIES
----------------

  NO   OCC          E(Eh)            E(eV)
   0   2.0000     -88.965142     -2420.8646
   1   2.0000     -88.964600     -2420.8498
   2   2.0000     -10.333876      -281.1991
   3   2.0000     -10.326465      -280.9974
   4   2.0000     -10.322254      -280.8828
   5   2.0000     -10.317666      -280.7580
   6   2.0000     -10.307669      -280.4859
   7   2.0000     -10.299440      -280.2620
   8   2.0000     -10.296325      -280.1773
   9   2.0000     -10.292337      -280.0687
  10   2.0000     -10.291264      -280.0395
  11   2.0000     -10.289334      -279.9870
  12   2.0000     -10.288491      -279.9641
  13   2.0000     -10.285822      -279.8914
  14   2.0000     -10.284077      -279.8440
  15   2.0000     -10.276196      -279.6295
  16   2.0000      -8.079532      -219.8552
  17   2.0000      -8.078077      -219.8156
  18   2.0000      -6.038184      -164.3073
  19   2.0000      -6.036831      -164.2705
  20   2.0000      -6.034062      -164.1952
  21   2.0000      -6.032651      -164.1568
  22   2.0000      -6.030140      -164.0884
  23   2.0000      -6.028748      -164.0506
  24   2.0000      -1.005951       -27.3733
  25   2.0000      -0.979050       -26.6413
  26   2.0000      -0.910668       -24.7805
  27   2.0000      -0.906019       -24.6540
  28   2.0000      -0.872864       -23.7518
  29   2.0000      -0.851136       -23.1606
  30   2.0000      -0.842751       -22.9324
  31   2.0000      -0.818490       -22.2722
  32   2.0000      -0.784899       -21.3582
  33   2.0000      -0.772439       -21.0191
  34   2.0000      -0.718637       -19.5551
  35   2.0000      -0.706276       -19.2188
  36   2.0000      -0.702048       -19.1037
  37   2.0000      -0.667108       -18.1529
  38   2.0000      -0.635717       -17.2987
  39   2.0000      -0.625451       -17.0194
  40   2.0000      -0.599450       -16.3119
  41   2.0000      -0.567899       -15.4533
  42   2.0000      -0.559318       -15.2198
  43   2.0000      -0.553409       -15.0590
  44   2.0000      -0.538632       -14.6569
  45   2.0000      -0.528003       -14.3677
  46   2.0000      -0.524130       -14.2623
  47   2.0000      -0.509792       -13.8721
  48   2.0000      -0.507016       -13.7966
  49   2.0000      -0.501561       -13.6482
  50   2.0000      -0.495900       -13.4941
  51   2.0000      -0.479418       -13.0456
  52   2.0000      -0.474604       -12.9146
  53   2.0000      -0.467705       -12.7269
  54   2.0000      -0.464402       -12.6370
  55   2.0000      -0.450597       -12.2614
  56   2.0000      -0.447196       -12.1688
  57   2.0000      -0.437472       -11.9042
  58   2.0000      -0.437059       -11.8930
  59   2.0000      -0.432508       -11.7691
  60   2.0000      -0.414351       -11.2751
  61   2.0000      -0.411256       -11.1908
  62   2.0000      -0.404756       -11.0140
  63   2.0000      -0.358896        -9.7661
  64   2.0000      -0.330746        -9.0000
  65   2.0000      -0.325372        -8.8538
  66   2.0000      -0.284150        -7.7321
  67   0.0000       0.018136         0.4935
  68   0.0000       0.078502         2.1361
  69   0.0000       0.098863         2.6902
  70   0.0000       0.119909         3.2629
  71   0.0000       0.131003         3.5648

MULLIKEN ATOMIC CHARGES
-----------------------
   0 S :    0.087830
   1 C :   -0.120416
   2 C :   -0.138757
   3 C :    0.052021
   4 C :   -0.121071
   5 H :   -0.034906
   6 C :    0.078490
   7 H :    0.005663
   8 H :    0.019240
   9 C :   -0.052907
  10 H :    0.011893
  11 H :    0.021525
  12 C :   -0.015390
  13 H :    0.024683
  14 H :    0.034398
  15 H :    0.032415
  16 S :    0.090106
  17 C :   -0.073723
  18 C :   -0.017624
  19 C :   -0.053042
  20 C :   -0.091473
  21 H :   -0.019836
  22 C :    0.073938
  23 H :    0.013807
  24 H :    0.048418
  25 C :   -0.017334
  26 H :    0.033462
  27 H :   -0.011983
  28 C :   -0.085567
  29 H :    0.047210
  30 H :    0.027421
  31 H :    0.033742
  32 H :    0.064070
  33 H :    0.053695
Sum of atomic charges:   -0.0000000

LOEWDIN ATOMIC CHARGES
----------------------
   0 S :    0.376600
   1 C :   -0.202867
   2 C :   -0.062001
   3 C :   -0.066876
   4 C :   -0.170638
   5 H :    0.018900
   6 C :   -0.026338
   7 H :    0.021511
   8 H :    0.025022
   9 C :   -0.039509
  10 H :    0.020668
  11 H :    0.024805
  12 C :   -0.061872
  13 H :    0.026276
  14 H :    0.027556
  15 H :    0.026327
  16 S :    0.402030
  17 C :   -0.172444
  18 C :   -0.058494
  19 C :   -0.051928
  20 C :   -0.200056
  21 H :    0.012198
  22 C :   -0.027315
  23 H :    0.022904
  24 H :    0.047550
  25 C :   -0.024809
  26 H :    0.039272
  27 H :   -0.003754
  28 C :   -0.074464
  29 H :    0.029089
  30 H :    0.021609
  31 H :    0.030202
  32 H :    0.041642
  33 H :    0.029203

  Mayer bond orders larger than 0.100000
B(  0-S ,  1-C ) :   1.1214 B(  0-S ,  4-C ) :   1.1388 B(  1-C ,  2-C ) :   1.6083
B(  1-C ,  4-C ) :   0.1014 B(  1-C , 32-H ) :   0.9644 B(  2-C ,  3-C ) :   1.2687
B(  2-C ,  6-C ) :   1.0155 B(  3-C ,  4-C ) :   1.5466 B(  3-C ,  5-H ) :   0.9941
B(  4-C , 20-C ) :   1.0698 B(  6-C ,  7-H ) :   0.9402 B(  6-C ,  8-H ) :   0.9465
B(  6-C ,  9-C ) :   1.0500 B(  9-C , 10-H ) :   0.9513 B(  9-C , 11-H ) :   0.9559
B(  9-C , 12-C ) :   1.0895 B( 12-C , 13-H ) :   0.9698 B( 12-C , 14-H ) :   0.9748
B( 12-C , 15-H ) :   0.9722 B( 16-S , 17-C ) :   1.1515 B( 16-S , 20-C ) :   1.1330
B( 17-C , 18-C ) :   1.5995 B( 17-C , 33-H ) :   0.9722 B( 18-C , 19-C ) :   1.2369
B( 18-C , 21-H ) :   1.0059 B( 19-C , 20-C ) :   1.5847 B( 19-C , 22-C ) :   1.0146
B( 22-C , 23-H ) :   0.9441 B( 22-C , 24-H ) :   0.9352 B( 22-C , 25-C ) :   1.0726
B( 25-C , 26-H ) :   0.9543 B( 25-C , 27-H ) :   0.9585 B( 25-C , 28-C ) :   1.0617
B( 28-C , 29-H ) :   0.9776 B( 28-C , 30-H ) :   0.9721 B( 28-C , 31-H ) :   0.9741

Dispersion correction           -0.014266448
FINAL SINGLE POINT ENERGY     -1339.853319730845

DIPOLE MOMENT
-------------
                                X             Y             Z
Electronic contribution:     30.04806       8.54448      -0.03705
Nuclear contribution   :    -30.77700      -8.99258       0.35205
                        -----------------------------------------
Total Dipole Moment    :     -0.72893      -0.44809       0.31500
                        -----------------------------------------
Magnitude (a.u.)       :      0.91179
Magnitude (Debye)      :      2.31759

Rotational constants in cm-1:     0.019110     0.008810     0.006410
Rotational constants in MHz :   572.892640   264.129608   192.160864

                             ****ORCA TERMINATED NORMALLY****
TOTAL RUN TIME: 0 days 0 hours 0 minutes 20 seconds 357 msec
