                         Program Version 4.2.1 -  RELEASE  -
|  1> ! wB97X-D3 SP def2-SVP
|  2> %pal
|  3> nprocs 24
|  4> end
|  5>
|  6> * xyz 0 1
|  7> S 	 -122.603 	 56.6042 	 -34.127
|  8> C 	 -121.621 	 55.2191 	 -33.6344
|  9> C 	 -121.141 	 55.442 	 -32.3426
| 10> C 	 -121.642 	 56.6688 	 -31.8066
| 11> C 	 -122.429 	 57.4349 	 -32.6252
| 12> H 	 -121.46 	 57.0985 	 -30.8282
| 13> C 	 -120.07 	 54.6764 	 -31.6792
| 14> H 	 -119.705 	 55.1708 	 -30.8179
| 15> H 	 -119.299 	 54.5399 	 -32.3725
| 16> C 	 -120.577 	 53.2021 	 -31.3529
| 17> H 	 -121.407 	 53.1326 	 -30.6343
| 18> H 	 -120.99 	 52.8293 	 -32.3079
| 19> C 	 -119.505 	 52.2315 	 -31.0005
| 20> H 	 -119.953 	 51.202 	 -31.0367
| 21> H 	 -118.675 	 52.1894 	 -31.6916
| 22> H 	 -119.068 	 52.3007 	 -30.0229
| 23> S 	 -122.268 	 59.9965 	 -33.8051
| 24> C 	 -122.782 	 61.3997 	 -32.9011
| 25> C 	 -123.01 	 61.0485 	 -31.5627
| 26> C 	 -123.079 	 59.596 	 -31.3752
| 27> C 	 -122.735 	 58.9082 	 -32.517
| 28> H 	 -123.408 	 61.8416 	 -31.0093
| 29> C 	 -123.654 	 58.9921 	 -30.0625
| 30> H 	 -123.792 	 57.9278 	 -30.2755
| 31> H 	 -124.598 	 59.4821 	 -30.0847
| 32> C 	 -122.829 	 59.2592 	 -28.755
| 33> H 	 -123.293 	 60.0992 	 -28.165
| 34> H 	 -121.832 	 59.6537 	 -29.1315
| 35> C 	 -122.766 	 58.0788 	 -27.8079
| 36> H 	 -122.254 	 58.1765 	 -26.8062
| 37> H 	 -122.139 	 57.3133 	 -28.2534
| 38> H 	 -123.701 	 57.5255 	 -27.684
| 39> H 	 -121.443 	 54.3565 	 -34.2771
| 40> H 	 -122.917 	 62.276 	 -33.4593
| 41> *
| 42>
| 43>                          ****END OF INPUT****

CARTESIAN COORDINATES (ANGSTROEM)
---------------------------------
  S    -122.603000   56.604200  -34.127000
  C    -121.621000   55.219100  -33.634400
  C    -121.141000   55.442000  -32.342600
  C    -121.642000   56.668800  -31.806600
  C    -122.429000   57.434900  -32.625200
  H    -121.460000   57.098500  -30.828200
  C    -120.070000   54.676400  -31.679200
  H    -119.705000   55.170800  -30.817900
  H    -119.299000   54.539900  -32.372500
  C    -120.577000   53.202100  -31.352900
  H    -121.407000   53.132600  -30.634300
  H    -120.990000   52.829300  -32.307900
  C    -119.505000   52.231500  -31.000500
  H    -119.953000   51.202000  -31.036700
  H    -118.675000   52.189400  -31.691600
  H    -119.068000   52.300700  -30.022900
  S    -122.268000   59.996500  -33.805100
  C    -122.782000   61.399700  -32.901100
  C    -123.010000   61.048500  -31.562700
  C    -123.079000   59.596000  -31.375200
  C    -122.735000   58.908200  -32.517000
  H    -123.408000   61.841600  -31.009300
  C    -123.654000   58.992100  -30.062500
  H    -123.792000   57.927800  -30.275500
  H    -124.598000   59.482100  -30.084700
  C    -122.829000   59.259200  -28.755000
  H    -123.293000   60.099200  -28.165000
  H    -121.832000   59.653700  -29.131500
  C    -122.766000   58.078800  -27.807900
  H    -122.254000   58.176500  -26.806200
  H    -122.139000   57.313300  -28.253400
  H    -123.701000   57.525500  -27.684000
  H    -121.443000   54.356500  -34.277100
  H    -122.917000   62.276000  -33.459300

 Total Charge           Charge          ....    0
 Multiplicity           Mult            ....    1
 Number of Electrons    NEL             ....  134
 Basis Dimension        Dim             ....  322

ORBITAL ENERGIES
----------------

  NO   OCC          E(Eh)            E(eV)
   0   2.0000     -88.963174     -2420.8110
   1   2.0000     -88.961750     -2420.7723
   2   2.0000     -10.330064      -281.0953
   3   2.0000     -10.328466      -281.0519
   4   2.0000     -10.318948      -280.7929
   5   2.0000     -10.318633      -280.7843
   6   2.0000     -10.308901      -280.5195
   7   2.0000     -10.302575      -280.3473
   8   2.0000     -10.299957      -280.2761
   9   2.0000     -10.297729      -280.2155
  10   2.0000     -10.294670      -280.1322
  11   2.0000     -10.292090      -280.0620
  12   2.0000     -10.290306      -280.0135
  13   2.0000     -10.286170      -279.9009
  14   2.0000     -10.283591      -279.8307
  15   2.0000     -10.275716      -279.6164
  16   2.0000      -8.078072      -219.8155
  17   2.0000      -8.077000      -219.7863
  18   2.0000      -6.036533      -164.2624
  19   2.0000      -6.035513      -164.2346
  20   2.0000      -6.032377      -164.1493
  21   2.0000      -6.031433      -164.1236
  22   2.0000      -6.029045      -164.0587
  23   2.0000      -6.027715      -164.0225
  24   2.0000      -1.005803       -27.3693
  25   2.0000      -0.984038       -26.7770
  26   2.0000      -0.914917       -24.8962
  27   2.0000      -0.904133       -24.6027
  28   2.0000      -0.867435       -23.6041
  29   2.0000      -0.853266       -23.2186
  30   2.0000      -0.845374       -23.0038
  31   2.0000      -0.817828       -22.2542
  32   2.0000      -0.783383       -21.3169
  33   2.0000      -0.774124       -21.0650
  34   2.0000      -0.704414       -19.1681
  35   2.0000      -0.702814       -19.1245
  36   2.0000      -0.692586       -18.8462
  37   2.0000      -0.663666       -18.0593
  38   2.0000      -0.645908       -17.5761
  39   2.0000      -0.618751       -16.8371
  40   2.0000      -0.592537       -16.1238
  41   2.0000      -0.573023       -15.5927
  42   2.0000      -0.564685       -15.3659
  43   2.0000      -0.559219       -15.2171
  44   2.0000      -0.529977       -14.4214
  45   2.0000      -0.525766       -14.3068
  46   2.0000      -0.521812       -14.1992
  47   2.0000      -0.517391       -14.0789
  48   2.0000      -0.506666       -13.7871
  49   2.0000      -0.502669       -13.6783
  50   2.0000      -0.488686       -13.2978
  51   2.0000      -0.486977       -13.2513
  52   2.0000      -0.473424       -12.8825
  53   2.0000      -0.462157       -12.5759
  54   2.0000      -0.459714       -12.5095
  55   2.0000      -0.449575       -12.2335
  56   2.0000      -0.447422       -12.1750
  57   2.0000      -0.432360       -11.7651
  58   2.0000      -0.430024       -11.7016
  59   2.0000      -0.425725       -11.5846
  60   2.0000      -0.418856       -11.3977
  61   2.0000      -0.416190       -11.3251
  62   2.0000      -0.406596       -11.0640
  63   2.0000      -0.349229        -9.5030
  64   2.0000      -0.328077        -8.9274
  65   2.0000      -0.326040        -8.8720
  66   2.0000      -0.294092        -8.0026
  67   0.0000       0.027317         0.7433
  68   0.0000       0.071775         1.9531
  69   0.0000       0.111891         3.0447
  70   0.0000       0.123473         3.3599
  71   0.0000       0.127734         3.4758

MULLIKEN ATOMIC CHARGES
-----------------------
   0 S :    0.092306
   1 C :   -0.137946
   2 C :   -0.080741
   3 C :    0.027138
   4 C :   -0.159763
   5 H :   -0.002073
   6 C :    0.141199
   7 H :    0.015496
   8 H :    0.014680
   9 C :   -0.111473
  10 H :    0.036559
  11 H :    0.022030
  12 C :   -0.035215
  13 H :    0.031354
  14 H :    0.020612
  15 H :    0.026747
  16 S :    0.091440
  17 C :   -0.111944
  18 C :    0.014470
  19 C :   -0.119222
  20 C :   -0.096306
  21 H :    0.012459
  22 C :    0.079955
  23 H :    0.032495
  24 H :    0.036893
  25 C :   -0.080422
  26 H :    0.040739
  27 H :    0.052221
  28 C :   -0.070437
  29 H :    0.046956
  30 H :    0.013654
  31 H :    0.039451
  32 H :    0.061844
  33 H :    0.054845
Sum of atomic charges:   -0.0000000

LOEWDIN ATOMIC CHARGES
----------------------
   0 S :    0.410002
   1 C :   -0.193910
   2 C :   -0.061021
   3 C :   -0.064938
   4 C :   -0.203577
   5 H :    0.028242
   6 C :   -0.018230
   7 H :    0.025062
   8 H :    0.028339
   9 C :   -0.038042
  10 H :    0.026894
  11 H :    0.024678
  12 C :   -0.071937
  13 H :    0.034173
  14 H :    0.020826
  15 H :    0.019540
  16 S :    0.397951
  17 C :   -0.165494
  18 C :   -0.067852
  19 C :   -0.058429
  20 C :   -0.201247
  21 H :    0.023500
  22 C :   -0.026308
  23 H :    0.030601
  24 H :    0.033446
  25 C :   -0.050241
  26 H :    0.030403
  27 H :    0.033235
  28 C :   -0.080866
  29 H :    0.035775
  30 H :    0.020976
  31 H :    0.029398
  32 H :    0.030947
  33 H :    0.018102

  Mayer bond orders larger than 0.100000
B(  0-S ,  1-C ) :   1.1515 B(  0-S ,  4-C ) :   1.1633 B(  1-C ,  2-C ) :   1.5614
B(  1-C , 32-H ) :   0.9706 B(  2-C ,  3-C ) :   1.2669 B(  2-C ,  6-C ) :   1.0396
B(  3-C ,  4-C ) :   1.5607 B(  3-C ,  5-H ) :   0.9926 B(  4-C , 20-C ) :   0.9984
B(  6-C ,  7-H ) :   0.9431 B(  6-C ,  8-H ) :   0.9328 B(  6-C ,  9-C ) :   1.0462
B(  9-C , 10-H ) :   0.9575 B(  9-C , 11-H ) :   0.9602 B(  9-C , 12-C ) :   1.0917
B( 12-C , 13-H ) :   0.9704 B( 12-C , 14-H ) :   0.9712 B( 12-C , 15-H ) :   0.9726
B( 16-S , 17-C ) :   1.1649 B( 16-S , 20-C ) :   1.1336 B( 17-C , 18-C ) :   1.5993
B( 17-C , 33-H ) :   0.9793 B( 18-C , 19-C ) :   1.2123 B( 18-C , 21-H ) :   0.9959
B( 19-C , 20-C ) :   1.6323 B( 19-C , 22-C ) :   1.0278 B( 22-C , 23-H ) :   0.9492
B( 22-C , 24-H ) :   0.9330 B( 22-C , 25-C ) :   1.0219 B( 25-C , 26-H ) :   0.9533
B( 25-C , 27-H ) :   0.9686 B( 25-C , 28-C ) :   1.0776 B( 28-C , 29-H ) :   0.9729
B( 28-C , 30-H ) :   0.9728 B( 28-C , 31-H ) :   0.9723

Dispersion correction           -0.013875993
FINAL SINGLE POINT ENERGY     -1339.861232043215

DIPOLE MOMENT
-------------
                                X             Y             Z
Electronic contribution:     -6.88607      16.61611     -24.75664
Nuclear contribution   :      7.05276     -16.76793      25.28771
                        -----------------------------------------
Total Dipole Moment    :      0.16669      -0.15181       0.53107
                        -----------------------------------------
Magnitude (a.u.)       :      0.57695
Magnitude (Debye)      :      1.46648

Rotational constants in cm-1:     0.018520     0.008386     0.006161
Rotational constants in MHz :   555.229098   251.410928   184.704599

                             ****ORCA TERMINATED NORMALLY****
TOTAL RUN TIME: 0 days 0 hours 0 minutes 21 seconds 73 msec
