                         Program Version 4.2.1 -  RELEASE  -
|  1> ! wB97X-D3 SP def2-SVP
|  2> %pal
|  3> nprocs 24
|  4> end
|  5>
|  6> * xyz 0 1
|  7> S 	 27.5185 	 -26.9506 	 -131.543
|  8> C 	 26.5842 	 -25.5797 	 -132.053
|  9> C 	 27.0051 	 -24.3842 	 -131.473
| 10> C 	 27.9873 	 -24.6446 	 -130.443
| 11> C 	 28.3647 	 -25.9614 	 -130.391
| 12> H 	 28.3387 	 -23.931 	 -129.678
| 13> C 	 26.4007 	 -22.9877 	 -131.705
| 14> H 	 25.5879 	 -22.7506 	 -130.98
| 15> H 	 25.9452 	 -22.9747 	 -132.722
| 16> C 	 27.418 	 -21.8017 	 -131.9
| 17> H 	 28.1947 	 -21.7666 	 -131.121
| 18> H 	 27.9153 	 -21.9978 	 -132.839
| 19> C 	 26.7698 	 -20.3928 	 -131.844
| 20> H 	 25.9518 	 -20.3431 	 -131.093
| 21> H 	 27.3805 	 -19.4948 	 -131.773
| 22> H 	 26.1839 	 -20.294 	 -132.77
| 23> S 	 28.9031 	 -28.2323 	 -128.868
| 24> C 	 30.2528 	 -28.2726 	 -127.748
| 25> C 	 30.9324 	 -27.0371 	 -127.771
| 26> C 	 30.4416 	 -26.1184 	 -128.765
| 27> C 	 29.3384 	 -26.6092 	 -129.462
| 28> H 	 31.7748 	 -26.9329 	 -127.149
| 29> C 	 31.0979 	 -24.7977 	 -128.904
| 30> H 	 31.7281 	 -24.6451 	 -127.976
| 31> H 	 30.3627 	 -24.0831 	 -128.6
| 32> C 	 31.8675 	 -24.59 	 -130.218
| 33> H 	 31.247 	 -24.93 	 -131.029
| 34> H 	 32.7311 	 -25.2157 	 -130.345
| 35> C 	 32.1495 	 -23.0494 	 -130.418
| 36> H 	 31.2364 	 -22.5063 	 -130.369
| 37> H 	 32.7226 	 -23.0366 	 -131.353
| 38> H 	 32.8471 	 -22.6572 	 -129.673
| 39> H 	 25.8649 	 -25.6656 	 -132.804
| 40> H 	 30.3717 	 -29.1051 	 -127.1
| 41> *
| 42>
| 43>                          ****END OF INPUT****

CARTESIAN COORDINATES (ANGSTROEM)
---------------------------------
  S     27.518500  -26.950600  -131.543000
  C     26.584200  -25.579700  -132.053000
  C     27.005100  -24.384200  -131.473000
  C     27.987300  -24.644600  -130.443000
  C     28.364700  -25.961400  -130.391000
  H     28.338700  -23.931000  -129.678000
  C     26.400700  -22.987700  -131.705000
  H     25.587900  -22.750600  -130.980000
  H     25.945200  -22.974700  -132.722000
  C     27.418000  -21.801700  -131.900000
  H     28.194700  -21.766600  -131.121000
  H     27.915300  -21.997800  -132.839000
  C     26.769800  -20.392800  -131.844000
  H     25.951800  -20.343100  -131.093000
  H     27.380500  -19.494800  -131.773000
  H     26.183900  -20.294000  -132.770000
  S     28.903100  -28.232300  -128.868000
  C     30.252800  -28.272600  -127.748000
  C     30.932400  -27.037100  -127.771000
  C     30.441600  -26.118400  -128.765000
  C     29.338400  -26.609200  -129.462000
  H     31.774800  -26.932900  -127.149000
  C     31.097900  -24.797700  -128.904000
  H     31.728100  -24.645100  -127.976000
  H     30.362700  -24.083100  -128.600000
  C     31.867500  -24.590000  -130.218000
  H     31.247000  -24.930000  -131.029000
  H     32.731100  -25.215700  -130.345000
  C     32.149500  -23.049400  -130.418000
  H     31.236400  -22.506300  -130.369000
  H     32.722600  -23.036600  -131.353000
  H     32.847100  -22.657200  -129.673000
  H     25.864900  -25.665600  -132.804000
  H     30.371700  -29.105100  -127.100000

 Total Charge           Charge          ....    0
 Multiplicity           Mult            ....    1
 Number of Electrons    NEL             ....  134
 Basis Dimension        Dim             ....  322

ORBITAL ENERGIES
----------------

  NO   OCC          E(Eh)            E(eV)
   0   2.0000     -88.967672     -2420.9334
   1   2.0000     -88.963525     -2420.8206
   2   2.0000     -10.331188      -281.1259
   3   2.0000     -10.330687      -281.1123
   4   2.0000     -10.318828      -280.7896
   5   2.0000     -10.311696      -280.5955
   6   2.0000     -10.308575      -280.5106
   7   2.0000     -10.303965      -280.3851
   8   2.0000     -10.302971      -280.3581
   9   2.0000     -10.296445      -280.1805
  10   2.0000     -10.294359      -280.1237
  11   2.0000     -10.293469      -280.0995
  12   2.0000     -10.290140      -280.0089
  13   2.0000     -10.285269      -279.8764
  14   2.0000     -10.284083      -279.8441
  15   2.0000     -10.278081      -279.6808
  16   2.0000      -8.082890      -219.9466
  17   2.0000      -8.077757      -219.8070
  18   2.0000      -6.041301      -164.3922
  19   2.0000      -6.037380      -164.2855
  20   2.0000      -6.036257      -164.2549
  21   2.0000      -6.033689      -164.1850
  22   2.0000      -6.032183      -164.1441
  23   2.0000      -6.028729      -164.0501
  24   2.0000      -1.004406       -27.3313
  25   2.0000      -0.980170       -26.6718
  26   2.0000      -0.908057       -24.7095
  27   2.0000      -0.903979       -24.5985
  28   2.0000      -0.864117       -23.5138
  29   2.0000      -0.851660       -23.1749
  30   2.0000      -0.844820       -22.9887
  31   2.0000      -0.812490       -22.1090
  32   2.0000      -0.779605       -21.2141
  33   2.0000      -0.770369       -20.9628
  34   2.0000      -0.712777       -19.3957
  35   2.0000      -0.701802       -19.0970
  36   2.0000      -0.690757       -18.7964
  37   2.0000      -0.665843       -18.1185
  38   2.0000      -0.644351       -17.5337
  39   2.0000      -0.621185       -16.9033
  40   2.0000      -0.594862       -16.1870
  41   2.0000      -0.564673       -15.3655
  42   2.0000      -0.562608       -15.3094
  43   2.0000      -0.554677       -15.0935
  44   2.0000      -0.534725       -14.5506
  45   2.0000      -0.523432       -14.2433
  46   2.0000      -0.516072       -14.0430
  47   2.0000      -0.509916       -13.8755
  48   2.0000      -0.501755       -13.6534
  49   2.0000      -0.494949       -13.4682
  50   2.0000      -0.490700       -13.3526
  51   2.0000      -0.486275       -13.2322
  52   2.0000      -0.468286       -12.7427
  53   2.0000      -0.466205       -12.6861
  54   2.0000      -0.460055       -12.5187
  55   2.0000      -0.453499       -12.3403
  56   2.0000      -0.445377       -12.1193
  57   2.0000      -0.440575       -11.9887
  58   2.0000      -0.436092       -11.8667
  59   2.0000      -0.426108       -11.5950
  60   2.0000      -0.415399       -11.3036
  61   2.0000      -0.410934       -11.1821
  62   2.0000      -0.403563       -10.9815
  63   2.0000      -0.352611        -9.5950
  64   2.0000      -0.332974        -9.0607
  65   2.0000      -0.328816        -8.9475
  66   2.0000      -0.286972        -7.8089
  67   0.0000       0.025227         0.6865
  68   0.0000       0.076913         2.0929
  69   0.0000       0.102679         2.7941
  70   0.0000       0.113846         3.0979
  71   0.0000       0.127840         3.4787

MULLIKEN ATOMIC CHARGES
-----------------------
   0 S :    0.109190
   1 C :   -0.094725
   2 C :   -0.068300
   3 C :   -0.004355
   4 C :   -0.126796
   5 H :    0.024831
   6 C :    0.019990
   7 H :    0.056914
   8 H :    0.028719
   9 C :   -0.090849
  10 H :    0.032776
  11 H :    0.037835
  12 C :   -0.060469
  13 H :    0.028376
  14 H :    0.047571
  15 H :    0.019561
  16 S :    0.083457
  17 C :   -0.092844
  18 C :   -0.015504
  19 C :   -0.068146
  20 C :   -0.116517
  21 H :    0.006331
  22 C :    0.057332
  23 H :    0.010076
  24 H :    0.013878
  25 C :   -0.040175
  26 H :    0.033429
  27 H :    0.025973
  28 C :   -0.038702
  29 H :    0.036480
  30 H :    0.037147
  31 H :    0.028765
  32 H :    0.024026
  33 H :    0.054721
Sum of atomic charges:   -0.0000000

LOEWDIN ATOMIC CHARGES
----------------------
   0 S :    0.414067
   1 C :   -0.188288
   2 C :   -0.060129
   3 C :   -0.069600
   4 C :   -0.191259
   5 H :    0.035990
   6 C :   -0.035870
   7 H :    0.035840
   8 H :    0.035332
   9 C :   -0.040795
  10 H :    0.017331
  11 H :    0.025304
  12 C :   -0.073963
  13 H :    0.027534
  14 H :    0.028474
  15 H :    0.024653
  16 S :    0.388751
  17 C :   -0.176263
  18 C :   -0.064404
  19 C :   -0.058303
  20 C :   -0.191063
  21 H :    0.023640
  22 C :   -0.042374
  23 H :    0.035816
  24 H :    0.026646
  25 C :   -0.029529
  26 H :    0.025930
  27 H :    0.024970
  28 C :   -0.058780
  29 H :    0.020799
  30 H :    0.030147
  31 H :    0.023579
  32 H :    0.013553
  33 H :    0.022262

  Mayer bond orders larger than 0.100000
B(  0-S ,  1-C ) :   1.1407 B(  0-S ,  4-C ) :   1.1539 B(  1-C ,  2-C ) :   1.6169
B(  1-C , 32-H ) :   0.9780 B(  2-C ,  3-C ) :   1.2195 B(  2-C ,  6-C ) :   1.0242
B(  3-C ,  4-C ) :   1.6032 B(  3-C ,  5-H ) :   0.9846 B(  4-C , 20-C ) :   1.0223
B(  6-C ,  7-H ) :   0.9475 B(  6-C ,  8-H ) :   0.9476 B(  6-C ,  9-C ) :   1.0389
B(  9-C , 10-H ) :   0.9639 B(  9-C , 11-H ) :   0.9628 B(  9-C , 12-C ) :   1.0655
B( 12-C , 13-H ) :   0.9756 B( 12-C , 14-H ) :   0.9776 B( 12-C , 15-H ) :   0.9743
B( 16-S , 17-C ) :   1.1661 B( 16-S , 20-C ) :   1.1366 B( 17-C , 18-C ) :   1.5734
B( 17-C , 20-C ) :   0.1029 B( 17-C , 33-H ) :   0.9752 B( 18-C , 19-C ) :   1.2579
B( 18-C , 21-H ) :   0.9978 B( 19-C , 20-C ) :   1.5855 B( 19-C , 22-C ) :   1.0429
B( 22-C , 23-H ) :   0.9215 B( 22-C , 24-H ) :   0.9319 B( 22-C , 25-C ) :   1.0427
B( 25-C , 26-H ) :   0.9616 B( 25-C , 27-H ) :   0.9536 B( 25-C , 28-C ) :   1.0718
B( 28-C , 29-H ) :   0.9790 B( 28-C , 30-H ) :   0.9750 B( 28-C , 31-H ) :   0.9769

Dispersion correction           -0.014246680
FINAL SINGLE POINT ENERGY     -1339.875846371557

DIPOLE MOMENT
-------------
                                X             Y             Z
Electronic contribution:     -6.61437     -31.74017       4.85872
Nuclear contribution   :      6.77051      32.35582      -4.76374
                        -----------------------------------------
Total Dipole Moment    :      0.15614       0.61564       0.09498
                        -----------------------------------------
Magnitude (a.u.)       :      0.64220
Magnitude (Debye)      :      1.63234

Rotational constants in cm-1:     0.018075     0.009086     0.006611
Rotational constants in MHz :   541.871556   272.382417   198.182053

                             ****ORCA TERMINATED NORMALLY****
TOTAL RUN TIME: 0 days 0 hours 0 minutes 20 seconds 642 msec
