                         Program Version 4.2.1 -  RELEASE  -
|  1> ! wB97X-D3 SP def2-SVP
|  2> %pal
|  3> nprocs 24
|  4> end
|  5>
|  6> * xyz 0 1
|  7> S 	 -28.2059 	 17.4999 	 6.27155
|  8> C 	 -29.8962 	 17.0465 	 6.18982
|  9> C 	 -30.5266 	 17.4802 	 7.32507
| 10> C 	 -29.6594 	 17.9395 	 8.31525
| 11> C 	 -28.3259 	 18.0946 	 7.94952
| 12> H 	 -29.9407 	 18.1835 	 9.29384
| 13> C 	 -31.9448 	 17.179 	 7.59013
| 14> H 	 -32.4086 	 17.3488 	 6.59129
| 15> H 	 -32.2879 	 17.8962 	 8.32683
| 16> C 	 -32.2322 	 15.743 	 8.13691
| 17> H 	 -31.8079 	 14.9449 	 7.623
| 18> H 	 -31.7062 	 15.6845 	 9.04778
| 19> C 	 -33.7154 	 15.4387 	 8.38486
| 20> H 	 -34.2848 	 14.9835 	 7.54891
| 21> H 	 -33.8376 	 14.9001 	 9.30444
| 22> H 	 -34.1023 	 16.4257 	 8.58778
| 23> S 	 -27.5159 	 19.2131 	 10.3099
| 24> C 	 -25.8496 	 19.6737 	 10.5123
| 25> C 	 -25.1633 	 19.5151 	 9.35246
| 26> C 	 -25.8951 	 19.0106 	 8.21639
| 27> C 	 -27.209 	 18.6539 	 8.65748
| 28> H 	 -24.1124 	 19.7439 	 9.36503
| 29> C 	 -25.3113 	 18.717 	 6.79576
| 30> H 	 -25.6416 	 17.6315 	 6.58365
| 31> H 	 -24.2072 	 18.6669 	 7.06128
| 32> C 	 -25.7398 	 19.6552 	 5.57083
| 33> H 	 -25.4884 	 20.6135 	 5.90068
| 34> H 	 -26.7664 	 19.6754 	 5.38296
| 35> C 	 -24.9846 	 19.1688 	 4.32757
| 36> H 	 -25.2443 	 18.1062 	 4.09335
| 37> H 	 -23.9213 	 19.1695 	 4.63673
| 38> H 	 -25.1821 	 19.8439 	 3.47825
| 39> H 	 -30.3735 	 16.6359 	 5.29051
| 40> H 	 -25.3286 	 20.0259 	 11.3829
| 41> *
| 42>
| 43>                          ****END OF INPUT****

CARTESIAN COORDINATES (ANGSTROEM)
---------------------------------
  S    -28.205900   17.499900    6.271550
  C    -29.896200   17.046500    6.189820
  C    -30.526600   17.480200    7.325070
  C    -29.659400   17.939500    8.315250
  C    -28.325900   18.094600    7.949520
  H    -29.940700   18.183500    9.293840
  C    -31.944800   17.179000    7.590130
  H    -32.408600   17.348800    6.591290
  H    -32.287900   17.896200    8.326830
  C    -32.232200   15.743000    8.136910
  H    -31.807900   14.944900    7.623000
  H    -31.706200   15.684500    9.047780
  C    -33.715400   15.438700    8.384860
  H    -34.284800   14.983500    7.548910
  H    -33.837600   14.900100    9.304440
  H    -34.102300   16.425700    8.587780
  S    -27.515900   19.213100   10.309900
  C    -25.849600   19.673700   10.512300
  C    -25.163300   19.515100    9.352460
  C    -25.895100   19.010600    8.216390
  C    -27.209000   18.653900    8.657480
  H    -24.112400   19.743900    9.365030
  C    -25.311300   18.717000    6.795760
  H    -25.641600   17.631500    6.583650
  H    -24.207200   18.666900    7.061280
  C    -25.739800   19.655200    5.570830
  H    -25.488400   20.613500    5.900680
  H    -26.766400   19.675400    5.382960
  C    -24.984600   19.168800    4.327570
  H    -25.244300   18.106200    4.093350
  H    -23.921300   19.169500    4.636730
  H    -25.182100   19.843900    3.478250
  H    -30.373500   16.635900    5.290510
  H    -25.328600   20.025900   11.382900

 Total Charge           Charge          ....    0
 Multiplicity           Mult            ....    1
 Number of Electrons    NEL             ....  134
 Basis Dimension        Dim             ....  322

ORBITAL ENERGIES
----------------

  NO   OCC          E(Eh)            E(eV)
   0   2.0000     -88.968722     -2420.9620
   1   2.0000     -88.965682     -2420.8793
   2   2.0000     -10.334185      -281.2075
   3   2.0000     -10.333975      -281.2017
   4   2.0000     -10.314875      -280.6820
   5   2.0000     -10.313277      -280.6385
   6   2.0000     -10.312663      -280.6218
   7   2.0000     -10.311023      -280.5772
   8   2.0000     -10.292889      -280.0838
   9   2.0000     -10.292575      -280.0752
  10   2.0000     -10.290746      -280.0254
  11   2.0000     -10.287082      -279.9257
  12   2.0000     -10.282720      -279.8070
  13   2.0000     -10.281503      -279.7739
  14   2.0000     -10.276365      -279.6341
  15   2.0000     -10.274739      -279.5899
  16   2.0000      -8.083021      -219.9502
  17   2.0000      -8.079019      -219.8413
  18   2.0000      -6.041668      -164.4021
  19   2.0000      -6.037675      -164.2935
  20   2.0000      -6.037630      -164.2923
  21   2.0000      -6.033606      -164.1828
  22   2.0000      -6.033572      -164.1819
  23   2.0000      -6.029892      -164.0817
  24   2.0000      -1.006604       -27.3911
  25   2.0000      -0.984950       -26.8018
  26   2.0000      -0.913472       -24.8568
  27   2.0000      -0.899617       -24.4798
  28   2.0000      -0.874303       -23.7910
  29   2.0000      -0.854351       -23.2481
  30   2.0000      -0.846250       -23.0276
  31   2.0000      -0.817030       -22.2325
  32   2.0000      -0.777282       -21.1509
  33   2.0000      -0.764349       -20.7990
  34   2.0000      -0.713553       -19.4168
  35   2.0000      -0.706640       -19.2287
  36   2.0000      -0.698107       -18.9964
  37   2.0000      -0.666822       -18.1451
  38   2.0000      -0.636760       -17.3271
  39   2.0000      -0.617994       -16.8165
  40   2.0000      -0.588803       -16.0221
  41   2.0000      -0.578032       -15.7291
  42   2.0000      -0.561874       -15.2894
  43   2.0000      -0.556502       -15.1432
  44   2.0000      -0.526522       -14.3274
  45   2.0000      -0.525679       -14.3045
  46   2.0000      -0.519719       -14.1423
  47   2.0000      -0.513698       -13.9784
  48   2.0000      -0.508978       -13.8500
  49   2.0000      -0.501147       -13.6369
  50   2.0000      -0.490613       -13.3503
  51   2.0000      -0.477488       -12.9931
  52   2.0000      -0.470457       -12.8018
  53   2.0000      -0.462520       -12.5858
  54   2.0000      -0.459850       -12.5132
  55   2.0000      -0.446201       -12.1418
  56   2.0000      -0.443903       -12.0792
  57   2.0000      -0.437633       -11.9086
  58   2.0000      -0.432617       -11.7721
  59   2.0000      -0.428655       -11.6643
  60   2.0000      -0.423467       -11.5231
  61   2.0000      -0.414980       -11.2922
  62   2.0000      -0.405335       -11.0297
  63   2.0000      -0.366692        -9.9782
  64   2.0000      -0.332157        -9.0385
  65   2.0000      -0.329772        -8.9735
  66   2.0000      -0.276583        -7.5262
  67   0.0000       0.011695         0.3182
  68   0.0000       0.087843         2.3903
  69   0.0000       0.111909         3.0452
  70   0.0000       0.120353         3.2750
  71   0.0000       0.130360         3.5473

MULLIKEN ATOMIC CHARGES
-----------------------
   0 S :    0.071808
   1 C :   -0.126967
   2 C :   -0.067317
   3 C :    0.001065
   4 C :   -0.103000
   5 H :   -0.011930
   6 C :    0.048065
   7 H :    0.030761
   8 H :    0.023468
   9 C :   -0.028774
  10 H :    0.007641
  11 H :    0.004960
  12 C :   -0.028889
  13 H :    0.048963
  14 H :    0.029357
  15 H :    0.011805
  16 S :    0.089644
  17 C :   -0.062216
  18 C :   -0.044135
  19 C :   -0.043248
  20 C :   -0.117123
  21 H :    0.010359
  22 C :   -0.067720
  23 H :    0.058525
  24 H :    0.042851
  25 C :    0.011675
  26 H :    0.016067
  27 H :    0.025166
  28 C :   -0.057732
  29 H :    0.039343
  30 H :    0.031222
  31 H :    0.047681
  32 H :    0.060051
  33 H :    0.048575
Sum of atomic charges:   -0.0000000

LOEWDIN ATOMIC CHARGES
----------------------
   0 S :    0.416704
   1 C :   -0.198082
   2 C :   -0.071520
   3 C :   -0.070923
   4 C :   -0.170311
   5 H :    0.015356
   6 C :   -0.030882
   7 H :    0.034253
   8 H :    0.029121
   9 C :   -0.033020
  10 H :    0.015013
  11 H :    0.021428
  12 C :   -0.064588
  13 H :    0.030123
  14 H :    0.025993
  15 H :    0.023134
  16 S :    0.401915
  17 C :   -0.189187
  18 C :   -0.074657
  19 C :   -0.058818
  20 C :   -0.184867
  21 H :    0.028518
  22 C :   -0.049182
  23 H :    0.029316
  24 H :    0.039164
  25 C :   -0.028822
  26 H :    0.017030
  27 H :    0.007905
  28 C :   -0.064996
  29 H :    0.030278
  30 H :    0.027338
  31 H :    0.029000
  32 H :    0.035044
  33 H :    0.033223

  Mayer bond orders larger than 0.100000
B(  0-S ,  1-C ) :   1.1394 B(  0-S ,  4-C ) :   1.1342 B(  1-C ,  2-C ) :   1.5718
B(  1-C , 32-H ) :   0.9685 B(  2-C ,  3-C ) :   1.2785 B(  2-C ,  6-C ) :   1.0457
B(  3-C ,  4-C ) :   1.5269 B(  3-C ,  5-H ) :   0.9926 B(  4-C , 20-C ) :   1.1385
B(  6-C ,  7-H ) :   0.9360 B(  6-C ,  8-H ) :   0.9297 B(  6-C ,  9-C ) :   1.0693
B(  9-C , 10-H ) :   0.9558 B(  9-C , 11-H ) :   0.9488 B(  9-C , 12-C ) :   1.0760
B( 12-C , 13-H ) :   0.9775 B( 12-C , 14-H ) :   0.9735 B( 12-C , 15-H ) :   0.9738
B( 16-S , 17-C ) :   1.1292 B( 16-S , 20-C ) :   1.1398 B( 17-C , 18-C ) :   1.6422
B( 17-C , 33-H ) :   0.9650 B( 18-C , 19-C ) :   1.2441 B( 18-C , 21-H ) :   0.9847
B( 19-C , 20-C ) :   1.5274 B( 19-C , 22-C ) :   1.0163 B( 22-C , 23-H ) :   0.9354
B( 22-C , 24-H ) :   0.9411 B( 22-C , 25-C ) :   1.0325 B( 25-C , 26-H ) :   0.9519
B( 25-C , 27-H ) :   0.9530 B( 25-C , 28-C ) :   1.0768 B( 28-C , 29-H ) :   0.9743
B( 28-C , 30-H ) :   0.9759 B( 28-C , 31-H ) :   0.9739

Dispersion correction           -0.013733946
FINAL SINGLE POINT ENERGY     -1339.865084891765

DIPOLE MOMENT
-------------
                                X             Y             Z
Electronic contribution:      8.02571       5.69529      10.08494
Nuclear contribution   :     -8.01671      -5.68307     -10.11743
                        -----------------------------------------
Total Dipole Moment    :      0.00901       0.01222      -0.03249
                        -----------------------------------------
Magnitude (a.u.)       :      0.03586
Magnitude (Debye)      :      0.09115

Rotational constants in cm-1:     0.020646     0.008133     0.006030
Rotational constants in MHz :   618.964567   243.815588   180.760333

                             ****ORCA TERMINATED NORMALLY****
TOTAL RUN TIME: 0 days 0 hours 0 minutes 22 seconds 304 msec
