                         Program Version 4.2.1 -  RELEASE  -
|  1> ! wB97X-D3 SP def2-SVP
|  2> %pal
|  3> nprocs 24
|  4> end
|  5>
|  6> * xyz 0 1
|  7> S 	 -72.3769 	 7.71539 	 17.8275
|  8> C 	 -70.8454 	 8.01565 	 16.9182
|  9> C 	 -69.9086 	 7.02527 	 17.2336
| 10> C 	 -70.394 	 6.09561 	 18.1857
| 11> C 	 -71.7119 	 6.28145 	 18.5792
| 12> H 	 -69.8412 	 5.36984 	 18.6317
| 13> C 	 -68.5085 	 7.05809 	 16.7096
| 14> H 	 -68.5583 	 7.64435 	 15.7606
| 15> H 	 -68.0942 	 6.04971 	 16.476
| 16> C 	 -67.555 	 7.81491 	 17.6882
| 17> H 	 -67.9401 	 8.81748 	 17.7143
| 18> H 	 -67.6438 	 7.37128 	 18.6783
| 19> C 	 -66.1378 	 7.72513 	 17.07
| 20> H 	 -65.6727 	 6.78401 	 17.2529
| 21> H 	 -66.1016 	 8.08677 	 16.0343
| 22> H 	 -65.437 	 8.43615 	 17.5343
| 23> S 	 -74.1687 	 5.42537 	 19.4735
| 24> C 	 -74.2113 	 4.61264 	 21.0489
| 25> C 	 -72.9336 	 4.48949 	 21.5888
| 26> C 	 -71.9391 	 5.10405 	 20.8342
| 27> C 	 -72.4614 	 5.5977 	 19.6413
| 28> H 	 -72.8326 	 3.99273 	 22.546
| 29> C 	 -70.4359 	 5.17254 	 21.2688
| 30> H 	 -70.4188 	 5.32356 	 22.3582
| 31> H 	 -70.0166 	 6.10627 	 20.9313
| 32> C 	 -69.6018 	 3.94314 	 20.9483
| 33> H 	 -69.8546 	 3.43644 	 19.9602
| 34> H 	 -69.9178 	 3.18152 	 21.5794
| 35> C 	 -68.1807 	 4.15501 	 21.1925
| 36> H 	 -67.6911 	 4.87439 	 20.5301
| 37> H 	 -67.6758 	 3.17569 	 21.1924
| 38> H 	 -68.0318 	 4.5734 	 22.2092
| 39> H 	 -70.5628 	 8.83755 	 16.3669
| 40> H 	 -75.1173 	 4.32334 	 21.6037
| 41> *
| 42>
| 43>                          ****END OF INPUT****

CARTESIAN COORDINATES (ANGSTROEM)
---------------------------------
  S    -72.376900    7.715390   17.827500
  C    -70.845400    8.015650   16.918200
  C    -69.908600    7.025270   17.233600
  C    -70.394000    6.095610   18.185700
  C    -71.711900    6.281450   18.579200
  H    -69.841200    5.369840   18.631700
  C    -68.508500    7.058090   16.709600
  H    -68.558300    7.644350   15.760600
  H    -68.094200    6.049710   16.476000
  C    -67.555000    7.814910   17.688200
  H    -67.940100    8.817480   17.714300
  H    -67.643800    7.371280   18.678300
  C    -66.137800    7.725130   17.070000
  H    -65.672700    6.784010   17.252900
  H    -66.101600    8.086770   16.034300
  H    -65.437000    8.436150   17.534300
  S    -74.168700    5.425370   19.473500
  C    -74.211300    4.612640   21.048900
  C    -72.933600    4.489490   21.588800
  C    -71.939100    5.104050   20.834200
  C    -72.461400    5.597700   19.641300
  H    -72.832600    3.992730   22.546000
  C    -70.435900    5.172540   21.268800
  H    -70.418800    5.323560   22.358200
  H    -70.016600    6.106270   20.931300
  C    -69.601800    3.943140   20.948300
  H    -69.854600    3.436440   19.960200
  H    -69.917800    3.181520   21.579400
  C    -68.180700    4.155010   21.192500
  H    -67.691100    4.874390   20.530100
  H    -67.675800    3.175690   21.192400
  H    -68.031800    4.573400   22.209200
  H    -70.562800    8.837550   16.366900
  H    -75.117300    4.323340   21.603700

 Total Charge           Charge          ....    0
 Multiplicity           Mult            ....    1
 Number of Electrons    NEL             ....  134
 Basis Dimension        Dim             ....  322

ORBITAL ENERGIES
----------------

  NO   OCC          E(Eh)            E(eV)
   0   2.0000     -88.971308     -2421.0324
   1   2.0000     -88.965190     -2420.8659
   2   2.0000     -10.329245      -281.0731
   3   2.0000     -10.326533      -280.9992
   4   2.0000     -10.320117      -280.8247
   5   2.0000     -10.310845      -280.5724
   6   2.0000     -10.302888      -280.3558
   7   2.0000     -10.298432      -280.2346
   8   2.0000     -10.295838      -280.1640
   9   2.0000     -10.294862      -280.1374
  10   2.0000     -10.293569      -280.1022
  11   2.0000     -10.289871      -280.0016
  12   2.0000     -10.283921      -279.8397
  13   2.0000     -10.283456      -279.8271
  14   2.0000     -10.281181      -279.7651
  15   2.0000     -10.280284      -279.7407
  16   2.0000      -8.085879      -220.0279
  17   2.0000      -8.078909      -219.8383
  18   2.0000      -6.044264      -164.4728
  19   2.0000      -6.040476      -164.3697
  20   2.0000      -6.037546      -164.2900
  21   2.0000      -6.036714      -164.2673
  22   2.0000      -6.033515      -164.1803
  23   2.0000      -6.029637      -164.0748
  24   2.0000      -1.006712       -27.3940
  25   2.0000      -0.980220       -26.6731
  26   2.0000      -0.920178       -25.0393
  27   2.0000      -0.911662       -24.8076
  28   2.0000      -0.866894       -23.5894
  29   2.0000      -0.859272       -23.3820
  30   2.0000      -0.843006       -22.9394
  31   2.0000      -0.814525       -22.1644
  32   2.0000      -0.783566       -21.3219
  33   2.0000      -0.769150       -20.9296
  34   2.0000      -0.707872       -19.2622
  35   2.0000      -0.703326       -19.1385
  36   2.0000      -0.700209       -19.0536
  37   2.0000      -0.662925       -18.0391
  38   2.0000      -0.642467       -17.4824
  39   2.0000      -0.623511       -16.9666
  40   2.0000      -0.597399       -16.2561
  41   2.0000      -0.574215       -15.6252
  42   2.0000      -0.566492       -15.4150
  43   2.0000      -0.560819       -15.2607
  44   2.0000      -0.536463       -14.5979
  45   2.0000      -0.523178       -14.2364
  46   2.0000      -0.517659       -14.0862
  47   2.0000      -0.507161       -13.8006
  48   2.0000      -0.506397       -13.7798
  49   2.0000      -0.496094       -13.4994
  50   2.0000      -0.493426       -13.4268
  51   2.0000      -0.486275       -13.2322
  52   2.0000      -0.471239       -12.8231
  53   2.0000      -0.464686       -12.6447
  54   2.0000      -0.460403       -12.5282
  55   2.0000      -0.450496       -12.2586
  56   2.0000      -0.447610       -12.1801
  57   2.0000      -0.443824       -12.0771
  58   2.0000      -0.434459       -11.8222
  59   2.0000      -0.432379       -11.7656
  60   2.0000      -0.423398       -11.5212
  61   2.0000      -0.416220       -11.3259
  62   2.0000      -0.410888       -11.1808
  63   2.0000      -0.348503        -9.4832
  64   2.0000      -0.337967        -9.1965
  65   2.0000      -0.329071        -8.9545
  66   2.0000      -0.283795        -7.7224
  67   0.0000       0.023781         0.6471
  68   0.0000       0.075545         2.0557
  69   0.0000       0.100793         2.7427
  70   0.0000       0.120061         3.2670
  71   0.0000       0.127092         3.4584

MULLIKEN ATOMIC CHARGES
-----------------------
   0 S :    0.092145
   1 C :   -0.084520
   2 C :   -0.074466
   3 C :    0.067544
   4 C :   -0.108375
   5 H :   -0.068734
   6 C :    0.012800
   7 H :    0.027067
   8 H :    0.036498
   9 C :   -0.059018
  10 H :    0.022528
  11 H :    0.034372
  12 C :   -0.032679
  13 H :    0.034525
  14 H :    0.033872
  15 H :    0.023496
  16 S :    0.122544
  17 C :   -0.110293
  18 C :   -0.038123
  19 C :   -0.029494
  20 C :   -0.150341
  21 H :    0.016813
  22 C :    0.047783
  23 H :    0.019986
  24 H :    0.027184
  25 C :   -0.050626
  26 H :    0.042751
  27 H :    0.001285
  28 C :   -0.026944
  29 H :    0.031253
  30 H :    0.038859
  31 H :    0.023025
  32 H :    0.012682
  33 H :    0.064602
Sum of atomic charges:   -0.0000000

LOEWDIN ATOMIC CHARGES
----------------------
   0 S :    0.381912
   1 C :   -0.177783
   2 C :   -0.055186
   3 C :   -0.057833
   4 C :   -0.179565
   5 H :    0.011301
   6 C :   -0.035313
   7 H :    0.032479
   8 H :    0.031531
   9 C :   -0.030413
  10 H :    0.021786
  11 H :    0.022884
  12 C :   -0.068888
  13 H :    0.023266
  14 H :    0.029594
  15 H :    0.026479
  16 S :    0.414567
  17 C :   -0.188367
  18 C :   -0.068586
  19 C :   -0.056675
  20 C :   -0.204440
  21 H :    0.032981
  22 C :   -0.026772
  23 H :    0.032427
  24 H :    0.026249
  25 C :   -0.054039
  26 H :    0.031921
  27 H :    0.019033
  28 C :   -0.063743
  29 H :    0.022025
  30 H :    0.032433
  31 H :    0.029003
  32 H :    0.011299
  33 H :    0.034435

  Mayer bond orders larger than 0.100000
B(  0-S ,  1-C ) :   1.1198 B(  0-S ,  4-C ) :   1.1506 B(  1-C ,  2-C ) :   1.6033
B(  1-C ,  4-C ) :   0.1003 B(  1-C , 32-H ) :   0.9735 B(  2-C ,  3-C ) :   1.2403
B(  2-C ,  6-C ) :   1.0349 B(  3-C ,  4-C ) :   1.5553 B(  3-C ,  5-H ) :   1.0185
B(  4-C , 20-C ) :   1.0395 B(  6-C ,  7-H ) :   0.9394 B(  6-C ,  8-H ) :   0.9461
B(  6-C ,  9-C ) :   1.0506 B(  9-C , 10-H ) :   0.9546 B(  9-C , 11-H ) :   0.9602
B(  9-C , 12-C ) :   1.0798 B( 12-C , 13-H ) :   0.9755 B( 12-C , 14-H ) :   0.9713
B( 12-C , 15-H ) :   0.9722 B( 16-S , 17-C ) :   1.1463 B( 16-S , 20-C ) :   1.1583
B( 17-C , 18-C ) :   1.5967 B( 17-C , 20-C ) :   0.1053 B( 17-C , 33-H ) :   0.9652
B( 18-C , 19-C ) :   1.2728 B( 18-C , 21-H ) :   0.9891 B( 19-C , 20-C ) :   1.5663
B( 19-C , 22-C ) :   1.0291 B( 22-C , 23-H ) :   0.9269 B( 22-C , 24-H ) :   0.9414
B( 22-C , 25-C ) :   1.0567 B( 25-C , 26-H ) :   0.9488 B( 25-C , 27-H ) :   0.9365
B( 25-C , 28-C ) :   1.0970 B( 28-C , 29-H ) :   0.9740 B( 28-C , 30-H ) :   0.9680
B( 28-C , 31-H ) :   0.9631

Dispersion correction           -0.014709557
FINAL SINGLE POINT ENERGY     -1339.877780171052

DIPOLE MOMENT
-------------
                                X             Y             Z
Electronic contribution:    -33.63218       3.00423      -3.39504
Nuclear contribution   :     34.37028      -3.16309       3.84488
                        -----------------------------------------
Total Dipole Moment    :      0.73810      -0.15887       0.44984
                        -----------------------------------------
Magnitude (a.u.)       :      0.87885
Magnitude (Debye)      :      2.23387

Rotational constants in cm-1:     0.019007     0.009479     0.006581
Rotational constants in MHz :   569.808552   284.159078   197.292333

                             ****ORCA TERMINATED NORMALLY****
TOTAL RUN TIME: 0 days 0 hours 0 minutes 22 seconds 241 msec
