                         Program Version 4.2.1 -  RELEASE  -
|  1> ! wB97X-D3 SP def2-SVP
|  2> %pal
|  3> nprocs 24
|  4> end
|  5>
|  6> * xyz 0 1
|  7> S 	 -123.302 	 23.8201 	 -17.9522
|  8> C 	 -121.911 	 23.3364 	 -18.9217
|  9> C 	 -120.953 	 22.8124 	 -18.0323
| 10> C 	 -121.508 	 22.5682 	 -16.7311
| 11> C 	 -122.72 	 23.1286 	 -16.5004
| 12> H 	 -121.015 	 21.9573 	 -15.9832
| 13> C 	 -119.514 	 22.5508 	 -18.4443
| 14> H 	 -118.84 	 23.0343 	 -17.7411
| 15> H 	 -119.422 	 22.939 	 -19.4441
| 16> C 	 -119.096 	 21.052 	 -18.4926
| 17> H 	 -118.084 	 20.927 	 -18.2508
| 18> H 	 -119.634 	 20.4767 	 -17.7097
| 19> C 	 -119.495 	 20.4961 	 -19.9029
| 20> H 	 -120.544 	 20.518 	 -20.1723
| 21> H 	 -118.916 	 20.9231 	 -20.7132
| 22> H 	 -119.146 	 19.4165 	 -19.9338
| 23> S 	 -125.193 	 22.5576 	 -15.5201
| 24> C 	 -125.592 	 22.9649 	 -13.8998
| 25> C 	 -124.486 	 23.1934 	 -13.1542
| 26> C 	 -123.297 	 23.1628 	 -13.9253
| 27> C 	 -123.54 	 23.0843 	 -15.2992
| 28> H 	 -124.571 	 23.3505 	 -12.1355
| 29> C 	 -122.024 	 23.4966 	 -13.1859
| 30> H 	 -121.298 	 23.5694 	 -13.9718
| 31> H 	 -121.874 	 22.6414 	 -12.5091
| 32> C 	 -122.047 	 24.7385 	 -12.2518
| 33> H 	 -121.079 	 24.6481 	 -11.658
| 34> H 	 -122.857 	 24.7395 	 -11.5225
| 35> C 	 -122.171 	 26.034 	 -13.1108
| 36> H 	 -121.43 	 25.9511 	 -13.9165
| 37> H 	 -121.94 	 26.9277 	 -12.6217
| 38> H 	 -123.206 	 26.2259 	 -13.4666
| 39> H 	 -121.644 	 23.7143 	 -19.8962
| 40> H 	 -126.675 	 22.8857 	 -13.5597
| 41> *
| 42>
| 43>                          ****END OF INPUT****

CARTESIAN COORDINATES (ANGSTROEM)
---------------------------------
  S    -123.302000   23.820100  -17.952200
  C    -121.911000   23.336400  -18.921700
  C    -120.953000   22.812400  -18.032300
  C    -121.508000   22.568200  -16.731100
  C    -122.720000   23.128600  -16.500400
  H    -121.015000   21.957300  -15.983200
  C    -119.514000   22.550800  -18.444300
  H    -118.840000   23.034300  -17.741100
  H    -119.422000   22.939000  -19.444100
  C    -119.096000   21.052000  -18.492600
  H    -118.084000   20.927000  -18.250800
  H    -119.634000   20.476700  -17.709700
  C    -119.495000   20.496100  -19.902900
  H    -120.544000   20.518000  -20.172300
  H    -118.916000   20.923100  -20.713200
  H    -119.146000   19.416500  -19.933800
  S    -125.193000   22.557600  -15.520100
  C    -125.592000   22.964900  -13.899800
  C    -124.486000   23.193400  -13.154200
  C    -123.297000   23.162800  -13.925300
  C    -123.540000   23.084300  -15.299200
  H    -124.571000   23.350500  -12.135500
  C    -122.024000   23.496600  -13.185900
  H    -121.298000   23.569400  -13.971800
  H    -121.874000   22.641400  -12.509100
  C    -122.047000   24.738500  -12.251800
  H    -121.079000   24.648100  -11.658000
  H    -122.857000   24.739500  -11.522500
  C    -122.171000   26.034000  -13.110800
  H    -121.430000   25.951100  -13.916500
  H    -121.940000   26.927700  -12.621700
  H    -123.206000   26.225900  -13.466600
  H    -121.644000   23.714300  -19.896200
  H    -126.675000   22.885700  -13.559700

 Total Charge           Charge          ....    0
 Multiplicity           Mult            ....    1
 Number of Electrons    NEL             ....  134
 Basis Dimension        Dim             ....  322

ORBITAL ENERGIES
----------------

  NO   OCC          E(Eh)            E(eV)
   0   2.0000     -88.962741     -2420.7993
   1   2.0000     -88.959179     -2420.7023
   2   2.0000     -10.326998      -281.0119
   3   2.0000     -10.326839      -281.0076
   4   2.0000     -10.316315      -280.7212
   5   2.0000     -10.315351      -280.6950
   6   2.0000     -10.304294      -280.3941
   7   2.0000     -10.302164      -280.3361
   8   2.0000     -10.296360      -280.1782
   9   2.0000     -10.290999      -280.0323
  10   2.0000     -10.290962      -280.0313
  11   2.0000     -10.290235      -280.0115
  12   2.0000     -10.288620      -279.9676
  13   2.0000     -10.283327      -279.8236
  14   2.0000     -10.280764      -279.7538
  15   2.0000     -10.273492      -279.5559
  16   2.0000      -8.078012      -219.8139
  17   2.0000      -8.075097      -219.7346
  18   2.0000      -6.036585      -164.2638
  19   2.0000      -6.033526      -164.1806
  20   2.0000      -6.032313      -164.1476
  21   2.0000      -6.029489      -164.0707
  22   2.0000      -6.028750      -164.0506
  23   2.0000      -6.025807      -163.9706
  24   2.0000      -1.013224       -27.5712
  25   2.0000      -0.990021       -26.9398
  26   2.0000      -0.910955       -24.7884
  27   2.0000      -0.907565       -24.6961
  28   2.0000      -0.869916       -23.6716
  29   2.0000      -0.846753       -23.0413
  30   2.0000      -0.839370       -22.8404
  31   2.0000      -0.816728       -22.2243
  32   2.0000      -0.781421       -21.2635
  33   2.0000      -0.772026       -21.0079
  34   2.0000      -0.714698       -19.4479
  35   2.0000      -0.700848       -19.0710
  36   2.0000      -0.692246       -18.8370
  37   2.0000      -0.659120       -17.9356
  38   2.0000      -0.640351       -17.4248
  39   2.0000      -0.622392       -16.9361
  40   2.0000      -0.596833       -16.2406
  41   2.0000      -0.572260       -15.5720
  42   2.0000      -0.556750       -15.1499
  43   2.0000      -0.555053       -15.1038
  44   2.0000      -0.536968       -14.6116
  45   2.0000      -0.531036       -14.4502
  46   2.0000      -0.522851       -14.2275
  47   2.0000      -0.509687       -13.8693
  48   2.0000      -0.503804       -13.7092
  49   2.0000      -0.500066       -13.6075
  50   2.0000      -0.486941       -13.2503
  51   2.0000      -0.478011       -13.0073
  52   2.0000      -0.472201       -12.8493
  53   2.0000      -0.459052       -12.4914
  54   2.0000      -0.457869       -12.4592
  55   2.0000      -0.450308       -12.2535
  56   2.0000      -0.444369       -12.0919
  57   2.0000      -0.433459       -11.7950
  58   2.0000      -0.432535       -11.7699
  59   2.0000      -0.430258       -11.7079
  60   2.0000      -0.419518       -11.4157
  61   2.0000      -0.414118       -11.2687
  62   2.0000      -0.410550       -11.1716
  63   2.0000      -0.351172        -9.5559
  64   2.0000      -0.328316        -8.9339
  65   2.0000      -0.322260        -8.7691
  66   2.0000      -0.293315        -7.9815
  67   0.0000       0.028315         0.7705
  68   0.0000       0.076445         2.0802
  69   0.0000       0.109652         2.9838
  70   0.0000       0.117689         3.2025
  71   0.0000       0.142574         3.8796

MULLIKEN ATOMIC CHARGES
-----------------------
   0 S :    0.104287
   1 C :   -0.105207
   2 C :   -0.138903
   3 C :    0.023128
   4 C :   -0.131604
   5 H :    0.013261
   6 C :    0.085050
   7 H :    0.034437
   8 H :    0.009837
   9 C :   -0.049884
  10 H :    0.017708
  11 H :    0.034412
  12 C :   -0.089780
  13 H :    0.050343
  14 H :    0.029439
  15 H :    0.033581
  16 S :    0.098206
  17 C :   -0.099303
  18 C :   -0.020192
  19 C :   -0.029937
  20 C :   -0.154978
  21 H :   -0.009524
  22 C :    0.074295
  23 H :    0.013981
  24 H :    0.036908
  25 C :   -0.094187
  26 H :    0.042191
  27 H :    0.030574
  28 C :   -0.035014
  29 H :    0.030344
  30 H :    0.015930
  31 H :    0.047555
  32 H :    0.053813
  33 H :    0.079233
Sum of atomic charges:   -0.0000000

LOEWDIN ATOMIC CHARGES
----------------------
   0 S :    0.418070
   1 C :   -0.203862
   2 C :   -0.054980
   3 C :   -0.073998
   4 C :   -0.204944
   5 H :    0.029126
   6 C :   -0.027244
   7 H :    0.031982
   8 H :    0.025995
   9 C :   -0.033527
  10 H :    0.015931
  11 H :    0.027674
  12 C :   -0.071933
  13 H :    0.027201
  14 H :    0.021135
  15 H :    0.031283
  16 S :    0.412321
  17 C :   -0.190493
  18 C :   -0.070988
  19 C :   -0.053088
  20 C :   -0.201128
  21 H :    0.020381
  22 C :   -0.031168
  23 H :    0.023541
  24 H :    0.038052
  25 C :   -0.039652
  26 H :    0.032708
  27 H :    0.019278
  28 C :   -0.065230
  29 H :    0.027546
  30 H :    0.015341
  31 H :    0.034871
  32 H :    0.028372
  33 H :    0.041426

  Mayer bond orders larger than 0.100000
B(  0-S ,  1-C ) :   1.1312 B(  0-S ,  4-C ) :   1.1663 B(  1-C ,  2-C ) :   1.5999
B(  1-C , 32-H ) :   0.9644 B(  2-C ,  3-C ) :   1.2352 B(  2-C ,  6-C ) :   1.0393
B(  3-C ,  4-C ) :   1.5795 B(  3-C ,  5-H ) :   0.9896 B(  4-C , 20-C ) :   1.0284
B(  6-C ,  7-H ) :   0.9386 B(  6-C ,  8-H ) :   0.9420 B(  6-C ,  9-C ) :   1.0586
B(  9-C , 10-H ) :   0.9573 B(  9-C , 11-H ) :   0.9620 B(  9-C , 12-C ) :   1.0695
B( 12-C , 13-H ) :   0.9797 B( 12-C , 14-H ) :   0.9760 B( 12-C , 15-H ) :   0.9740
B( 16-S , 17-C ) :   1.1613 B( 16-S , 20-C ) :   1.1528 B( 17-C , 18-C ) :   1.5962
B( 17-C , 33-H ) :   0.9593 B( 18-C , 19-C ) :   1.2245 B( 18-C , 21-H ) :   1.0107
B( 19-C , 20-C ) :   1.5720 B( 19-C , 22-C ) :   1.0469 B( 22-C , 23-H ) :   0.9405
B( 22-C , 24-H ) :   0.9222 B( 22-C , 25-C ) :   1.0793 B( 25-C , 26-H ) :   0.9551
B( 25-C , 27-H ) :   0.9532 B( 25-C , 28-C ) :   1.0634 B( 28-C , 29-H ) :   0.9785
B( 28-C , 30-H ) :   0.9752 B( 28-C , 31-H ) :   0.9734

Dispersion correction           -0.014245996
FINAL SINGLE POINT ENERGY     -1339.869550740376

DIPOLE MOMENT
-------------
                                X             Y             Z
Electronic contribution:    -21.56921       0.57750      -3.48701
Nuclear contribution   :     22.13448      -0.58842       3.91337
                        -----------------------------------------
Total Dipole Moment    :      0.56527      -0.01092       0.42636
                        -----------------------------------------
Magnitude (a.u.)       :      0.70812
Magnitude (Debye)      :      1.79989

Rotational constants in cm-1:     0.021589     0.007797     0.006764
Rotational constants in MHz :   647.229768   233.760023   202.767761

                             ****ORCA TERMINATED NORMALLY****
TOTAL RUN TIME: 0 days 0 hours 0 minutes 21 seconds 560 msec
