                         Program Version 4.2.1 -  RELEASE  -
|  1> ! wB97X-D3 SP def2-SVP
|  2> %pal
|  3> nprocs 24
|  4> end
|  5>
|  6> * xyz 0 1
|  7> S 	 -112.014 	 15.9537 	 -114.13
|  8> C 	 -111.152 	 16.4399 	 -115.609
|  9> C 	 -111.836 	 15.8974 	 -116.696
| 10> C 	 -113.177 	 15.4664 	 -116.367
| 11> C 	 -113.473 	 15.4926 	 -115.002
| 12> H 	 -113.897 	 15.1159 	 -117.037
| 13> C 	 -111.319 	 15.8048 	 -118.077
| 14> H 	 -112.052 	 15.311 	 -118.685
| 15> H 	 -110.492 	 15.0201 	 -118.076
| 16> C 	 -110.854 	 17.0742 	 -118.867
| 17> H 	 -111.54 	 17.9298 	 -118.797
| 18> H 	 -109.9 	 17.3658 	 -118.451
| 19> C 	 -110.649 	 16.7464 	 -120.384
| 20> H 	 -109.653 	 16.2519 	 -120.44
| 21> H 	 -111.483 	 16.1267 	 -120.79
| 22> H 	 -110.614 	 17.6847 	 -121.053
| 23> S 	 -114.864 	 13.5003 	 -113.656
| 24> C 	 -116.539 	 13.7044 	 -113.264
| 25> C 	 -116.971 	 14.8721 	 -113.874
| 26> C 	 -115.988 	 15.6684 	 -114.541
| 27> C 	 -114.765 	 15.0755 	 -114.432
| 28> H 	 -117.936 	 15.2598 	 -113.587
| 29> C 	 -116.212 	 17.0001 	 -115.296
| 30> H 	 -115.23 	 17.5008 	 -115.683
| 31> H 	 -116.595 	 17.8161 	 -114.613
| 32> C 	 -117.237 	 16.9647 	 -116.395
| 33> H 	 -117.427 	 17.9451 	 -116.886
| 34> H 	 -118.233 	 16.7433 	 -116.03
| 35> C 	 -116.917 	 16.092 	 -117.669
| 36> H 	 -116.08 	 16.358 	 -118.308
| 37> H 	 -117.741 	 16.1619 	 -118.295
| 38> H 	 -116.694 	 15.0274 	 -117.439
| 39> H 	 -110.127 	 16.7463 	 -115.623
| 40> H 	 -117.157 	 13.1174 	 -112.508
| 41> *
| 42>
| 43>                          ****END OF INPUT****

CARTESIAN COORDINATES (ANGSTROEM)
---------------------------------
  S    -112.014000   15.953700  -114.130000
  C    -111.152000   16.439900  -115.609000
  C    -111.836000   15.897400  -116.696000
  C    -113.177000   15.466400  -116.367000
  C    -113.473000   15.492600  -115.002000
  H    -113.897000   15.115900  -117.037000
  C    -111.319000   15.804800  -118.077000
  H    -112.052000   15.311000  -118.685000
  H    -110.492000   15.020100  -118.076000
  C    -110.854000   17.074200  -118.867000
  H    -111.540000   17.929800  -118.797000
  H    -109.900000   17.365800  -118.451000
  C    -110.649000   16.746400  -120.384000
  H    -109.653000   16.251900  -120.440000
  H    -111.483000   16.126700  -120.790000
  H    -110.614000   17.684700  -121.053000
  S    -114.864000   13.500300  -113.656000
  C    -116.539000   13.704400  -113.264000
  C    -116.971000   14.872100  -113.874000
  C    -115.988000   15.668400  -114.541000
  C    -114.765000   15.075500  -114.432000
  H    -117.936000   15.259800  -113.587000
  C    -116.212000   17.000100  -115.296000
  H    -115.230000   17.500800  -115.683000
  H    -116.595000   17.816100  -114.613000
  C    -117.237000   16.964700  -116.395000
  H    -117.427000   17.945100  -116.886000
  H    -118.233000   16.743300  -116.030000
  C    -116.917000   16.092000  -117.669000
  H    -116.080000   16.358000  -118.308000
  H    -117.741000   16.161900  -118.295000
  H    -116.694000   15.027400  -117.439000
  H    -110.127000   16.746300  -115.623000
  H    -117.157000   13.117400  -112.508000

 Total Charge           Charge          ....    0
 Multiplicity           Mult            ....    1
 Number of Electrons    NEL             ....  134
 Basis Dimension        Dim             ....  322

ORBITAL ENERGIES
----------------

  NO   OCC          E(Eh)            E(eV)
   0   2.0000     -88.965967     -2420.8870
   1   2.0000     -88.964185     -2420.8385
   2   2.0000     -10.331504      -281.1345
   3   2.0000     -10.327053      -281.0134
   4   2.0000     -10.323581      -280.9189
   5   2.0000     -10.316522      -280.7268
   6   2.0000     -10.306742      -280.4607
   7   2.0000     -10.304358      -280.3958
   8   2.0000     -10.304228      -280.3923
   9   2.0000     -10.294718      -280.1335
  10   2.0000     -10.294372      -280.1241
  11   2.0000     -10.293416      -280.0981
  12   2.0000     -10.292937      -280.0851
  13   2.0000     -10.292933      -280.0849
  14   2.0000     -10.290399      -280.0160
  15   2.0000     -10.272315      -279.5239
  16   2.0000      -8.079800      -219.8625
  17   2.0000      -8.079244      -219.8474
  18   2.0000      -6.038429      -164.3140
  19   2.0000      -6.037830      -164.2977
  20   2.0000      -6.034419      -164.2049
  21   2.0000      -6.033618      -164.1831
  22   2.0000      -6.030490      -164.0980
  23   2.0000      -6.029965      -164.0837
  24   2.0000      -1.005674       -27.3658
  25   2.0000      -0.982571       -26.7371
  26   2.0000      -0.907475       -24.6936
  27   2.0000      -0.903886       -24.5960
  28   2.0000      -0.867192       -23.5975
  29   2.0000      -0.847120       -23.0513
  30   2.0000      -0.843751       -22.9596
  31   2.0000      -0.811873       -22.0922
  32   2.0000      -0.784612       -21.3504
  33   2.0000      -0.769214       -20.9314
  34   2.0000      -0.706499       -19.2248
  35   2.0000      -0.700466       -19.0607
  36   2.0000      -0.692262       -18.8374
  37   2.0000      -0.654042       -17.7974
  38   2.0000      -0.645340       -17.5606
  39   2.0000      -0.612837       -16.6761
  40   2.0000      -0.594114       -16.1667
  41   2.0000      -0.569821       -15.5056
  42   2.0000      -0.562452       -15.3051
  43   2.0000      -0.550108       -14.9692
  44   2.0000      -0.536150       -14.5894
  45   2.0000      -0.519023       -14.1233
  46   2.0000      -0.518084       -14.0978
  47   2.0000      -0.515324       -14.0227
  48   2.0000      -0.500912       -13.6305
  49   2.0000      -0.495763       -13.4904
  50   2.0000      -0.492322       -13.3968
  51   2.0000      -0.475516       -12.9394
  52   2.0000      -0.470125       -12.7927
  53   2.0000      -0.466915       -12.7054
  54   2.0000      -0.460806       -12.5392
  55   2.0000      -0.448766       -12.2116
  56   2.0000      -0.441535       -12.0148
  57   2.0000      -0.433339       -11.7917
  58   2.0000      -0.426363       -11.6019
  59   2.0000      -0.420841       -11.4517
  60   2.0000      -0.420205       -11.4343
  61   2.0000      -0.418213       -11.3802
  62   2.0000      -0.405608       -11.0372
  63   2.0000      -0.334824        -9.1110
  64   2.0000      -0.330834        -9.0024
  65   2.0000      -0.324039        -8.8175
  66   2.0000      -0.306269        -8.3340
  67   0.0000       0.032403         0.8817
  68   0.0000       0.058451         1.5905
  69   0.0000       0.107470         2.9244
  70   0.0000       0.120069         3.2672
  71   0.0000       0.132489         3.6052

MULLIKEN ATOMIC CHARGES
-----------------------
   0 S :    0.105998
   1 C :   -0.112217
   2 C :   -0.076275
   3 C :    0.064840
   4 C :   -0.163607
   5 H :   -0.013684
   6 C :    0.036400
   7 H :    0.000746
   8 H :    0.044586
   9 C :   -0.051858
  10 H :    0.039388
  11 H :    0.027521
  12 C :   -0.110532
  13 H :    0.044945
  14 H :    0.045425
  15 H :    0.049945
  16 S :    0.110367
  17 C :   -0.120733
  18 C :   -0.039985
  19 C :    0.017435
  20 C :   -0.188330
  21 H :    0.016594
  22 C :    0.036443
  23 H :    0.058585
  24 H :    0.041115
  25 C :   -0.083646
  26 H :    0.028681
  27 H :    0.025380
  28 C :   -0.056043
  29 H :    0.024462
  30 H :    0.016708
  31 H :    0.040081
  32 H :    0.050973
  33 H :    0.090293
Sum of atomic charges:   -0.0000000

LOEWDIN ATOMIC CHARGES
----------------------
   0 S :    0.394924
   1 C :   -0.187280
   2 C :   -0.061895
   3 C :   -0.049097
   4 C :   -0.195146
   5 H :    0.021182
   6 C :   -0.042877
   7 H :    0.022658
   8 H :    0.042934
   9 C :   -0.036962
  10 H :    0.025584
  11 H :    0.020157
  12 C :   -0.077171
  13 H :    0.029605
  14 H :    0.026860
  15 H :    0.035151
  16 S :    0.407495
  17 C :   -0.203706
  18 C :   -0.075172
  19 C :   -0.056495
  20 C :   -0.192820
  21 H :    0.026756
  22 C :   -0.042317
  23 H :    0.047077
  24 H :    0.040164
  25 C :   -0.045445
  26 H :    0.031512
  27 H :    0.021815
  28 C :   -0.070359
  29 H :    0.022294
  30 H :    0.017110
  31 H :    0.025479
  32 H :    0.026090
  33 H :    0.051896

  Mayer bond orders larger than 0.100000
B(  0-S ,  1-C ) :   1.1360 B(  0-S ,  4-C ) :   1.1520 B(  1-C ,  2-C ) :   1.5853
B(  1-C ,  4-C ) :   0.1009 B(  1-C , 32-H ) :   0.9751 B(  2-C ,  3-C ) :   1.2422
B(  2-C ,  6-C ) :   1.0434 B(  3-C ,  4-C ) :   1.5593 B(  3-C ,  5-H ) :   1.0015
B(  4-C , 20-C ) :   1.0177 B(  6-C ,  7-H ) :   0.9427 B(  6-C ,  8-H ) :   0.9277
B(  6-C ,  9-C ) :   1.0501 B(  9-C , 10-H ) :   0.9641 B(  9-C , 11-H ) :   0.9567
B(  9-C , 12-C ) :   1.0695 B( 12-C , 13-H ) :   0.9788 B( 12-C , 14-H ) :   0.9765
B( 12-C , 15-H ) :   0.9766 B( 16-S , 17-C ) :   1.1492 B( 16-S , 20-C ) :   1.1525
B( 17-C , 18-C ) :   1.6209 B( 17-C , 33-H ) :   0.9580 B( 18-C , 19-C ) :   1.2298
B( 18-C , 21-H ) :   0.9813 B( 19-C , 20-C ) :   1.6204 B( 19-C , 22-C ) :   1.0281
B( 22-C , 23-H ) :   0.9395 B( 22-C , 24-H ) :   0.9332 B( 22-C , 25-C ) :   1.0785
B( 25-C , 26-H ) :   0.9538 B( 25-C , 27-H ) :   0.9555 B( 25-C , 28-C ) :   1.0670
B( 28-C , 29-H ) :   0.9751 B( 28-C , 30-H ) :   0.9726 B( 28-C , 31-H ) :   0.9757

Dispersion correction           -0.014599365
FINAL SINGLE POINT ENERGY     -1339.865211641708

DIPOLE MOMENT
-------------
                                X             Y             Z
Electronic contribution:      2.13109     -11.45182      27.83149
Nuclear contribution   :     -2.31163      11.70412     -28.35763
                        -----------------------------------------
Total Dipole Moment    :     -0.18054       0.25229      -0.52615
                        -----------------------------------------
Magnitude (a.u.)       :      0.61080
Magnitude (Debye)      :      1.55253

Rotational constants in cm-1:     0.019525     0.008273     0.006577
Rotational constants in MHz :   585.335683   248.007571   197.183299

                             ****ORCA TERMINATED NORMALLY****
TOTAL RUN TIME: 0 days 0 hours 0 minutes 20 seconds 372 msec
