                         Program Version 4.2.1 -  RELEASE  -
|  1> ! wB97X-D3 SP def2-SVP
|  2> %pal
|  3> nprocs 24
|  4> end
|  5>
|  6> * xyz 0 1
|  7> S 	 -41.9408 	 17.575 	 26.3682
|  8> C 	 -42.188 	 18.4132 	 27.8989
|  9> C 	 -41.2549 	 18.1233 	 28.8725
| 10> C 	 -40.2127 	 17.2736 	 28.342
| 11> C 	 -40.4268 	 16.8988 	 27.0177
| 12> H 	 -39.2915 	 16.971 	 28.8117
| 13> C 	 -41.3249 	 18.6511 	 30.2177
| 14> H 	 -41.3769 	 19.74 	 30.0524
| 15> H 	 -40.3717 	 18.3776 	 30.7118
| 16> C 	 -42.4503 	 18.2253 	 31.1657
| 17> H 	 -43.4076 	 18.6178 	 30.9148
| 18> H 	 -42.6211 	 17.1724 	 31.0814
| 19> C 	 -42.0638 	 18.5302 	 32.6649
| 20> H 	 -42.9746 	 18.3687 	 33.2444
| 21> H 	 -41.1174 	 18.0502 	 32.9751
| 22> H 	 -41.7812 	 19.5344 	 32.8213
| 23> S 	 -40.3359 	 14.5679 	 25.4817
| 24> C 	 -38.8001 	 14.2768 	 24.7773
| 25> C 	 -37.7431 	 14.9631 	 25.3164
| 26> C 	 -38.2384 	 16.0128 	 26.1459
| 27> C 	 -39.61 	 15.9773 	 26.2624
| 28> H 	 -36.6936 	 14.9003 	 25.1115
| 29> C 	 -37.2121 	 16.9264 	 26.8754
| 30> H 	 -36.6054 	 16.279 	 27.5082
| 31> H 	 -37.8841 	 17.5701 	 27.4367
| 32> C 	 -36.3436 	 17.7879 	 25.9341
| 33> H 	 -37.0435 	 18.4426 	 25.3466
| 34> H 	 -35.9055 	 17.2156 	 25.113
| 35> C 	 -35.3599 	 18.6947 	 26.6654
| 36> H 	 -34.7053 	 19.1829 	 25.979
| 37> H 	 -34.7422 	 18.0756 	 27.2213
| 38> H 	 -35.8092 	 19.4584 	 27.2496
| 39> H 	 -43.0342 	 19.0387 	 28.1366
| 40> H 	 -38.5165 	 13.4228 	 24.2173
| 41> *
| 42>
| 43>                          ****END OF INPUT****

CARTESIAN COORDINATES (ANGSTROEM)
---------------------------------
  S    -41.940800   17.575000   26.368200
  C    -42.188000   18.413200   27.898900
  C    -41.254900   18.123300   28.872500
  C    -40.212700   17.273600   28.342000
  C    -40.426800   16.898800   27.017700
  H    -39.291500   16.971000   28.811700
  C    -41.324900   18.651100   30.217700
  H    -41.376900   19.740000   30.052400
  H    -40.371700   18.377600   30.711800
  C    -42.450300   18.225300   31.165700
  H    -43.407600   18.617800   30.914800
  H    -42.621100   17.172400   31.081400
  C    -42.063800   18.530200   32.664900
  H    -42.974600   18.368700   33.244400
  H    -41.117400   18.050200   32.975100
  H    -41.781200   19.534400   32.821300
  S    -40.335900   14.567900   25.481700
  C    -38.800100   14.276800   24.777300
  C    -37.743100   14.963100   25.316400
  C    -38.238400   16.012800   26.145900
  C    -39.610000   15.977300   26.262400
  H    -36.693600   14.900300   25.111500
  C    -37.212100   16.926400   26.875400
  H    -36.605400   16.279000   27.508200
  H    -37.884100   17.570100   27.436700
  C    -36.343600   17.787900   25.934100
  H    -37.043500   18.442600   25.346600
  H    -35.905500   17.215600   25.113000
  C    -35.359900   18.694700   26.665400
  H    -34.705300   19.182900   25.979000
  H    -34.742200   18.075600   27.221300
  H    -35.809200   19.458400   27.249600
  H    -43.034200   19.038700   28.136600
  H    -38.516500   13.422800   24.217300

 Total Charge           Charge          ....    0
 Multiplicity           Mult            ....    1
 Number of Electrons    NEL             ....  134
 Basis Dimension        Dim             ....  322

ORBITAL ENERGIES
----------------

  NO   OCC          E(Eh)            E(eV)
   0   2.0000     -88.969743     -2420.9898
   1   2.0000     -88.966956     -2420.9140
   2   2.0000     -10.327837      -281.0347
   3   2.0000     -10.321562      -280.8640
   4   2.0000     -10.309142      -280.5260
   5   2.0000     -10.308963      -280.5211
   6   2.0000     -10.297117      -280.1988
   7   2.0000     -10.296658      -280.1863
   8   2.0000     -10.294709      -280.1333
   9   2.0000     -10.293865      -280.1103
  10   2.0000     -10.289785      -279.9993
  11   2.0000     -10.288297      -279.9588
  12   2.0000     -10.287129      -279.9270
  13   2.0000     -10.285699      -279.8881
  14   2.0000     -10.280209      -279.7387
  15   2.0000     -10.267549      -279.3942
  16   2.0000      -8.084748      -219.9972
  17   2.0000      -8.080827      -219.8905
  18   2.0000      -6.043152      -164.4425
  19   2.0000      -6.039560      -164.3448
  20   2.0000      -6.039351      -164.3391
  21   2.0000      -6.035545      -164.2355
  22   2.0000      -6.035253      -164.2276
  23   2.0000      -6.031543      -164.1266
  24   2.0000      -1.006238       -27.3811
  25   2.0000      -0.982165       -26.7261
  26   2.0000      -0.914694       -24.8901
  27   2.0000      -0.907644       -24.6982
  28   2.0000      -0.868225       -23.6256
  29   2.0000      -0.856825       -23.3154
  30   2.0000      -0.847612       -23.0647
  31   2.0000      -0.812462       -22.1082
  32   2.0000      -0.786632       -21.4053
  33   2.0000      -0.768905       -20.9230
  34   2.0000      -0.714478       -19.4419
  35   2.0000      -0.705382       -19.1944
  36   2.0000      -0.696359       -18.9489
  37   2.0000      -0.663563       -18.0565
  38   2.0000      -0.638696       -17.3798
  39   2.0000      -0.613294       -16.6886
  40   2.0000      -0.593104       -16.1392
  41   2.0000      -0.574973       -15.6458
  42   2.0000      -0.567030       -15.4297
  43   2.0000      -0.555495       -15.1158
  44   2.0000      -0.526857       -14.3365
  45   2.0000      -0.522753       -14.2248
  46   2.0000      -0.519477       -14.1357
  47   2.0000      -0.516787       -14.0625
  48   2.0000      -0.501540       -13.6476
  49   2.0000      -0.494581       -13.4582
  50   2.0000      -0.489227       -13.3125
  51   2.0000      -0.484694       -13.1892
  52   2.0000      -0.477121       -12.9831
  53   2.0000      -0.465352       -12.6629
  54   2.0000      -0.459453       -12.5023
  55   2.0000      -0.455831       -12.4038
  56   2.0000      -0.445479       -12.1221
  57   2.0000      -0.439459       -11.9583
  58   2.0000      -0.433950       -11.8084
  59   2.0000      -0.424333       -11.5467
  60   2.0000      -0.420848       -11.4519
  61   2.0000      -0.417740       -11.3673
  62   2.0000      -0.414067       -11.2673
  63   2.0000      -0.346051        -9.4165
  64   2.0000      -0.334484        -9.1018
  65   2.0000      -0.327344        -8.9075
  66   2.0000      -0.285937        -7.7808
  67   0.0000       0.030483         0.8295
  68   0.0000       0.069955         1.9036
  69   0.0000       0.102598         2.7918
  70   0.0000       0.115433         3.1411
  71   0.0000       0.132373         3.6021

MULLIKEN ATOMIC CHARGES
-----------------------
   0 S :    0.112262
   1 C :   -0.117136
   2 C :   -0.080924
   3 C :    0.035363
   4 C :   -0.182511
   5 H :    0.014015
   6 C :    0.047611
   7 H :    0.045046
   8 H :    0.014301
   9 C :   -0.040379
  10 H :    0.015257
  11 H :    0.025496
  12 C :   -0.045461
  13 H :    0.043156
  14 H :    0.035459
  15 H :    0.011184
  16 S :    0.132096
  17 C :   -0.049305
  18 C :   -0.036047
  19 C :   -0.069630
  20 C :   -0.166430
  21 H :    0.013171
  22 C :    0.088448
  23 H :    0.037357
  24 H :    0.017784
  25 C :   -0.116154
  26 H :    0.028853
  27 H :    0.024377
  28 C :    0.031696
  29 H :    0.019709
  30 H :    0.006191
  31 H :    0.029882
  32 H :    0.036658
  33 H :    0.038606
Sum of atomic charges:    0.0000000

LOEWDIN ATOMIC CHARGES
----------------------
   0 S :    0.386717
   1 C :   -0.194188
   2 C :   -0.065729
   3 C :   -0.059688
   4 C :   -0.182135
   5 H :    0.029175
   6 C :   -0.041969
   7 H :    0.041884
   8 H :    0.032687
   9 C :   -0.031124
  10 H :    0.017436
  11 H :    0.023160
  12 C :   -0.064206
  13 H :    0.031034
  14 H :    0.029986
  15 H :    0.016722
  16 S :    0.414378
  17 C :   -0.189034
  18 C :   -0.065088
  19 C :   -0.049808
  20 C :   -0.203559
  21 H :    0.028549
  22 C :   -0.027280
  23 H :    0.030309
  24 H :    0.028343
  25 C :   -0.044616
  26 H :    0.030476
  27 H :    0.019711
  28 C :   -0.052521
  29 H :    0.026409
  30 H :    0.014929
  31 H :    0.024312
  32 H :    0.023618
  33 H :    0.021108

  Mayer bond orders larger than 0.100000
B(  0-S ,  1-C ) :   1.1233 B(  0-S ,  4-C ) :   1.1384 B(  1-C ,  2-C ) :   1.6235
B(  1-C , 32-H ) :   0.9686 B(  2-C ,  3-C ) :   1.2249 B(  2-C ,  6-C ) :   1.0311
B(  3-C ,  4-C ) :   1.5762 B(  3-C ,  5-H ) :   0.9860 B(  4-C , 20-C ) :   1.0594
B(  6-C ,  7-H ) :   0.9267 B(  6-C ,  8-H ) :   0.9409 B(  6-C ,  9-C ) :   1.0637
B(  9-C , 10-H ) :   0.9516 B(  9-C , 11-H ) :   0.9576 B(  9-C , 12-C ) :   1.0798
B( 12-C , 13-H ) :   0.9748 B( 12-C , 14-H ) :   0.9740 B( 12-C , 15-H ) :   0.9749
B( 16-S , 17-C ) :   1.1502 B( 16-S , 20-C ) :   1.1290 B( 17-C , 18-C ) :   1.6192
B( 17-C , 33-H ) :   0.9612 B( 18-C , 19-C ) :   1.2437 B( 18-C , 21-H ) :   0.9883
B( 19-C , 20-C ) :   1.6235 B( 19-C , 22-C ) :   1.0233 B( 22-C , 23-H ) :   0.9406
B( 22-C , 24-H ) :   0.9237 B( 22-C , 25-C ) :   1.0619 B( 25-C , 26-H ) :   0.9509
B( 25-C , 27-H ) :   0.9607 B( 25-C , 28-C ) :   1.0854 B( 28-C , 29-H ) :   0.9696
B( 28-C , 30-H ) :   0.9716 B( 28-C , 31-H ) :   0.9747

Dispersion correction           -0.013490531
FINAL SINGLE POINT ENERGY     -1339.866543442129

DIPOLE MOMENT
-------------
                                X             Y             Z
Electronic contribution:    -13.08775     -14.17662     -20.30858
Nuclear contribution   :     13.53549      14.38162      20.81026
                        -----------------------------------------
Total Dipole Moment    :      0.44774       0.20500       0.50168
                        -----------------------------------------
Magnitude (a.u.)       :      0.70298
Magnitude (Debye)      :      1.78683

Rotational constants in cm-1:     0.017707     0.007864     0.006256
Rotational constants in MHz :   530.854969   235.744548   187.535505

                             ****ORCA TERMINATED NORMALLY****
TOTAL RUN TIME: 0 days 0 hours 0 minutes 21 seconds 195 msec
