                         Program Version 4.2.1 -  RELEASE  -
|  1> ! wB97X-D3 SP def2-SVP
|  2> %pal
|  3> nprocs 24
|  4> end
|  5>
|  6> * xyz 0 1
|  7> S 	 -77.8612 	 -2.27759 	 8.97019
|  8> C 	 -79.6335 	 -2.15426 	 8.76879
|  9> C 	 -80.128 	 -1.17671 	 9.55739
| 10> C 	 -79.1126 	 -0.452212 	 10.2296
| 11> C 	 -77.8701 	 -1.02238 	 10.1971
| 12> H 	 -79.2483 	 0.416281 	 10.9024
| 13> C 	 -81.5639 	 -0.785289 	 9.73398
| 14> H 	 -81.9622 	 -0.435889 	 8.73936
| 15> H 	 -81.6729 	 0.013669 	 10.4312
| 16> C 	 -82.3476 	 -1.92994 	 10.3581
| 17> H 	 -83.4249 	 -1.71862 	 10.2987
| 18> H 	 -82.2608 	 -2.92526 	 9.85873
| 19> C 	 -82.0235 	 -2.17209 	 11.8601
| 20> H 	 -81.028 	 -2.54413 	 12.0008
| 21> H 	 -82.0512 	 -1.25526 	 12.4263
| 22> H 	 -82.7067 	 -2.93359 	 12.2402
| 23> S 	 -76.2977 	 -1.38063 	 12.4507
| 24> C 	 -75.0129 	 -0.231766 	 12.8298
| 25> C 	 -74.9829 	 0.727322 	 11.8182
| 26> C 	 -75.8629 	 0.482718 	 10.7161
| 27> C 	 -76.7327 	 -0.554022 	 10.9675
| 28> H 	 -74.2153 	 1.46431 	 11.8083
| 29> C 	 -75.7242 	 1.1365 	 9.31628
| 30> H 	 -75.6063 	 2.20869 	 9.41703
| 31> H 	 -76.5662 	 0.973798 	 8.6506
| 32> C 	 -74.5374 	 0.753711 	 8.43677
| 33> H 	 -73.654 	 1.02897 	 8.98403
| 34> H 	 -74.5759 	 1.28721 	 7.46856
| 35> C 	 -74.5495 	 -0.709524 	 7.97053
| 36> H 	 -74.8452 	 -1.27443 	 8.85474
| 37> H 	 -73.5755 	 -1.11465 	 7.61772
| 38> H 	 -75.3523 	 -0.864686 	 7.29474
| 39> H 	 -80.2581 	 -2.78622 	 8.18941
| 40> H 	 -74.1896 	 -0.520795 	 13.5414
| 41> *
| 42>
| 43>                          ****END OF INPUT****

CARTESIAN COORDINATES (ANGSTROEM)
---------------------------------
  S    -77.861200   -2.277590    8.970190
  C    -79.633500   -2.154260    8.768790
  C    -80.128000   -1.176710    9.557390
  C    -79.112600   -0.452212   10.229600
  C    -77.870100   -1.022380   10.197100
  H    -79.248300    0.416281   10.902400
  C    -81.563900   -0.785289    9.733980
  H    -81.962200   -0.435889    8.739360
  H    -81.672900    0.013669   10.431200
  C    -82.347600   -1.929940   10.358100
  H    -83.424900   -1.718620   10.298700
  H    -82.260800   -2.925260    9.858730
  C    -82.023500   -2.172090   11.860100
  H    -81.028000   -2.544130   12.000800
  H    -82.051200   -1.255260   12.426300
  H    -82.706700   -2.933590   12.240200
  S    -76.297700   -1.380630   12.450700
  C    -75.012900   -0.231766   12.829800
  C    -74.982900    0.727322   11.818200
  C    -75.862900    0.482718   10.716100
  C    -76.732700   -0.554022   10.967500
  H    -74.215300    1.464310   11.808300
  C    -75.724200    1.136500    9.316280
  H    -75.606300    2.208690    9.417030
  H    -76.566200    0.973798    8.650600
  C    -74.537400    0.753711    8.436770
  H    -73.654000    1.028970    8.984030
  H    -74.575900    1.287210    7.468560
  C    -74.549500   -0.709524    7.970530
  H    -74.845200   -1.274430    8.854740
  H    -73.575500   -1.114650    7.617720
  H    -75.352300   -0.864686    7.294740
  H    -80.258100   -2.786220    8.189410
  H    -74.189600   -0.520795   13.541400

 Total Charge           Charge          ....    0
 Multiplicity           Mult            ....    1
 Number of Electrons    NEL             ....  134
 Basis Dimension        Dim             ....  322

ORBITAL ENERGIES
----------------

  NO   OCC          E(Eh)            E(eV)
   0   2.0000     -88.966665     -2420.9060
   1   2.0000     -88.964261     -2420.8406
   2   2.0000     -10.327949      -281.0378
   3   2.0000     -10.326597      -281.0010
   4   2.0000     -10.326390      -280.9953
   5   2.0000     -10.312246      -280.6105
   6   2.0000     -10.307964      -280.4940
   7   2.0000     -10.299340      -280.2593
   8   2.0000     -10.295300      -280.1494
   9   2.0000     -10.293129      -280.0903
  10   2.0000     -10.291475      -280.0453
  11   2.0000     -10.290342      -280.0144
  12   2.0000     -10.289345      -279.9873
  13   2.0000     -10.281624      -279.7772
  14   2.0000     -10.272691      -279.5341
  15   2.0000     -10.267419      -279.3907
  16   2.0000      -8.080363      -219.8778
  17   2.0000      -8.079008      -219.8410
  18   2.0000      -6.039023      -164.3302
  19   2.0000      -6.037468      -164.2879
  20   2.0000      -6.034996      -164.2206
  21   2.0000      -6.033400      -164.1772
  22   2.0000      -6.031031      -164.1127
  23   2.0000      -6.029908      -164.0821
  24   2.0000      -1.007802       -27.4237
  25   2.0000      -0.986165       -26.8349
  26   2.0000      -0.914833       -24.8939
  27   2.0000      -0.907245       -24.6874
  28   2.0000      -0.869957       -23.6727
  29   2.0000      -0.845243       -23.0002
  30   2.0000      -0.843086       -22.9415
  31   2.0000      -0.813851       -22.1460
  32   2.0000      -0.784491       -21.3471
  33   2.0000      -0.776057       -21.1176
  34   2.0000      -0.709631       -19.3100
  35   2.0000      -0.697194       -18.9716
  36   2.0000      -0.688750       -18.7418
  37   2.0000      -0.658849       -17.9282
  38   2.0000      -0.641399       -17.4534
  39   2.0000      -0.611013       -16.6265
  40   2.0000      -0.598283       -16.2801
  41   2.0000      -0.578432       -15.7399
  42   2.0000      -0.557218       -15.1627
  43   2.0000      -0.552006       -15.0208
  44   2.0000      -0.546852       -14.8806
  45   2.0000      -0.535298       -14.5662
  46   2.0000      -0.519192       -14.1279
  47   2.0000      -0.513683       -13.9780
  48   2.0000      -0.504906       -13.7392
  49   2.0000      -0.490917       -13.3585
  50   2.0000      -0.486247       -13.2315
  51   2.0000      -0.478925       -13.0322
  52   2.0000      -0.472702       -12.8629
  53   2.0000      -0.467452       -12.7200
  54   2.0000      -0.462197       -12.5770
  55   2.0000      -0.441860       -12.0236
  56   2.0000      -0.435929       -11.8622
  57   2.0000      -0.433073       -11.7845
  58   2.0000      -0.431228       -11.7343
  59   2.0000      -0.424594       -11.5538
  60   2.0000      -0.421080       -11.4582
  61   2.0000      -0.414128       -11.2690
  62   2.0000      -0.405226       -11.0268
  63   2.0000      -0.335344        -9.1252
  64   2.0000      -0.329168        -8.9571
  65   2.0000      -0.321967        -8.7612
  66   2.0000      -0.315393        -8.5823
  67   0.0000       0.037577         1.0225
  68   0.0000       0.051304         1.3961
  69   0.0000       0.107200         2.9171
  70   0.0000       0.118219         3.2169
  71   0.0000       0.129459         3.5228

MULLIKEN ATOMIC CHARGES
-----------------------
   0 S :    0.106487
   1 C :   -0.112213
   2 C :   -0.081195
   3 C :    0.035777
   4 C :   -0.166775
   5 H :    0.023897
   6 C :    0.105975
   7 H :    0.048355
   8 H :    0.010330
   9 C :   -0.111827
  10 H :    0.027506
  11 H :    0.032874
  12 C :   -0.044094
  13 H :    0.035877
  14 H :    0.023541
  15 H :    0.038305
  16 S :    0.103376
  17 C :   -0.124009
  18 C :   -0.019303
  19 C :   -0.007346
  20 C :   -0.194047
  21 H :    0.011197
  22 C :    0.059370
  23 H :    0.022670
  24 H :    0.028222
  25 C :   -0.073323
  26 H :    0.019039
  27 H :    0.035708
  28 C :   -0.044259
  29 H :    0.020129
  30 H :    0.044015
  31 H :    0.019984
  32 H :    0.029702
  33 H :    0.096058
Sum of atomic charges:    0.0000000

LOEWDIN ATOMIC CHARGES
----------------------
   0 S :    0.391716
   1 C :   -0.176052
   2 C :   -0.067125
   3 C :   -0.058064
   4 C :   -0.198456
   5 H :    0.037258
   6 C :   -0.028531
   7 H :    0.040148
   8 H :    0.025381
   9 C :   -0.043788
  10 H :    0.022433
  11 H :    0.024516
  12 C :   -0.061112
  13 H :    0.023858
  14 H :    0.020529
  15 H :    0.029478
  16 S :    0.401575
  17 C :   -0.191536
  18 C :   -0.065854
  19 C :   -0.054219
  20 C :   -0.201528
  21 H :    0.024603
  22 C :   -0.029961
  23 H :    0.030675
  24 H :    0.030657
  25 C :   -0.038745
  26 H :    0.015071
  27 H :    0.029452
  28 C :   -0.069444
  29 H :    0.019364
  30 H :    0.030915
  31 H :    0.016415
  32 H :    0.022781
  33 H :    0.047589

  Mayer bond orders larger than 0.100000
B(  0-S ,  1-C ) :   1.1212 B(  0-S ,  4-C ) :   1.1339 B(  1-C ,  2-C ) :   1.6338
B(  1-C , 32-H ) :   0.9719 B(  2-C ,  3-C ) :   1.2254 B(  2-C ,  6-C ) :   1.0165
B(  3-C ,  4-C ) :   1.6145 B(  3-C ,  5-H ) :   0.9868 B(  4-C , 20-C ) :   1.0215
B(  6-C ,  7-H ) :   0.9362 B(  6-C ,  8-H ) :   0.9428 B(  6-C ,  9-C ) :   1.0667
B(  9-C , 10-H ) :   0.9570 B(  9-C , 11-H ) :   0.9604 B(  9-C , 12-C ) :   1.0711
B( 12-C , 13-H ) :   0.9763 B( 12-C , 14-H ) :   0.9747 B( 12-C , 15-H ) :   0.9743
B( 16-S , 17-C ) :   1.1599 B( 16-S , 20-C ) :   1.1497 B( 17-C , 18-C ) :   1.5880
B( 17-C , 20-C ) :   0.1043 B( 17-C , 33-H ) :   0.9599 B( 18-C , 19-C ) :   1.2543
B( 18-C , 21-H ) :   0.9892 B( 19-C , 20-C ) :   1.5956 B( 19-C , 22-C ) :   1.0455
B( 22-C , 23-H ) :   0.9306 B( 22-C , 24-H ) :   0.9389 B( 22-C , 25-C ) :   1.0789
B( 25-C , 26-H ) :   0.9565 B( 25-C , 27-H ) :   0.9560 B( 25-C , 28-C ) :   1.0675
B( 28-C , 29-H ) :   0.9775 B( 28-C , 30-H ) :   0.9729 B( 28-C , 31-H ) :   0.9727

Dispersion correction           -0.015770653
FINAL SINGLE POINT ENERGY     -1339.877512128966

DIPOLE MOMENT
-------------
                                X             Y             Z
Electronic contribution:      8.20029      -4.65066       6.34004
Nuclear contribution   :     -8.34819       4.95851      -6.44110
                        -----------------------------------------
Total Dipole Moment    :     -0.14790       0.30785      -0.10106
                        -----------------------------------------
Magnitude (a.u.)       :      0.35617
Magnitude (Debye)      :      0.90532

Rotational constants in cm-1:     0.022301     0.008709     0.007292
Rotational constants in MHz :   668.577215   261.090777   218.611188

                             ****ORCA TERMINATED NORMALLY****
TOTAL RUN TIME: 0 days 0 hours 0 minutes 22 seconds 370 msec
