                         Program Version 4.2.1 -  RELEASE  -
|  1> ! wB97X-D3 SP def2-SVP
|  2> %pal
|  3> nprocs 24
|  4> end
|  5>
|  6> * xyz 0 1
|  7> S 	 -84.499 	 -29.9013 	 -59.3862
|  8> C 	 -85.1963 	 -28.6079 	 -60.3279
|  9> C 	 -86.4748 	 -28.2442 	 -59.8859
| 10> C 	 -86.7397 	 -28.8073 	 -58.6205
| 11> C 	 -85.7581 	 -29.6679 	 -58.1557
| 12> H 	 -87.6074 	 -28.5842 	 -58.0639
| 13> C 	 -87.5582 	 -27.4129 	 -60.5663
| 14> H 	 -88.4856 	 -28.014 	 -60.4823
| 15> H 	 -87.2482 	 -27.3117 	 -61.6569
| 16> C 	 -87.9127 	 -26.0058 	 -60.0983
| 17> H 	 -88.6716 	 -25.5958 	 -60.7787
| 18> H 	 -88.3481 	 -26.1697 	 -59.1035
| 19> C 	 -86.7574 	 -24.9857 	 -60.1247
| 20> H 	 -86.3484 	 -24.9589 	 -61.1472
| 21> H 	 -87.1612 	 -24.0104 	 -59.8154
| 22> H 	 -86.0295 	 -25.1347 	 -59.3384
| 23> S 	 -86.4059 	 -31.8595 	 -56.5806
| 24> C 	 -86.0932 	 -31.7024 	 -54.861
| 25> C 	 -85.4215 	 -30.4892 	 -54.515
| 26> C 	 -85.1579 	 -29.6915 	 -55.6691
| 27> C 	 -85.6798 	 -30.2085 	 -56.8135
| 28> H 	 -85.1909 	 -30.3444 	 -53.4922
| 29> C 	 -84.3049 	 -28.4201 	 -55.5791
| 30> H 	 -83.998 	 -28.0179 	 -56.5464
| 31> H 	 -83.3561 	 -28.7684 	 -55.1754
| 32> C 	 -84.8848 	 -27.3714 	 -54.7166
| 33> H 	 -84.1228 	 -26.6151 	 -54.5249
| 34> H 	 -85.0416 	 -27.7363 	 -53.7059
| 35> C 	 -86.1745 	 -26.7353 	 -55.1681
| 36> H 	 -86.4134 	 -25.8874 	 -54.5787
| 37> H 	 -86.9364 	 -27.5145 	 -55.1822
| 38> H 	 -86.181 	 -26.4695 	 -56.2495
| 39> H 	 -84.7479 	 -28.2907 	 -61.2976
| 40> H 	 -86.3982 	 -32.5038 	 -54.2094
| 41> *
| 42>
| 43>                          ****END OF INPUT****

CARTESIAN COORDINATES (ANGSTROEM)
---------------------------------
  S    -84.499000  -29.901300  -59.386200
  C    -85.196300  -28.607900  -60.327900
  C    -86.474800  -28.244200  -59.885900
  C    -86.739700  -28.807300  -58.620500
  C    -85.758100  -29.667900  -58.155700
  H    -87.607400  -28.584200  -58.063900
  C    -87.558200  -27.412900  -60.566300
  H    -88.485600  -28.014000  -60.482300
  H    -87.248200  -27.311700  -61.656900
  C    -87.912700  -26.005800  -60.098300
  H    -88.671600  -25.595800  -60.778700
  H    -88.348100  -26.169700  -59.103500
  C    -86.757400  -24.985700  -60.124700
  H    -86.348400  -24.958900  -61.147200
  H    -87.161200  -24.010400  -59.815400
  H    -86.029500  -25.134700  -59.338400
  S    -86.405900  -31.859500  -56.580600
  C    -86.093200  -31.702400  -54.861000
  C    -85.421500  -30.489200  -54.515000
  C    -85.157900  -29.691500  -55.669100
  C    -85.679800  -30.208500  -56.813500
  H    -85.190900  -30.344400  -53.492200
  C    -84.304900  -28.420100  -55.579100
  H    -83.998000  -28.017900  -56.546400
  H    -83.356100  -28.768400  -55.175400
  C    -84.884800  -27.371400  -54.716600
  H    -84.122800  -26.615100  -54.524900
  H    -85.041600  -27.736300  -53.705900
  C    -86.174500  -26.735300  -55.168100
  H    -86.413400  -25.887400  -54.578700
  H    -86.936400  -27.514500  -55.182200
  H    -86.181000  -26.469500  -56.249500
  H    -84.747900  -28.290700  -61.297600
  H    -86.398200  -32.503800  -54.209400

 Total Charge           Charge          ....    0
 Multiplicity           Mult            ....    1
 Number of Electrons    NEL             ....  134
 Basis Dimension        Dim             ....  322

ORBITAL ENERGIES
----------------

  NO   OCC          E(Eh)            E(eV)
   0   2.0000     -88.967439     -2420.9271
   1   2.0000     -88.962507     -2420.7929
   2   2.0000     -10.325991      -280.9845
   3   2.0000     -10.323223      -280.9092
   4   2.0000     -10.323058      -280.9047
   5   2.0000     -10.319541      -280.8090
   6   2.0000     -10.304768      -280.4070
   7   2.0000     -10.301310      -280.3129
   8   2.0000     -10.298442      -280.2348
   9   2.0000     -10.297729      -280.2154
  10   2.0000     -10.289715      -279.9974
  11   2.0000     -10.289255      -279.9849
  12   2.0000     -10.288273      -279.9581
  13   2.0000     -10.279650      -279.7235
  14   2.0000     -10.278116      -279.6818
  15   2.0000     -10.271249      -279.4949
  16   2.0000      -8.081732      -219.9151
  17   2.0000      -8.076616      -219.7759
  18   2.0000      -6.040169      -164.3614
  19   2.0000      -6.036349      -164.2574
  20   2.0000      -6.034977      -164.2201
  21   2.0000      -6.032548      -164.1540
  22   2.0000      -6.031353      -164.1215
  23   2.0000      -6.027436      -164.0149
  24   2.0000      -1.000472       -27.2242
  25   2.0000      -0.977898       -26.6100
  26   2.0000      -0.914959       -24.8973
  27   2.0000      -0.909156       -24.7394
  28   2.0000      -0.863590       -23.4995
  29   2.0000      -0.850024       -23.1303
  30   2.0000      -0.848352       -23.0848
  31   2.0000      -0.806053       -21.9338
  32   2.0000      -0.787718       -21.4349
  33   2.0000      -0.774874       -21.0854
  34   2.0000      -0.703886       -19.1537
  35   2.0000      -0.694668       -18.9029
  36   2.0000      -0.690777       -18.7970
  37   2.0000      -0.660932       -17.9849
  38   2.0000      -0.639333       -17.3971
  39   2.0000      -0.619205       -16.8494
  40   2.0000      -0.599392       -16.3103
  41   2.0000      -0.564197       -15.3526
  42   2.0000      -0.562521       -15.3070
  43   2.0000      -0.555505       -15.1161
  44   2.0000      -0.544053       -14.8044
  45   2.0000      -0.532227       -14.4826
  46   2.0000      -0.515204       -14.0194
  47   2.0000      -0.511550       -13.9200
  48   2.0000      -0.496169       -13.5014
  49   2.0000      -0.494496       -13.4559
  50   2.0000      -0.491188       -13.3659
  51   2.0000      -0.477481       -12.9929
  52   2.0000      -0.468024       -12.7356
  53   2.0000      -0.466907       -12.7052
  54   2.0000      -0.455813       -12.4033
  55   2.0000      -0.450163       -12.2496
  56   2.0000      -0.445827       -12.1316
  57   2.0000      -0.437680       -11.9099
  58   2.0000      -0.430477       -11.7139
  59   2.0000      -0.422325       -11.4921
  60   2.0000      -0.419528       -11.4159
  61   2.0000      -0.417074       -11.3492
  62   2.0000      -0.405336       -11.0297
  63   2.0000      -0.337704        -9.1894
  64   2.0000      -0.329636        -8.9699
  65   2.0000      -0.314176        -8.5492
  66   2.0000      -0.307048        -8.3552
  67   0.0000       0.042819         1.1652
  68   0.0000       0.047095         1.2815
  69   0.0000       0.103590         2.8188
  70   0.0000       0.112672         3.0660
  71   0.0000       0.124276         3.3817

MULLIKEN ATOMIC CHARGES
-----------------------
   0 S :    0.121091
   1 C :   -0.147225
   2 C :   -0.059730
   3 C :    0.059514
   4 C :   -0.175367
   5 H :   -0.002465
   6 C :    0.017720
   7 H :    0.045527
   8 H :    0.024382
   9 C :   -0.073403
  10 H :    0.038050
  11 H :    0.024682
  12 C :   -0.045484
  13 H :    0.038011
  14 H :    0.028778
  15 H :    0.037533
  16 S :    0.093301
  17 C :   -0.104734
  18 C :   -0.033618
  19 C :    0.000814
  20 C :   -0.201711
  21 H :    0.014101
  22 C :    0.114105
  23 H :    0.025651
  24 H :    0.026293
  25 C :   -0.083489
  26 H :    0.018866
  27 H :    0.015992
  28 C :   -0.023053
  29 H :    0.034473
  30 H :    0.028064
  31 H :    0.023300
  32 H :    0.059687
  33 H :    0.060342
Sum of atomic charges:    0.0000000

LOEWDIN ATOMIC CHARGES
----------------------
   0 S :    0.399835
   1 C :   -0.200641
   2 C :   -0.069538
   3 C :   -0.046260
   4 C :   -0.196620
   5 H :    0.025036
   6 C :   -0.039656
   7 H :    0.039360
   8 H :    0.031256
   9 C :   -0.044236
  10 H :    0.029603
  11 H :    0.020975
  12 C :   -0.066892
  13 H :    0.028480
  14 H :    0.028763
  15 H :    0.024863
  16 S :    0.371316
  17 C :   -0.170859
  18 C :   -0.068869
  19 C :   -0.046476
  20 C :   -0.187019
  21 H :    0.026838
  22 C :   -0.023463
  23 H :    0.031425
  24 H :    0.037114
  25 C :   -0.048236
  26 H :    0.023765
  27 H :    0.021360
  28 C :   -0.061745
  29 H :    0.023000
  30 H :    0.025577
  31 H :    0.026668
  32 H :    0.032080
  33 H :    0.023197

  Mayer bond orders larger than 0.100000
B(  0-S ,  1-C ) :   1.1560 B(  0-S ,  4-C ) :   1.1361 B(  1-C ,  2-C ) :   1.5914
B(  1-C ,  4-C ) :   0.1019 B(  1-C , 32-H ) :   0.9603 B(  2-C ,  3-C ) :   1.2415
B(  2-C ,  6-C ) :   1.0151 B(  3-C ,  4-C ) :   1.5874 B(  3-C ,  5-H ) :   1.0010
B(  4-C , 20-C ) :   1.0184 B(  6-C ,  7-H ) :   0.9429 B(  6-C ,  8-H ) :   0.9388
B(  6-C ,  9-C ) :   1.0817 B(  9-C , 10-H ) :   0.9535 B(  9-C , 11-H ) :   0.9524
B(  9-C , 12-C ) :   1.0784 B( 12-C , 13-H ) :   0.9741 B( 12-C , 14-H ) :   0.9724
B( 12-C , 15-H ) :   0.9742 B( 16-S , 17-C ) :   1.1686 B( 16-S , 20-C ) :   1.1185
B( 17-C , 18-C ) :   1.6058 B( 17-C , 20-C ) :   0.1033 B( 17-C , 33-H ) :   0.9696
B( 18-C , 19-C ) :   1.1968 B( 18-C , 21-H ) :   0.9999 B( 19-C , 20-C ) :   1.6470
B( 19-C , 22-C ) :   1.0276 B( 22-C , 23-H ) :   0.9327 B( 22-C , 24-H ) :   0.9281
B( 22-C , 25-C ) :   1.0909 B( 25-C , 26-H ) :   0.9478 B( 25-C , 27-H ) :   0.9500
B( 25-C , 28-C ) :   1.0778 B( 28-C , 29-H ) :   0.9714 B( 28-C , 30-H ) :   0.9695
B( 28-C , 31-H ) :   0.9706

Dispersion correction           -0.015659924
FINAL SINGLE POINT ENERGY     -1339.881723486408

DIPOLE MOMENT
-------------
                                X             Y             Z
Electronic contribution:      5.89808     -27.67029      -1.70507
Nuclear contribution   :     -6.03027      28.21308       1.88979
                        -----------------------------------------
Total Dipole Moment    :     -0.13219       0.54278       0.18472
                        -----------------------------------------
Magnitude (a.u.)       :      0.58839
Magnitude (Debye)      :      1.49558

Rotational constants in cm-1:     0.019006     0.009350     0.007577
Rotational constants in MHz :   569.787257   280.314790   227.138501

                             ****ORCA TERMINATED NORMALLY****
TOTAL RUN TIME: 0 days 0 hours 0 minutes 23 seconds 541 msec
