                         Program Version 4.2.1 -  RELEASE  -
|  1> ! wB97X-D3 SP def2-SVP
|  2> %pal
|  3> nprocs 24
|  4> end
|  5>
|  6> * xyz 0 1
|  7> S 	 -118.232 	 59.0555 	 -38.7947
|  8> C 	 -117.252 	 57.7745 	 -38.0361
|  9> C 	 -116.694 	 58.2011 	 -36.8658
| 10> C 	 -116.886 	 59.5581 	 -36.6037
| 11> C 	 -117.783 	 60.1522 	 -37.475
| 12> H 	 -116.561 	 60.1723 	 -35.7469
| 13> C 	 -115.758 	 57.3656 	 -35.987
| 14> H 	 -116.27 	 56.3649 	 -35.865
| 15> H 	 -115.574 	 57.8095 	 -35.044
| 16> C 	 -114.346 	 56.9302 	 -36.5752
| 17> H 	 -114.472 	 56.1956 	 -37.4512
| 18> H 	 -113.818 	 57.89 	 -36.7982
| 19> C 	 -113.318 	 56.3226 	 -35.5218
| 20> H 	 -113.203 	 56.9874 	 -34.5911
| 21> H 	 -113.719 	 55.3353 	 -35.2052
| 22> H 	 -112.372 	 56.2783 	 -36.0006
| 23> S 	 -117.403 	 62.7591 	 -36.5302
| 24> C 	 -118.623 	 63.8805 	 -36.7491
| 25> C 	 -119.798 	 63.3313 	 -37.1823
| 26> C 	 -119.757 	 61.9116 	 -37.4567
| 27> C 	 -118.455 	 61.4228 	 -37.2418
| 28> H 	 -120.627 	 63.9403 	 -37.4372
| 29> C 	 -120.953 	 61.2206 	 -38.1375
| 30> H 	 -120.727 	 60.2348 	 -38.5132
| 31> H 	 -121.274 	 61.7092 	 -39.1272
| 32> C 	 -122.2 	 61.1959 	 -37.402
| 33> H 	 -123.104 	 60.9537 	 -38.0012
| 34> H 	 -122.322 	 62.1758 	 -36.9876
| 35> C 	 -122.134 	 60.3049 	 -36.1269
| 36> H 	 -122.974 	 60.5406 	 -35.5297
| 37> H 	 -121.223 	 60.4894 	 -35.5606
| 38> H 	 -122.044 	 59.3089 	 -36.438
| 39> H 	 -117.068 	 56.8391 	 -38.5019
| 40> H 	 -118.537 	 64.9459 	 -36.5882
| 41> *
| 42>
| 43>                          ****END OF INPUT****

CARTESIAN COORDINATES (ANGSTROEM)
---------------------------------
  S    -118.232000   59.055500  -38.794700
  C    -117.252000   57.774500  -38.036100
  C    -116.694000   58.201100  -36.865800
  C    -116.886000   59.558100  -36.603700
  C    -117.783000   60.152200  -37.475000
  H    -116.561000   60.172300  -35.746900
  C    -115.758000   57.365600  -35.987000
  H    -116.270000   56.364900  -35.865000
  H    -115.574000   57.809500  -35.044000
  C    -114.346000   56.930200  -36.575200
  H    -114.472000   56.195600  -37.451200
  H    -113.818000   57.890000  -36.798200
  C    -113.318000   56.322600  -35.521800
  H    -113.203000   56.987400  -34.591100
  H    -113.719000   55.335300  -35.205200
  H    -112.372000   56.278300  -36.000600
  S    -117.403000   62.759100  -36.530200
  C    -118.623000   63.880500  -36.749100
  C    -119.798000   63.331300  -37.182300
  C    -119.757000   61.911600  -37.456700
  C    -118.455000   61.422800  -37.241800
  H    -120.627000   63.940300  -37.437200
  C    -120.953000   61.220600  -38.137500
  H    -120.727000   60.234800  -38.513200
  H    -121.274000   61.709200  -39.127200
  C    -122.200000   61.195900  -37.402000
  H    -123.104000   60.953700  -38.001200
  H    -122.322000   62.175800  -36.987600
  C    -122.134000   60.304900  -36.126900
  H    -122.974000   60.540600  -35.529700
  H    -121.223000   60.489400  -35.560600
  H    -122.044000   59.308900  -36.438000
  H    -117.068000   56.839100  -38.501900
  H    -118.537000   64.945900  -36.588200

 Total Charge           Charge          ....    0
 Multiplicity           Mult            ....    1
 Number of Electrons    NEL             ....  134
 Basis Dimension        Dim             ....  322

ORBITAL ENERGIES
----------------

  NO   OCC          E(Eh)            E(eV)
   0   2.0000     -88.970972     -2421.0232
   1   2.0000     -88.966169     -2420.8925
   2   2.0000     -10.338262      -281.3184
   3   2.0000     -10.332999      -281.1752
   4   2.0000     -10.313670      -280.6492
   5   2.0000     -10.313294      -280.6390
   6   2.0000     -10.313271      -280.6384
   7   2.0000     -10.302002      -280.3317
   8   2.0000     -10.301539      -280.3191
   9   2.0000     -10.296473      -280.1813
  10   2.0000     -10.293721      -280.1064
  11   2.0000     -10.291823      -280.0548
  12   2.0000     -10.289801      -279.9997
  13   2.0000     -10.289116      -279.9811
  14   2.0000     -10.277197      -279.6567
  15   2.0000     -10.260559      -279.2040
  16   2.0000      -8.084338      -219.9860
  17   2.0000      -8.081280      -219.9028
  18   2.0000      -6.042914      -164.4360
  19   2.0000      -6.039798      -164.3513
  20   2.0000      -6.039095      -164.3321
  21   2.0000      -6.035816      -164.2429
  22   2.0000      -6.035061      -164.2224
  23   2.0000      -6.031937      -164.1374
  24   2.0000      -1.005108       -27.3504
  25   2.0000      -0.985441       -26.8152
  26   2.0000      -0.919077       -25.0094
  27   2.0000      -0.900444       -24.5023
  28   2.0000      -0.867486       -23.6055
  29   2.0000      -0.851668       -23.1751
  30   2.0000      -0.845121       -22.9969
  31   2.0000      -0.809212       -22.0198
  32   2.0000      -0.787475       -21.4283
  33   2.0000      -0.773171       -21.0391
  34   2.0000      -0.709254       -19.2998
  35   2.0000      -0.691017       -18.8035
  36   2.0000      -0.688986       -18.7483
  37   2.0000      -0.661269       -17.9940
  38   2.0000      -0.636381       -17.3168
  39   2.0000      -0.617745       -16.8097
  40   2.0000      -0.605156       -16.4671
  41   2.0000      -0.570010       -15.5107
  42   2.0000      -0.560131       -15.2420
  43   2.0000      -0.552857       -15.0440
  44   2.0000      -0.540392       -14.7048
  45   2.0000      -0.523490       -14.2449
  46   2.0000      -0.519368       -14.1327
  47   2.0000      -0.515770       -14.0348
  48   2.0000      -0.507924       -13.8213
  49   2.0000      -0.495119       -13.4729
  50   2.0000      -0.486464       -13.2374
  51   2.0000      -0.477678       -12.9983
  52   2.0000      -0.472863       -12.8672
  53   2.0000      -0.468405       -12.7460
  54   2.0000      -0.460269       -12.5246
  55   2.0000      -0.449363       -12.2278
  56   2.0000      -0.446359       -12.1460
  57   2.0000      -0.436896       -11.8885
  58   2.0000      -0.431807       -11.7501
  59   2.0000      -0.427462       -11.6318
  60   2.0000      -0.416364       -11.3298
  61   2.0000      -0.404348       -11.0029
  62   2.0000      -0.401358       -10.9215
  63   2.0000      -0.358011        -9.7420
  64   2.0000      -0.335028        -9.1166
  65   2.0000      -0.331785        -9.0283
  66   2.0000      -0.281913        -7.6712
  67   0.0000       0.020005         0.5444
  68   0.0000       0.072102         1.9620
  69   0.0000       0.102298         2.7837
  70   0.0000       0.108932         2.9642
  71   0.0000       0.125888         3.4256

MULLIKEN ATOMIC CHARGES
-----------------------
   0 S :    0.106977
   1 C :   -0.126115
   2 C :   -0.031813
   3 C :   -0.011488
   4 C :   -0.113308
   5 H :    0.028074
   6 C :    0.067973
   7 H :    0.035139
   8 H :    0.010082
   9 C :   -0.128216
  10 H :    0.050333
  11 H :    0.039742
  12 C :   -0.074894
  13 H :    0.042530
  14 H :    0.038640
  15 H :    0.043538
  16 S :    0.089477
  17 C :   -0.060022
  18 C :   -0.043473
  19 C :   -0.025145
  20 C :   -0.165833
  21 H :    0.011314
  22 C :    0.064420
  23 H :    0.003605
  24 H :    0.042101
  25 C :   -0.090066
  26 H :    0.037426
  27 H :    0.010000
  28 C :   -0.020703
  29 H :    0.028974
  30 H :    0.032047
  31 H :    0.014866
  32 H :    0.036351
  33 H :    0.057469
Sum of atomic charges:   -0.0000000

LOEWDIN ATOMIC CHARGES
----------------------
   0 S :    0.396672
   1 C :   -0.180198
   2 C :   -0.062910
   3 C :   -0.070654
   4 C :   -0.179640
   5 H :    0.033714
   6 C :   -0.032406
   7 H :    0.037127
   8 H :    0.021206
   9 C :   -0.047035
  10 H :    0.030539
  11 H :    0.026735
  12 C :   -0.070109
  13 H :    0.032318
  14 H :    0.024083
  15 H :    0.022946
  16 S :    0.398719
  17 C :   -0.202038
  18 C :   -0.072764
  19 C :   -0.050054
  20 C :   -0.161946
  21 H :    0.024436
  22 C :   -0.041391
  23 H :    0.012813
  24 H :    0.044943
  25 C :   -0.045469
  26 H :    0.029660
  27 H :    0.017409
  28 C :   -0.055617
  29 H :    0.020255
  30 H :    0.028186
  31 H :    0.015630
  32 H :    0.021412
  33 H :    0.033431

  Mayer bond orders larger than 0.100000
B(  0-S ,  1-C ) :   1.1239 B(  0-S ,  4-C ) :   1.1474 B(  1-C ,  2-C ) :   1.6038
B(  1-C , 32-H ) :   0.9776 B(  2-C ,  3-C ) :   1.2594 B(  2-C ,  6-C ) :   1.0289
B(  3-C ,  4-C ) :   1.5500 B(  3-C ,  5-H ) :   0.9826 B(  4-C , 20-C ) :   1.0675
B(  6-C ,  7-H ) :   0.9382 B(  6-C ,  8-H ) :   0.9447 B(  6-C ,  9-C ) :   1.0540
B(  9-C , 10-H ) :   0.9562 B(  9-C , 11-H ) :   0.9609 B(  9-C , 12-C ) :   1.0694
B( 12-C , 13-H ) :   0.9746 B( 12-C , 14-H ) :   0.9776 B( 12-C , 15-H ) :   0.9768
B( 16-S , 17-C ) :   1.1560 B( 16-S , 20-C ) :   1.1221 B( 17-C , 18-C ) :   1.6321
B( 17-C , 33-H ) :   0.9627 B( 18-C , 19-C ) :   1.2131 B( 18-C , 21-H ) :   0.9886
B( 19-C , 20-C ) :   1.5898 B( 19-C , 22-C ) :   1.0326 B( 22-C , 23-H ) :   0.9334
B( 22-C , 24-H ) :   0.9358 B( 22-C , 25-C ) :   1.0801 B( 25-C , 26-H ) :   0.9523
B( 25-C , 27-H ) :   0.9554 B( 25-C , 28-C ) :   1.0747 B( 28-C , 29-H ) :   0.9759
B( 28-C , 30-H ) :   0.9736 B( 28-C , 31-H ) :   0.9753

Dispersion correction           -0.013815539
FINAL SINGLE POINT ENERGY     -1339.859139309280

DIPOLE MOMENT
-------------
                                X             Y             Z
Electronic contribution:      0.82879      13.82295      -8.04255
Nuclear contribution   :     -0.86156     -13.91304       8.13326
                        -----------------------------------------
Total Dipole Moment    :     -0.03276      -0.09009       0.09072
                        -----------------------------------------
Magnitude (a.u.)       :      0.13198
Magnitude (Debye)      :      0.33547

Rotational constants in cm-1:     0.022652     0.007235     0.006194
Rotational constants in MHz :   679.084312   216.905888   185.690248

                             ****ORCA TERMINATED NORMALLY****
TOTAL RUN TIME: 0 days 0 hours 0 minutes 21 seconds 45 msec
