                         Program Version 4.2.1 -  RELEASE  -
|  1> ! wB97X-D3 SP def2-SVP
|  2> %pal
|  3> nprocs 24
|  4> end
|  5>
|  6> * xyz 0 1
|  7> S 	 -47.7772 	 -43.6606 	 -78.8185
|  8> C 	 -47.7878 	 -42.028 	 -78.1286
|  9> C 	 -46.5588 	 -41.6451 	 -77.5469
| 10> C 	 -45.7044 	 -42.7745 	 -77.4959
| 11> C 	 -46.2129 	 -43.9538 	 -78.0274
| 12> H 	 -44.7116 	 -42.7149 	 -77.0308
| 13> C 	 -46.2721 	 -40.3343 	 -76.9061
| 14> H 	 -47.0783 	 -39.6668 	 -77.2011
| 15> H 	 -45.4668 	 -39.9209 	 -77.4986
| 16> C 	 -46.1531 	 -40.2968 	 -75.3726
| 17> H 	 -46.9799 	 -40.6823 	 -74.9049
| 18> H 	 -45.3388 	 -40.952 	 -75.0293
| 19> C 	 -46.0601 	 -38.8295 	 -74.8862
| 20> H 	 -45.2179 	 -38.2052 	 -75.2668
| 21> H 	 -46.9364 	 -38.3163 	 -75.1682
| 22> H 	 -46.036 	 -38.7264 	 -73.7864
| 23> S 	 -44.9448 	 -45.8824 	 -76.6606
| 24> C 	 -44.3906 	 -47.3423 	 -77.4528
| 25> C 	 -44.5234 	 -47.2712 	 -78.7911
| 26> C 	 -45.1514 	 -46.0199 	 -79.1749
| 27> C 	 -45.4269 	 -45.1795 	 -78.1685
| 28> H 	 -44.2796 	 -48.061 	 -79.3971
| 29> C 	 -45.5119 	 -45.7811 	 -80.5851
| 30> H 	 -46.5216 	 -45.5154 	 -80.564
| 31> H 	 -45.5171 	 -46.7158 	 -81.1464
| 32> C 	 -44.722 	 -44.6695 	 -81.3702
| 33> H 	 -43.6487 	 -44.9074 	 -81.4138
| 34> H 	 -44.79 	 -43.6741 	 -80.9681
| 35> C 	 -45.2016 	 -44.4863 	 -82.7461
| 36> H 	 -45.1507 	 -45.4047 	 -83.2768
| 37> H 	 -44.7001 	 -43.7899 	 -83.4188
| 38> H 	 -46.2414 	 -44.2064 	 -82.7766
| 39> H 	 -48.6364 	 -41.3736 	 -78.1939
| 40> H 	 -43.9325 	 -48.2087 	 -76.9597
| 41> *
| 42>
| 43>                          ****END OF INPUT****

CARTESIAN COORDINATES (ANGSTROEM)
---------------------------------
  S    -47.777200  -43.660600  -78.818500
  C    -47.787800  -42.028000  -78.128600
  C    -46.558800  -41.645100  -77.546900
  C    -45.704400  -42.774500  -77.495900
  C    -46.212900  -43.953800  -78.027400
  H    -44.711600  -42.714900  -77.030800
  C    -46.272100  -40.334300  -76.906100
  H    -47.078300  -39.666800  -77.201100
  H    -45.466800  -39.920900  -77.498600
  C    -46.153100  -40.296800  -75.372600
  H    -46.979900  -40.682300  -74.904900
  H    -45.338800  -40.952000  -75.029300
  C    -46.060100  -38.829500  -74.886200
  H    -45.217900  -38.205200  -75.266800
  H    -46.936400  -38.316300  -75.168200
  H    -46.036000  -38.726400  -73.786400
  S    -44.944800  -45.882400  -76.660600
  C    -44.390600  -47.342300  -77.452800
  C    -44.523400  -47.271200  -78.791100
  C    -45.151400  -46.019900  -79.174900
  C    -45.426900  -45.179500  -78.168500
  H    -44.279600  -48.061000  -79.397100
  C    -45.511900  -45.781100  -80.585100
  H    -46.521600  -45.515400  -80.564000
  H    -45.517100  -46.715800  -81.146400
  C    -44.722000  -44.669500  -81.370200
  H    -43.648700  -44.907400  -81.413800
  H    -44.790000  -43.674100  -80.968100
  C    -45.201600  -44.486300  -82.746100
  H    -45.150700  -45.404700  -83.276800
  H    -44.700100  -43.789900  -83.418800
  H    -46.241400  -44.206400  -82.776600
  H    -48.636400  -41.373600  -78.193900
  H    -43.932500  -48.208700  -76.959700

 Total Charge           Charge          ....    0
 Multiplicity           Mult            ....    1
 Number of Electrons    NEL             ....  134
 Basis Dimension        Dim             ....  322

ORBITAL ENERGIES
----------------

  NO   OCC          E(Eh)            E(eV)
   0   2.0000     -88.972101     -2421.0539
   1   2.0000     -88.958294     -2420.6782
   2   2.0000     -10.332504      -281.1617
   3   2.0000     -10.318501      -280.7807
   4   2.0000     -10.317049      -280.7412
   5   2.0000     -10.312523      -280.6180
   6   2.0000     -10.302114      -280.3348
   7   2.0000     -10.295201      -280.1467
   8   2.0000     -10.292978      -280.0862
   9   2.0000     -10.292565      -280.0749
  10   2.0000     -10.288084      -279.9530
  11   2.0000     -10.284181      -279.8468
  12   2.0000     -10.281825      -279.7827
  13   2.0000     -10.281059      -279.7618
  14   2.0000     -10.278118      -279.6818
  15   2.0000     -10.262490      -279.2566
  16   2.0000      -8.085398      -220.0149
  17   2.0000      -8.073795      -219.6991
  18   2.0000      -6.043939      -164.4639
  19   2.0000      -6.040225      -164.3629
  20   2.0000      -6.036118      -164.2511
  21   2.0000      -6.032418      -164.1504
  22   2.0000      -6.028193      -164.0355
  23   2.0000      -6.024385      -163.9318
  24   2.0000      -1.008720       -27.4487
  25   2.0000      -0.983087       -26.7512
  26   2.0000      -0.914961       -24.8974
  27   2.0000      -0.909695       -24.7541
  28   2.0000      -0.871804       -23.7230
  29   2.0000      -0.857162       -23.3246
  30   2.0000      -0.850557       -23.1448
  31   2.0000      -0.817050       -22.2331
  32   2.0000      -0.781798       -21.2738
  33   2.0000      -0.768240       -20.9049
  34   2.0000      -0.717212       -19.5163
  35   2.0000      -0.704163       -19.1613
  36   2.0000      -0.693599       -18.8738
  37   2.0000      -0.670781       -18.2529
  38   2.0000      -0.636175       -17.3112
  39   2.0000      -0.623281       -16.9603
  40   2.0000      -0.595229       -16.1970
  41   2.0000      -0.571280       -15.5453
  42   2.0000      -0.565788       -15.3959
  43   2.0000      -0.560322       -15.2471
  44   2.0000      -0.532852       -14.4996
  45   2.0000      -0.522783       -14.2256
  46   2.0000      -0.518538       -14.1101
  47   2.0000      -0.513282       -13.9671
  48   2.0000      -0.509303       -13.8588
  49   2.0000      -0.501618       -13.6497
  50   2.0000      -0.488231       -13.2854
  51   2.0000      -0.481701       -13.1077
  52   2.0000      -0.468415       -12.7462
  53   2.0000      -0.462213       -12.5775
  54   2.0000      -0.459420       -12.5014
  55   2.0000      -0.450007       -12.2453
  56   2.0000      -0.444062       -12.0835
  57   2.0000      -0.442619       -12.0443
  58   2.0000      -0.434966       -11.8360
  59   2.0000      -0.424121       -11.5409
  60   2.0000      -0.419599       -11.4179
  61   2.0000      -0.417345       -11.3565
  62   2.0000      -0.412686       -11.2298
  63   2.0000      -0.348246        -9.4763
  64   2.0000      -0.334046        -9.0899
  65   2.0000      -0.324727        -8.8363
  66   2.0000      -0.293011        -7.9732
  67   0.0000       0.033411         0.9092
  68   0.0000       0.070210         1.9105
  69   0.0000       0.103715         2.8222
  70   0.0000       0.119826         3.2606
  71   0.0000       0.132465         3.6046

MULLIKEN ATOMIC CHARGES
-----------------------
   0 S :    0.108700
   1 C :   -0.121871
   2 C :   -0.085637
   3 C :   -0.003758
   4 C :   -0.112138
   5 H :    0.023478
   6 C :    0.076209
   7 H :   -0.000576
   8 H :    0.033767
   9 C :   -0.006623
  10 H :    0.012381
  11 H :    0.033854
  12 C :   -0.065105
  13 H :    0.036708
  14 H :    0.017806
  15 H :    0.035748
  16 S :    0.092851
  17 C :   -0.087317
  18 C :    0.007133
  19 C :   -0.076365
  20 C :   -0.132295
  21 H :   -0.016219
  22 C :    0.090578
  23 H :   -0.003272
  24 H :    0.007468
  25 C :   -0.039727
  26 H :    0.025157
  27 H :    0.030628
  28 C :   -0.030958
  29 H :    0.002682
  30 H :    0.029242
  31 H :    0.017297
  32 H :    0.041405
  33 H :    0.058767
Sum of atomic charges:   -0.0000000

LOEWDIN ATOMIC CHARGES
----------------------
   0 S :    0.392720
   1 C :   -0.184999
   2 C :   -0.061960
   3 C :   -0.060621
   4 C :   -0.188220
   5 H :    0.033768
   6 C :   -0.035068
   7 H :    0.029609
   8 H :    0.036875
   9 C :   -0.026106
  10 H :    0.018504
  11 H :    0.026820
  12 C :   -0.066636
  13 H :    0.028528
  14 H :    0.017956
  15 H :    0.029117
  16 S :    0.406493
  17 C :   -0.178896
  18 C :   -0.060461
  19 C :   -0.062110
  20 C :   -0.198624
  21 H :    0.018939
  22 C :   -0.028539
  23 H :    0.015870
  24 H :    0.030044
  25 C :   -0.036426
  26 H :    0.025209
  27 H :    0.025644
  28 C :   -0.067902
  29 H :    0.015494
  30 H :    0.027469
  31 H :    0.022216
  32 H :    0.021183
  33 H :    0.034110

  Mayer bond orders larger than 0.100000
B(  0-S ,  1-C ) :   1.1430 B(  0-S ,  4-C ) :   1.1296 B(  1-C ,  2-C ) :   1.5887
B(  1-C , 32-H ) :   0.9668 B(  2-C ,  3-C ) :   1.2568 B(  2-C ,  6-C ) :   1.0381
B(  3-C ,  4-C ) :   1.5602 B(  3-C ,  5-H ) :   0.9890 B(  4-C , 20-C ) :   1.0253
B(  6-C ,  7-H ) :   0.9320 B(  6-C ,  8-H ) :   0.9275 B(  6-C ,  9-C ) :   1.0542
B(  9-C , 10-H ) :   0.9511 B(  9-C , 11-H ) :   0.9572 B(  9-C , 12-C ) :   1.0772
B( 12-C , 13-H ) :   0.9782 B( 12-C , 14-H ) :   0.9742 B( 12-C , 15-H ) :   0.9755
B( 16-S , 17-C ) :   1.1457 B( 16-S , 20-C ) :   1.1214 B( 17-C , 18-C ) :   1.6356
B( 17-C , 33-H ) :   0.9611 B( 18-C , 19-C ) :   1.2036 B( 18-C , 21-H ) :   1.0111
B( 19-C , 20-C ) :   1.6493 B( 19-C , 22-C ) :   1.0579 B( 22-C , 23-H ) :   0.9215
B( 22-C , 24-H ) :   0.9291 B( 22-C , 25-C ) :   1.0563 B( 25-C , 26-H ) :   0.9534
B( 25-C , 27-H ) :   0.9552 B( 25-C , 28-C ) :   1.0955 B( 28-C , 29-H ) :   0.9681
B( 28-C , 30-H ) :   0.9708 B( 28-C , 31-H ) :   0.9699

Dispersion correction           -0.014141602
FINAL SINGLE POINT ENERGY     -1339.873519411927

DIPOLE MOMENT
-------------
                                X             Y             Z
Electronic contribution:     -3.94316     -16.94589       5.98141
Nuclear contribution   :      4.02005      17.26259      -6.08748
                        -----------------------------------------
Total Dipole Moment    :      0.07689       0.31670      -0.10606
                        -----------------------------------------
Magnitude (a.u.)       :      0.34273
Magnitude (Debye)      :      0.87114

Rotational constants in cm-1:     0.019661     0.008084     0.006551
Rotational constants in MHz :   589.432743   242.364141   196.385381

                             ****ORCA TERMINATED NORMALLY****
TOTAL RUN TIME: 0 days 0 hours 0 minutes 22 seconds 341 msec
