                         Program Version 4.2.1 -  RELEASE  -
|  1> ! wB97X-D3 SP def2-SVP
|  2> %pal
|  3> nprocs 24
|  4> end
|  5>
|  6> * xyz 0 1
|  7> S 	 -131.919 	 66.9276 	 -54.1558
|  8> C 	 -132.177 	 67.7337 	 -55.7195
|  9> C 	 -131.322 	 68.8319 	 -55.9024
| 10> C 	 -130.34 	 68.8461 	 -54.802
| 11> C 	 -130.473 	 67.8711 	 -53.8274
| 12> H 	 -129.498 	 69.4556 	 -54.8097
| 13> C 	 -131.247 	 69.7606 	 -57.1445
| 14> H 	 -132.271 	 70.0725 	 -57.2639
| 15> H 	 -131.125 	 69.1901 	 -58.0415
| 16> C 	 -130.121 	 70.8294 	 -57.1908
| 17> H 	 -129.178 	 70.3313 	 -57.2788
| 18> H 	 -130.317 	 71.3321 	 -58.1436
| 19> C 	 -129.924 	 71.9684 	 -56.1122
| 20> H 	 -129.055 	 72.4815 	 -56.2571
| 21> H 	 -130.758 	 72.6259 	 -55.9435
| 22> H 	 -129.856 	 71.4983 	 -55.1373
| 23> S 	 -130.419 	 67.0891 	 -51.2108
| 24> C 	 -129.01 	 67.2435 	 -50.221
| 25> C 	 -127.976 	 67.6264 	 -51.0322
| 26> C 	 -128.321 	 68.0124 	 -52.3678
| 27> C 	 -129.66 	 67.7108 	 -52.6376
| 28> H 	 -126.985 	 67.7134 	 -50.646
| 29> C 	 -127.319 	 68.6842 	 -53.3425
| 30> H 	 -127.602 	 69.6727 	 -53.2782
| 31> H 	 -127.5 	 68.3046 	 -54.3573
| 32> C 	 -125.813 	 68.596 	 -52.9662
| 33> H 	 -125.193 	 68.3964 	 -53.8648
| 34> H 	 -125.499 	 67.648 	 -52.4509
| 35> C 	 -125.351 	 69.7117 	 -52.0376
| 36> H 	 -126.179 	 69.9671 	 -51.3735
| 37> H 	 -125.057 	 70.6156 	 -52.6303
| 38> H 	 -124.508 	 69.4672 	 -51.4405
| 39> H 	 -132.933 	 67.4296 	 -56.4602
| 40> H 	 -128.87 	 66.8574 	 -49.2236
| 41> *
| 42>
| 43>                          ****END OF INPUT****

CARTESIAN COORDINATES (ANGSTROEM)
---------------------------------
  S    -131.919000   66.927600  -54.155800
  C    -132.177000   67.733700  -55.719500
  C    -131.322000   68.831900  -55.902400
  C    -130.340000   68.846100  -54.802000
  C    -130.473000   67.871100  -53.827400
  H    -129.498000   69.455600  -54.809700
  C    -131.247000   69.760600  -57.144500
  H    -132.271000   70.072500  -57.263900
  H    -131.125000   69.190100  -58.041500
  C    -130.121000   70.829400  -57.190800
  H    -129.178000   70.331300  -57.278800
  H    -130.317000   71.332100  -58.143600
  C    -129.924000   71.968400  -56.112200
  H    -129.055000   72.481500  -56.257100
  H    -130.758000   72.625900  -55.943500
  H    -129.856000   71.498300  -55.137300
  S    -130.419000   67.089100  -51.210800
  C    -129.010000   67.243500  -50.221000
  C    -127.976000   67.626400  -51.032200
  C    -128.321000   68.012400  -52.367800
  C    -129.660000   67.710800  -52.637600
  H    -126.985000   67.713400  -50.646000
  C    -127.319000   68.684200  -53.342500
  H    -127.602000   69.672700  -53.278200
  H    -127.500000   68.304600  -54.357300
  C    -125.813000   68.596000  -52.966200
  H    -125.193000   68.396400  -53.864800
  H    -125.499000   67.648000  -52.450900
  C    -125.351000   69.711700  -52.037600
  H    -126.179000   69.967100  -51.373500
  H    -125.057000   70.615600  -52.630300
  H    -124.508000   69.467200  -51.440500
  H    -132.933000   67.429600  -56.460200
  H    -128.870000   66.857400  -49.223600

 Total Charge           Charge          ....    0
 Multiplicity           Mult            ....    1
 Number of Electrons    NEL             ....  134
 Basis Dimension        Dim             ....  322

ORBITAL ENERGIES
----------------

  NO   OCC          E(Eh)            E(eV)
   0   2.0000     -88.966463     -2420.9005
   1   2.0000     -88.962776     -2420.8002
   2   2.0000     -10.331481      -281.1339
   3   2.0000     -10.327566      -281.0274
   4   2.0000     -10.319827      -280.8168
   5   2.0000     -10.313514      -280.6450
   6   2.0000     -10.310824      -280.5718
   7   2.0000     -10.305653      -280.4311
   8   2.0000     -10.299342      -280.2593
   9   2.0000     -10.296125      -280.1718
  10   2.0000     -10.295479      -280.1542
  11   2.0000     -10.294102      -280.1168
  12   2.0000     -10.292073      -280.0616
  13   2.0000     -10.289648      -279.9956
  14   2.0000     -10.280913      -279.7579
  15   2.0000     -10.273187      -279.5476
  16   2.0000      -8.080461      -219.8805
  17   2.0000      -8.078270      -219.8209
  18   2.0000      -6.039206      -164.3351
  19   2.0000      -6.036803      -164.2698
  20   2.0000      -6.035092      -164.2232
  21   2.0000      -6.032586      -164.1550
  22   2.0000      -6.031001      -164.1119
  23   2.0000      -6.029036      -164.0584
  24   2.0000      -1.007359       -27.4116
  25   2.0000      -0.979170       -26.6446
  26   2.0000      -0.910191       -24.7675
  27   2.0000      -0.906005       -24.6537
  28   2.0000      -0.871018       -23.7016
  29   2.0000      -0.849753       -23.1229
  30   2.0000      -0.837875       -22.7997
  31   2.0000      -0.818244       -22.2655
  32   2.0000      -0.792093       -21.5539
  33   2.0000      -0.779336       -21.2068
  34   2.0000      -0.714652       -19.4467
  35   2.0000      -0.705031       -19.1849
  36   2.0000      -0.695690       -18.9307
  37   2.0000      -0.658743       -17.9253
  38   2.0000      -0.637092       -17.3362
  39   2.0000      -0.625256       -17.0141
  40   2.0000      -0.598137       -16.2761
  41   2.0000      -0.565015       -15.3748
  42   2.0000      -0.562351       -15.3023
  43   2.0000      -0.550081       -14.9685
  44   2.0000      -0.533095       -14.5063
  45   2.0000      -0.526788       -14.3346
  46   2.0000      -0.525442       -14.2980
  47   2.0000      -0.518312       -14.1040
  48   2.0000      -0.508292       -13.8313
  49   2.0000      -0.500507       -13.6195
  50   2.0000      -0.497392       -13.5347
  51   2.0000      -0.487298       -13.2601
  52   2.0000      -0.472066       -12.8456
  53   2.0000      -0.465723       -12.6730
  54   2.0000      -0.462963       -12.5979
  55   2.0000      -0.449841       -12.2408
  56   2.0000      -0.445752       -12.1295
  57   2.0000      -0.440253       -11.9799
  58   2.0000      -0.436720       -11.8838
  59   2.0000      -0.433527       -11.7969
  60   2.0000      -0.421726       -11.4757
  61   2.0000      -0.412504       -11.2248
  62   2.0000      -0.399853       -10.8806
  63   2.0000      -0.358572        -9.7572
  64   2.0000      -0.330205        -8.9853
  65   2.0000      -0.324850        -8.8396
  66   2.0000      -0.283710        -7.7201
  67   0.0000       0.023712         0.6452
  68   0.0000       0.078183         2.1275
  69   0.0000       0.109223         2.9721
  70   0.0000       0.123788         3.3685
  71   0.0000       0.136527         3.7151

MULLIKEN ATOMIC CHARGES
-----------------------
   0 S :    0.106293
   1 C :   -0.139976
   2 C :   -0.086287
   3 C :   -0.000548
   4 C :   -0.108101
   5 H :   -0.025086
   6 C :    0.090044
   7 H :    0.026984
   8 H :    0.031897
   9 C :   -0.096137
  10 H :    0.032437
  11 H :    0.033605
  12 C :   -0.002430
  13 H :    0.020759
  14 H :    0.028881
  15 H :    0.011579
  16 S :    0.096037
  17 C :   -0.073557
  18 C :   -0.037890
  19 C :   -0.085866
  20 C :   -0.136455
  21 H :    0.005115
  22 C :    0.087840
  23 H :    0.037216
  24 H :    0.048370
  25 C :   -0.097593
  26 H :    0.032111
  27 H :    0.028416
  28 C :   -0.053307
  29 H :    0.038571
  30 H :    0.041641
  31 H :    0.029438
  32 H :    0.056309
  33 H :    0.059691
Sum of atomic charges:   -0.0000000

LOEWDIN ATOMIC CHARGES
----------------------
   0 S :    0.387706
   1 C :   -0.195746
   2 C :   -0.054115
   3 C :   -0.064298
   4 C :   -0.186771
   5 H :    0.011227
   6 C :   -0.031354
   7 H :    0.032867
   8 H :    0.036683
   9 C :   -0.037709
  10 H :    0.024090
  11 H :    0.030885
  12 C :   -0.059005
  13 H :    0.015721
  14 H :    0.026345
  15 H :    0.024166
  16 S :    0.419489
  17 C :   -0.196712
  18 C :   -0.072613
  19 C :   -0.054623
  20 C :   -0.200752
  21 H :    0.024300
  22 C :   -0.023788
  23 H :    0.024470
  24 H :    0.036649
  25 C :   -0.054632
  26 H :    0.029760
  27 H :    0.028429
  28 C :   -0.067462
  29 H :    0.027380
  30 H :    0.031066
  31 H :    0.021920
  32 H :    0.032512
  33 H :    0.033914

  Mayer bond orders larger than 0.100000
B(  0-S ,  1-C ) :   1.1301 B(  0-S ,  4-C ) :   1.1287 B(  1-C ,  2-C ) :   1.6248
B(  1-C , 32-H ) :   0.9680 B(  2-C ,  3-C ) :   1.2342 B(  2-C ,  6-C ) :   0.9935
B(  3-C ,  4-C ) :   1.5756 B(  3-C ,  5-H ) :   0.9845 B(  4-C , 20-C ) :   1.0828
B(  6-C ,  7-H ) :   0.9354 B(  6-C ,  8-H ) :   0.9394 B(  6-C ,  9-C ) :   1.0777
B(  9-C , 10-H ) :   0.9534 B(  9-C , 11-H ) :   0.9536 B(  9-C , 12-C ) :   1.0738
B( 12-C , 13-H ) :   0.9732 B( 12-C , 14-H ) :   0.9725 B( 12-C , 15-H ) :   0.9724
B( 16-S , 17-C ) :   1.1554 B( 16-S , 20-C ) :   1.1504 B( 17-C , 18-C ) :   1.5886
B( 17-C , 33-H ) :   0.9660 B( 18-C , 19-C ) :   1.2825 B( 18-C , 21-H ) :   0.9832
B( 19-C , 20-C ) :   1.5669 B( 19-C , 22-C ) :   1.0219 B( 22-C , 23-H ) :   0.9291
B( 22-C , 24-H ) :   0.9313 B( 22-C , 25-C ) :   1.0537 B( 25-C , 26-H ) :   0.9571
B( 25-C , 27-H ) :   0.9613 B( 25-C , 28-C ) :   1.0618 B( 28-C , 29-H ) :   0.9765
B( 28-C , 30-H ) :   0.9735 B( 28-C , 31-H ) :   0.9767

Dispersion correction           -0.014208927
FINAL SINGLE POINT ENERGY     -1339.861968876888

DIPOLE MOMENT
-------------
                                X             Y             Z
Electronic contribution:    -19.70502     -19.97280      11.60699
Nuclear contribution   :     20.30744      20.40162     -12.05764
                        -----------------------------------------
Total Dipole Moment    :      0.60241       0.42882      -0.45065
                        -----------------------------------------
Magnitude (a.u.)       :      0.86595
Magnitude (Debye)      :      2.20108

Rotational constants in cm-1:     0.016332     0.009898     0.006630
Rotational constants in MHz :   489.633857   296.741945   198.772444

                             ****ORCA TERMINATED NORMALLY****
TOTAL RUN TIME: 0 days 0 hours 0 minutes 21 seconds 693 msec
