                         Program Version 4.2.1 -  RELEASE  -
|  1> ! wB97X-D3 SP def2-SVP
|  2> %pal
|  3> nprocs 24
|  4> end
|  5>
|  6> * xyz 0 1
|  7> S 	 -75.6425 	 -2.39125 	 7.01862
|  8> C 	 -73.9024 	 -2.05354 	 6.82237
|  9> C 	 -73.163 	 -3.17726 	 6.53491
| 10> C 	 -73.9831 	 -4.29731 	 6.42
| 11> C 	 -75.406 	 -4.05109 	 6.5003
| 12> H 	 -73.5966 	 -5.31139 	 6.36435
| 13> C 	 -71.6665 	 -3.16715 	 6.24998
| 14> H 	 -71.4573 	 -2.68325 	 5.35002
| 15> H 	 -71.4179 	 -4.20335 	 6.06144
| 16> C 	 -70.7254 	 -2.63699 	 7.3655
| 17> H 	 -69.7906 	 -3.08188 	 7.16291
| 18> H 	 -70.6295 	 -1.52324 	 7.34022
| 19> C 	 -71.1674 	 -2.97904 	 8.76298
| 20> H 	 -70.2624 	 -2.69309 	 9.30116
| 21> H 	 -72.1305 	 -2.4532 	 9.03986
| 22> H 	 -71.3788 	 -4.03025 	 8.79328
| 23> S 	 -77.5675 	 -5.21141 	 7.85258
| 24> C 	 -78.0569 	 -6.82562 	 7.40963
| 25> C 	 -77.5814 	 -7.18474 	 6.15051
| 26> C 	 -76.5746 	 -6.28869 	 5.68494
| 27> C 	 -76.4081 	 -5.10924 	 6.5232
| 28> H 	 -77.9213 	 -8.07551 	 5.7139
| 29> C 	 -75.7736 	 -6.56272 	 4.3637
| 30> H 	 -75.7238 	 -7.65487 	 4.27073
| 31> H 	 -74.7394 	 -6.39514 	 4.41659
| 32> C 	 -76.3792 	 -5.9986 	 3.1231
| 33> H 	 -76.2348 	 -4.89539 	 3.23765
| 34> H 	 -77.4131 	 -6.22213 	 3.0592
| 35> C 	 -75.6891 	 -6.47023 	 1.83953
| 36> H 	 -76.2306 	 -6.02276 	 1.01565
| 37> H 	 -75.7405 	 -7.53505 	 1.76381
| 38> H 	 -74.6289 	 -6.09557 	 1.71938
| 39> H 	 -73.3662 	 -1.13076 	 7.04589
| 40> H 	 -78.8985 	 -7.34313 	 7.94988
| 41> *
| 42>
| 43>                          ****END OF INPUT****

CARTESIAN COORDINATES (ANGSTROEM)
---------------------------------
  S    -75.642500   -2.391250    7.018620
  C    -73.902400   -2.053540    6.822370
  C    -73.163000   -3.177260    6.534910
  C    -73.983100   -4.297310    6.420000
  C    -75.406000   -4.051090    6.500300
  H    -73.596600   -5.311390    6.364350
  C    -71.666500   -3.167150    6.249980
  H    -71.457300   -2.683250    5.350020
  H    -71.417900   -4.203350    6.061440
  C    -70.725400   -2.636990    7.365500
  H    -69.790600   -3.081880    7.162910
  H    -70.629500   -1.523240    7.340220
  C    -71.167400   -2.979040    8.762980
  H    -70.262400   -2.693090    9.301160
  H    -72.130500   -2.453200    9.039860
  H    -71.378800   -4.030250    8.793280
  S    -77.567500   -5.211410    7.852580
  C    -78.056900   -6.825620    7.409630
  C    -77.581400   -7.184740    6.150510
  C    -76.574600   -6.288690    5.684940
  C    -76.408100   -5.109240    6.523200
  H    -77.921300   -8.075510    5.713900
  C    -75.773600   -6.562720    4.363700
  H    -75.723800   -7.654870    4.270730
  H    -74.739400   -6.395140    4.416590
  C    -76.379200   -5.998600    3.123100
  H    -76.234800   -4.895390    3.237650
  H    -77.413100   -6.222130    3.059200
  C    -75.689100   -6.470230    1.839530
  H    -76.230600   -6.022760    1.015650
  H    -75.740500   -7.535050    1.763810
  H    -74.628900   -6.095570    1.719380
  H    -73.366200   -1.130760    7.045890
  H    -78.898500   -7.343130    7.949880

 Total Charge           Charge          ....    0
 Multiplicity           Mult            ....    1
 Number of Electrons    NEL             ....  134
 Basis Dimension        Dim             ....  322

ORBITAL ENERGIES
----------------

  NO   OCC          E(Eh)            E(eV)
   0   2.0000     -88.974178     -2421.1105
   1   2.0000     -88.967039     -2420.9162
   2   2.0000     -10.337540      -281.2988
   3   2.0000     -10.335990      -281.2566
   4   2.0000     -10.322940      -280.9015
   5   2.0000     -10.315207      -280.6911
   6   2.0000     -10.314416      -280.6695
   7   2.0000     -10.297250      -280.2024
   8   2.0000     -10.296606      -280.1849
   9   2.0000     -10.295658      -280.1591
  10   2.0000     -10.287610      -279.9401
  11   2.0000     -10.284987      -279.8687
  12   2.0000     -10.284731      -279.8617
  13   2.0000     -10.278616      -279.6954
  14   2.0000     -10.277074      -279.6534
  15   2.0000     -10.274703      -279.5889
  16   2.0000      -8.087640      -220.0759
  17   2.0000      -8.081567      -219.9106
  18   2.0000      -6.046211      -164.5258
  19   2.0000      -6.042316      -164.4198
  20   2.0000      -6.039992      -164.3565
  21   2.0000      -6.038428      -164.3140
  22   2.0000      -6.036006      -164.2481
  23   2.0000      -6.032534      -164.1536
  24   2.0000      -0.999684       -27.2028
  25   2.0000      -0.979718       -26.6595
  26   2.0000      -0.915315       -24.9070
  27   2.0000      -0.909813       -24.7573
  28   2.0000      -0.868599       -23.6358
  29   2.0000      -0.848998       -23.1024
  30   2.0000      -0.846269       -23.0282
  31   2.0000      -0.806774       -21.9534
  32   2.0000      -0.788296       -21.4506
  33   2.0000      -0.772335       -21.0163
  34   2.0000      -0.706185       -19.2163
  35   2.0000      -0.696515       -18.9531
  36   2.0000      -0.690607       -18.7924
  37   2.0000      -0.658379       -17.9154
  38   2.0000      -0.629446       -17.1281
  39   2.0000      -0.615871       -16.7587
  40   2.0000      -0.594773       -16.1846
  41   2.0000      -0.577357       -15.7107
  42   2.0000      -0.566207       -15.4073
  43   2.0000      -0.559774       -15.2322
  44   2.0000      -0.547284       -14.8924
  45   2.0000      -0.523207       -14.2372
  46   2.0000      -0.510174       -13.8826
  47   2.0000      -0.506820       -13.7913
  48   2.0000      -0.505194       -13.7470
  49   2.0000      -0.498226       -13.5574
  50   2.0000      -0.491635       -13.3781
  51   2.0000      -0.479636       -13.0516
  52   2.0000      -0.471818       -12.8388
  53   2.0000      -0.464087       -12.6285
  54   2.0000      -0.456808       -12.4304
  55   2.0000      -0.448966       -12.2170
  56   2.0000      -0.441520       -12.0144
  57   2.0000      -0.435867       -11.8605
  58   2.0000      -0.431297       -11.7362
  59   2.0000      -0.427860       -11.6427
  60   2.0000      -0.420455       -11.4412
  61   2.0000      -0.414973       -11.2920
  62   2.0000      -0.406608       -11.0644
  63   2.0000      -0.347849        -9.4654
  64   2.0000      -0.336231        -9.1493
  65   2.0000      -0.330956        -9.0058
  66   2.0000      -0.280666        -7.6373
  67   0.0000       0.016600         0.4517
  68   0.0000       0.065250         1.7755
  69   0.0000       0.104352         2.8396
  70   0.0000       0.119929         3.2634
  71   0.0000       0.133258         3.6261

MULLIKEN ATOMIC CHARGES
-----------------------
   0 S :    0.115567
   1 C :   -0.121688
   2 C :   -0.113857
   3 C :    0.001766
   4 C :   -0.135533
   5 H :    0.020584
   6 C :    0.126298
   7 H :    0.029380
   8 H :    0.003246
   9 C :   -0.109393
  10 H :    0.022726
  11 H :    0.032434
  12 C :   -0.032906
  13 H :    0.042622
  14 H :    0.049891
  15 H :    0.022010
  16 S :    0.103530
  17 C :   -0.124585
  18 C :   -0.004730
  19 C :   -0.049957
  20 C :   -0.143398
  21 H :    0.005790
  22 C :    0.083195
  23 H :   -0.000821
  24 H :   -0.002823
  25 C :   -0.060029
  26 H :    0.039976
  27 H :    0.020067
  28 C :   -0.044652
  29 H :    0.031370
  30 H :    0.026957
  31 H :    0.039290
  32 H :    0.046605
  33 H :    0.081067
Sum of atomic charges:    0.0000000

LOEWDIN ATOMIC CHARGES
----------------------
   0 S :    0.403348
   1 C :   -0.191025
   2 C :   -0.068492
   3 C :   -0.058607
   4 C :   -0.200438
   5 H :    0.028960
   6 C :   -0.024275
   7 H :    0.027733
   8 H :    0.027894
   9 C :   -0.040606
  10 H :    0.019804
  11 H :    0.023942
  12 C :   -0.066615
  13 H :    0.031541
  14 H :    0.034477
  15 H :    0.020386
  16 S :    0.405767
  17 C :   -0.195576
  18 C :   -0.066402
  19 C :   -0.044748
  20 C :   -0.200566
  21 H :    0.025741
  22 C :   -0.034035
  23 H :    0.025388
  24 H :    0.019344
  25 C :   -0.039592
  26 H :    0.033025
  27 H :    0.019401
  28 C :   -0.063527
  29 H :    0.027078
  30 H :    0.018786
  31 H :    0.031700
  32 H :    0.030237
  33 H :    0.039953

  Mayer bond orders larger than 0.100000
B(  0-S ,  1-C ) :   1.1417 B(  0-S ,  4-C ) :   1.1552 B(  1-C ,  2-C ) :   1.5801
B(  1-C ,  4-C ) :   0.1058 B(  1-C , 32-H ) :   0.9624 B(  2-C ,  3-C ) :   1.3139
B(  2-C ,  6-C ) :   1.0087 B(  3-C ,  4-C ) :   1.5031 B(  3-C ,  5-H ) :   0.9799
B(  4-C , 20-C ) :   1.0920 B(  6-C ,  7-H ) :   0.9387 B(  6-C ,  8-H ) :   0.9328
B(  6-C ,  9-C ) :   1.0677 B(  9-C , 10-H ) :   0.9580 B(  9-C , 11-H ) :   0.9537
B(  9-C , 12-C ) :   1.0943 B( 12-C , 13-H ) :   0.9732 B( 12-C , 14-H ) :   0.9618
B( 12-C , 15-H ) :   0.9754 B( 16-S , 17-C ) :   1.1778 B( 16-S , 20-C ) :   1.1445
B( 17-C , 18-C ) :   1.5691 B( 17-C , 20-C ) :   0.1070 B( 17-C , 33-H ) :   0.9582
B( 18-C , 19-C ) :   1.2804 B( 18-C , 21-H ) :   0.9985 B( 19-C , 20-C ) :   1.5288
B( 19-C , 22-C ) :   1.0281 B( 22-C , 23-H ) :   0.9311 B( 22-C , 24-H ) :   0.9339
B( 22-C , 25-C ) :   1.0730 B( 25-C , 26-H ) :   0.9522 B( 25-C , 27-H ) :   0.9534
B( 25-C , 28-C ) :   1.0871 B( 28-C , 29-H ) :   0.9731 B( 28-C , 30-H ) :   0.9749
B( 28-C , 31-H ) :   0.9732

Dispersion correction           -0.014127974
FINAL SINGLE POINT ENERGY     -1339.861770882826

DIPOLE MOMENT
-------------
                                X             Y             Z
Electronic contribution:    -19.73190       5.16080      13.07404
Nuclear contribution   :     20.21534      -5.50922     -13.37458
                        -----------------------------------------
Total Dipole Moment    :      0.48344      -0.34842      -0.30054
                        -----------------------------------------
Magnitude (a.u.)       :      0.66741
Magnitude (Debye)      :      1.69643

Rotational constants in cm-1:     0.018097     0.008322     0.006676
Rotational constants in MHz :   542.544844   249.497282   200.145123

                             ****ORCA TERMINATED NORMALLY****
TOTAL RUN TIME: 0 days 0 hours 0 minutes 21 seconds 448 msec
