                         Program Version 4.2.1 -  RELEASE  -
|  1> ! wB97X-D3 SP def2-SVP
|  2> %pal
|  3> nprocs 24
|  4> end
|  5>
|  6> * xyz 0 1
|  7> S 	 -122.263 	 27.8491 	 -111.852
|  8> C 	 -121.094 	 27.6905 	 -113.124
|  9> C 	 -121.074 	 28.7436 	 -114.024
| 10> C 	 -122.014 	 29.7524 	 -113.6
| 11> C 	 -122.763 	 29.3482 	 -112.462
| 12> H 	 -122.295 	 30.601 	 -114.101
| 13> C 	 -120.104 	 28.8576 	 -115.156
| 14> H 	 -120.218 	 29.9219 	 -115.537
| 15> H 	 -120.542 	 28.1774 	 -115.911
| 16> C 	 -118.607 	 28.4998 	 -115.016
| 17> H 	 -118.421 	 27.4837 	 -114.666
| 18> H 	 -118.177 	 28.4271 	 -116.041
| 19> C 	 -117.903 	 29.535 	 -114.13
| 20> H 	 -117.818 	 30.5269 	 -114.662
| 21> H 	 -118.266 	 29.7372 	 -113.176
| 22> H 	 -116.825 	 29.2329 	 -114.018
| 23> S 	 -125.362 	 30.2754 	 -112.032
| 24> C 	 -125.705 	 31.2626 	 -110.706
| 25> C 	 -124.544 	 31.6685 	 -110.12
| 26> C 	 -123.396 	 31.1582 	 -110.714
| 27> C 	 -123.64 	 30.2103 	 -111.712
| 28> H 	 -124.63 	 32.2983 	 -109.249
| 29> C 	 -122.047 	 31.7025 	 -110.377
| 30> H 	 -122.17 	 32.5173 	 -109.694
| 31> H 	 -121.616 	 32.1045 	 -111.31
| 32> C 	 -121.228 	 30.708 	 -109.609
| 33> H 	 -120.271 	 31.0743 	 -109.364
| 34> H 	 -121.01 	 29.9443 	 -110.394
| 35> C 	 -121.89 	 30.15 	 -108.336
| 36> H 	 -121.159 	 29.7937 	 -107.696
| 37> H 	 -122.464 	 29.2683 	 -108.617
| 38> H 	 -122.547 	 30.8581 	 -107.894
| 39> H 	 -120.429 	 26.7913 	 -113.256
| 40> H 	 -126.708 	 31.6125 	 -110.38
| 41> *
| 42>
| 43>                          ****END OF INPUT****

CARTESIAN COORDINATES (ANGSTROEM)
---------------------------------
  S    -122.263000   27.849100  -111.852000
  C    -121.094000   27.690500  -113.124000
  C    -121.074000   28.743600  -114.024000
  C    -122.014000   29.752400  -113.600000
  C    -122.763000   29.348200  -112.462000
  H    -122.295000   30.601000  -114.101000
  C    -120.104000   28.857600  -115.156000
  H    -120.218000   29.921900  -115.537000
  H    -120.542000   28.177400  -115.911000
  C    -118.607000   28.499800  -115.016000
  H    -118.421000   27.483700  -114.666000
  H    -118.177000   28.427100  -116.041000
  C    -117.903000   29.535000  -114.130000
  H    -117.818000   30.526900  -114.662000
  H    -118.266000   29.737200  -113.176000
  H    -116.825000   29.232900  -114.018000
  S    -125.362000   30.275400  -112.032000
  C    -125.705000   31.262600  -110.706000
  C    -124.544000   31.668500  -110.120000
  C    -123.396000   31.158200  -110.714000
  C    -123.640000   30.210300  -111.712000
  H    -124.630000   32.298300  -109.249000
  C    -122.047000   31.702500  -110.377000
  H    -122.170000   32.517300  -109.694000
  H    -121.616000   32.104500  -111.310000
  C    -121.228000   30.708000  -109.609000
  H    -120.271000   31.074300  -109.364000
  H    -121.010000   29.944300  -110.394000
  C    -121.890000   30.150000  -108.336000
  H    -121.159000   29.793700  -107.696000
  H    -122.464000   29.268300  -108.617000
  H    -122.547000   30.858100  -107.894000
  H    -120.429000   26.791300  -113.256000
  H    -126.708000   31.612500  -110.380000

 Total Charge           Charge          ....    0
 Multiplicity           Mult            ....    1
 Number of Electrons    NEL             ....  134
 Basis Dimension        Dim             ....  322

ORBITAL ENERGIES
----------------

  NO   OCC          E(Eh)            E(eV)
   0   2.0000     -88.971206     -2421.0296
   1   2.0000     -88.959374     -2420.7076
   2   2.0000     -10.325108      -280.9605
   3   2.0000     -10.318350      -280.7766
   4   2.0000     -10.314808      -280.6802
   5   2.0000     -10.310296      -280.5574
   6   2.0000     -10.303100      -280.3616
   7   2.0000     -10.299445      -280.2622
   8   2.0000     -10.297220      -280.2016
   9   2.0000     -10.294075      -280.1160
  10   2.0000     -10.293649      -280.1044
  11   2.0000     -10.281309      -279.7687
  12   2.0000     -10.280237      -279.7395
  13   2.0000     -10.278900      -279.7031
  14   2.0000     -10.271284      -279.4959
  15   2.0000     -10.263346      -279.2799
  16   2.0000      -8.086319      -220.0399
  17   2.0000      -8.075270      -219.7393
  18   2.0000      -6.044532      -164.4801
  19   2.0000      -6.040624      -164.3737
  20   2.0000      -6.037507      -164.2889
  21   2.0000      -6.033531      -164.1807
  22   2.0000      -6.029460      -164.0700
  23   2.0000      -6.026372      -163.9859
  24   2.0000      -1.012784       -27.5593
  25   2.0000      -0.991615       -26.9832
  26   2.0000      -0.914924       -24.8964
  27   2.0000      -0.912650       -24.8345
  28   2.0000      -0.868775       -23.6406
  29   2.0000      -0.852803       -23.2060
  30   2.0000      -0.844800       -22.9882
  31   2.0000      -0.810379       -22.0515
  32   2.0000      -0.786578       -21.4039
  33   2.0000      -0.773399       -21.0453
  34   2.0000      -0.711835       -19.3700
  35   2.0000      -0.707081       -19.2407
  36   2.0000      -0.685866       -18.6634
  37   2.0000      -0.656230       -17.8569
  38   2.0000      -0.645469       -17.5641
  39   2.0000      -0.606633       -16.5073
  40   2.0000      -0.589400       -16.0384
  41   2.0000      -0.576557       -15.6889
  42   2.0000      -0.559525       -15.2254
  43   2.0000      -0.554147       -15.0791
  44   2.0000      -0.548812       -14.9339
  45   2.0000      -0.540393       -14.7048
  46   2.0000      -0.513401       -13.9703
  47   2.0000      -0.507968       -13.8225
  48   2.0000      -0.500777       -13.6268
  49   2.0000      -0.498540       -13.5660
  50   2.0000      -0.483700       -13.1622
  51   2.0000      -0.481611       -13.1053
  52   2.0000      -0.478777       -13.0282
  53   2.0000      -0.467737       -12.7278
  54   2.0000      -0.462817       -12.5939
  55   2.0000      -0.446659       -12.1542
  56   2.0000      -0.443762       -12.0754
  57   2.0000      -0.442448       -12.0396
  58   2.0000      -0.430924       -11.7260
  59   2.0000      -0.426885       -11.6161
  60   2.0000      -0.417716       -11.3666
  61   2.0000      -0.415627       -11.3098
  62   2.0000      -0.396651       -10.7934
  63   2.0000      -0.333617        -9.0782
  64   2.0000      -0.327330        -8.9071
  65   2.0000      -0.313752        -8.5376
  66   2.0000      -0.310357        -8.4452
  67   0.0000       0.045590         1.2406
  68   0.0000       0.052197         1.4204
  69   0.0000       0.117850         3.2069
  70   0.0000       0.120447         3.2775
  71   0.0000       0.128196         3.4884

MULLIKEN ATOMIC CHARGES
-----------------------
   0 S :    0.147199
   1 C :   -0.157415
   2 C :   -0.075129
   3 C :    0.071561
   4 C :   -0.184960
   5 H :   -0.019101
   6 C :    0.035166
   7 H :    0.031311
   8 H :    0.046474
   9 C :   -0.044836
  10 H :    0.022959
  11 H :    0.034117
  12 C :   -0.058308
  13 H :    0.030558
  14 H :    0.036386
  15 H :    0.033385
  16 S :    0.115744
  17 C :   -0.098494
  18 C :   -0.052550
  19 C :   -0.031111
  20 C :   -0.202511
  21 H :    0.012001
  22 C :    0.116950
  23 H :   -0.003085
  24 H :    0.038407
  25 C :   -0.091174
  26 H :    0.007944
  27 H :    0.031268
  28 C :    0.016445
  29 H :    0.018169
  30 H :    0.026680
  31 H :    0.018699
  32 H :    0.062128
  33 H :    0.065124
Sum of atomic charges:    0.0000000

LOEWDIN ATOMIC CHARGES
----------------------
   0 S :    0.460004
   1 C :   -0.215447
   2 C :   -0.066454
   3 C :   -0.043839
   4 C :   -0.221948
   5 H :    0.016062
   6 C :   -0.041891
   7 H :    0.037506
   8 H :    0.040466
   9 C :   -0.041933
  10 H :    0.021481
  11 H :    0.034222
  12 C :   -0.067355
  13 H :    0.030871
  14 H :    0.017220
  15 H :    0.030985
  16 S :    0.433136
  17 C :   -0.207521
  18 C :   -0.085588
  19 C :   -0.050731
  20 C :   -0.219357
  21 H :    0.029727
  22 C :   -0.028189
  23 H :    0.020420
  24 H :    0.036590
  25 C :   -0.041792
  26 H :    0.011555
  27 H :    0.020964
  28 C :   -0.051877
  29 H :    0.018813
  30 H :    0.029152
  31 H :    0.019654
  32 H :    0.035352
  33 H :    0.039742

  Mayer bond orders larger than 0.100000
B(  0-S ,  1-C ) :   1.1600 B(  0-S ,  4-C ) :   1.1898 B(  1-C ,  2-C ) :   1.5853
B(  1-C , 32-H ) :   0.9605 B(  2-C ,  3-C ) :   1.2562 B(  2-C ,  6-C ) :   1.0139
B(  3-C ,  4-C ) :   1.5460 B(  3-C ,  5-H ) :   1.0042 B(  4-C , 20-C ) :   1.0260
B(  6-C ,  7-H ) :   0.9458 B(  6-C ,  8-H ) :   0.9241 B(  6-C ,  9-C ) :   1.0838
B(  9-C , 10-H ) :   0.9518 B(  9-C , 11-H ) :   0.9497 B(  9-C , 12-C ) :   1.0691
B( 12-C , 13-H ) :   0.9739 B( 12-C , 14-H ) :   0.9814 B( 12-C , 15-H ) :   0.9740
B( 16-S , 17-C ) :   1.1943 B( 16-S , 20-C ) :   1.1563 B( 17-C , 18-C ) :   1.5640
B( 17-C , 20-C ) :   0.1086 B( 17-C , 33-H ) :   0.9613 B( 18-C , 19-C ) :   1.2868
B( 18-C , 21-H ) :   0.9949 B( 19-C , 20-C ) :   1.5416 B( 19-C , 22-C ) :   1.0338
B( 22-C , 23-H ) :   0.9266 B( 22-C , 24-H ) :   0.9382 B( 22-C , 25-C ) :   1.0748
B( 25-C , 26-H ) :   0.9588 B( 25-C , 27-H ) :   0.9570 B( 25-C , 28-C ) :   1.0637
B( 28-C , 29-H ) :   0.9730 B( 28-C , 30-H ) :   0.9664 B( 28-C , 31-H ) :   0.9787

Dispersion correction           -0.015946148
FINAL SINGLE POINT ENERGY     -1339.870108207384

DIPOLE MOMENT
-------------
                                X             Y             Z
Electronic contribution:    -23.56646      -4.80310      -0.76361
Nuclear contribution   :     24.09463       4.99326       0.65292
                        -----------------------------------------
Total Dipole Moment    :      0.52817       0.19015      -0.11069
                        -----------------------------------------
Magnitude (a.u.)       :      0.57217
Magnitude (Debye)      :      1.45433

Rotational constants in cm-1:     0.022947     0.008535     0.007489
Rotational constants in MHz :   687.940217   255.881823   224.499707

                             ****ORCA TERMINATED NORMALLY****
TOTAL RUN TIME: 0 days 0 hours 0 minutes 22 seconds 748 msec
