                         Program Version 4.2.1 -  RELEASE  -
|  1> ! wB97X-D3 SP def2-SVP
|  2> %pal
|  3> nprocs 24
|  4> end
|  5>
|  6> * xyz 0 1
|  7> S 	 -127.419 	 63.786 	 -36.816
|  8> C 	 -127.507 	 63.1112 	 -38.4765
|  9> C 	 -127.805 	 64.0686 	 -39.405
| 10> C 	 -127.934 	 65.395 	 -38.823
| 11> C 	 -127.607 	 65.4596 	 -37.5055
| 12> H 	 -128.184 	 66.3042 	 -39.3166
| 13> C 	 -127.823 	 63.8706 	 -40.9213
| 14> H 	 -128.629 	 64.472 	 -41.3485
| 15> H 	 -128.119 	 62.8774 	 -41.0864
| 16> C 	 -126.551 	 64.242 	 -41.5577
| 17> H 	 -126.68 	 64.2353 	 -42.6173
| 18> H 	 -126.285 	 65.2519 	 -41.2322
| 19> C 	 -125.358 	 63.3673 	 -41.1773
| 20> H 	 -124.489 	 63.7508 	 -41.7248
| 21> H 	 -125.124 	 63.2931 	 -40.0872
| 22> H 	 -125.48 	 62.2606 	 -41.4987
| 23> S 	 -128.697 	 66.7552 	 -35.3013
| 24> C 	 -128.231 	 68.3426 	 -34.9565
| 25> C 	 -127.34 	 68.8603 	 -35.8054
| 26> C 	 -127.089 	 67.9656 	 -36.9327
| 27> C 	 -127.585 	 66.6775 	 -36.6647
| 28> H 	 -127.051 	 69.8771 	 -35.7584
| 29> C 	 -126.157 	 68.2868 	 -38.0735
| 30> H 	 -126.299 	 69.3279 	 -38.4265
| 31> H 	 -126.262 	 67.6017 	 -38.8789
| 32> C 	 -124.692 	 68.1133 	 -37.6467
| 33> H 	 -124.539 	 67.1273 	 -37.372
| 34> H 	 -124.449 	 68.7598 	 -36.7562
| 35> C 	 -123.795 	 68.4199 	 -38.8455
| 36> H 	 -124.28 	 68.0811 	 -39.7829
| 37> H 	 -122.839 	 67.9068 	 -38.6927
| 38> H 	 -123.581 	 69.46 	 -39.0515
| 39> H 	 -127.259 	 62.0811 	 -38.7671
| 40> H 	 -128.543 	 68.9252 	 -34.0908
| 41> *
| 42>
| 43>                          ****END OF INPUT****

CARTESIAN COORDINATES (ANGSTROEM)
---------------------------------
  S    -127.419000   63.786000  -36.816000
  C    -127.507000   63.111200  -38.476500
  C    -127.805000   64.068600  -39.405000
  C    -127.934000   65.395000  -38.823000
  C    -127.607000   65.459600  -37.505500
  H    -128.184000   66.304200  -39.316600
  C    -127.823000   63.870600  -40.921300
  H    -128.629000   64.472000  -41.348500
  H    -128.119000   62.877400  -41.086400
  C    -126.551000   64.242000  -41.557700
  H    -126.680000   64.235300  -42.617300
  H    -126.285000   65.251900  -41.232200
  C    -125.358000   63.367300  -41.177300
  H    -124.489000   63.750800  -41.724800
  H    -125.124000   63.293100  -40.087200
  H    -125.480000   62.260600  -41.498700
  S    -128.697000   66.755200  -35.301300
  C    -128.231000   68.342600  -34.956500
  C    -127.340000   68.860300  -35.805400
  C    -127.089000   67.965600  -36.932700
  C    -127.585000   66.677500  -36.664700
  H    -127.051000   69.877100  -35.758400
  C    -126.157000   68.286800  -38.073500
  H    -126.299000   69.327900  -38.426500
  H    -126.262000   67.601700  -38.878900
  C    -124.692000   68.113300  -37.646700
  H    -124.539000   67.127300  -37.372000
  H    -124.449000   68.759800  -36.756200
  C    -123.795000   68.419900  -38.845500
  H    -124.280000   68.081100  -39.782900
  H    -122.839000   67.906800  -38.692700
  H    -123.581000   69.460000  -39.051500
  H    -127.259000   62.081100  -38.767100
  H    -128.543000   68.925200  -34.090800

 Total Charge           Charge          ....    0
 Multiplicity           Mult            ....    1
 Number of Electrons    NEL             ....  134
 Basis Dimension        Dim             ....  322

ORBITAL ENERGIES
----------------

  NO   OCC          E(Eh)            E(eV)
   0   2.0000     -88.964966     -2420.8598
   1   2.0000     -88.962756     -2420.7997
   2   2.0000     -10.334709      -281.2217
   3   2.0000     -10.327726      -281.0317
   4   2.0000     -10.318377      -280.7773
   5   2.0000     -10.309693      -280.5410
   6   2.0000     -10.307893      -280.4920
   7   2.0000     -10.302199      -280.3371
   8   2.0000     -10.293323      -280.0956
   9   2.0000     -10.289502      -279.9916
  10   2.0000     -10.288176      -279.9555
  11   2.0000     -10.285694      -279.8880
  12   2.0000     -10.284616      -279.8586
  13   2.0000     -10.283541      -279.8294
  14   2.0000     -10.280988      -279.7599
  15   2.0000     -10.276569      -279.6397
  16   2.0000      -8.078721      -219.8332
  17   2.0000      -8.078130      -219.8171
  18   2.0000      -6.037163      -164.2795
  19   2.0000      -6.036973      -164.2744
  20   2.0000      -6.033108      -164.1692
  21   2.0000      -6.033090      -164.1687
  22   2.0000      -6.029429      -164.0691
  23   2.0000      -6.028389      -164.0408
  24   2.0000      -1.005934       -27.3729
  25   2.0000      -0.981629       -26.7115
  26   2.0000      -0.920057       -25.0360
  27   2.0000      -0.915050       -24.8998
  28   2.0000      -0.869533       -23.6612
  29   2.0000      -0.850153       -23.1338
  30   2.0000      -0.839484       -22.8435
  31   2.0000      -0.817610       -22.2483
  32   2.0000      -0.784162       -21.3381
  33   2.0000      -0.771964       -21.0062
  34   2.0000      -0.707363       -19.2483
  35   2.0000      -0.696872       -18.9629
  36   2.0000      -0.691704       -18.8222
  37   2.0000      -0.658743       -17.9253
  38   2.0000      -0.640630       -17.4324
  39   2.0000      -0.622948       -16.9513
  40   2.0000      -0.602004       -16.3814
  41   2.0000      -0.575988       -15.6734
  42   2.0000      -0.568316       -15.4647
  43   2.0000      -0.548183       -14.9168
  44   2.0000      -0.545329       -14.8392
  45   2.0000      -0.524055       -14.2603
  46   2.0000      -0.521741       -14.1973
  47   2.0000      -0.508213       -13.8292
  48   2.0000      -0.503171       -13.6920
  49   2.0000      -0.498006       -13.5514
  50   2.0000      -0.486756       -13.2453
  51   2.0000      -0.484371       -13.1804
  52   2.0000      -0.464249       -12.6329
  53   2.0000      -0.462252       -12.5785
  54   2.0000      -0.457469       -12.4484
  55   2.0000      -0.452959       -12.3256
  56   2.0000      -0.442323       -12.0362
  57   2.0000      -0.439164       -11.9502
  58   2.0000      -0.435163       -11.8414
  59   2.0000      -0.424406       -11.5487
  60   2.0000      -0.423975       -11.5369
  61   2.0000      -0.419580       -11.4173
  62   2.0000      -0.414452       -11.2778
  63   2.0000      -0.350795        -9.5456
  64   2.0000      -0.329350        -8.9621
  65   2.0000      -0.327364        -8.9080
  66   2.0000      -0.295833        -8.0500
  67   0.0000       0.031706         0.8628
  68   0.0000       0.070095         1.9074
  69   0.0000       0.108845         2.9618
  70   0.0000       0.113555         3.0900
  71   0.0000       0.130629         3.5546

MULLIKEN ATOMIC CHARGES
-----------------------
   0 S :    0.085163
   1 C :   -0.118975
   2 C :   -0.116980
   3 C :    0.040034
   4 C :   -0.150814
   5 H :    0.011788
   6 C :    0.114265
   7 H :    0.022517
   8 H :    0.000958
   9 C :   -0.025790
  10 H :    0.028918
  11 H :    0.021649
  12 C :   -0.106331
  13 H :    0.038241
  14 H :    0.055394
  15 H :    0.029715
  16 S :    0.110612
  17 C :   -0.067556
  18 C :   -0.016099
  19 C :   -0.061234
  20 C :   -0.142156
  21 H :    0.006433
  22 C :    0.056636
  23 H :    0.030433
  24 H :    0.002528
  25 C :   -0.056770
  26 H :    0.017421
  27 H :    0.034595
  28 C :   -0.040855
  29 H :    0.022014
  30 H :    0.036785
  31 H :    0.028171
  32 H :    0.053475
  33 H :    0.055814
Sum of atomic charges:   -0.0000000

LOEWDIN ATOMIC CHARGES
----------------------
   0 S :    0.345999
   1 C :   -0.183358
   2 C :   -0.057918
   3 C :   -0.057092
   4 C :   -0.166419
   5 H :    0.028370
   6 C :   -0.027082
   7 H :    0.033837
   8 H :    0.020459
   9 C :   -0.039869
  10 H :    0.024350
  11 H :    0.025841
  12 C :   -0.075832
  13 H :    0.027162
  14 H :    0.030304
  15 H :    0.027448
  16 S :    0.420442
  17 C :   -0.195818
  18 C :   -0.073829
  19 C :   -0.043268
  20 C :   -0.203175
  21 H :    0.026753
  22 C :   -0.032682
  23 H :    0.033220
  24 H :    0.020328
  25 C :   -0.029810
  26 H :    0.016515
  27 H :    0.028580
  28 C :   -0.067455
  29 H :    0.025413
  30 H :    0.028854
  31 H :    0.021902
  32 H :    0.033445
  33 H :    0.034385

  Mayer bond orders larger than 0.100000
B(  0-S ,  1-C ) :   1.1014 B(  0-S ,  4-C ) :   1.1109 B(  1-C ,  2-C ) :   1.6828
B(  1-C , 32-H ) :   0.9610 B(  2-C ,  3-C ) :   1.1740 B(  2-C ,  6-C ) :   1.0255
B(  3-C ,  4-C ) :   1.6397 B(  3-C ,  5-H ) :   0.9913 B(  4-C , 20-C ) :   1.0247
B(  6-C ,  7-H ) :   0.9325 B(  6-C ,  8-H ) :   0.9337 B(  6-C ,  9-C ) :   1.0841
B(  9-C , 10-H ) :   0.9502 B(  9-C , 11-H ) :   0.9484 B(  9-C , 12-C ) :   1.0785
B( 12-C , 13-H ) :   0.9730 B( 12-C , 14-H ) :   0.9721 B( 12-C , 15-H ) :   0.9734
B( 16-S , 17-C ) :   1.1608 B( 16-S , 20-C ) :   1.1375 B( 17-C , 18-C ) :   1.6429
B( 17-C , 33-H ) :   0.9584 B( 18-C , 19-C ) :   1.2132 B( 18-C , 21-H ) :   0.9914
B( 19-C , 20-C ) :   1.5990 B( 19-C , 22-C ) :   1.0729 B( 22-C , 23-H ) :   0.9335
B( 22-C , 24-H ) :   0.9292 B( 22-C , 25-C ) :   1.0716 B( 25-C , 26-H ) :   0.9560
B( 25-C , 27-H ) :   0.9546 B( 25-C , 28-C ) :   1.0767 B( 28-C , 29-H ) :   0.9716
B( 28-C , 30-H ) :   0.9746 B( 28-C , 31-H ) :   0.9752

Dispersion correction           -0.014891646
FINAL SINGLE POINT ENERGY     -1339.882305270621

DIPOLE MOMENT
-------------
                                X             Y             Z
Electronic contribution:    -17.93120      -4.13403      23.54980
Nuclear contribution   :     18.16911       4.55314     -24.18542
                        -----------------------------------------
Total Dipole Moment    :      0.23791       0.41910      -0.63562
                        -----------------------------------------
Magnitude (a.u.)       :      0.79766
Magnitude (Debye)      :      2.02748

Rotational constants in cm-1:     0.018130     0.009800     0.007186
Rotational constants in MHz :   543.526777   293.811040   215.427128

                             ****ORCA TERMINATED NORMALLY****
TOTAL RUN TIME: 0 days 0 hours 0 minutes 22 seconds 486 msec
