                         Program Version 4.2.1 -  RELEASE  -
|  1> ! wB97X-D3 SP def2-SVP
|  2> %pal
|  3> nprocs 24
|  4> end
|  5>
|  6> * xyz 0 1
|  7> S 	 -30.4448 	 -50.0883 	 -77.6069
|  8> C 	 -28.8396 	 -50.5025 	 -77.2264
|  9> C 	 -28.2211 	 -49.5441 	 -76.3853
| 10> C 	 -29.1951 	 -48.7427 	 -75.7458
| 11> C 	 -30.4702 	 -49.0028 	 -76.1891
| 12> H 	 -28.8775 	 -47.9963 	 -74.9569
| 13> C 	 -26.6858 	 -49.3909 	 -76.1598
| 14> H 	 -26.191 	 -50.2859 	 -75.7308
| 15> H 	 -26.4522 	 -48.6142 	 -75.4814
| 16> C 	 -25.9662 	 -49.0977 	 -77.478
| 17> H 	 -24.9281 	 -49.0552 	 -77.2403
| 18> H 	 -25.8737 	 -50.0103 	 -78.0309
| 19> C 	 -26.5433 	 -47.956 	 -78.3636
| 20> H 	 -27.4918 	 -48.3364 	 -78.7789
| 21> H 	 -26.805 	 -47.0325 	 -77.6863
| 22> H 	 -25.8797 	 -47.6887 	 -79.1998
| 23> S 	 -32.8283 	 -49.2898 	 -74.7352
| 24> C 	 -33.6331 	 -47.807 	 -74.2531
| 25> C 	 -33.1037 	 -46.6725 	 -74.8559
| 26> C 	 -31.8812 	 -46.9438 	 -75.5808
| 27> C 	 -31.6867 	 -48.3468 	 -75.7169
| 28> H 	 -33.5426 	 -45.7048 	 -74.6311
| 29> C 	 -31.1244 	 -45.8259 	 -76.244
| 30> H 	 -30.3816 	 -46.326 	 -76.8716
| 31> H 	 -30.6252 	 -45.1655 	 -75.4981
| 32> C 	 -31.8644 	 -44.8689 	 -77.1544
| 33> H 	 -32.748 	 -44.4445 	 -76.6026
| 34> H 	 -32.2625 	 -45.5361 	 -77.8798
| 35> C 	 -30.9914 	 -43.7829 	 -77.7832
| 36> H 	 -31.5222 	 -43.0543 	 -78.369
| 37> H 	 -30.2646 	 -44.267 	 -78.4269
| 38> H 	 -30.5315 	 -43.1587 	 -76.9332
| 39> H 	 -28.3088 	 -51.1982 	 -77.9205
| 40> H 	 -34.3727 	 -47.814 	 -73.419
| 41> *
| 42>
| 43>                          ****END OF INPUT****

CARTESIAN COORDINATES (ANGSTROEM)
---------------------------------
  S    -30.444800  -50.088300  -77.606900
  C    -28.839600  -50.502500  -77.226400
  C    -28.221100  -49.544100  -76.385300
  C    -29.195100  -48.742700  -75.745800
  C    -30.470200  -49.002800  -76.189100
  H    -28.877500  -47.996300  -74.956900
  C    -26.685800  -49.390900  -76.159800
  H    -26.191000  -50.285900  -75.730800
  H    -26.452200  -48.614200  -75.481400
  C    -25.966200  -49.097700  -77.478000
  H    -24.928100  -49.055200  -77.240300
  H    -25.873700  -50.010300  -78.030900
  C    -26.543300  -47.956000  -78.363600
  H    -27.491800  -48.336400  -78.778900
  H    -26.805000  -47.032500  -77.686300
  H    -25.879700  -47.688700  -79.199800
  S    -32.828300  -49.289800  -74.735200
  C    -33.633100  -47.807000  -74.253100
  C    -33.103700  -46.672500  -74.855900
  C    -31.881200  -46.943800  -75.580800
  C    -31.686700  -48.346800  -75.716900
  H    -33.542600  -45.704800  -74.631100
  C    -31.124400  -45.825900  -76.244000
  H    -30.381600  -46.326000  -76.871600
  H    -30.625200  -45.165500  -75.498100
  C    -31.864400  -44.868900  -77.154400
  H    -32.748000  -44.444500  -76.602600
  H    -32.262500  -45.536100  -77.879800
  C    -30.991400  -43.782900  -77.783200
  H    -31.522200  -43.054300  -78.369000
  H    -30.264600  -44.267000  -78.426900
  H    -30.531500  -43.158700  -76.933200
  H    -28.308800  -51.198200  -77.920500
  H    -34.372700  -47.814000  -73.419000

 Total Charge           Charge          ....    0
 Multiplicity           Mult            ....    1
 Number of Electrons    NEL             ....  134
 Basis Dimension        Dim             ....  322

ORBITAL ENERGIES
----------------

  NO   OCC          E(Eh)            E(eV)
   0   2.0000     -88.966684     -2420.9065
   1   2.0000     -88.966672     -2420.9062
   2   2.0000     -10.328446      -281.0513
   3   2.0000     -10.327338      -281.0212
   4   2.0000     -10.322602      -280.8923
   5   2.0000     -10.314751      -280.6786
   6   2.0000     -10.310164      -280.5538
   7   2.0000     -10.303914      -280.3838
   8   2.0000     -10.297574      -280.2112
   9   2.0000     -10.296418      -280.1798
  10   2.0000     -10.294122      -280.1173
  11   2.0000     -10.290266      -280.0124
  12   2.0000     -10.288830      -279.9733
  13   2.0000     -10.284981      -279.8686
  14   2.0000     -10.283956      -279.8407
  15   2.0000     -10.280365      -279.7429
  16   2.0000      -8.081777      -219.9163
  17   2.0000      -8.080993      -219.8950
  18   2.0000      -6.040000      -164.3568
  19   2.0000      -6.039439      -164.3415
  20   2.0000      -6.036487      -164.2612
  21   2.0000      -6.035553      -164.2358
  22   2.0000      -6.032571      -164.1546
  23   2.0000      -6.031848      -164.1349
  24   2.0000      -1.002604       -27.2823
  25   2.0000      -0.979898       -26.6644
  26   2.0000      -0.912814       -24.8389
  27   2.0000      -0.906773       -24.6746
  28   2.0000      -0.864253       -23.5175
  29   2.0000      -0.849842       -23.1254
  30   2.0000      -0.845473       -23.0065
  31   2.0000      -0.805101       -21.9079
  32   2.0000      -0.783214       -21.3123
  33   2.0000      -0.767566       -20.8865
  34   2.0000      -0.701861       -19.0986
  35   2.0000      -0.699227       -19.0269
  36   2.0000      -0.687698       -18.7132
  37   2.0000      -0.652732       -17.7617
  38   2.0000      -0.635776       -17.3004
  39   2.0000      -0.614790       -16.7293
  40   2.0000      -0.596036       -16.2190
  41   2.0000      -0.574774       -15.6404
  42   2.0000      -0.566228       -15.4079
  43   2.0000      -0.550737       -14.9863
  44   2.0000      -0.533825       -14.5261
  45   2.0000      -0.522243       -14.2110
  46   2.0000      -0.513507       -13.9732
  47   2.0000      -0.502765       -13.6809
  48   2.0000      -0.496650       -13.5145
  49   2.0000      -0.485744       -13.2178
  50   2.0000      -0.482890       -13.1401
  51   2.0000      -0.476704       -12.9718
  52   2.0000      -0.467960       -12.7338
  53   2.0000      -0.466999       -12.7077
  54   2.0000      -0.457648       -12.4532
  55   2.0000      -0.455422       -12.3927
  56   2.0000      -0.443457       -12.0671
  57   2.0000      -0.438485       -11.9318
  58   2.0000      -0.433718       -11.8021
  59   2.0000      -0.428415       -11.6578
  60   2.0000      -0.420172       -11.4335
  61   2.0000      -0.415005       -11.2929
  62   2.0000      -0.407851       -11.0982
  63   2.0000      -0.343589        -9.3495
  64   2.0000      -0.329306        -8.9609
  65   2.0000      -0.322543        -8.7768
  66   2.0000      -0.292624        -7.9627
  67   0.0000       0.030408         0.8275
  68   0.0000       0.054881         1.4934
  69   0.0000       0.104576         2.8457
  70   0.0000       0.116552         3.1716
  71   0.0000       0.120485         3.2786

MULLIKEN ATOMIC CHARGES
-----------------------
   0 S :    0.118855
   1 C :   -0.131694
   2 C :   -0.121577
   3 C :    0.027048
   4 C :   -0.172477
   5 H :    0.039736
   6 C :    0.085285
   7 H :    0.040334
   8 H :    0.008879
   9 C :   -0.073791
  10 H :    0.006771
  11 H :    0.007692
  12 C :   -0.064128
  13 H :    0.045050
  14 H :    0.044110
  15 H :    0.047639
  16 S :    0.111093
  17 C :   -0.117573
  18 C :   -0.026506
  19 C :   -0.028104
  20 C :   -0.149083
  21 H :    0.024680
  22 C :    0.053223
  23 H :    0.025669
  24 H :    0.028258
  25 C :   -0.090586
  26 H :    0.030018
  27 H :    0.022612
  28 C :   -0.040661
  29 H :    0.034563
  30 H :    0.038680
  31 H :    0.036575
  32 H :    0.064021
  33 H :    0.075389
Sum of atomic charges:    0.0000000

LOEWDIN ATOMIC CHARGES
----------------------
   0 S :    0.413535
   1 C :   -0.217781
   2 C :   -0.062897
   3 C :   -0.062194
   4 C :   -0.194474
   5 H :    0.046316
   6 C :   -0.025437
   7 H :    0.039510
   8 H :    0.020255
   9 C :   -0.051136
  10 H :    0.018541
  11 H :    0.017729
  12 C :   -0.071917
  13 H :    0.028336
  14 H :    0.035316
  15 H :    0.029105
  16 S :    0.400158
  17 C :   -0.184306
  18 C :   -0.073790
  19 C :   -0.042517
  20 C :   -0.205187
  21 H :    0.031673
  22 C :   -0.038447
  23 H :    0.030601
  24 H :    0.031689
  25 C :   -0.044752
  26 H :    0.023024
  27 H :    0.020313
  28 C :   -0.063464
  29 H :    0.025067
  30 H :    0.027280
  31 H :    0.034128
  32 H :    0.029580
  33 H :    0.036143

  Mayer bond orders larger than 0.100000
B(  0-S ,  1-C ) :   1.1645 B(  0-S ,  4-C ) :   1.1539 B(  1-C ,  2-C ) :   1.5633
B(  1-C ,  4-C ) :   0.1019 B(  1-C , 32-H ) :   0.9639 B(  2-C ,  3-C ) :   1.2804
B(  2-C ,  6-C ) :   1.0131 B(  3-C ,  4-C ) :   1.5504 B(  3-C ,  5-H ) :   0.9880
B(  4-C , 20-C ) :   1.0274 B(  6-C ,  7-H ) :   0.9417 B(  6-C ,  8-H ) :   0.9450
B(  6-C ,  9-C ) :   1.0822 B(  9-C , 10-H ) :   0.9516 B(  9-C , 11-H ) :   0.9501
B(  9-C , 12-C ) :   1.0583 B( 12-C , 13-H ) :   0.9689 B( 12-C , 14-H ) :   0.9775
B( 12-C , 15-H ) :   0.9743 B( 16-S , 17-C ) :   1.1652 B( 16-S , 20-C ) :   1.1376
B( 17-C , 18-C ) :   1.6097 B( 17-C , 33-H ) :   0.9606 B( 18-C , 19-C ) :   1.2247
B( 18-C , 21-H ) :   0.9875 B( 19-C , 20-C ) :   1.5805 B( 19-C , 22-C ) :   1.0561
B( 22-C , 23-H ) :   0.9356 B( 22-C , 24-H ) :   0.9243 B( 22-C , 25-C ) :   1.0631
B( 25-C , 26-H ) :   0.9503 B( 25-C , 27-H ) :   0.9543 B( 25-C , 28-C ) :   1.0849
B( 28-C , 29-H ) :   0.9738 B( 28-C , 30-H ) :   0.9744 B( 28-C , 31-H ) :   0.9717

Dispersion correction           -0.014787218
FINAL SINGLE POINT ENERGY     -1339.866100332893

DIPOLE MOMENT
-------------
                                X             Y             Z
Electronic contribution:    -18.12605     -19.94658       8.77359
Nuclear contribution   :     18.57791      20.47736      -8.73548
                        -----------------------------------------
Total Dipole Moment    :      0.45186       0.53078       0.03810
                        -----------------------------------------
Magnitude (a.u.)       :      0.69811
Magnitude (Debye)      :      1.77446

Rotational constants in cm-1:     0.017361     0.009304     0.006899
Rotational constants in MHz :   520.477186   278.920367   206.839909

                             ****ORCA TERMINATED NORMALLY****
TOTAL RUN TIME: 0 days 0 hours 0 minutes 21 seconds 642 msec
