                         Program Version 4.2.1 -  RELEASE  -
|  1> ! wB97X-D3 SP def2-SVP
|  2> %pal
|  3> nprocs 24
|  4> end
|  5>
|  6> * xyz 0 1
|  7> S 	 -36.8452 	 -10.9964 	 20.1866
|  8> C 	 -37.2284 	 -9.33089 	 19.9648
|  9> C 	 -36.5379 	 -8.74481 	 18.9778
| 10> C 	 -35.6641 	 -9.73501 	 18.3367
| 11> C 	 -35.7695 	 -11.0363 	 18.8675
| 12> H 	 -34.9942 	 -9.58538 	 17.5125
| 13> C 	 -36.6955 	 -7.27518 	 18.6453
| 14> H 	 -35.7979 	 -6.72224 	 18.7729
| 15> H 	 -37.43 	 -6.85686 	 19.3322
| 16> C 	 -37.2242 	 -6.87422 	 17.1941
| 17> H 	 -37.0935 	 -5.81944 	 17.1031
| 18> H 	 -36.5894 	 -7.37121 	 16.41
| 19> C 	 -38.7305 	 -7.11633 	 17.0909
| 20> H 	 -39.0713 	 -6.88326 	 16.0968
| 21> H 	 -39.0497 	 -8.08263 	 17.359
| 22> H 	 -39.2344 	 -6.48385 	 17.8487
| 23> S 	 -34.1418 	 -13.1649 	 19.509
| 24> C 	 -33.9052 	 -14.4285 	 18.3566
| 25> C 	 -34.4873 	 -14.1836 	 17.1631
| 26> C 	 -35.1944 	 -12.9336 	 17.1333
| 27> C 	 -35.1714 	 -12.3055 	 18.3772
| 28> H 	 -34.401 	 -14.7719 	 16.3394
| 29> C 	 -35.9879 	 -12.4509 	 15.968
| 30> H 	 -36.5546 	 -11.5011 	 16.1758
| 31> H 	 -36.7672 	 -13.1889 	 15.7907
| 32> C 	 -35.0569 	 -12.2771 	 14.6519
| 33> H 	 -34.4075 	 -13.1334 	 14.6221
| 34> H 	 -34.3152 	 -11.4545 	 14.7814
| 35> C 	 -36.0404 	 -12.1662 	 13.4816
| 36> H 	 -36.662 	 -11.1929 	 13.6107
| 37> H 	 -36.6403 	 -13.0877 	 13.4204
| 38> H 	 -35.5925 	 -11.974 	 12.5407
| 39> H 	 -37.8785 	 -8.72392 	 20.6968
| 40> H 	 -33.3477 	 -15.381 	 18.5417
| 41> *
| 42>
| 43>                          ****END OF INPUT****

CARTESIAN COORDINATES (ANGSTROEM)
---------------------------------
  S    -36.845200  -10.996400   20.186600
  C    -37.228400   -9.330890   19.964800
  C    -36.537900   -8.744810   18.977800
  C    -35.664100   -9.735010   18.336700
  C    -35.769500  -11.036300   18.867500
  H    -34.994200   -9.585380   17.512500
  C    -36.695500   -7.275180   18.645300
  H    -35.797900   -6.722240   18.772900
  H    -37.430000   -6.856860   19.332200
  C    -37.224200   -6.874220   17.194100
  H    -37.093500   -5.819440   17.103100
  H    -36.589400   -7.371210   16.410000
  C    -38.730500   -7.116330   17.090900
  H    -39.071300   -6.883260   16.096800
  H    -39.049700   -8.082630   17.359000
  H    -39.234400   -6.483850   17.848700
  S    -34.141800  -13.164900   19.509000
  C    -33.905200  -14.428500   18.356600
  C    -34.487300  -14.183600   17.163100
  C    -35.194400  -12.933600   17.133300
  C    -35.171400  -12.305500   18.377200
  H    -34.401000  -14.771900   16.339400
  C    -35.987900  -12.450900   15.968000
  H    -36.554600  -11.501100   16.175800
  H    -36.767200  -13.188900   15.790700
  C    -35.056900  -12.277100   14.651900
  H    -34.407500  -13.133400   14.622100
  H    -34.315200  -11.454500   14.781400
  C    -36.040400  -12.166200   13.481600
  H    -36.662000  -11.192900   13.610700
  H    -36.640300  -13.087700   13.420400
  H    -35.592500  -11.974000   12.540700
  H    -37.878500   -8.723920   20.696800
  H    -33.347700  -15.381000   18.541700

 Total Charge           Charge          ....    0
 Multiplicity           Mult            ....    1
 Number of Electrons    NEL             ....  134
 Basis Dimension        Dim             ....  322

ORBITAL ENERGIES
----------------

  NO   OCC          E(Eh)            E(eV)
   0   2.0000     -88.963757     -2420.8269
   1   2.0000     -88.961664     -2420.7700
   2   2.0000     -10.328866      -281.0627
   3   2.0000     -10.326438      -280.9967
   4   2.0000     -10.316964      -280.7389
   5   2.0000     -10.312496      -280.6173
   6   2.0000     -10.301883      -280.3285
   7   2.0000     -10.300914      -280.3021
   8   2.0000     -10.297092      -280.1981
   9   2.0000     -10.294732      -280.1339
  10   2.0000     -10.294433      -280.1258
  11   2.0000     -10.292482      -280.0727
  12   2.0000     -10.291071      -280.0343
  13   2.0000     -10.285976      -279.8956
  14   2.0000     -10.284799      -279.8636
  15   2.0000     -10.272547      -279.5302
  16   2.0000      -8.079094      -219.8433
  17   2.0000      -8.077963      -219.8125
  18   2.0000      -6.037540      -164.2898
  19   2.0000      -6.036384      -164.2583
  20   2.0000      -6.033551      -164.1813
  21   2.0000      -6.032116      -164.1422
  22   2.0000      -6.029853      -164.0806
  23   2.0000      -6.028852      -164.0534
  24   2.0000      -1.009253       -27.4632
  25   2.0000      -0.989653       -26.9298
  26   2.0000      -0.908626       -24.7250
  27   2.0000      -0.903863       -24.5954
  28   2.0000      -0.870077       -23.6760
  29   2.0000      -0.850665       -23.1478
  30   2.0000      -0.843555       -22.9543
  31   2.0000      -0.814727       -22.1698
  32   2.0000      -0.782861       -21.3027
  33   2.0000      -0.766581       -20.8597
  34   2.0000      -0.709838       -19.3157
  35   2.0000      -0.702765       -19.1232
  36   2.0000      -0.686119       -18.6702
  37   2.0000      -0.663244       -18.0478
  38   2.0000      -0.639220       -17.3941
  39   2.0000      -0.616540       -16.7769
  40   2.0000      -0.597910       -16.2700
  41   2.0000      -0.570697       -15.5294
  42   2.0000      -0.558432       -15.1957
  43   2.0000      -0.549862       -14.9625
  44   2.0000      -0.543654       -14.7936
  45   2.0000      -0.522235       -14.2107
  46   2.0000      -0.513938       -13.9850
  47   2.0000      -0.512690       -13.9510
  48   2.0000      -0.504708       -13.7338
  49   2.0000      -0.493318       -13.4239
  50   2.0000      -0.487875       -13.2758
  51   2.0000      -0.479267       -13.0415
  52   2.0000      -0.468932       -12.7603
  53   2.0000      -0.462000       -12.5717
  54   2.0000      -0.459007       -12.4902
  55   2.0000      -0.455674       -12.3995
  56   2.0000      -0.443149       -12.0587
  57   2.0000      -0.440472       -11.9858
  58   2.0000      -0.434566       -11.8252
  59   2.0000      -0.427724       -11.6390
  60   2.0000      -0.425169       -11.5694
  61   2.0000      -0.420200       -11.4342
  62   2.0000      -0.408534       -11.1168
  63   2.0000      -0.342338        -9.3155
  64   2.0000      -0.331096        -9.0096
  65   2.0000      -0.325024        -8.8444
  66   2.0000      -0.300651        -8.1811
  67   0.0000       0.040240         1.0950
  68   0.0000       0.075438         2.0528
  69   0.0000       0.119269         3.2455
  70   0.0000       0.123432         3.3588
  71   0.0000       0.128343         3.4924

MULLIKEN ATOMIC CHARGES
-----------------------
   0 S :    0.119839
   1 C :   -0.152308
   2 C :   -0.071721
   3 C :    0.046184
   4 C :   -0.174223
   5 H :   -0.000151
   6 C :    0.065413
   7 H :    0.029686
   8 H :    0.004866
   9 C :   -0.084278
  10 H :    0.025371
  11 H :    0.039705
  12 C :   -0.026612
  13 H :    0.033061
  14 H :    0.024216
  15 H :    0.020747
  16 S :    0.111152
  17 C :   -0.085231
  18 C :    0.004964
  19 C :   -0.008333
  20 C :   -0.174251
  21 H :   -0.023863
  22 C :    0.017877
  23 H :    0.042631
  24 H :    0.034725
  25 C :   -0.090066
  26 H :    0.020290
  27 H :    0.037707
  28 C :   -0.041526
  29 H :    0.041893
  30 H :    0.045002
  31 H :    0.022966
  32 H :    0.073922
  33 H :    0.070346
Sum of atomic charges:   -0.0000000

LOEWDIN ATOMIC CHARGES
----------------------
   0 S :    0.431942
   1 C :   -0.215885
   2 C :   -0.070894
   3 C :   -0.061481
   4 C :   -0.214444
   5 H :    0.024097
   6 C :   -0.025392
   7 H :    0.027194
   8 H :    0.026968
   9 C :   -0.035276
  10 H :    0.020739
  11 H :    0.025780
  12 C :   -0.061310
  13 H :    0.023901
  14 H :    0.017645
  15 H :    0.027888
  16 S :    0.409597
  17 C :   -0.189627
  18 C :   -0.064620
  19 C :   -0.051581
  20 C :   -0.203277
  21 H :    0.013624
  22 C :   -0.032246
  23 H :    0.036087
  24 H :    0.031597
  25 C :   -0.037395
  26 H :    0.015829
  27 H :    0.028500
  28 C :   -0.069667
  29 H :    0.038758
  30 H :    0.030522
  31 H :    0.016060
  32 H :    0.045310
  33 H :    0.041057

  Mayer bond orders larger than 0.100000
B(  0-S ,  1-C ) :   1.1427 B(  0-S ,  4-C ) :   1.1771 B(  1-C ,  2-C ) :   1.6375
B(  1-C , 32-H ) :   0.9495 B(  2-C ,  3-C ) :   1.2141 B(  2-C ,  6-C ) :   1.0296
B(  3-C ,  4-C ) :   1.5720 B(  3-C ,  5-H ) :   1.0056 B(  4-C , 20-C ) :   0.9962
B(  6-C ,  7-H ) :   0.9379 B(  6-C ,  8-H ) :   0.9410 B(  6-C ,  9-C ) :   1.0702
B(  9-C , 10-H ) :   0.9564 B(  9-C , 11-H ) :   0.9594 B(  9-C , 12-C ) :   1.0705
B( 12-C , 13-H ) :   0.9747 B( 12-C , 14-H ) :   0.9810 B( 12-C , 15-H ) :   0.9707
B( 16-S , 17-C ) :   1.1535 B( 16-S , 20-C ) :   1.1446 B( 17-C , 18-C ) :   1.6180
B( 17-C , 33-H ) :   0.9581 B( 18-C , 19-C ) :   1.2258 B( 18-C , 21-H ) :   1.0047
B( 19-C , 20-C ) :   1.6103 B( 19-C , 22-C ) :   1.0460 B( 22-C , 23-H ) :   0.9379
B( 22-C , 24-H ) :   0.9444 B( 22-C , 25-C ) :   1.0265 B( 25-C , 26-H ) :   0.9648
B( 25-C , 27-H ) :   0.9566 B( 25-C , 28-C ) :   1.0718 B( 28-C , 29-H ) :   0.9712
B( 28-C , 30-H ) :   0.9760 B( 28-C , 31-H ) :   0.9739

Dispersion correction           -0.013994653
FINAL SINGLE POINT ENERGY     -1339.880578873390

DIPOLE MOMENT
-------------
                                X             Y             Z
Electronic contribution:      9.22988     -15.67513      24.69705
Nuclear contribution   :     -9.27204      15.92368     -25.32141
                        -----------------------------------------
Total Dipole Moment    :     -0.04216       0.24855      -0.62436
                        -----------------------------------------
Magnitude (a.u.)       :      0.67334
Magnitude (Debye)      :      1.71149

Rotational constants in cm-1:     0.017217     0.009232     0.006492
Rotational constants in MHz :   516.145140   276.776378   194.612718

                             ****ORCA TERMINATED NORMALLY****
TOTAL RUN TIME: 0 days 0 hours 0 minutes 21 seconds 396 msec
