                         Program Version 4.2.1 -  RELEASE  -
|  1> ! wB97X-D3 SP def2-SVP
|  2> %pal
|  3> nprocs 24
|  4> end
|  5>
|  6> * xyz 0 1
|  7> S 	 -41.0434 	 -12.1608 	 15.3402
|  8> C 	 -40.5695 	 -13.1562 	 16.7376
|  9> C 	 -40.3683 	 -12.3182 	 17.846
| 10> C 	 -40.5934 	 -10.9259 	 17.5337
| 11> C 	 -40.9816 	 -10.6621 	 16.2221
| 12> H 	 -40.5638 	 -10.1437 	 18.2923
| 13> C 	 -39.9911 	 -12.7736 	 19.2526
| 14> H 	 -39.1744 	 -12.1288 	 19.5662
| 15> H 	 -39.6627 	 -13.7839 	 19.2943
| 16> C 	 -41.0543 	 -12.6338 	 20.3178
| 17> H 	 -41.0697 	 -11.5643 	 20.6156
| 18> H 	 -42.0671 	 -12.9132 	 20.0261
| 19> C 	 -40.6811 	 -13.3992 	 21.6054
| 20> H 	 -41.4662 	 -13.2397 	 22.3811
| 21> H 	 -40.341 	 -14.441 	 21.6521
| 22> H 	 -39.8587 	 -12.899 	 22.1689
| 23> S 	 -40.6203 	 -9.0755 	 14.0243
| 24> C 	 -40.9897 	 -7.40148 	 14.0594
| 25> C 	 -41.517 	 -7.03175 	 15.2989
| 26> C 	 -41.6279 	 -8.13408 	 16.2187
| 27> C 	 -41.1673 	 -9.30049 	 15.6918
| 28> H 	 -41.6479 	 -5.9655 	 15.5245
| 29> C 	 -42.2254 	 -7.97749 	 17.6062
| 30> H 	 -42.1893 	 -8.84849 	 18.2159
| 31> H 	 -43.2805 	 -7.69542 	 17.4375
| 32> C 	 -41.7593 	 -6.70095 	 18.3565
| 33> H 	 -42.4817 	 -6.6048 	 19.1925
| 34> H 	 -41.9023 	 -5.94111 	 17.6697
| 35> C 	 -40.2494 	 -6.67822 	 18.7639
| 36> H 	 -39.9375 	 -5.7404 	 19.2829
| 37> H 	 -39.499 	 -6.83196 	 17.9683
| 38> H 	 -39.9931 	 -7.35509 	 19.527
| 39> H 	 -40.4128 	 -14.28 	 16.6177
| 40> H 	 -40.6766 	 -6.65466 	 13.3498
| 41> *
| 42>
| 43>                          ****END OF INPUT****

CARTESIAN COORDINATES (ANGSTROEM)
---------------------------------
  S    -41.043400  -12.160800   15.340200
  C    -40.569500  -13.156200   16.737600
  C    -40.368300  -12.318200   17.846000
  C    -40.593400  -10.925900   17.533700
  C    -40.981600  -10.662100   16.222100
  H    -40.563800  -10.143700   18.292300
  C    -39.991100  -12.773600   19.252600
  H    -39.174400  -12.128800   19.566200
  H    -39.662700  -13.783900   19.294300
  C    -41.054300  -12.633800   20.317800
  H    -41.069700  -11.564300   20.615600
  H    -42.067100  -12.913200   20.026100
  C    -40.681100  -13.399200   21.605400
  H    -41.466200  -13.239700   22.381100
  H    -40.341000  -14.441000   21.652100
  H    -39.858700  -12.899000   22.168900
  S    -40.620300   -9.075500   14.024300
  C    -40.989700   -7.401480   14.059400
  C    -41.517000   -7.031750   15.298900
  C    -41.627900   -8.134080   16.218700
  C    -41.167300   -9.300490   15.691800
  H    -41.647900   -5.965500   15.524500
  C    -42.225400   -7.977490   17.606200
  H    -42.189300   -8.848490   18.215900
  H    -43.280500   -7.695420   17.437500
  C    -41.759300   -6.700950   18.356500
  H    -42.481700   -6.604800   19.192500
  H    -41.902300   -5.941110   17.669700
  C    -40.249400   -6.678220   18.763900
  H    -39.937500   -5.740400   19.282900
  H    -39.499000   -6.831960   17.968300
  H    -39.993100   -7.355090   19.527000
  H    -40.412800  -14.280000   16.617700
  H    -40.676600   -6.654660   13.349800

 Total Charge           Charge          ....    0
 Multiplicity           Mult            ....    1
 Number of Electrons    NEL             ....  134
 Basis Dimension        Dim             ....  322

ORBITAL ENERGIES
----------------

  NO   OCC          E(Eh)            E(eV)
   0   2.0000     -88.967187     -2420.9202
   1   2.0000     -88.964984     -2420.8603
   2   2.0000     -10.334336      -281.2116
   3   2.0000     -10.328943      -281.0648
   4   2.0000     -10.325085      -280.9598
   5   2.0000     -10.317647      -280.7574
   6   2.0000     -10.307884      -280.4918
   7   2.0000     -10.305357      -280.4230
   8   2.0000     -10.298426      -280.2344
   9   2.0000     -10.295083      -280.1434
  10   2.0000     -10.292405      -280.0706
  11   2.0000     -10.291648      -280.0500
  12   2.0000     -10.290989      -280.0321
  13   2.0000     -10.289169      -279.9825
  14   2.0000     -10.284400      -279.8528
  15   2.0000     -10.278864      -279.7021
  16   2.0000      -8.081409      -219.9063
  17   2.0000      -8.080186      -219.8730
  18   2.0000      -6.040100      -164.3595
  19   2.0000      -6.038675      -164.3207
  20   2.0000      -6.035873      -164.2445
  21   2.0000      -6.034621      -164.2104
  22   2.0000      -6.032115      -164.1422
  23   2.0000      -6.030938      -164.1102
  24   2.0000      -1.006953       -27.4006
  25   2.0000      -0.982365       -26.7315
  26   2.0000      -0.914262       -24.8783
  27   2.0000      -0.911104       -24.7924
  28   2.0000      -0.868362       -23.6293
  29   2.0000      -0.849464       -23.1151
  30   2.0000      -0.840470       -22.8703
  31   2.0000      -0.811234       -22.0748
  32   2.0000      -0.787796       -21.4370
  33   2.0000      -0.776385       -21.1265
  34   2.0000      -0.711620       -19.3642
  35   2.0000      -0.700772       -19.0690
  36   2.0000      -0.695114       -18.9150
  37   2.0000      -0.658955       -17.9311
  38   2.0000      -0.637943       -17.3593
  39   2.0000      -0.624148       -16.9839
  40   2.0000      -0.603748       -16.4288
  41   2.0000      -0.571010       -15.5380
  42   2.0000      -0.561801       -15.2874
  43   2.0000      -0.547604       -14.9011
  44   2.0000      -0.537492       -14.6259
  45   2.0000      -0.522724       -14.2240
  46   2.0000      -0.519526       -14.1370
  47   2.0000      -0.511686       -13.9237
  48   2.0000      -0.503533       -13.7018
  49   2.0000      -0.498439       -13.5632
  50   2.0000      -0.491066       -13.3626
  51   2.0000      -0.479569       -13.0497
  52   2.0000      -0.474248       -12.9049
  53   2.0000      -0.470126       -12.7928
  54   2.0000      -0.460483       -12.5304
  55   2.0000      -0.449772       -12.2389
  56   2.0000      -0.444356       -12.0915
  57   2.0000      -0.436284       -11.8719
  58   2.0000      -0.433033       -11.7834
  59   2.0000      -0.425211       -11.5706
  60   2.0000      -0.422448       -11.4954
  61   2.0000      -0.417220       -11.3531
  62   2.0000      -0.410552       -11.1717
  63   2.0000      -0.355879        -9.6840
  64   2.0000      -0.330644        -8.9973
  65   2.0000      -0.328148        -8.9294
  66   2.0000      -0.288373        -7.8470
  67   0.0000       0.027281         0.7424
  68   0.0000       0.076312         2.0766
  69   0.0000       0.107756         2.9322
  70   0.0000       0.117728         3.2035
  71   0.0000       0.128700         3.5021

MULLIKEN ATOMIC CHARGES
-----------------------
   0 S :    0.101102
   1 C :   -0.167765
   2 C :   -0.067022
   3 C :   -0.002239
   4 C :   -0.109920
   5 H :    0.009289
   6 C :    0.092290
   7 H :    0.028849
   8 H :    0.009499
   9 C :   -0.060989
  10 H :    0.028625
  11 H :    0.040828
  12 C :   -0.093902
  13 H :    0.033009
  14 H :    0.042903
  15 H :    0.017516
  16 S :    0.103626
  17 C :   -0.080706
  18 C :   -0.070157
  19 C :   -0.038166
  20 C :   -0.148579
  21 H :    0.034031
  22 C :    0.074465
  23 H :    0.016964
  24 H :    0.039236
  25 C :   -0.056225
  26 H :    0.038784
  27 H :    0.011298
  28 C :   -0.060366
  29 H :    0.028599
  30 H :    0.047961
  31 H :    0.012909
  32 H :    0.085331
  33 H :    0.058921
Sum of atomic charges:    0.0000000

LOEWDIN ATOMIC CHARGES
----------------------
   0 S :    0.397114
   1 C :   -0.205824
   2 C :   -0.058574
   3 C :   -0.070985
   4 C :   -0.194654
   5 H :    0.026525
   6 C :   -0.030240
   7 H :    0.035264
   8 H :    0.023966
   9 C :   -0.038295
  10 H :    0.028851
  11 H :    0.024910
  12 C :   -0.084667
  13 H :    0.031672
  14 H :    0.025792
  15 H :    0.026632
  16 S :    0.410154
  17 C :   -0.192769
  18 C :   -0.077241
  19 C :   -0.058162
  20 C :   -0.184230
  21 H :    0.033857
  22 C :   -0.025272
  23 H :    0.019858
  24 H :    0.043005
  25 C :   -0.028580
  26 H :    0.031722
  27 H :    0.010154
  28 C :   -0.077642
  29 H :    0.031174
  30 H :    0.032757
  31 H :    0.015128
  32 H :    0.046943
  33 H :    0.031658

  Mayer bond orders larger than 0.100000
B(  0-S ,  1-C ) :   1.1268 B(  0-S ,  4-C ) :   1.1579 B(  1-C ,  2-C ) :   1.5878
B(  1-C , 32-H ) :   0.9624 B(  2-C ,  3-C ) :   1.2575 B(  2-C ,  6-C ) :   1.0322
B(  3-C ,  4-C ) :   1.5459 B(  3-C ,  5-H ) :   0.9878 B(  4-C , 20-C ) :   1.0488
B(  6-C ,  7-H ) :   0.9343 B(  6-C ,  8-H ) :   0.9486 B(  6-C ,  9-C ) :   1.0618
B(  9-C , 10-H ) :   0.9491 B(  9-C , 11-H ) :   0.9627 B(  9-C , 12-C ) :   1.0789
B( 12-C , 13-H ) :   0.9729 B( 12-C , 14-H ) :   0.9777 B( 12-C , 15-H ) :   0.9718
B( 16-S , 17-C ) :   1.1669 B( 16-S , 20-C ) :   1.1259 B( 17-C , 18-C ) :   1.6198
B( 17-C , 33-H ) :   0.9649 B( 18-C , 19-C ) :   1.2222 B( 18-C , 21-H ) :   0.9815
B( 19-C , 20-C ) :   1.6257 B( 19-C , 22-C ) :   1.0385 B( 22-C , 23-H ) :   0.9432
B( 22-C , 24-H ) :   0.9270 B( 22-C , 25-C ) :   1.0682 B( 25-C , 26-H ) :   0.9571
B( 25-C , 27-H ) :   0.9566 B( 25-C , 28-C ) :   1.0668 B( 28-C , 29-H ) :   0.9736
B( 28-C , 30-H ) :   0.9749 B( 28-C , 31-H ) :   0.9749

Dispersion correction           -0.014052990
FINAL SINGLE POINT ENERGY     -1339.876783646324

DIPOLE MOMENT
-------------
                                X             Y             Z
Electronic contribution:     -0.56784      -4.24257     -31.84468
Nuclear contribution   :      0.62993       4.55204      32.59416
                        -----------------------------------------
Total Dipole Moment    :      0.06210       0.30947       0.74948
                        -----------------------------------------
Magnitude (a.u.)       :      0.81323
Magnitude (Debye)      :      2.06708

Rotational constants in cm-1:     0.018324     0.008960     0.006349
Rotational constants in MHz :   549.335921   268.603359   190.333563

                             ****ORCA TERMINATED NORMALLY****
TOTAL RUN TIME: 0 days 0 hours 0 minutes 20 seconds 618 msec
