                         Program Version 4.2.1 -  RELEASE  -
|  1> ! wB97X-D3 SP def2-SVP
|  2> %pal
|  3> nprocs 24
|  4> end
|  5>
|  6> * xyz 0 1
|  7> S 	 31.4263 	 -30.6634 	 -109.142
|  8> C 	 32.4929 	 -30.6938 	 -107.745
|  9> C 	 33.465 	 -31.6966 	 -107.844
| 10> C 	 33.2319 	 -32.4622 	 -109.011
| 11> C 	 32.1921 	 -32.012 	 -109.758
| 12> H 	 33.8406 	 -33.2297 	 -109.43
| 13> C 	 34.7807 	 -31.7492 	 -107.114
| 14> H 	 35.4222 	 -32.5259 	 -107.575
| 15> H 	 34.507 	 -32.094 	 -106.106
| 16> C 	 35.5302 	 -30.4028 	 -106.89
| 17> H 	 34.9338 	 -29.6138 	 -106.486
| 18> H 	 36.4829 	 -30.5468 	 -106.321
| 19> C 	 36.1074 	 -30.1787 	 -108.248
| 20> H 	 35.3692 	 -30.2853 	 -108.98
| 21> H 	 36.5715 	 -29.1158 	 -108.26
| 22> H 	 36.9463 	 -30.8636 	 -108.477
| 23> S 	 32.249 	 -31.271 	 -112.407
| 24> C 	 32.1071 	 -32.5333 	 -113.562
| 25> C 	 31.9025 	 -33.7736 	 -113.006
| 26> C 	 31.967 	 -33.7786 	 -111.578
| 27> C 	 32.0551 	 -32.446 	 -111.122
| 28> H 	 31.7813 	 -34.5511 	 -113.774
| 29> C 	 31.7671 	 -35.1429 	 -110.853
| 30> H 	 30.7767 	 -35.407 	 -111.052
| 31> H 	 31.7878 	 -35.0843 	 -109.786
| 32> C 	 32.7368 	 -36.2572 	 -111.398
| 33> H 	 33.7211 	 -35.8354 	 -111.502
| 34> H 	 32.3799 	 -36.4493 	 -112.404
| 35> C 	 32.7929 	 -37.6095 	 -110.669
| 36> H 	 33.0246 	 -37.6821 	 -109.574
| 37> H 	 33.329 	 -38.3477 	 -111.289
| 38> H 	 31.6752 	 -37.9759 	 -110.653
| 39> H 	 32.4512 	 -29.8811 	 -107.003
| 40> H 	 32.0893 	 -32.3369 	 -114.62
| 41> *
| 42>
| 43>                          ****END OF INPUT****

CARTESIAN COORDINATES (ANGSTROEM)
---------------------------------
  S     31.426300  -30.663400  -109.142000
  C     32.492900  -30.693800  -107.745000
  C     33.465000  -31.696600  -107.844000
  C     33.231900  -32.462200  -109.011000
  C     32.192100  -32.012000  -109.758000
  H     33.840600  -33.229700  -109.430000
  C     34.780700  -31.749200  -107.114000
  H     35.422200  -32.525900  -107.575000
  H     34.507000  -32.094000  -106.106000
  C     35.530200  -30.402800  -106.890000
  H     34.933800  -29.613800  -106.486000
  H     36.482900  -30.546800  -106.321000
  C     36.107400  -30.178700  -108.248000
  H     35.369200  -30.285300  -108.980000
  H     36.571500  -29.115800  -108.260000
  H     36.946300  -30.863600  -108.477000
  S     32.249000  -31.271000  -112.407000
  C     32.107100  -32.533300  -113.562000
  C     31.902500  -33.773600  -113.006000
  C     31.967000  -33.778600  -111.578000
  C     32.055100  -32.446000  -111.122000
  H     31.781300  -34.551100  -113.774000
  C     31.767100  -35.142900  -110.853000
  H     30.776700  -35.407000  -111.052000
  H     31.787800  -35.084300  -109.786000
  C     32.736800  -36.257200  -111.398000
  H     33.721100  -35.835400  -111.502000
  H     32.379900  -36.449300  -112.404000
  C     32.792900  -37.609500  -110.669000
  H     33.024600  -37.682100  -109.574000
  H     33.329000  -38.347700  -111.289000
  H     31.675200  -37.975900  -110.653000
  H     32.451200  -29.881100  -107.003000
  H     32.089300  -32.336900  -114.620000

 Total Charge           Charge          ....    0
 Multiplicity           Mult            ....    1
 Number of Electrons    NEL             ....  134
 Basis Dimension        Dim             ....  322

ORBITAL ENERGIES
----------------

  NO   OCC          E(Eh)            E(eV)
   0   2.0000     -88.967338     -2420.9243
   1   2.0000     -88.966145     -2420.8919
   2   2.0000     -10.324852      -280.9535
   3   2.0000     -10.314815      -280.6804
   4   2.0000     -10.313619      -280.6478
   5   2.0000     -10.309259      -280.5292
   6   2.0000     -10.308525      -280.5092
   7   2.0000     -10.302403      -280.3426
   8   2.0000     -10.294537      -280.1286
   9   2.0000     -10.293863      -280.1103
  10   2.0000     -10.291896      -280.0567
  11   2.0000     -10.291702      -280.0514
  12   2.0000     -10.289902      -280.0025
  13   2.0000     -10.286451      -279.9086
  14   2.0000     -10.283615      -279.8314
  15   2.0000     -10.271906      -279.5128
  16   2.0000      -8.083569      -219.9651
  17   2.0000      -8.081535      -219.9098
  18   2.0000      -6.041761      -164.4047
  19   2.0000      -6.039910      -164.3543
  20   2.0000      -6.037936      -164.3006
  21   2.0000      -6.036005      -164.2481
  22   2.0000      -6.034510      -164.2074
  23   2.0000      -6.032370      -164.1491
  24   2.0000      -1.016361       -27.6566
  25   2.0000      -0.987520       -26.8718
  26   2.0000      -0.920586       -25.0504
  27   2.0000      -0.904243       -24.6057
  28   2.0000      -0.869867       -23.6703
  29   2.0000      -0.857119       -23.3234
  30   2.0000      -0.847792       -23.0696
  31   2.0000      -0.808679       -22.0053
  32   2.0000      -0.782468       -21.2920
  33   2.0000      -0.768981       -20.9250
  34   2.0000      -0.704974       -19.1833
  35   2.0000      -0.701663       -19.0932
  36   2.0000      -0.691807       -18.8250
  37   2.0000      -0.657639       -17.8953
  38   2.0000      -0.639106       -17.3910
  39   2.0000      -0.613871       -16.7043
  40   2.0000      -0.597041       -16.2463
  41   2.0000      -0.577114       -15.7041
  42   2.0000      -0.561981       -15.2923
  43   2.0000      -0.556268       -15.1368
  44   2.0000      -0.542096       -14.7512
  45   2.0000      -0.525508       -14.2998
  46   2.0000      -0.514693       -14.0055
  47   2.0000      -0.512427       -13.9439
  48   2.0000      -0.500885       -13.6298
  49   2.0000      -0.491858       -13.3841
  50   2.0000      -0.485082       -13.1998
  51   2.0000      -0.478204       -13.0126
  52   2.0000      -0.472421       -12.8552
  53   2.0000      -0.466489       -12.6938
  54   2.0000      -0.460285       -12.5250
  55   2.0000      -0.450582       -12.2610
  56   2.0000      -0.446837       -12.1591
  57   2.0000      -0.440500       -11.9866
  58   2.0000      -0.431769       -11.7490
  59   2.0000      -0.426988       -11.6189
  60   2.0000      -0.426703       -11.6112
  61   2.0000      -0.414315       -11.2741
  62   2.0000      -0.403693       -10.9850
  63   2.0000      -0.345166        -9.3925
  64   2.0000      -0.332775        -9.0553
  65   2.0000      -0.328864        -8.9489
  66   2.0000      -0.287076        -7.8117
  67   0.0000       0.034268         0.9325
  68   0.0000       0.072334         1.9683
  69   0.0000       0.117265         3.1909
  70   0.0000       0.123644         3.3645
  71   0.0000       0.127480         3.4689

MULLIKEN ATOMIC CHARGES
-----------------------
   0 S :    0.120298
   1 C :   -0.153976
   2 C :   -0.061478
   3 C :    0.014911
   4 C :   -0.144334
   5 H :    0.005465
   6 C :    0.036042
   7 H :    0.030324
   8 H :    0.032536
   9 C :   -0.049056
  10 H :    0.036130
  11 H :    0.037280
  12 C :   -0.062688
  13 H :    0.028902
  14 H :    0.032028
  15 H :    0.031342
  16 S :    0.120311
  17 C :   -0.108038
  18 C :   -0.046579
  19 C :   -0.032919
  20 C :   -0.168506
  21 H :    0.028264
  22 C :    0.120307
  23 H :    0.019926
  24 H :    0.014112
  25 C :   -0.092205
  26 H :    0.033195
  27 H :    0.029413
  28 C :   -0.080967
  29 H :    0.051244
  30 H :    0.048283
  31 H :    0.025921
  32 H :    0.054967
  33 H :    0.049547
Sum of atomic charges:    0.0000000

LOEWDIN ATOMIC CHARGES
----------------------
   0 S :    0.440659
   1 C :   -0.206527
   2 C :   -0.059320
   3 C :   -0.060554
   4 C :   -0.224979
   5 H :    0.028239
   6 C :   -0.032367
   7 H :    0.034466
   8 H :    0.032770
   9 C :   -0.039653
  10 H :    0.020646
  11 H :    0.035432
  12 C :   -0.063168
  13 H :    0.012792
  14 H :    0.028002
  15 H :    0.026046
  16 S :    0.415178
  17 C :   -0.197498
  18 C :   -0.076001
  19 C :   -0.051429
  20 C :   -0.197667
  21 H :    0.036483
  22 C :   -0.019780
  23 H :    0.026449
  24 H :    0.023059
  25 C :   -0.040574
  26 H :    0.020221
  27 H :    0.024533
  28 C :   -0.080044
  29 H :    0.030219
  30 H :    0.031356
  31 H :    0.033000
  32 H :    0.025690
  33 H :    0.024322

  Mayer bond orders larger than 0.100000
B(  0-S ,  1-C ) :   1.1471 B(  0-S ,  4-C ) :   1.1760 B(  1-C ,  2-C ) :   1.5732
B(  1-C , 32-H ) :   0.9694 B(  2-C ,  3-C ) :   1.2576 B(  2-C ,  6-C ) :   1.0246
B(  3-C ,  4-C ) :   1.5593 B(  3-C ,  5-H ) :   0.9988 B(  4-C , 20-C ) :   1.0318
B(  6-C ,  7-H ) :   0.9507 B(  6-C ,  8-H ) :   0.9186 B(  6-C ,  9-C ) :   1.0776
B(  9-C , 10-H ) :   0.9559 B(  9-C , 11-H ) :   0.9547 B(  9-C , 12-C ) :   1.0626
B( 12-C , 13-H ) :   0.9811 B( 12-C , 14-H ) :   0.9706 B( 12-C , 15-H ) :   0.9766
B( 16-S , 17-C ) :   1.1533 B( 16-S , 20-C ) :   1.1548 B( 17-C , 18-C ) :   1.6387
B( 17-C , 33-H ) :   0.9662 B( 18-C , 19-C ) :   1.2100 B( 18-C , 21-H ) :   0.9850
B( 19-C , 20-C ) :   1.5983 B( 19-C , 22-C ) :   1.0342 B( 22-C , 23-H ) :   0.9343
B( 22-C , 24-H ) :   0.9402 B( 22-C , 25-C ) :   1.0431 B( 25-C , 26-H ) :   0.9655
B( 25-C , 27-H ) :   0.9500 B( 25-C , 28-C ) :   1.0829 B( 28-C , 29-H ) :   0.9756
B( 28-C , 30-H ) :   0.9732 B( 28-C , 31-H ) :   0.9704

Dispersion correction           -0.014294220
FINAL SINGLE POINT ENERGY     -1339.854605823256

DIPOLE MOMENT
-------------
                                X             Y             Z
Electronic contribution:    -15.20570      16.34405      -8.23957
Nuclear contribution   :     15.55861     -16.70910       8.25091
                        -----------------------------------------
Total Dipole Moment    :      0.35291      -0.36505       0.01134
                        -----------------------------------------
Magnitude (a.u.)       :      0.50787
Magnitude (Debye)      :      1.29091

Rotational constants in cm-1:     0.017811     0.008731     0.007087
Rotational constants in MHz :   533.961804   261.762986   212.470454

                             ****ORCA TERMINATED NORMALLY****
TOTAL RUN TIME: 0 days 0 hours 0 minutes 21 seconds 746 msec
