                         Program Version 4.2.1 -  RELEASE  -
|  1> ! wB97X-D3 SP def2-SVP
|  2> %pal
|  3> nprocs 24
|  4> end
|  5>
|  6> * xyz 0 1
|  7> S 	 -116.078 	 59.1428 	 -39.3126
|  8> C 	 -115.952 	 57.3911 	 -39.4078
|  9> C 	 -117.233 	 56.9082 	 -39.3264
| 10> C 	 -118.165 	 57.844 	 -38.7179
| 11> C 	 -117.702 	 59.1056 	 -38.7741
| 12> H 	 -119.162 	 57.7503 	 -38.3752
| 13> C 	 -117.728 	 55.4946 	 -39.6962
| 14> H 	 -117.558 	 54.7473 	 -38.9157
| 15> H 	 -117.116 	 55.146 	 -40.4968
| 16> C 	 -119.198 	 55.2443 	 -40.0977
| 17> H 	 -119.475 	 54.1784 	 -40.3071
| 18> H 	 -119.785 	 55.5811 	 -39.2004
| 19> C 	 -119.687 	 56.1301 	 -41.2676
| 20> H 	 -119.554 	 55.5872 	 -42.1443
| 21> H 	 -120.727 	 56.4126 	 -41.1122
| 22> H 	 -119.058 	 57.0162 	 -41.3833
| 23> S 	 -117.671 	 61.9067 	 -38.1203
| 24> C 	 -119.24 	 62.722 	 -38.0846
| 25> C 	 -120.309 	 61.9092 	 -38.54
| 26> C 	 -119.896 	 60.5798 	 -38.8095
| 27> C 	 -118.468 	 60.3499 	 -38.549
| 28> H 	 -121.363 	 62.288 	 -38.6966
| 29> C 	 -120.921 	 59.5525 	 -39.3616
| 30> H 	 -120.422 	 58.7283 	 -39.883
| 31> H 	 -121.536 	 59.9921 	 -40.1597
| 32> C 	 -121.75 	 58.8676 	 -38.2966
| 33> H 	 -122.339 	 59.6277 	 -37.8339
| 34> H 	 -121.181 	 58.3689 	 -37.4388
| 35> C 	 -122.655 	 57.7995 	 -38.9045
| 36> H 	 -123.259 	 58.2044 	 -39.6574
| 37> H 	 -123.319 	 57.3706 	 -38.1947
| 38> H 	 -122.058 	 57.0355 	 -39.3869
| 39> H 	 -115.125 	 56.9454 	 -39.9639
| 40> H 	 -119.307 	 63.7445 	 -37.8895
| 41> *
| 42>
| 43>                          ****END OF INPUT****

CARTESIAN COORDINATES (ANGSTROEM)
---------------------------------
  S    -116.078000   59.142800  -39.312600
  C    -115.952000   57.391100  -39.407800
  C    -117.233000   56.908200  -39.326400
  C    -118.165000   57.844000  -38.717900
  C    -117.702000   59.105600  -38.774100
  H    -119.162000   57.750300  -38.375200
  C    -117.728000   55.494600  -39.696200
  H    -117.558000   54.747300  -38.915700
  H    -117.116000   55.146000  -40.496800
  C    -119.198000   55.244300  -40.097700
  H    -119.475000   54.178400  -40.307100
  H    -119.785000   55.581100  -39.200400
  C    -119.687000   56.130100  -41.267600
  H    -119.554000   55.587200  -42.144300
  H    -120.727000   56.412600  -41.112200
  H    -119.058000   57.016200  -41.383300
  S    -117.671000   61.906700  -38.120300
  C    -119.240000   62.722000  -38.084600
  C    -120.309000   61.909200  -38.540000
  C    -119.896000   60.579800  -38.809500
  C    -118.468000   60.349900  -38.549000
  H    -121.363000   62.288000  -38.696600
  C    -120.921000   59.552500  -39.361600
  H    -120.422000   58.728300  -39.883000
  H    -121.536000   59.992100  -40.159700
  C    -121.750000   58.867600  -38.296600
  H    -122.339000   59.627700  -37.833900
  H    -121.181000   58.368900  -37.438800
  C    -122.655000   57.799500  -38.904500
  H    -123.259000   58.204400  -39.657400
  H    -123.319000   57.370600  -38.194700
  H    -122.058000   57.035500  -39.386900
  H    -115.125000   56.945400  -39.963900
  H    -119.307000   63.744500  -37.889500

 Total Charge           Charge          ....    0
 Multiplicity           Mult            ....    1
 Number of Electrons    NEL             ....  134
 Basis Dimension        Dim             ....  322

ORBITAL ENERGIES
----------------

  NO   OCC          E(Eh)            E(eV)
   0   2.0000     -88.975809     -2421.1549
   1   2.0000     -88.959896     -2420.7218
   2   2.0000     -10.342125      -281.4235
   3   2.0000     -10.326575      -281.0004
   4   2.0000     -10.323743      -280.9233
   5   2.0000     -10.317422      -280.7513
   6   2.0000     -10.314070      -280.6601
   7   2.0000     -10.311371      -280.5867
   8   2.0000     -10.306893      -280.4648
   9   2.0000     -10.297118      -280.1988
  10   2.0000     -10.295341      -280.1505
  11   2.0000     -10.291653      -280.0501
  12   2.0000     -10.289898      -280.0024
  13   2.0000     -10.286754      -279.9168
  14   2.0000     -10.272488      -279.5286
  15   2.0000     -10.270959      -279.4870
  16   2.0000      -8.088811      -220.1077
  17   2.0000      -8.075756      -219.7525
  18   2.0000      -6.047292      -164.5552
  19   2.0000      -6.043579      -164.4541
  20   2.0000      -6.039698      -164.3485
  21   2.0000      -6.034360      -164.2033
  22   2.0000      -6.030238      -164.0911
  23   2.0000      -6.026200      -163.9812
  24   2.0000      -1.008306       -27.4374
  25   2.0000      -0.977251       -26.5924
  26   2.0000      -0.914983       -24.8980
  27   2.0000      -0.907836       -24.7035
  28   2.0000      -0.869056       -23.6482
  29   2.0000      -0.854863       -23.2620
  30   2.0000      -0.841039       -22.8858
  31   2.0000      -0.814534       -22.1646
  32   2.0000      -0.787814       -21.4375
  33   2.0000      -0.774883       -21.0856
  34   2.0000      -0.706514       -19.2252
  35   2.0000      -0.698987       -19.0204
  36   2.0000      -0.693505       -18.8712
  37   2.0000      -0.655720       -17.8431
  38   2.0000      -0.644581       -17.5399
  39   2.0000      -0.623551       -16.9677
  40   2.0000      -0.601113       -16.3571
  41   2.0000      -0.569537       -15.4979
  42   2.0000      -0.561143       -15.2695
  43   2.0000      -0.550037       -14.9673
  44   2.0000      -0.543855       -14.7990
  45   2.0000      -0.529693       -14.4137
  46   2.0000      -0.518744       -14.1157
  47   2.0000      -0.514272       -13.9941
  48   2.0000      -0.507626       -13.8132
  49   2.0000      -0.502576       -13.6758
  50   2.0000      -0.491821       -13.3831
  51   2.0000      -0.487745       -13.2722
  52   2.0000      -0.467563       -12.7230
  53   2.0000      -0.466393       -12.6912
  54   2.0000      -0.458892       -12.4871
  55   2.0000      -0.452051       -12.3009
  56   2.0000      -0.445308       -12.1174
  57   2.0000      -0.441636       -12.0175
  58   2.0000      -0.429933       -11.6991
  59   2.0000      -0.427630       -11.6364
  60   2.0000      -0.420627       -11.4458
  61   2.0000      -0.415368       -11.3027
  62   2.0000      -0.409409       -11.1406
  63   2.0000      -0.356102        -9.6900
  64   2.0000      -0.337965        -9.1965
  65   2.0000      -0.324323        -8.8253
  66   2.0000      -0.285138        -7.7590
  67   0.0000       0.016215         0.4412
  68   0.0000       0.074868         2.0372
  69   0.0000       0.091533         2.4907
  70   0.0000       0.119577         3.2539
  71   0.0000       0.123350         3.3565

MULLIKEN ATOMIC CHARGES
-----------------------
   0 S :    0.078238
   1 C :   -0.106243
   2 C :   -0.099807
   3 C :    0.015320
   4 C :   -0.090789
   5 H :   -0.034601
   6 C :    0.081912
   7 H :    0.043047
   8 H :    0.009626
   9 C :   -0.135353
  10 H :    0.048005
  11 H :    0.033150
  12 C :   -0.032774
  13 H :    0.016443
  14 H :    0.034923
  15 H :    0.048960
  16 S :    0.115190
  17 C :   -0.080935
  18 C :   -0.037468
  19 C :   -0.034270
  20 C :   -0.140452
  21 H :    0.047313
  22 C :    0.030924
  23 H :    0.006068
  24 H :    0.033802
  25 C :   -0.092064
  26 H :    0.015601
  27 H :    0.052893
  28 C :    0.008840
  29 H :    0.009059
  30 H :    0.029943
  31 H :    0.014384
  32 H :    0.066388
  33 H :    0.044725
Sum of atomic charges:    0.0000000

LOEWDIN ATOMIC CHARGES
----------------------
   0 S :    0.401149
   1 C :   -0.201863
   2 C :   -0.048386
   3 C :   -0.073540
   4 C :   -0.188114
   5 H :    0.023763
   6 C :   -0.037463
   7 H :    0.037543
   8 H :    0.022160
   9 C :   -0.045950
  10 H :    0.033642
  11 H :    0.021278
  12 C :   -0.066209
  13 H :    0.017122
  14 H :    0.022557
  15 H :    0.029735
  16 S :    0.395219
  17 C :   -0.169912
  18 C :   -0.075225
  19 C :   -0.043040
  20 C :   -0.190798
  21 H :    0.045408
  22 C :   -0.037343
  23 H :    0.027654
  24 H :    0.034954
  25 C :   -0.042064
  26 H :    0.016973
  27 H :    0.032751
  28 C :   -0.055510
  29 H :    0.017440
  30 H :    0.024974
  31 H :    0.022094
  32 H :    0.033388
  33 H :    0.015610

  Mayer bond orders larger than 0.100000
B(  0-S ,  1-C ) :   1.1109 B(  0-S ,  4-C ) :   1.1548 B(  1-C ,  2-C ) :   1.6469
B(  1-C , 32-H ) :   0.9645 B(  2-C ,  3-C ) :   1.1796 B(  2-C ,  6-C ) :   1.0101
B(  3-C ,  4-C ) :   1.6080 B(  3-C ,  5-H ) :   0.9962 B(  4-C , 20-C ) :   1.0669
B(  6-C ,  7-H ) :   0.9381 B(  6-C ,  8-H ) :   0.9421 B(  6-C ,  9-C ) :   1.0785
B(  9-C , 10-H ) :   0.9585 B(  9-C , 11-H ) :   0.9526 B(  9-C , 12-C ) :   1.0664
B( 12-C , 13-H ) :   0.9707 B( 12-C , 14-H ) :   0.9719 B( 12-C , 15-H ) :   0.9728
B( 16-S , 17-C ) :   1.1710 B( 16-S , 20-C ) :   1.1440 B( 17-C , 18-C ) :   1.5542
B( 17-C , 20-C ) :   0.1162 B( 17-C , 33-H ) :   0.9755 B( 18-C , 19-C ) :   1.3014
B( 18-C , 21-H ) :   0.9783 B( 19-C , 20-C ) :   1.5183 B( 19-C , 22-C ) :   1.0324
B( 22-C , 23-H ) :   0.9333 B( 22-C , 24-H ) :   0.9382 B( 22-C , 25-C ) :   1.0573
B( 25-C , 26-H ) :   0.9498 B( 25-C , 27-H ) :   0.9487 B( 25-C , 28-C ) :   1.0859
B( 28-C , 29-H ) :   0.9692 B( 28-C , 30-H ) :   0.9690 B( 28-C , 31-H ) :   0.9687

Dispersion correction           -0.016430498
FINAL SINGLE POINT ENERGY     -1339.861145620536

DIPOLE MOMENT
-------------
                                X             Y             Z
Electronic contribution:     23.90269      21.68593       7.26602
Nuclear contribution   :    -24.64621     -21.99328      -7.62649
                        -----------------------------------------
Total Dipole Moment    :     -0.74352      -0.30735      -0.36047
                        -----------------------------------------
Magnitude (a.u.)       :      0.88161
Magnitude (Debye)      :      2.24087

Rotational constants in cm-1:     0.016777     0.011701     0.007294
Rotational constants in MHz :   502.958913   350.775736   218.674591

                             ****ORCA TERMINATED NORMALLY****
TOTAL RUN TIME: 0 days 0 hours 0 minutes 22 seconds 418 msec
