                         Program Version 4.2.1 -  RELEASE  -
|  1> ! wB97X-D3 SP def2-SVP
|  2> %pal
|  3> nprocs 24
|  4> end
|  5>
|  6> * xyz 0 1
|  7> S 	 -64.6172 	 15.6967 	 -104.829
|  8> C 	 -64.9625 	 14.0811 	 -104.879
|  9> C 	 -64.4091 	 13.4994 	 -105.952
| 10> C 	 -63.7608 	 14.3661 	 -106.853
| 11> C 	 -63.8655 	 15.6177 	 -106.397
| 12> H 	 -63.2251 	 14.0869 	 -107.759
| 13> C 	 -64.3934 	 11.9496 	 -106.126
| 14> H 	 -63.3269 	 11.7501 	 -106.316
| 15> H 	 -64.9115 	 11.6618 	 -107.082
| 16> C 	 -64.8734 	 11.0998 	 -104.953
| 17> H 	 -64.4513 	 11.4726 	 -104.012
| 18> H 	 -65.9436 	 11.1394 	 -104.814
| 19> C 	 -64.5246 	 9.53569 	 -105.173
| 20> H 	 -63.4733 	 9.48272 	 -105.513
| 21> H 	 -64.7241 	 8.8574 	 -104.396
| 22> H 	 -65.1144 	 9.17952 	 -105.985
| 23> S 	 -61.9352 	 17.5058 	 -106.185
| 24> C 	 -61.8276 	 18.8342 	 -107.338
| 25> C 	 -62.9294 	 18.7371 	 -108.191
| 26> C 	 -63.7568 	 17.6534 	 -107.959
| 27> C 	 -63.3589 	 16.8212 	 -106.914
| 28> H 	 -63.0911 	 19.4694 	 -108.993
| 29> C 	 -64.9457 	 17.4512 	 -108.865
| 30> H 	 -65.2098 	 18.4931 	 -109.135
| 31> H 	 -65.8521 	 17.0188 	 -108.424
| 32> C 	 -64.5488 	 16.5389 	 -110.107
| 33> H 	 -64.4984 	 15.5134 	 -109.949
| 34> H 	 -63.5711 	 16.8753 	 -110.523
| 35> C 	 -65.6264 	 16.7669 	 -111.263
| 36> H 	 -65.3477 	 17.7734 	 -111.58
| 37> H 	 -66.6628 	 16.6713 	 -111.048
| 38> H 	 -65.4777 	 16.1128 	 -112.143
| 39> H 	 -65.462 	 13.5452 	 -104.128
| 40> H 	 -61.2319 	 19.6791 	 -107.297
| 41> *
| 42>
| 43>                          ****END OF INPUT****

CARTESIAN COORDINATES (ANGSTROEM)
---------------------------------
  S    -64.617200   15.696700  -104.829000
  C    -64.962500   14.081100  -104.879000
  C    -64.409100   13.499400  -105.952000
  C    -63.760800   14.366100  -106.853000
  C    -63.865500   15.617700  -106.397000
  H    -63.225100   14.086900  -107.759000
  C    -64.393400   11.949600  -106.126000
  H    -63.326900   11.750100  -106.316000
  H    -64.911500   11.661800  -107.082000
  C    -64.873400   11.099800  -104.953000
  H    -64.451300   11.472600  -104.012000
  H    -65.943600   11.139400  -104.814000
  C    -64.524600    9.535690  -105.173000
  H    -63.473300    9.482720  -105.513000
  H    -64.724100    8.857400  -104.396000
  H    -65.114400    9.179520  -105.985000
  S    -61.935200   17.505800  -106.185000
  C    -61.827600   18.834200  -107.338000
  C    -62.929400   18.737100  -108.191000
  C    -63.756800   17.653400  -107.959000
  C    -63.358900   16.821200  -106.914000
  H    -63.091100   19.469400  -108.993000
  C    -64.945700   17.451200  -108.865000
  H    -65.209800   18.493100  -109.135000
  H    -65.852100   17.018800  -108.424000
  C    -64.548800   16.538900  -110.107000
  H    -64.498400   15.513400  -109.949000
  H    -63.571100   16.875300  -110.523000
  C    -65.626400   16.766900  -111.263000
  H    -65.347700   17.773400  -111.580000
  H    -66.662800   16.671300  -111.048000
  H    -65.477700   16.112800  -112.143000
  H    -65.462000   13.545200  -104.128000
  H    -61.231900   19.679100  -107.297000

 Total Charge           Charge          ....    0
 Multiplicity           Mult            ....    1
 Number of Electrons    NEL             ....  134
 Basis Dimension        Dim             ....  322

ORBITAL ENERGIES
----------------

  NO   OCC          E(Eh)            E(eV)
   0   2.0000     -88.963470     -2420.8191
   1   2.0000     -88.960109     -2420.7276
   2   2.0000     -10.318387      -280.7776
   3   2.0000     -10.317787      -280.7613
   4   2.0000     -10.313455      -280.6434
   5   2.0000     -10.297214      -280.2014
   6   2.0000     -10.296439      -280.1803
   7   2.0000     -10.295059      -280.1428
   8   2.0000     -10.294598      -280.1302
   9   2.0000     -10.293257      -280.0938
  10   2.0000     -10.292645      -280.0771
  11   2.0000     -10.291322      -280.0411
  12   2.0000     -10.290419      -280.0165
  13   2.0000     -10.289815      -280.0001
  14   2.0000     -10.279183      -279.7108
  15   2.0000     -10.276270      -279.6315
  16   2.0000      -8.078037      -219.8146
  17   2.0000      -8.077581      -219.8022
  18   2.0000      -6.036488      -164.2612
  19   2.0000      -6.035808      -164.2427
  20   2.0000      -6.032312      -164.1475
  21   2.0000      -6.031823      -164.1342
  22   2.0000      -6.029112      -164.0605
  23   2.0000      -6.028316      -164.0388
  24   2.0000      -1.024196       -27.8698
  25   2.0000      -0.992423       -27.0052
  26   2.0000      -0.906205       -24.6591
  27   2.0000      -0.899220       -24.4690
  28   2.0000      -0.877902       -23.8889
  29   2.0000      -0.855645       -23.2833
  30   2.0000      -0.845044       -22.9948
  31   2.0000      -0.815714       -22.1967
  32   2.0000      -0.778267       -21.1777
  33   2.0000      -0.765282       -20.8244
  34   2.0000      -0.716271       -19.4907
  35   2.0000      -0.706720       -19.2308
  36   2.0000      -0.698547       -19.0084
  37   2.0000      -0.665888       -18.1197
  38   2.0000      -0.652395       -17.7526
  39   2.0000      -0.615240       -16.7415
  40   2.0000      -0.595457       -16.2032
  41   2.0000      -0.570242       -15.5171
  42   2.0000      -0.564689       -15.3660
  43   2.0000      -0.559351       -15.2207
  44   2.0000      -0.525506       -14.2997
  45   2.0000      -0.523637       -14.2489
  46   2.0000      -0.521906       -14.2018
  47   2.0000      -0.509784       -13.8719
  48   2.0000      -0.508577       -13.8391
  49   2.0000      -0.503329       -13.6963
  50   2.0000      -0.492600       -13.4043
  51   2.0000      -0.481853       -13.1119
  52   2.0000      -0.472557       -12.8589
  53   2.0000      -0.463233       -12.6052
  54   2.0000      -0.459672       -12.5083
  55   2.0000      -0.448185       -12.1957
  56   2.0000      -0.443014       -12.0550
  57   2.0000      -0.437762       -11.9121
  58   2.0000      -0.434144       -11.8137
  59   2.0000      -0.428840       -11.6693
  60   2.0000      -0.428148       -11.6505
  61   2.0000      -0.412990       -11.2380
  62   2.0000      -0.406575       -11.0635
  63   2.0000      -0.345604        -9.4044
  64   2.0000      -0.329973        -8.9790
  65   2.0000      -0.323343        -8.7986
  66   2.0000      -0.301800        -8.2124
  67   0.0000       0.042107         1.1458
  68   0.0000       0.063137         1.7180
  69   0.0000       0.123657         3.3649
  70   0.0000       0.130610         3.5541
  71   0.0000       0.138251         3.7620

MULLIKEN ATOMIC CHARGES
-----------------------
   0 S :    0.130206
   1 C :   -0.097537
   2 C :   -0.090540
   3 C :    0.043528
   4 C :   -0.166863
   5 H :    0.020854
   6 C :    0.044404
   7 H :    0.029356
   8 H :    0.039040
   9 C :   -0.101439
  10 H :    0.035874
  11 H :    0.034062
  12 C :   -0.027218
  13 H :    0.031470
  14 H :    0.030518
  15 H :    0.019655
  16 S :    0.111968
  17 C :   -0.063918
  18 C :   -0.065279
  19 C :    0.010931
  20 C :   -0.189339
  21 H :    0.022737
  22 C :    0.058415
  23 H :    0.023902
  24 H :    0.034743
  25 C :   -0.057081
  26 H :    0.025056
  27 H :    0.032278
  28 C :   -0.070593
  29 H :    0.027406
  30 H :    0.034400
  31 H :    0.030260
  32 H :    0.024932
  33 H :    0.033811
Sum of atomic charges:    0.0000000

LOEWDIN ATOMIC CHARGES
----------------------
   0 S :    0.448932
   1 C :   -0.220042
   2 C :   -0.069402
   3 C :   -0.051144
   4 C :   -0.197163
   5 H :    0.040189
   6 C :   -0.035944
   7 H :    0.032272
   8 H :    0.034245
   9 C :   -0.042205
  10 H :    0.022772
  11 H :    0.020949
  12 C :   -0.058048
  13 H :    0.027728
  14 H :    0.019508
  15 H :    0.021233
  16 S :    0.416026
  17 C :   -0.177701
  18 C :   -0.074434
  19 C :   -0.063398
  20 C :   -0.213963
  21 H :    0.033309
  22 C :   -0.026215
  23 H :    0.032449
  24 H :    0.032233
  25 C :   -0.024160
  26 H :    0.011027
  27 H :    0.027155
  28 C :   -0.070470
  29 H :    0.024126
  30 H :    0.018056
  31 H :    0.025284
  32 H :    0.019558
  33 H :    0.017238

  Mayer bond orders larger than 0.100000
B(  0-S ,  1-C ) :   1.1424 B(  0-S ,  4-C ) :   1.1649 B(  1-C ,  2-C ) :   1.6432
B(  1-C , 32-H ) :   0.9633 B(  2-C ,  3-C ) :   1.2361 B(  2-C ,  6-C ) :   0.9920
B(  3-C ,  4-C ) :   1.6006 B(  3-C ,  5-H ) :   1.0039 B(  4-C , 20-C ) :   1.0239
B(  6-C ,  7-H ) :   0.9429 B(  6-C ,  8-H ) :   0.9373 B(  6-C ,  9-C ) :   1.0799
B(  9-C , 10-H ) :   0.9538 B(  9-C , 11-H ) :   0.9528 B(  9-C , 12-C ) :   1.0683
B( 12-C , 13-H ) :   0.9793 B( 12-C , 14-H ) :   0.9778 B( 12-C , 15-H ) :   0.9766
B( 16-S , 17-C ) :   1.1683 B( 16-S , 20-C ) :   1.1620 B( 17-C , 18-C ) :   1.5605
B( 17-C , 20-C ) :   0.1216 B( 17-C , 33-H ) :   0.9765 B( 18-C , 19-C ) :   1.3013
B( 18-C , 21-H ) :   0.9812 B( 19-C , 20-C ) :   1.5504 B( 19-C , 22-C ) :   1.0427
B( 22-C , 23-H ) :   0.9447 B( 22-C , 24-H ) :   0.9349 B( 22-C , 25-C ) :   1.0450
B( 25-C , 26-H ) :   0.9616 B( 25-C , 27-H ) :   0.9646 B( 25-C , 28-C ) :   1.0600
B( 28-C , 29-H ) :   0.9846 B( 28-C , 30-H ) :   0.9794 B( 28-C , 31-H ) :   0.9768

Dispersion correction           -0.013771238
FINAL SINGLE POINT ENERGY     -1339.864767719884

DIPOLE MOMENT
-------------
                                X             Y             Z
Electronic contribution:      9.87597      18.80211      15.15180
Nuclear contribution   :    -10.05596     -19.14016     -15.52273
                        -----------------------------------------
Total Dipole Moment    :     -0.18000      -0.33805      -0.37093
                        -----------------------------------------
Magnitude (a.u.)       :      0.53317
Magnitude (Debye)      :      1.35521

Rotational constants in cm-1:     0.020329     0.007587     0.006165
Rotational constants in MHz :   609.435338   227.448902   184.833095

                             ****ORCA TERMINATED NORMALLY****
TOTAL RUN TIME: 0 days 0 hours 0 minutes 19 seconds 913 msec
