                         Program Version 4.2.1 -  RELEASE  -
|  1> ! wB97X-D3 SP def2-SVP
|  2> %pal
|  3> nprocs 24
|  4> end
|  5>
|  6> * xyz 0 1
|  7> S 	 -54.3875 	 16.2889 	 27.0278
|  8> C 	 -55.2719 	 15.7197 	 25.6405
|  9> C 	 -55.6909 	 14.4016 	 25.8509
| 10> C 	 -55.2382 	 13.8665 	 27.0956
| 11> C 	 -54.5546 	 14.7803 	 27.8665
| 12> H 	 -55.2984 	 12.8343 	 27.4047
| 13> C 	 -56.3947 	 13.5263 	 24.8679
| 14> H 	 -57.0513 	 12.8896 	 25.3966
| 15> H 	 -55.6793 	 12.9164 	 24.4004
| 16> C 	 -57.0698 	 14.2052 	 23.7053
| 17> H 	 -57.6248 	 15.0398 	 24.1666
| 18> H 	 -56.3845 	 14.756 	 22.9698
| 19> C 	 -58.0927 	 13.3879 	 22.8906
| 20> H 	 -58.8953 	 12.9227 	 23.4727
| 21> H 	 -58.4844 	 13.9001 	 22.0283
| 22> H 	 -57.5756 	 12.6324 	 22.3906
| 23> S 	 -52.5921 	 13.312 	 28.997
| 24> C 	 -52.2052 	 13.5957 	 30.6732
| 25> C 	 -52.8422 	 14.6862 	 31.1993
| 26> C 	 -53.9294 	 15.1461 	 30.3698
| 27> C 	 -53.89 	 14.4809 	 29.1089
| 28> H 	 -52.6526 	 14.9627 	 32.1977
| 29> C 	 -54.8297 	 16.3198 	 30.7476
| 30> H 	 -54.4368 	 17.0709 	 30.1066
| 31> H 	 -54.664 	 16.6159 	 31.765
| 32> C 	 -56.3196 	 16.0967 	 30.4637
| 33> H 	 -56.5195 	 15.1628 	 31
| 34> H 	 -56.35 	 16.0502 	 29.3549
| 35> C 	 -57.2486 	 17.2467 	 30.8036
| 36> H 	 -56.9564 	 18.1598 	 30.3246
| 37> H 	 -57.0375 	 17.4636 	 31.8724
| 38> H 	 -58.2956 	 16.9987 	 30.7488
| 39> H 	 -55.5384 	 16.2323 	 24.7593
| 40> H 	 -51.4699 	 13.0137 	 31.2307
| 41> *
| 42>
| 43>                          ****END OF INPUT****

CARTESIAN COORDINATES (ANGSTROEM)
---------------------------------
  S    -54.387500   16.288900   27.027800
  C    -55.271900   15.719700   25.640500
  C    -55.690900   14.401600   25.850900
  C    -55.238200   13.866500   27.095600
  C    -54.554600   14.780300   27.866500
  H    -55.298400   12.834300   27.404700
  C    -56.394700   13.526300   24.867900
  H    -57.051300   12.889600   25.396600
  H    -55.679300   12.916400   24.400400
  C    -57.069800   14.205200   23.705300
  H    -57.624800   15.039800   24.166600
  H    -56.384500   14.756000   22.969800
  C    -58.092700   13.387900   22.890600
  H    -58.895300   12.922700   23.472700
  H    -58.484400   13.900100   22.028300
  H    -57.575600   12.632400   22.390600
  S    -52.592100   13.312000   28.997000
  C    -52.205200   13.595700   30.673200
  C    -52.842200   14.686200   31.199300
  C    -53.929400   15.146100   30.369800
  C    -53.890000   14.480900   29.108900
  H    -52.652600   14.962700   32.197700
  C    -54.829700   16.319800   30.747600
  H    -54.436800   17.070900   30.106600
  H    -54.664000   16.615900   31.765000
  C    -56.319600   16.096700   30.463700
  H    -56.519500   15.162800   31.000000
  H    -56.350000   16.050200   29.354900
  C    -57.248600   17.246700   30.803600
  H    -56.956400   18.159800   30.324600
  H    -57.037500   17.463600   31.872400
  H    -58.295600   16.998700   30.748800
  H    -55.538400   16.232300   24.759300
  H    -51.469900   13.013700   31.230700

 Total Charge           Charge          ....    0
 Multiplicity           Mult            ....    1
 Number of Electrons    NEL             ....  134
 Basis Dimension        Dim             ....  322

ORBITAL ENERGIES
----------------

  NO   OCC          E(Eh)            E(eV)
   0   2.0000     -88.967602     -2420.9315
   1   2.0000     -88.966414     -2420.8992
   2   2.0000     -10.323799      -280.9249
   3   2.0000     -10.323530      -280.9175
   4   2.0000     -10.315177      -280.6902
   5   2.0000     -10.310595      -280.5656
   6   2.0000     -10.308738      -280.5150
   7   2.0000     -10.299492      -280.2634
   8   2.0000     -10.291644      -280.0499
   9   2.0000     -10.290251      -280.0120
  10   2.0000     -10.289458      -279.9904
  11   2.0000     -10.285216      -279.8750
  12   2.0000     -10.282233      -279.7938
  13   2.0000     -10.280275      -279.7405
  14   2.0000     -10.274491      -279.5831
  15   2.0000     -10.272593      -279.5315
  16   2.0000      -8.082059      -219.9240
  17   2.0000      -8.081159      -219.8995
  18   2.0000      -6.040597      -164.3730
  19   2.0000      -6.039574      -164.3452
  20   2.0000      -6.036512      -164.2618
  21   2.0000      -6.035708      -164.2400
  22   2.0000      -6.032908      -164.1638
  23   2.0000      -6.031980      -164.1385
  24   2.0000      -1.007369       -27.4119
  25   2.0000      -0.983149       -26.7528
  26   2.0000      -0.917450       -24.9651
  27   2.0000      -0.909442       -24.7472
  28   2.0000      -0.870186       -23.6790
  29   2.0000      -0.853595       -23.2275
  30   2.0000      -0.847721       -23.0677
  31   2.0000      -0.814756       -22.1706
  32   2.0000      -0.788465       -21.4552
  33   2.0000      -0.770554       -20.9678
  34   2.0000      -0.714749       -19.4493
  35   2.0000      -0.700616       -19.0647
  36   2.0000      -0.682504       -18.5719
  37   2.0000      -0.661451       -17.9990
  38   2.0000      -0.640453       -17.4276
  39   2.0000      -0.611097       -16.6288
  40   2.0000      -0.591629       -16.0990
  41   2.0000      -0.575594       -15.6627
  42   2.0000      -0.574000       -15.6193
  43   2.0000      -0.571802       -15.5595
  44   2.0000      -0.526539       -14.3279
  45   2.0000      -0.523867       -14.2551
  46   2.0000      -0.517283       -14.0760
  47   2.0000      -0.513510       -13.9733
  48   2.0000      -0.506621       -13.7859
  49   2.0000      -0.501092       -13.6354
  50   2.0000      -0.491585       -13.3767
  51   2.0000      -0.488570       -13.2947
  52   2.0000      -0.475185       -12.9304
  53   2.0000      -0.467595       -12.7239
  54   2.0000      -0.457936       -12.4611
  55   2.0000      -0.447493       -12.1769
  56   2.0000      -0.444488       -12.0951
  57   2.0000      -0.438036       -11.9196
  58   2.0000      -0.433659       -11.8005
  59   2.0000      -0.425397       -11.5756
  60   2.0000      -0.424873       -11.5614
  61   2.0000      -0.409398       -11.1403
  62   2.0000      -0.403761       -10.9869
  63   2.0000      -0.337953        -9.1962
  64   2.0000      -0.332737        -9.0542
  65   2.0000      -0.323353        -8.7989
  66   2.0000      -0.294849        -8.0232
  67   0.0000       0.032761         0.8915
  68   0.0000       0.068849         1.8735
  69   0.0000       0.107658         2.9295
  70   0.0000       0.121630         3.3097
  71   0.0000       0.125391         3.4121

MULLIKEN ATOMIC CHARGES
-----------------------
   0 S :    0.120946
   1 C :   -0.106219
   2 C :   -0.113876
   3 C :    0.015418
   4 C :   -0.149557
   5 H :    0.012774
   6 C :    0.153865
   7 H :    0.015022
   8 H :    0.026021
   9 C :   -0.164814
  10 H :    0.025898
  11 H :    0.040749
  12 C :    0.003118
  13 H :    0.038479
  14 H :    0.023478
  15 H :    0.004888
  16 S :    0.122675
  17 C :   -0.095407
  18 C :   -0.018144
  19 C :   -0.056911
  20 C :   -0.170036
  21 H :    0.004379
  22 C :    0.099650
  23 H :    0.023966
  24 H :    0.005682
  25 C :   -0.112150
  26 H :    0.038486
  27 H :    0.049615
  28 C :   -0.002760
  29 H :    0.024135
  30 H :    0.007932
  31 H :    0.044388
  32 H :    0.030644
  33 H :    0.057668
Sum of atomic charges:   -0.0000000

LOEWDIN ATOMIC CHARGES
----------------------
   0 S :    0.419873
   1 C :   -0.203086
   2 C :   -0.055381
   3 C :   -0.061610
   4 C :   -0.206378
   5 H :    0.031076
   6 C :   -0.029363
   7 H :    0.028627
   8 H :    0.032659
   9 C :   -0.051505
  10 H :    0.020154
  11 H :    0.030795
  12 C :   -0.062140
  13 H :    0.028241
  14 H :    0.028801
  15 H :    0.016290
  16 S :    0.416726
  17 C :   -0.184260
  18 C :   -0.067812
  19 C :   -0.042417
  20 C :   -0.208662
  21 H :    0.024242
  22 C :   -0.028997
  23 H :    0.027372
  24 H :    0.021806
  25 C :   -0.043486
  26 H :    0.027295
  27 H :    0.028553
  28 C :   -0.063773
  29 H :    0.024195
  30 H :    0.023324
  31 H :    0.028354
  32 H :    0.020792
  33 H :    0.029697

  Mayer bond orders larger than 0.100000
B(  0-S ,  1-C ) :   1.1311 B(  0-S ,  4-C ) :   1.1476 B(  1-C ,  2-C ) :   1.6014
B(  1-C , 32-H ) :   0.9689 B(  2-C ,  3-C ) :   1.2474 B(  2-C ,  6-C ) :   1.0262
B(  3-C ,  4-C ) :   1.5586 B(  3-C ,  5-H ) :   1.0026 B(  4-C , 20-C ) :   1.0480
B(  6-C ,  7-H ) :   0.9350 B(  6-C ,  8-H ) :   0.9174 B(  6-C ,  9-C ) :   1.0672
B(  9-C , 10-H ) :   0.9594 B(  9-C , 11-H ) :   0.9464 B(  9-C , 12-C ) :   1.0896
B( 12-C , 13-H ) :   0.9751 B( 12-C , 14-H ) :   0.9691 B( 12-C , 15-H ) :   0.9694
B( 16-S , 17-C ) :   1.1559 B( 16-S , 20-C ) :   1.1479 B( 17-C , 18-C ) :   1.6164
B( 17-C , 33-H ) :   0.9648 B( 18-C , 19-C ) :   1.2447 B( 18-C , 21-H ) :   0.9911
B( 19-C , 20-C ) :   1.5562 B( 19-C , 22-C ) :   1.0364 B( 22-C , 23-H ) :   0.9229
B( 22-C , 24-H ) :   0.9331 B( 22-C , 25-C ) :   1.0600 B( 25-C , 26-H ) :   0.9635
B( 25-C , 27-H ) :   0.9456 B( 25-C , 28-C ) :   1.0917 B( 28-C , 29-H ) :   0.9698
B( 28-C , 30-H ) :   0.9695 B( 28-C , 31-H ) :   0.9736

Dispersion correction           -0.014229343
FINAL SINGLE POINT ENERGY     -1339.873244613045

DIPOLE MOMENT
-------------
                                X             Y             Z
Electronic contribution:     21.69108      -2.71902       6.76237
Nuclear contribution   :    -21.91192       2.59294      -6.79633
                        -----------------------------------------
Total Dipole Moment    :     -0.22084      -0.12608      -0.03396
                        -----------------------------------------
Magnitude (a.u.)       :      0.25655
Magnitude (Debye)      :      0.65209

Rotational constants in cm-1:     0.020662     0.007826     0.006431
Rotational constants in MHz :   619.418326   234.610605   192.795624

                             ****ORCA TERMINATED NORMALLY****
TOTAL RUN TIME: 0 days 0 hours 0 minutes 20 seconds 300 msec
