                         Program Version 4.2.1 -  RELEASE  -
|  1> ! wB97X-D3 SP def2-SVP
|  2> %pal
|  3> nprocs 24
|  4> end
|  5>
|  6> * xyz 0 1
|  7> S 	 -82.2648 	 -33.5033 	 -53.995
|  8> C 	 -81.0369 	 -32.3294 	 -54.2275
|  9> C 	 -81.5802 	 -31.0581 	 -54.2522
| 10> C 	 -82.9829 	 -31.0507 	 -54.0197
| 11> C 	 -83.5712 	 -32.3088 	 -53.9006
| 12> H 	 -83.4733 	 -30.1257 	 -53.9401
| 13> C 	 -80.904 	 -29.7622 	 -54.731
| 14> H 	 -79.9738 	 -29.5966 	 -54.1763
| 15> H 	 -81.6409 	 -28.9781 	 -54.5087
| 16> C 	 -80.5871 	 -29.6101 	 -56.1705
| 17> H 	 -80.1314 	 -28.6137 	 -56.34
| 18> H 	 -79.995 	 -30.4885 	 -56.3857
| 19> C 	 -81.8206 	 -29.5937 	 -57.0971
| 20> H 	 -82.6017 	 -28.8792 	 -56.8553
| 21> H 	 -81.5242 	 -29.5897 	 -58.1873
| 22> H 	 -82.2956 	 -30.5684 	 -56.9764
| 23> S 	 -85.855 	 -33.6332 	 -54.8619
| 24> C 	 -87.3571 	 -33.5567 	 -53.9441
| 25> C 	 -87.1047 	 -33.0628 	 -52.6521
| 26> C 	 -85.7747 	 -32.5783 	 -52.4738
| 27> C 	 -84.9782 	 -32.7276 	 -53.6096
| 28> H 	 -87.9592 	 -33.0021 	 -52.0542
| 29> C 	 -85.2592 	 -31.9528 	 -51.1863
| 30> H 	 -84.8235 	 -31.0043 	 -51.4458
| 31> H 	 -84.4508 	 -32.6044 	 -50.7581
| 32> C 	 -86.2362 	 -31.5587 	 -50.1069
| 33> H 	 -86.736 	 -32.5266 	 -49.9108
| 34> H 	 -87.0646 	 -30.9978 	 -50.5088
| 35> C 	 -85.474 	 -31.097 	 -48.8218
| 36> H 	 -86.0915 	 -31.1069 	 -47.9118
| 37> H 	 -85.1918 	 -30.0418 	 -48.8711
| 38> H 	 -84.5645 	 -31.6996 	 -48.7551
| 39> H 	 -79.9882 	 -32.5869 	 -54.284
| 40> H 	 -88.249 	 -33.9614 	 -54.2809
| 41> *
| 42>
| 43>                          ****END OF INPUT****

CARTESIAN COORDINATES (ANGSTROEM)
---------------------------------
  S    -82.264800  -33.503300  -53.995000
  C    -81.036900  -32.329400  -54.227500
  C    -81.580200  -31.058100  -54.252200
  C    -82.982900  -31.050700  -54.019700
  C    -83.571200  -32.308800  -53.900600
  H    -83.473300  -30.125700  -53.940100
  C    -80.904000  -29.762200  -54.731000
  H    -79.973800  -29.596600  -54.176300
  H    -81.640900  -28.978100  -54.508700
  C    -80.587100  -29.610100  -56.170500
  H    -80.131400  -28.613700  -56.340000
  H    -79.995000  -30.488500  -56.385700
  C    -81.820600  -29.593700  -57.097100
  H    -82.601700  -28.879200  -56.855300
  H    -81.524200  -29.589700  -58.187300
  H    -82.295600  -30.568400  -56.976400
  S    -85.855000  -33.633200  -54.861900
  C    -87.357100  -33.556700  -53.944100
  C    -87.104700  -33.062800  -52.652100
  C    -85.774700  -32.578300  -52.473800
  C    -84.978200  -32.727600  -53.609600
  H    -87.959200  -33.002100  -52.054200
  C    -85.259200  -31.952800  -51.186300
  H    -84.823500  -31.004300  -51.445800
  H    -84.450800  -32.604400  -50.758100
  C    -86.236200  -31.558700  -50.106900
  H    -86.736000  -32.526600  -49.910800
  H    -87.064600  -30.997800  -50.508800
  C    -85.474000  -31.097000  -48.821800
  H    -86.091500  -31.106900  -47.911800
  H    -85.191800  -30.041800  -48.871100
  H    -84.564500  -31.699600  -48.755100
  H    -79.988200  -32.586900  -54.284000
  H    -88.249000  -33.961400  -54.280900

 Total Charge           Charge          ....    0
 Multiplicity           Mult            ....    1
 Number of Electrons    NEL             ....  134
 Basis Dimension        Dim             ....  322

ORBITAL ENERGIES
----------------

  NO   OCC          E(Eh)            E(eV)
   0   2.0000     -88.965805     -2420.8826
   1   2.0000     -88.965677     -2420.8792
   2   2.0000     -10.336538      -281.2715
   3   2.0000     -10.332181      -281.1529
   4   2.0000     -10.318518      -280.7812
   5   2.0000     -10.315160      -280.6898
   6   2.0000     -10.309542      -280.5369
   7   2.0000     -10.298972      -280.2493
   8   2.0000     -10.295404      -280.1522
   9   2.0000     -10.293446      -280.0989
  10   2.0000     -10.289372      -279.9881
  11   2.0000     -10.288869      -279.9744
  12   2.0000     -10.286343      -279.9056
  13   2.0000     -10.285087      -279.8714
  14   2.0000     -10.283684      -279.8333
  15   2.0000     -10.274938      -279.5953
  16   2.0000      -8.080817      -219.8902
  17   2.0000      -8.079824      -219.8632
  18   2.0000      -6.039307      -164.3379
  19   2.0000      -6.038269      -164.3096
  20   2.0000      -6.035006      -164.2209
  21   2.0000      -6.034350      -164.2030
  22   2.0000      -6.031861      -164.1353
  23   2.0000      -6.030750      -164.1051
  24   2.0000      -1.002846       -27.2888
  25   2.0000      -0.983631       -26.7660
  26   2.0000      -0.915663       -24.9165
  27   2.0000      -0.910890       -24.7866
  28   2.0000      -0.865634       -23.5551
  29   2.0000      -0.847985       -23.0748
  30   2.0000      -0.844915       -22.9913
  31   2.0000      -0.814287       -22.1579
  32   2.0000      -0.781432       -21.2638
  33   2.0000      -0.772629       -21.0243
  34   2.0000      -0.707142       -19.2423
  35   2.0000      -0.702239       -19.1089
  36   2.0000      -0.693080       -18.8597
  37   2.0000      -0.655585       -17.8394
  38   2.0000      -0.645172       -17.5560
  39   2.0000      -0.618422       -16.8281
  40   2.0000      -0.600217       -16.3327
  41   2.0000      -0.581232       -15.8161
  42   2.0000      -0.570909       -15.5352
  43   2.0000      -0.551110       -14.9965
  44   2.0000      -0.547490       -14.8980
  45   2.0000      -0.528560       -14.3829
  46   2.0000      -0.513557       -13.9746
  47   2.0000      -0.509226       -13.8567
  48   2.0000      -0.506416       -13.7803
  49   2.0000      -0.493532       -13.4297
  50   2.0000      -0.483636       -13.1604
  51   2.0000      -0.477831       -13.0025
  52   2.0000      -0.474314       -12.9067
  53   2.0000      -0.469192       -12.7674
  54   2.0000      -0.457698       -12.4546
  55   2.0000      -0.449485       -12.2311
  56   2.0000      -0.443404       -12.0656
  57   2.0000      -0.440431       -11.9847
  58   2.0000      -0.435123       -11.8403
  59   2.0000      -0.422265       -11.4904
  60   2.0000      -0.416648       -11.3376
  61   2.0000      -0.406453       -11.0601
  62   2.0000      -0.404301       -11.0016
  63   2.0000      -0.339430        -9.2364
  64   2.0000      -0.331533        -9.0215
  65   2.0000      -0.329003        -8.9526
  66   2.0000      -0.300258        -8.1704
  67   0.0000       0.034913         0.9500
  68   0.0000       0.051894         1.4121
  69   0.0000       0.119011         3.2384
  70   0.0000       0.124229         3.3805
  71   0.0000       0.128691         3.5019

MULLIKEN ATOMIC CHARGES
-----------------------
   0 S :    0.112788
   1 C :   -0.128448
   2 C :   -0.111215
   3 C :    0.066844
   4 C :   -0.158994
   5 H :   -0.007912
   6 C :    0.063609
   7 H :    0.033686
   8 H :    0.008055
   9 C :   -0.043666
  10 H :    0.041404
  11 H :    0.024455
  12 C :   -0.087756
  13 H :    0.031582
  14 H :    0.044565
  15 H :    0.033569
  16 S :    0.103137
  17 C :   -0.071856
  18 C :   -0.043415
  19 C :    0.002443
  20 C :   -0.169207
  21 H :    0.004005
  22 C :    0.055005
  23 H :    0.019801
  24 H :    0.050185
  25 C :   -0.093634
  26 H :    0.021474
  27 H :    0.027732
  28 C :   -0.026878
  29 H :    0.038998
  30 H :    0.032595
  31 H :    0.037228
  32 H :    0.054905
  33 H :    0.034915
Sum of atomic charges:    0.0000000

LOEWDIN ATOMIC CHARGES
----------------------
   0 S :    0.419185
   1 C :   -0.204544
   2 C :   -0.072753
   3 C :   -0.052581
   4 C :   -0.192615
   5 H :    0.022630
   6 C :   -0.032917
   7 H :    0.032348
   8 H :    0.025829
   9 C :   -0.041480
  10 H :    0.031003
  11 H :    0.023817
  12 C :   -0.075893
  13 H :    0.021980
  14 H :    0.033726
  15 H :    0.026153
  16 S :    0.396748
  17 C :   -0.163046
  18 C :   -0.069634
  19 C :   -0.048881
  20 C :   -0.199127
  21 H :    0.023332
  22 C :   -0.036996
  23 H :    0.028699
  24 H :    0.040379
  25 C :   -0.049131
  26 H :    0.021837
  27 H :    0.021506
  28 C :   -0.060574
  29 H :    0.030044
  30 H :    0.026529
  31 H :    0.030052
  32 H :    0.030022
  33 H :    0.014351

  Mayer bond orders larger than 0.100000
B(  0-S ,  1-C ) :   1.1667 B(  0-S ,  4-C ) :   1.1665 B(  1-C ,  2-C ) :   1.5664
B(  1-C ,  4-C ) :   0.1033 B(  1-C , 32-H ) :   0.9727 B(  2-C ,  3-C ) :   1.2862
B(  2-C ,  6-C ) :   1.0191 B(  3-C ,  4-C ) :   1.5499 B(  3-C ,  5-H ) :   1.0030
B(  4-C , 20-C ) :   1.0071 B(  6-C ,  7-H ) :   0.9357 B(  6-C ,  8-H ) :   0.9393
B(  6-C ,  9-C ) :   1.0823 B(  9-C , 10-H ) :   0.9525 B(  9-C , 11-H ) :   0.9518
B(  9-C , 12-C ) :   1.0799 B( 12-C , 13-H ) :   0.9749 B( 12-C , 14-H ) :   0.9736
B( 12-C , 15-H ) :   0.9731 B( 16-S , 17-C ) :   1.1709 B( 16-S , 20-C ) :   1.1480
B( 17-C , 18-C ) :   1.5856 B( 17-C , 20-C ) :   0.1099 B( 17-C , 33-H ) :   0.9749
B( 18-C , 19-C ) :   1.2340 B( 18-C , 21-H ) :   1.0017 B( 19-C , 20-C ) :   1.5919
B( 19-C , 22-C ) :   1.0284 B( 22-C , 23-H ) :   0.9311 B( 22-C , 24-H ) :   0.9273
B( 22-C , 25-C ) :   1.0823 B( 25-C , 26-H ) :   0.9465 B( 25-C , 27-H ) :   0.9572
B( 25-C , 28-C ) :   1.0636 B( 28-C , 29-H ) :   0.9750 B( 28-C , 30-H ) :   0.9755
B( 28-C , 31-H ) :   0.9729

Dispersion correction           -0.014025762
FINAL SINGLE POINT ENERGY     -1339.871579745163

DIPOLE MOMENT
-------------
                                X             Y             Z
Electronic contribution:     -3.78434     -18.86059      -8.24742
Nuclear contribution   :      3.75102      19.28991       8.55829
                        -----------------------------------------
Total Dipole Moment    :     -0.03332       0.42932       0.31087
                        -----------------------------------------
Magnitude (a.u.)       :      0.53110
Magnitude (Debye)      :      1.34995

Rotational constants in cm-1:     0.018447     0.007988     0.006714
Rotational constants in MHz :   553.027581   239.488795   201.272825

                             ****ORCA TERMINATED NORMALLY****
TOTAL RUN TIME: 0 days 0 hours 0 minutes 21 seconds 86 msec
