                         Program Version 4.2.1 -  RELEASE  -
|  1> ! wB97X-D3 SP def2-SVP
|  2> %pal
|  3> nprocs 24
|  4> end
|  5>
|  6> * xyz 0 1
|  7> S 	 -120.165 	 61.8953 	 -37.914
|  8> C 	 -120.84 	 63.4951 	 -38.1762
|  9> C 	 -119.844 	 64.3564 	 -38.4888
| 10> C 	 -118.613 	 63.7367 	 -38.7226
| 11> C 	 -118.584 	 62.3796 	 -38.5651
| 12> H 	 -117.644 	 64.2468 	 -38.887
| 13> C 	 -119.895 	 65.9075 	 -38.3802
| 14> H 	 -118.977 	 66.0935 	 -37.7996
| 15> H 	 -120.84 	 66.1481 	 -37.8579
| 16> C 	 -119.698 	 66.6716 	 -39.7142
| 17> H 	 -119.594 	 67.7661 	 -39.5147
| 18> H 	 -118.749 	 66.2608 	 -40.1397
| 19> C 	 -120.96 	 66.4083 	 -40.6131
| 20> H 	 -121.037 	 65.3507 	 -40.7645
| 21> H 	 -121.863 	 66.7078 	 -40.0571
| 22> H 	 -120.896 	 66.9168 	 -41.5711
| 23> S 	 -117.098 	 60.391 	 -39.4486
| 24> C 	 -115.984 	 59.5015 	 -38.3419
| 25> C 	 -116.013 	 60.0768 	 -37.106
| 26> C 	 -116.933 	 61.2062 	 -37.0173
| 27> C 	 -117.525 	 61.4916 	 -38.2151
| 28> H 	 -115.438 	 59.5465 	 -36.3573
| 29> C 	 -117.358 	 61.8752 	 -35.7522
| 30> H 	 -117.073 	 61.2466 	 -34.9358
| 31> H 	 -118.487 	 62.0193 	 -35.6605
| 32> C 	 -116.854 	 63.3303 	 -35.6227
| 33> H 	 -117.046 	 63.9431 	 -36.5057
| 34> H 	 -115.772 	 63.3601 	 -35.5624
| 35> C 	 -117.432 	 64.13 	 -34.4285
| 36> H 	 -117.266 	 65.2046 	 -34.5288
| 37> H 	 -117.079 	 63.7807 	 -33.4531
| 38> H 	 -118.5 	 64.2238 	 -34.2327
| 39> H 	 -121.808 	 63.7976 	 -38.0002
| 40> H 	 -115.595 	 58.4341 	 -38.5054
| 41> *
| 42>
| 43>                          ****END OF INPUT****

CARTESIAN COORDINATES (ANGSTROEM)
---------------------------------
  S    -120.165000   61.895300  -37.914000
  C    -120.840000   63.495100  -38.176200
  C    -119.844000   64.356400  -38.488800
  C    -118.613000   63.736700  -38.722600
  C    -118.584000   62.379600  -38.565100
  H    -117.644000   64.246800  -38.887000
  C    -119.895000   65.907500  -38.380200
  H    -118.977000   66.093500  -37.799600
  H    -120.840000   66.148100  -37.857900
  C    -119.698000   66.671600  -39.714200
  H    -119.594000   67.766100  -39.514700
  H    -118.749000   66.260800  -40.139700
  C    -120.960000   66.408300  -40.613100
  H    -121.037000   65.350700  -40.764500
  H    -121.863000   66.707800  -40.057100
  H    -120.896000   66.916800  -41.571100
  S    -117.098000   60.391000  -39.448600
  C    -115.984000   59.501500  -38.341900
  C    -116.013000   60.076800  -37.106000
  C    -116.933000   61.206200  -37.017300
  C    -117.525000   61.491600  -38.215100
  H    -115.438000   59.546500  -36.357300
  C    -117.358000   61.875200  -35.752200
  H    -117.073000   61.246600  -34.935800
  H    -118.487000   62.019300  -35.660500
  C    -116.854000   63.330300  -35.622700
  H    -117.046000   63.943100  -36.505700
  H    -115.772000   63.360100  -35.562400
  C    -117.432000   64.130000  -34.428500
  H    -117.266000   65.204600  -34.528800
  H    -117.079000   63.780700  -33.453100
  H    -118.500000   64.223800  -34.232700
  H    -121.808000   63.797600  -38.000200
  H    -115.595000   58.434100  -38.505400

 Total Charge           Charge          ....    0
 Multiplicity           Mult            ....    1
 Number of Electrons    NEL             ....  134
 Basis Dimension        Dim             ....  322

ORBITAL ENERGIES
----------------

  NO   OCC          E(Eh)            E(eV)
   0   2.0000     -88.963966     -2420.8326
   1   2.0000     -88.960721     -2420.7443
   2   2.0000     -10.326714      -281.0042
   3   2.0000     -10.323328      -280.9120
   4   2.0000     -10.319165      -280.7988
   5   2.0000     -10.311595      -280.5928
   6   2.0000     -10.304384      -280.3965
   7   2.0000     -10.300398      -280.2881
   8   2.0000     -10.298835      -280.2455
   9   2.0000     -10.298528      -280.2372
  10   2.0000     -10.297680      -280.2141
  11   2.0000     -10.297188      -280.2007
  12   2.0000     -10.290872      -280.0289
  13   2.0000     -10.286577      -279.9120
  14   2.0000     -10.277399      -279.6623
  15   2.0000     -10.275890      -279.6212
  16   2.0000      -8.078148      -219.8176
  17   2.0000      -8.075808      -219.7539
  18   2.0000      -6.036778      -164.2691
  19   2.0000      -6.034367      -164.2035
  20   2.0000      -6.032691      -164.1579
  21   2.0000      -6.030192      -164.0899
  22   2.0000      -6.028805      -164.0521
  23   2.0000      -6.026530      -163.9902
  24   2.0000      -1.015133       -27.6232
  25   2.0000      -0.987405       -26.8687
  26   2.0000      -0.909494       -24.7486
  27   2.0000      -0.903508       -24.5857
  28   2.0000      -0.876551       -23.8522
  29   2.0000      -0.845877       -23.0175
  30   2.0000      -0.843598       -22.9555
  31   2.0000      -0.821533       -22.3550
  32   2.0000      -0.780936       -21.2503
  33   2.0000      -0.770116       -20.9559
  34   2.0000      -0.715214       -19.4620
  35   2.0000      -0.699306       -19.0291
  36   2.0000      -0.693544       -18.8723
  37   2.0000      -0.660533       -17.9740
  38   2.0000      -0.648129       -17.6365
  39   2.0000      -0.623976       -16.9792
  40   2.0000      -0.590669       -16.0729
  41   2.0000      -0.569942       -15.5089
  42   2.0000      -0.556152       -15.1337
  43   2.0000      -0.549639       -14.9564
  44   2.0000      -0.543568       -14.7912
  45   2.0000      -0.524519       -14.2729
  46   2.0000      -0.523076       -14.2336
  47   2.0000      -0.513446       -13.9716
  48   2.0000      -0.504622       -13.7315
  49   2.0000      -0.499977       -13.6051
  50   2.0000      -0.487280       -13.2596
  51   2.0000      -0.477259       -12.9869
  52   2.0000      -0.472754       -12.8643
  53   2.0000      -0.464138       -12.6298
  54   2.0000      -0.456946       -12.4341
  55   2.0000      -0.440494       -11.9864
  56   2.0000      -0.440007       -11.9732
  57   2.0000      -0.435929       -11.8622
  58   2.0000      -0.433979       -11.8092
  59   2.0000      -0.430669       -11.7191
  60   2.0000      -0.423819       -11.5327
  61   2.0000      -0.412650       -11.2288
  62   2.0000      -0.408624       -11.1192
  63   2.0000      -0.338561        -9.2127
  64   2.0000      -0.332499        -9.0478
  65   2.0000      -0.320036        -8.7086
  66   2.0000      -0.312046        -8.4912
  67   0.0000       0.039629         1.0784
  68   0.0000       0.048297         1.3142
  69   0.0000       0.100141         2.7250
  70   0.0000       0.119240         3.2447
  71   0.0000       0.128267         3.4903

MULLIKEN ATOMIC CHARGES
-----------------------
   0 S :    0.092145
   1 C :   -0.074660
   2 C :   -0.095892
   3 C :    0.021863
   4 C :   -0.134336
   5 H :    0.035473
   6 C :    0.044147
   7 H :    0.037794
   8 H :    0.028160
   9 C :   -0.089039
  10 H :    0.045947
  11 H :    0.037461
  12 C :   -0.047432
  13 H :    0.035833
  14 H :    0.025968
  15 H :    0.041936
  16 S :    0.096168
  17 C :   -0.130636
  18 C :   -0.035364
  19 C :   -0.011898
  20 C :   -0.181183
  21 H :    0.024359
  22 C :    0.085187
  23 H :    0.012451
  24 H :    0.038202
  25 C :   -0.056433
  26 H :    0.020074
  27 H :    0.022426
  28 C :   -0.060058
  29 H :    0.023509
  30 H :    0.026436
  31 H :    0.020844
  32 H :    0.011161
  33 H :    0.089388
Sum of atomic charges:    0.0000000

LOEWDIN ATOMIC CHARGES
----------------------
   0 S :    0.406568
   1 C :   -0.174419
   2 C :   -0.073819
   3 C :   -0.056513
   4 C :   -0.191097
   5 H :    0.037036
   6 C :   -0.026507
   7 H :    0.035262
   8 H :    0.027944
   9 C :   -0.042890
  10 H :    0.027505
  11 H :    0.026435
  12 C :   -0.064753
  13 H :    0.023247
  14 H :    0.025618
  15 H :    0.025117
  16 S :    0.402296
  17 C :   -0.188274
  18 C :   -0.069979
  19 C :   -0.057520
  20 C :   -0.219349
  21 H :    0.035261
  22 C :   -0.035859
  23 H :    0.025427
  24 H :    0.033928
  25 C :   -0.037286
  26 H :    0.023642
  27 H :    0.023064
  28 C :   -0.079642
  29 H :    0.028007
  30 H :    0.022684
  31 H :    0.024945
  32 H :    0.013378
  33 H :    0.050545

  Mayer bond orders larger than 0.100000
B(  0-S ,  1-C ) :   1.1393 B(  0-S ,  4-C ) :   1.1521 B(  1-C ,  2-C ) :   1.6113
B(  1-C , 32-H ) :   0.9793 B(  2-C ,  3-C ) :   1.2507 B(  2-C ,  6-C ) :   0.9971
B(  3-C ,  4-C ) :   1.6025 B(  3-C ,  5-H ) :   0.9788 B(  4-C , 20-C ) :   0.9958
B(  6-C ,  7-H ) :   0.9433 B(  6-C ,  8-H ) :   0.9486 B(  6-C ,  9-C ) :   1.0644
B(  9-C , 10-H ) :   0.9583 B(  9-C , 11-H ) :   0.9554 B(  9-C , 12-C ) :   1.0636
B( 12-C , 13-H ) :   0.9770 B( 12-C , 14-H ) :   0.9754 B( 12-C , 15-H ) :   0.9764
B( 16-S , 17-C ) :   1.1349 B( 16-S , 20-C ) :   1.1439 B( 17-C , 18-C ) :   1.6596
B( 17-C , 33-H ) :   0.9531 B( 18-C , 19-C ) :   1.1980 B( 18-C , 21-H ) :   0.9895
B( 19-C , 20-C ) :   1.6224 B( 19-C , 22-C ) :   1.0592 B( 22-C , 23-H ) :   0.9285
B( 22-C , 24-H ) :   0.9297 B( 22-C , 25-C ) :   1.0511 B( 25-C , 26-H ) :   0.9561
B( 25-C , 27-H ) :   0.9490 B( 25-C , 28-C ) :   1.0779 B( 28-C , 29-H ) :   0.9731
B( 28-C , 30-H ) :   0.9764 B( 28-C , 31-H ) :   0.9725

Dispersion correction           -0.015735710
FINAL SINGLE POINT ENERGY     -1339.860433532675

DIPOLE MOMENT
-------------
                                X             Y             Z
Electronic contribution:      2.00584     -23.93759      -8.59255
Nuclear contribution   :     -1.99505      24.35710       9.08390
                        -----------------------------------------
Total Dipole Moment    :      0.01079       0.41952       0.49135
                        -----------------------------------------
Magnitude (a.u.)       :      0.64617
Magnitude (Debye)      :      1.64243

Rotational constants in cm-1:     0.020428     0.009127     0.007550
Rotational constants in MHz :   612.406609   273.633152   226.336653

                             ****ORCA TERMINATED NORMALLY****
TOTAL RUN TIME: 0 days 0 hours 0 minutes 22 seconds 821 msec
