                         Program Version 4.2.1 -  RELEASE  -
|  1> ! wB97X-D3 SP def2-SVP
|  2> %pal
|  3> nprocs 24
|  4> end
|  5>
|  6> * xyz 0 1
|  7> S 	 -122.183 	 31.3837 	 -114.571
|  8> C 	 -120.415 	 31.3611 	 -114.855
|  9> C 	 -119.8 	 31.887 	 -113.709
| 10> C 	 -120.644 	 32.2068 	 -112.645
| 11> C 	 -122.045 	 32.1785 	 -112.953
| 12> H 	 -120.202 	 32.4897 	 -111.713
| 13> C 	 -118.293 	 31.9425 	 -113.599
| 14> H 	 -118.156 	 32.4884 	 -112.637
| 15> H 	 -117.993 	 32.6468 	 -114.377
| 16> C 	 -117.443 	 30.6604 	 -113.704
| 17> H 	 -117.8 	 30.1794 	 -114.628
| 18> H 	 -116.418 	 30.904 	 -114.006
| 19> C 	 -117.471 	 29.7715 	 -112.48
| 20> H 	 -116.982 	 30.1504 	 -111.604
| 21> H 	 -118.43 	 29.5843 	 -112.241
| 22> H 	 -116.94 	 28.8099 	 -112.672
| 23> S 	 -124.68 	 31.4647 	 -112.235
| 24> C 	 -125.446 	 32.3057 	 -110.939
| 25> C 	 -124.556 	 33.0427 	 -110.163
| 26> C 	 -123.248 	 33.0591 	 -110.746
| 27> C 	 -123.178 	 32.3898 	 -111.968
| 28> H 	 -124.888 	 33.5407 	 -109.28
| 29> C 	 -122.042 	 33.697 	 -110.09
| 30> H 	 -122.428 	 34.4582 	 -109.393
| 31> H 	 -121.453 	 34.2478 	 -110.827
| 32> C 	 -121.094 	 32.7379 	 -109.263
| 33> H 	 -120.152 	 33.1815 	 -109.114
| 34> H 	 -120.835 	 31.8623 	 -109.834
| 35> C 	 -121.661 	 32.0977 	 -108
| 36> H 	 -120.807 	 31.4917 	 -107.632
| 37> H 	 -122.626 	 31.5599 	 -108.145
| 38> H 	 -121.933 	 32.8249 	 -107.233
| 39> H 	 -119.852 	 30.9522 	 -115.674
| 40> H 	 -126.398 	 31.9917 	 -110.565
| 41> *
| 42>
| 43>                          ****END OF INPUT****

CARTESIAN COORDINATES (ANGSTROEM)
---------------------------------
  S    -122.183000   31.383700  -114.571000
  C    -120.415000   31.361100  -114.855000
  C    -119.800000   31.887000  -113.709000
  C    -120.644000   32.206800  -112.645000
  C    -122.045000   32.178500  -112.953000
  H    -120.202000   32.489700  -111.713000
  C    -118.293000   31.942500  -113.599000
  H    -118.156000   32.488400  -112.637000
  H    -117.993000   32.646800  -114.377000
  C    -117.443000   30.660400  -113.704000
  H    -117.800000   30.179400  -114.628000
  H    -116.418000   30.904000  -114.006000
  C    -117.471000   29.771500  -112.480000
  H    -116.982000   30.150400  -111.604000
  H    -118.430000   29.584300  -112.241000
  H    -116.940000   28.809900  -112.672000
  S    -124.680000   31.464700  -112.235000
  C    -125.446000   32.305700  -110.939000
  C    -124.556000   33.042700  -110.163000
  C    -123.248000   33.059100  -110.746000
  C    -123.178000   32.389800  -111.968000
  H    -124.888000   33.540700  -109.280000
  C    -122.042000   33.697000  -110.090000
  H    -122.428000   34.458200  -109.393000
  H    -121.453000   34.247800  -110.827000
  C    -121.094000   32.737900  -109.263000
  H    -120.152000   33.181500  -109.114000
  H    -120.835000   31.862300  -109.834000
  C    -121.661000   32.097700  -108.000000
  H    -120.807000   31.491700  -107.632000
  H    -122.626000   31.559900  -108.145000
  H    -121.933000   32.824900  -107.233000
  H    -119.852000   30.952200  -115.674000
  H    -126.398000   31.991700  -110.565000

 Total Charge           Charge          ....    0
 Multiplicity           Mult            ....    1
 Number of Electrons    NEL             ....  134
 Basis Dimension        Dim             ....  322

ORBITAL ENERGIES
----------------

  NO   OCC          E(Eh)            E(eV)
   0   2.0000     -88.973361     -2421.0882
   1   2.0000     -88.967808     -2420.9371
   2   2.0000     -10.348332      -281.5924
   3   2.0000     -10.337799      -281.3058
   4   2.0000     -10.319522      -280.8085
   5   2.0000     -10.317026      -280.7406
   6   2.0000     -10.308410      -280.5061
   7   2.0000     -10.298249      -280.2296
   8   2.0000     -10.297991      -280.2226
   9   2.0000     -10.297123      -280.1990
  10   2.0000     -10.296411      -280.1796
  11   2.0000     -10.292375      -280.0698
  12   2.0000     -10.291265      -280.0396
  13   2.0000     -10.285975      -279.8956
  14   2.0000     -10.282287      -279.7952
  15   2.0000     -10.270015      -279.4613
  16   2.0000      -8.085677      -220.0225
  17   2.0000      -8.082531      -219.9369
  18   2.0000      -6.044428      -164.4773
  19   2.0000      -6.040970      -164.3831
  20   2.0000      -6.040406      -164.3678
  21   2.0000      -6.037154      -164.2793
  22   2.0000      -6.036414      -164.2592
  23   2.0000      -6.033259      -164.1733
  24   2.0000      -0.999921       -27.2092
  25   2.0000      -0.979703       -26.6591
  26   2.0000      -0.910130       -24.7659
  27   2.0000      -0.907084       -24.6830
  28   2.0000      -0.863665       -23.5015
  29   2.0000      -0.854712       -23.2579
  30   2.0000      -0.846800       -23.0426
  31   2.0000      -0.814440       -22.1620
  32   2.0000      -0.785357       -21.3706
  33   2.0000      -0.773243       -21.0410
  34   2.0000      -0.712783       -19.3958
  35   2.0000      -0.707288       -19.2463
  36   2.0000      -0.694824       -18.9071
  37   2.0000      -0.665737       -18.1156
  38   2.0000      -0.632959       -17.2237
  39   2.0000      -0.616470       -16.7750
  40   2.0000      -0.593091       -16.1388
  41   2.0000      -0.571273       -15.5451
  42   2.0000      -0.556300       -15.1377
  43   2.0000      -0.553224       -15.0540
  44   2.0000      -0.547444       -14.8967
  45   2.0000      -0.536315       -14.5939
  46   2.0000      -0.515135       -14.0175
  47   2.0000      -0.511041       -13.9061
  48   2.0000      -0.505981       -13.7684
  49   2.0000      -0.496798       -13.5186
  50   2.0000      -0.490127       -13.3370
  51   2.0000      -0.482194       -13.1212
  52   2.0000      -0.477326       -12.9887
  53   2.0000      -0.468453       -12.7473
  54   2.0000      -0.458346       -12.4722
  55   2.0000      -0.449611       -12.2345
  56   2.0000      -0.442065       -12.0292
  57   2.0000      -0.437604       -11.9078
  58   2.0000      -0.434804       -11.8316
  59   2.0000      -0.432509       -11.7692
  60   2.0000      -0.421275       -11.4635
  61   2.0000      -0.412762       -11.2318
  62   2.0000      -0.406367       -11.0578
  63   2.0000      -0.355688        -9.6788
  64   2.0000      -0.334245        -9.0953
  65   2.0000      -0.331301        -9.0152
  66   2.0000      -0.281518        -7.6605
  67   0.0000       0.010203         0.2776
  68   0.0000       0.075720         2.0604
  69   0.0000       0.092621         2.5204
  70   0.0000       0.120267         3.2726
  71   0.0000       0.132937         3.6174

MULLIKEN ATOMIC CHARGES
-----------------------
   0 S :    0.097955
   1 C :   -0.119363
   2 C :   -0.099859
   3 C :    0.011289
   4 C :   -0.088060
   5 H :   -0.013590
   6 C :    0.033135
   7 H :    0.012564
   8 H :    0.038382
   9 C :   -0.041630
  10 H :    0.012754
  11 H :    0.022861
  12 C :    0.003151
  13 H :    0.022436
  14 H :    0.011814
  15 H :    0.033888
  16 S :    0.099087
  17 C :   -0.077769
  18 C :   -0.028841
  19 C :   -0.059648
  20 C :   -0.133153
  21 H :    0.014005
  22 C :    0.047617
  23 H :    0.021380
  24 H :    0.034939
  25 C :   -0.070474
  26 H :    0.018995
  27 H :    0.033925
  28 C :   -0.057034
  29 H :    0.043978
  30 H :    0.050928
  31 H :    0.019897
  32 H :    0.050569
  33 H :    0.053873
Sum of atomic charges:    0.0000000

LOEWDIN ATOMIC CHARGES
----------------------
   0 S :    0.381958
   1 C :   -0.189666
   2 C :   -0.070115
   3 C :   -0.068475
   4 C :   -0.171864
   5 H :    0.024635
   6 C :   -0.037898
   7 H :    0.027243
   8 H :    0.037214
   9 C :   -0.039281
  10 H :    0.023467
  11 H :    0.024943
  12 C :   -0.054792
  13 H :    0.024553
  14 H :    0.011209
  15 H :    0.034618
  16 S :    0.402599
  17 C :   -0.186440
  18 C :   -0.067243
  19 C :   -0.057349
  20 C :   -0.180193
  21 H :    0.030081
  22 C :   -0.034208
  23 H :    0.030318
  24 H :    0.032456
  25 C :   -0.042450
  26 H :    0.018426
  27 H :    0.024268
  28 C :   -0.068149
  29 H :    0.035297
  30 H :    0.032759
  31 H :    0.017996
  32 H :    0.029955
  33 H :    0.024130

  Mayer bond orders larger than 0.100000
B(  0-S ,  1-C ) :   1.1358 B(  0-S ,  4-C ) :   1.1589 B(  1-C ,  2-C ) :   1.5506
B(  1-C ,  4-C ) :   0.1160 B(  1-C , 32-H ) :   0.9716 B(  2-C ,  3-C ) :   1.3251
B(  2-C ,  6-C ) :   1.0157 B(  3-C ,  4-C ) :   1.4799 B(  3-C ,  5-H ) :   0.9782
B(  4-C , 20-C ) :   1.0709 B(  6-C ,  7-H ) :   0.9440 B(  6-C ,  8-H ) :   0.9324
B(  6-C ,  9-C ) :   1.0730 B(  9-C , 10-H ) :   0.9506 B(  9-C , 11-H ) :   0.9517
B(  9-C , 12-C ) :   1.0755 B( 12-C , 13-H ) :   0.9728 B( 12-C , 14-H ) :   0.9783
B( 12-C , 15-H ) :   0.9705 B( 16-S , 17-C ) :   1.1720 B( 16-S , 20-C ) :   1.1336
B( 17-C , 18-C ) :   1.5879 B( 17-C , 33-H ) :   0.9652 B( 18-C , 19-C ) :   1.2545
B( 18-C , 21-H ) :   0.9975 B( 19-C , 20-C ) :   1.5801 B( 19-C , 22-C ) :   1.0463
B( 22-C , 23-H ) :   0.9386 B( 22-C , 24-H ) :   0.9324 B( 22-C , 25-C ) :   1.0595
B( 25-C , 26-H ) :   0.9560 B( 25-C , 27-H ) :   0.9507 B( 25-C , 28-C ) :   1.0710
B( 28-C , 29-H ) :   0.9729 B( 28-C , 30-H ) :   0.9742 B( 28-C , 31-H ) :   0.9745

Dispersion correction           -0.014787282
FINAL SINGLE POINT ENERGY     -1339.862510861846

DIPOLE MOMENT
-------------
                                X             Y             Z
Electronic contribution:    -24.64443       0.83902     -15.81279
Nuclear contribution   :     25.24237      -0.85987      16.35344
                        -----------------------------------------
Total Dipole Moment    :      0.59793      -0.02085       0.54065
                        -----------------------------------------
Magnitude (a.u.)       :      0.80639
Magnitude (Debye)      :      2.04967

Rotational constants in cm-1:     0.019181     0.009131     0.006806
Rotational constants in MHz :   575.021292   273.734473   204.028305

                             ****ORCA TERMINATED NORMALLY****
TOTAL RUN TIME: 0 days 0 hours 0 minutes 22 seconds 163 msec
