                         Program Version 4.2.1 -  RELEASE  -
|  1> ! wB97X-D3 SP def2-SVP
|  2> %pal
|  3> nprocs 24
|  4> end
|  5>
|  6> * xyz 0 1
|  7> S 	 -64.7982 	 -48.9931 	 -85.0988
|  8> C 	 -63.0002 	 -48.7399 	 -84.985
|  9> C 	 -62.5337 	 -48.81 	 -83.7037
| 10> C 	 -63.5834 	 -48.9094 	 -82.8122
| 11> C 	 -64.8353 	 -49.023 	 -83.3387
| 12> H 	 -63.4862 	 -49.1004 	 -81.7197
| 13> C 	 -61.0942 	 -48.8792 	 -83.3271
| 14> H 	 -61.0342 	 -48.7 	 -82.2896
| 15> H 	 -60.5651 	 -48.0177 	 -83.8753
| 16> C 	 -60.3608 	 -50.1517 	 -83.6702
| 17> H 	 -59.4213 	 -50.1193 	 -83.2078
| 18> H 	 -60.8228 	 -51.0058 	 -83.1763
| 19> C 	 -60.1 	 -50.4338 	 -85.2128
| 20> H 	 -60.969 	 -50.4263 	 -85.8375
| 21> H 	 -59.4979 	 -49.5651 	 -85.463
| 22> H 	 -59.5897 	 -51.4168 	 -85.3568
| 23> S 	 -67.4526 	 -48.336 	 -82.9396
| 24> C 	 -68.3328 	 -48.9155 	 -81.5696
| 25> C 	 -67.6493 	 -49.927 	 -80.914
| 26> C 	 -66.3138 	 -50.0235 	 -81.399
| 27> C 	 -66.0626 	 -49.3022 	 -82.5456
| 28> H 	 -68.0655 	 -50.5424 	 -80.1548
| 29> C 	 -65.3832 	 -51.104 	 -80.7869
| 30> H 	 -65.5697 	 -50.9939 	 -79.7647
| 31> H 	 -64.3713 	 -50.8061 	 -80.8773
| 32> C 	 -65.6823 	 -52.4883 	 -81.2429
| 33> H 	 -66.844 	 -52.6595 	 -81.0634
| 34> H 	 -65.1523 	 -53.2078 	 -80.574
| 35> C 	 -65.3271 	 -52.7927 	 -82.6929
| 36> H 	 -65.6484 	 -51.9821 	 -83.3288
| 37> H 	 -65.8072 	 -53.7889 	 -82.9294
| 38> H 	 -64.2583 	 -52.871 	 -82.7693
| 39> H 	 -62.4034 	 -48.4818 	 -85.858
| 40> H 	 -69.3196 	 -48.576 	 -81.3711
| 41> *
| 42>
| 43>                          ****END OF INPUT****

CARTESIAN COORDINATES (ANGSTROEM)
---------------------------------
  S    -64.798200  -48.993100  -85.098800
  C    -63.000200  -48.739900  -84.985000
  C    -62.533700  -48.810000  -83.703700
  C    -63.583400  -48.909400  -82.812200
  C    -64.835300  -49.023000  -83.338700
  H    -63.486200  -49.100400  -81.719700
  C    -61.094200  -48.879200  -83.327100
  H    -61.034200  -48.700000  -82.289600
  H    -60.565100  -48.017700  -83.875300
  C    -60.360800  -50.151700  -83.670200
  H    -59.421300  -50.119300  -83.207800
  H    -60.822800  -51.005800  -83.176300
  C    -60.100000  -50.433800  -85.212800
  H    -60.969000  -50.426300  -85.837500
  H    -59.497900  -49.565100  -85.463000
  H    -59.589700  -51.416800  -85.356800
  S    -67.452600  -48.336000  -82.939600
  C    -68.332800  -48.915500  -81.569600
  C    -67.649300  -49.927000  -80.914000
  C    -66.313800  -50.023500  -81.399000
  C    -66.062600  -49.302200  -82.545600
  H    -68.065500  -50.542400  -80.154800
  C    -65.383200  -51.104000  -80.786900
  H    -65.569700  -50.993900  -79.764700
  H    -64.371300  -50.806100  -80.877300
  C    -65.682300  -52.488300  -81.242900
  H    -66.844000  -52.659500  -81.063400
  H    -65.152300  -53.207800  -80.574000
  C    -65.327100  -52.792700  -82.692900
  H    -65.648400  -51.982100  -83.328800
  H    -65.807200  -53.788900  -82.929400
  H    -64.258300  -52.871000  -82.769300
  H    -62.403400  -48.481800  -85.858000
  H    -69.319600  -48.576000  -81.371100

 Total Charge           Charge          ....    0
 Multiplicity           Mult            ....    1
 Number of Electrons    NEL             ....  134
 Basis Dimension        Dim             ....  322

ORBITAL ENERGIES
----------------

  NO   OCC          E(Eh)            E(eV)
   0   2.0000     -88.968957     -2420.9684
   1   2.0000     -88.962889     -2420.8033
   2   2.0000     -10.330915      -281.1185
   3   2.0000     -10.325960      -280.9837
   4   2.0000     -10.316544      -280.7274
   5   2.0000     -10.316166      -280.7171
   6   2.0000     -10.302020      -280.3322
   7   2.0000     -10.295308      -280.1496
   8   2.0000     -10.294893      -280.1383
   9   2.0000     -10.294130      -280.1175
  10   2.0000     -10.292290      -280.0675
  11   2.0000     -10.288696      -279.9696
  12   2.0000     -10.285360      -279.8789
  13   2.0000     -10.282387      -279.7980
  14   2.0000     -10.281437      -279.7721
  15   2.0000     -10.272038      -279.5164
  16   2.0000      -8.082428      -219.9340
  17   2.0000      -8.078609      -219.8301
  18   2.0000      -6.040997      -164.3839
  19   2.0000      -6.037317      -164.2837
  20   2.0000      -6.037033      -164.2760
  21   2.0000      -6.033009      -164.1665
  22   2.0000      -6.032868      -164.1627
  23   2.0000      -6.029507      -164.0712
  24   2.0000      -1.009070       -27.4582
  25   2.0000      -0.988486       -26.8981
  26   2.0000      -0.916075       -24.9277
  27   2.0000      -0.913213       -24.8498
  28   2.0000      -0.866268       -23.5724
  29   2.0000      -0.849598       -23.1187
  30   2.0000      -0.844951       -22.9923
  31   2.0000      -0.811751       -22.0889
  32   2.0000      -0.788611       -21.4592
  33   2.0000      -0.780846       -21.2479
  34   2.0000      -0.707429       -19.2501
  35   2.0000      -0.699441       -19.0328
  36   2.0000      -0.689439       -18.7606
  37   2.0000      -0.665108       -18.0985
  38   2.0000      -0.638233       -17.3672
  39   2.0000      -0.620270       -16.8784
  40   2.0000      -0.600342       -16.3361
  41   2.0000      -0.572512       -15.5788
  42   2.0000      -0.556858       -15.1529
  43   2.0000      -0.554664       -15.0932
  44   2.0000      -0.547580       -14.9004
  45   2.0000      -0.534420       -14.5423
  46   2.0000      -0.519600       -14.1390
  47   2.0000      -0.510626       -13.8948
  48   2.0000      -0.502857       -13.6834
  49   2.0000      -0.497820       -13.5464
  50   2.0000      -0.486994       -13.2518
  51   2.0000      -0.476193       -12.9579
  52   2.0000      -0.473076       -12.8731
  53   2.0000      -0.465845       -12.6763
  54   2.0000      -0.459776       -12.5112
  55   2.0000      -0.447283       -12.1712
  56   2.0000      -0.445093       -12.1116
  57   2.0000      -0.444153       -12.0860
  58   2.0000      -0.436490       -11.8775
  59   2.0000      -0.423400       -11.5213
  60   2.0000      -0.419098       -11.4042
  61   2.0000      -0.415785       -11.3141
  62   2.0000      -0.405272       -11.0280
  63   2.0000      -0.347261        -9.4494
  64   2.0000      -0.337430        -9.1819
  65   2.0000      -0.331521        -9.0211
  66   2.0000      -0.291164        -7.9230
  67   0.0000       0.028613         0.7786
  68   0.0000       0.069965         1.9039
  69   0.0000       0.100673         2.7395
  70   0.0000       0.122989         3.3467
  71   0.0000       0.131317         3.5733

MULLIKEN ATOMIC CHARGES
-----------------------
   0 S :    0.100868
   1 C :   -0.149986
   2 C :   -0.050550
   3 C :   -0.009930
   4 C :   -0.114669
   5 H :    0.021359
   6 C :    0.065995
   7 H :    0.009862
   8 H :    0.037312
   9 C :   -0.037394
  10 H :    0.018303
  11 H :    0.018859
  12 C :   -0.065445
  13 H :    0.038086
  14 H :    0.025926
  15 H :    0.049210
  16 S :    0.100802
  17 C :   -0.079027
  18 C :   -0.018054
  19 C :   -0.101117
  20 C :   -0.143286
  21 H :    0.014123
  22 C :    0.133155
  23 H :    0.001874
  24 H :   -0.008562
  25 C :   -0.109346
  26 H :    0.031833
  27 H :    0.033687
  28 C :   -0.024715
  29 H :    0.042051
  30 H :    0.043860
  31 H :    0.024242
  32 H :    0.051609
  33 H :    0.049066
Sum of atomic charges:    0.0000000

LOEWDIN ATOMIC CHARGES
----------------------
   0 S :    0.370535
   1 C :   -0.170816
   2 C :   -0.066674
   3 C :   -0.073454
   4 C :   -0.184810
   5 H :    0.035615
   6 C :   -0.028504
   7 H :    0.025475
   8 H :    0.041005
   9 C :   -0.033904
  10 H :    0.019379
  11 H :    0.021067
  12 C :   -0.063696
  13 H :    0.018600
  14 H :    0.023865
  15 H :    0.034677
  16 S :    0.419954
  17 C :   -0.178163
  18 C :   -0.065459
  19 C :   -0.055421
  20 C :   -0.206964
  21 H :    0.028317
  22 C :   -0.029165
  23 H :    0.024652
  24 H :    0.017669
  25 C :   -0.046594
  26 H :    0.030413
  27 H :    0.025692
  28 C :   -0.062403
  29 H :    0.025097
  30 H :    0.035360
  31 H :    0.021753
  32 H :    0.025567
  33 H :    0.021332

  Mayer bond orders larger than 0.100000
B(  0-S ,  1-C ) :   1.1170 B(  0-S ,  4-C ) :   1.1441 B(  1-C ,  2-C ) :   1.6137
B(  1-C ,  4-C ) :   0.1020 B(  1-C , 32-H ) :   0.9619 B(  2-C ,  3-C ) :   1.2579
B(  2-C ,  6-C ) :   1.0218 B(  3-C ,  4-C ) :   1.6001 B(  3-C ,  5-H ) :   0.9818
B(  4-C , 20-C ) :   1.0033 B(  6-C ,  7-H ) :   0.9308 B(  6-C ,  8-H ) :   0.9339
B(  6-C ,  9-C ) :   1.0870 B(  9-C , 10-H ) :   0.9530 B(  9-C , 11-H ) :   0.9503
B(  9-C , 12-C ) :   1.0623 B( 12-C , 13-H ) :   0.9753 B( 12-C , 14-H ) :   0.9778
B( 12-C , 15-H ) :   0.9739 B( 16-S , 17-C ) :   1.1796 B( 16-S , 20-C ) :   1.1417
B( 17-C , 18-C ) :   1.5711 B( 17-C , 33-H ) :   0.9743 B( 18-C , 19-C ) :   1.2502
B( 18-C , 21-H ) :   0.9962 B( 19-C , 20-C ) :   1.6079 B( 19-C , 22-C ) :   1.0309
B( 22-C , 23-H ) :   0.9155 B( 22-C , 24-H ) :   0.9320 B( 22-C , 25-C ) :   1.0850
B( 25-C , 26-H ) :   0.9509 B( 25-C , 27-H ) :   0.9500 B( 25-C , 28-C ) :   1.0739
B( 28-C , 29-H ) :   0.9749 B( 28-C , 30-H ) :   0.9720 B( 28-C , 31-H ) :   0.9728

Dispersion correction           -0.015452977
FINAL SINGLE POINT ENERGY     -1339.875564241363

DIPOLE MOMENT
-------------
                                X             Y             Z
Electronic contribution:    -20.26102      16.56383      -4.72640
Nuclear contribution   :     20.70482     -16.90774       5.19934
                        -----------------------------------------
Total Dipole Moment    :      0.44380      -0.34391       0.47293
                        -----------------------------------------
Magnitude (a.u.)       :      0.73410
Magnitude (Debye)      :      1.86594

Rotational constants in cm-1:     0.022299     0.008799     0.007318
Rotational constants in MHz :   668.498206   263.796995   219.389340

                             ****ORCA TERMINATED NORMALLY****
TOTAL RUN TIME: 0 days 0 hours 0 minutes 22 seconds 817 msec
