                         Program Version 4.2.1 -  RELEASE  -
|  1> ! wB97X-D3 SP def2-SVP
|  2> %pal
|  3> nprocs 24
|  4> end
|  5>
|  6> * xyz 0 1
|  7> S 	 -69.396 	 10.5309 	 -73.5946
|  8> C 	 -69.8894 	 10.4432 	 -75.2641
|  9> C 	 -68.7909 	 10.5796 	 -76.1146
| 10> C 	 -67.5678 	 10.7467 	 -75.3306
| 11> C 	 -67.715 	 10.5769 	 -73.9394
| 12> H 	 -66.5627 	 10.6758 	 -75.7766
| 13> C 	 -68.9138 	 10.4922 	 -77.6739
| 14> H 	 -69.9115 	 10.7938 	 -77.86
| 15> H 	 -68.8254 	 9.46657 	 -77.9716
| 16> C 	 -67.961 	 11.2589 	 -78.5886
| 17> H 	 -66.9479 	 10.8309 	 -78.6101
| 18> H 	 -68.3986 	 11.1521 	 -79.6152
| 19> C 	 -67.8231 	 12.8176 	 -78.31
| 20> H 	 -68.6016 	 13.2266 	 -77.6916
| 21> H 	 -66.9003 	 13.081 	 -77.7521
| 22> H 	 -67.7947 	 13.2974 	 -79.2484
| 23> S 	 -65.6637 	 11.8526 	 -72.5828
| 24> C 	 -64.7453 	 10.9545 	 -71.4142
| 25> C 	 -65.1614 	 9.62431 	 -71.3504
| 26> C 	 -66.3227 	 9.32393 	 -72.1632
| 27> C 	 -66.6795 	 10.4303 	 -72.9003
| 28> H 	 -64.6705 	 8.86057 	 -70.8011
| 29> C 	 -66.9146 	 7.93233 	 -72.3502
| 30> H 	 -66.1719 	 7.15863 	 -72.3127
| 31> H 	 -67.1992 	 8.04905 	 -73.3936
| 32> C 	 -68.1042 	 7.59214 	 -71.4255
| 33> H 	 -68.6199 	 6.66778 	 -71.6367
| 34> H 	 -68.821 	 8.3796 	 -71.6677
| 35> C 	 -67.9396 	 7.60265 	 -69.9175
| 36> H 	 -67.4424 	 8.45658 	 -69.5026
| 37> H 	 -67.3396 	 6.73318 	 -69.6555
| 38> H 	 -68.9101 	 7.48281 	 -69.4243
| 39> H 	 -70.9416 	 10.4549 	 -75.5802
| 40> H 	 -63.8784 	 11.3593 	 -70.8848
| 41> *
| 42>
| 43>                          ****END OF INPUT****

CARTESIAN COORDINATES (ANGSTROEM)
---------------------------------
  S    -69.396000   10.530900  -73.594600
  C    -69.889400   10.443200  -75.264100
  C    -68.790900   10.579600  -76.114600
  C    -67.567800   10.746700  -75.330600
  C    -67.715000   10.576900  -73.939400
  H    -66.562700   10.675800  -75.776600
  C    -68.913800   10.492200  -77.673900
  H    -69.911500   10.793800  -77.860000
  H    -68.825400    9.466570  -77.971600
  C    -67.961000   11.258900  -78.588600
  H    -66.947900   10.830900  -78.610100
  H    -68.398600   11.152100  -79.615200
  C    -67.823100   12.817600  -78.310000
  H    -68.601600   13.226600  -77.691600
  H    -66.900300   13.081000  -77.752100
  H    -67.794700   13.297400  -79.248400
  S    -65.663700   11.852600  -72.582800
  C    -64.745300   10.954500  -71.414200
  C    -65.161400    9.624310  -71.350400
  C    -66.322700    9.323930  -72.163200
  C    -66.679500   10.430300  -72.900300
  H    -64.670500    8.860570  -70.801100
  C    -66.914600    7.932330  -72.350200
  H    -66.171900    7.158630  -72.312700
  H    -67.199200    8.049050  -73.393600
  C    -68.104200    7.592140  -71.425500
  H    -68.619900    6.667780  -71.636700
  H    -68.821000    8.379600  -71.667700
  C    -67.939600    7.602650  -69.917500
  H    -67.442400    8.456580  -69.502600
  H    -67.339600    6.733180  -69.655500
  H    -68.910100    7.482810  -69.424300
  H    -70.941600   10.454900  -75.580200
  H    -63.878400   11.359300  -70.884800

 Total Charge           Charge          ....    0
 Multiplicity           Mult            ....    1
 Number of Electrons    NEL             ....  134
 Basis Dimension        Dim             ....  322

ORBITAL ENERGIES
----------------

  NO   OCC          E(Eh)            E(eV)
   0   2.0000     -88.967420     -2420.9266
   1   2.0000     -88.966802     -2420.9098
   2   2.0000     -10.331779      -281.1420
   3   2.0000     -10.328682      -281.0577
   4   2.0000     -10.320813      -280.8436
   5   2.0000     -10.317080      -280.7420
   6   2.0000     -10.310154      -280.5536
   7   2.0000     -10.305089      -280.4157
   8   2.0000     -10.301130      -280.3080
   9   2.0000     -10.295163      -280.1456
  10   2.0000     -10.294393      -280.1247
  11   2.0000     -10.293358      -280.0965
  12   2.0000     -10.290728      -280.0250
  13   2.0000     -10.278994      -279.7057
  14   2.0000     -10.273601      -279.5589
  15   2.0000     -10.269998      -279.4608
  16   2.0000      -8.081913      -219.9200
  17   2.0000      -8.081630      -219.9123
  18   2.0000      -6.040418      -164.3681
  19   2.0000      -6.040063      -164.3585
  20   2.0000      -6.036434      -164.2597
  21   2.0000      -6.035886      -164.2448
  22   2.0000      -6.032710      -164.1584
  23   2.0000      -6.032678      -164.1575
  24   2.0000      -1.004532       -27.3347
  25   2.0000      -0.982119       -26.7248
  26   2.0000      -0.907155       -24.6849
  27   2.0000      -0.904310       -24.6075
  28   2.0000      -0.865063       -23.5396
  29   2.0000      -0.850062       -23.1314
  30   2.0000      -0.837805       -22.7978
  31   2.0000      -0.811054       -22.0699
  32   2.0000      -0.788724       -21.4623
  33   2.0000      -0.776789       -21.1375
  34   2.0000      -0.707060       -19.2401
  35   2.0000      -0.693766       -18.8783
  36   2.0000      -0.684553       -18.6276
  37   2.0000      -0.666467       -18.1355
  38   2.0000      -0.636178       -17.3113
  39   2.0000      -0.612166       -16.6579
  40   2.0000      -0.591928       -16.1072
  41   2.0000      -0.562489       -15.3061
  42   2.0000      -0.555642       -15.1198
  43   2.0000      -0.554364       -15.0850
  44   2.0000      -0.547862       -14.9081
  45   2.0000      -0.538699       -14.6587
  46   2.0000      -0.513761       -13.9801
  47   2.0000      -0.508430       -13.8351
  48   2.0000      -0.503605       -13.7038
  49   2.0000      -0.489696       -13.3253
  50   2.0000      -0.488065       -13.2809
  51   2.0000      -0.475864       -12.9489
  52   2.0000      -0.474182       -12.9031
  53   2.0000      -0.468538       -12.7496
  54   2.0000      -0.457611       -12.4522
  55   2.0000      -0.446662       -12.1543
  56   2.0000      -0.443010       -12.0549
  57   2.0000      -0.438724       -11.9383
  58   2.0000      -0.429281       -11.6813
  59   2.0000      -0.426189       -11.5972
  60   2.0000      -0.417558       -11.3623
  61   2.0000      -0.415750       -11.3131
  62   2.0000      -0.404194       -10.9987
  63   2.0000      -0.337594        -9.1864
  64   2.0000      -0.333131        -9.0649
  65   2.0000      -0.325999        -8.8709
  66   2.0000      -0.302984        -8.2446
  67   0.0000       0.035294         0.9604
  68   0.0000       0.063462         1.7269
  69   0.0000       0.107277         2.9192
  70   0.0000       0.122446         3.3319
  71   0.0000       0.131958         3.5908

MULLIKEN ATOMIC CHARGES
-----------------------
   0 S :    0.130159
   1 C :   -0.144370
   2 C :   -0.119840
   3 C :    0.045419
   4 C :   -0.201146
   5 H :    0.024366
   6 C :    0.107790
   7 H :    0.011011
   8 H :    0.039821
   9 C :   -0.116965
  10 H :    0.039992
  11 H :    0.039544
  12 C :   -0.049085
  13 H :    0.032948
  14 H :    0.036446
  15 H :    0.028682
  16 S :    0.120986
  17 C :   -0.095116
  18 C :   -0.016654
  19 C :   -0.044065
  20 C :   -0.179700
  21 H :    0.005001
  22 C :    0.096777
  23 H :    0.017597
  24 H :    0.038445
  25 C :   -0.057600
  26 H :    0.026138
  27 H :    0.013080
  28 C :   -0.042902
  29 H :    0.032092
  30 H :    0.017294
  31 H :    0.036744
  32 H :    0.060518
  33 H :    0.066593
Sum of atomic charges:   -0.0000000

LOEWDIN ATOMIC CHARGES
----------------------
   0 S :    0.438657
   1 C :   -0.209449
   2 C :   -0.062123
   3 C :   -0.072165
   4 C :   -0.215696
   5 H :    0.032522
   6 C :   -0.026795
   7 H :    0.024592
   8 H :    0.034614
   9 C :   -0.043993
  10 H :    0.025027
  11 H :    0.033254
  12 C :   -0.067909
  13 H :    0.024143
  14 H :    0.030576
  15 H :    0.020573
  16 S :    0.406953
  17 C :   -0.190925
  18 C :   -0.066603
  19 C :   -0.048613
  20 C :   -0.197970
  21 H :    0.023991
  22 C :   -0.025620
  23 H :    0.024101
  24 H :    0.039489
  25 C :   -0.043538
  26 H :    0.024314
  27 H :    0.014076
  28 C :   -0.064303
  29 H :    0.020527
  30 H :    0.020652
  31 H :    0.031440
  32 H :    0.032942
  33 H :    0.033261

  Mayer bond orders larger than 0.100000
B(  0-S ,  1-C ) :   1.1576 B(  0-S ,  4-C ) :   1.1810 B(  1-C ,  2-C ) :   1.5940
B(  1-C , 32-H ) :   0.9666 B(  2-C ,  3-C ) :   1.2666 B(  2-C ,  6-C ) :   0.9995
B(  3-C ,  4-C ) :   1.5575 B(  3-C ,  5-H ) :   0.9833 B(  4-C , 20-C ) :   1.0004
B(  6-C ,  7-H ) :   0.9414 B(  6-C ,  8-H ) :   0.9382 B(  6-C ,  9-C ) :   1.0879
B(  9-C , 10-H ) :   0.9568 B(  9-C , 11-H ) :   0.9608 B(  9-C , 12-C ) :   1.0574
B( 12-C , 13-H ) :   0.9821 B( 12-C , 14-H ) :   0.9777 B( 12-C , 15-H ) :   0.9808
B( 16-S , 17-C ) :   1.1540 B( 16-S , 20-C ) :   1.1443 B( 17-C , 18-C ) :   1.6014
B( 17-C , 33-H ) :   0.9674 B( 18-C , 19-C ) :   1.2322 B( 18-C , 21-H ) :   0.9917
B( 19-C , 20-C ) :   1.6205 B( 19-C , 22-C ) :   1.0177 B( 22-C , 23-H ) :   0.9450
B( 22-C , 24-H ) :   0.9298 B( 22-C , 25-C ) :   1.0606 B( 25-C , 26-H ) :   0.9562
B( 25-C , 27-H ) :   0.9479 B( 25-C , 28-C ) :   1.0881 B( 28-C , 29-H ) :   0.9735
B( 28-C , 30-H ) :   0.9740 B( 28-C , 31-H ) :   0.9715

Dispersion correction           -0.014909950
FINAL SINGLE POINT ENERGY     -1339.883557066865

DIPOLE MOMENT
-------------
                                X             Y             Z
Electronic contribution:      2.88628       8.51548       9.41238
Nuclear contribution   :     -2.80712      -8.87893      -9.80835
                        -----------------------------------------
Total Dipole Moment    :      0.07916      -0.36345      -0.39597
                        -----------------------------------------
Magnitude (a.u.)       :      0.54327
Magnitude (Debye)      :      1.38089

Rotational constants in cm-1:     0.021654     0.008192     0.006706
Rotational constants in MHz :   649.183922   245.593960   201.026931

                             ****ORCA TERMINATED NORMALLY****
TOTAL RUN TIME: 0 days 0 hours 0 minutes 21 seconds 502 msec
