                         Program Version 4.2.1 -  RELEASE  -
|  1> ! wB97X-D3 SP def2-SVP
|  2> %pal
|  3> nprocs 24
|  4> end
|  5>
|  6> * xyz 0 1
|  7> S 	 46.9706 	 -19.165 	 -110.222
|  8> C 	 45.5515 	 -18.3726 	 -110.924
|  9> C 	 44.3652 	 -18.9514 	 -110.536
| 10> C 	 44.5921 	 -19.7606 	 -109.386
| 11> C 	 45.8839 	 -19.9827 	 -109.047
| 12> H 	 43.7935 	 -20.1972 	 -108.858
| 13> C 	 42.9415 	 -18.5634 	 -110.991
| 14> H 	 43.1323 	 -17.5843 	 -111.449
| 15> H 	 42.3498 	 -18.5515 	 -110.034
| 16> C 	 42.22 	 -19.484 	 -112.011
| 17> H 	 42.9868 	 -19.8954 	 -112.727
| 18> H 	 41.6935 	 -20.4123 	 -111.657
| 19> C 	 41.1617 	 -18.5802 	 -112.581
| 20> H 	 40.4505 	 -19.1586 	 -113.216
| 21> H 	 40.5846 	 -18.0484 	 -111.844
| 22> H 	 41.6705 	 -17.7992 	 -113.184
| 23> S 	 47.405 	 -22.2092 	 -108.702
| 24> C 	 47.2981 	 -23.0675 	 -107.238
| 25> C 	 46.6231 	 -22.3966 	 -106.246
| 26> C 	 46.0272 	 -21.1847 	 -106.759
| 27> C 	 46.3862 	 -20.9193 	 -108.09
| 28> H 	 46.4235 	 -22.877 	 -105.296
| 29> C 	 45.0937 	 -20.3332 	 -105.912
| 30> H 	 44.4888 	 -21.0718 	 -105.449
| 31> H 	 44.5151 	 -19.656 	 -106.536
| 32> C 	 45.9055 	 -19.6604 	 -104.789
| 33> H 	 46.8857 	 -19.4676 	 -105.184
| 34> H 	 46.1426 	 -20.2439 	 -103.92
| 35> C 	 45.3791 	 -18.2327 	 -104.419
| 36> H 	 46.0859 	 -17.6609 	 -103.908
| 37> H 	 44.4224 	 -18.1366 	 -103.88
| 38> H 	 45.2024 	 -17.6699 	 -105.413
| 39> H 	 45.5103 	 -17.5609 	 -111.626
| 40> H 	 47.7724 	 -24.018 	 -107.089
| 41> *
| 42>
| 43>                          ****END OF INPUT****

CARTESIAN COORDINATES (ANGSTROEM)
---------------------------------
  S     46.970600  -19.165000  -110.222000
  C     45.551500  -18.372600  -110.924000
  C     44.365200  -18.951400  -110.536000
  C     44.592100  -19.760600  -109.386000
  C     45.883900  -19.982700  -109.047000
  H     43.793500  -20.197200  -108.858000
  C     42.941500  -18.563400  -110.991000
  H     43.132300  -17.584300  -111.449000
  H     42.349800  -18.551500  -110.034000
  C     42.220000  -19.484000  -112.011000
  H     42.986800  -19.895400  -112.727000
  H     41.693500  -20.412300  -111.657000
  C     41.161700  -18.580200  -112.581000
  H     40.450500  -19.158600  -113.216000
  H     40.584600  -18.048400  -111.844000
  H     41.670500  -17.799200  -113.184000
  S     47.405000  -22.209200  -108.702000
  C     47.298100  -23.067500  -107.238000
  C     46.623100  -22.396600  -106.246000
  C     46.027200  -21.184700  -106.759000
  C     46.386200  -20.919300  -108.090000
  H     46.423500  -22.877000  -105.296000
  C     45.093700  -20.333200  -105.912000
  H     44.488800  -21.071800  -105.449000
  H     44.515100  -19.656000  -106.536000
  C     45.905500  -19.660400  -104.789000
  H     46.885700  -19.467600  -105.184000
  H     46.142600  -20.243900  -103.920000
  C     45.379100  -18.232700  -104.419000
  H     46.085900  -17.660900  -103.908000
  H     44.422400  -18.136600  -103.880000
  H     45.202400  -17.669900  -105.413000
  H     45.510300  -17.560900  -111.626000
  H     47.772400  -24.018000  -107.089000

 Total Charge           Charge          ....    0
 Multiplicity           Mult            ....    1
 Number of Electrons    NEL             ....  134
 Basis Dimension        Dim             ....  322

ORBITAL ENERGIES
----------------

  NO   OCC          E(Eh)            E(eV)
   0   2.0000     -88.965582     -2420.8766
   1   2.0000     -88.962825     -2420.8015
   2   2.0000     -10.326814      -281.0069
   3   2.0000     -10.321921      -280.8738
   4   2.0000     -10.313825      -280.6534
   5   2.0000     -10.312505      -280.6175
   6   2.0000     -10.304911      -280.4109
   7   2.0000     -10.303363      -280.3687
   8   2.0000     -10.297206      -280.2012
   9   2.0000     -10.295245      -280.1479
  10   2.0000     -10.293473      -280.0996
  11   2.0000     -10.288438      -279.9626
  12   2.0000     -10.285862      -279.8925
  13   2.0000     -10.282960      -279.8136
  14   2.0000     -10.281321      -279.7690
  15   2.0000     -10.278688      -279.6973
  16   2.0000      -8.079390      -219.8514
  17   2.0000      -8.078721      -219.8332
  18   2.0000      -6.038084      -164.3046
  19   2.0000      -6.037120      -164.2784
  20   2.0000      -6.034270      -164.2008
  21   2.0000      -6.033080      -164.1685
  22   2.0000      -6.029764      -164.0782
  23   2.0000      -6.029507      -164.0712
  24   2.0000      -1.007371       -27.4120
  25   2.0000      -0.983486       -26.7620
  26   2.0000      -0.913767       -24.8649
  27   2.0000      -0.908625       -24.7249
  28   2.0000      -0.873998       -23.7827
  29   2.0000      -0.850154       -23.1339
  30   2.0000      -0.843957       -22.9652
  31   2.0000      -0.813809       -22.1449
  32   2.0000      -0.780285       -21.2326
  33   2.0000      -0.766717       -20.8634
  34   2.0000      -0.708200       -19.2711
  35   2.0000      -0.700438       -19.0599
  36   2.0000      -0.697744       -18.9866
  37   2.0000      -0.661121       -17.9900
  38   2.0000      -0.638363       -17.3707
  39   2.0000      -0.624254       -16.9868
  40   2.0000      -0.595478       -16.2038
  41   2.0000      -0.570870       -15.5342
  42   2.0000      -0.565534       -15.3890
  43   2.0000      -0.559453       -15.2235
  44   2.0000      -0.529125       -14.3982
  45   2.0000      -0.522219       -14.2103
  46   2.0000      -0.513090       -13.9619
  47   2.0000      -0.508210       -13.8291
  48   2.0000      -0.505915       -13.7666
  49   2.0000      -0.499600       -13.5948
  50   2.0000      -0.493005       -13.4153
  51   2.0000      -0.479147       -13.0383
  52   2.0000      -0.469707       -12.7814
  53   2.0000      -0.464644       -12.6436
  54   2.0000      -0.458460       -12.4753
  55   2.0000      -0.448881       -12.2147
  56   2.0000      -0.445053       -12.1105
  57   2.0000      -0.440482       -11.9861
  58   2.0000      -0.438865       -11.9421
  59   2.0000      -0.424959       -11.5637
  60   2.0000      -0.420711       -11.4481
  61   2.0000      -0.410741       -11.1768
  62   2.0000      -0.408424       -11.1138
  63   2.0000      -0.351055        -9.5527
  64   2.0000      -0.329744        -8.9728
  65   2.0000      -0.327805        -8.9200
  66   2.0000      -0.286155        -7.7867
  67   0.0000       0.035515         0.9664
  68   0.0000       0.063126         1.7178
  69   0.0000       0.109876         2.9899
  70   0.0000       0.116685         3.1752
  71   0.0000       0.130394         3.5482

MULLIKEN ATOMIC CHARGES
-----------------------
   0 S :    0.097258
   1 C :   -0.104574
   2 C :   -0.087632
   3 C :    0.039115
   4 C :   -0.135308
   5 H :   -0.008105
   6 C :    0.019183
   7 H :    0.026598
   8 H :    0.046905
   9 C :   -0.076939
  10 H :    0.045584
  11 H :    0.039486
  12 C :   -0.053098
  13 H :    0.035960
  14 H :    0.031799
  15 H :    0.033563
  16 S :    0.110767
  17 C :   -0.086272
  18 C :   -0.028090
  19 C :   -0.109202
  20 C :   -0.143507
  21 H :    0.021698
  22 C :    0.150930
  23 H :    0.017953
  24 H :    0.019864
  25 C :   -0.066173
  26 H :    0.030267
  27 H :    0.027431
  28 C :   -0.075706
  29 H :    0.022891
  30 H :    0.036284
  31 H :    0.035185
  32 H :    0.033168
  33 H :    0.052716
Sum of atomic charges:    0.0000000

LOEWDIN ATOMIC CHARGES
----------------------
   0 S :    0.368134
   1 C :   -0.185098
   2 C :   -0.066578
   3 C :   -0.055664
   4 C :   -0.177518
   5 H :    0.021900
   6 C :   -0.028900
   7 H :    0.033388
   8 H :    0.039796
   9 C :   -0.050657
  10 H :    0.031650
  11 H :    0.029481
  12 C :   -0.066633
  13 H :    0.026283
  14 H :    0.023683
  15 H :    0.026696
  16 S :    0.422551
  17 C :   -0.190591
  18 C :   -0.077466
  19 C :   -0.046979
  20 C :   -0.209487
  21 H :    0.032818
  22 C :   -0.021997
  23 H :    0.029259
  24 H :    0.028872
  25 C :   -0.037541
  26 H :    0.026456
  27 H :    0.021398
  28 C :   -0.068520
  29 H :    0.014898
  30 H :    0.023010
  31 H :    0.034196
  32 H :    0.023044
  33 H :    0.026117

  Mayer bond orders larger than 0.100000
B(  0-S ,  1-C ) :   1.1204 B(  0-S ,  4-C ) :   1.1061 B(  1-C ,  2-C ) :   1.6475
B(  1-C , 32-H ) :   0.9631 B(  2-C ,  3-C ) :   1.2197 B(  2-C ,  6-C ) :   1.0101
B(  3-C ,  4-C ) :   1.6134 B(  3-C ,  5-H ) :   0.9951 B(  4-C , 20-C ) :   1.0494
B(  6-C ,  7-H ) :   0.9504 B(  6-C ,  8-H ) :   0.9412 B(  6-C ,  9-C ) :   1.0445
B(  9-C , 10-H ) :   0.9594 B(  9-C , 11-H ) :   0.9550 B(  9-C , 12-C ) :   1.0710
B( 12-C , 13-H ) :   0.9733 B( 12-C , 14-H ) :   0.9698 B( 12-C , 15-H ) :   0.9772
B( 16-S , 17-C ) :   1.1777 B( 16-S , 20-C ) :   1.1334 B( 17-C , 18-C ) :   1.6062
B( 17-C , 33-H ) :   0.9668 B( 18-C , 19-C ) :   1.2311 B( 18-C , 21-H ) :   0.9908
B( 19-C , 20-C ) :   1.5999 B( 19-C , 22-C ) :   1.0497 B( 22-C , 23-H ) :   0.9215
B( 22-C , 24-H ) :   0.9411 B( 22-C , 25-C ) :   1.0459 B( 25-C , 26-H ) :   0.9609
B( 25-C , 27-H ) :   0.9536 B( 25-C , 28-C ) :   1.0798 B( 28-C , 29-H ) :   0.9777
B( 28-C , 30-H ) :   0.9771 B( 28-C , 31-H ) :   0.9769

Dispersion correction           -0.013433851
FINAL SINGLE POINT ENERGY     -1339.863208961321

DIPOLE MOMENT
-------------
                                X             Y             Z
Electronic contribution:     22.25492     -11.31362      -5.41835
Nuclear contribution   :    -22.92387      11.28445       5.64966
                        -----------------------------------------
Total Dipole Moment    :     -0.66895      -0.02917       0.23131
                        -----------------------------------------
Magnitude (a.u.)       :      0.70841
Magnitude (Debye)      :      1.80063

Rotational constants in cm-1:     0.018341     0.007668     0.006583
Rotational constants in MHz :   549.848234   229.887979   197.342169

                             ****ORCA TERMINATED NORMALLY****
TOTAL RUN TIME: 0 days 0 hours 0 minutes 21 seconds 248 msec
