                         Program Version 4.2.1 -  RELEASE  -
|  1> ! wB97X-D3 SP def2-SVP
|  2> %pal
|  3> nprocs 24
|  4> end
|  5>
|  6> * xyz 0 1
|  7> S 	 -43.1728 	 28.0192 	 31.0191
|  8> C 	 -44.3128 	 29.1921 	 31.3559
|  9> C 	 -45.6064 	 28.6635 	 31.5007
| 10> C 	 -45.6967 	 27.2735 	 31.1222
| 11> C 	 -44.4677 	 26.7989 	 30.7512
| 12> H 	 -46.6037 	 26.6908 	 31.0812
| 13> C 	 -46.9161 	 29.372 	 31.8861
| 14> H 	 -47.608 	 28.944 	 31.125
| 15> H 	 -46.7865 	 30.4984 	 31.7957
| 16> C 	 -47.2956 	 29.0654 	 33.3575
| 17> H 	 -48.388 	 29.034 	 33.5646
| 18> H 	 -46.8888 	 28.1443 	 33.7517
| 19> C 	 -46.7316 	 30.0469 	 34.2907
| 20> H 	 -47.0191 	 31.0798 	 34.0231
| 21> H 	 -47.0439 	 29.859 	 35.2456
| 22> H 	 -45.6193 	 29.9944 	 34.254
| 23> S 	 -44.3131 	 24.8508 	 28.6937
| 24> C 	 -43.8618 	 23.2857 	 29.228
| 25> C 	 -43.6414 	 23.1254 	 30.5842
| 26> C 	 -43.8138 	 24.3974 	 31.2302
| 27> C 	 -44.15 	 25.4071 	 30.3713
| 28> H 	 -43.5635 	 22.1238 	 31.0636
| 29> C 	 -43.7221 	 24.5893 	 32.6955
| 30> H 	 -43.1819 	 25.5251 	 32.8063
| 31> H 	 -43.0593 	 23.8428 	 33.2013
| 32> C 	 -45.0069 	 24.807 	 33.5137
| 33> H 	 -45.6683 	 23.9937 	 33.1274
| 34> H 	 -45.4732 	 25.7264 	 33.267
| 35> C 	 -44.8528 	 24.6276 	 35.027
| 36> H 	 -44.3441 	 23.6964 	 35.2403
| 37> H 	 -45.7445 	 24.6615 	 35.6748
| 38> H 	 -44.3262 	 25.443 	 35.4138
| 39> H 	 -44.0807 	 30.1532 	 31.6921
| 40> H 	 -43.9594 	 22.3889 	 28.5665
| 41> *
| 42>
| 43>                          ****END OF INPUT****

CARTESIAN COORDINATES (ANGSTROEM)
---------------------------------
  S    -43.172800   28.019200   31.019100
  C    -44.312800   29.192100   31.355900
  C    -45.606400   28.663500   31.500700
  C    -45.696700   27.273500   31.122200
  C    -44.467700   26.798900   30.751200
  H    -46.603700   26.690800   31.081200
  C    -46.916100   29.372000   31.886100
  H    -47.608000   28.944000   31.125000
  H    -46.786500   30.498400   31.795700
  C    -47.295600   29.065400   33.357500
  H    -48.388000   29.034000   33.564600
  H    -46.888800   28.144300   33.751700
  C    -46.731600   30.046900   34.290700
  H    -47.019100   31.079800   34.023100
  H    -47.043900   29.859000   35.245600
  H    -45.619300   29.994400   34.254000
  S    -44.313100   24.850800   28.693700
  C    -43.861800   23.285700   29.228000
  C    -43.641400   23.125400   30.584200
  C    -43.813800   24.397400   31.230200
  C    -44.150000   25.407100   30.371300
  H    -43.563500   22.123800   31.063600
  C    -43.722100   24.589300   32.695500
  H    -43.181900   25.525100   32.806300
  H    -43.059300   23.842800   33.201300
  C    -45.006900   24.807000   33.513700
  H    -45.668300   23.993700   33.127400
  H    -45.473200   25.726400   33.267000
  C    -44.852800   24.627600   35.027000
  H    -44.344100   23.696400   35.240300
  H    -45.744500   24.661500   35.674800
  H    -44.326200   25.443000   35.413800
  H    -44.080700   30.153200   31.692100
  H    -43.959400   22.388900   28.566500

 Total Charge           Charge          ....    0
 Multiplicity           Mult            ....    1
 Number of Electrons    NEL             ....  134
 Basis Dimension        Dim             ....  322

ORBITAL ENERGIES
----------------

  NO   OCC          E(Eh)            E(eV)
   0   2.0000     -88.968171     -2420.9470
   1   2.0000     -88.966742     -2420.9081
   2   2.0000     -10.329879      -281.0903
   3   2.0000     -10.320517      -280.8356
   4   2.0000     -10.318242      -280.7737
   5   2.0000     -10.308712      -280.5143
   6   2.0000     -10.303379      -280.3692
   7   2.0000     -10.302860      -280.3551
   8   2.0000     -10.299679      -280.2685
   9   2.0000     -10.296462      -280.1810
  10   2.0000     -10.296409      -280.1795
  11   2.0000     -10.285542      -279.8838
  12   2.0000     -10.284236      -279.8483
  13   2.0000     -10.281968      -279.7866
  14   2.0000     -10.272612      -279.5320
  15   2.0000     -10.269655      -279.4515
  16   2.0000      -8.083127      -219.9531
  17   2.0000      -8.082076      -219.9245
  18   2.0000      -6.041492      -164.3974
  19   2.0000      -6.040470      -164.3695
  20   2.0000      -6.037754      -164.2957
  21   2.0000      -6.036527      -164.2622
  22   2.0000      -6.033893      -164.1906
  23   2.0000      -6.032880      -164.1630
  24   2.0000      -1.007436       -27.4137
  25   2.0000      -0.987828       -26.8802
  26   2.0000      -0.916443       -24.9377
  27   2.0000      -0.909286       -24.7429
  28   2.0000      -0.869408       -23.6578
  29   2.0000      -0.857861       -23.3436
  30   2.0000      -0.853502       -23.2250
  31   2.0000      -0.813827       -22.1454
  32   2.0000      -0.781876       -21.2759
  33   2.0000      -0.766417       -20.8553
  34   2.0000      -0.705621       -19.2009
  35   2.0000      -0.694721       -18.9043
  36   2.0000      -0.687494       -18.7077
  37   2.0000      -0.658355       -17.9147
  38   2.0000      -0.648990       -17.6599
  39   2.0000      -0.619178       -16.8487
  40   2.0000      -0.595367       -16.2008
  41   2.0000      -0.570512       -15.5244
  42   2.0000      -0.568862       -15.4795
  43   2.0000      -0.559243       -15.2178
  44   2.0000      -0.539724       -14.6866
  45   2.0000      -0.518753       -14.1160
  46   2.0000      -0.515922       -14.0390
  47   2.0000      -0.511830       -13.9276
  48   2.0000      -0.504045       -13.7158
  49   2.0000      -0.494769       -13.4633
  50   2.0000      -0.487413       -13.2632
  51   2.0000      -0.476044       -12.9538
  52   2.0000      -0.471533       -12.8311
  53   2.0000      -0.467529       -12.7221
  54   2.0000      -0.456535       -12.4229
  55   2.0000      -0.455923       -12.4063
  56   2.0000      -0.447027       -12.1642
  57   2.0000      -0.441047       -12.0015
  58   2.0000      -0.434214       -11.8156
  59   2.0000      -0.431303       -11.7364
  60   2.0000      -0.426213       -11.5979
  61   2.0000      -0.410048       -11.1580
  62   2.0000      -0.404941       -11.0190
  63   2.0000      -0.340807        -9.2738
  64   2.0000      -0.332627        -9.0512
  65   2.0000      -0.316005        -8.5989
  66   2.0000      -0.307692        -8.3727
  67   0.0000       0.046166         1.2562
  68   0.0000       0.052940         1.4406
  69   0.0000       0.110808         3.0152
  70   0.0000       0.114868         3.1257
  71   0.0000       0.126181         3.4336

MULLIKEN ATOMIC CHARGES
-----------------------
   0 S :    0.122948
   1 C :   -0.068375
   2 C :   -0.143622
   3 C :    0.065780
   4 C :   -0.193695
   5 H :    0.024292
   6 C :    0.045073
   7 H :    0.045624
   8 H :    0.036269
   9 C :   -0.058895
  10 H :    0.031613
  11 H :    0.026401
  12 C :   -0.034263
  13 H :    0.021309
  14 H :    0.014094
  15 H :    0.026576
  16 S :    0.127150
  17 C :   -0.105457
  18 C :   -0.046552
  19 C :   -0.025598
  20 C :   -0.189575
  21 H :    0.039625
  22 C :    0.081780
  23 H :    0.009801
  24 H :    0.021389
  25 C :   -0.064837
  26 H :    0.022346
  27 H :    0.027313
  28 C :   -0.022642
  29 H :    0.026128
  30 H :    0.030010
  31 H :    0.013879
  32 H :    0.025433
  33 H :    0.068676
Sum of atomic charges:    0.0000000

LOEWDIN ATOMIC CHARGES
----------------------
   0 S :    0.422874
   1 C :   -0.217870
   2 C :   -0.064922
   3 C :   -0.050260
   4 C :   -0.179225
   5 H :    0.036122
   6 C :   -0.032408
   7 H :    0.037756
   8 H :    0.035746
   9 C :   -0.047496
  10 H :    0.026459
  11 H :    0.024287
  12 C :   -0.056985
  13 H :    0.020803
  14 H :    0.013094
  15 H :    0.026314
  16 S :    0.412400
  17 C :   -0.195516
  18 C :   -0.079355
  19 C :   -0.050404
  20 C :   -0.206806
  21 H :    0.042708
  22 C :   -0.040183
  23 H :    0.027364
  24 H :    0.032217
  25 C :   -0.035636
  26 H :    0.023407
  27 H :    0.016249
  28 C :   -0.063491
  29 H :    0.023895
  30 H :    0.030784
  31 H :    0.017251
  32 H :    0.016069
  33 H :    0.034761

  Mayer bond orders larger than 0.100000
B(  0-S ,  1-C ) :   1.1554 B(  0-S ,  4-C ) :   1.1499 B(  1-C ,  2-C ) :   1.6050
B(  1-C , 32-H ) :   0.9692 B(  2-C ,  3-C ) :   1.2313 B(  2-C ,  6-C ) :   1.0191
B(  3-C ,  4-C ) :   1.5995 B(  3-C ,  5-H ) :   0.9890 B(  4-C , 20-C ) :   1.0139
B(  6-C ,  7-H ) :   0.9450 B(  6-C ,  8-H ) :   0.9496 B(  6-C ,  9-C ) :   1.0363
B(  9-C , 10-H ) :   0.9541 B(  9-C , 11-H ) :   0.9565 B(  9-C , 12-C ) :   1.0937
B( 12-C , 13-H ) :   0.9719 B( 12-C , 14-H ) :   0.9691 B( 12-C , 15-H ) :   0.9727
B( 16-S , 17-C ) :   1.1744 B( 16-S , 20-C ) :   1.1248 B( 17-C , 18-C ) :   1.6195
B( 17-C , 33-H ) :   0.9538 B( 18-C , 19-C ) :   1.2296 B( 18-C , 21-H ) :   0.9851
B( 19-C , 20-C ) :   1.6267 B( 19-C , 22-C ) :   1.0613 B( 22-C , 23-H ) :   0.9015
B( 22-C , 24-H ) :   0.9384 B( 22-C , 25-C ) :   1.0558 B( 25-C , 26-H ) :   0.9576
B( 25-C , 27-H ) :   0.9494 B( 25-C , 28-C ) :   1.0860 B( 28-C , 29-H ) :   0.9740
B( 28-C , 30-H ) :   0.9726 B( 28-C , 31-H ) :   0.9742

Dispersion correction           -0.015726184
FINAL SINGLE POINT ENERGY     -1339.871438571231

DIPOLE MOMENT
-------------
                                X             Y             Z
Electronic contribution:     13.12704      -4.82553     -26.14883
Nuclear contribution   :    -13.57439       4.74257      26.68368
                        -----------------------------------------
Total Dipole Moment    :     -0.44735      -0.08296       0.53485
                        -----------------------------------------
Magnitude (a.u.)       :      0.70219
Magnitude (Debye)      :      1.78482

Rotational constants in cm-1:     0.019732     0.009301     0.007512
Rotational constants in MHz :   591.537057   278.849625   225.191614

                             ****ORCA TERMINATED NORMALLY****
TOTAL RUN TIME: 0 days 0 hours 0 minutes 23 seconds 958 msec
