                         Program Version 4.2.1 -  RELEASE  -
|  1> ! wB97X-D3 SP def2-SVP
|  2> %pal
|  3> nprocs 24
|  4> end
|  5>
|  6> * xyz 0 1
|  7> S 	 -113.984 	 63.7185 	 -76.0228
|  8> C 	 -112.684 	 62.8794 	 -76.8067
|  9> C 	 -113.289 	 61.9766 	 -77.6552
| 10> C 	 -114.686 	 61.7258 	 -77.4825
| 11> C 	 -115.227 	 62.5904 	 -76.5308
| 12> H 	 -115.166 	 60.8959 	 -77.9626
| 13> C 	 -112.551 	 61.2185 	 -78.736
| 14> H 	 -111.764 	 61.874 	 -79.1582
| 15> H 	 -113.246 	 61.0254 	 -79.5013
| 16> C 	 -111.859 	 59.9436 	 -78.1563
| 17> H 	 -110.977 	 59.7531 	 -78.7534
| 18> H 	 -111.421 	 60.2632 	 -77.2581
| 19> C 	 -112.801 	 58.807 	 -77.8952
| 20> H 	 -113.46 	 58.677 	 -78.737
| 21> H 	 -112.23 	 57.8506 	 -77.581
| 22> H 	 -113.516 	 58.9923 	 -77.0492
| 23> S 	 -116.63 	 62.812 	 -74.1083
| 24> C 	 -118.37 	 62.4645 	 -74.1179
| 25> C 	 -118.892 	 62.3448 	 -75.3889
| 26> C 	 -117.856 	 62.2957 	 -76.345
| 27> C 	 -116.551 	 62.5294 	 -75.8491
| 28> H 	 -119.967 	 62.345 	 -75.604
| 29> C 	 -118.117 	 62.0477 	 -77.7999
| 30> H 	 -118.816 	 61.2341 	 -77.8589
| 31> H 	 -117.218 	 61.6014 	 -78.2218
| 32> C 	 -118.774 	 63.0255 	 -78.6962
| 33> H 	 -119.722 	 63.4251 	 -78.3634
| 34> H 	 -118.906 	 62.548 	 -79.6307
| 35> C 	 -117.86 	 64.2604 	 -79.101
| 36> H 	 -116.917 	 63.7295 	 -79.377
| 37> H 	 -117.662 	 64.9166 	 -78.2646
| 38> H 	 -118.193 	 64.7757 	 -79.9286
| 39> H 	 -111.601 	 62.9621 	 -76.9617
| 40> H 	 -119.041 	 62.7657 	 -73.3637
| 41> *
| 42>
| 43>                          ****END OF INPUT****

CARTESIAN COORDINATES (ANGSTROEM)
---------------------------------
  S    -113.984000   63.718500  -76.022800
  C    -112.684000   62.879400  -76.806700
  C    -113.289000   61.976600  -77.655200
  C    -114.686000   61.725800  -77.482500
  C    -115.227000   62.590400  -76.530800
  H    -115.166000   60.895900  -77.962600
  C    -112.551000   61.218500  -78.736000
  H    -111.764000   61.874000  -79.158200
  H    -113.246000   61.025400  -79.501300
  C    -111.859000   59.943600  -78.156300
  H    -110.977000   59.753100  -78.753400
  H    -111.421000   60.263200  -77.258100
  C    -112.801000   58.807000  -77.895200
  H    -113.460000   58.677000  -78.737000
  H    -112.230000   57.850600  -77.581000
  H    -113.516000   58.992300  -77.049200
  S    -116.630000   62.812000  -74.108300
  C    -118.370000   62.464500  -74.117900
  C    -118.892000   62.344800  -75.388900
  C    -117.856000   62.295700  -76.345000
  C    -116.551000   62.529400  -75.849100
  H    -119.967000   62.345000  -75.604000
  C    -118.117000   62.047700  -77.799900
  H    -118.816000   61.234100  -77.858900
  H    -117.218000   61.601400  -78.221800
  C    -118.774000   63.025500  -78.696200
  H    -119.722000   63.425100  -78.363400
  H    -118.906000   62.548000  -79.630700
  C    -117.860000   64.260400  -79.101000
  H    -116.917000   63.729500  -79.377000
  H    -117.662000   64.916600  -78.264600
  H    -118.193000   64.775700  -79.928600
  H    -111.601000   62.962100  -76.961700
  H    -119.041000   62.765700  -73.363700

 Total Charge           Charge          ....    0
 Multiplicity           Mult            ....    1
 Number of Electrons    NEL             ....  134
 Basis Dimension        Dim             ....  322

ORBITAL ENERGIES
----------------

  NO   OCC          E(Eh)            E(eV)
   0   2.0000     -88.970354     -2421.0064
   1   2.0000     -88.969574     -2420.9852
   2   2.0000     -10.338994      -281.3383
   3   2.0000     -10.335426      -281.2412
   4   2.0000     -10.315337      -280.6946
   5   2.0000     -10.313434      -280.6428
   6   2.0000     -10.304648      -280.4037
   7   2.0000     -10.297601      -280.2120
   8   2.0000     -10.295680      -280.1597
   9   2.0000     -10.294947      -280.1397
  10   2.0000     -10.287177      -279.9283
  11   2.0000     -10.284949      -279.8677
  12   2.0000     -10.283101      -279.8174
  13   2.0000     -10.281302      -279.7685
  14   2.0000     -10.280401      -279.7439
  15   2.0000     -10.266271      -279.3594
  16   2.0000      -8.084627      -219.9939
  17   2.0000      -8.083350      -219.9591
  18   2.0000      -6.043401      -164.4493
  19   2.0000      -6.041919      -164.4090
  20   2.0000      -6.039095      -164.3321
  21   2.0000      -6.038058      -164.3039
  22   2.0000      -6.035182      -164.2257
  23   2.0000      -6.034017      -164.1940
  24   2.0000      -1.006803       -27.3965
  25   2.0000      -0.986311       -26.8389
  26   2.0000      -0.914631       -24.8884
  27   2.0000      -0.912666       -24.8349
  28   2.0000      -0.869412       -23.6579
  29   2.0000      -0.849758       -23.1231
  30   2.0000      -0.844122       -22.9697
  31   2.0000      -0.819143       -22.2900
  32   2.0000      -0.783161       -21.3109
  33   2.0000      -0.771837       -21.0028
  34   2.0000      -0.711380       -19.3576
  35   2.0000      -0.706088       -19.2136
  36   2.0000      -0.695273       -18.9193
  37   2.0000      -0.660932       -17.9849
  38   2.0000      -0.633953       -17.2507
  39   2.0000      -0.621190       -16.9034
  40   2.0000      -0.597815       -16.2674
  41   2.0000      -0.577228       -15.7072
  42   2.0000      -0.552932       -15.0460
  43   2.0000      -0.549189       -14.9442
  44   2.0000      -0.544138       -14.8067
  45   2.0000      -0.536544       -14.6001
  46   2.0000      -0.519804       -14.1446
  47   2.0000      -0.514248       -13.9934
  48   2.0000      -0.512078       -13.9343
  49   2.0000      -0.498396       -13.5620
  50   2.0000      -0.486532       -13.2392
  51   2.0000      -0.480553       -13.0765
  52   2.0000      -0.472252       -12.8506
  53   2.0000      -0.469549       -12.7771
  54   2.0000      -0.459863       -12.5135
  55   2.0000      -0.447272       -12.1709
  56   2.0000      -0.442809       -12.0494
  57   2.0000      -0.439721       -11.9654
  58   2.0000      -0.432099       -11.7580
  59   2.0000      -0.427398       -11.6301
  60   2.0000      -0.419021       -11.4021
  61   2.0000      -0.408191       -11.1074
  62   2.0000      -0.401948       -10.9376
  63   2.0000      -0.354313        -9.6413
  64   2.0000      -0.333209        -9.0671
  65   2.0000      -0.324818        -8.8387
  66   2.0000      -0.288962        -7.8631
  67   0.0000       0.017635         0.4799
  68   0.0000       0.071509         1.9459
  69   0.0000       0.102848         2.7986
  70   0.0000       0.119532         3.2526
  71   0.0000       0.129181         3.5152

MULLIKEN ATOMIC CHARGES
-----------------------
   0 S :    0.117308
   1 C :   -0.089556
   2 C :   -0.161235
   3 C :    0.034589
   4 C :   -0.127373
   5 H :    0.019983
   6 C :    0.036351
   7 H :    0.025141
   8 H :    0.013162
   9 C :   -0.004398
  10 H :    0.022210
  11 H :   -0.000435
  12 C :   -0.074852
  13 H :    0.024097
  14 H :    0.053117
  15 H :    0.046059
  16 S :    0.107813
  17 C :   -0.064776
  18 C :   -0.052856
  19 C :   -0.039615
  20 C :   -0.139963
  21 H :    0.034994
  22 C :    0.085458
  23 H :    0.012511
  24 H :   -0.007259
  25 C :   -0.044895
  26 H :    0.021518
  27 H :    0.017201
  28 C :   -0.046714
  29 H :    0.021087
  30 H :    0.041630
  31 H :    0.020134
  32 H :    0.050858
  33 H :    0.048704
Sum of atomic charges:    0.0000000

LOEWDIN ATOMIC CHARGES
----------------------
   0 S :    0.418125
   1 C :   -0.219700
   2 C :   -0.064502
   3 C :   -0.070347
   4 C :   -0.183612
   5 H :    0.027353
   6 C :   -0.027973
   7 H :    0.032147
   8 H :    0.018968
   9 C :   -0.038625
  10 H :    0.022549
  11 H :    0.017000
  12 C :   -0.073859
  13 H :    0.018398
  14 H :    0.039940
  15 H :    0.033392
  16 S :    0.399204
  17 C :   -0.177337
  18 C :   -0.063924
  19 C :   -0.054253
  20 C :   -0.195699
  21 H :    0.039924
  22 C :   -0.039715
  23 H :    0.033569
  24 H :    0.029395
  25 C :   -0.029881
  26 H :    0.018596
  27 H :    0.023219
  28 C :   -0.059906
  29 H :    0.028326
  30 H :    0.023610
  31 H :    0.010717
  32 H :    0.043323
  33 H :    0.021577

  Mayer bond orders larger than 0.100000
B(  0-S ,  1-C ) :   1.1179 B(  0-S ,  4-C ) :   1.1665 B(  1-C ,  2-C ) :   1.6111
B(  1-C , 32-H ) :   0.9597 B(  2-C ,  3-C ) :   1.2625 B(  2-C ,  6-C ) :   1.0307
B(  3-C ,  4-C ) :   1.5293 B(  3-C ,  5-H ) :   0.9837 B(  4-C , 20-C ) :   1.0467
B(  6-C ,  7-H ) :   0.9394 B(  6-C ,  8-H ) :   0.9504 B(  6-C ,  9-C ) :   1.0648
B(  9-C , 10-H ) :   0.9565 B(  9-C , 11-H ) :   0.9477 B(  9-C , 12-C ) :   1.0756
B( 12-C , 13-H ) :   0.9772 B( 12-C , 14-H ) :   0.9697 B( 12-C , 15-H ) :   0.9691
B( 16-S , 17-C ) :   1.1545 B( 16-S , 20-C ) :   1.1360 B( 17-C , 18-C ) :   1.6046
B( 17-C , 20-C ) :   0.1001 B( 17-C , 33-H ) :   0.9597 B( 18-C , 19-C ) :   1.2709
B( 18-C , 21-H ) :   0.9851 B( 19-C , 20-C ) :   1.5580 B( 19-C , 22-C ) :   1.0444
B( 22-C , 23-H ) :   0.9176 B( 22-C , 24-H ) :   0.9250 B( 22-C , 25-C ) :   1.0984
B( 25-C , 26-H ) :   0.9537 B( 25-C , 27-H ) :   0.9481 B( 25-C , 28-C ) :   1.0693
B( 28-C , 29-H ) :   0.9760 B( 28-C , 30-H ) :   0.9804 B( 28-C , 31-H ) :   0.9782

Dispersion correction           -0.014902074
FINAL SINGLE POINT ENERGY     -1339.850873449884

DIPOLE MOMENT
-------------
                                X             Y             Z
Electronic contribution:     -0.63171      10.86724      21.11063
Nuclear contribution   :      0.47250     -11.15423     -21.67894
                        -----------------------------------------
Total Dipole Moment    :     -0.15921      -0.28699      -0.56831
                        -----------------------------------------
Magnitude (a.u.)       :      0.65627
Magnitude (Debye)      :      1.66811

Rotational constants in cm-1:     0.018956     0.008744     0.007703
Rotational constants in MHz :   568.300428   262.135845   230.937284

                             ****ORCA TERMINATED NORMALLY****
TOTAL RUN TIME: 0 days 0 hours 0 minutes 23 seconds 527 msec
