                         Program Version 4.2.1 -  RELEASE  -
|  1> ! wB97X-D3 SP def2-SVP
|  2> %pal
|  3> nprocs 24
|  4> end
|  5>
|  6> * xyz 0 1
|  7> S 	 -93.7455 	 -27.6299 	 -65.4052
|  8> C 	 -95.4812 	 -27.5168 	 -65.1987
|  9> C 	 -95.8032 	 -27.8773 	 -63.9214
| 10> C 	 -94.6618 	 -28.2067 	 -63.116
| 11> C 	 -93.4702 	 -28.1335 	 -63.7742
| 12> H 	 -94.7434 	 -28.4716 	 -62.0835
| 13> C 	 -97.2031 	 -27.927 	 -63.4716
| 14> H 	 -97.2358 	 -28.541 	 -62.5251
| 15> H 	 -97.8684 	 -28.2821 	 -64.2495
| 16> C 	 -97.7511 	 -26.5565 	 -63.1602
| 17> H 	 -97.1607 	 -25.8464 	 -63.7267
| 18> H 	 -98.8172 	 -26.4673 	 -63.4979
| 19> C 	 -97.5834 	 -26.2971 	 -61.6197
| 20> H 	 -97.8509 	 -25.2383 	 -61.4666
| 21> H 	 -98.2202 	 -26.8511 	 -60.9669
| 22> H 	 -96.5985 	 -26.4527 	 -61.3456
| 23> S 	 -91.046 	 -29.487 	 -63.7376
| 24> C 	 -89.9274 	 -29.2131 	 -62.3349
| 25> C 	 -90.355 	 -28.1412 	 -61.5785
| 26> C 	 -91.5567 	 -27.5484 	 -62.0807
| 27> C 	 -92.1464 	 -28.2707 	 -63.1373
| 28> H 	 -89.7783 	 -27.8551 	 -60.7055
| 29> C 	 -92.2694 	 -26.3911 	 -61.4761
| 30> H 	 -92.0169 	 -26.3556 	 -60.3727
| 31> H 	 -93.361 	 -26.5287 	 -61.5316
| 32> C 	 -91.8052 	 -25.0388 	 -62.1407
| 33> H 	 -92.036 	 -24.995 	 -63.1881
| 34> H 	 -90.7907 	 -24.9938 	 -62.1462
| 35> C 	 -92.3697 	 -23.8314 	 -61.4706
| 36> H 	 -92.3421 	 -23.8971 	 -60.4026
| 37> H 	 -93.4216 	 -23.6513 	 -61.7804
| 38> H 	 -91.8265 	 -22.944 	 -61.7171
| 39> H 	 -96.2129 	 -27.2546 	 -65.8777
| 40> H 	 -89.0415 	 -29.8924 	 -62.1059
| 41> *
| 42>
| 43>                          ****END OF INPUT****

CARTESIAN COORDINATES (ANGSTROEM)
---------------------------------
  S    -93.745500  -27.629900  -65.405200
  C    -95.481200  -27.516800  -65.198700
  C    -95.803200  -27.877300  -63.921400
  C    -94.661800  -28.206700  -63.116000
  C    -93.470200  -28.133500  -63.774200
  H    -94.743400  -28.471600  -62.083500
  C    -97.203100  -27.927000  -63.471600
  H    -97.235800  -28.541000  -62.525100
  H    -97.868400  -28.282100  -64.249500
  C    -97.751100  -26.556500  -63.160200
  H    -97.160700  -25.846400  -63.726700
  H    -98.817200  -26.467300  -63.497900
  C    -97.583400  -26.297100  -61.619700
  H    -97.850900  -25.238300  -61.466600
  H    -98.220200  -26.851100  -60.966900
  H    -96.598500  -26.452700  -61.345600
  S    -91.046000  -29.487000  -63.737600
  C    -89.927400  -29.213100  -62.334900
  C    -90.355000  -28.141200  -61.578500
  C    -91.556700  -27.548400  -62.080700
  C    -92.146400  -28.270700  -63.137300
  H    -89.778300  -27.855100  -60.705500
  C    -92.269400  -26.391100  -61.476100
  H    -92.016900  -26.355600  -60.372700
  H    -93.361000  -26.528700  -61.531600
  C    -91.805200  -25.038800  -62.140700
  H    -92.036000  -24.995000  -63.188100
  H    -90.790700  -24.993800  -62.146200
  C    -92.369700  -23.831400  -61.470600
  H    -92.342100  -23.897100  -60.402600
  H    -93.421600  -23.651300  -61.780400
  H    -91.826500  -22.944000  -61.717100
  H    -96.212900  -27.254600  -65.877700
  H    -89.041500  -29.892400  -62.105900

 Total Charge           Charge          ....    0
 Multiplicity           Mult            ....    1
 Number of Electrons    NEL             ....  134
 Basis Dimension        Dim             ....  322

ORBITAL ENERGIES
----------------

  NO   OCC          E(Eh)            E(eV)
   0   2.0000     -88.966873     -2420.9117
   1   2.0000     -88.964708     -2420.8528
   2   2.0000     -10.329555      -281.0815
   3   2.0000     -10.329157      -281.0706
   4   2.0000     -10.328881      -281.0631
   5   2.0000     -10.307374      -280.4779
   6   2.0000     -10.305450      -280.4255
   7   2.0000     -10.299888      -280.2742
   8   2.0000     -10.294726      -280.1337
   9   2.0000     -10.293553      -280.1018
  10   2.0000     -10.291718      -280.0519
  11   2.0000     -10.287232      -279.9298
  12   2.0000     -10.286502      -279.9100
  13   2.0000     -10.273342      -279.5519
  14   2.0000     -10.272013      -279.5157
  15   2.0000     -10.268775      -279.4276
  16   2.0000      -8.081718      -219.9147
  17   2.0000      -8.078628      -219.8307
  18   2.0000      -6.040264      -164.3639
  19   2.0000      -6.037167      -164.2797
  20   2.0000      -6.036095      -164.2505
  21   2.0000      -6.033263      -164.1734
  22   2.0000      -6.032523      -164.1533
  23   2.0000      -6.029396      -164.0682
  24   2.0000      -1.008747       -27.4494
  25   2.0000      -0.983485       -26.7620
  26   2.0000      -0.920999       -25.0617
  27   2.0000      -0.906735       -24.6735
  28   2.0000      -0.870040       -23.6750
  29   2.0000      -0.851942       -23.1825
  30   2.0000      -0.844433       -22.9782
  31   2.0000      -0.821367       -22.3505
  32   2.0000      -0.782164       -21.2838
  33   2.0000      -0.764778       -20.8107
  34   2.0000      -0.708963       -19.2919
  35   2.0000      -0.704868       -19.1804
  36   2.0000      -0.696023       -18.9397
  37   2.0000      -0.659846       -17.9553
  38   2.0000      -0.644848       -17.5472
  39   2.0000      -0.621433       -16.9100
  40   2.0000      -0.592766       -16.1300
  41   2.0000      -0.578308       -15.7365
  42   2.0000      -0.562221       -15.2988
  43   2.0000      -0.558226       -15.1901
  44   2.0000      -0.538114       -14.6428
  45   2.0000      -0.523054       -14.2330
  46   2.0000      -0.520138       -14.1537
  47   2.0000      -0.514586       -14.0026
  48   2.0000      -0.507504       -13.8099
  49   2.0000      -0.505651       -13.7595
  50   2.0000      -0.488409       -13.2903
  51   2.0000      -0.485156       -13.2018
  52   2.0000      -0.473258       -12.8780
  53   2.0000      -0.462134       -12.5753
  54   2.0000      -0.458492       -12.4762
  55   2.0000      -0.451433       -12.2841
  56   2.0000      -0.443685       -12.0733
  57   2.0000      -0.438550       -11.9336
  58   2.0000      -0.434499       -11.8233
  59   2.0000      -0.421806       -11.4779
  60   2.0000      -0.419222       -11.4076
  61   2.0000      -0.414256       -11.2725
  62   2.0000      -0.413075       -11.2403
  63   2.0000      -0.344595        -9.3769
  64   2.0000      -0.330825        -9.0022
  65   2.0000      -0.326350        -8.8804
  66   2.0000      -0.297449        -8.0940
  67   0.0000       0.033140         0.9018
  68   0.0000       0.060249         1.6395
  69   0.0000       0.110952         3.0191
  70   0.0000       0.121670         3.3108
  71   0.0000       0.127766         3.4767

MULLIKEN ATOMIC CHARGES
-----------------------
   0 S :    0.119165
   1 C :   -0.082795
   2 C :   -0.107803
   3 C :    0.040699
   4 C :   -0.122304
   5 H :    0.005488
   6 C :    0.055371
   7 H :    0.033211
   8 H :    0.026014
   9 C :   -0.078888
  10 H :    0.027759
  11 H :    0.033602
  12 C :   -0.027335
  13 H :    0.029606
  14 H :    0.030041
  15 H :    0.011734
  16 S :    0.093510
  17 C :   -0.128677
  18 C :   -0.022852
  19 C :   -0.021295
  20 C :   -0.173890
  21 H :    0.026780
  22 C :    0.029455
  23 H :    0.024384
  24 H :    0.031723
  25 C :   -0.020716
  26 H :    0.021500
  27 H :   -0.003883
  28 C :   -0.019271
  29 H :    0.015559
  30 H :    0.032084
  31 H :    0.022539
  32 H :    0.012768
  33 H :    0.086718
Sum of atomic charges:   -0.0000000

LOEWDIN ATOMIC CHARGES
----------------------
   0 S :    0.417425
   1 C :   -0.185781
   2 C :   -0.064086
   3 C :   -0.061912
   4 C :   -0.202349
   5 H :    0.027348
   6 C :   -0.039519
   7 H :    0.035927
   8 H :    0.033168
   9 C :   -0.035818
  10 H :    0.021395
  11 H :    0.025541
  12 C :   -0.055878
  13 H :    0.028348
  14 H :    0.021097
  15 H :    0.011918
  16 S :    0.380201
  17 C :   -0.175195
  18 C :   -0.071594
  19 C :   -0.054713
  20 C :   -0.199245
  21 H :    0.036500
  22 C :   -0.033071
  23 H :    0.032200
  24 H :    0.030656
  25 C :   -0.030262
  26 H :    0.026033
  27 H :    0.010202
  28 C :   -0.062095
  29 H :    0.018587
  30 H :    0.029256
  31 H :    0.023604
  32 H :    0.016210
  33 H :    0.045900

  Mayer bond orders larger than 0.100000
B(  0-S ,  1-C ) :   1.1309 B(  0-S ,  4-C ) :   1.1617 B(  1-C ,  2-C ) :   1.6024
B(  1-C , 32-H ) :   0.9771 B(  2-C ,  3-C ) :   1.2456 B(  2-C ,  6-C ) :   1.0500
B(  3-C ,  4-C ) :   1.5658 B(  3-C ,  5-H ) :   0.9982 B(  4-C , 20-C ) :   1.0093
B(  6-C ,  7-H ) :   0.9441 B(  6-C ,  8-H ) :   0.9334 B(  6-C ,  9-C ) :   1.0511
B(  9-C , 10-H ) :   0.9589 B(  9-C , 11-H ) :   0.9586 B(  9-C , 12-C ) :   1.0775
B( 12-C , 13-H ) :   0.9740 B( 12-C , 14-H ) :   0.9773 B( 12-C , 15-H ) :   0.9769
B( 16-S , 17-C ) :   1.1450 B( 16-S , 20-C ) :   1.1397 B( 17-C , 18-C ) :   1.6163
B( 17-C , 20-C ) :   0.1033 B( 17-C , 33-H ) :   0.9583 B( 18-C , 19-C ) :   1.2298
B( 18-C , 21-H ) :   0.9911 B( 19-C , 20-C ) :   1.5852 B( 19-C , 22-C ) :   1.0585
B( 22-C , 23-H ) :   0.9347 B( 22-C , 24-H ) :   0.9344 B( 22-C , 25-C ) :   1.0529
B( 25-C , 26-H ) :   0.9501 B( 25-C , 27-H ) :   0.9529 B( 25-C , 28-C ) :   1.0963
B( 28-C , 29-H ) :   0.9717 B( 28-C , 30-H ) :   0.9736 B( 28-C , 31-H ) :   0.9713

Dispersion correction           -0.014812333
FINAL SINGLE POINT ENERGY     -1339.872943840957

DIPOLE MOMENT
-------------
                                X             Y             Z
Electronic contribution:     15.99835     -18.87146     -15.95610
Nuclear contribution   :    -16.29869      19.18100      16.47782
                        -----------------------------------------
Total Dipole Moment    :     -0.30034       0.30954       0.52172
                        -----------------------------------------
Magnitude (a.u.)       :      0.67691
Magnitude (Debye)      :      1.72057

Rotational constants in cm-1:     0.018130     0.009429     0.007423
Rotational constants in MHz :   543.522197   282.663644   222.550645

                             ****ORCA TERMINATED NORMALLY****
TOTAL RUN TIME: 0 days 0 hours 0 minutes 22 seconds 514 msec
