                         Program Version 4.2.1 -  RELEASE  -
|  1> ! wB97X-D3 SP def2-SVP
|  2> %pal
|  3> nprocs 24
|  4> end
|  5>
|  6> * xyz 0 1
|  7> S 	 -131.587 	 31.1498 	 -14.4195
|  8> C 	 -130.401 	 30.0133 	 -15.06
|  9> C 	 -131.137 	 28.9956 	 -15.706
| 10> C 	 -132.549 	 29.16 	 -15.6084
| 11> C 	 -132.968 	 30.2119 	 -14.8652
| 12> H 	 -133.251 	 28.4801 	 -16.1558
| 13> C 	 -130.479 	 27.7426 	 -16.3344
| 14> H 	 -130.571 	 26.841 	 -15.7506
| 15> H 	 -129.406 	 27.9305 	 -16.3179
| 16> C 	 -130.849 	 27.4964 	 -17.7411
| 17> H 	 -131.902 	 27.3651 	 -17.7664
| 18> H 	 -130.642 	 28.3766 	 -18.3304
| 19> C 	 -129.957 	 26.3676 	 -18.3173
| 20> H 	 -130.306 	 25.9569 	 -19.2347
| 21> H 	 -128.894 	 26.6993 	 -18.3719
| 22> H 	 -129.96 	 25.5226 	 -17.6568
| 23> S 	 -135.109 	 31.6349 	 -15.6763
| 24> C 	 -136.602 	 31.5734 	 -14.7694
| 25> C 	 -136.585 	 30.5292 	 -13.8547
| 26> C 	 -135.251 	 30.0017 	 -13.7807
| 27> C 	 -134.337 	 30.5723 	 -14.5718
| 28> H 	 -137.563 	 30.1371 	 -13.4967
| 29> C 	 -135.14 	 28.8072 	 -12.9152
| 30> H 	 -135.951 	 28.8597 	 -12.2015
| 31> H 	 -134.205 	 28.8444 	 -12.37
| 32> C 	 -135.328 	 27.4009 	 -13.5897
| 33> H 	 -134.547 	 27.2529 	 -14.3125
| 34> H 	 -136.238 	 27.3587 	 -14.2627
| 35> C 	 -135.468 	 26.2838 	 -12.5512
| 36> H 	 -135.392 	 25.2871 	 -13.0542
| 37> H 	 -136.35 	 26.4217 	 -11.9348
| 38> H 	 -134.638 	 26.3364 	 -11.9284
| 39> H 	 -129.255 	 30.0286 	 -14.8839
| 40> H 	 -137.51 	 32.0513 	 -15.1167
| 41> *
| 42>
| 43>                          ****END OF INPUT****

CARTESIAN COORDINATES (ANGSTROEM)
---------------------------------
  S    -131.587000   31.149800  -14.419500
  C    -130.401000   30.013300  -15.060000
  C    -131.137000   28.995600  -15.706000
  C    -132.549000   29.160000  -15.608400
  C    -132.968000   30.211900  -14.865200
  H    -133.251000   28.480100  -16.155800
  C    -130.479000   27.742600  -16.334400
  H    -130.571000   26.841000  -15.750600
  H    -129.406000   27.930500  -16.317900
  C    -130.849000   27.496400  -17.741100
  H    -131.902000   27.365100  -17.766400
  H    -130.642000   28.376600  -18.330400
  C    -129.957000   26.367600  -18.317300
  H    -130.306000   25.956900  -19.234700
  H    -128.894000   26.699300  -18.371900
  H    -129.960000   25.522600  -17.656800
  S    -135.109000   31.634900  -15.676300
  C    -136.602000   31.573400  -14.769400
  C    -136.585000   30.529200  -13.854700
  C    -135.251000   30.001700  -13.780700
  C    -134.337000   30.572300  -14.571800
  H    -137.563000   30.137100  -13.496700
  C    -135.140000   28.807200  -12.915200
  H    -135.951000   28.859700  -12.201500
  H    -134.205000   28.844400  -12.370000
  C    -135.328000   27.400900  -13.589700
  H    -134.547000   27.252900  -14.312500
  H    -136.238000   27.358700  -14.262700
  C    -135.468000   26.283800  -12.551200
  H    -135.392000   25.287100  -13.054200
  H    -136.350000   26.421700  -11.934800
  H    -134.638000   26.336400  -11.928400
  H    -129.255000   30.028600  -14.883900
  H    -137.510000   32.051300  -15.116700

 Total Charge           Charge          ....    0
 Multiplicity           Mult            ....    1
 Number of Electrons    NEL             ....  134
 Basis Dimension        Dim             ....  322

ORBITAL ENERGIES
----------------

  NO   OCC          E(Eh)            E(eV)
   0   2.0000     -88.965306     -2420.8691
   1   2.0000     -88.961770     -2420.7728
   2   2.0000     -10.327648      -281.0296
   3   2.0000     -10.326325      -280.9936
   4   2.0000     -10.317822      -280.7622
   5   2.0000     -10.317333      -280.7489
   6   2.0000     -10.304818      -280.4084
   7   2.0000     -10.296612      -280.1850
   8   2.0000     -10.296368      -280.1784
   9   2.0000     -10.295544      -280.1560
  10   2.0000     -10.288188      -279.9558
  11   2.0000     -10.286546      -279.9112
  12   2.0000     -10.284598      -279.8581
  13   2.0000     -10.278869      -279.7022
  14   2.0000     -10.278488      -279.6919
  15   2.0000     -10.275651      -279.6147
  16   2.0000      -8.080092      -219.8705
  17   2.0000      -8.077632      -219.8035
  18   2.0000      -6.038663      -164.3204
  19   2.0000      -6.036084      -164.2502
  20   2.0000      -6.034371      -164.2036
  21   2.0000      -6.032182      -164.1440
  22   2.0000      -6.030963      -164.1108
  23   2.0000      -6.028162      -164.0346
  24   2.0000      -1.015798       -27.6413
  25   2.0000      -0.989719       -26.9316
  26   2.0000      -0.919438       -25.0192
  27   2.0000      -0.907540       -24.6954
  28   2.0000      -0.873645       -23.7731
  29   2.0000      -0.853316       -23.2199
  30   2.0000      -0.843570       -22.9547
  31   2.0000      -0.816203       -22.2100
  32   2.0000      -0.780567       -21.2403
  33   2.0000      -0.770959       -20.9789
  34   2.0000      -0.711561       -19.3626
  35   2.0000      -0.701532       -19.0897
  36   2.0000      -0.689458       -18.7611
  37   2.0000      -0.667571       -18.1655
  38   2.0000      -0.641791       -17.4640
  39   2.0000      -0.621590       -16.9143
  40   2.0000      -0.595140       -16.1946
  41   2.0000      -0.574657       -15.6372
  42   2.0000      -0.568116       -15.4592
  43   2.0000      -0.560897       -15.2628
  44   2.0000      -0.531314       -14.4578
  45   2.0000      -0.521571       -14.1927
  46   2.0000      -0.515946       -14.0396
  47   2.0000      -0.510673       -13.8961
  48   2.0000      -0.508423       -13.8349
  49   2.0000      -0.497173       -13.5288
  50   2.0000      -0.496013       -13.4972
  51   2.0000      -0.481847       -13.1117
  52   2.0000      -0.472799       -12.8655
  53   2.0000      -0.465776       -12.6744
  54   2.0000      -0.461774       -12.5655
  55   2.0000      -0.449004       -12.2180
  56   2.0000      -0.445877       -12.1329
  57   2.0000      -0.438813       -11.9407
  58   2.0000      -0.432972       -11.7818
  59   2.0000      -0.423973       -11.5369
  60   2.0000      -0.421216       -11.4619
  61   2.0000      -0.411766       -11.2047
  62   2.0000      -0.409945       -11.1552
  63   2.0000      -0.336904        -9.1676
  64   2.0000      -0.326519        -8.8850
  65   2.0000      -0.322336        -8.7712
  66   2.0000      -0.315284        -8.5793
  67   0.0000       0.044254         1.2042
  68   0.0000       0.052346         1.4244
  69   0.0000       0.109401         2.9769
  70   0.0000       0.124013         3.3746
  71   0.0000       0.130876         3.5613

MULLIKEN ATOMIC CHARGES
-----------------------
   0 S :    0.114298
   1 C :   -0.155741
   2 C :   -0.099136
   3 C :    0.034032
   4 C :   -0.171774
   5 H :    0.037989
   6 C :    0.061350
   7 H :    0.032946
   8 H :   -0.002594
   9 C :   -0.068702
  10 H :    0.020263
  11 H :    0.028657
  12 C :   -0.024080
  13 H :    0.027292
  14 H :    0.039166
  15 H :    0.011732
  16 S :    0.106958
  17 C :   -0.090238
  18 C :   -0.057650
  19 C :   -0.033781
  20 C :   -0.147626
  21 H :    0.046146
  22 C :    0.078429
  23 H :    0.006063
  24 H :    0.029204
  25 C :   -0.086972
  26 H :    0.013269
  27 H :    0.022662
  28 C :   -0.008490
  29 H :    0.040080
  30 H :    0.034695
  31 H :    0.011117
  32 H :    0.093140
  33 H :    0.057296
Sum of atomic charges:    0.0000000

LOEWDIN ATOMIC CHARGES
----------------------
   0 S :    0.416888
   1 C :   -0.213129
   2 C :   -0.065395
   3 C :   -0.070217
   4 C :   -0.208558
   5 H :    0.037520
   6 C :   -0.031983
   7 H :    0.027421
   8 H :    0.024940
   9 C :   -0.039486
  10 H :    0.015901
  11 H :    0.026519
  12 C :   -0.058216
  13 H :    0.021554
  14 H :    0.032771
  15 H :    0.018908
  16 S :    0.421290
  17 C :   -0.178184
  18 C :   -0.074985
  19 C :   -0.056582
  20 C :   -0.216684
  21 H :    0.043769
  22 C :   -0.029249
  23 H :    0.025695
  24 H :    0.030965
  25 C :   -0.039471
  26 H :    0.015038
  27 H :    0.024753
  28 C :   -0.059719
  29 H :    0.035066
  30 H :    0.025964
  31 H :    0.014965
  32 H :    0.055585
  33 H :    0.026349

  Mayer bond orders larger than 0.100000
B(  0-S ,  1-C ) :   1.1479 B(  0-S ,  4-C ) :   1.1616 B(  1-C ,  2-C ) :   1.5900
B(  1-C ,  4-C ) :   0.1041 B(  1-C , 32-H ) :   0.9563 B(  2-C ,  3-C ) :   1.2595
B(  2-C ,  6-C ) :   1.0139 B(  3-C ,  4-C ) :   1.5850 B(  3-C ,  5-H ) :   0.9792
B(  4-C , 20-C ) :   0.9988 B(  6-C ,  7-H ) :   0.9438 B(  6-C ,  8-H ) :   0.9396
B(  6-C ,  9-C ) :   1.0641 B(  9-C , 10-H ) :   0.9577 B(  9-C , 11-H ) :   0.9538
B(  9-C , 12-C ) :   1.0796 B( 12-C , 13-H ) :   0.9735 B( 12-C , 14-H ) :   0.9743
B( 12-C , 15-H ) :   0.9733 B( 16-S , 17-C ) :   1.1712 B( 16-S , 20-C ) :   1.1379
B( 17-C , 18-C ) :   1.6133 B( 17-C , 33-H ) :   0.9642 B( 18-C , 19-C ) :   1.2285
B( 18-C , 21-H ) :   0.9840 B( 19-C , 20-C ) :   1.6371 B( 19-C , 22-C ) :   1.0679
B( 22-C , 23-H ) :   0.9344 B( 22-C , 24-H ) :   0.9226 B( 22-C , 25-C ) :   1.0552
B( 25-C , 26-H ) :   0.9509 B( 25-C , 27-H ) :   0.9569 B( 25-C , 28-C ) :   1.0804
B( 28-C , 29-H ) :   0.9715 B( 28-C , 30-H ) :   0.9748 B( 28-C , 31-H ) :   0.9730

Dispersion correction           -0.014063493
FINAL SINGLE POINT ENERGY     -1339.864803207672

DIPOLE MOMENT
-------------
                                X             Y             Z
Electronic contribution:     -3.45446      28.36021       2.68892
Nuclear contribution   :      3.35030     -29.13335      -2.79945
                        -----------------------------------------
Total Dipole Moment    :     -0.10416      -0.77315      -0.11053
                        -----------------------------------------
Magnitude (a.u.)       :      0.78792
Magnitude (Debye)      :      2.00274

Rotational constants in cm-1:     0.017171     0.008561     0.007015
Rotational constants in MHz :   514.785621   256.651749   210.289475

                             ****ORCA TERMINATED NORMALLY****
TOTAL RUN TIME: 0 days 0 hours 0 minutes 21 seconds 332 msec
