                         Program Version 4.2.1 -  RELEASE  -
|  1> ! wB97X-D3 SP def2-SVP
|  2> %pal
|  3> nprocs 24
|  4> end
|  5>
|  6> * xyz 0 1
|  7> S 	 -134.424 	 14.7444 	 -14.2449
|  8> C 	 -135.611 	 13.8618 	 -13.2908
|  9> C 	 -136.361 	 12.9958 	 -14.0007
| 10> C 	 -136.076 	 13.0865 	 -15.3801
| 11> C 	 -135.071 	 14.005 	 -15.6759
| 12> H 	 -136.625 	 12.5968 	 -16.2101
| 13> C 	 -137.496 	 12.1875 	 -13.3915
| 14> H 	 -137.258 	 12.0319 	 -12.3368
| 15> H 	 -137.373 	 11.1604 	 -13.8861
| 16> C 	 -138.96 	 12.7592 	 -13.2627
| 17> H 	 -139.559 	 11.9713 	 -12.8261
| 18> H 	 -139.094 	 13.6195 	 -12.6698
| 19> C 	 -139.606 	 13.081 	 -14.6131
| 20> H 	 -140.726 	 13.1234 	 -14.506
| 21> H 	 -139.217 	 13.934 	 -15.2134
| 22> H 	 -139.526 	 12.238 	 -15.2512
| 23> S 	 -132.969 	 14.9474 	 -17.1208
| 24> C 	 -132.77 	 14.5434 	 -18.8454
| 25> C 	 -134.065 	 14.3047 	 -19.3094
| 26> C 	 -135.084 	 14.0956 	 -18.3003
| 27> C 	 -134.569 	 14.3001 	 -17.0195
| 28> H 	 -134.182 	 14.4073 	 -20.3601
| 29> C 	 -136.544 	 14.0961 	 -18.8024
| 30> H 	 -136.834 	 14.9804 	 -19.4061
| 31> H 	 -137.242 	 14.0483 	 -17.9733
| 32> C 	 -136.906 	 12.913 	 -19.6192
| 33> H 	 -136.99 	 12.056 	 -18.9459
| 34> H 	 -136.058 	 12.6068 	 -20.2636
| 35> C 	 -138.319 	 13.1212 	 -20.2265
| 36> H 	 -138.308 	 13.6708 	 -21.2118
| 37> H 	 -138.84 	 13.7497 	 -19.4627
| 38> H 	 -138.848 	 12.1433 	 -20.385
| 39> H 	 -135.664 	 14.0064 	 -12.198
| 40> H 	 -131.855 	 14.7516 	 -19.4291
| 41> *
| 42>
| 43>                          ****END OF INPUT****

CARTESIAN COORDINATES (ANGSTROEM)
---------------------------------
  S    -134.424000   14.744400  -14.244900
  C    -135.611000   13.861800  -13.290800
  C    -136.361000   12.995800  -14.000700
  C    -136.076000   13.086500  -15.380100
  C    -135.071000   14.005000  -15.675900
  H    -136.625000   12.596800  -16.210100
  C    -137.496000   12.187500  -13.391500
  H    -137.258000   12.031900  -12.336800
  H    -137.373000   11.160400  -13.886100
  C    -138.960000   12.759200  -13.262700
  H    -139.559000   11.971300  -12.826100
  H    -139.094000   13.619500  -12.669800
  C    -139.606000   13.081000  -14.613100
  H    -140.726000   13.123400  -14.506000
  H    -139.217000   13.934000  -15.213400
  H    -139.526000   12.238000  -15.251200
  S    -132.969000   14.947400  -17.120800
  C    -132.770000   14.543400  -18.845400
  C    -134.065000   14.304700  -19.309400
  C    -135.084000   14.095600  -18.300300
  C    -134.569000   14.300100  -17.019500
  H    -134.182000   14.407300  -20.360100
  C    -136.544000   14.096100  -18.802400
  H    -136.834000   14.980400  -19.406100
  H    -137.242000   14.048300  -17.973300
  C    -136.906000   12.913000  -19.619200
  H    -136.990000   12.056000  -18.945900
  H    -136.058000   12.606800  -20.263600
  C    -138.319000   13.121200  -20.226500
  H    -138.308000   13.670800  -21.211800
  H    -138.840000   13.749700  -19.462700
  H    -138.848000   12.143300  -20.385000
  H    -135.664000   14.006400  -12.198000
  H    -131.855000   14.751600  -19.429100

 Total Charge           Charge          ....    0
 Multiplicity           Mult            ....    1
 Number of Electrons    NEL             ....  134
 Basis Dimension        Dim             ....  322

ORBITAL ENERGIES
----------------

  NO   OCC          E(Eh)            E(eV)
   0   2.0000     -88.968844     -2420.9653
   1   2.0000     -88.961773     -2420.7729
   2   2.0000     -10.333005      -281.1754
   3   2.0000     -10.332376      -281.1582
   4   2.0000     -10.324468      -280.9431
   5   2.0000     -10.313288      -280.6388
   6   2.0000     -10.307717      -280.4872
   7   2.0000     -10.302546      -280.3465
   8   2.0000     -10.298519      -280.2370
   9   2.0000     -10.296927      -280.1936
  10   2.0000     -10.296346      -280.1778
  11   2.0000     -10.292852      -280.0827
  12   2.0000     -10.290895      -280.0295
  13   2.0000     -10.290810      -280.0272
  14   2.0000     -10.282617      -279.8042
  15   2.0000     -10.277505      -279.6651
  16   2.0000      -8.083816      -219.9718
  17   2.0000      -8.076939      -219.7847
  18   2.0000      -6.042298      -164.4193
  19   2.0000      -6.038429      -164.3140
  20   2.0000      -6.035548      -164.2356
  21   2.0000      -6.034455      -164.2059
  22   2.0000      -6.031549      -164.1268
  23   2.0000      -6.027393      -164.0137
  24   2.0000      -1.010387       -27.4940
  25   2.0000      -0.985914       -26.8281
  26   2.0000      -0.916936       -24.9511
  27   2.0000      -0.908070       -24.7098
  28   2.0000      -0.871355       -23.7108
  29   2.0000      -0.852456       -23.1965
  30   2.0000      -0.840815       -22.8797
  31   2.0000      -0.815215       -22.1831
  32   2.0000      -0.780212       -21.2306
  33   2.0000      -0.769746       -20.9459
  34   2.0000      -0.707844       -19.2614
  35   2.0000      -0.702340       -19.1116
  36   2.0000      -0.692369       -18.8403
  37   2.0000      -0.664591       -18.0845
  38   2.0000      -0.635293       -17.2872
  39   2.0000      -0.619229       -16.8501
  40   2.0000      -0.601016       -16.3545
  41   2.0000      -0.570512       -15.5244
  42   2.0000      -0.564944       -15.3729
  43   2.0000      -0.545890       -14.8544
  44   2.0000      -0.537656       -14.6304
  45   2.0000      -0.524190       -14.2639
  46   2.0000      -0.518091       -14.0980
  47   2.0000      -0.514211       -13.9924
  48   2.0000      -0.509035       -13.8515
  49   2.0000      -0.493982       -13.4419
  50   2.0000      -0.491786       -13.3822
  51   2.0000      -0.476537       -12.9672
  52   2.0000      -0.474328       -12.9071
  53   2.0000      -0.465801       -12.6751
  54   2.0000      -0.453785       -12.3481
  55   2.0000      -0.448020       -12.1912
  56   2.0000      -0.441521       -12.0144
  57   2.0000      -0.440623       -11.9900
  58   2.0000      -0.436279       -11.8718
  59   2.0000      -0.427340       -11.6285
  60   2.0000      -0.419336       -11.4107
  61   2.0000      -0.413302       -11.2465
  62   2.0000      -0.409875       -11.1533
  63   2.0000      -0.359544        -9.7837
  64   2.0000      -0.338411        -9.2086
  65   2.0000      -0.321492        -8.7482
  66   2.0000      -0.282364        -7.6835
  67   0.0000       0.015519         0.4223
  68   0.0000       0.074656         2.0315
  69   0.0000       0.093675         2.5490
  70   0.0000       0.110951         3.0191
  71   0.0000       0.125786         3.4228

MULLIKEN ATOMIC CHARGES
-----------------------
   0 S :    0.111420
   1 C :   -0.144299
   2 C :   -0.040357
   3 C :   -0.022222
   4 C :   -0.105141
   5 H :    0.017241
   6 C :    0.022738
   7 H :    0.020934
   8 H :    0.048074
   9 C :   -0.012999
  10 H :    0.029544
  11 H :    0.027577
  12 C :   -0.081618
  13 H :    0.031295
  14 H :    0.053576
  15 H :    0.005861
  16 S :    0.073189
  17 C :   -0.113488
  18 C :   -0.029853
  19 C :   -0.030894
  20 C :   -0.118978
  21 H :    0.019972
  22 C :    0.032360
  23 H :    0.046782
  24 H :    0.014715
  25 C :   -0.095271
  26 H :    0.016377
  27 H :    0.033080
  28 C :   -0.077269
  29 H :    0.050802
  30 H :    0.036242
  31 H :    0.047966
  32 H :    0.053848
  33 H :    0.078797
Sum of atomic charges:   -0.0000000

LOEWDIN ATOMIC CHARGES
----------------------
   0 S :    0.402275
   1 C :   -0.187368
   2 C :   -0.074165
   3 C :   -0.066637
   4 C :   -0.189610
   5 H :    0.036091
   6 C :   -0.036163
   7 H :    0.031406
   8 H :    0.042962
   9 C :   -0.029032
  10 H :    0.029933
  11 H :    0.021266
  12 C :   -0.078190
  13 H :    0.031570
  14 H :    0.029348
  15 H :    0.014020
  16 S :    0.391955
  17 C :   -0.183009
  18 C :   -0.062014
  19 C :   -0.069039
  20 C :   -0.187867
  21 H :    0.026353
  22 C :   -0.034172
  23 H :    0.036096
  24 H :    0.023014
  25 C :   -0.053255
  26 H :    0.020423
  27 H :    0.022645
  28 C :   -0.072150
  29 H :    0.031074
  30 H :    0.030021
  31 H :    0.031884
  32 H :    0.031164
  33 H :    0.039171

  Mayer bond orders larger than 0.100000
B(  0-S ,  1-C ) :   1.1287 B(  0-S ,  4-C ) :   1.1474 B(  1-C ,  2-C ) :   1.6295
B(  1-C , 32-H ) :   0.9638 B(  2-C ,  3-C ) :   1.2353 B(  2-C ,  6-C ) :   1.0201
B(  3-C ,  4-C ) :   1.5748 B(  3-C ,  5-H ) :   0.9875 B(  4-C , 20-C ) :   1.0670
B(  6-C ,  7-H ) :   0.9372 B(  6-C ,  8-H ) :   0.9413 B(  6-C ,  9-C ) :   1.0680
B(  9-C , 10-H ) :   0.9499 B(  9-C , 11-H ) :   0.9580 B(  9-C , 12-C ) :   1.0836
B( 12-C , 13-H ) :   0.9714 B( 12-C , 14-H ) :   0.9752 B( 12-C , 15-H ) :   0.9724
B( 16-S , 17-C ) :   1.1367 B( 16-S , 20-C ) :   1.1472 B( 17-C , 18-C ) :   1.5980
B( 17-C , 20-C ) :   0.1021 B( 17-C , 33-H ) :   0.9686 B( 18-C , 19-C ) :   1.2294
B( 18-C , 21-H ) :   0.9889 B( 19-C , 20-C ) :   1.5684 B( 19-C , 22-C ) :   1.0329
B( 22-C , 23-H ) :   0.9557 B( 22-C , 24-H ) :   0.9327 B( 22-C , 25-C ) :   1.0498
B( 25-C , 26-H ) :   0.9510 B( 25-C , 27-H ) :   0.9625 B( 25-C , 28-C ) :   1.0597
B( 28-C , 29-H ) :   0.9746 B( 28-C , 30-H ) :   0.9697 B( 28-C , 31-H ) :   0.9765

Dispersion correction           -0.014032917
FINAL SINGLE POINT ENERGY     -1339.857585064525

DIPOLE MOMENT
-------------
                                X             Y             Z
Electronic contribution:     29.48779      11.12070       7.63431
Nuclear contribution   :    -30.08890     -11.30001      -7.79118
                        -----------------------------------------
Total Dipole Moment    :     -0.60111      -0.17931      -0.15687
                        -----------------------------------------
Magnitude (a.u.)       :      0.64660
Magnitude (Debye)      :      1.64354

Rotational constants in cm-1:     0.016107     0.010165     0.006492
Rotational constants in MHz :   482.883476   304.730312   194.626943

                             ****ORCA TERMINATED NORMALLY****
TOTAL RUN TIME: 0 days 0 hours 0 minutes 21 seconds 892 msec
