                         Program Version 4.2.1 -  RELEASE  -
|  1> ! wB97X-D3 SP def2-SVP
|  2> %pal
|  3> nprocs 24
|  4> end
|  5>
|  6> * xyz 0 1
|  7> S 	 -99.455 	 -23.0696 	 -64.2406
|  8> C 	 -100.727 	 -21.8509 	 -64.4553
|  9> C 	 -100.201 	 -20.682 	 -64.9156
| 10> C 	 -98.781 	 -20.5967 	 -64.7621
| 11> C 	 -98.2359 	 -21.7871 	 -64.3479
| 12> H 	 -98.2079 	 -19.7455 	 -64.9627
| 13> C 	 -101.153 	 -19.5087 	 -65.1977
| 14> H 	 -101.91 	 -19.8706 	 -65.8949
| 15> H 	 -100.726 	 -18.7301 	 -65.8439
| 16> C 	 -101.786 	 -18.9073 	 -63.9389
| 17> H 	 -102.316 	 -19.7144 	 -63.4654
| 18> H 	 -100.936 	 -18.7232 	 -63.2297
| 19> C 	 -102.518 	 -17.5645 	 -64.2262
| 20> H 	 -103.425 	 -17.7774 	 -64.7353
| 21> H 	 -102.807 	 -17.0706 	 -63.2799
| 22> H 	 -101.769 	 -16.9476 	 -64.7045
| 23> S 	 -95.9966 	 -21.8407 	 -65.7252
| 24> C 	 -94.4315 	 -22.1674 	 -65.0135
| 25> C 	 -94.5889 	 -22.4039 	 -63.6433
| 26> C 	 -95.9405 	 -22.2911 	 -63.1391
| 27> C 	 -96.8329 	 -22.0623 	 -64.1645
| 28> H 	 -93.7081 	 -22.6502 	 -63.074
| 29> C 	 -96.2499 	 -22.219 	 -61.6244
| 30> H 	 -97.072 	 -22.8822 	 -61.4648
| 31> H 	 -96.6109 	 -21.2513 	 -61.3322
| 32> C 	 -95.2867 	 -22.8023 	 -60.5316
| 33> H 	 -94.4858 	 -22.224 	 -60.7543
| 34> H 	 -95.0753 	 -23.8288 	 -60.834
| 35> C 	 -95.7459 	 -22.6526 	 -59.0922
| 36> H 	 -95.7766 	 -21.585 	 -58.792
| 37> H 	 -95.054 	 -23.0934 	 -58.4758
| 38> H 	 -96.7441 	 -22.9843 	 -58.8679
| 39> H 	 -101.836 	 -22.0355 	 -64.4308
| 40> H 	 -93.4589 	 -22.3198 	 -65.5116
| 41> *
| 42>
| 43>                          ****END OF INPUT****

CARTESIAN COORDINATES (ANGSTROEM)
---------------------------------
  S    -99.455000  -23.069600  -64.240600
  C    -100.727000  -21.850900  -64.455300
  C    -100.201000  -20.682000  -64.915600
  C    -98.781000  -20.596700  -64.762100
  C    -98.235900  -21.787100  -64.347900
  H    -98.207900  -19.745500  -64.962700
  C    -101.153000  -19.508700  -65.197700
  H    -101.910000  -19.870600  -65.894900
  H    -100.726000  -18.730100  -65.843900
  C    -101.786000  -18.907300  -63.938900
  H    -102.316000  -19.714400  -63.465400
  H    -100.936000  -18.723200  -63.229700
  C    -102.518000  -17.564500  -64.226200
  H    -103.425000  -17.777400  -64.735300
  H    -102.807000  -17.070600  -63.279900
  H    -101.769000  -16.947600  -64.704500
  S    -95.996600  -21.840700  -65.725200
  C    -94.431500  -22.167400  -65.013500
  C    -94.588900  -22.403900  -63.643300
  C    -95.940500  -22.291100  -63.139100
  C    -96.832900  -22.062300  -64.164500
  H    -93.708100  -22.650200  -63.074000
  C    -96.249900  -22.219000  -61.624400
  H    -97.072000  -22.882200  -61.464800
  H    -96.610900  -21.251300  -61.332200
  C    -95.286700  -22.802300  -60.531600
  H    -94.485800  -22.224000  -60.754300
  H    -95.075300  -23.828800  -60.834000
  C    -95.745900  -22.652600  -59.092200
  H    -95.776600  -21.585000  -58.792000
  H    -95.054000  -23.093400  -58.475800
  H    -96.744100  -22.984300  -58.867900
  H    -101.836000  -22.035500  -64.430800
  H    -93.458900  -22.319800  -65.511600

 Total Charge           Charge          ....    0
 Multiplicity           Mult            ....    1
 Number of Electrons    NEL             ....  134
 Basis Dimension        Dim             ....  322

ORBITAL ENERGIES
----------------

  NO   OCC          E(Eh)            E(eV)
   0   2.0000     -88.964958     -2420.8596
   1   2.0000     -88.963632     -2420.8235
   2   2.0000     -10.328678      -281.0576
   3   2.0000     -10.326407      -280.9958
   4   2.0000     -10.320236      -280.8279
   5   2.0000     -10.315025      -280.6861
   6   2.0000     -10.312084      -280.6061
   7   2.0000     -10.298153      -280.2270
   8   2.0000     -10.294923      -280.1391
   9   2.0000     -10.291382      -280.0427
  10   2.0000     -10.289809      -279.9999
  11   2.0000     -10.287100      -279.9262
  12   2.0000     -10.287059      -279.9251
  13   2.0000     -10.280928      -279.7583
  14   2.0000     -10.280570      -279.7485
  15   2.0000     -10.275301      -279.6052
  16   2.0000      -8.078969      -219.8399
  17   2.0000      -8.077756      -219.8069
  18   2.0000      -6.037597      -164.2914
  19   2.0000      -6.036412      -164.2591
  20   2.0000      -6.033722      -164.1859
  21   2.0000      -6.032213      -164.1449
  22   2.0000      -6.029498      -164.0710
  23   2.0000      -6.028506      -164.0440
  24   2.0000      -1.004120       -27.3235
  25   2.0000      -0.978984       -26.6395
  26   2.0000      -0.909333       -24.7442
  27   2.0000      -0.907325       -24.6896
  28   2.0000      -0.868745       -23.6398
  29   2.0000      -0.851308       -23.1653
  30   2.0000      -0.844743       -22.9866
  31   2.0000      -0.811783       -22.0897
  32   2.0000      -0.786294       -21.3961
  33   2.0000      -0.770948       -20.9786
  34   2.0000      -0.710627       -19.3371
  35   2.0000      -0.701088       -19.0776
  36   2.0000      -0.698087       -18.9959
  37   2.0000      -0.656192       -17.8559
  38   2.0000      -0.638658       -17.3788
  39   2.0000      -0.616369       -16.7723
  40   2.0000      -0.594688       -16.1823
  41   2.0000      -0.573549       -15.6071
  42   2.0000      -0.571766       -15.5585
  43   2.0000      -0.557387       -15.1673
  44   2.0000      -0.528887       -14.3917
  45   2.0000      -0.519564       -14.1380
  46   2.0000      -0.515532       -14.0283
  47   2.0000      -0.510069       -13.8797
  48   2.0000      -0.506313       -13.7775
  49   2.0000      -0.499370       -13.5885
  50   2.0000      -0.495155       -13.4739
  51   2.0000      -0.485003       -13.1976
  52   2.0000      -0.470686       -12.8080
  53   2.0000      -0.468422       -12.7464
  54   2.0000      -0.456704       -12.4275
  55   2.0000      -0.453898       -12.3512
  56   2.0000      -0.445407       -12.1201
  57   2.0000      -0.433717       -11.8020
  58   2.0000      -0.432216       -11.7612
  59   2.0000      -0.424711       -11.5570
  60   2.0000      -0.420291       -11.4367
  61   2.0000      -0.412083       -11.2134
  62   2.0000      -0.402035       -10.9399
  63   2.0000      -0.336686        -9.1617
  64   2.0000      -0.329718        -8.9721
  65   2.0000      -0.326852        -8.8941
  66   2.0000      -0.301305        -8.1989
  67   0.0000       0.033685         0.9166
  68   0.0000       0.059519         1.6196
  69   0.0000       0.104667         2.8481
  70   0.0000       0.118144         3.2149
  71   0.0000       0.131157         3.5690

MULLIKEN ATOMIC CHARGES
-----------------------
   0 S :    0.115212
   1 C :   -0.149521
   2 C :   -0.063395
   3 C :    0.058453
   4 C :   -0.148424
   5 H :   -0.005266
   6 C :    0.031860
   7 H :    0.020793
   8 H :    0.010741
   9 C :   -0.082456
  10 H :    0.016234
  11 H :    0.030314
  12 C :   -0.017260
  13 H :    0.034837
  14 H :    0.036755
  15 H :    0.038475
  16 S :    0.102978
  17 C :   -0.090512
  18 C :   -0.074543
  19 C :    0.026144
  20 C :   -0.192806
  21 H :    0.018952
  22 C :    0.041557
  23 H :    0.014793
  24 H :    0.034600
  25 C :   -0.068112
  26 H :    0.010473
  27 H :    0.031523
  28 C :    0.006553
  29 H :    0.024579
  30 H :    0.021282
  31 H :    0.028131
  32 H :    0.069029
  33 H :    0.068028
Sum of atomic charges:   -0.0000000

LOEWDIN ATOMIC CHARGES
----------------------
   0 S :    0.384886
   1 C :   -0.193447
   2 C :   -0.063166
   3 C :   -0.053203
   4 C :   -0.192397
   5 H :    0.024033
   6 C :   -0.040194
   7 H :    0.027613
   8 H :    0.024948
   9 C :   -0.041997
  10 H :    0.016715
  11 H :    0.028145
  12 C :   -0.058248
  13 H :    0.022362
  14 H :    0.030819
  15 H :    0.028518
  16 S :    0.404144
  17 C :   -0.193932
  18 C :   -0.077603
  19 C :   -0.048331
  20 C :   -0.186819
  21 H :    0.027282
  22 C :   -0.030478
  23 H :    0.027449
  24 H :    0.028944
  25 C :   -0.031401
  26 H :    0.007379
  27 H :    0.025686
  28 C :   -0.052466
  29 H :    0.032424
  30 H :    0.019365
  31 H :    0.025026
  32 H :    0.039313
  33 H :    0.038628

  Mayer bond orders larger than 0.100000
B(  0-S ,  1-C ) :   1.1231 B(  0-S ,  4-C ) :   1.1342 B(  1-C ,  2-C ) :   1.6290
B(  1-C , 32-H ) :   0.9619 B(  2-C ,  3-C ) :   1.2135 B(  2-C ,  6-C ) :   1.0316
B(  3-C ,  4-C ) :   1.5857 B(  3-C ,  5-H ) :   1.0092 B(  4-C , 20-C ) :   1.0335
B(  6-C ,  7-H ) :   0.9359 B(  6-C ,  8-H ) :   0.9445 B(  6-C ,  9-C ) :   1.0508
B(  9-C , 10-H ) :   0.9555 B(  9-C , 11-H ) :   0.9580 B(  9-C , 12-C ) :   1.0673
B( 12-C , 13-H ) :   0.9778 B( 12-C , 14-H ) :   0.9751 B( 12-C , 15-H ) :   0.9743
B( 16-S , 17-C ) :   1.1494 B( 16-S , 20-C ) :   1.1398 B( 17-C , 18-C ) :   1.6215
B( 17-C , 33-H ) :   0.9613 B( 18-C , 19-C ) :   1.2201 B( 18-C , 21-H ) :   0.9865
B( 19-C , 20-C ) :   1.6151 B( 19-C , 22-C ) :   1.0208 B( 22-C , 23-H ) :   0.9307
B( 22-C , 24-H ) :   0.9446 B( 22-C , 25-C ) :   1.0528 B( 25-C , 26-H ) :   0.9511
B( 25-C , 27-H ) :   0.9599 B( 25-C , 28-C ) :   1.0896 B( 28-C , 29-H ) :   0.9697
B( 28-C , 30-H ) :   0.9698 B( 28-C , 31-H ) :   0.9756

Dispersion correction           -0.013272527
FINAL SINGLE POINT ENERGY     -1339.854587751305

DIPOLE MOMENT
-------------
                                X             Y             Z
Electronic contribution:      7.69079     -12.78236     -17.75244
Nuclear contribution   :     -7.70407      13.15102      18.13521
                        -----------------------------------------
Total Dipole Moment    :     -0.01328       0.36866       0.38277
                        -----------------------------------------
Magnitude (a.u.)       :      0.53160
Magnitude (Debye)      :      1.35122

Rotational constants in cm-1:     0.018423     0.007160     0.006116
Rotational constants in MHz :   552.305296   214.644116   183.364655

                             ****ORCA TERMINATED NORMALLY****
TOTAL RUN TIME: 0 days 0 hours 0 minutes 20 seconds 576 msec
