                         Program Version 4.2.1 -  RELEASE  -
|  1> ! wB97X-D3 SP def2-SVP
|  2> %pal
|  3> nprocs 24
|  4> end
|  5>
|  6> * xyz 0 1
|  7> S 	 13.8022 	 -16.9013 	 -120.614
|  8> C 	 12.1361 	 -16.7306 	 -121.241
|  9> C 	 11.2062 	 -17.3715 	 -120.437
| 10> C 	 11.8293 	 -17.8117 	 -119.205
| 11> C 	 13.1944 	 -17.7478 	 -119.161
| 12> H 	 11.3238 	 -18.2239 	 -118.364
| 13> C 	 9.68685 	 -17.4363 	 -120.73
| 14> H 	 9.52584 	 -18.4993 	 -120.682
| 15> H 	 9.45765 	 -17.1813 	 -121.773
| 16> C 	 8.94336 	 -16.562 	 -119.653
| 17> H 	 9.06123 	 -17.0238 	 -118.66
| 18> H 	 9.33114 	 -15.5713 	 -119.561
| 19> C 	 7.48882 	 -16.5911 	 -119.875
| 20> H 	 7.11997 	 -15.8979 	 -120.669
| 21> H 	 7.38744 	 -17.5982 	 -120.213
| 22> H 	 6.88398 	 -16.4543 	 -118.989
| 23> S 	 14.3068 	 -16.5346 	 -116.894
| 24> C 	 15.0991 	 -17.618 	 -115.681
| 25> C 	 15.1693 	 -18.9196 	 -116.117
| 26> C 	 14.4533 	 -19.0981 	 -117.398
| 27> C 	 13.9936 	 -17.9289 	 -117.976
| 28> H 	 15.7206 	 -19.6834 	 -115.526
| 29> C 	 14.5299 	 -20.402 	 -118.076
| 30> H 	 13.8256 	 -20.5033 	 -118.861
| 31> H 	 14.3847 	 -21.2093 	 -117.375
| 32> C 	 15.9153 	 -20.6833 	 -118.638
| 33> H 	 16.6838 	 -20.5411 	 -117.833
| 34> H 	 16.1452 	 -20.1569 	 -119.512
| 35> C 	 16.241 	 -22.1229 	 -118.93
| 36> H 	 17.3164 	 -22.1178 	 -119.102
| 37> H 	 15.8357 	 -22.4957 	 -119.806
| 38> H 	 16.1535 	 -22.7979 	 -118.029
| 39> H 	 11.8636 	 -16.2366 	 -122.158
| 40> H 	 15.405 	 -17.31 	 -114.668
| 41> *
| 42>
| 43>                          ****END OF INPUT****

CARTESIAN COORDINATES (ANGSTROEM)
---------------------------------
  S     13.802200  -16.901300  -120.614000
  C     12.136100  -16.730600  -121.241000
  C     11.206200  -17.371500  -120.437000
  C     11.829300  -17.811700  -119.205000
  C     13.194400  -17.747800  -119.161000
  H     11.323800  -18.223900  -118.364000
  C      9.686850  -17.436300  -120.730000
  H      9.525840  -18.499300  -120.682000
  H      9.457650  -17.181300  -121.773000
  C      8.943360  -16.562000  -119.653000
  H      9.061230  -17.023800  -118.660000
  H      9.331140  -15.571300  -119.561000
  C      7.488820  -16.591100  -119.875000
  H      7.119970  -15.897900  -120.669000
  H      7.387440  -17.598200  -120.213000
  H      6.883980  -16.454300  -118.989000
  S     14.306800  -16.534600  -116.894000
  C     15.099100  -17.618000  -115.681000
  C     15.169300  -18.919600  -116.117000
  C     14.453300  -19.098100  -117.398000
  C     13.993600  -17.928900  -117.976000
  H     15.720600  -19.683400  -115.526000
  C     14.529900  -20.402000  -118.076000
  H     13.825600  -20.503300  -118.861000
  H     14.384700  -21.209300  -117.375000
  C     15.915300  -20.683300  -118.638000
  H     16.683800  -20.541100  -117.833000
  H     16.145200  -20.156900  -119.512000
  C     16.241000  -22.122900  -118.930000
  H     17.316400  -22.117800  -119.102000
  H     15.835700  -22.495700  -119.806000
  H     16.153500  -22.797900  -118.029000
  H     11.863600  -16.236600  -122.158000
  H     15.405000  -17.310000  -114.668000

 Total Charge           Charge          ....    0
 Multiplicity           Mult            ....    1
 Number of Electrons    NEL             ....  134
 Basis Dimension        Dim             ....  322

ORBITAL ENERGIES
----------------

  NO   OCC          E(Eh)            E(eV)
   0   2.0000     -88.963205     -2420.8119
   1   2.0000     -88.961666     -2420.7700
   2   2.0000     -10.327210      -281.0177
   3   2.0000     -10.325804      -280.9794
   4   2.0000     -10.324723      -280.9500
   5   2.0000     -10.316805      -280.7345
   6   2.0000     -10.305027      -280.4140
   7   2.0000     -10.304460      -280.3986
   8   2.0000     -10.301070      -280.3064
   9   2.0000     -10.300775      -280.2983
  10   2.0000     -10.294551      -280.1290
  11   2.0000     -10.285782      -279.8904
  12   2.0000     -10.279186      -279.7109
  13   2.0000     -10.277456      -279.6638
  14   2.0000     -10.271854      -279.5114
  15   2.0000     -10.270575      -279.4766
  16   2.0000      -8.076859      -219.7825
  17   2.0000      -8.075091      -219.7344
  18   2.0000      -6.035503      -164.2344
  19   2.0000      -6.033894      -164.1906
  20   2.0000      -6.031591      -164.1279
  21   2.0000      -6.029883      -164.0815
  22   2.0000      -6.027456      -164.0154
  23   2.0000      -6.025497      -163.9621
  24   2.0000      -0.997000       -27.1298
  25   2.0000      -0.972670       -26.4677
  26   2.0000      -0.915813       -24.9205
  27   2.0000      -0.913754       -24.8645
  28   2.0000      -0.872140       -23.7321
  29   2.0000      -0.850184       -23.1347
  30   2.0000      -0.845334       -23.0027
  31   2.0000      -0.815893       -22.2016
  32   2.0000      -0.780936       -21.2503
  33   2.0000      -0.767491       -20.8845
  34   2.0000      -0.706326       -19.2201
  35   2.0000      -0.697157       -18.9706
  36   2.0000      -0.689026       -18.7493
  37   2.0000      -0.658041       -17.9062
  38   2.0000      -0.643551       -17.5119
  39   2.0000      -0.615746       -16.7553
  40   2.0000      -0.595718       -16.2103
  41   2.0000      -0.577542       -15.7157
  42   2.0000      -0.571397       -15.5485
  43   2.0000      -0.560373       -15.2485
  44   2.0000      -0.538101       -14.6425
  45   2.0000      -0.523868       -14.2552
  46   2.0000      -0.518830       -14.1181
  47   2.0000      -0.509550       -13.8656
  48   2.0000      -0.506734       -13.7889
  49   2.0000      -0.501981       -13.6596
  50   2.0000      -0.495335       -13.4788
  51   2.0000      -0.472285       -12.8515
  52   2.0000      -0.468044       -12.7361
  53   2.0000      -0.462235       -12.5781
  54   2.0000      -0.453015       -12.3272
  55   2.0000      -0.447490       -12.1768
  56   2.0000      -0.441605       -12.0167
  57   2.0000      -0.435434       -11.8488
  58   2.0000      -0.430465       -11.7135
  59   2.0000      -0.423390       -11.5210
  60   2.0000      -0.420131       -11.4324
  61   2.0000      -0.413137       -11.2420
  62   2.0000      -0.410606       -11.1732
  63   2.0000      -0.338069        -9.1993
  64   2.0000      -0.323583        -8.8051
  65   2.0000      -0.320000        -8.7076
  66   2.0000      -0.308458        -8.3936
  67   0.0000       0.042005         1.1430
  68   0.0000       0.053202         1.4477
  69   0.0000       0.113650         3.0926
  70   0.0000       0.117093         3.1863
  71   0.0000       0.123035         3.3480

MULLIKEN ATOMIC CHARGES
-----------------------
   0 S :    0.090716
   1 C :   -0.117715
   2 C :   -0.096074
   3 C :    0.041313
   4 C :   -0.175857
   5 H :    0.007977
   6 C :    0.071498
   7 H :    0.035856
   8 H :    0.025165
   9 C :   -0.080678
  10 H :    0.031858
  11 H :    0.034270
  12 C :   -0.019707
  13 H :    0.037482
  14 H :    0.011517
  15 H :    0.032702
  16 S :    0.093538
  17 C :   -0.104366
  18 C :   -0.039950
  19 C :   -0.028356
  20 C :   -0.142280
  21 H :    0.041316
  22 C :    0.131377
  23 H :    0.015807
  24 H :    0.000605
  25 C :   -0.095364
  26 H :    0.023926
  27 H :    0.021928
  28 C :   -0.031398
  29 H :    0.021018
  30 H :    0.018722
  31 H :    0.032078
  32 H :    0.043712
  33 H :    0.067364
Sum of atomic charges:    0.0000000

LOEWDIN ATOMIC CHARGES
----------------------
   0 S :    0.365722
   1 C :   -0.179884
   2 C :   -0.060942
   3 C :   -0.046127
   4 C :   -0.191844
   5 H :    0.027764
   6 C :   -0.026178
   7 H :    0.032729
   8 H :    0.030113
   9 C :   -0.037204
  10 H :    0.030989
  11 H :    0.021854
  12 C :   -0.067044
  13 H :    0.027494
  14 H :    0.023390
  15 H :    0.024620
  16 S :    0.357724
  17 C :   -0.164418
  18 C :   -0.074359
  19 C :   -0.043670
  20 C :   -0.193427
  21 H :    0.040160
  22 C :   -0.031969
  23 H :    0.025432
  24 H :    0.028080
  25 C :   -0.033308
  26 H :    0.029925
  27 H :    0.018322
  28 C :   -0.061886
  29 H :    0.029124
  30 H :    0.009568
  31 H :    0.028384
  32 H :    0.025555
  33 H :    0.035311

  Mayer bond orders larger than 0.100000
B(  0-S ,  1-C ) :   1.1306 B(  0-S ,  4-C ) :   1.1125 B(  1-C ,  2-C ) :   1.6419
B(  1-C , 32-H ) :   0.9666 B(  2-C ,  3-C ) :   1.1987 B(  2-C ,  6-C ) :   1.0168
B(  3-C ,  4-C ) :   1.6354 B(  3-C ,  5-H ) :   0.9929 B(  4-C , 20-C ) :   1.0279
B(  6-C ,  7-H ) :   0.9295 B(  6-C ,  8-H ) :   0.9493 B(  6-C ,  9-C ) :   1.0565
B(  9-C , 10-H ) :   0.9500 B(  9-C , 11-H ) :   0.9625 B(  9-C , 12-C ) :   1.0854
B( 12-C , 13-H ) :   0.9735 B( 12-C , 14-H ) :   0.9688 B( 12-C , 15-H ) :   0.9731
B( 16-S , 17-C ) :   1.1308 B( 16-S , 20-C ) :   1.0941 B( 17-C , 18-C ) :   1.6671
B( 17-C , 33-H ) :   0.9614 B( 18-C , 19-C ) :   1.1750 B( 18-C , 21-H ) :   0.9793
B( 19-C , 20-C ) :   1.6515 B( 19-C , 22-C ) :   1.0879 B( 22-C , 23-H ) :   0.9226
B( 22-C , 24-H ) :   0.9184 B( 22-C , 25-C ) :   1.0698 B( 25-C , 26-H ) :   0.9603
B( 25-C , 27-H ) :   0.9539 B( 25-C , 28-C ) :   1.0883 B( 28-C , 29-H ) :   0.9725
B( 28-C , 30-H ) :   0.9732 B( 28-C , 31-H ) :   0.9710

Dispersion correction           -0.013736607
FINAL SINGLE POINT ENERGY     -1339.859733957554

DIPOLE MOMENT
-------------
                                X             Y             Z
Electronic contribution:     11.71708      14.58776       3.31768
Nuclear contribution   :    -12.10380     -15.03707      -3.21001
                        -----------------------------------------
Total Dipole Moment    :     -0.38672      -0.44932       0.10767
                        -----------------------------------------
Magnitude (a.u.)       :      0.60252
Magnitude (Debye)      :      1.53148

Rotational constants in cm-1:     0.019833     0.007305     0.006601
Rotational constants in MHz :   594.588581   218.999204   197.901838

                             ****ORCA TERMINATED NORMALLY****
TOTAL RUN TIME: 0 days 0 hours 0 minutes 20 seconds 939 msec
