                         Program Version 4.2.1 -  RELEASE  -
|  1> ! wB97X-D3 SP def2-SVP
|  2> %pal
|  3> nprocs 24
|  4> end
|  5>
|  6> * xyz 0 1
|  7> S 	 -119.659 	 18.0739 	 -113.165
|  8> C 	 -121.175 	 18.6243 	 -113.76
|  9> C 	 -121.216 	 18.3293 	 -115.154
| 10> C 	 -120.023 	 17.7899 	 -115.728
| 11> C 	 -118.99 	 17.8705 	 -114.841
| 12> H 	 -119.812 	 17.5736 	 -116.817
| 13> C 	 -122.485 	 18.4858 	 -115.917
| 14> H 	 -123.298 	 18.2965 	 -115.243
| 15> H 	 -122.692 	 17.7874 	 -116.764
| 16> C 	 -122.572 	 19.8553 	 -116.569
| 17> H 	 -123.489 	 19.9439 	 -117.127
| 18> H 	 -122.57 	 20.591 	 -115.772
| 19> C 	 -121.482 	 20.137 	 -117.615
| 20> H 	 -120.523 	 19.6773 	 -117.38
| 21> H 	 -121.697 	 19.6946 	 -118.607
| 22> H 	 -121.311 	 21.21 	 -117.663
| 23> S 	 -116.627 	 16.7085 	 -113.988
| 24> C 	 -115.203 	 16.8849 	 -115.02
| 25> C 	 -115.494 	 17.434 	 -116.165
| 26> C 	 -116.748 	 18.0499 	 -116.222
| 27> C 	 -117.586 	 17.6237 	 -115.147
| 28> H 	 -114.726 	 17.687 	 -116.821
| 29> C 	 -117.027 	 19.106 	 -117.22
| 30> H 	 -118.069 	 18.9824 	 -117.48
| 31> H 	 -116.527 	 18.909 	 -118.147
| 32> C 	 -116.798 	 20.552 	 -116.707
| 33> H 	 -115.712 	 20.7514 	 -116.681
| 34> H 	 -116.995 	 20.6683 	 -115.641
| 35> C 	 -117.525 	 21.6137 	 -117.492
| 36> H 	 -117.073 	 22.5878 	 -117.295
| 37> H 	 -118.565 	 21.631 	 -117.181
| 38> H 	 -117.437 	 21.3031 	 -118.531
| 39> H 	 -121.994 	 18.9164 	 -113.116
| 40> H 	 -114.156 	 16.5089 	 -114.769
| 41> *
| 42>
| 43>                          ****END OF INPUT****

CARTESIAN COORDINATES (ANGSTROEM)
---------------------------------
  S    -119.659000   18.073900  -113.165000
  C    -121.175000   18.624300  -113.760000
  C    -121.216000   18.329300  -115.154000
  C    -120.023000   17.789900  -115.728000
  C    -118.990000   17.870500  -114.841000
  H    -119.812000   17.573600  -116.817000
  C    -122.485000   18.485800  -115.917000
  H    -123.298000   18.296500  -115.243000
  H    -122.692000   17.787400  -116.764000
  C    -122.572000   19.855300  -116.569000
  H    -123.489000   19.943900  -117.127000
  H    -122.570000   20.591000  -115.772000
  C    -121.482000   20.137000  -117.615000
  H    -120.523000   19.677300  -117.380000
  H    -121.697000   19.694600  -118.607000
  H    -121.311000   21.210000  -117.663000
  S    -116.627000   16.708500  -113.988000
  C    -115.203000   16.884900  -115.020000
  C    -115.494000   17.434000  -116.165000
  C    -116.748000   18.049900  -116.222000
  C    -117.586000   17.623700  -115.147000
  H    -114.726000   17.687000  -116.821000
  C    -117.027000   19.106000  -117.220000
  H    -118.069000   18.982400  -117.480000
  H    -116.527000   18.909000  -118.147000
  C    -116.798000   20.552000  -116.707000
  H    -115.712000   20.751400  -116.681000
  H    -116.995000   20.668300  -115.641000
  C    -117.525000   21.613700  -117.492000
  H    -117.073000   22.587800  -117.295000
  H    -118.565000   21.631000  -117.181000
  H    -117.437000   21.303100  -118.531000
  H    -121.994000   18.916400  -113.116000
  H    -114.156000   16.508900  -114.769000

 Total Charge           Charge          ....    0
 Multiplicity           Mult            ....    1
 Number of Electrons    NEL             ....  134
 Basis Dimension        Dim             ....  322

ORBITAL ENERGIES
----------------

  NO   OCC          E(Eh)            E(eV)
   0   2.0000     -88.964500     -2420.8471
   1   2.0000     -88.963963     -2420.8325
   2   2.0000     -10.333568      -281.1907
   3   2.0000     -10.330286      -281.1014
   4   2.0000     -10.318584      -280.7830
   5   2.0000     -10.316660      -280.7306
   6   2.0000     -10.304659      -280.4040
   7   2.0000     -10.302809      -280.3537
   8   2.0000     -10.299718      -280.2696
   9   2.0000     -10.288136      -279.9544
  10   2.0000     -10.285286      -279.8769
  11   2.0000     -10.282921      -279.8125
  12   2.0000     -10.280825      -279.7555
  13   2.0000     -10.277758      -279.6720
  14   2.0000     -10.276300      -279.6323
  15   2.0000     -10.275003      -279.5971
  16   2.0000      -8.078915      -219.8384
  17   2.0000      -8.078571      -219.8291
  18   2.0000      -6.037495      -164.2886
  19   2.0000      -6.037138      -164.2789
  20   2.0000      -6.033589      -164.1823
  21   2.0000      -6.033181      -164.1712
  22   2.0000      -6.029486      -164.0707
  23   2.0000      -6.029200      -164.0629
  24   2.0000      -1.007518       -27.4159
  25   2.0000      -0.987494       -26.8711
  26   2.0000      -0.914113       -24.8743
  27   2.0000      -0.911441       -24.8016
  28   2.0000      -0.875702       -23.8291
  29   2.0000      -0.856102       -23.2957
  30   2.0000      -0.842721       -22.9316
  31   2.0000      -0.823059       -22.3966
  32   2.0000      -0.781705       -21.2713
  33   2.0000      -0.765128       -20.8202
  34   2.0000      -0.706145       -19.2152
  35   2.0000      -0.696516       -18.9532
  36   2.0000      -0.695376       -18.9222
  37   2.0000      -0.661872       -18.0104
  38   2.0000      -0.642197       -17.4751
  39   2.0000      -0.617210       -16.7951
  40   2.0000      -0.599890       -16.3238
  41   2.0000      -0.578588       -15.7442
  42   2.0000      -0.560832       -15.2610
  43   2.0000      -0.548063       -14.9135
  44   2.0000      -0.540278       -14.7017
  45   2.0000      -0.532312       -14.4850
  46   2.0000      -0.519121       -14.1260
  47   2.0000      -0.512905       -13.9569
  48   2.0000      -0.507258       -13.8032
  49   2.0000      -0.503059       -13.6889
  50   2.0000      -0.492294       -13.3960
  51   2.0000      -0.481745       -13.1089
  52   2.0000      -0.477108       -12.9828
  53   2.0000      -0.463031       -12.5997
  54   2.0000      -0.456546       -12.4232
  55   2.0000      -0.444314       -12.0904
  56   2.0000      -0.441125       -12.0036
  57   2.0000      -0.437104       -11.8942
  58   2.0000      -0.433143       -11.7864
  59   2.0000      -0.426867       -11.6156
  60   2.0000      -0.415411       -11.3039
  61   2.0000      -0.413531       -11.2527
  62   2.0000      -0.408149       -11.1063
  63   2.0000      -0.358310        -9.7501
  64   2.0000      -0.337285        -9.1780
  65   2.0000      -0.320982        -8.7344
  66   2.0000      -0.280786        -7.6406
  67   0.0000       0.017079         0.4647
  68   0.0000       0.071340         1.9413
  69   0.0000       0.098420         2.6782
  70   0.0000       0.125471         3.4142
  71   0.0000       0.130873         3.5612

MULLIKEN ATOMIC CHARGES
-----------------------
   0 S :    0.099922
   1 C :   -0.102414
   2 C :   -0.116520
   3 C :    0.024449
   4 C :   -0.138063
   5 H :    0.054999
   6 C :    0.047296
   7 H :    0.016456
   8 H :    0.027189
   9 C :   -0.045759
  10 H :    0.025483
  11 H :    0.019419
  12 C :   -0.054645
  13 H :    0.010760
  14 H :    0.028931
  15 H :    0.041892
  16 S :    0.091228
  17 C :   -0.104932
  18 C :    0.024759
  19 C :   -0.105501
  20 C :   -0.149848
  21 H :   -0.004314
  22 C :    0.123941
  23 H :   -0.012404
  24 H :    0.014209
  25 C :   -0.079267
  26 H :    0.017273
  27 H :    0.030413
  28 C :   -0.027332
  29 H :    0.036785
  30 H :    0.040457
  31 H :    0.030331
  32 H :    0.058726
  33 H :    0.076079
Sum of atomic charges:    0.0000000

LOEWDIN ATOMIC CHARGES
----------------------
   0 S :    0.385534
   1 C :   -0.206140
   2 C :   -0.060234
   3 C :   -0.066621
   4 C :   -0.170984
   5 H :    0.046821
   6 C :   -0.040704
   7 H :    0.025561
   8 H :    0.033580
   9 C :   -0.036012
  10 H :    0.021958
  11 H :    0.018808
  12 C :   -0.068528
  13 H :    0.017129
  14 H :    0.027207
  15 H :    0.028974
  16 S :    0.385746
  17 C :   -0.174905
  18 C :   -0.076814
  19 C :   -0.049887
  20 C :   -0.193266
  21 H :    0.025736
  22 C :   -0.032592
  23 H :    0.024447
  24 H :    0.028420
  25 C :   -0.041522
  26 H :    0.022400
  27 H :    0.026426
  28 C :   -0.060396
  29 H :    0.029654
  30 H :    0.027329
  31 H :    0.024911
  32 H :    0.031723
  33 H :    0.046241

  Mayer bond orders larger than 0.100000
B(  0-S ,  1-C ) :   1.1380 B(  0-S ,  4-C ) :   1.1362 B(  1-C ,  2-C ) :   1.5776
B(  1-C ,  4-C ) :   0.1029 B(  1-C , 32-H ) :   0.9724 B(  2-C ,  3-C ) :   1.2384
B(  2-C ,  6-C ) :   1.0334 B(  3-C ,  4-C ) :   1.5647 B(  3-C ,  5-H ) :   0.9770
B(  4-C , 20-C ) :   1.0821 B(  6-C ,  7-H ) :   0.9401 B(  6-C ,  8-H ) :   0.9493
B(  6-C ,  9-C ) :   1.0751 B(  9-C , 10-H ) :   0.9556 B(  9-C , 11-H ) :   0.9574
B(  9-C , 12-C ) :   1.0706 B( 12-C , 13-H ) :   0.9767 B( 12-C , 14-H ) :   0.9688
B( 12-C , 15-H ) :   0.9711 B( 16-S , 17-C ) :   1.1353 B( 16-S , 20-C ) :   1.1320
B( 17-C , 18-C ) :   1.6525 B( 17-C , 33-H ) :   0.9520 B( 18-C , 19-C ) :   1.2568
B( 18-C , 21-H ) :   0.9821 B( 19-C , 20-C ) :   1.5643 B( 19-C , 22-C ) :   1.0640
B( 22-C , 23-H ) :   0.9215 B( 22-C , 24-H ) :   0.9155 B( 22-C , 25-C ) :   1.0456
B( 25-C , 26-H ) :   0.9526 B( 25-C , 27-H ) :   0.9582 B( 25-C , 28-C ) :   1.0818
B( 28-C , 29-H ) :   0.9707 B( 28-C , 30-H ) :   0.9744 B( 28-C , 31-H ) :   0.9749

Dispersion correction           -0.015733008
FINAL SINGLE POINT ENERGY     -1339.859332174050

DIPOLE MOMENT
-------------
                                X             Y             Z
Electronic contribution:      9.10287     -18.95891      21.72304
Nuclear contribution   :     -9.13947      19.29762     -22.28728
                        -----------------------------------------
Total Dipole Moment    :     -0.03660       0.33871      -0.56424
                        -----------------------------------------
Magnitude (a.u.)       :      0.65912
Magnitude (Debye)      :      1.67535

Rotational constants in cm-1:     0.018107     0.010617     0.007526
Rotational constants in MHz :   542.828183   318.276895   225.630301

                             ****ORCA TERMINATED NORMALLY****
TOTAL RUN TIME: 0 days 0 hours 0 minutes 23 seconds 402 msec
