                         Program Version 4.2.1 -  RELEASE  -
|  1> ! wB97X-D3 SP def2-SVP
|  2> %pal
|  3> nprocs 24
|  4> end
|  5>
|  6> * xyz 0 1
|  7> S 	 -143.389 	 6.90085 	 11.2002
|  8> C 	 -144.563 	 7.72379 	 10.1782
|  9> C 	 -145.881 	 7.64555 	 10.5638
| 10> C 	 -145.938 	 6.92317 	 11.7964
| 11> C 	 -144.706 	 6.41916 	 12.2753
| 12> H 	 -146.796 	 6.93777 	 12.4723
| 13> C 	 -147.163 	 8.24507 	 9.91659
| 14> H 	 -146.721 	 9.15006 	 9.45583
| 15> H 	 -147.803 	 8.57815 	 10.7668
| 16> C 	 -147.858 	 7.27064 	 8.91004
| 17> H 	 -147.292 	 7.11244 	 8.02783
| 18> H 	 -147.982 	 6.30906 	 9.38658
| 19> C 	 -149.211 	 7.81476 	 8.37231
| 20> H 	 -149.884 	 7.87006 	 9.23839
| 21> H 	 -149.153 	 8.82317 	 7.82713
| 22> H 	 -149.437 	 7.01088 	 7.70632
| 23> S 	 -144.845 	 3.92284 	 13.4294
| 24> C 	 -144.367 	 3.68292 	 15.0716
| 25> C 	 -143.786 	 4.7963 	 15.5884
| 26> C 	 -143.953 	 5.95042 	 14.7365
| 27> C 	 -144.479 	 5.63254 	 13.4791
| 28> H 	 -143.302 	 4.88732 	 16.5662
| 29> C 	 -143.395 	 7.1891 	 15.1858
| 30> H 	 -142.903 	 7.63776 	 14.3447
| 31> H 	 -142.701 	 6.87716 	 15.9941
| 32> C 	 -144.453 	 8.23164 	 15.7013
| 33> H 	 -145.141 	 7.75233 	 16.467
| 34> H 	 -145.185 	 8.4747 	 14.8765
| 35> C 	 -143.826 	 9.59372 	 16.1759
| 36> H 	 -143.344 	 10.0012 	 15.2532
| 37> H 	 -143.144 	 9.44748 	 17.0242
| 38> H 	 -144.625 	 10.354 	 16.4842
| 39> H 	 -144.339 	 8.25107 	 9.25746
| 40> H 	 -144.229 	 2.65859 	 15.4495
| 41> *
| 42>
| 43>                          ****END OF INPUT****

CARTESIAN COORDINATES (ANGSTROEM)
---------------------------------
  S    -143.389000    6.900850   11.200200
  C    -144.563000    7.723790   10.178200
  C    -145.881000    7.645550   10.563800
  C    -145.938000    6.923170   11.796400
  C    -144.706000    6.419160   12.275300
  H    -146.796000    6.937770   12.472300
  C    -147.163000    8.245070    9.916590
  H    -146.721000    9.150060    9.455830
  H    -147.803000    8.578150   10.766800
  C    -147.858000    7.270640    8.910040
  H    -147.292000    7.112440    8.027830
  H    -147.982000    6.309060    9.386580
  C    -149.211000    7.814760    8.372310
  H    -149.884000    7.870060    9.238390
  H    -149.153000    8.823170    7.827130
  H    -149.437000    7.010880    7.706320
  S    -144.845000    3.922840   13.429400
  C    -144.367000    3.682920   15.071600
  C    -143.786000    4.796300   15.588400
  C    -143.953000    5.950420   14.736500
  C    -144.479000    5.632540   13.479100
  H    -143.302000    4.887320   16.566200
  C    -143.395000    7.189100   15.185800
  H    -142.903000    7.637760   14.344700
  H    -142.701000    6.877160   15.994100
  C    -144.453000    8.231640   15.701300
  H    -145.141000    7.752330   16.467000
  H    -145.185000    8.474700   14.876500
  C    -143.826000    9.593720   16.175900
  H    -143.344000   10.001200   15.253200
  H    -143.144000    9.447480   17.024200
  H    -144.625000   10.354000   16.484200
  H    -144.339000    8.251070    9.257460
  H    -144.229000    2.658590   15.449500

 Total Charge           Charge          ....    0
 Multiplicity           Mult            ....    1
 Number of Electrons    NEL             ....  134
 Basis Dimension        Dim             ....  322

ORBITAL ENERGIES
----------------

  NO   OCC          E(Eh)            E(eV)
   0   2.0000     -88.971848     -2421.0471
   1   2.0000     -88.960682     -2420.7432
   2   2.0000     -10.331006      -281.1210
   3   2.0000     -10.322964      -280.9021
   4   2.0000     -10.314449      -280.6704
   5   2.0000     -10.314447      -280.6704
   6   2.0000     -10.304306      -280.3944
   7   2.0000     -10.301064      -280.3062
   8   2.0000     -10.296507      -280.1822
   9   2.0000     -10.295994      -280.1682
  10   2.0000     -10.295226      -280.1473
  11   2.0000     -10.291591      -280.0484
  12   2.0000     -10.288857      -279.9740
  13   2.0000     -10.288352      -279.9603
  14   2.0000     -10.285210      -279.8748
  15   2.0000     -10.285011      -279.8694
  16   2.0000      -8.085572      -220.0196
  17   2.0000      -8.076136      -219.7628
  18   2.0000      -6.044031      -164.4665
  19   2.0000      -6.040292      -164.3647
  20   2.0000      -6.036382      -164.2583
  21   2.0000      -6.034577      -164.2092
  22   2.0000      -6.030491      -164.0980
  23   2.0000      -6.026969      -164.0022
  24   2.0000      -1.004412       -27.3314
  25   2.0000      -0.982549       -26.7365
  26   2.0000      -0.908145       -24.7119
  27   2.0000      -0.906389       -24.6641
  28   2.0000      -0.868871       -23.6432
  29   2.0000      -0.849222       -23.1085
  30   2.0000      -0.844260       -22.9735
  31   2.0000      -0.809037       -22.0150
  32   2.0000      -0.780821       -21.2472
  33   2.0000      -0.765356       -20.8264
  34   2.0000      -0.702633       -19.1196
  35   2.0000      -0.699000       -19.0208
  36   2.0000      -0.686344       -18.6764
  37   2.0000      -0.665420       -18.1070
  38   2.0000      -0.635881       -17.3032
  39   2.0000      -0.612246       -16.6601
  40   2.0000      -0.593522       -16.1506
  41   2.0000      -0.570759       -15.5312
  42   2.0000      -0.559495       -15.2246
  43   2.0000      -0.553207       -15.0535
  44   2.0000      -0.530469       -14.4348
  45   2.0000      -0.516034       -14.0420
  46   2.0000      -0.514461       -13.9992
  47   2.0000      -0.513010       -13.9597
  48   2.0000      -0.505322       -13.7505
  49   2.0000      -0.499244       -13.5851
  50   2.0000      -0.487318       -13.2606
  51   2.0000      -0.474352       -12.9078
  52   2.0000      -0.464271       -12.6335
  53   2.0000      -0.463065       -12.6006
  54   2.0000      -0.458060       -12.4644
  55   2.0000      -0.445325       -12.1179
  56   2.0000      -0.443185       -12.0597
  57   2.0000      -0.441910       -12.0250
  58   2.0000      -0.429535       -11.6883
  59   2.0000      -0.427755       -11.6398
  60   2.0000      -0.419598       -11.4179
  61   2.0000      -0.415742       -11.3129
  62   2.0000      -0.414795       -11.2871
  63   2.0000      -0.335020        -9.1164
  64   2.0000      -0.329327        -8.9614
  65   2.0000      -0.320785        -8.7290
  66   2.0000      -0.304145        -8.2762
  67   0.0000       0.040125         1.0919
  68   0.0000       0.055475         1.5096
  69   0.0000       0.107732         2.9315
  70   0.0000       0.115675         3.1477
  71   0.0000       0.126047         3.4299

MULLIKEN ATOMIC CHARGES
-----------------------
   0 S :    0.129935
   1 C :   -0.121454
   2 C :   -0.106111
   3 C :    0.038596
   4 C :   -0.193489
   5 H :    0.020740
   6 C :    0.061700
   7 H :    0.027795
   8 H :    0.037296
   9 C :   -0.066228
  10 H :    0.023030
  11 H :    0.035942
  12 C :   -0.057502
  13 H :    0.037478
  14 H :    0.052511
  15 H :    0.037554
  16 S :    0.109928
  17 C :   -0.088757
  18 C :   -0.039133
  19 C :   -0.045963
  20 C :   -0.170276
  21 H :    0.027485
  22 C :    0.097903
  23 H :    0.013940
  24 H :    0.021943
  25 C :   -0.130109
  26 H :    0.031905
  27 H :    0.038529
  28 C :   -0.063868
  29 H :    0.043055
  30 H :    0.042657
  31 H :    0.047783
  32 H :    0.035313
  33 H :    0.069875
Sum of atomic charges:    0.0000000

LOEWDIN ATOMIC CHARGES
----------------------
   0 S :    0.402418
   1 C :   -0.195447
   2 C :   -0.068394
   3 C :   -0.057966
   4 C :   -0.203139
   5 H :    0.031283
   6 C :   -0.030080
   7 H :    0.032935
   8 H :    0.035360
   9 C :   -0.033959
  10 H :    0.020851
  11 H :    0.026948
  12 C :   -0.066575
  13 H :    0.024067
  14 H :    0.035558
  15 H :    0.025925
  16 S :    0.419602
  17 C :   -0.193727
  18 C :   -0.075372
  19 C :   -0.054151
  20 C :   -0.214340
  21 H :    0.034110
  22 C :   -0.036429
  23 H :    0.027267
  24 H :    0.035224
  25 C :   -0.047114
  26 H :    0.023601
  27 H :    0.028661
  28 C :   -0.075930
  29 H :    0.031227
  30 H :    0.023961
  31 H :    0.034697
  32 H :    0.024647
  33 H :    0.034283

  Mayer bond orders larger than 0.100000
B(  0-S ,  1-C ) :   1.1412 B(  0-S ,  4-C ) :   1.1390 B(  1-C ,  2-C ) :   1.6444
B(  1-C , 32-H ) :   0.9574 B(  2-C ,  3-C ) :   1.2432 B(  2-C ,  6-C ) :   0.9973
B(  3-C ,  4-C ) :   1.5913 B(  3-C ,  5-H ) :   0.9835 B(  4-C , 20-C ) :   1.0360
B(  6-C ,  7-H ) :   0.9402 B(  6-C ,  8-H ) :   0.9473 B(  6-C ,  9-C ) :   1.0563
B(  9-C , 10-H ) :   0.9586 B(  9-C , 11-H ) :   0.9587 B(  9-C , 12-C ) :   1.0716
B( 12-C , 13-H ) :   0.9779 B( 12-C , 14-H ) :   0.9749 B( 12-C , 15-H ) :   0.9776
B( 16-S , 17-C ) :   1.1729 B( 16-S , 20-C ) :   1.1470 B( 17-C , 18-C ) :   1.5928
B( 17-C , 33-H ) :   0.9596 B( 18-C , 19-C ) :   1.2622 B( 18-C , 21-H ) :   0.9812
B( 19-C , 20-C ) :   1.5700 B( 19-C , 22-C ) :   1.0751 B( 22-C , 23-H ) :   0.9171
B( 22-C , 24-H ) :   0.9312 B( 22-C , 25-C ) :   1.0457 B( 25-C , 26-H ) :   0.9579
B( 25-C , 27-H ) :   0.9579 B( 25-C , 28-C ) :   1.0689 B( 28-C , 29-H ) :   0.9738
B( 28-C , 30-H ) :   0.9770 B( 28-C , 31-H ) :   0.9749

Dispersion correction           -0.013920572
FINAL SINGLE POINT ENERGY     -1339.872655506653

DIPOLE MOMENT
-------------
                                X             Y             Z
Electronic contribution:     12.93646     -17.89211       0.19199
Nuclear contribution   :    -13.13670      18.20805      -0.18229
                        -----------------------------------------
Total Dipole Moment    :     -0.20025       0.31594       0.00970
                        -----------------------------------------
Magnitude (a.u.)       :      0.37418
Magnitude (Debye)      :      0.95109

Rotational constants in cm-1:     0.018722     0.007535     0.006519
Rotational constants in MHz :   561.278681   225.889794   195.429821

                             ****ORCA TERMINATED NORMALLY****
TOTAL RUN TIME: 0 days 0 hours 0 minutes 21 seconds 75 msec
