                         Program Version 4.2.1 -  RELEASE  -
|  1> ! wB97X-D3 SP def2-SVP
|  2> %pal
|  3> nprocs 24
|  4> end
|  5>
|  6> * xyz 0 1
|  7> S 	 -129.561 	 31.1553 	 -11.7168
|  8> C 	 -128.767 	 30.993 	 -13.2313
|  9> C 	 -129.675 	 30.9264 	 -14.325
| 10> C 	 -131.019 	 31.052 	 -13.9509
| 11> C 	 -131.132 	 31.1386 	 -12.5324
| 12> H 	 -131.915 	 31.0559 	 -14.5266
| 13> C 	 -129.265 	 30.7571 	 -15.7914
| 14> H 	 -128.149 	 30.7574 	 -15.8914
| 15> H 	 -129.533 	 31.6979 	 -16.3099
| 16> C 	 -129.964 	 29.5931 	 -16.6013
| 17> H 	 -131.046 	 29.6716 	 -16.6436
| 18> H 	 -129.54 	 29.6511 	 -17.6523
| 19> C 	 -129.54 	 28.2469 	 -16.0014
| 20> H 	 -128.53 	 28.2932 	 -15.8642
| 21> H 	 -129.874 	 28.1038 	 -15.0241
| 22> H 	 -130.02 	 27.4195 	 -16.6092
| 23> S 	 -132.72 	 32.5081 	 -10.829
| 24> C 	 -134.246 	 31.8439 	 -10.3517
| 25> C 	 -134.511 	 30.7134 	 -11.1015
| 26> C 	 -133.501 	 30.2674 	 -12.0183
| 27> C 	 -132.413 	 31.1164 	 -11.8454
| 28> H 	 -135.453 	 30.2111 	 -11.1203
| 29> C 	 -133.667 	 29.0246 	 -12.7678
| 30> H 	 -132.897 	 29.0762 	 -13.5232
| 31> H 	 -134.56 	 29.075 	 -13.2921
| 32> C 	 -133.642 	 27.7179 	 -11.8685
| 33> H 	 -134.356 	 27.7676 	 -11.0302
| 34> H 	 -132.655 	 27.6139 	 -11.2976
| 35> C 	 -133.717 	 26.4807 	 -12.6668
| 36> H 	 -133.408 	 25.5934 	 -12.0942
| 37> H 	 -132.993 	 26.6668 	 -13.4671
| 38> H 	 -134.723 	 26.2294 	 -13.1776
| 39> H 	 -127.703 	 30.8328 	 -13.3744
| 40> H 	 -134.953 	 32.3159 	 -9.66796
| 41> *
| 42>
| 43>                          ****END OF INPUT****

CARTESIAN COORDINATES (ANGSTROEM)
---------------------------------
  S    -129.561000   31.155300  -11.716800
  C    -128.767000   30.993000  -13.231300
  C    -129.675000   30.926400  -14.325000
  C    -131.019000   31.052000  -13.950900
  C    -131.132000   31.138600  -12.532400
  H    -131.915000   31.055900  -14.526600
  C    -129.265000   30.757100  -15.791400
  H    -128.149000   30.757400  -15.891400
  H    -129.533000   31.697900  -16.309900
  C    -129.964000   29.593100  -16.601300
  H    -131.046000   29.671600  -16.643600
  H    -129.540000   29.651100  -17.652300
  C    -129.540000   28.246900  -16.001400
  H    -128.530000   28.293200  -15.864200
  H    -129.874000   28.103800  -15.024100
  H    -130.020000   27.419500  -16.609200
  S    -132.720000   32.508100  -10.829000
  C    -134.246000   31.843900  -10.351700
  C    -134.511000   30.713400  -11.101500
  C    -133.501000   30.267400  -12.018300
  C    -132.413000   31.116400  -11.845400
  H    -135.453000   30.211100  -11.120300
  C    -133.667000   29.024600  -12.767800
  H    -132.897000   29.076200  -13.523200
  H    -134.560000   29.075000  -13.292100
  C    -133.642000   27.717900  -11.868500
  H    -134.356000   27.767600  -11.030200
  H    -132.655000   27.613900  -11.297600
  C    -133.717000   26.480700  -12.666800
  H    -133.408000   25.593400  -12.094200
  H    -132.993000   26.666800  -13.467100
  H    -134.723000   26.229400  -13.177600
  H    -127.703000   30.832800  -13.374400
  H    -134.953000   32.315900   -9.667960

 Total Charge           Charge          ....    0
 Multiplicity           Mult            ....    1
 Number of Electrons    NEL             ....  134
 Basis Dimension        Dim             ....  322

ORBITAL ENERGIES
----------------

  NO   OCC          E(Eh)            E(eV)
   0   2.0000     -88.973631     -2421.0956
   1   2.0000     -88.963892     -2420.8306
   2   2.0000     -10.329848      -281.0895
   3   2.0000     -10.323697      -280.9221
   4   2.0000     -10.314729      -280.6780
   5   2.0000     -10.314323      -280.6670
   6   2.0000     -10.304143      -280.3900
   7   2.0000     -10.298984      -280.2496
   8   2.0000     -10.298747      -280.2432
   9   2.0000     -10.294808      -280.1360
  10   2.0000     -10.294521      -280.1281
  11   2.0000     -10.294206      -280.1196
  12   2.0000     -10.289182      -279.9829
  13   2.0000     -10.287543      -279.9383
  14   2.0000     -10.282477      -279.8004
  15   2.0000     -10.266656      -279.3699
  16   2.0000      -8.087946      -220.0842
  17   2.0000      -8.079066      -219.8426
  18   2.0000      -6.046301      -164.5282
  19   2.0000      -6.042469      -164.4239
  20   2.0000      -6.038948      -164.3281
  21   2.0000      -6.037502      -164.2888
  22   2.0000      -6.033565      -164.1817
  23   2.0000      -6.029833      -164.0801
  24   2.0000      -1.005952       -27.3734
  25   2.0000      -0.982703       -26.7407
  26   2.0000      -0.915841       -24.9213
  27   2.0000      -0.905517       -24.6404
  28   2.0000      -0.866448       -23.5772
  29   2.0000      -0.859785       -23.3959
  30   2.0000      -0.851768       -23.1778
  31   2.0000      -0.807537       -21.9742
  32   2.0000      -0.783951       -21.3324
  33   2.0000      -0.768311       -20.9068
  34   2.0000      -0.704342       -19.1661
  35   2.0000      -0.697152       -18.9705
  36   2.0000      -0.692125       -18.8337
  37   2.0000      -0.663283       -18.0488
  38   2.0000      -0.641686       -17.4612
  39   2.0000      -0.618258       -16.8237
  40   2.0000      -0.599446       -16.3118
  41   2.0000      -0.562045       -15.2940
  42   2.0000      -0.558027       -15.1847
  43   2.0000      -0.550431       -14.9780
  44   2.0000      -0.536998       -14.6125
  45   2.0000      -0.536144       -14.5892
  46   2.0000      -0.521793       -14.1987
  47   2.0000      -0.514868       -14.0103
  48   2.0000      -0.503149       -13.6914
  49   2.0000      -0.492595       -13.4042
  50   2.0000      -0.490676       -13.3520
  51   2.0000      -0.488038       -13.2802
  52   2.0000      -0.464855       -12.6493
  53   2.0000      -0.461577       -12.5601
  54   2.0000      -0.455361       -12.3910
  55   2.0000      -0.450028       -12.2459
  56   2.0000      -0.445078       -12.1112
  57   2.0000      -0.439630       -11.9629
  58   2.0000      -0.436237       -11.8706
  59   2.0000      -0.430269       -11.7082
  60   2.0000      -0.423058       -11.5120
  61   2.0000      -0.414522       -11.2797
  62   2.0000      -0.410711       -11.1760
  63   2.0000      -0.342768        -9.3272
  64   2.0000      -0.331275        -9.0144
  65   2.0000      -0.328022        -8.9259
  66   2.0000      -0.287275        -7.8171
  67   0.0000       0.029751         0.8096
  68   0.0000       0.068560         1.8656
  69   0.0000       0.110150         2.9973
  70   0.0000       0.121008         3.2928
  71   0.0000       0.126567         3.4441

MULLIKEN ATOMIC CHARGES
-----------------------
   0 S :    0.139810
   1 C :   -0.117387
   2 C :   -0.083022
   3 C :    0.043343
   4 C :   -0.180233
   5 H :    0.013600
   6 C :    0.019243
   7 H :    0.024908
   8 H :    0.040610
   9 C :   -0.097424
  10 H :    0.034064
  11 H :    0.043645
  12 C :   -0.000489
  13 H :    0.004142
  14 H :    0.016288
  15 H :    0.044806
  16 S :    0.109444
  17 C :   -0.080928
  18 C :   -0.035037
  19 C :   -0.047952
  20 C :   -0.189342
  21 H :    0.000954
  22 C :    0.146335
  23 H :   -0.001173
  24 H :    0.008821
  25 C :   -0.093320
  26 H :    0.031267
  27 H :    0.041199
  28 C :   -0.055358
  29 H :    0.042015
  30 H :    0.028389
  31 H :    0.040104
  32 H :    0.047774
  33 H :    0.060904
Sum of atomic charges:    0.0000000

LOEWDIN ATOMIC CHARGES
----------------------
   0 S :    0.427271
   1 C :   -0.221851
   2 C :   -0.063858
   3 C :   -0.056181
   4 C :   -0.194089
   5 H :    0.029671
   6 C :   -0.040619
   7 H :    0.030772
   8 H :    0.035084
   9 C :   -0.038548
  10 H :    0.019084
  11 H :    0.033124
  12 C :   -0.060722
  13 H :    0.013410
  14 H :    0.017539
  15 H :    0.035527
  16 S :    0.412110
  17 C :   -0.197305
  18 C :   -0.065977
  19 C :   -0.055728
  20 C :   -0.198918
  21 H :    0.022107
  22 C :   -0.025907
  23 H :    0.028565
  24 H :    0.026130
  25 C :   -0.042237
  26 H :    0.022164
  27 H :    0.038563
  28 C :   -0.076541
  29 H :    0.029567
  30 H :    0.027756
  31 H :    0.029332
  32 H :    0.027955
  33 H :    0.032747

  Mayer bond orders larger than 0.100000
B(  0-S ,  1-C ) :   1.1528 B(  0-S ,  4-C ) :   1.1762 B(  1-C ,  2-C ) :   1.5685
B(  1-C ,  4-C ) :   0.1078 B(  1-C , 32-H ) :   0.9647 B(  2-C ,  3-C ) :   1.2672
B(  2-C ,  6-C ) :   1.0214 B(  3-C ,  4-C ) :   1.5246 B(  3-C ,  5-H ) :   0.9968
B(  4-C , 20-C ) :   1.0321 B(  6-C ,  7-H ) :   0.9460 B(  6-C ,  8-H ) :   0.9391
B(  6-C ,  9-C ) :   1.0661 B(  9-C , 10-H ) :   0.9574 B(  9-C , 11-H ) :   0.9556
B(  9-C , 12-C ) :   1.0720 B( 12-C , 13-H ) :   0.9715 B( 12-C , 14-H ) :   0.9704
B( 12-C , 15-H ) :   0.9731 B( 16-S , 17-C ) :   1.1380 B( 16-S , 20-C ) :   1.1662
B( 17-C , 18-C ) :   1.6001 B( 17-C , 33-H ) :   0.9702 B( 18-C , 19-C ) :   1.2391
B( 18-C , 21-H ) :   0.9859 B( 19-C , 20-C ) :   1.5755 B( 19-C , 22-C ) :   1.0705
B( 22-C , 23-H ) :   0.9126 B( 22-C , 24-H ) :   0.9109 B( 22-C , 25-C ) :   1.0512
B( 25-C , 26-H ) :   0.9556 B( 25-C , 27-H ) :   0.9520 B( 25-C , 28-C ) :   1.0859
B( 28-C , 29-H ) :   0.9730 B( 28-C , 30-H ) :   0.9704 B( 28-C , 31-H ) :   0.9714

Dispersion correction           -0.014712590
FINAL SINGLE POINT ENERGY     -1339.868312496653

DIPOLE MOMENT
-------------
                                X             Y             Z
Electronic contribution:      2.67685      23.12263      19.06628
Nuclear contribution   :     -2.91382     -23.53487     -19.49700
                        -----------------------------------------
Total Dipole Moment    :     -0.23696      -0.41225      -0.43072
                        -----------------------------------------
Magnitude (a.u.)       :      0.64158
Magnitude (Debye)      :      1.63076

Rotational constants in cm-1:     0.016629     0.010085     0.007244
Rotational constants in MHz :   498.512669   302.331629   217.179933

                             ****ORCA TERMINATED NORMALLY****
TOTAL RUN TIME: 0 days 0 hours 0 minutes 21 seconds 310 msec
