                         Program Version 4.2.1 -  RELEASE  -
|  1> ! wB97X-D3 SP def2-SVP
|  2> %pal
|  3> nprocs 24
|  4> end
|  5>
|  6> * xyz 0 1
|  7> S 	 24.859 	 -23.9869 	 -123.897
|  8> C 	 25.8024 	 -24.9129 	 -125.144
|  9> C 	 26.7743 	 -25.7854 	 -124.587
| 10> C 	 26.7631 	 -25.7009 	 -123.161
| 11> C 	 25.7586 	 -24.9004 	 -122.631
| 12> H 	 27.4275 	 -26.2651 	 -122.531
| 13> C 	 27.6034 	 -26.7124 	 -125.428
| 14> H 	 28.3297 	 -27.0601 	 -124.745
| 15> H 	 28.1377 	 -26.1982 	 -126.274
| 16> C 	 26.7616 	 -27.8743 	 -126.026
| 17> H 	 26.4235 	 -28.4191 	 -125.219
| 18> H 	 25.9952 	 -27.4456 	 -126.672
| 19> C 	 27.6656 	 -28.8279 	 -126.926
| 20> H 	 28.6077 	 -29.1608 	 -126.493
| 21> H 	 27.0776 	 -29.6852 	 -127.215
| 22> H 	 28.0914 	 -28.2608 	 -127.74
| 23> S 	 25.3809 	 -23.2908 	 -120.343
| 24> C 	 24.7971 	 -24.0805 	 -118.913
| 25> C 	 24.7293 	 -25.4879 	 -119.062
| 26> C 	 25.0932 	 -25.9331 	 -120.361
| 27> C 	 25.4218 	 -24.8578 	 -121.2
| 28> H 	 24.4887 	 -26.1228 	 -118.238
| 29> C 	 24.8771 	 -27.3324 	 -120.897
| 30> H 	 25.6813 	 -27.9683 	 -120.566
| 31> H 	 24.7276 	 -27.4286 	 -121.978
| 32> C 	 23.5537 	 -27.9955 	 -120.411
| 33> H 	 23.4836 	 -28.1892 	 -119.353
| 34> H 	 23.4612 	 -28.9695 	 -120.817
| 35> C 	 22.2797 	 -27.1395 	 -120.731
| 36> H 	 21.4094 	 -27.6726 	 -120.566
| 37> H 	 22.2645 	 -26.7793 	 -121.762
| 38> H 	 22.2345 	 -26.2434 	 -120.163
| 39> H 	 25.3652 	 -25.0389 	 -126.079
| 40> H 	 24.6216 	 -23.6962 	 -117.978
| 41> *
| 42>
| 43>                          ****END OF INPUT****

CARTESIAN COORDINATES (ANGSTROEM)
---------------------------------
  S     24.859000  -23.986900  -123.897000
  C     25.802400  -24.912900  -125.144000
  C     26.774300  -25.785400  -124.587000
  C     26.763100  -25.700900  -123.161000
  C     25.758600  -24.900400  -122.631000
  H     27.427500  -26.265100  -122.531000
  C     27.603400  -26.712400  -125.428000
  H     28.329700  -27.060100  -124.745000
  H     28.137700  -26.198200  -126.274000
  C     26.761600  -27.874300  -126.026000
  H     26.423500  -28.419100  -125.219000
  H     25.995200  -27.445600  -126.672000
  C     27.665600  -28.827900  -126.926000
  H     28.607700  -29.160800  -126.493000
  H     27.077600  -29.685200  -127.215000
  H     28.091400  -28.260800  -127.740000
  S     25.380900  -23.290800  -120.343000
  C     24.797100  -24.080500  -118.913000
  C     24.729300  -25.487900  -119.062000
  C     25.093200  -25.933100  -120.361000
  C     25.421800  -24.857800  -121.200000
  H     24.488700  -26.122800  -118.238000
  C     24.877100  -27.332400  -120.897000
  H     25.681300  -27.968300  -120.566000
  H     24.727600  -27.428600  -121.978000
  C     23.553700  -27.995500  -120.411000
  H     23.483600  -28.189200  -119.353000
  H     23.461200  -28.969500  -120.817000
  C     22.279700  -27.139500  -120.731000
  H     21.409400  -27.672600  -120.566000
  H     22.264500  -26.779300  -121.762000
  H     22.234500  -26.243400  -120.163000
  H     25.365200  -25.038900  -126.079000
  H     24.621600  -23.696200  -117.978000

 Total Charge           Charge          ....    0
 Multiplicity           Mult            ....    1
 Number of Electrons    NEL             ....  134
 Basis Dimension        Dim             ....  322

ORBITAL ENERGIES
----------------

  NO   OCC          E(Eh)            E(eV)
   0   2.0000     -88.970274     -2421.0042
   1   2.0000     -88.968668     -2420.9605
   2   2.0000     -10.334905      -281.2271
   3   2.0000     -10.329043      -281.0675
   4   2.0000     -10.314725      -280.6779
   5   2.0000     -10.314466      -280.6709
   6   2.0000     -10.306889      -280.4647
   7   2.0000     -10.305255      -280.4202
   8   2.0000     -10.297273      -280.2031
   9   2.0000     -10.295224      -280.1473
  10   2.0000     -10.294118      -280.1172
  11   2.0000     -10.292063      -280.0613
  12   2.0000     -10.290096      -280.0077
  13   2.0000     -10.281698      -279.7792
  14   2.0000     -10.280296      -279.7411
  15   2.0000     -10.262397      -279.2540
  16   2.0000      -8.084295      -219.9848
  17   2.0000      -8.081539      -219.9099
  18   2.0000      -6.042732      -164.4311
  19   2.0000      -6.040143      -164.3606
  20   2.0000      -6.038929      -164.3276
  21   2.0000      -6.036387      -164.2584
  22   2.0000      -6.035154      -164.2249
  23   2.0000      -6.032252      -164.1459
  24   2.0000      -0.996789       -27.1240
  25   2.0000      -0.973440       -26.4886
  26   2.0000      -0.909891       -24.7594
  27   2.0000      -0.905638       -24.6437
  28   2.0000      -0.861384       -23.4395
  29   2.0000      -0.848481       -23.0883
  30   2.0000      -0.842602       -22.9284
  31   2.0000      -0.810528       -22.0556
  32   2.0000      -0.785523       -21.3752
  33   2.0000      -0.770469       -20.9655
  34   2.0000      -0.712180       -19.3794
  35   2.0000      -0.705851       -19.2072
  36   2.0000      -0.698896       -19.0179
  37   2.0000      -0.656913       -17.8755
  38   2.0000      -0.641791       -17.4640
  39   2.0000      -0.618511       -16.8305
  40   2.0000      -0.598099       -16.2751
  41   2.0000      -0.573248       -15.5989
  42   2.0000      -0.560953       -15.2643
  43   2.0000      -0.556695       -15.1484
  44   2.0000      -0.538016       -14.6402
  45   2.0000      -0.528478       -14.3806
  46   2.0000      -0.516346       -14.0505
  47   2.0000      -0.513556       -13.9746
  48   2.0000      -0.502536       -13.6747
  49   2.0000      -0.489898       -13.3308
  50   2.0000      -0.485757       -13.2181
  51   2.0000      -0.469976       -12.7887
  52   2.0000      -0.468871       -12.7586
  53   2.0000      -0.462297       -12.5797
  54   2.0000      -0.459615       -12.5068
  55   2.0000      -0.451030       -12.2731
  56   2.0000      -0.446519       -12.1504
  57   2.0000      -0.438251       -11.9254
  58   2.0000      -0.432195       -11.7606
  59   2.0000      -0.429757       -11.6943
  60   2.0000      -0.422703       -11.5023
  61   2.0000      -0.420453       -11.4411
  62   2.0000      -0.416300       -11.3281
  63   2.0000      -0.338403        -9.2084
  64   2.0000      -0.334830        -9.1112
  65   2.0000      -0.330987        -9.0066
  66   2.0000      -0.287008        -7.8099
  67   0.0000       0.023522         0.6401
  68   0.0000       0.055906         1.5213
  69   0.0000       0.104226         2.8361
  70   0.0000       0.122155         3.3240
  71   0.0000       0.126417         3.4400

MULLIKEN ATOMIC CHARGES
-----------------------
   0 S :    0.094336
   1 C :   -0.108889
   2 C :   -0.103290
   3 C :    0.046500
   4 C :   -0.148724
   5 H :    0.010285
   6 C :    0.061945
   7 H :    0.007367
   8 H :    0.044854
   9 C :   -0.058339
  10 H :    0.022075
  11 H :    0.040650
  12 C :   -0.041287
  13 H :    0.019795
  14 H :    0.044333
  15 H :    0.020465
  16 S :    0.121880
  17 C :   -0.047666
  18 C :   -0.048483
  19 C :   -0.011356
  20 C :   -0.191552
  21 H :    0.012877
  22 C :    0.073690
  23 H :    0.031027
  24 H :    0.053944
  25 C :   -0.091125
  26 H :    0.016305
  27 H :    0.018050
  28 C :   -0.020474
  29 H :    0.017220
  30 H :    0.021673
  31 H :    0.027052
  32 H :    0.041840
  33 H :    0.023022
Sum of atomic charges:    0.0000000

LOEWDIN ATOMIC CHARGES
----------------------
   0 S :    0.359429
   1 C :   -0.172467
   2 C :   -0.052063
   3 C :   -0.056821
   4 C :   -0.174865
   5 H :    0.030563
   6 C :   -0.032078
   7 H :    0.022470
   8 H :    0.038455
   9 C :   -0.020072
  10 H :    0.014369
  11 H :    0.026601
  12 C :   -0.067837
  13 H :    0.024055
  14 H :    0.026358
  15 H :    0.023046
  16 S :    0.404828
  17 C :   -0.179013
  18 C :   -0.063350
  19 C :   -0.053408
  20 C :   -0.191589
  21 H :    0.027605
  22 C :   -0.028753
  23 H :    0.030561
  24 H :    0.038544
  25 C :   -0.036451
  26 H :    0.015762
  27 H :    0.018785
  28 C :   -0.058505
  29 H :    0.015066
  30 H :    0.025567
  31 H :    0.022479
  32 H :    0.009921
  33 H :    0.012807

  Mayer bond orders larger than 0.100000
B(  0-S ,  1-C ) :   1.1250 B(  0-S ,  4-C ) :   1.1404 B(  1-C ,  2-C ) :   1.6026
B(  1-C ,  4-C ) :   0.1022 B(  1-C , 32-H ) :   0.9699 B(  2-C ,  3-C ) :   1.2445
B(  2-C ,  6-C ) :   1.0234 B(  3-C ,  4-C ) :   1.5706 B(  3-C ,  5-H ) :   0.9925
B(  4-C , 20-C ) :   1.0478 B(  6-C ,  7-H ) :   0.9363 B(  6-C ,  8-H ) :   0.9424
B(  6-C ,  9-C ) :   1.0619 B(  9-C , 10-H ) :   0.9581 B(  9-C , 11-H ) :   0.9608
B(  9-C , 12-C ) :   1.0755 B( 12-C , 13-H ) :   0.9752 B( 12-C , 14-H ) :   0.9772
B( 12-C , 15-H ) :   0.9741 B( 16-S , 17-C ) :   1.1579 B( 16-S , 20-C ) :   1.1401
B( 17-C , 18-C ) :   1.5923 B( 17-C , 20-C ) :   0.1004 B( 17-C , 33-H ) :   0.9746
B( 18-C , 19-C ) :   1.2609 B( 18-C , 21-H ) :   0.9880 B( 19-C , 20-C ) :   1.5748
B( 19-C , 22-C ) :   1.0343 B( 22-C , 23-H ) :   0.9247 B( 22-C , 24-H ) :   0.9458
B( 22-C , 25-C ) :   1.0776 B( 25-C , 26-H ) :   0.9507 B( 25-C , 27-H ) :   0.9578
B( 25-C , 28-C ) :   1.0732 B( 28-C , 29-H ) :   0.9749 B( 28-C , 30-H ) :   0.9753
B( 28-C , 31-H ) :   0.9717

Dispersion correction           -0.014849872
FINAL SINGLE POINT ENERGY     -1339.861017710881

DIPOLE MOMENT
-------------
                                X             Y             Z
Electronic contribution:      0.15675      26.29045       9.43383
Nuclear contribution   :     -0.07159     -27.12813      -9.44615
                        -----------------------------------------
Total Dipole Moment    :      0.08515      -0.83768      -0.01232
                        -----------------------------------------
Magnitude (a.u.)       :      0.84209
Magnitude (Debye)      :      2.14042

Rotational constants in cm-1:     0.020580     0.008064     0.006726
Rotational constants in MHz :   616.972782   241.747368   201.652246

                             ****ORCA TERMINATED NORMALLY****
TOTAL RUN TIME: 0 days 0 hours 0 minutes 20 seconds 804 msec
