                         Program Version 4.2.1 -  RELEASE  -
|  1> ! wB97X-D3 SP def2-SVP
|  2> %pal
|  3> nprocs 24
|  4> end
|  5>
|  6> * xyz 0 1
|  7> S 	 -42.009 	 14.1142 	 22.0831
|  8> C 	 -43.6911 	 14.521 	 21.9866
|  9> C 	 -44.3092 	 13.6208 	 21.1634
| 10> C 	 -43.4413 	 12.6195 	 20.537
| 11> C 	 -42.1486 	 12.7202 	 21.0135
| 12> H 	 -43.6785 	 11.7179 	 19.849
| 13> C 	 -45.8197 	 13.8145 	 20.7601
| 14> H 	 -46.1692 	 14.8143 	 21.0837
| 15> H 	 -46.4391 	 13.0204 	 21.3181
| 16> C 	 -45.9627 	 13.5464 	 19.2174
| 17> H 	 -45.4029 	 14.1744 	 18.5927
| 18> H 	 -45.6776 	 12.5805 	 18.8835
| 19> C 	 -47.4907 	 13.6549 	 18.8209
| 20> H 	 -48.0876 	 12.8787 	 19.0924
| 21> H 	 -48.0262 	 14.5014 	 19.2482
| 22> H 	 -47.5581 	 13.7825 	 17.7315
| 23> S 	 -40.1914 	 10.9316 	 21.7361
| 24> C 	 -39.2335 	 10.177 	 20.49
| 25> C 	 -39.4601 	 10.8102 	 19.2302
| 26> C 	 -40.5714 	 11.7654 	 19.197
| 27> C 	 -41.0244 	 11.9659 	 20.4909
| 28> H 	 -38.8203 	 10.436 	 18.4767
| 29> C 	 -41.0154 	 12.4366 	 17.8722
| 30> H 	 -40.1807 	 13.0868 	 17.4635
| 31> H 	 -41.8183 	 13.1355 	 18.0534
| 32> C 	 -41.5639 	 11.4316 	 16.8193
| 33> H 	 -42.4978 	 10.9829 	 17.3141
| 34> H 	 -40.84 	 10.6528 	 16.5072
| 35> C 	 -41.9458 	 12.115 	 15.4808
| 36> H 	 -42.4723 	 13.0766 	 15.683
| 37> H 	 -42.7774 	 11.5039 	 14.9992
| 38> H 	 -41.0323 	 12.1996 	 14.8803
| 39> H 	 -44.2206 	 15.2489 	 22.6049
| 40> H 	 -38.549 	 9.28099 	 20.616
| 41> *
| 42>
| 43>                          ****END OF INPUT****

CARTESIAN COORDINATES (ANGSTROEM)
---------------------------------
  S    -42.009000   14.114200   22.083100
  C    -43.691100   14.521000   21.986600
  C    -44.309200   13.620800   21.163400
  C    -43.441300   12.619500   20.537000
  C    -42.148600   12.720200   21.013500
  H    -43.678500   11.717900   19.849000
  C    -45.819700   13.814500   20.760100
  H    -46.169200   14.814300   21.083700
  H    -46.439100   13.020400   21.318100
  C    -45.962700   13.546400   19.217400
  H    -45.402900   14.174400   18.592700
  H    -45.677600   12.580500   18.883500
  C    -47.490700   13.654900   18.820900
  H    -48.087600   12.878700   19.092400
  H    -48.026200   14.501400   19.248200
  H    -47.558100   13.782500   17.731500
  S    -40.191400   10.931600   21.736100
  C    -39.233500   10.177000   20.490000
  C    -39.460100   10.810200   19.230200
  C    -40.571400   11.765400   19.197000
  C    -41.024400   11.965900   20.490900
  H    -38.820300   10.436000   18.476700
  C    -41.015400   12.436600   17.872200
  H    -40.180700   13.086800   17.463500
  H    -41.818300   13.135500   18.053400
  C    -41.563900   11.431600   16.819300
  H    -42.497800   10.982900   17.314100
  H    -40.840000   10.652800   16.507200
  C    -41.945800   12.115000   15.480800
  H    -42.472300   13.076600   15.683000
  H    -42.777400   11.503900   14.999200
  H    -41.032300   12.199600   14.880300
  H    -44.220600   15.248900   22.604900
  H    -38.549000    9.280990   20.616000

 Total Charge           Charge          ....    0
 Multiplicity           Mult            ....    1
 Number of Electrons    NEL             ....  134
 Basis Dimension        Dim             ....  322

ORBITAL ENERGIES
----------------

  NO   OCC          E(Eh)            E(eV)
   0   2.0000     -88.966065     -2420.8897
   1   2.0000     -88.962058     -2420.7807
   2   2.0000     -10.333011      -281.1755
   3   2.0000     -10.328548      -281.0541
   4   2.0000     -10.327303      -281.0202
   5   2.0000     -10.317970      -280.7662
   6   2.0000     -10.312388      -280.6144
   7   2.0000     -10.306644      -280.4580
   8   2.0000     -10.304944      -280.4118
   9   2.0000     -10.304492      -280.3995
  10   2.0000     -10.303659      -280.3768
  11   2.0000     -10.299168      -280.2546
  12   2.0000     -10.298769      -280.2438
  13   2.0000     -10.289937      -280.0034
  14   2.0000     -10.286848      -279.9194
  15   2.0000     -10.270906      -279.4856
  16   2.0000      -8.079919      -219.8658
  17   2.0000      -8.076978      -219.7857
  18   2.0000      -6.038416      -164.3136
  19   2.0000      -6.035602      -164.2371
  20   2.0000      -6.034599      -164.2098
  21   2.0000      -6.031356      -164.1215
  22   2.0000      -6.030683      -164.1032
  23   2.0000      -6.027682      -164.0216
  24   2.0000      -1.000745       -27.2317
  25   2.0000      -0.975480       -26.5442
  26   2.0000      -0.904053       -24.6005
  27   2.0000      -0.899559       -24.4783
  28   2.0000      -0.869313       -23.6552
  29   2.0000      -0.847809       -23.0701
  30   2.0000      -0.837821       -22.7983
  31   2.0000      -0.808716       -22.0063
  32   2.0000      -0.779883       -21.2217
  33   2.0000      -0.767514       -20.8851
  34   2.0000      -0.714408       -19.4400
  35   2.0000      -0.694810       -18.9067
  36   2.0000      -0.687452       -18.7065
  37   2.0000      -0.655023       -17.8241
  38   2.0000      -0.638974       -17.3874
  39   2.0000      -0.610172       -16.6036
  40   2.0000      -0.590074       -16.0567
  41   2.0000      -0.570660       -15.5284
  42   2.0000      -0.560684       -15.2570
  43   2.0000      -0.556434       -15.1413
  44   2.0000      -0.523165       -14.2360
  45   2.0000      -0.521040       -14.1782
  46   2.0000      -0.512954       -13.9582
  47   2.0000      -0.510633       -13.8950
  48   2.0000      -0.503658       -13.7052
  49   2.0000      -0.496101       -13.4996
  50   2.0000      -0.489454       -13.3187
  51   2.0000      -0.479164       -13.0387
  52   2.0000      -0.467906       -12.7324
  53   2.0000      -0.462324       -12.5805
  54   2.0000      -0.457886       -12.4597
  55   2.0000      -0.448426       -12.2023
  56   2.0000      -0.441427       -12.0118
  57   2.0000      -0.437582       -11.9072
  58   2.0000      -0.429927       -11.6989
  59   2.0000      -0.427261       -11.6264
  60   2.0000      -0.424586       -11.5536
  61   2.0000      -0.420637       -11.4461
  62   2.0000      -0.400489       -10.8979
  63   2.0000      -0.341213        -9.2849
  64   2.0000      -0.332793        -9.0558
  65   2.0000      -0.323949        -8.8151
  66   2.0000      -0.298121        -8.1123
  67   0.0000       0.035659         0.9703
  68   0.0000       0.061435         1.6717
  69   0.0000       0.109641         2.9835
  70   0.0000       0.117220         3.1897
  71   0.0000       0.123583         3.3629

MULLIKEN ATOMIC CHARGES
-----------------------
   0 S :    0.103511
   1 C :   -0.121917
   2 C :   -0.091507
   3 C :   -0.012381
   4 C :   -0.139041
   5 H :    0.060124
   6 C :    0.038927
   7 H :    0.032199
   8 H :    0.051708
   9 C :   -0.054488
  10 H :    0.022488
  11 H :    0.020338
  12 C :   -0.038283
  13 H :    0.012822
  14 H :    0.018946
  15 H :    0.027361
  16 S :    0.104803
  17 C :   -0.129029
  18 C :   -0.041073
  19 C :    0.015893
  20 C :   -0.189682
  21 H :    0.008368
  22 C :    0.062046
  23 H :    0.049714
  24 H :    0.022135
  25 C :   -0.129093
  26 H :    0.041490
  27 H :    0.044677
  28 C :   -0.068934
  29 H :    0.032639
  30 H :    0.047102
  31 H :    0.051887
  32 H :    0.059424
  33 H :    0.086826
Sum of atomic charges:   -0.0000000

LOEWDIN ATOMIC CHARGES
----------------------
   0 S :    0.401159
   1 C :   -0.209923
   2 C :   -0.068091
   3 C :   -0.078282
   4 C :   -0.199159
   5 H :    0.051239
   6 C :   -0.027718
   7 H :    0.029348
   8 H :    0.039785
   9 C :   -0.028801
  10 H :    0.017602
  11 H :    0.019358
  12 C :   -0.061899
  13 H :    0.009128
  14 H :    0.023125
  15 H :    0.027480
  16 S :    0.382352
  17 C :   -0.197798
  18 C :   -0.070460
  19 C :   -0.043071
  20 C :   -0.179263
  21 H :    0.022351
  22 C :   -0.033515
  23 H :    0.040352
  24 H :    0.027575
  25 C :   -0.047824
  26 H :    0.030176
  27 H :    0.025805
  28 C :   -0.075006
  29 H :    0.025768
  30 H :    0.036495
  31 H :    0.029035
  32 H :    0.036805
  33 H :    0.045871

  Mayer bond orders larger than 0.100000
B(  0-S ,  1-C ) :   1.1242 B(  0-S ,  4-C ) :   1.1533 B(  1-C ,  2-C ) :   1.6431
B(  1-C , 32-H ) :   0.9683 B(  2-C ,  3-C ) :   1.2095 B(  2-C ,  6-C ) :   1.0065
B(  3-C ,  4-C ) :   1.5949 B(  3-C ,  5-H ) :   0.9772 B(  4-C , 20-C ) :   1.0162
B(  6-C ,  7-H ) :   0.9558 B(  6-C ,  8-H ) :   0.9419 B(  6-C ,  9-C ) :   1.0589
B(  9-C , 10-H ) :   0.9652 B(  9-C , 11-H ) :   0.9497 B(  9-C , 12-C ) :   1.0747
B( 12-C , 13-H ) :   0.9790 B( 12-C , 14-H ) :   0.9762 B( 12-C , 15-H ) :   0.9758
B( 16-S , 17-C ) :   1.1527 B( 16-S , 20-C ) :   1.1256 B( 17-C , 18-C ) :   1.6363
B( 17-C , 33-H ) :   0.9582 B( 18-C , 19-C ) :   1.1791 B( 18-C , 21-H ) :   0.9934
B( 19-C , 20-C ) :   1.6319 B( 19-C , 22-C ) :   1.0384 B( 22-C , 23-H ) :   0.9416
B( 22-C , 24-H ) :   0.9315 B( 22-C , 25-C ) :   1.0513 B( 25-C , 26-H ) :   0.9554
B( 25-C , 27-H ) :   0.9614 B( 25-C , 28-C ) :   1.0744 B( 28-C , 29-H ) :   0.9725
B( 28-C , 30-H ) :   0.9753 B( 28-C , 31-H ) :   0.9772

Dispersion correction           -0.014056706
FINAL SINGLE POINT ENERGY     -1339.857181071179

DIPOLE MOMENT
-------------
                                X             Y             Z
Electronic contribution:     20.34617      -1.67861      26.10077
Nuclear contribution   :    -20.70554       1.54472     -26.77923
                        -----------------------------------------
Total Dipole Moment    :     -0.35936      -0.13389      -0.67846
                        -----------------------------------------
Magnitude (a.u.)       :      0.77934
Magnitude (Debye)      :      1.98093

Rotational constants in cm-1:     0.015573     0.009571     0.006569
Rotational constants in MHz :   466.859418   286.928736   196.920357

                             ****ORCA TERMINATED NORMALLY****
TOTAL RUN TIME: 0 days 0 hours 0 minutes 20 seconds 216 msec
