                         Program Version 4.2.1 -  RELEASE  -
|  1> ! wB97X-D3 SP def2-SVP
|  2> %pal
|  3> nprocs 24
|  4> end
|  5>
|  6> * xyz 0 1
|  7> S 	 -146.411 	 7.14901 	 5.128
|  8> C 	 -146.16 	 6.62047 	 6.76009
|  9> C 	 -145.111 	 7.3292 	 7.35514
| 10> C 	 -144.363 	 8.08393 	 6.39879
| 11> C 	 -144.905 	 8.00999 	 5.12368
| 12> H 	 -143.417 	 8.64323 	 6.67017
| 13> C 	 -144.594 	 7.21828 	 8.72523
| 14> H 	 -145.367 	 7.33326 	 9.50359
| 15> H 	 -144.019 	 8.04691 	 8.95188
| 16> C 	 -143.665 	 6.00742 	 8.9849
| 17> H 	 -142.818 	 5.96938 	 8.34031
| 18> H 	 -143.24 	 6.31453 	 9.93398
| 19> C 	 -144.522 	 4.76558 	 9.23324
| 20> H 	 -145.23 	 5.03914 	 10.0151
| 21> H 	 -145.098 	 4.50897 	 8.35719
| 22> H 	 -143.941 	 3.87801 	 9.64929
| 23> S 	 -145.603 	 8.88404 	 2.60959
| 24> C 	 -144.551 	 9.9642 	 1.82263
| 25> C 	 -143.266 	 9.91754 	 2.39084
| 26> C 	 -143.201 	 9.10002 	 3.58484
| 27> C 	 -144.441 	 8.60208 	 3.9502
| 28> H 	 -142.47 	 10.4657 	 1.96041
| 29> C 	 -141.882 	 8.77339 	 4.28608
| 30> H 	 -141.333 	 8.1088 	 3.63308
| 31> H 	 -142.043 	 8.23749 	 5.15527
| 32> C 	 -140.982 	 10.0203 	 4.60882
| 33> H 	 -141.527 	 10.9783 	 4.71972
| 34> H 	 -140.407 	 10.2092 	 3.6586
| 35> C 	 -139.958 	 9.76924 	 5.7299
| 36> H 	 -139.448 	 10.6587 	 6.12256
| 37> H 	 -139.146 	 9.09602 	 5.54237
| 38> H 	 -140.431 	 9.29535 	 6.52257
| 39> H 	 -146.842 	 6.02224 	 7.26121
| 40> H 	 -144.868 	 10.4389 	 0.929084
| 41> *
| 42>
| 43>                          ****END OF INPUT****

CARTESIAN COORDINATES (ANGSTROEM)
---------------------------------
  S    -146.411000    7.149010    5.128000
  C    -146.160000    6.620470    6.760090
  C    -145.111000    7.329200    7.355140
  C    -144.363000    8.083930    6.398790
  C    -144.905000    8.009990    5.123680
  H    -143.417000    8.643230    6.670170
  C    -144.594000    7.218280    8.725230
  H    -145.367000    7.333260    9.503590
  H    -144.019000    8.046910    8.951880
  C    -143.665000    6.007420    8.984900
  H    -142.818000    5.969380    8.340310
  H    -143.240000    6.314530    9.933980
  C    -144.522000    4.765580    9.233240
  H    -145.230000    5.039140   10.015100
  H    -145.098000    4.508970    8.357190
  H    -143.941000    3.878010    9.649290
  S    -145.603000    8.884040    2.609590
  C    -144.551000    9.964200    1.822630
  C    -143.266000    9.917540    2.390840
  C    -143.201000    9.100020    3.584840
  C    -144.441000    8.602080    3.950200
  H    -142.470000   10.465700    1.960410
  C    -141.882000    8.773390    4.286080
  H    -141.333000    8.108800    3.633080
  H    -142.043000    8.237490    5.155270
  C    -140.982000   10.020300    4.608820
  H    -141.527000   10.978300    4.719720
  H    -140.407000   10.209200    3.658600
  C    -139.958000    9.769240    5.729900
  H    -139.448000   10.658700    6.122560
  H    -139.146000    9.096020    5.542370
  H    -140.431000    9.295350    6.522570
  H    -146.842000    6.022240    7.261210
  H    -144.868000   10.438900    0.929084

 Total Charge           Charge          ....    0
 Multiplicity           Mult            ....    1
 Number of Electrons    NEL             ....  134
 Basis Dimension        Dim             ....  322

ORBITAL ENERGIES
----------------

  NO   OCC          E(Eh)            E(eV)
   0   2.0000     -88.964510     -2420.8474
   1   2.0000     -88.961422     -2420.7634
   2   2.0000     -10.325376      -280.9678
   3   2.0000     -10.323692      -280.9219
   4   2.0000     -10.317377      -280.7501
   5   2.0000     -10.308074      -280.4970
   6   2.0000     -10.307020      -280.4683
   7   2.0000     -10.298255      -280.2298
   8   2.0000     -10.296417      -280.1797
   9   2.0000     -10.295982      -280.1679
  10   2.0000     -10.295788      -280.1626
  11   2.0000     -10.291171      -280.0370
  12   2.0000     -10.284652      -279.8596
  13   2.0000     -10.282919      -279.8125
  14   2.0000     -10.280324      -279.7418
  15   2.0000     -10.275325      -279.6058
  16   2.0000      -8.080075      -219.8700
  17   2.0000      -8.077002      -219.7864
  18   2.0000      -6.038599      -164.3186
  19   2.0000      -6.035449      -164.2329
  20   2.0000      -6.034569      -164.2090
  21   2.0000      -6.031512      -164.1258
  22   2.0000      -6.030683      -164.1032
  23   2.0000      -6.027666      -164.0211
  24   2.0000      -1.011288       -27.5185
  25   2.0000      -0.984080       -26.7782
  26   2.0000      -0.919487       -25.0205
  27   2.0000      -0.907685       -24.6994
  28   2.0000      -0.874240       -23.7893
  29   2.0000      -0.855633       -23.2829
  30   2.0000      -0.845042       -22.9948
  31   2.0000      -0.808470       -21.9996
  32   2.0000      -0.787930       -21.4407
  33   2.0000      -0.777660       -21.1612
  34   2.0000      -0.714739       -19.4490
  35   2.0000      -0.705520       -19.1982
  36   2.0000      -0.703456       -19.1420
  37   2.0000      -0.663509       -18.0550
  38   2.0000      -0.639865       -17.4116
  39   2.0000      -0.623531       -16.9671
  40   2.0000      -0.602826       -16.4037
  41   2.0000      -0.571852       -15.5609
  42   2.0000      -0.563500       -15.3336
  43   2.0000      -0.546656       -14.8753
  44   2.0000      -0.539500       -14.6805
  45   2.0000      -0.528356       -14.3773
  46   2.0000      -0.520151       -14.1540
  47   2.0000      -0.511984       -13.9318
  48   2.0000      -0.508753       -13.8439
  49   2.0000      -0.496829       -13.5194
  50   2.0000      -0.492417       -13.3993
  51   2.0000      -0.488420       -13.2906
  52   2.0000      -0.474446       -12.9103
  53   2.0000      -0.472170       -12.8484
  54   2.0000      -0.459737       -12.5101
  55   2.0000      -0.453338       -12.3360
  56   2.0000      -0.447197       -12.1689
  57   2.0000      -0.442090       -12.0299
  58   2.0000      -0.438878       -11.9425
  59   2.0000      -0.426833       -11.6147
  60   2.0000      -0.417011       -11.3475
  61   2.0000      -0.414109       -11.2685
  62   2.0000      -0.407536       -11.0896
  63   2.0000      -0.364615        -9.9217
  64   2.0000      -0.332655        -9.0520
  65   2.0000      -0.324023        -8.8171
  66   2.0000      -0.273139        -7.4325
  67   0.0000       0.015293         0.4161
  68   0.0000       0.076974         2.0946
  69   0.0000       0.098599         2.6830
  70   0.0000       0.110325         3.0021
  71   0.0000       0.130084         3.5398

MULLIKEN ATOMIC CHARGES
-----------------------
   0 S :    0.103438
   1 C :   -0.092690
   2 C :   -0.065175
   3 C :   -0.042357
   4 C :   -0.106026
   5 H :    0.036519
   6 C :    0.045901
   7 H :    0.023827
   8 H :   -0.009789
   9 C :   -0.031001
  10 H :    0.022700
  11 H :    0.015776
  12 C :   -0.046992
  13 H :    0.018698
  14 H :    0.036289
  15 H :    0.046390
  16 S :    0.087711
  17 C :   -0.072902
  18 C :   -0.019686
  19 C :   -0.067858
  20 C :   -0.117630
  21 H :    0.006766
  22 C :    0.117604
  23 H :    0.041408
  24 H :   -0.016633
  25 C :   -0.118463
  26 H :    0.046940
  27 H :    0.033826
  28 C :   -0.013946
  29 H :    0.035641
  30 H :    0.020939
  31 H :    0.002677
  32 H :    0.024527
  33 H :    0.053573
Sum of atomic charges:   -0.0000000

LOEWDIN ATOMIC CHARGES
----------------------
   0 S :    0.415669
   1 C :   -0.196228
   2 C :   -0.057037
   3 C :   -0.072805
   4 C :   -0.189680
   5 H :    0.040742
   6 C :   -0.034485
   7 H :    0.033382
   8 H :    0.020242
   9 C :   -0.028216
  10 H :    0.019283
  11 H :    0.023845
  12 C :   -0.067485
  13 H :    0.024603
  14 H :    0.021532
  15 H :    0.033021
  16 S :    0.395260
  17 C :   -0.183885
  18 C :   -0.068452
  19 C :   -0.047124
  20 C :   -0.184644
  21 H :    0.023836
  22 C :   -0.019509
  23 H :    0.038572
  24 H :    0.011190
  25 C :   -0.045168
  26 H :    0.029481
  27 H :    0.027554
  28 C :   -0.067026
  29 H :    0.032103
  30 H :    0.025063
  31 H :    0.012685
  32 H :    0.010927
  33 H :    0.022752

  Mayer bond orders larger than 0.100000
B(  0-S ,  1-C ) :   1.1348 B(  0-S ,  4-C ) :   1.1446 B(  1-C ,  2-C ) :   1.5817
B(  1-C , 32-H ) :   0.9771 B(  2-C ,  3-C ) :   1.2587 B(  2-C ,  6-C ) :   1.0525
B(  3-C ,  4-C ) :   1.5340 B(  3-C ,  5-H ) :   0.9780 B(  4-C , 20-C ) :   1.1456
B(  6-C ,  7-H ) :   0.9313 B(  6-C ,  8-H ) :   0.9272 B(  6-C ,  9-C ) :   1.0765
B(  9-C , 10-H ) :   0.9569 B(  9-C , 11-H ) :   0.9525 B(  9-C , 12-C ) :   1.0708
B( 12-C , 13-H ) :   0.9721 B( 12-C , 14-H ) :   0.9742 B( 12-C , 15-H ) :   0.9732
B( 16-S , 17-C ) :   1.1738 B( 16-S , 20-C ) :   1.1084 B( 17-C , 18-C ) :   1.5718
B( 17-C , 33-H ) :   0.9759 B( 18-C , 19-C ) :   1.2314 B( 18-C , 21-H ) :   1.0024
B( 19-C , 20-C ) :   1.5852 B( 19-C , 22-C ) :   1.0425 B( 22-C , 23-H ) :   0.9275
B( 22-C , 24-H ) :   0.9430 B( 22-C , 25-C ) :   1.0353 B( 25-C , 26-H ) :   0.9694
B( 25-C , 27-H ) :   0.9523 B( 25-C , 28-C ) :   1.0783 B( 28-C , 29-H ) :   0.9735
B( 28-C , 30-H ) :   0.9722 B( 28-C , 31-H ) :   0.9754

Dispersion correction           -0.014155891
FINAL SINGLE POINT ENERGY     -1339.862282415746

DIPOLE MOMENT
-------------
                                X             Y             Z
Electronic contribution:    -22.27893       2.63663     -20.76995
Nuclear contribution   :     22.93153      -2.49111      21.14975
                        -----------------------------------------
Total Dipole Moment    :      0.65260       0.14552       0.37979
                        -----------------------------------------
Magnitude (a.u.)       :      0.76896
Magnitude (Debye)      :      1.95455

Rotational constants in cm-1:     0.017707     0.009499     0.006439
Rotational constants in MHz :   530.854267   284.785529   193.034210

                             ****ORCA TERMINATED NORMALLY****
TOTAL RUN TIME: 0 days 0 hours 0 minutes 21 seconds 772 msec
