                         Program Version 4.2.1 -  RELEASE  -
|  1> ! wB97X-D3 SP def2-SVP
|  2> %pal
|  3> nprocs 24
|  4> end
|  5>
|  6> * xyz 0 1
|  7> S 	 -100.824 	 -5.98968 	 -108.482
|  8> C 	 -102.242 	 -6.02794 	 -107.505
|  9> C 	 -102.138 	 -5.20986 	 -106.421
| 10> C 	 -100.887 	 -4.47064 	 -106.378
| 11> C 	 -100.046 	 -4.72854 	 -107.483
| 12> H 	 -100.55 	 -3.76495 	 -105.577
| 13> C 	 -103.216 	 -5.02011 	 -105.412
| 14> H 	 -102.809 	 -5.34046 	 -104.5
| 15> H 	 -103.949 	 -5.77697 	 -105.671
| 16> C 	 -103.804 	 -3.5753 	 -105.406
| 17> H 	 -103.05 	 -2.88659 	 -105.014
| 18> H 	 -104.005 	 -3.17553 	 -106.448
| 19> C 	 -105.132 	 -3.54504 	 -104.571
| 20> H 	 -105.4 	 -2.5085 	 -104.372
| 21> H 	 -105.986 	 -3.96515 	 -105.054
| 22> H 	 -104.947 	 -3.97444 	 -103.59
| 23> S 	 -97.5532 	 -5.26565 	 -108.256
| 24> C 	 -96.271 	 -4.06424 	 -108.201
| 25> C 	 -96.7555 	 -2.85723 	 -107.64
| 26> C 	 -98.1435 	 -2.92747 	 -107.34
| 27> C 	 -98.7326 	 -4.14528 	 -107.695
| 28> H 	 -96.0799 	 -1.9718 	 -107.63
| 29> C 	 -98.8935 	 -1.69666 	 -106.854
| 30> H 	 -99.9047 	 -1.87439 	 -107.079
| 31> H 	 -98.5434 	 -0.92286 	 -107.566
| 32> C 	 -98.4325 	 -1.31636 	 -105.388
| 33> H 	 -97.3158 	 -1.22251 	 -105.286
| 34> H 	 -98.5593 	 -2.05246 	 -104.657
| 35> C 	 -99.1367 	 -0.0854481 	 -104.795
| 36> H 	 -99.0362 	 0.734381 	 -105.458
| 37> H 	 -98.696 	 0.25193 	 -103.862
| 38> H 	 -100.262 	 -0.154618 	 -104.686
| 39> H 	 -103.238 	 -6.49912 	 -107.707
| 40> H 	 -95.3876 	 -4.12083 	 -108.695
| 41> *
| 42>
| 43>                          ****END OF INPUT****

CARTESIAN COORDINATES (ANGSTROEM)
---------------------------------
  S    -100.824000   -5.989680  -108.482000
  C    -102.242000   -6.027940  -107.505000
  C    -102.138000   -5.209860  -106.421000
  C    -100.887000   -4.470640  -106.378000
  C    -100.046000   -4.728540  -107.483000
  H    -100.550000   -3.764950  -105.577000
  C    -103.216000   -5.020110  -105.412000
  H    -102.809000   -5.340460  -104.500000
  H    -103.949000   -5.776970  -105.671000
  C    -103.804000   -3.575300  -105.406000
  H    -103.050000   -2.886590  -105.014000
  H    -104.005000   -3.175530  -106.448000
  C    -105.132000   -3.545040  -104.571000
  H    -105.400000   -2.508500  -104.372000
  H    -105.986000   -3.965150  -105.054000
  H    -104.947000   -3.974440  -103.590000
  S    -97.553200   -5.265650  -108.256000
  C    -96.271000   -4.064240  -108.201000
  C    -96.755500   -2.857230  -107.640000
  C    -98.143500   -2.927470  -107.340000
  C    -98.732600   -4.145280  -107.695000
  H    -96.079900   -1.971800  -107.630000
  C    -98.893500   -1.696660  -106.854000
  H    -99.904700   -1.874390  -107.079000
  H    -98.543400   -0.922860  -107.566000
  C    -98.432500   -1.316360  -105.388000
  H    -97.315800   -1.222510  -105.286000
  H    -98.559300   -2.052460  -104.657000
  C    -99.136700   -0.085448  -104.795000
  H    -99.036200    0.734381  -105.458000
  H    -98.696000    0.251930  -103.862000
  H    -100.262000   -0.154618  -104.686000
  H    -103.238000   -6.499120  -107.707000
  H    -95.387600   -4.120830  -108.695000

 Total Charge           Charge          ....    0
 Multiplicity           Mult            ....    1
 Number of Electrons    NEL             ....  134
 Basis Dimension        Dim             ....  322

ORBITAL ENERGIES
----------------

  NO   OCC          E(Eh)            E(eV)
   0   2.0000     -88.967962     -2420.9413
   1   2.0000     -88.964660     -2420.8515
   2   2.0000     -10.336077      -281.2589
   3   2.0000     -10.326789      -281.0062
   4   2.0000     -10.313302      -280.6392
   5   2.0000     -10.312967      -280.6301
   6   2.0000     -10.304606      -280.4026
   7   2.0000     -10.300777      -280.2984
   8   2.0000     -10.300738      -280.2973
   9   2.0000     -10.297879      -280.2195
  10   2.0000     -10.296175      -280.1732
  11   2.0000     -10.295671      -280.1595
  12   2.0000     -10.293059      -280.0884
  13   2.0000     -10.286801      -279.9181
  14   2.0000     -10.278993      -279.7056
  15   2.0000     -10.278879      -279.7025
  16   2.0000      -8.082226      -219.9286
  17   2.0000      -8.079833      -219.8634
  18   2.0000      -6.040937      -164.3823
  19   2.0000      -6.038350      -164.3119
  20   2.0000      -6.036747      -164.2682
  21   2.0000      -6.034116      -164.1966
  22   2.0000      -6.032834      -164.1618
  23   2.0000      -6.030729      -164.1045
  24   2.0000      -1.006147       -27.3786
  25   2.0000      -0.983364       -26.7587
  26   2.0000      -0.910245       -24.7690
  27   2.0000      -0.904966       -24.6254
  28   2.0000      -0.870388       -23.6845
  29   2.0000      -0.853238       -23.2178
  30   2.0000      -0.844008       -22.9666
  31   2.0000      -0.814399       -22.1609
  32   2.0000      -0.779437       -21.2096
  33   2.0000      -0.770572       -20.9683
  34   2.0000      -0.713763       -19.4225
  35   2.0000      -0.708966       -19.2920
  36   2.0000      -0.698445       -19.0057
  37   2.0000      -0.666735       -18.1428
  38   2.0000      -0.633000       -17.2248
  39   2.0000      -0.615854       -16.7582
  40   2.0000      -0.590296       -16.0628
  41   2.0000      -0.570894       -15.5348
  42   2.0000      -0.558310       -15.1924
  43   2.0000      -0.552637       -15.0380
  44   2.0000      -0.532969       -14.5028
  45   2.0000      -0.525021       -14.2866
  46   2.0000      -0.516468       -14.0538
  47   2.0000      -0.514631       -14.0038
  48   2.0000      -0.510798       -13.8995
  49   2.0000      -0.497974       -13.5506
  50   2.0000      -0.490052       -13.3350
  51   2.0000      -0.482668       -13.1341
  52   2.0000      -0.471858       -12.8399
  53   2.0000      -0.467847       -12.7308
  54   2.0000      -0.457906       -12.4603
  55   2.0000      -0.448290       -12.1986
  56   2.0000      -0.445160       -12.1134
  57   2.0000      -0.440798       -11.9947
  58   2.0000      -0.438015       -11.9190
  59   2.0000      -0.429160       -11.6780
  60   2.0000      -0.422115       -11.4863
  61   2.0000      -0.415046       -11.2940
  62   2.0000      -0.411601       -11.2002
  63   2.0000      -0.355198        -9.6654
  64   2.0000      -0.331109        -9.0099
  65   2.0000      -0.325985        -8.8705
  66   2.0000      -0.285227        -7.7614
  67   0.0000       0.021998         0.5986
  68   0.0000       0.079057         2.1512
  69   0.0000       0.108717         2.9583
  70   0.0000       0.120226         3.2715
  71   0.0000       0.126541         3.4434

MULLIKEN ATOMIC CHARGES
-----------------------
   0 S :    0.112971
   1 C :   -0.119998
   2 C :   -0.130847
   3 C :   -0.003047
   4 C :   -0.139500
   5 H :    0.032819
   6 C :    0.122660
   7 H :    0.022181
   8 H :    0.001378
   9 C :   -0.108806
  10 H :    0.033162
  11 H :    0.044776
  12 C :   -0.028943
  13 H :    0.024672
  14 H :    0.037477
  15 H :    0.028866
  16 S :    0.100068
  17 C :   -0.060384
  18 C :   -0.058189
  19 C :   -0.066585
  20 C :   -0.133145
  21 H :    0.039291
  22 C :    0.090809
  23 H :    0.018514
  24 H :    0.035982
  25 C :   -0.074339
  26 H :    0.031722
  27 H :    0.015168
  28 C :   -0.034276
  29 H :    0.010323
  30 H :    0.032136
  31 H :    0.035103
  32 H :    0.063610
  33 H :    0.024370
Sum of atomic charges:    0.0000000

LOEWDIN ATOMIC CHARGES
----------------------
   0 S :    0.398293
   1 C :   -0.218979
   2 C :   -0.067707
   3 C :   -0.066980
   4 C :   -0.187827
   5 H :    0.038099
   6 C :   -0.028732
   7 H :    0.027163
   8 H :    0.027162
   9 C :   -0.037813
  10 H :    0.022942
  11 H :    0.032244
  12 C :   -0.063631
  13 H :    0.025681
  14 H :    0.022849
  15 H :    0.025123
  16 S :    0.420163
  17 C :   -0.172606
  18 C :   -0.068978
  19 C :   -0.060861
  20 C :   -0.207017
  21 H :    0.039893
  22 C :   -0.022792
  23 H :    0.022698
  24 H :    0.038853
  25 C :   -0.041297
  26 H :    0.034219
  27 H :    0.015309
  28 C :   -0.069580
  29 H :    0.015492
  30 H :    0.026197
  31 H :    0.030722
  32 H :    0.044600
  33 H :    0.007100

  Mayer bond orders larger than 0.100000
B(  0-S ,  1-C ) :   1.1223 B(  0-S ,  4-C ) :   1.1399 B(  1-C ,  2-C ) :   1.6451
B(  1-C , 32-H ) :   0.9508 B(  2-C ,  3-C ) :   1.2235 B(  2-C ,  6-C ) :   1.0331
B(  3-C ,  4-C ) :   1.5629 B(  3-C ,  5-H ) :   0.9839 B(  4-C , 20-C ) :   1.0618
B(  6-C ,  7-H ) :   0.9254 B(  6-C ,  8-H ) :   0.9392 B(  6-C ,  9-C ) :   1.0461
B(  9-C , 10-H ) :   0.9551 B(  9-C , 11-H ) :   0.9616 B(  9-C , 12-C ) :   1.0804
B( 12-C , 13-H ) :   0.9747 B( 12-C , 14-H ) :   0.9785 B( 12-C , 15-H ) :   0.9738
B( 16-S , 17-C ) :   1.1650 B( 16-S , 20-C ) :   1.1512 B( 17-C , 18-C ) :   1.5860
B( 17-C , 20-C ) :   0.1071 B( 17-C , 33-H ) :   0.9789 B( 18-C , 19-C ) :   1.2615
B( 18-C , 21-H ) :   0.9814 B( 19-C , 20-C ) :   1.5689 B( 19-C , 22-C ) :   1.0311
B( 22-C , 23-H ) :   0.9454 B( 22-C , 24-H ) :   0.9366 B( 22-C , 25-C ) :   1.0341
B( 25-C , 26-H ) :   0.9536 B( 25-C , 27-H ) :   0.9584 B( 25-C , 28-C ) :   1.0840
B( 28-C , 29-H ) :   0.9734 B( 28-C , 30-H ) :   0.9734 B( 28-C , 31-H ) :   0.9742

Dispersion correction           -0.013962002
FINAL SINGLE POINT ENERGY     -1339.868938838721

DIPOLE MOMENT
-------------
                                X             Y             Z
Electronic contribution:     15.62446     -21.22911     -20.12859
Nuclear contribution   :    -15.87477      21.82292      20.54879
                        -----------------------------------------
Total Dipole Moment    :     -0.25031       0.59380       0.42020
                        -----------------------------------------
Magnitude (a.u.)       :      0.76930
Magnitude (Debye)      :      1.95541

Rotational constants in cm-1:     0.016697     0.009428     0.006239
Rotational constants in MHz :   500.574178   282.648011   187.026729

                             ****ORCA TERMINATED NORMALLY****
TOTAL RUN TIME: 0 days 0 hours 0 minutes 21 seconds 499 msec
