                         Program Version 4.2.1 -  RELEASE  -
|  1> ! wB97X-D3 SP def2-SVP
|  2> %pal
|  3> nprocs 24
|  4> end
|  5>
|  6> * xyz 0 1
|  7> S 	 -96.3265 	 9.40451 	 1.19913
|  8> C 	 -97.2905 	 8.83384 	 -0.171478
|  9> C 	 -98.1504 	 7.82468 	 0.146074
| 10> C 	 -98.0556 	 7.54115 	 1.52251
| 11> C 	 -96.9924 	 8.1746 	 2.18726
| 12> H 	 -98.6843 	 6.78338 	 1.9612
| 13> C 	 -99.0405 	 7.10889 	 -0.870813
| 14> H 	 -99.5509 	 7.90522 	 -1.38554
| 15> H 	 -99.7822 	 6.53445 	 -0.337991
| 16> C 	 -98.4434 	 6.24136 	 -1.95778
| 17> H 	 -97.8961 	 6.85084 	 -2.67615
| 18> H 	 -97.6381 	 5.54261 	 -1.67746
| 19> C 	 -99.5073 	 5.51685 	 -2.80444
| 20> H 	 -99.7064 	 5.99673 	 -3.77253
| 21> H 	 -99.2291 	 4.47492 	 -2.96452
| 22> H 	 -100.456 	 5.40975 	 -2.31774
| 23> S 	 -96.2579 	 9.24398 	 4.6727
| 24> C 	 -95.3049 	 8.31138 	 5.75106
| 25> C 	 -95.3568 	 6.95261 	 5.35911
| 26> C 	 -95.9809 	 6.73403 	 4.08347
| 27> C 	 -96.4102 	 7.92387 	 3.47368
| 28> H 	 -94.798 	 6.21805 	 5.98737
| 29> C 	 -95.9431 	 5.37929 	 3.41406
| 30> H 	 -94.9359 	 4.95949 	 3.50829
| 31> H 	 -96.1009 	 5.47936 	 2.30086
| 32> C 	 -97.0241 	 4.42676 	 4.06517
| 33> H 	 -97.392 	 3.7961 	 3.25625
| 34> H 	 -97.8902 	 4.9468 	 4.40901
| 35> C 	 -96.4032 	 3.58901 	 5.23542
| 36> H 	 -95.3397 	 3.33717 	 5.23165
| 37> H 	 -96.9173 	 2.68018 	 5.23388
| 38> H 	 -96.6156 	 4.00173 	 6.27185
| 39> H 	 -97.1474 	 9.2555 	 -1.15155
| 40> H 	 -94.9728 	 8.68816 	 6.71612
| 41> *
| 42>
| 43>                          ****END OF INPUT****

CARTESIAN COORDINATES (ANGSTROEM)
---------------------------------
  S    -96.326500    9.404510    1.199130
  C    -97.290500    8.833840   -0.171478
  C    -98.150400    7.824680    0.146074
  C    -98.055600    7.541150    1.522510
  C    -96.992400    8.174600    2.187260
  H    -98.684300    6.783380    1.961200
  C    -99.040500    7.108890   -0.870813
  H    -99.550900    7.905220   -1.385540
  H    -99.782200    6.534450   -0.337991
  C    -98.443400    6.241360   -1.957780
  H    -97.896100    6.850840   -2.676150
  H    -97.638100    5.542610   -1.677460
  C    -99.507300    5.516850   -2.804440
  H    -99.706400    5.996730   -3.772530
  H    -99.229100    4.474920   -2.964520
  H    -100.456000    5.409750   -2.317740
  S    -96.257900    9.243980    4.672700
  C    -95.304900    8.311380    5.751060
  C    -95.356800    6.952610    5.359110
  C    -95.980900    6.734030    4.083470
  C    -96.410200    7.923870    3.473680
  H    -94.798000    6.218050    5.987370
  C    -95.943100    5.379290    3.414060
  H    -94.935900    4.959490    3.508290
  H    -96.100900    5.479360    2.300860
  C    -97.024100    4.426760    4.065170
  H    -97.392000    3.796100    3.256250
  H    -97.890200    4.946800    4.409010
  C    -96.403200    3.589010    5.235420
  H    -95.339700    3.337170    5.231650
  H    -96.917300    2.680180    5.233880
  H    -96.615600    4.001730    6.271850
  H    -97.147400    9.255500   -1.151550
  H    -94.972800    8.688160    6.716120

 Total Charge           Charge          ....    0
 Multiplicity           Mult            ....    1
 Number of Electrons    NEL             ....  134
 Basis Dimension        Dim             ....  322

ORBITAL ENERGIES
----------------

  NO   OCC          E(Eh)            E(eV)
   0   2.0000     -88.965411     -2420.8719
   1   2.0000     -88.960808     -2420.7466
   2   2.0000     -10.326870      -281.0084
   3   2.0000     -10.326342      -280.9941
   4   2.0000     -10.318837      -280.7898
   5   2.0000     -10.310048      -280.5507
   6   2.0000     -10.305266      -280.4205
   7   2.0000     -10.298605      -280.2393
   8   2.0000     -10.298322      -280.2316
   9   2.0000     -10.294039      -280.1150
  10   2.0000     -10.293765      -280.1076
  11   2.0000     -10.293602      -280.1032
  12   2.0000     -10.290143      -280.0090
  13   2.0000     -10.288712      -279.9701
  14   2.0000     -10.278930      -279.7039
  15   2.0000     -10.278635      -279.6959
  16   2.0000      -8.080668      -219.8861
  17   2.0000      -8.075742      -219.7521
  18   2.0000      -6.039032      -164.3304
  19   2.0000      -6.035096      -164.2233
  20   2.0000      -6.034183      -164.1985
  21   2.0000      -6.031547      -164.1267
  22   2.0000      -6.030106      -164.0875
  23   2.0000      -6.026684      -163.9944
  24   2.0000      -1.006842       -27.3976
  25   2.0000      -0.982004       -26.7217
  26   2.0000      -0.915237       -24.9049
  27   2.0000      -0.901263       -24.5246
  28   2.0000      -0.871066       -23.7029
  29   2.0000      -0.849549       -23.1174
  30   2.0000      -0.839599       -22.8467
  31   2.0000      -0.808613       -22.0035
  32   2.0000      -0.784780       -21.3550
  33   2.0000      -0.771712       -20.9993
  34   2.0000      -0.708365       -19.2756
  35   2.0000      -0.707712       -19.2578
  36   2.0000      -0.695695       -18.9308
  37   2.0000      -0.656808       -17.8727
  38   2.0000      -0.639112       -17.3911
  39   2.0000      -0.621660       -16.9162
  40   2.0000      -0.594048       -16.1649
  41   2.0000      -0.570895       -15.5348
  42   2.0000      -0.560955       -15.2644
  43   2.0000      -0.541127       -14.7248
  44   2.0000      -0.532515       -14.4905
  45   2.0000      -0.525816       -14.3082
  46   2.0000      -0.516935       -14.0665
  47   2.0000      -0.510162       -13.8822
  48   2.0000      -0.504030       -13.7154
  49   2.0000      -0.499046       -13.5797
  50   2.0000      -0.493367       -13.4252
  51   2.0000      -0.475776       -12.9465
  52   2.0000      -0.470132       -12.7929
  53   2.0000      -0.466209       -12.6862
  54   2.0000      -0.465801       -12.6751
  55   2.0000      -0.451099       -12.2750
  56   2.0000      -0.444005       -12.0820
  57   2.0000      -0.441294       -12.0082
  58   2.0000      -0.432246       -11.7620
  59   2.0000      -0.426010       -11.5923
  60   2.0000      -0.420278       -11.4363
  61   2.0000      -0.414442       -11.2775
  62   2.0000      -0.405938       -11.0461
  63   2.0000      -0.340684        -9.2705
  64   2.0000      -0.333668        -9.0796
  65   2.0000      -0.324380        -8.8268
  66   2.0000      -0.288834        -7.8596
  67   0.0000       0.026136         0.7112
  68   0.0000       0.067799         1.8449
  69   0.0000       0.114570         3.1176
  70   0.0000       0.119554         3.2532
  71   0.0000       0.133601         3.6355

MULLIKEN ATOMIC CHARGES
-----------------------
   0 S :    0.122556
   1 C :   -0.134300
   2 C :   -0.085198
   3 C :    0.047900
   4 C :   -0.173825
   5 H :   -0.002366
   6 C :    0.098439
   7 H :    0.030203
   8 H :    0.012463
   9 C :   -0.063536
  10 H :    0.017468
  11 H :    0.032997
  12 C :   -0.057504
  13 H :    0.041226
  14 H :    0.031630
  15 H :    0.019577
  16 S :    0.098782
  17 C :   -0.097422
  18 C :   -0.065027
  19 C :    0.002429
  20 C :   -0.158275
  21 H :    0.037495
  22 C :    0.010540
  23 H :    0.038125
  24 H :    0.041948
  25 C :   -0.051265
  26 H :    0.029509
  27 H :    0.035019
  28 C :   -0.061067
  29 H :    0.034815
  30 H :    0.019543
  31 H :    0.040747
  32 H :    0.039594
  33 H :    0.066779
Sum of atomic charges:    0.0000000

LOEWDIN ATOMIC CHARGES
----------------------
   0 S :    0.423771
   1 C :   -0.184677
   2 C :   -0.066042
   3 C :   -0.058778
   4 C :   -0.208078
   5 H :    0.026290
   6 C :   -0.026404
   7 H :    0.036037
   8 H :    0.025733
   9 C :   -0.046152
  10 H :    0.023749
  11 H :    0.026674
  12 C :   -0.066991
  13 H :    0.029137
  14 H :    0.030106
  15 H :    0.020598
  16 S :    0.399041
  17 C :   -0.196392
  18 C :   -0.081538
  19 C :   -0.050221
  20 C :   -0.199466
  21 H :    0.037141
  22 C :   -0.033201
  23 H :    0.030385
  24 H :    0.034931
  25 C :   -0.030778
  26 H :    0.023981
  27 H :    0.024107
  28 C :   -0.073173
  29 H :    0.024724
  30 H :    0.019250
  31 H :    0.033443
  32 H :    0.021094
  33 H :    0.031697

  Mayer bond orders larger than 0.100000
B(  0-S ,  1-C ) :   1.1463 B(  0-S ,  4-C ) :   1.1753 B(  1-C ,  2-C ) :   1.5977
B(  1-C ,  4-C ) :   0.1037 B(  1-C , 32-H ) :   0.9738 B(  2-C ,  3-C ) :   1.2760
B(  2-C ,  6-C ) :   1.0090 B(  3-C ,  4-C ) :   1.5211 B(  3-C ,  5-H ) :   1.0013
B(  4-C , 20-C ) :   1.0580 B(  6-C ,  7-H ) :   0.9346 B(  6-C ,  8-H ) :   0.9422
B(  6-C ,  9-C ) :   1.0678 B(  9-C , 10-H ) :   0.9540 B(  9-C , 11-H ) :   0.9637
B(  9-C , 12-C ) :   1.0649 B( 12-C , 13-H ) :   0.9795 B( 12-C , 14-H ) :   0.9765
B( 12-C , 15-H ) :   0.9780 B( 16-S , 17-C ) :   1.1733 B( 16-S , 20-C ) :   1.1389
B( 17-C , 18-C ) :   1.5777 B( 17-C , 20-C ) :   0.1074 B( 17-C , 33-H ) :   0.9672
B( 18-C , 19-C ) :   1.2515 B( 18-C , 21-H ) :   0.9817 B( 19-C , 20-C ) :   1.5658
B( 19-C , 22-C ) :   1.0481 B( 22-C , 23-H ) :   0.9520 B( 22-C , 24-H ) :   0.9408
B( 22-C , 25-C ) :   1.0418 B( 25-C , 26-H ) :   0.9653 B( 25-C , 27-H ) :   0.9600
B( 25-C , 28-C ) :   1.0592 B( 28-C , 29-H ) :   0.9805 B( 28-C , 30-H ) :   0.9741
B( 28-C , 31-H ) :   0.9764

Dispersion correction           -0.014001693
FINAL SINGLE POINT ENERGY     -1339.872666416521

DIPOLE MOMENT
-------------
                                X             Y             Z
Electronic contribution:      9.24077      26.77858      11.42953
Nuclear contribution   :     -9.43463     -27.51348     -11.69147
                        -----------------------------------------
Total Dipole Moment    :     -0.19386      -0.73490      -0.26194
                        -----------------------------------------
Magnitude (a.u.)       :      0.80391
Magnitude (Debye)      :      2.04337

Rotational constants in cm-1:     0.019180     0.008177     0.006026
Rotational constants in MHz :   575.008574   245.140769   180.646290

                             ****ORCA TERMINATED NORMALLY****
TOTAL RUN TIME: 0 days 0 hours 0 minutes 21 seconds 209 msec
