                         Program Version 4.2.1 -  RELEASE  -
|  1> ! wB97X-D3 SP def2-SVP
|  2> %pal
|  3> nprocs 24
|  4> end
|  5>
|  6> * xyz 0 1
|  7> S 	 -52.751 	 16.1344 	 23.3522
|  8> C 	 -51.786 	 14.7103 	 23.2733
|  9> C 	 -51.1219 	 14.5261 	 24.4818
| 10> C 	 -51.4506 	 15.5264 	 25.4764
| 11> C 	 -52.3915 	 16.4463 	 25.0484
| 12> H 	 -51.0355 	 15.5463 	 26.5033
| 13> C 	 -49.9451 	 13.5449 	 24.6524
| 14> H 	 -49.45 	 13.2312 	 23.7041
| 15> H 	 -50.3992 	 12.6442 	 25.0233
| 16> C 	 -48.8235 	 13.9281 	 25.6432
| 17> H 	 -49.3433 	 14.1836 	 26.5353
| 18> H 	 -48.1199 	 13.1351 	 25.7332
| 19> C 	 -47.7645 	 14.9922 	 25.0695
| 20> H 	 -47.0444 	 15.308 	 25.8139
| 21> H 	 -47.2202 	 14.5656 	 24.2184
| 22> H 	 -48.339 	 15.9008 	 24.6577
| 23> S 	 -53.538 	 18.9649 	 25.0602
| 24> C 	 -54.1707 	 19.6504 	 26.5285
| 25> C 	 -54.0972 	 18.7317 	 27.5617
| 26> C 	 -53.4256 	 17.519 	 27.1593
| 27> C 	 -53.0346 	 17.5162 	 25.8355
| 28> H 	 -54.6071 	 18.984 	 28.4761
| 29> C 	 -53.4131 	 16.2385 	 28.0644
| 30> H 	 -52.4988 	 15.8103 	 28.1118
| 31> H 	 -54.0207 	 15.4053 	 27.6203
| 32> C 	 -53.8041 	 16.5238 	 29.505
| 33> H 	 -54.6502 	 17.1961 	 29.6363
| 34> H 	 -52.9299 	 17.0409 	 29.9317
| 35> C 	 -53.884 	 15.1548 	 30.2434
| 36> H 	 -53.0573 	 14.4448 	 30.0024
| 37> H 	 -54.8336 	 14.7068 	 29.9208
| 38> H 	 -53.9956 	 15.1842 	 31.2799
| 39> H 	 -51.686 	 13.981 	 22.5501
| 40> H 	 -54.7288 	 20.5501 	 26.6171
| 41> *
| 42>
| 43>                          ****END OF INPUT****

CARTESIAN COORDINATES (ANGSTROEM)
---------------------------------
  S    -52.751000   16.134400   23.352200
  C    -51.786000   14.710300   23.273300
  C    -51.121900   14.526100   24.481800
  C    -51.450600   15.526400   25.476400
  C    -52.391500   16.446300   25.048400
  H    -51.035500   15.546300   26.503300
  C    -49.945100   13.544900   24.652400
  H    -49.450000   13.231200   23.704100
  H    -50.399200   12.644200   25.023300
  C    -48.823500   13.928100   25.643200
  H    -49.343300   14.183600   26.535300
  H    -48.119900   13.135100   25.733200
  C    -47.764500   14.992200   25.069500
  H    -47.044400   15.308000   25.813900
  H    -47.220200   14.565600   24.218400
  H    -48.339000   15.900800   24.657700
  S    -53.538000   18.964900   25.060200
  C    -54.170700   19.650400   26.528500
  C    -54.097200   18.731700   27.561700
  C    -53.425600   17.519000   27.159300
  C    -53.034600   17.516200   25.835500
  H    -54.607100   18.984000   28.476100
  C    -53.413100   16.238500   28.064400
  H    -52.498800   15.810300   28.111800
  H    -54.020700   15.405300   27.620300
  C    -53.804100   16.523800   29.505000
  H    -54.650200   17.196100   29.636300
  H    -52.929900   17.040900   29.931700
  C    -53.884000   15.154800   30.243400
  H    -53.057300   14.444800   30.002400
  H    -54.833600   14.706800   29.920800
  H    -53.995600   15.184200   31.279900
  H    -51.686000   13.981000   22.550100
  H    -54.728800   20.550100   26.617100

 Total Charge           Charge          ....    0
 Multiplicity           Mult            ....    1
 Number of Electrons    NEL             ....  134
 Basis Dimension        Dim             ....  322

ORBITAL ENERGIES
----------------

  NO   OCC          E(Eh)            E(eV)
   0   2.0000     -88.968706     -2420.9616
   1   2.0000     -88.966274     -2420.8954
   2   2.0000     -10.335858      -281.2530
   3   2.0000     -10.328103      -281.0420
   4   2.0000     -10.316025      -280.7133
   5   2.0000     -10.309573      -280.5377
   6   2.0000     -10.307205      -280.4733
   7   2.0000     -10.304439      -280.3980
   8   2.0000     -10.299688      -280.2688
   9   2.0000     -10.297100      -280.1983
  10   2.0000     -10.294649      -280.1316
  11   2.0000     -10.288583      -279.9666
  12   2.0000     -10.288372      -279.9608
  13   2.0000     -10.288094      -279.9533
  14   2.0000     -10.285402      -279.8800
  15   2.0000     -10.278877      -279.7025
  16   2.0000      -8.083399      -219.9605
  17   2.0000      -8.081789      -219.9167
  18   2.0000      -6.042035      -164.4121
  19   2.0000      -6.040246      -164.3635
  20   2.0000      -6.037799      -164.2969
  21   2.0000      -6.036137      -164.2516
  22   2.0000      -6.034126      -164.1969
  23   2.0000      -6.032613      -164.1558
  24   2.0000      -1.009656       -27.4741
  25   2.0000      -0.987466       -26.8703
  26   2.0000      -0.911360       -24.7994
  27   2.0000      -0.905186       -24.6314
  28   2.0000      -0.872263       -23.7355
  29   2.0000      -0.848143       -23.0792
  30   2.0000      -0.837853       -22.7991
  31   2.0000      -0.819504       -22.2998
  32   2.0000      -0.781162       -21.2565
  33   2.0000      -0.773931       -21.0597
  34   2.0000      -0.711587       -19.3633
  35   2.0000      -0.707314       -19.2470
  36   2.0000      -0.692928       -18.8555
  37   2.0000      -0.653892       -17.7933
  38   2.0000      -0.638071       -17.3628
  39   2.0000      -0.627007       -17.0617
  40   2.0000      -0.603982       -16.4352
  41   2.0000      -0.574579       -15.6351
  42   2.0000      -0.565816       -15.3966
  43   2.0000      -0.547238       -14.8911
  44   2.0000      -0.542582       -14.7644
  45   2.0000      -0.525737       -14.3060
  46   2.0000      -0.516860       -14.0645
  47   2.0000      -0.511091       -13.9075
  48   2.0000      -0.509659       -13.8685
  49   2.0000      -0.497355       -13.5337
  50   2.0000      -0.488006       -13.2793
  51   2.0000      -0.477108       -12.9828
  52   2.0000      -0.474093       -12.9007
  53   2.0000      -0.464641       -12.6435
  54   2.0000      -0.462542       -12.5864
  55   2.0000      -0.457851       -12.4588
  56   2.0000      -0.449516       -12.2319
  57   2.0000      -0.441661       -12.0182
  58   2.0000      -0.430842       -11.7238
  59   2.0000      -0.425284       -11.5726
  60   2.0000      -0.416840       -11.3428
  61   2.0000      -0.412265       -11.2183
  62   2.0000      -0.403673       -10.9845
  63   2.0000      -0.359174        -9.7736
  64   2.0000      -0.334017        -9.0891
  65   2.0000      -0.326597        -8.8872
  66   2.0000      -0.287982        -7.8364
  67   0.0000       0.024340         0.6623
  68   0.0000       0.077527         2.1096
  69   0.0000       0.112988         3.0746
  70   0.0000       0.121327         3.3015
  71   0.0000       0.132037         3.5929

MULLIKEN ATOMIC CHARGES
-----------------------
   0 S :    0.116581
   1 C :   -0.075044
   2 C :   -0.096293
   3 C :   -0.019174
   4 C :   -0.120893
   5 H :    0.033100
   6 C :    0.044982
   7 H :    0.025135
   8 H :    0.031000
   9 C :   -0.057941
  10 H :    0.026992
  11 H :    0.027866
  12 C :   -0.097341
  13 H :    0.045358
  14 H :    0.033731
  15 H :    0.050972
  16 S :    0.106342
  17 C :   -0.073658
  18 C :   -0.056619
  19 C :   -0.039148
  20 C :   -0.127646
  21 H :    0.021146
  22 C :    0.094191
  23 H :   -0.022919
  24 H :    0.043443
  25 C :   -0.102037
  26 H :    0.039664
  27 H :    0.030936
  28 C :   -0.030199
  29 H :    0.037982
  30 H :    0.025559
  31 H :    0.018648
  32 H :    0.017441
  33 H :    0.047846
Sum of atomic charges:    0.0000000

LOEWDIN ATOMIC CHARGES
----------------------
   0 S :    0.415030
   1 C :   -0.197940
   2 C :   -0.061290
   3 C :   -0.072687
   4 C :   -0.184032
   5 H :    0.035331
   6 C :   -0.034855
   7 H :    0.030593
   8 H :    0.030653
   9 C :   -0.034354
  10 H :    0.015496
  11 H :    0.025114
  12 C :   -0.071185
  13 H :    0.024167
  14 H :    0.024394
  15 H :    0.032969
  16 S :    0.423182
  17 C :   -0.184644
  18 C :   -0.071329
  19 C :   -0.056168
  20 C :   -0.207037
  21 H :    0.031910
  22 C :   -0.023788
  23 H :    0.008929
  24 H :    0.038544
  25 C :   -0.040355
  26 H :    0.020866
  27 H :    0.026760
  28 C :   -0.062759
  29 H :    0.031384
  30 H :    0.027285
  31 H :    0.014980
  32 H :    0.018546
  33 H :    0.026291

  Mayer bond orders larger than 0.100000
B(  0-S ,  1-C ) :   1.1393 B(  0-S ,  4-C ) :   1.1512 B(  1-C ,  2-C ) :   1.6139
B(  1-C , 32-H ) :   0.9773 B(  2-C ,  3-C ) :   1.2570 B(  2-C ,  6-C ) :   1.0001
B(  3-C ,  4-C ) :   1.5673 B(  3-C ,  5-H ) :   0.9801 B(  4-C , 20-C ) :   1.0546
B(  6-C ,  7-H ) :   0.9545 B(  6-C ,  8-H ) :   0.9279 B(  6-C ,  9-C ) :   1.0920
B(  9-C , 10-H ) :   0.9537 B(  9-C , 11-H ) :   0.9558 B(  9-C , 12-C ) :   1.0561
B( 12-C , 13-H ) :   0.9786 B( 12-C , 14-H ) :   0.9761 B( 12-C , 15-H ) :   0.9801
B( 16-S , 17-C ) :   1.1638 B( 16-S , 20-C ) :   1.1458 B( 17-C , 18-C ) :   1.6035
B( 17-C , 33-H ) :   0.9667 B( 18-C , 19-C ) :   1.2518 B( 18-C , 21-H ) :   0.9909
B( 19-C , 20-C ) :   1.5936 B( 19-C , 22-C ) :   1.0124 B( 22-C , 23-H ) :   0.9241
B( 22-C , 24-H ) :   0.9395 B( 22-C , 25-C ) :   1.0696 B( 25-C , 26-H ) :   0.9545
B( 25-C , 27-H ) :   0.9573 B( 25-C , 28-C ) :   1.0734 B( 28-C , 29-H ) :   0.9737
B( 28-C , 30-H ) :   0.9748 B( 28-C , 31-H ) :   0.9731

Dispersion correction           -0.013738462
FINAL SINGLE POINT ENERGY     -1339.861021754956

DIPOLE MOMENT
-------------
                                X             Y             Z
Electronic contribution:    -12.77601      16.00010     -19.59547
Nuclear contribution   :     12.89476     -16.44414      20.12673
                        -----------------------------------------
Total Dipole Moment    :      0.11875      -0.44405       0.53126
                        -----------------------------------------
Magnitude (a.u.)       :      0.70251
Magnitude (Debye)      :      1.78563

Rotational constants in cm-1:     0.016301     0.009084     0.006820
Rotational constants in MHz :   488.706443   272.345499   204.451483

                             ****ORCA TERMINATED NORMALLY****
TOTAL RUN TIME: 0 days 0 hours 0 minutes 21 seconds 433 msec
