                         Program Version 4.2.1 -  RELEASE  -
|  1> ! wB97X-D3 SP def2-SVP
|  2> %pal
|  3> nprocs 24
|  4> end
|  5>
|  6> * xyz 0 1
|  7> S 	 -32.8449 	 -28.2787 	 -97.8663
|  8> C 	 -32.2019 	 -27.4951 	 -99.3095
|  9> C 	 -32.5815 	 -28.1348 	 -100.456
| 10> C 	 -33.4059 	 -29.2642 	 -100.213
| 11> C 	 -33.6822 	 -29.4491 	 -98.8677
| 12> H 	 -33.8439 	 -29.9539 	 -100.91
| 13> C 	 -32.2366 	 -27.6806 	 -101.899
| 14> H 	 -31.4 	 -27.0555 	 -101.909
| 15> H 	 -33.1208 	 -27.1299 	 -102.213
| 16> C 	 -31.9839 	 -28.882 	 -102.829
| 17> H 	 -31.1576 	 -29.3566 	 -102.401
| 18> H 	 -32.7841 	 -29.5614 	 -102.729
| 19> C 	 -31.7352 	 -28.4945 	 -104.243
| 20> H 	 -30.7348 	 -28.0496 	 -104.387
| 21> H 	 -31.6724 	 -29.4105 	 -104.832
| 22> H 	 -32.3495 	 -27.7081 	 -104.693
| 23> S 	 -36.4232 	 -30.1188 	 -98.649
| 24> C 	 -36.8767 	 -31.1174 	 -97.2812
| 25> C 	 -35.8252 	 -31.6375 	 -96.6051
| 26> C 	 -34.5946 	 -31.1144 	 -97.0506
| 27> C 	 -34.7087 	 -30.2766 	 -98.1518
| 28> H 	 -35.9449 	 -32.4592 	 -95.9794
| 29> C 	 -33.2697 	 -31.5533 	 -96.4234
| 30> H 	 -33.4708 	 -32.0424 	 -95.4392
| 31> H 	 -32.6132 	 -30.7613 	 -96.3313
| 32> C 	 -32.5505 	 -32.5595 	 -97.3745
| 33> H 	 -32.2601 	 -32.079 	 -98.3673
| 34> H 	 -33.1575 	 -33.4244 	 -97.6496
| 35> C 	 -31.3237 	 -33.2357 	 -96.7282
| 36> H 	 -31.499 	 -33.7832 	 -95.8131
| 37> H 	 -30.5069 	 -32.5418 	 -96.4796
| 38> H 	 -30.9445 	 -33.916 	 -97.4495
| 39> H 	 -31.511 	 -26.6583 	 -99.371
| 40> H 	 -37.7614 	 -31.6697 	 -97.0794
| 41> *
| 42>
| 43>                          ****END OF INPUT****

CARTESIAN COORDINATES (ANGSTROEM)
---------------------------------
  S    -32.844900  -28.278700  -97.866300
  C    -32.201900  -27.495100  -99.309500
  C    -32.581500  -28.134800  -100.456000
  C    -33.405900  -29.264200  -100.213000
  C    -33.682200  -29.449100  -98.867700
  H    -33.843900  -29.953900  -100.910000
  C    -32.236600  -27.680600  -101.899000
  H    -31.400000  -27.055500  -101.909000
  H    -33.120800  -27.129900  -102.213000
  C    -31.983900  -28.882000  -102.829000
  H    -31.157600  -29.356600  -102.401000
  H    -32.784100  -29.561400  -102.729000
  C    -31.735200  -28.494500  -104.243000
  H    -30.734800  -28.049600  -104.387000
  H    -31.672400  -29.410500  -104.832000
  H    -32.349500  -27.708100  -104.693000
  S    -36.423200  -30.118800  -98.649000
  C    -36.876700  -31.117400  -97.281200
  C    -35.825200  -31.637500  -96.605100
  C    -34.594600  -31.114400  -97.050600
  C    -34.708700  -30.276600  -98.151800
  H    -35.944900  -32.459200  -95.979400
  C    -33.269700  -31.553300  -96.423400
  H    -33.470800  -32.042400  -95.439200
  H    -32.613200  -30.761300  -96.331300
  C    -32.550500  -32.559500  -97.374500
  H    -32.260100  -32.079000  -98.367300
  H    -33.157500  -33.424400  -97.649600
  C    -31.323700  -33.235700  -96.728200
  H    -31.499000  -33.783200  -95.813100
  H    -30.506900  -32.541800  -96.479600
  H    -30.944500  -33.916000  -97.449500
  H    -31.511000  -26.658300  -99.371000
  H    -37.761400  -31.669700  -97.079400

 Total Charge           Charge          ....    0
 Multiplicity           Mult            ....    1
 Number of Electrons    NEL             ....  134
 Basis Dimension        Dim             ....  322

ORBITAL ENERGIES
----------------

  NO   OCC          E(Eh)            E(eV)
   0   2.0000     -88.968760     -2420.9630
   1   2.0000     -88.966257     -2420.8949
   2   2.0000     -10.333223      -281.1813
   3   2.0000     -10.330172      -281.0983
   4   2.0000     -10.311941      -280.6022
   5   2.0000     -10.309553      -280.5372
   6   2.0000     -10.300739      -280.2974
   7   2.0000     -10.300061      -280.2789
   8   2.0000     -10.294919      -280.1390
   9   2.0000     -10.289349      -279.9874
  10   2.0000     -10.288778      -279.9719
  11   2.0000     -10.288672      -279.9690
  12   2.0000     -10.283333      -279.8237
  13   2.0000     -10.278176      -279.6834
  14   2.0000     -10.276556      -279.6393
  15   2.0000     -10.270713      -279.4803
  16   2.0000      -8.082381      -219.9328
  17   2.0000      -8.080477      -219.8810
  18   2.0000      -6.041070      -164.3859
  19   2.0000      -6.039017      -164.3300
  20   2.0000      -6.037163      -164.2795
  21   2.0000      -6.035024      -164.2213
  22   2.0000      -6.032906      -164.1637
  23   2.0000      -6.031262      -164.1190
  24   2.0000      -1.003776       -27.3141
  25   2.0000      -0.984409       -26.7871
  26   2.0000      -0.916865       -24.9492
  27   2.0000      -0.902697       -24.5636
  28   2.0000      -0.869391       -23.6573
  29   2.0000      -0.851144       -23.1608
  30   2.0000      -0.844105       -22.9693
  31   2.0000      -0.819366       -22.2961
  32   2.0000      -0.785171       -21.3656
  33   2.0000      -0.771130       -20.9835
  34   2.0000      -0.714374       -19.4391
  35   2.0000      -0.697306       -18.9747
  36   2.0000      -0.686418       -18.6784
  37   2.0000      -0.665983       -18.1223
  38   2.0000      -0.638888       -17.3850
  39   2.0000      -0.621421       -16.9097
  40   2.0000      -0.594431       -16.1753
  41   2.0000      -0.573222       -15.5982
  42   2.0000      -0.570977       -15.5371
  43   2.0000      -0.559290       -15.2190
  44   2.0000      -0.531092       -14.4518
  45   2.0000      -0.523563       -14.2469
  46   2.0000      -0.511114       -13.9081
  47   2.0000      -0.506184       -13.7740
  48   2.0000      -0.504085       -13.7168
  49   2.0000      -0.497727       -13.5438
  50   2.0000      -0.484598       -13.1866
  51   2.0000      -0.483097       -13.1457
  52   2.0000      -0.479532       -13.0487
  53   2.0000      -0.467504       -12.7214
  54   2.0000      -0.461834       -12.5671
  55   2.0000      -0.452603       -12.3160
  56   2.0000      -0.446911       -12.1611
  57   2.0000      -0.436308       -11.8726
  58   2.0000      -0.431866       -11.7517
  59   2.0000      -0.425136       -11.5685
  60   2.0000      -0.419807       -11.4235
  61   2.0000      -0.416230       -11.3262
  62   2.0000      -0.412688       -11.2298
  63   2.0000      -0.340581        -9.2677
  64   2.0000      -0.334586        -9.1045
  65   2.0000      -0.330675        -8.9981
  66   2.0000      -0.296236        -8.0610
  67   0.0000       0.031186         0.8486
  68   0.0000       0.067085         1.8255
  69   0.0000       0.106855         2.9077
  70   0.0000       0.117204         3.1893
  71   0.0000       0.133878         3.6430

MULLIKEN ATOMIC CHARGES
-----------------------
   0 S :    0.112366
   1 C :   -0.118880
   2 C :   -0.099406
   3 C :    0.011019
   4 C :   -0.157909
   5 H :    0.011223
   6 C :    0.105894
   7 H :    0.003908
   8 H :    0.040412
   9 C :   -0.068916
  10 H :    0.018528
  11 H :    0.021428
  12 C :   -0.027053
  13 H :    0.018235
  14 H :    0.034255
  15 H :    0.032922
  16 S :    0.114790
  17 C :   -0.050421
  18 C :   -0.040369
  19 C :   -0.038389
  20 C :   -0.157493
  21 H :    0.000575
  22 C :    0.124904
  23 H :    0.026951
  24 H :    0.003881
  25 C :   -0.119333
  26 H :    0.049711
  27 H :    0.025534
  28 C :   -0.034448
  29 H :    0.025853
  30 H :    0.026329
  31 H :    0.024522
  32 H :    0.038895
  33 H :    0.040484
Sum of atomic charges:   -0.0000000

LOEWDIN ATOMIC CHARGES
----------------------
   0 S :    0.407416
   1 C :   -0.197978
   2 C :   -0.061814
   3 C :   -0.070078
   4 C :   -0.183394
   5 H :    0.030660
   6 C :   -0.014570
   7 H :    0.017620
   8 H :    0.033589
   9 C :   -0.036382
  10 H :    0.022815
  11 H :    0.016050
  12 C :   -0.068620
  13 H :    0.027392
  14 H :    0.030635
  15 H :    0.027367
  16 S :    0.392356
  17 C :   -0.181294
  18 C :   -0.064318
  19 C :   -0.051270
  20 C :   -0.195856
  21 H :    0.023571
  22 C :   -0.023473
  23 H :    0.034453
  24 H :    0.012936
  25 C :   -0.040052
  26 H :    0.034209
  27 H :    0.021921
  28 C :   -0.068455
  29 H :    0.021351
  30 H :    0.023504
  31 H :    0.022562
  32 H :    0.029416
  33 H :    0.027732

  Mayer bond orders larger than 0.100000
B(  0-S ,  1-C ) :   1.1262 B(  0-S ,  4-C ) :   1.1614 B(  1-C ,  2-C ) :   1.6496
B(  1-C , 32-H ) :   0.9647 B(  2-C ,  3-C ) :   1.2137 B(  2-C ,  6-C ) :   1.0083
B(  3-C ,  4-C ) :   1.5942 B(  3-C ,  5-H ) :   0.9991 B(  4-C , 20-C ) :   1.0111
B(  6-C ,  7-H ) :   0.9453 B(  6-C ,  8-H ) :   0.9354 B(  6-C ,  9-C ) :   1.0679
B(  9-C , 10-H ) :   0.9542 B(  9-C , 11-H ) :   0.9516 B(  9-C , 12-C ) :   1.0956
B( 12-C , 13-H ) :   0.9678 B( 12-C , 14-H ) :   0.9697 B( 12-C , 15-H ) :   0.9744
B( 16-S , 17-C ) :   1.1464 B( 16-S , 20-C ) :   1.1170 B( 17-C , 18-C ) :   1.6457
B( 17-C , 33-H ) :   0.9539 B( 18-C , 19-C ) :   1.2468 B( 18-C , 21-H ) :   0.9911
B( 19-C , 20-C ) :   1.5978 B( 19-C , 22-C ) :   1.0507 B( 22-C , 23-H ) :   0.9405
B( 22-C , 24-H ) :   0.9206 B( 22-C , 25-C ) :   1.0594 B( 25-C , 26-H ) :   0.9532
B( 25-C , 27-H ) :   0.9596 B( 25-C , 28-C ) :   1.0827 B( 28-C , 29-H ) :   0.9749
B( 28-C , 30-H ) :   0.9735 B( 28-C , 31-H ) :   0.9743

Dispersion correction           -0.014079906
FINAL SINGLE POINT ENERGY     -1339.871334797187

DIPOLE MOMENT
-------------
                                X             Y             Z
Electronic contribution:    -17.15985       9.01750      12.25261
Nuclear contribution   :     17.47882      -9.35809     -12.56027
                        -----------------------------------------
Total Dipole Moment    :      0.31897      -0.34059      -0.30765
                        -----------------------------------------
Magnitude (a.u.)       :      0.55892
Magnitude (Debye)      :      1.42067

Rotational constants in cm-1:     0.018440     0.007932     0.006980
Rotational constants in MHz :   552.814753   237.791540   209.260688

                             ****ORCA TERMINATED NORMALLY****
TOTAL RUN TIME: 0 days 0 hours 0 minutes 21 seconds 325 msec
