                         Program Version 4.2.1 -  RELEASE  -
|  1> ! wB97X-D3 SP def2-SVP
|  2> %pal
|  3> nprocs 24
|  4> end
|  5>
|  6> * xyz 0 1
|  7> S 	 37.713 	 -7.3467 	 -120.103
|  8> C 	 37.5363 	 -7.90624 	 -121.748
|  9> C 	 37.9694 	 -6.90418 	 -122.578
| 10> C 	 38.1922 	 -5.62159 	 -121.903
| 11> C 	 38.0975 	 -5.72204 	 -120.555
| 12> H 	 38.4336 	 -4.65299 	 -122.395
| 13> C 	 38.1033 	 -7.13074 	 -124.085
| 14> H 	 38.5757 	 -8.0736 	 -124.268
| 15> H 	 38.7327 	 -6.39559 	 -124.466
| 16> C 	 36.8086 	 -6.94241 	 -124.785
| 17> H 	 36.1125 	 -7.70187 	 -124.449
| 18> H 	 36.3656 	 -5.98322 	 -124.532
| 19> C 	 36.8607 	 -7.04286 	 -126.284
| 20> H 	 37.4411 	 -6.24551 	 -126.664
| 21> H 	 37.2386 	 -7.9607 	 -126.677
| 22> H 	 35.9657 	 -6.96562 	 -126.831
| 23> S 	 39.9008 	 -4.84162 	 -118.608
| 24> C 	 39.5499 	 -3.38696 	 -117.767
| 25> C 	 38.4518 	 -2.77497 	 -118.271
| 26> C 	 37.7999 	 -3.49193 	 -119.259
| 27> C 	 38.3753 	 -4.71249 	 -119.545
| 28> H 	 38.157 	 -1.87592 	 -117.744
| 29> C 	 36.5978 	 -3.00191 	 -119.907
| 30> H 	 35.8341 	 -3.06443 	 -119.097
| 31> H 	 36.2469 	 -3.59392 	 -120.749
| 32> C 	 36.7086 	 -1.498 	 -120.351
| 33> H 	 37.6426 	 -1.3025 	 -120.848
| 34> H 	 36.8534 	 -0.872714 	 -119.465
| 35> C 	 35.4404 	 -0.960639 	 -121.085
| 36> H 	 34.6035 	 -0.664168 	 -120.436
| 37> H 	 35.0985 	 -1.6805 	 -121.884
| 38> H 	 35.6577 	 -0.0269576 	 -121.627
| 39> H 	 37.3898 	 -8.92822 	 -122.028
| 40> H 	 40.0424 	 -3.05759 	 -116.817
| 41> *
| 42>
| 43>                          ****END OF INPUT****

CARTESIAN COORDINATES (ANGSTROEM)
---------------------------------
  S     37.713000   -7.346700  -120.103000
  C     37.536300   -7.906240  -121.748000
  C     37.969400   -6.904180  -122.578000
  C     38.192200   -5.621590  -121.903000
  C     38.097500   -5.722040  -120.555000
  H     38.433600   -4.652990  -122.395000
  C     38.103300   -7.130740  -124.085000
  H     38.575700   -8.073600  -124.268000
  H     38.732700   -6.395590  -124.466000
  C     36.808600   -6.942410  -124.785000
  H     36.112500   -7.701870  -124.449000
  H     36.365600   -5.983220  -124.532000
  C     36.860700   -7.042860  -126.284000
  H     37.441100   -6.245510  -126.664000
  H     37.238600   -7.960700  -126.677000
  H     35.965700   -6.965620  -126.831000
  S     39.900800   -4.841620  -118.608000
  C     39.549900   -3.386960  -117.767000
  C     38.451800   -2.774970  -118.271000
  C     37.799900   -3.491930  -119.259000
  C     38.375300   -4.712490  -119.545000
  H     38.157000   -1.875920  -117.744000
  C     36.597800   -3.001910  -119.907000
  H     35.834100   -3.064430  -119.097000
  H     36.246900   -3.593920  -120.749000
  C     36.708600   -1.498000  -120.351000
  H     37.642600   -1.302500  -120.848000
  H     36.853400   -0.872714  -119.465000
  C     35.440400   -0.960639  -121.085000
  H     34.603500   -0.664168  -120.436000
  H     35.098500   -1.680500  -121.884000
  H     35.657700   -0.026958  -121.627000
  H     37.389800   -8.928220  -122.028000
  H     40.042400   -3.057590  -116.817000

 Total Charge           Charge          ....    0
 Multiplicity           Mult            ....    1
 Number of Electrons    NEL             ....  134
 Basis Dimension        Dim             ....  322

ORBITAL ENERGIES
----------------

  NO   OCC          E(Eh)            E(eV)
   0   2.0000     -88.960975     -2420.7512
   1   2.0000     -88.959695     -2420.7164
   2   2.0000     -10.325856      -280.9808
   3   2.0000     -10.323709      -280.9224
   4   2.0000     -10.315086      -280.6878
   5   2.0000     -10.311463      -280.5892
   6   2.0000     -10.302856      -280.3550
   7   2.0000     -10.298868      -280.2465
   8   2.0000     -10.296672      -280.1867
   9   2.0000     -10.289868      -280.0016
  10   2.0000     -10.289045      -279.9792
  11   2.0000     -10.286707      -279.9155
  12   2.0000     -10.284649      -279.8595
  13   2.0000     -10.281220      -279.7662
  14   2.0000     -10.278569      -279.6941
  15   2.0000     -10.264189      -279.3028
  16   2.0000      -8.075932      -219.7573
  17   2.0000      -8.075205      -219.7375
  18   2.0000      -6.034348      -164.2030
  19   2.0000      -6.033744      -164.1865
  20   2.0000      -6.030434      -164.0965
  21   2.0000      -6.029528      -164.0718
  22   2.0000      -6.026742      -163.9960
  23   2.0000      -6.025937      -163.9741
  24   2.0000      -1.011099       -27.5134
  25   2.0000      -0.990671       -26.9575
  26   2.0000      -0.921555       -25.0768
  27   2.0000      -0.909092       -24.7377
  28   2.0000      -0.874235       -23.7891
  29   2.0000      -0.849710       -23.1218
  30   2.0000      -0.844437       -22.9783
  31   2.0000      -0.819929       -22.3114
  32   2.0000      -0.786131       -21.3917
  33   2.0000      -0.771762       -21.0007
  34   2.0000      -0.708819       -19.2879
  35   2.0000      -0.703816       -19.1518
  36   2.0000      -0.700967       -19.0743
  37   2.0000      -0.654118       -17.7995
  38   2.0000      -0.646890       -17.6028
  39   2.0000      -0.618291       -16.8245
  40   2.0000      -0.599995       -16.3267
  41   2.0000      -0.578153       -15.7323
  42   2.0000      -0.568196       -15.4614
  43   2.0000      -0.558141       -15.1878
  44   2.0000      -0.525991       -14.3129
  45   2.0000      -0.523685       -14.2502
  46   2.0000      -0.519925       -14.1479
  47   2.0000      -0.515911       -14.0387
  48   2.0000      -0.510667       -13.8960
  49   2.0000      -0.501212       -13.6387
  50   2.0000      -0.500221       -13.6117
  51   2.0000      -0.476428       -12.9643
  52   2.0000      -0.474288       -12.9060
  53   2.0000      -0.465158       -12.6576
  54   2.0000      -0.459677       -12.5084
  55   2.0000      -0.454056       -12.3555
  56   2.0000      -0.446554       -12.1513
  57   2.0000      -0.434320       -11.8184
  58   2.0000      -0.433347       -11.7920
  59   2.0000      -0.421697       -11.4750
  60   2.0000      -0.419659       -11.4195
  61   2.0000      -0.415414       -11.3040
  62   2.0000      -0.410913       -11.1815
  63   2.0000      -0.340075        -9.2539
  64   2.0000      -0.329120        -8.9558
  65   2.0000      -0.324742        -8.8367
  66   2.0000      -0.304962        -8.2984
  67   0.0000       0.038247         1.0408
  68   0.0000       0.066171         1.8006
  69   0.0000       0.116921         3.1816
  70   0.0000       0.127261         3.4630
  71   0.0000       0.133204         3.6247

MULLIKEN ATOMIC CHARGES
-----------------------
   0 S :    0.103972
   1 C :   -0.101549
   2 C :   -0.136486
   3 C :    0.046497
   4 C :   -0.178649
   5 H :    0.027542
   6 C :    0.129380
   7 H :    0.020005
   8 H :   -0.009484
   9 C :   -0.065790
  10 H :    0.016239
  11 H :    0.022033
  12 C :    0.007738
  13 H :    0.009902
  14 H :    0.011593
  15 H :    0.013838
  16 S :    0.102666
  17 C :   -0.102171
  18 C :   -0.059889
  19 C :    0.019143
  20 C :   -0.161203
  21 H :    0.018300
  22 C :    0.072102
  23 H :    0.041155
  24 H :    0.027281
  25 C :   -0.100379
  26 H :    0.029041
  27 H :    0.023998
  28 C :   -0.061021
  29 H :    0.042209
  30 H :    0.039190
  31 H :    0.031714
  32 H :    0.047892
  33 H :    0.073190
Sum of atomic charges:   -0.0000000

LOEWDIN ATOMIC CHARGES
----------------------
   0 S :    0.412145
   1 C :   -0.193523
   2 C :   -0.055437
   3 C :   -0.065142
   4 C :   -0.204585
   5 H :    0.039590
   6 C :   -0.023732
   7 H :    0.028232
   8 H :    0.020098
   9 C :   -0.037299
  10 H :    0.020520
  11 H :    0.025998
  12 C :   -0.061959
  13 H :    0.018939
  14 H :    0.021048
  15 H :    0.022747
  16 S :    0.397946
  17 C :   -0.191000
  18 C :   -0.084062
  19 C :   -0.057344
  20 C :   -0.192897
  21 H :    0.033983
  22 C :   -0.030322
  23 H :    0.042199
  24 H :    0.028431
  25 C :   -0.041654
  26 H :    0.021875
  27 H :    0.023018
  28 C :   -0.074377
  29 H :    0.028530
  30 H :    0.029694
  31 H :    0.028568
  32 H :    0.027649
  33 H :    0.042126

  Mayer bond orders larger than 0.100000
B(  0-S ,  1-C ) :   1.1298 B(  0-S ,  4-C ) :   1.1604 B(  1-C ,  2-C ) :   1.6229
B(  1-C , 32-H ) :   0.9753 B(  2-C ,  3-C ) :   1.2158 B(  2-C ,  6-C ) :   1.0305
B(  3-C ,  4-C ) :   1.5992 B(  3-C ,  5-H ) :   0.9911 B(  4-C , 20-C ) :   1.0100
B(  6-C ,  7-H ) :   0.9379 B(  6-C ,  8-H ) :   0.9279 B(  6-C ,  9-C ) :   1.0741
B(  9-C , 10-H ) :   0.9535 B(  9-C , 11-H ) :   0.9522 B(  9-C , 12-C ) :   1.0917
B( 12-C , 13-H ) :   0.9706 B( 12-C , 14-H ) :   0.9698 B( 12-C , 15-H ) :   0.9690
B( 16-S , 17-C ) :   1.1714 B( 16-S , 20-C ) :   1.1304 B( 17-C , 18-C ) :   1.6165
B( 17-C , 20-C ) :   0.1012 B( 17-C , 33-H ) :   0.9545 B( 18-C , 19-C ) :   1.2249
B( 18-C , 21-H ) :   0.9949 B( 19-C , 20-C ) :   1.5935 B( 19-C , 22-C ) :   1.0670
B( 22-C , 23-H ) :   0.9251 B( 22-C , 24-H ) :   0.9354 B( 22-C , 25-C ) :   1.0480
B( 25-C , 26-H ) :   0.9648 B( 25-C , 27-H ) :   0.9470 B( 25-C , 28-C ) :   1.0783
B( 28-C , 29-H ) :   0.9764 B( 28-C , 30-H ) :   0.9761 B( 28-C , 31-H ) :   0.9740

Dispersion correction           -0.013597173
FINAL SINGLE POINT ENERGY     -1339.878493048240

DIPOLE MOMENT
-------------
                                X             Y             Z
Electronic contribution:     14.18650     -11.54439      23.44252
Nuclear contribution   :    -14.40463      11.96966     -23.85353
                        -----------------------------------------
Total Dipole Moment    :     -0.21813       0.42528      -0.41101
                        -----------------------------------------
Magnitude (a.u.)       :      0.63037
Magnitude (Debye)      :      1.60228

Rotational constants in cm-1:     0.017745     0.008228     0.006187
Rotational constants in MHz :   531.996570   246.674947   185.494875

                             ****ORCA TERMINATED NORMALLY****
TOTAL RUN TIME: 0 days 0 hours 0 minutes 21 seconds 76 msec
