                         Program Version 4.2.1 -  RELEASE  -
|  1> ! wB97X-D3 SP def2-SVP
|  2> %pal
|  3> nprocs 24
|  4> end
|  5>
|  6> * xyz 0 1
|  7> S 	 -79.4487 	 -20.1674 	 -50.2384
|  8> C 	 -79.9302 	 -19.1106 	 -48.9567
|  9> C 	 -79.7832 	 -17.785 	 -49.2348
| 10> C 	 -79.2789 	 -17.5859 	 -50.5354
| 11> C 	 -79.0476 	 -18.7976 	 -51.2046
| 12> H 	 -79.1409 	 -16.5913 	 -50.9882
| 13> C 	 -80.2595 	 -16.6315 	 -48.3366
| 14> H 	 -81.126 	 -17.0565 	 -47.9537
| 15> H 	 -80.3837 	 -15.8163 	 -48.9732
| 16> C 	 -79.4082 	 -16.1517 	 -47.1931
| 17> H 	 -79.9323 	 -15.391 	 -46.6492
| 18> H 	 -79.3006 	 -16.9764 	 -46.4664
| 19> C 	 -77.955 	 -15.7396 	 -47.4638
| 20> H 	 -77.4354 	 -16.6944 	 -47.6563
| 21> H 	 -77.7892 	 -15.0006 	 -48.2741
| 22> H 	 -77.4365 	 -15.1963 	 -46.6931
| 23> S 	 -79.416 	 -20.4246 	 -53.3375
| 24> C 	 -78.3051 	 -20.2239 	 -54.7356
| 25> C 	 -77.6799 	 -19.0076 	 -54.6953
| 26> C 	 -77.9525 	 -18.2596 	 -53.472
| 27> C 	 -78.6937 	 -19.0445 	 -52.5818
| 28> H 	 -77.1589 	 -18.7823 	 -55.5773
| 29> C 	 -77.2259 	 -16.9582 	 -53.2258
| 30> H 	 -76.149 	 -17.2413 	 -53.3126
| 31> H 	 -77.4194 	 -16.7542 	 -52.2002
| 32> C 	 -77.5538 	 -15.7689 	 -54.1852
| 33> H 	 -77.7212 	 -16.0944 	 -55.199
| 34> H 	 -76.7555 	 -15.0288 	 -54.1896
| 35> C 	 -78.7857 	 -15.0103 	 -53.7551
| 36> H 	 -78.7794 	 -14.6709 	 -52.7409
| 37> H 	 -79.5913 	 -15.7264 	 -53.8144
| 38> H 	 -79.1031 	 -14.2198 	 -54.4266
| 39> H 	 -80.2278 	 -19.6298 	 -47.9828
| 40> H 	 -78.127 	 -20.9906 	 -55.5458
| 41> *
| 42>
| 43>                          ****END OF INPUT****

CARTESIAN COORDINATES (ANGSTROEM)
---------------------------------
  S    -79.448700  -20.167400  -50.238400
  C    -79.930200  -19.110600  -48.956700
  C    -79.783200  -17.785000  -49.234800
  C    -79.278900  -17.585900  -50.535400
  C    -79.047600  -18.797600  -51.204600
  H    -79.140900  -16.591300  -50.988200
  C    -80.259500  -16.631500  -48.336600
  H    -81.126000  -17.056500  -47.953700
  H    -80.383700  -15.816300  -48.973200
  C    -79.408200  -16.151700  -47.193100
  H    -79.932300  -15.391000  -46.649200
  H    -79.300600  -16.976400  -46.466400
  C    -77.955000  -15.739600  -47.463800
  H    -77.435400  -16.694400  -47.656300
  H    -77.789200  -15.000600  -48.274100
  H    -77.436500  -15.196300  -46.693100
  S    -79.416000  -20.424600  -53.337500
  C    -78.305100  -20.223900  -54.735600
  C    -77.679900  -19.007600  -54.695300
  C    -77.952500  -18.259600  -53.472000
  C    -78.693700  -19.044500  -52.581800
  H    -77.158900  -18.782300  -55.577300
  C    -77.225900  -16.958200  -53.225800
  H    -76.149000  -17.241300  -53.312600
  H    -77.419400  -16.754200  -52.200200
  C    -77.553800  -15.768900  -54.185200
  H    -77.721200  -16.094400  -55.199000
  H    -76.755500  -15.028800  -54.189600
  C    -78.785700  -15.010300  -53.755100
  H    -78.779400  -14.670900  -52.740900
  H    -79.591300  -15.726400  -53.814400
  H    -79.103100  -14.219800  -54.426600
  H    -80.227800  -19.629800  -47.982800
  H    -78.127000  -20.990600  -55.545800

 Total Charge           Charge          ....    0
 Multiplicity           Mult            ....    1
 Number of Electrons    NEL             ....  134
 Basis Dimension        Dim             ....  322

ORBITAL ENERGIES
----------------

  NO   OCC          E(Eh)            E(eV)
   0   2.0000     -88.967603     -2420.9316
   1   2.0000     -88.962495     -2420.7926
   2   2.0000     -10.327438      -281.0239
   3   2.0000     -10.325205      -280.9631
   4   2.0000     -10.319311      -280.8027
   5   2.0000     -10.314257      -280.6652
   6   2.0000     -10.304658      -280.4040
   7   2.0000     -10.299160      -280.2544
   8   2.0000     -10.296233      -280.1747
   9   2.0000     -10.292634      -280.0768
  10   2.0000     -10.290491      -280.0185
  11   2.0000     -10.288149      -279.9548
  12   2.0000     -10.285118      -279.8723
  13   2.0000     -10.283628      -279.8317
  14   2.0000     -10.277923      -279.6765
  15   2.0000     -10.270574      -279.4765
  16   2.0000      -8.083310      -219.9581
  17   2.0000      -8.077193      -219.7916
  18   2.0000      -6.041600      -164.4003
  19   2.0000      -6.037685      -164.2938
  20   2.0000      -6.035863      -164.2442
  21   2.0000      -6.034226      -164.1996
  22   2.0000      -6.031907      -164.1365
  23   2.0000      -6.027561      -164.0183
  24   2.0000      -1.012267       -27.5452
  25   2.0000      -0.983160       -26.7531
  26   2.0000      -0.917509       -24.9667
  27   2.0000      -0.908865       -24.7315
  28   2.0000      -0.871353       -23.7107
  29   2.0000      -0.854684       -23.2571
  30   2.0000      -0.846664       -23.0389
  31   2.0000      -0.815291       -22.1852
  32   2.0000      -0.789108       -21.4727
  33   2.0000      -0.770404       -20.9638
  34   2.0000      -0.709704       -19.3120
  35   2.0000      -0.702746       -19.1227
  36   2.0000      -0.693221       -18.8635
  37   2.0000      -0.660364       -17.9694
  38   2.0000      -0.634306       -17.2603
  39   2.0000      -0.618533       -16.8311
  40   2.0000      -0.590447       -16.0669
  41   2.0000      -0.578735       -15.7482
  42   2.0000      -0.559272       -15.2186
  43   2.0000      -0.553951       -15.0738
  44   2.0000      -0.548443       -14.9239
  45   2.0000      -0.535622       -14.5750
  46   2.0000      -0.523849       -14.2546
  47   2.0000      -0.511070       -13.9069
  48   2.0000      -0.500965       -13.6320
  49   2.0000      -0.491568       -13.3763
  50   2.0000      -0.487427       -13.2636
  51   2.0000      -0.482152       -13.1200
  52   2.0000      -0.470599       -12.8056
  53   2.0000      -0.461328       -12.5534
  54   2.0000      -0.456879       -12.4323
  55   2.0000      -0.453692       -12.3456
  56   2.0000      -0.450273       -12.2525
  57   2.0000      -0.438956       -11.9446
  58   2.0000      -0.432027       -11.7561
  59   2.0000      -0.429673       -11.6920
  60   2.0000      -0.419226       -11.4077
  61   2.0000      -0.415191       -11.2979
  62   2.0000      -0.412828       -11.2336
  63   2.0000      -0.354752        -9.6533
  64   2.0000      -0.336552        -9.1580
  65   2.0000      -0.326574        -8.8865
  66   2.0000      -0.280146        -7.6232
  67   0.0000       0.020996         0.5713
  68   0.0000       0.078659         2.1404
  69   0.0000       0.099377         2.7042
  70   0.0000       0.120782         3.2867
  71   0.0000       0.130326         3.5463

MULLIKEN ATOMIC CHARGES
-----------------------
   0 S :    0.116531
   1 C :   -0.179157
   2 C :   -0.094688
   3 C :    0.011295
   4 C :   -0.156876
   5 H :    0.011315
   6 C :    0.165046
   7 H :    0.016363
   8 H :    0.003273
   9 C :   -0.063143
  10 H :    0.024672
  11 H :    0.018787
  12 C :   -0.071592
  13 H :    0.050323
  14 H :    0.022232
  15 H :    0.027867
  16 S :    0.091560
  17 C :   -0.122736
  18 C :   -0.015757
  19 C :   -0.055566
  20 C :   -0.113496
  21 H :    0.004454
  22 C :    0.066972
  23 H :    0.046831
  24 H :   -0.003420
  25 C :   -0.036877
  26 H :    0.027807
  27 H :    0.028650
  28 C :   -0.051149
  29 H :    0.027323
  30 H :    0.020911
  31 H :    0.034179
  32 H :    0.073281
  33 H :    0.074788
Sum of atomic charges:   -0.0000000

LOEWDIN ATOMIC CHARGES
----------------------
   0 S :    0.430874
   1 C :   -0.216473
   2 C :   -0.064464
   3 C :   -0.068946
   4 C :   -0.197112
   5 H :    0.032610
   6 C :   -0.012400
   7 H :    0.030218
   8 H :    0.022532
   9 C :   -0.040299
  10 H :    0.020920
  11 H :    0.025300
  12 C :   -0.075010
  13 H :    0.033267
  14 H :    0.022787
  15 H :    0.025489
  16 S :    0.377219
  17 C :   -0.180237
  18 C :   -0.064330
  19 C :   -0.059419
  20 C :   -0.199838
  21 H :    0.025753
  22 C :   -0.029463
  23 H :    0.042355
  24 H :    0.021066
  25 C :   -0.031993
  26 H :    0.024055
  27 H :    0.023340
  28 C :   -0.065664
  29 H :    0.017476
  30 H :    0.024503
  31 H :    0.027075
  32 H :    0.037705
  33 H :    0.041102

  Mayer bond orders larger than 0.100000
B(  0-S ,  1-C ) :   1.1473 B(  0-S ,  4-C ) :   1.1756 B(  1-C ,  2-C ) :   1.5937
B(  1-C , 32-H ) :   0.9590 B(  2-C ,  3-C ) :   1.2848 B(  2-C ,  6-C ) :   0.9932
B(  3-C ,  4-C ) :   1.5203 B(  3-C ,  5-H ) :   0.9800 B(  4-C , 20-C ) :   1.0755
B(  6-C ,  7-H ) :   0.9331 B(  6-C ,  8-H ) :   0.9356 B(  6-C ,  9-C ) :   1.0882
B(  9-C , 10-H ) :   0.9552 B(  9-C , 11-H ) :   0.9550 B(  9-C , 12-C ) :   1.0700
B( 12-C , 13-H ) :   0.9756 B( 12-C , 14-H ) :   0.9759 B( 12-C , 15-H ) :   0.9734
B( 16-S , 17-C ) :   1.1054 B( 16-S , 20-C ) :   1.1372 B( 17-C , 18-C ) :   1.6741
B( 17-C , 33-H ) :   0.9599 B( 18-C , 19-C ) :   1.1760 B( 18-C , 21-H ) :   0.9959
B( 19-C , 20-C ) :   1.5910 B( 19-C , 22-C ) :   1.0444 B( 22-C , 23-H ) :   0.9369
B( 22-C , 24-H ) :   0.9358 B( 22-C , 25-C ) :   1.0511 B( 25-C , 26-H ) :   0.9597
B( 25-C , 27-H ) :   0.9574 B( 25-C , 28-C ) :   1.0822 B( 28-C , 29-H ) :   0.9715
B( 28-C , 30-H ) :   0.9757 B( 28-C , 31-H ) :   0.9699

Dispersion correction           -0.014555941
FINAL SINGLE POINT ENERGY     -1339.866438881336

DIPOLE MOMENT
-------------
                                X             Y             Z
Electronic contribution:     -5.73670     -27.43931      -7.32396
Nuclear contribution   :      5.87716      27.99608       7.38176
                        -----------------------------------------
Total Dipole Moment    :      0.14046       0.55677       0.05780
                        -----------------------------------------
Magnitude (a.u.)       :      0.57711
Magnitude (Debye)      :      1.46690

Rotational constants in cm-1:     0.018725     0.009447     0.006780
Rotational constants in MHz :   561.354285   283.227415   203.257315

                             ****ORCA TERMINATED NORMALLY****
TOTAL RUN TIME: 0 days 0 hours 0 minutes 22 seconds 141 msec
