                         Program Version 4.2.1 -  RELEASE  -
|  1> ! wB97X-D3 SP def2-SVP
|  2> %pal
|  3> nprocs 24
|  4> end
|  5>
|  6> * xyz 0 1
|  7> S 	 -125.562 	 63.1732 	 -58.6306
|  8> C 	 -124.387 	 64.3575 	 -58.0779
|  9> C 	 -123.502 	 63.8095 	 -57.1093
| 10> C 	 -123.746 	 62.3895 	 -56.9134
| 11> C 	 -124.858 	 61.9166 	 -57.5672
| 12> H 	 -123.138 	 61.7022 	 -56.3505
| 13> C 	 -122.389 	 64.6168 	 -56.4982
| 14> H 	 -122.123 	 65.4596 	 -57.2407
| 15> H 	 -121.509 	 63.9493 	 -56.3573
| 16> C 	 -122.778 	 65.1939 	 -55.0967
| 17> H 	 -123.016 	 64.4189 	 -54.3567
| 18> H 	 -121.919 	 65.551 	 -54.6229
| 19> C 	 -123.851 	 66.2395 	 -55.1367
| 20> H 	 -124.686 	 65.8749 	 -55.771
| 21> H 	 -124.214 	 66.432 	 -54.1965
| 22> H 	 -123.482 	 67.1594 	 -55.5748
| 23> S 	 -125.465 	 59.8848 	 -59.3648
| 24> C 	 -125.644 	 58.2484 	 -58.6717
| 25> C 	 -125.688 	 58.2284 	 -57.2944
| 26> C 	 -125.349 	 59.5318 	 -56.7956
| 27> C 	 -125.212 	 60.5318 	 -57.7208
| 28> H 	 -126.069 	 57.3403 	 -56.8008
| 29> C 	 -125.196 	 59.736 	 -55.2933
| 30> H 	 -125.487 	 60.7896 	 -55.0844
| 31> H 	 -124.105 	 59.6338 	 -55.0851
| 32> C 	 -126.079 	 58.9558 	 -54.2916
| 33> H 	 -126.037 	 57.8198 	 -54.5853
| 34> H 	 -127.091 	 59.2773 	 -54.5364
| 35> C 	 -125.799 	 59.2592 	 -52.8177
| 36> H 	 -126.099 	 60.2759 	 -52.5583
| 37> H 	 -124.752 	 59.1652 	 -52.723
| 38> H 	 -126.247 	 58.5035 	 -52.1762
| 39> H 	 -124.143 	 65.3442 	 -58.4473
| 40> H 	 -126.014 	 57.4135 	 -59.2315
| 41> *
| 42>
| 43>                          ****END OF INPUT****

CARTESIAN COORDINATES (ANGSTROEM)
---------------------------------
  S    -125.562000   63.173200  -58.630600
  C    -124.387000   64.357500  -58.077900
  C    -123.502000   63.809500  -57.109300
  C    -123.746000   62.389500  -56.913400
  C    -124.858000   61.916600  -57.567200
  H    -123.138000   61.702200  -56.350500
  C    -122.389000   64.616800  -56.498200
  H    -122.123000   65.459600  -57.240700
  H    -121.509000   63.949300  -56.357300
  C    -122.778000   65.193900  -55.096700
  H    -123.016000   64.418900  -54.356700
  H    -121.919000   65.551000  -54.622900
  C    -123.851000   66.239500  -55.136700
  H    -124.686000   65.874900  -55.771000
  H    -124.214000   66.432000  -54.196500
  H    -123.482000   67.159400  -55.574800
  S    -125.465000   59.884800  -59.364800
  C    -125.644000   58.248400  -58.671700
  C    -125.688000   58.228400  -57.294400
  C    -125.349000   59.531800  -56.795600
  C    -125.212000   60.531800  -57.720800
  H    -126.069000   57.340300  -56.800800
  C    -125.196000   59.736000  -55.293300
  H    -125.487000   60.789600  -55.084400
  H    -124.105000   59.633800  -55.085100
  C    -126.079000   58.955800  -54.291600
  H    -126.037000   57.819800  -54.585300
  H    -127.091000   59.277300  -54.536400
  C    -125.799000   59.259200  -52.817700
  H    -126.099000   60.275900  -52.558300
  H    -124.752000   59.165200  -52.723000
  H    -126.247000   58.503500  -52.176200
  H    -124.143000   65.344200  -58.447300
  H    -126.014000   57.413500  -59.231500

 Total Charge           Charge          ....    0
 Multiplicity           Mult            ....    1
 Number of Electrons    NEL             ....  134
 Basis Dimension        Dim             ....  322

ORBITAL ENERGIES
----------------

  NO   OCC          E(Eh)            E(eV)
   0   2.0000     -88.970208     -2421.0024
   1   2.0000     -88.965233     -2420.8671
   2   2.0000     -10.331054      -281.1223
   3   2.0000     -10.326216      -280.9906
   4   2.0000     -10.319149      -280.7983
   5   2.0000     -10.317929      -280.7651
   6   2.0000     -10.306935      -280.4660
   7   2.0000     -10.304650      -280.4038
   8   2.0000     -10.304562      -280.4014
   9   2.0000     -10.298665      -280.2409
  10   2.0000     -10.296596      -280.1846
  11   2.0000     -10.295433      -280.1530
  12   2.0000     -10.293524      -280.1010
  13   2.0000     -10.281017      -279.7607
  14   2.0000     -10.278898      -279.7030
  15   2.0000     -10.266218      -279.3580
  16   2.0000      -8.083839      -219.9724
  17   2.0000      -8.078992      -219.8405
  18   2.0000      -6.042532      -164.4257
  19   2.0000      -6.038529      -164.3167
  20   2.0000      -6.037704      -164.2943
  21   2.0000      -6.034446      -164.2056
  22   2.0000      -6.033814      -164.1884
  23   2.0000      -6.029408      -164.0685
  24   2.0000      -1.002528       -27.2802
  25   2.0000      -0.977059       -26.5871
  26   2.0000      -0.911747       -24.8099
  27   2.0000      -0.905117       -24.6295
  28   2.0000      -0.871737       -23.7212
  29   2.0000      -0.853102       -23.2141
  30   2.0000      -0.844992       -22.9934
  31   2.0000      -0.817566       -22.2471
  32   2.0000      -0.780912       -21.2497
  33   2.0000      -0.770526       -20.9671
  34   2.0000      -0.711516       -19.3613
  35   2.0000      -0.696966       -18.9654
  36   2.0000      -0.694979       -18.9113
  37   2.0000      -0.655332       -17.8325
  38   2.0000      -0.638927       -17.3861
  39   2.0000      -0.616197       -16.7676
  40   2.0000      -0.592211       -16.1149
  41   2.0000      -0.568813       -15.4782
  42   2.0000      -0.566394       -15.4124
  43   2.0000      -0.555898       -15.1268
  44   2.0000      -0.542314       -14.7571
  45   2.0000      -0.523438       -14.2435
  46   2.0000      -0.520694       -14.1688
  47   2.0000      -0.515364       -14.0238
  48   2.0000      -0.503242       -13.6939
  49   2.0000      -0.497614       -13.5408
  50   2.0000      -0.484639       -13.1877
  51   2.0000      -0.475379       -12.9357
  52   2.0000      -0.471361       -12.8264
  53   2.0000      -0.467215       -12.7136
  54   2.0000      -0.460138       -12.5210
  55   2.0000      -0.451955       -12.2983
  56   2.0000      -0.446206       -12.1419
  57   2.0000      -0.437827       -11.9139
  58   2.0000      -0.430463       -11.7135
  59   2.0000      -0.424278       -11.5452
  60   2.0000      -0.418631       -11.3915
  61   2.0000      -0.412576       -11.2268
  62   2.0000      -0.411150       -11.1880
  63   2.0000      -0.352438        -9.5903
  64   2.0000      -0.331410        -9.0181
  65   2.0000      -0.327092        -8.9006
  66   2.0000      -0.289517        -7.8782
  67   0.0000       0.022500         0.6123
  68   0.0000       0.066066         1.7978
  69   0.0000       0.106874         2.9082
  70   0.0000       0.118431         3.2227
  71   0.0000       0.126215         3.4345

MULLIKEN ATOMIC CHARGES
-----------------------
   0 S :    0.105290
   1 C :   -0.098139
   2 C :   -0.109082
   3 C :    0.035167
   4 C :   -0.150433
   5 H :    0.012928
   6 C :    0.017106
   7 H :    0.041960
   8 H :    0.035790
   9 C :   -0.046442
  10 H :    0.018514
  11 H :    0.006595
  12 C :   -0.009333
  13 H :    0.038707
  14 H :    0.013458
  15 H :    0.020582
  16 S :    0.093331
  17 C :   -0.082550
  18 C :   -0.044976
  19 C :   -0.039053
  20 C :   -0.122090
  21 H :    0.034586
  22 C :    0.008969
  23 H :    0.035311
  24 H :    0.044895
  25 C :   -0.126323
  26 H :    0.039359
  27 H :    0.031111
  28 C :    0.004159
  29 H :    0.038548
  30 H :    0.015323
  31 H :    0.039695
  32 H :    0.046948
  33 H :    0.050088
Sum of atomic charges:    0.0000000

LOEWDIN ATOMIC CHARGES
----------------------
   0 S :    0.386435
   1 C :   -0.200628
   2 C :   -0.059974
   3 C :   -0.050369
   4 C :   -0.181840
   5 H :    0.031090
   6 C :   -0.035217
   7 H :    0.039257
   8 H :    0.035301
   9 C :   -0.041511
  10 H :    0.026350
  11 H :    0.014640
  12 C :   -0.058053
  13 H :    0.031264
  14 H :    0.014984
  15 H :    0.022841
  16 S :    0.371492
  17 C :   -0.164337
  18 C :   -0.070526
  19 C :   -0.055288
  20 C :   -0.190219
  21 H :    0.037711
  22 C :   -0.044164
  23 H :    0.033542
  24 H :    0.030473
  25 C :   -0.048990
  26 H :    0.025766
  27 H :    0.022665
  28 C :   -0.056159
  29 H :    0.029517
  30 H :    0.019471
  31 H :    0.031692
  32 H :    0.029324
  33 H :    0.023460

  Mayer bond orders larger than 0.100000
B(  0-S ,  1-C ) :   1.1294 B(  0-S ,  4-C ) :   1.1202 B(  1-C ,  2-C ) :   1.6060
B(  1-C , 32-H ) :   0.9622 B(  2-C ,  3-C ) :   1.2303 B(  2-C ,  6-C ) :   1.0336
B(  3-C ,  4-C ) :   1.5836 B(  3-C ,  5-H ) :   0.9904 B(  4-C , 20-C ) :   1.0705
B(  6-C ,  7-H ) :   0.9465 B(  6-C ,  8-H ) :   0.9396 B(  6-C ,  9-C ) :   1.0620
B(  9-C , 10-H ) :   0.9532 B(  9-C , 11-H ) :   0.9512 B(  9-C , 12-C ) :   1.0817
B( 12-C , 13-H ) :   0.9718 B( 12-C , 14-H ) :   0.9694 B( 12-C , 15-H ) :   0.9736
B( 16-S , 17-C ) :   1.1453 B( 16-S , 20-C ) :   1.0988 B( 17-C , 18-C ) :   1.6507
B( 17-C , 33-H ) :   0.9593 B( 18-C , 19-C ) :   1.2040 B( 18-C , 21-H ) :   0.9870
B( 19-C , 20-C ) :   1.6433 B( 19-C , 22-C ) :   1.0347 B( 22-C , 23-H ) :   0.9390
B( 22-C , 24-H ) :   0.9297 B( 22-C , 25-C ) :   1.0581 B( 25-C , 26-H ) :   0.9486
B( 25-C , 27-H ) :   0.9591 B( 25-C , 28-C ) :   1.0784 B( 28-C , 29-H ) :   0.9734
B( 28-C , 30-H ) :   0.9752 B( 28-C , 31-H ) :   0.9720

Dispersion correction           -0.013939712
FINAL SINGLE POINT ENERGY     -1339.871635062815

DIPOLE MOMENT
-------------
                                X             Y             Z
Electronic contribution:     -6.08616      -6.23896     -27.40474
Nuclear contribution   :      6.37547       6.17710      28.06425
                        -----------------------------------------
Total Dipole Moment    :      0.28930      -0.06186       0.65951
                        -----------------------------------------
Magnitude (a.u.)       :      0.72283
Magnitude (Debye)      :      1.83728

Rotational constants in cm-1:     0.017364     0.008883     0.006377
Rotational constants in MHz :   520.545429   266.319991   191.191374

                             ****ORCA TERMINATED NORMALLY****
TOTAL RUN TIME: 0 days 0 hours 0 minutes 21 seconds 263 msec
