                         Program Version 4.2.1 -  RELEASE  -
|  1> ! wB97X-D3 SP def2-SVP
|  2> %pal
|  3> nprocs 24
|  4> end
|  5>
|  6> * xyz 0 1
|  7> S 	 -36.3947 	 -2.54051 	 5.11659
|  8> C 	 -37.375 	 -2.47676 	 6.58109
|  9> C 	 -38.026 	 -3.67102 	 6.692
| 10> C 	 -37.8412 	 -4.56793 	 5.54533
| 11> C 	 -37.0477 	 -4.09078 	 4.53717
| 12> H 	 -38.2233 	 -5.56255 	 5.27329
| 13> C 	 -38.9977 	 -4.08254 	 7.81122
| 14> H 	 -38.9247 	 -3.36987 	 8.5889
| 15> H 	 -38.5531 	 -4.99722 	 8.15873
| 16> C 	 -40.49 	 -4.10978 	 7.44076
| 17> H 	 -40.6525 	 -4.80103 	 6.60435
| 18> H 	 -41.1528 	 -4.525 	 8.27514
| 19> C 	 -41.0842 	 -2.79308 	 7.02397
| 20> H 	 -42.0294 	 -2.9636 	 6.38793
| 21> H 	 -41.1489 	 -2.09584 	 7.82944
| 22> H 	 -40.3789 	 -2.29752 	 6.43208
| 23> S 	 -35.2978 	 -5.21713 	 2.61516
| 24> C 	 -35.9271 	 -5.32442 	 0.996979
| 25> C 	 -37.2164 	 -4.93188 	 0.852013
| 26> C 	 -37.814 	 -4.53592 	 2.12608
| 27> C 	 -36.8888 	 -4.64535 	 3.17495
| 28> H 	 -37.7205 	 -5.01061 	 -0.0837129
| 29> C 	 -39.2772 	 -4.06303 	 2.29329
| 30> H 	 -39.6991 	 -3.75105 	 1.31569
| 31> H 	 -39.3812 	 -3.15378 	 2.91241
| 32> C 	 -40.3559 	 -5.09301 	 2.75913
| 33> H 	 -39.9183 	 -5.6491 	 3.53971
| 34> H 	 -40.7186 	 -5.78447 	 2.05894
| 35> C 	 -41.6521 	 -4.39952 	 3.20269
| 36> H 	 -41.9857 	 -3.7795 	 2.42302
| 37> H 	 -41.6312 	 -3.79776 	 4.0905
| 38> H 	 -42.4548 	 -5.07133 	 3.243
| 39> H 	 -37.3995 	 -1.93879 	 7.54919
| 40> H 	 -35.3663 	 -5.5251 	 0.0834118
| 41> *
| 42>
| 43>                          ****END OF INPUT****

CARTESIAN COORDINATES (ANGSTROEM)
---------------------------------
  S    -36.394700   -2.540510    5.116590
  C    -37.375000   -2.476760    6.581090
  C    -38.026000   -3.671020    6.692000
  C    -37.841200   -4.567930    5.545330
  C    -37.047700   -4.090780    4.537170
  H    -38.223300   -5.562550    5.273290
  C    -38.997700   -4.082540    7.811220
  H    -38.924700   -3.369870    8.588900
  H    -38.553100   -4.997220    8.158730
  C    -40.490000   -4.109780    7.440760
  H    -40.652500   -4.801030    6.604350
  H    -41.152800   -4.525000    8.275140
  C    -41.084200   -2.793080    7.023970
  H    -42.029400   -2.963600    6.387930
  H    -41.148900   -2.095840    7.829440
  H    -40.378900   -2.297520    6.432080
  S    -35.297800   -5.217130    2.615160
  C    -35.927100   -5.324420    0.996979
  C    -37.216400   -4.931880    0.852013
  C    -37.814000   -4.535920    2.126080
  C    -36.888800   -4.645350    3.174950
  H    -37.720500   -5.010610   -0.083713
  C    -39.277200   -4.063030    2.293290
  H    -39.699100   -3.751050    1.315690
  H    -39.381200   -3.153780    2.912410
  C    -40.355900   -5.093010    2.759130
  H    -39.918300   -5.649100    3.539710
  H    -40.718600   -5.784470    2.058940
  C    -41.652100   -4.399520    3.202690
  H    -41.985700   -3.779500    2.423020
  H    -41.631200   -3.797760    4.090500
  H    -42.454800   -5.071330    3.243000
  H    -37.399500   -1.938790    7.549190
  H    -35.366300   -5.525100    0.083412

 Total Charge           Charge          ....    0
 Multiplicity           Mult            ....    1
 Number of Electrons    NEL             ....  134
 Basis Dimension        Dim             ....  322

ORBITAL ENERGIES
----------------

  NO   OCC          E(Eh)            E(eV)
   0   2.0000     -88.972152     -2421.0553
   1   2.0000     -88.963333     -2420.8154
   2   2.0000     -10.334597      -281.2187
   3   2.0000     -10.332280      -281.1556
   4   2.0000     -10.319307      -280.8026
   5   2.0000     -10.318023      -280.7677
   6   2.0000     -10.316994      -280.7397
   7   2.0000     -10.304497      -280.3996
   8   2.0000     -10.299615      -280.2668
   9   2.0000     -10.296059      -280.1700
  10   2.0000     -10.295944      -280.1669
  11   2.0000     -10.290683      -280.0237
  12   2.0000     -10.290465      -280.0178
  13   2.0000     -10.280384      -279.7435
  14   2.0000     -10.272974      -279.5418
  15   2.0000     -10.267475      -279.3922
  16   2.0000      -8.086471      -220.0441
  17   2.0000      -8.077158      -219.7906
  18   2.0000      -6.045025      -164.4935
  19   2.0000      -6.041128      -164.3875
  20   2.0000      -6.037105      -164.2780
  21   2.0000      -6.036028      -164.2487
  22   2.0000      -6.031665      -164.1300
  23   2.0000      -6.027616      -164.0198
  24   2.0000      -1.002701       -27.2849
  25   2.0000      -0.983148       -26.7528
  26   2.0000      -0.912533       -24.8313
  27   2.0000      -0.906822       -24.6759
  28   2.0000      -0.872977       -23.7549
  29   2.0000      -0.853677       -23.2297
  30   2.0000      -0.840518       -22.8717
  31   2.0000      -0.821535       -22.3551
  32   2.0000      -0.784376       -21.3440
  33   2.0000      -0.776117       -21.1192
  34   2.0000      -0.712886       -19.3986
  35   2.0000      -0.700539       -19.0626
  36   2.0000      -0.692726       -18.8500
  37   2.0000      -0.659492       -17.9457
  38   2.0000      -0.639981       -17.4148
  39   2.0000      -0.613200       -16.6860
  40   2.0000      -0.598289       -16.2803
  41   2.0000      -0.571029       -15.5385
  42   2.0000      -0.568526       -15.4704
  43   2.0000      -0.556487       -15.1428
  44   2.0000      -0.537179       -14.6174
  45   2.0000      -0.519137       -14.1264
  46   2.0000      -0.519080       -14.1249
  47   2.0000      -0.513477       -13.9724
  48   2.0000      -0.507968       -13.8225
  49   2.0000      -0.502129       -13.6636
  50   2.0000      -0.480345       -13.0708
  51   2.0000      -0.479121       -13.0376
  52   2.0000      -0.474916       -12.9231
  53   2.0000      -0.463852       -12.6221
  54   2.0000      -0.457849       -12.4587
  55   2.0000      -0.455354       -12.3908
  56   2.0000      -0.443511       -12.0685
  57   2.0000      -0.438877       -11.9424
  58   2.0000      -0.431044       -11.7293
  59   2.0000      -0.430618       -11.7177
  60   2.0000      -0.420390       -11.4394
  61   2.0000      -0.413450       -11.2506
  62   2.0000      -0.402952       -10.9649
  63   2.0000      -0.338347        -9.2069
  64   2.0000      -0.334847        -9.1117
  65   2.0000      -0.325830        -8.8663
  66   2.0000      -0.312909        -8.5147
  67   0.0000       0.034791         0.9467
  68   0.0000       0.057325         1.5599
  69   0.0000       0.109769         2.9870
  70   0.0000       0.116848         3.1796
  71   0.0000       0.123879         3.3709

MULLIKEN ATOMIC CHARGES
-----------------------
   0 S :    0.098905
   1 C :   -0.085664
   2 C :   -0.162135
   3 C :    0.025389
   4 C :   -0.146979
   5 H :    0.024489
   6 C :    0.113462
   7 H :   -0.006456
   8 H :    0.035987
   9 C :   -0.083973
  10 H :    0.022777
  11 H :    0.040815
  12 C :   -0.041008
  13 H :    0.060349
  14 H :    0.016551
  15 H :    0.013499
  16 S :    0.121026
  17 C :   -0.079747
  18 C :   -0.022844
  19 C :   -0.006447
  20 C :   -0.203147
  21 H :    0.014832
  22 C :    0.039393
  23 H :    0.015690
  24 H :    0.048408
  25 C :   -0.019013
  26 H :    0.003418
  27 H :    0.017498
  28 C :   -0.019491
  29 H :    0.004514
  30 H :    0.026130
  31 H :    0.011677
  32 H :    0.061827
  33 H :    0.060269
Sum of atomic charges:   -0.0000000

LOEWDIN ATOMIC CHARGES
----------------------
   0 S :    0.381792
   1 C :   -0.210833
   2 C :   -0.066754
   3 C :   -0.069152
   4 C :   -0.185335
   5 H :    0.034934
   6 C :   -0.026682
   7 H :    0.018048
   8 H :    0.034149
   9 C :   -0.045677
  10 H :    0.020673
  11 H :    0.031512
  12 C :   -0.069620
  13 H :    0.040724
  14 H :    0.020770
  15 H :    0.017144
  16 S :    0.401821
  17 C :   -0.183160
  18 C :   -0.069028
  19 C :   -0.035278
  20 C :   -0.201883
  21 H :    0.030502
  22 C :   -0.033958
  23 H :    0.031089
  24 H :    0.038657
  25 C :   -0.026548
  26 H :    0.010875
  27 H :    0.019731
  28 C :   -0.056958
  29 H :    0.020287
  30 H :    0.021662
  31 H :    0.021013
  32 H :    0.049857
  33 H :    0.035628

  Mayer bond orders larger than 0.100000
B(  0-S ,  1-C ) :   1.1153 B(  0-S ,  4-C ) :   1.1145 B(  1-C ,  2-C ) :   1.6577
B(  1-C , 32-H ) :   0.9511 B(  2-C ,  3-C ) :   1.1756 B(  2-C ,  6-C ) :   1.0247
B(  3-C ,  4-C ) :   1.6412 B(  3-C ,  5-H ) :   0.9858 B(  4-C , 20-C ) :   1.0332
B(  6-C ,  7-H ) :   0.9386 B(  6-C ,  8-H ) :   0.9390 B(  6-C ,  9-C ) :   1.0610
B(  9-C , 10-H ) :   0.9579 B(  9-C , 11-H ) :   0.9555 B(  9-C , 12-C ) :   1.0763
B( 12-C , 13-H ) :   0.9664 B( 12-C , 14-H ) :   0.9669 B( 12-C , 15-H ) :   0.9723
B( 16-S , 17-C ) :   1.1482 B( 16-S , 20-C ) :   1.1251 B( 17-C , 18-C ) :   1.6529
B( 17-C , 33-H ) :   0.9570 B( 18-C , 19-C ) :   1.2279 B( 18-C , 21-H ) :   0.9903
B( 19-C , 20-C ) :   1.6076 B( 19-C , 22-C ) :   1.0407 B( 22-C , 23-H ) :   0.9350
B( 22-C , 24-H ) :   0.9398 B( 22-C , 25-C ) :   1.0525 B( 25-C , 26-H ) :   0.9564
B( 25-C , 27-H ) :   0.9553 B( 25-C , 28-C ) :   1.0862 B( 28-C , 29-H ) :   0.9656
B( 28-C , 30-H ) :   0.9731 B( 28-C , 31-H ) :   0.9702

Dispersion correction           -0.016180395
FINAL SINGLE POINT ENERGY     -1339.852137360905

DIPOLE MOMENT
-------------
                                X             Y             Z
Electronic contribution:     31.32230      -0.10781      -7.69019
Nuclear contribution   :    -31.97263      -0.08653       7.55901
                        -----------------------------------------
Total Dipole Moment    :     -0.65033      -0.19434      -0.13118
                        -----------------------------------------
Magnitude (a.u.)       :      0.69131
Magnitude (Debye)      :      1.75717

Rotational constants in cm-1:     0.019216     0.010023     0.007348
Rotational constants in MHz :   576.067142   300.492970   220.300787

                             ****ORCA TERMINATED NORMALLY****
TOTAL RUN TIME: 0 days 0 hours 0 minutes 23 seconds 118 msec
