                         Program Version 4.2.1 -  RELEASE  -
|  1> ! wB97X-D3 SP def2-SVP
|  2> %pal
|  3> nprocs 24
|  4> end
|  5>
|  6> * xyz 0 1
|  7> S 	 -41.1715 	 17.0147 	 -101.977
|  8> C 	 -40.4888 	 15.8028 	 -100.859
|  9> C 	 -41.4517 	 15.2809 	 -99.9963
| 10> C 	 -42.749 	 15.8039 	 -100.277
| 11> C 	 -42.7638 	 16.8226 	 -101.209
| 12> H 	 -43.6452 	 15.442 	 -99.7316
| 13> C 	 -41.2381 	 14.2174 	 -98.9635
| 14> H 	 -40.3987 	 13.6289 	 -99.2886
| 15> H 	 -42.1102 	 13.5853 	 -98.8964
| 16> C 	 -40.9415 	 14.8195 	 -97.5927
| 17> H 	 -41.7743 	 15.531 	 -97.4314
| 18> H 	 -41.0827 	 14.1674 	 -96.7257
| 19> C 	 -39.5599 	 15.5911 	 -97.5017
| 20> H 	 -39.4297 	 16.0835 	 -96.5468
| 21> H 	 -38.6938 	 14.9324 	 -97.5451
| 22> H 	 -39.4572 	 16.4919 	 -98.1473
| 23> S 	 -43.7201 	 19.4255 	 -101.177
| 24> C 	 -45.3763 	 19.7201 	 -101.797
| 25> C 	 -45.9784 	 18.5362 	 -102.164
| 26> C 	 -45.1469 	 17.4302 	 -101.982
| 27> C 	 -43.8837 	 17.7147 	 -101.498
| 28> H 	 -47.022 	 18.5418 	 -102.545
| 29> C 	 -45.5365 	 16.0594 	 -102.466
| 30> H 	 -44.6163 	 15.592 	 -102.678
| 31> H 	 -46.1371 	 16.1256 	 -103.4
| 32> C 	 -46.2868 	 15.1965 	 -101.509
| 33> H 	 -47.3315 	 15.591 	 -101.391
| 34> H 	 -45.8767 	 15.3134 	 -100.57
| 35> C 	 -46.2367 	 13.7556 	 -101.881
| 36> H 	 -45.2505 	 13.3416 	 -101.877
| 37> H 	 -46.7176 	 13.3899 	 -102.76
| 38> H 	 -46.7233 	 13.2816 	 -101.087
| 39> H 	 -39.483 	 15.5213 	 -100.848
| 40> H 	 -45.8742 	 20.6768 	 -101.704
| 41> *
| 42>
| 43>                          ****END OF INPUT****

CARTESIAN COORDINATES (ANGSTROEM)
---------------------------------
  S    -41.171500   17.014700  -101.977000
  C    -40.488800   15.802800  -100.859000
  C    -41.451700   15.280900  -99.996300
  C    -42.749000   15.803900  -100.277000
  C    -42.763800   16.822600  -101.209000
  H    -43.645200   15.442000  -99.731600
  C    -41.238100   14.217400  -98.963500
  H    -40.398700   13.628900  -99.288600
  H    -42.110200   13.585300  -98.896400
  C    -40.941500   14.819500  -97.592700
  H    -41.774300   15.531000  -97.431400
  H    -41.082700   14.167400  -96.725700
  C    -39.559900   15.591100  -97.501700
  H    -39.429700   16.083500  -96.546800
  H    -38.693800   14.932400  -97.545100
  H    -39.457200   16.491900  -98.147300
  S    -43.720100   19.425500  -101.177000
  C    -45.376300   19.720100  -101.797000
  C    -45.978400   18.536200  -102.164000
  C    -45.146900   17.430200  -101.982000
  C    -43.883700   17.714700  -101.498000
  H    -47.022000   18.541800  -102.545000
  C    -45.536500   16.059400  -102.466000
  H    -44.616300   15.592000  -102.678000
  H    -46.137100   16.125600  -103.400000
  C    -46.286800   15.196500  -101.509000
  H    -47.331500   15.591000  -101.391000
  H    -45.876700   15.313400  -100.570000
  C    -46.236700   13.755600  -101.881000
  H    -45.250500   13.341600  -101.877000
  H    -46.717600   13.389900  -102.760000
  H    -46.723300   13.281600  -101.087000
  H    -39.483000   15.521300  -100.848000
  H    -45.874200   20.676800  -101.704000

 Total Charge           Charge          ....    0
 Multiplicity           Mult            ....    1
 Number of Electrons    NEL             ....  134
 Basis Dimension        Dim             ....  322

ORBITAL ENERGIES
----------------

  NO   OCC          E(Eh)            E(eV)
   0   2.0000     -88.969587     -2420.9855
   1   2.0000     -88.964496     -2420.8470
   2   2.0000     -10.333018      -281.1757
   3   2.0000     -10.324079      -280.9325
   4   2.0000     -10.318979      -280.7937
   5   2.0000     -10.315443      -280.6975
   6   2.0000     -10.301349      -280.3140
   7   2.0000     -10.298513      -280.2368
   8   2.0000     -10.294725      -280.1337
   9   2.0000     -10.293537      -280.1014
  10   2.0000     -10.293340      -280.0960
  11   2.0000     -10.290942      -280.0308
  12   2.0000     -10.280863      -279.7565
  13   2.0000     -10.276960      -279.6503
  14   2.0000     -10.275789      -279.6184
  15   2.0000     -10.264130      -279.3012
  16   2.0000      -8.083154      -219.9538
  17   2.0000      -8.078687      -219.8322
  18   2.0000      -6.041751      -164.4044
  19   2.0000      -6.037871      -164.2988
  20   2.0000      -6.037179      -164.2800
  21   2.0000      -6.033848      -164.1894
  22   2.0000      -6.033286      -164.1741
  23   2.0000      -6.029476      -164.0704
  24   2.0000      -1.003870       -27.3167
  25   2.0000      -0.981248       -26.7011
  26   2.0000      -0.918341       -24.9893
  27   2.0000      -0.912267       -24.8241
  28   2.0000      -0.865298       -23.5460
  29   2.0000      -0.854478       -23.2515
  30   2.0000      -0.842952       -22.9379
  31   2.0000      -0.813732       -22.1428
  32   2.0000      -0.785583       -21.3768
  33   2.0000      -0.774664       -21.0797
  34   2.0000      -0.709458       -19.3053
  35   2.0000      -0.701965       -19.1014
  36   2.0000      -0.698021       -18.9941
  37   2.0000      -0.661932       -18.0121
  38   2.0000      -0.641234       -17.4489
  39   2.0000      -0.621341       -16.9076
  40   2.0000      -0.597389       -16.2558
  41   2.0000      -0.572592       -15.5810
  42   2.0000      -0.567424       -15.4404
  43   2.0000      -0.548841       -14.9347
  44   2.0000      -0.542590       -14.7646
  45   2.0000      -0.527833       -14.3631
  46   2.0000      -0.517883       -14.0923
  47   2.0000      -0.510872       -13.9015
  48   2.0000      -0.505821       -13.7641
  49   2.0000      -0.495610       -13.4862
  50   2.0000      -0.490269       -13.3409
  51   2.0000      -0.478785       -13.0284
  52   2.0000      -0.472273       -12.8512
  53   2.0000      -0.465162       -12.6577
  54   2.0000      -0.459231       -12.4963
  55   2.0000      -0.446032       -12.1371
  56   2.0000      -0.441975       -12.0268
  57   2.0000      -0.436264       -11.8714
  58   2.0000      -0.434531       -11.8242
  59   2.0000      -0.427677       -11.6377
  60   2.0000      -0.418727       -11.3941
  61   2.0000      -0.417170       -11.3518
  62   2.0000      -0.415357       -11.3024
  63   2.0000      -0.344555        -9.3758
  64   2.0000      -0.331499        -9.0206
  65   2.0000      -0.329341        -8.9618
  66   2.0000      -0.294777        -8.0213
  67   0.0000       0.031000         0.8436
  68   0.0000       0.061543         1.6747
  69   0.0000       0.106916         2.9093
  70   0.0000       0.117810         3.2058
  71   0.0000       0.133843         3.6421

MULLIKEN ATOMIC CHARGES
-----------------------
   0 S :    0.113732
   1 C :   -0.099015
   2 C :   -0.114813
   3 C :    0.036594
   4 C :   -0.171256
   5 H :    0.023909
   6 C :    0.110444
   7 H :    0.018812
   8 H :    0.023630
   9 C :   -0.073527
  10 H :    0.022168
  11 H :    0.032744
  12 C :   -0.071607
  13 H :    0.022125
  14 H :    0.033496
  15 H :    0.048766
  16 S :    0.102418
  17 C :   -0.104752
  18 C :   -0.039860
  19 C :   -0.019656
  20 C :   -0.159222
  21 H :    0.034195
  22 C :    0.077431
  23 H :    0.007423
  24 H :    0.026444
  25 C :   -0.037851
  26 H :    0.021784
  27 H :   -0.008744
  28 C :    0.002136
  29 H :    0.020924
  30 H :    0.025269
  31 H :    0.009127
  32 H :    0.026908
  33 H :    0.059822
Sum of atomic charges:    0.0000000

LOEWDIN ATOMIC CHARGES
----------------------
   0 S :    0.385675
   1 C :   -0.174180
   2 C :   -0.058838
   3 C :   -0.059545
   4 C :   -0.187563
   5 H :    0.035722
   6 C :   -0.028446
   7 H :    0.027164
   8 H :    0.031432
   9 C :   -0.040769
  10 H :    0.026360
  11 H :    0.024604
  12 C :   -0.077058
  13 H :    0.026668
  14 H :    0.023285
  15 H :    0.033243
  16 S :    0.391640
  17 C :   -0.170462
  18 C :   -0.073685
  19 C :   -0.059650
  20 C :   -0.203000
  21 H :    0.041436
  22 C :   -0.029246
  23 H :    0.022656
  24 H :    0.033411
  25 C :   -0.035469
  26 H :    0.027455
  27 H :    0.010058
  28 C :   -0.057199
  29 H :    0.024792
  30 H :    0.022887
  31 H :    0.022988
  32 H :    0.015036
  33 H :    0.028600

  Mayer bond orders larger than 0.100000
B(  0-S ,  1-C ) :   1.1270 B(  0-S ,  4-C ) :   1.1429 B(  1-C ,  2-C ) :   1.6159
B(  1-C , 32-H ) :   0.9725 B(  2-C ,  3-C ) :   1.2514 B(  2-C ,  6-C ) :   1.0256
B(  3-C ,  4-C ) :   1.5788 B(  3-C ,  5-H ) :   0.9795 B(  4-C , 20-C ) :   1.0313
B(  6-C ,  7-H ) :   0.9418 B(  6-C ,  8-H ) :   0.9380 B(  6-C ,  9-C ) :   1.0602
B(  9-C , 10-H ) :   0.9546 B(  9-C , 11-H ) :   0.9599 B(  9-C , 12-C ) :   1.0704
B( 12-C , 13-H ) :   0.9716 B( 12-C , 14-H ) :   0.9776 B( 12-C , 15-H ) :   0.9724
B( 16-S , 17-C ) :   1.1522 B( 16-S , 20-C ) :   1.1398 B( 17-C , 18-C ) :   1.5971
B( 17-C , 20-C ) :   0.1037 B( 17-C , 33-H ) :   0.9673 B( 18-C , 19-C ) :   1.2576
B( 18-C , 21-H ) :   0.9855 B( 19-C , 20-C ) :   1.5896 B( 19-C , 22-C ) :   1.0453
B( 22-C , 23-H ) :   0.9242 B( 22-C , 24-H ) :   0.9371 B( 22-C , 25-C ) :   1.0788
B( 25-C , 26-H ) :   0.9436 B( 25-C , 27-H ) :   0.9451 B( 25-C , 28-C ) :   1.0978
B( 28-C , 29-H ) :   0.9680 B( 28-C , 30-H ) :   0.9731 B( 28-C , 31-H ) :   0.9669

Dispersion correction           -0.014933210
FINAL SINGLE POINT ENERGY     -1339.880266513847

DIPOLE MOMENT
-------------
                                X             Y             Z
Electronic contribution:      4.20465      20.78895     -11.59288
Nuclear contribution   :     -4.50536     -21.28397      11.95180
                        -----------------------------------------
Total Dipole Moment    :     -0.30071      -0.49503       0.35892
                        -----------------------------------------
Magnitude (a.u.)       :      0.68140
Magnitude (Debye)      :      1.73198

Rotational constants in cm-1:     0.018312     0.009041     0.007205
Rotational constants in MHz :   548.971725   271.030715   216.000966

                             ****ORCA TERMINATED NORMALLY****
TOTAL RUN TIME: 0 days 0 hours 0 minutes 22 seconds 108 msec
