                         Program Version 4.2.1 -  RELEASE  -
|  1> ! wB97X-D3 SP def2-SVP
|  2> %pal
|  3> nprocs 24
|  4> end
|  5>
|  6> * xyz 0 1
|  7> S 	 -140.197 	 7.56856 	 4.33362
|  8> C 	 -139.509 	 6.61164 	 5.6303
|  9> C 	 -138.354 	 7.26499 	 6.09392
| 10> C 	 -138.056 	 8.50502 	 5.37782
| 11> C 	 -138.969 	 8.78637 	 4.45001
| 12> H 	 -137.239 	 9.13676 	 5.42158
| 13> C 	 -137.395 	 6.64301 	 7.05881
| 14> H 	 -136.326 	 6.55682 	 6.62159
| 15> H 	 -137.74 	 5.59693 	 7.30099
| 16> C 	 -137.259 	 7.46405 	 8.39009
| 17> H 	 -136.341 	 7.18616 	 8.97081
| 18> H 	 -137.118 	 8.49847 	 8.12626
| 19> C 	 -138.433 	 7.34743 	 9.36408
| 20> H 	 -139.451 	 7.64498 	 8.97515
| 21> H 	 -138.418 	 6.34875 	 9.686
| 22> H 	 -138.214 	 8.07225 	 10.0882
| 23> S 	 -138.6 	 9.5318 	 1.85988
| 24> C 	 -138.542 	 11.185 	 1.40488
| 25> C 	 -138.643 	 11.9859 	 2.57147
| 26> C 	 -138.74 	 11.2436 	 3.79962
| 27> C 	 -138.781 	 9.88052 	 3.51066
| 28> H 	 -138.685 	 12.999 	 2.52699
| 29> C 	 -138.888 	 11.927 	 5.1825
| 30> H 	 -138.48 	 12.9037 	 5.17304
| 31> H 	 -138.379 	 11.2826 	 5.94742
| 32> C 	 -140.354 	 11.9371 	 5.65229
| 33> H 	 -140.81 	 10.945 	 5.58835
| 34> H 	 -140.934 	 12.6934 	 5.0874
| 35> C 	 -140.631 	 12.527 	 6.99399
| 36> H 	 -140.7 	 11.7469 	 7.73075
| 37> H 	 -141.558 	 13.0071 	 7.1474
| 38> H 	 -139.874 	 13.2054 	 7.41658
| 39> H 	 -139.859 	 5.62759 	 5.91926
| 40> H 	 -138.601 	 11.6071 	 0.430612
| 41> *
| 42>
| 43>                          ****END OF INPUT****

CARTESIAN COORDINATES (ANGSTROEM)
---------------------------------
  S    -140.197000    7.568560    4.333620
  C    -139.509000    6.611640    5.630300
  C    -138.354000    7.264990    6.093920
  C    -138.056000    8.505020    5.377820
  C    -138.969000    8.786370    4.450010
  H    -137.239000    9.136760    5.421580
  C    -137.395000    6.643010    7.058810
  H    -136.326000    6.556820    6.621590
  H    -137.740000    5.596930    7.300990
  C    -137.259000    7.464050    8.390090
  H    -136.341000    7.186160    8.970810
  H    -137.118000    8.498470    8.126260
  C    -138.433000    7.347430    9.364080
  H    -139.451000    7.644980    8.975150
  H    -138.418000    6.348750    9.686000
  H    -138.214000    8.072250   10.088200
  S    -138.600000    9.531800    1.859880
  C    -138.542000   11.185000    1.404880
  C    -138.643000   11.985900    2.571470
  C    -138.740000   11.243600    3.799620
  C    -138.781000    9.880520    3.510660
  H    -138.685000   12.999000    2.526990
  C    -138.888000   11.927000    5.182500
  H    -138.480000   12.903700    5.173040
  H    -138.379000   11.282600    5.947420
  C    -140.354000   11.937100    5.652290
  H    -140.810000   10.945000    5.588350
  H    -140.934000   12.693400    5.087400
  C    -140.631000   12.527000    6.993990
  H    -140.700000   11.746900    7.730750
  H    -141.558000   13.007100    7.147400
  H    -139.874000   13.205400    7.416580
  H    -139.859000    5.627590    5.919260
  H    -138.601000   11.607100    0.430612

 Total Charge           Charge          ....    0
 Multiplicity           Mult            ....    1
 Number of Electrons    NEL             ....  134
 Basis Dimension        Dim             ....  322

ORBITAL ENERGIES
----------------

  NO   OCC          E(Eh)            E(eV)
   0   2.0000     -88.968570     -2420.9579
   1   2.0000     -88.965158     -2420.8650
   2   2.0000     -10.321979      -280.8753
   3   2.0000     -10.320894      -280.8458
   4   2.0000     -10.319690      -280.8130
   5   2.0000     -10.314626      -280.6752
   6   2.0000     -10.307623      -280.4847
   7   2.0000     -10.304694      -280.4050
   8   2.0000     -10.301344      -280.3138
   9   2.0000     -10.297280      -280.2032
  10   2.0000     -10.289528      -279.9923
  11   2.0000     -10.287354      -279.9331
  12   2.0000     -10.287010      -279.9238
  13   2.0000     -10.281646      -279.7778
  14   2.0000     -10.270615      -279.4776
  15   2.0000     -10.266333      -279.3611
  16   2.0000      -8.084401      -219.9877
  17   2.0000      -8.080196      -219.8733
  18   2.0000      -6.042769      -164.4321
  19   2.0000      -6.038773      -164.3234
  20   2.0000      -6.038537      -164.3169
  21   2.0000      -6.035465      -164.2334
  22   2.0000      -6.034546      -164.2083
  23   2.0000      -6.030972      -164.1111
  24   2.0000      -1.013883       -27.5892
  25   2.0000      -0.987300       -26.8658
  26   2.0000      -0.910314       -24.7709
  27   2.0000      -0.907374       -24.6909
  28   2.0000      -0.873091       -23.7580
  29   2.0000      -0.856074       -23.2950
  30   2.0000      -0.847545       -23.0629
  31   2.0000      -0.817647       -22.2493
  32   2.0000      -0.784333       -21.3428
  33   2.0000      -0.770539       -20.9674
  34   2.0000      -0.704503       -19.1705
  35   2.0000      -0.691867       -18.8266
  36   2.0000      -0.690218       -18.7818
  37   2.0000      -0.668333       -18.1863
  38   2.0000      -0.648964       -17.6592
  39   2.0000      -0.620349       -16.8806
  40   2.0000      -0.595672       -16.2091
  41   2.0000      -0.573584       -15.6080
  42   2.0000      -0.567050       -15.4302
  43   2.0000      -0.547230       -14.8909
  44   2.0000      -0.540615       -14.7109
  45   2.0000      -0.527600       -14.3567
  46   2.0000      -0.522227       -14.2105
  47   2.0000      -0.515717       -14.0334
  48   2.0000      -0.508414       -13.8346
  49   2.0000      -0.503046       -13.6886
  50   2.0000      -0.495006       -13.4698
  51   2.0000      -0.486521       -13.2389
  52   2.0000      -0.468044       -12.7361
  53   2.0000      -0.465574       -12.6689
  54   2.0000      -0.461953       -12.5704
  55   2.0000      -0.448074       -12.1927
  56   2.0000      -0.441926       -12.0254
  57   2.0000      -0.432739       -11.7754
  58   2.0000      -0.431905       -11.7527
  59   2.0000      -0.428017       -11.6469
  60   2.0000      -0.421297       -11.4641
  61   2.0000      -0.413884       -11.2623
  62   2.0000      -0.397346       -10.8123
  63   2.0000      -0.345907        -9.4126
  64   2.0000      -0.331769        -9.0279
  65   2.0000      -0.323658        -8.8072
  66   2.0000      -0.299631        -8.1534
  67   0.0000       0.035824         0.9748
  68   0.0000       0.071602         1.9484
  69   0.0000       0.115698         3.1483
  70   0.0000       0.124048         3.3755
  71   0.0000       0.130454         3.5498

MULLIKEN ATOMIC CHARGES
-----------------------
   0 S :    0.108236
   1 C :   -0.123476
   2 C :   -0.063310
   3 C :    0.064154
   4 C :   -0.153779
   5 H :   -0.005540
   6 C :    0.021202
   7 H :    0.054608
   8 H :    0.021488
   9 C :   -0.104929
  10 H :    0.032300
  11 H :    0.018980
  12 C :   -0.020320
  13 H :    0.041063
  14 H :    0.025368
  15 H :    0.024172
  16 S :    0.142529
  17 C :   -0.086946
  18 C :   -0.011575
  19 C :   -0.030110
  20 C :   -0.196780
  21 H :   -0.025497
  22 C :    0.115677
  23 H :    0.014230
  24 H :    0.024649
  25 C :   -0.088715
  26 H :    0.044873
  27 H :    0.027279
  28 C :   -0.028502
  29 H :    0.010180
  30 H :    0.019989
  31 H :    0.022019
  32 H :    0.055417
  33 H :    0.051067
Sum of atomic charges:   -0.0000000

LOEWDIN ATOMIC CHARGES
----------------------
   0 S :    0.403356
   1 C :   -0.197274
   2 C :   -0.058439
   3 C :   -0.052029
   4 C :   -0.198571
   5 H :    0.022915
   6 C :   -0.042593
   7 H :    0.042806
   8 H :    0.028845
   9 C :   -0.043520
  10 H :    0.027527
  11 H :    0.015516
  12 C :   -0.059539
  13 H :    0.031673
  14 H :    0.017572
  15 H :    0.021832
  16 S :    0.456244
  17 C :   -0.204062
  18 C :   -0.054135
  19 C :   -0.050885
  20 C :   -0.221307
  21 H :    0.009717
  22 C :   -0.021855
  23 H :    0.024619
  24 H :    0.034400
  25 C :   -0.045684
  26 H :    0.029814
  27 H :    0.028608
  28 C :   -0.072000
  29 H :    0.020874
  30 H :    0.020861
  31 H :    0.026517
  32 H :    0.031283
  33 H :    0.026917

  Mayer bond orders larger than 0.100000
B(  0-S ,  1-C ) :   1.1260 B(  0-S ,  4-C ) :   1.1373 B(  1-C ,  2-C ) :   1.6105
B(  1-C , 32-H ) :   0.9731 B(  2-C ,  3-C ) :   1.1883 B(  2-C ,  6-C ) :   1.0407
B(  3-C ,  4-C ) :   1.6202 B(  3-C ,  5-H ) :   0.9999 B(  4-C , 20-C ) :   1.0111
B(  6-C ,  7-H ) :   0.9436 B(  6-C ,  8-H ) :   0.9465 B(  6-C ,  9-C ) :   1.0512
B(  9-C , 10-H ) :   0.9573 B(  9-C , 11-H ) :   0.9616 B(  9-C , 12-C ) :   1.0741
B( 12-C , 13-H ) :   0.9754 B( 12-C , 14-H ) :   0.9774 B( 12-C , 15-H ) :   0.9723
B( 16-S , 17-C ) :   1.1712 B( 16-S , 20-C ) :   1.1863 B( 17-C , 18-C ) :   1.5613
B( 17-C , 20-C ) :   0.1032 B( 17-C , 33-H ) :   0.9744 B( 18-C , 19-C ) :   1.2858
B( 18-C , 21-H ) :   1.0007 B( 19-C , 20-C ) :   1.5502 B( 19-C , 22-C ) :   1.0484
B( 22-C , 23-H ) :   0.9288 B( 22-C , 24-H ) :   0.9291 B( 22-C , 25-C ) :   1.0748
B( 25-C , 26-H ) :   0.9588 B( 25-C , 27-H ) :   0.9612 B( 25-C , 28-C ) :   1.0711
B( 28-C , 29-H ) :   0.9691 B( 28-C , 30-H ) :   0.9782 B( 28-C , 31-H ) :   0.9696

Dispersion correction           -0.014598254
FINAL SINGLE POINT ENERGY     -1339.865640215203

DIPOLE MOMENT
-------------
                                X             Y             Z
Electronic contribution:     -1.60617      -7.20285     -27.97889
Nuclear contribution   :      1.80761       7.43182      28.39784
                        -----------------------------------------
Total Dipole Moment    :      0.20144       0.22896       0.41895
                        -----------------------------------------
Magnitude (a.u.)       :      0.51819
Magnitude (Debye)      :      1.31714

Rotational constants in cm-1:     0.018177     0.009415     0.007350
Rotational constants in MHz :   544.918093   282.259637   220.350019

                             ****ORCA TERMINATED NORMALLY****
TOTAL RUN TIME: 0 days 0 hours 0 minutes 21 seconds 999 msec
