                         Program Version 4.2.1 -  RELEASE  -
|  1> ! wB97X-D3 SP def2-SVP
|  2> %pal
|  3> nprocs 24
|  4> end
|  5>
|  6> * xyz 0 1
|  7> S 	 -51.7209 	 -45.1993 	 -76.3167
|  8> C 	 -52.7146 	 -45.3823 	 -77.7816
|  9> C 	 -52.6437 	 -44.254 	 -78.5855
| 10> C 	 -51.5892 	 -43.2996 	 -78.1571
| 11> C 	 -50.9185 	 -43.7669 	 -77.0165
| 12> H 	 -51.3701 	 -42.4332 	 -78.713
| 13> C 	 -53.4022 	 -44.034 	 -79.9041
| 14> H 	 -53.9257 	 -43.1074 	 -79.877
| 15> H 	 -54.1479 	 -44.8024 	 -80.0826
| 16> C 	 -52.4605 	 -44.0345 	 -81.126
| 17> H 	 -51.5546 	 -43.5559 	 -80.92
| 18> H 	 -52.193 	 -45.0475 	 -81.4743
| 19> C 	 -53.1457 	 -43.2374 	 -82.3104
| 20> H 	 -53.6693 	 -42.2932 	 -82.1072
| 21> H 	 -52.4602 	 -43.0005 	 -83.1866
| 22> H 	 -53.8788 	 -43.8803 	 -82.7498
| 23> S 	 -49.6633 	 -43.085 	 -74.6565
| 24> C 	 -48.1864 	 -42.1023 	 -74.8094
| 25> C 	 -47.6466 	 -42.0423 	 -76.1178
| 26> C 	 -48.4977 	 -42.7364 	 -77.0167
| 27> C 	 -49.7337 	 -43.0912 	 -76.4511
| 28> H 	 -46.6281 	 -41.7051 	 -76.3176
| 29> C 	 -48.2193 	 -42.6808 	 -78.4966
| 30> H 	 -48.976 	 -41.897 	 -78.7619
| 31> H 	 -48.5977 	 -43.5449 	 -79.0096
| 32> C 	 -46.8336 	 -42.388 	 -79.0042
| 33> H 	 -46.2105 	 -43.2034 	 -78.7488
| 34> H 	 -46.4277 	 -41.5369 	 -78.4388
| 35> C 	 -46.8933 	 -42.18 	 -80.5165
| 36> H 	 -47.2525 	 -43.119 	 -80.9826
| 37> H 	 -45.8997 	 -41.8991 	 -80.828
| 38> H 	 -47.6022 	 -41.4161 	 -80.664
| 39> H 	 -53.4503 	 -46.0473 	 -77.9846
| 40> H 	 -47.6435 	 -41.6209 	 -73.9557
| 41> *
| 42>
| 43>                          ****END OF INPUT****

CARTESIAN COORDINATES (ANGSTROEM)
---------------------------------
  S    -51.720900  -45.199300  -76.316700
  C    -52.714600  -45.382300  -77.781600
  C    -52.643700  -44.254000  -78.585500
  C    -51.589200  -43.299600  -78.157100
  C    -50.918500  -43.766900  -77.016500
  H    -51.370100  -42.433200  -78.713000
  C    -53.402200  -44.034000  -79.904100
  H    -53.925700  -43.107400  -79.877000
  H    -54.147900  -44.802400  -80.082600
  C    -52.460500  -44.034500  -81.126000
  H    -51.554600  -43.555900  -80.920000
  H    -52.193000  -45.047500  -81.474300
  C    -53.145700  -43.237400  -82.310400
  H    -53.669300  -42.293200  -82.107200
  H    -52.460200  -43.000500  -83.186600
  H    -53.878800  -43.880300  -82.749800
  S    -49.663300  -43.085000  -74.656500
  C    -48.186400  -42.102300  -74.809400
  C    -47.646600  -42.042300  -76.117800
  C    -48.497700  -42.736400  -77.016700
  C    -49.733700  -43.091200  -76.451100
  H    -46.628100  -41.705100  -76.317600
  C    -48.219300  -42.680800  -78.496600
  H    -48.976000  -41.897000  -78.761900
  H    -48.597700  -43.544900  -79.009600
  C    -46.833600  -42.388000  -79.004200
  H    -46.210500  -43.203400  -78.748800
  H    -46.427700  -41.536900  -78.438800
  C    -46.893300  -42.180000  -80.516500
  H    -47.252500  -43.119000  -80.982600
  H    -45.899700  -41.899100  -80.828000
  H    -47.602200  -41.416100  -80.664000
  H    -53.450300  -46.047300  -77.984600
  H    -47.643500  -41.620900  -73.955700

 Total Charge           Charge          ....    0
 Multiplicity           Mult            ....    1
 Number of Electrons    NEL             ....  134
 Basis Dimension        Dim             ....  322

ORBITAL ENERGIES
----------------

  NO   OCC          E(Eh)            E(eV)
   0   2.0000     -88.969302     -2420.9778
   1   2.0000     -88.968212     -2420.9481
   2   2.0000     -10.337424      -281.2956
   3   2.0000     -10.329056      -281.0679
   4   2.0000     -10.328096      -281.0418
   5   2.0000     -10.308605      -280.5114
   6   2.0000     -10.308205      -280.5005
   7   2.0000     -10.305655      -280.4311
   8   2.0000     -10.299049      -280.2514
   9   2.0000     -10.296819      -280.1907
  10   2.0000     -10.293070      -280.0887
  11   2.0000     -10.289472      -279.9908
  12   2.0000     -10.288921      -279.9758
  13   2.0000     -10.284126      -279.8453
  14   2.0000     -10.283658      -279.8326
  15   2.0000     -10.279399      -279.7167
  16   2.0000      -8.082819      -219.9447
  17   2.0000      -8.081679      -219.9137
  18   2.0000      -6.041263      -164.3911
  19   2.0000      -6.040558      -164.3720
  20   2.0000      -6.037833      -164.2978
  21   2.0000      -6.036549      -164.2628
  22   2.0000      -6.033397      -164.1771
  23   2.0000      -6.031932      -164.1372
  24   2.0000      -0.995878       -27.0992
  25   2.0000      -0.973127       -26.4801
  26   2.0000      -0.918814       -25.0022
  27   2.0000      -0.906884       -24.6776
  28   2.0000      -0.862940       -23.4818
  29   2.0000      -0.856380       -23.3033
  30   2.0000      -0.838361       -22.8130
  31   2.0000      -0.810422       -22.0527
  32   2.0000      -0.779307       -21.2060
  33   2.0000      -0.769965       -20.9518
  34   2.0000      -0.713552       -19.4167
  35   2.0000      -0.705704       -19.2032
  36   2.0000      -0.697544       -18.9811
  37   2.0000      -0.654451       -17.8085
  38   2.0000      -0.640049       -17.4166
  39   2.0000      -0.621251       -16.9051
  40   2.0000      -0.597584       -16.2611
  41   2.0000      -0.574895       -15.6437
  42   2.0000      -0.564454       -15.3596
  43   2.0000      -0.560897       -15.2628
  44   2.0000      -0.530550       -14.4370
  45   2.0000      -0.520533       -14.1644
  46   2.0000      -0.514678       -14.0051
  47   2.0000      -0.509432       -13.8623
  48   2.0000      -0.500788       -13.6271
  49   2.0000      -0.497134       -13.5277
  50   2.0000      -0.489720       -13.3259
  51   2.0000      -0.476020       -12.9532
  52   2.0000      -0.474788       -12.9196
  53   2.0000      -0.460955       -12.5432
  54   2.0000      -0.457069       -12.4375
  55   2.0000      -0.452195       -12.3048
  56   2.0000      -0.450933       -12.2705
  57   2.0000      -0.441097       -12.0029
  58   2.0000      -0.433241       -11.7891
  59   2.0000      -0.427976       -11.6458
  60   2.0000      -0.426105       -11.5949
  61   2.0000      -0.419342       -11.4109
  62   2.0000      -0.416962       -11.3461
  63   2.0000      -0.346792        -9.4367
  64   2.0000      -0.332422        -9.0457
  65   2.0000      -0.324848        -8.8396
  66   2.0000      -0.282385        -7.6841
  67   0.0000       0.021012         0.5718
  68   0.0000       0.061770         1.6808
  69   0.0000       0.089822         2.4442
  70   0.0000       0.114769         3.1230
  71   0.0000       0.129005         3.5104

MULLIKEN ATOMIC CHARGES
-----------------------
   0 S :    0.100262
   1 C :   -0.057927
   2 C :   -0.106993
   3 C :    0.017280
   4 C :   -0.106377
   5 H :    0.003659
   6 C :    0.085281
   7 H :    0.026051
   8 H :    0.018598
   9 C :   -0.052382
  10 H :    0.017090
  11 H :    0.036749
  12 C :   -0.097155
  13 H :    0.037625
  14 H :    0.038409
  15 H :    0.023933
  16 S :    0.096650
  17 C :   -0.094292
  18 C :   -0.058920
  19 C :    0.002541
  20 C :   -0.170686
  21 H :    0.040676
  22 C :   -0.022959
  23 H :    0.047508
  24 H :    0.024653
  25 C :   -0.068087
  26 H :    0.025485
  27 H :    0.026939
  28 C :    0.005899
  29 H :    0.037135
  30 H :    0.034583
  31 H :    0.018430
  32 H :    0.000673
  33 H :    0.069669
Sum of atomic charges:    0.0000000

LOEWDIN ATOMIC CHARGES
----------------------
   0 S :    0.369641
   1 C :   -0.180903
   2 C :   -0.048359
   3 C :   -0.058102
   4 C :   -0.175522
   5 H :    0.021080
   6 C :   -0.026383
   7 H :    0.028121
   8 H :    0.029067
   9 C :   -0.028881
  10 H :    0.011052
  11 H :    0.030378
  12 C :   -0.077643
  13 H :    0.024599
  14 H :    0.031647
  15 H :    0.019412
  16 S :    0.376568
  17 C :   -0.171953
  18 C :   -0.079607
  19 C :   -0.042921
  20 C :   -0.190230
  21 H :    0.036610
  22 C :   -0.041450
  23 H :    0.041484
  24 H :    0.027826
  25 C :   -0.040283
  26 H :    0.020479
  27 H :    0.021604
  28 C :   -0.047241
  29 H :    0.031659
  30 H :    0.026303
  31 H :    0.018791
  32 H :    0.007725
  33 H :    0.035433

  Mayer bond orders larger than 0.100000
B(  0-S ,  1-C ) :   1.0982 B(  0-S ,  4-C ) :   1.1215 B(  1-C ,  2-C ) :   1.6730
B(  1-C , 32-H ) :   0.9699 B(  2-C ,  3-C ) :   1.1878 B(  2-C ,  6-C ) :   1.0370
B(  3-C ,  4-C ) :   1.5857 B(  3-C ,  5-H ) :   0.9987 B(  4-C , 20-C ) :   1.0760
B(  6-C ,  7-H ) :   0.9441 B(  6-C ,  8-H ) :   0.9435 B(  6-C ,  9-C ) :   1.0468
B(  9-C , 10-H ) :   0.9673 B(  9-C , 11-H ) :   0.9566 B(  9-C , 12-C ) :   1.0608
B( 12-C , 13-H ) :   0.9796 B( 12-C , 14-H ) :   0.9765 B( 12-C , 15-H ) :   0.9784
B( 16-S , 17-C ) :   1.1647 B( 16-S , 20-C ) :   1.1098 B( 17-C , 18-C ) :   1.6067
B( 17-C , 20-C ) :   0.1088 B( 17-C , 33-H ) :   0.9578 B( 18-C , 19-C ) :   1.2414
B( 18-C , 21-H ) :   0.9769 B( 19-C , 20-C ) :   1.5787 B( 19-C , 22-C ) :   1.0326
B( 22-C , 23-H ) :   0.9393 B( 22-C , 24-H ) :   0.9282 B( 22-C , 25-C ) :   1.0715
B( 25-C , 26-H ) :   0.9528 B( 25-C , 27-H ) :   0.9414 B( 25-C , 28-C ) :   1.0833
B( 28-C , 29-H ) :   0.9732 B( 28-C , 30-H ) :   0.9716 B( 28-C , 31-H ) :   0.9768

Dispersion correction           -0.013670619
FINAL SINGLE POINT ENERGY     -1339.849432371446

DIPOLE MOMENT
-------------
                                X             Y             Z
Electronic contribution:     -3.46154      -7.22306      32.77062
Nuclear contribution   :      3.70800       7.49901     -33.51449
                        -----------------------------------------
Total Dipole Moment    :      0.24646       0.27595      -0.74386
                        -----------------------------------------
Magnitude (a.u.)       :      0.83080
Magnitude (Debye)      :      2.11172

Rotational constants in cm-1:     0.015587     0.009585     0.006321
Rotational constants in MHz :   467.286108   287.355979   189.495714

                             ****ORCA TERMINATED NORMALLY****
TOTAL RUN TIME: 0 days 0 hours 0 minutes 21 seconds 306 msec
