                         Program Version 4.2.1 -  RELEASE  -
|  1> ! wB97X-D3 SP def2-SVP
|  2> %pal
|  3> nprocs 24
|  4> end
|  5>
|  6> * xyz 0 1
|  7> S 	 -110.477 	 62.65 	 -71.5966
|  8> C 	 -110.028 	 60.9583 	 -71.7521
|  9> C 	 -111.044 	 60.0906 	 -71.3722
| 10> C 	 -112.053 	 60.8116 	 -70.6787
| 11> C 	 -111.889 	 62.1672 	 -70.8135
| 12> H 	 -112.93 	 60.478 	 -70.1087
| 13> C 	 -110.981 	 58.6003 	 -71.3187
| 14> H 	 -111.348 	 58.2976 	 -72.3477
| 15> H 	 -111.651 	 58.209 	 -70.5498
| 16> C 	 -109.649 	 57.9871 	 -70.9507
| 17> H 	 -109.712 	 56.9133 	 -71.1725
| 18> H 	 -108.91 	 58.3058 	 -71.7027
| 19> C 	 -109.051 	 58.2637 	 -69.539
| 20> H 	 -108.865 	 59.3142 	 -69.4015
| 21> H 	 -109.735 	 58.1022 	 -68.7674
| 22> H 	 -108.174 	 57.7962 	 -69.2612
| 23> S 	 -112.189 	 64.6148 	 -69.626
| 24> C 	 -113.666 	 65.0719 	 -68.8522
| 25> C 	 -114.72 	 64.2558 	 -69.2569
| 26> C 	 -114.262 	 63.1064 	 -69.9457
| 27> C 	 -112.871 	 63.0973 	 -70.1943
| 28> H 	 -115.731 	 64.5915 	 -68.9193
| 29> C 	 -115.191 	 62.0391 	 -70.419
| 30> H 	 -115.168 	 61.1282 	 -69.7754
| 31> H 	 -114.677 	 61.724 	 -71.3755
| 32> C 	 -116.687 	 62.4824 	 -70.6662
| 33> H 	 -117.126 	 62.8096 	 -69.712
| 34> H 	 -117.233 	 61.6343 	 -70.932
| 35> C 	 -116.949 	 63.4653 	 -71.7593
| 36> H 	 -116.607 	 64.4249 	 -71.4684
| 37> H 	 -118 	 63.534 	 -71.8349
| 38> H 	 -116.561 	 63.1121 	 -72.7537
| 39> H 	 -109.007 	 60.6611 	 -72.039
| 40> H 	 -113.8 	 66.0616 	 -68.4665
| 41> *
| 42>
| 43>                          ****END OF INPUT****

CARTESIAN COORDINATES (ANGSTROEM)
---------------------------------
  S    -110.477000   62.650000  -71.596600
  C    -110.028000   60.958300  -71.752100
  C    -111.044000   60.090600  -71.372200
  C    -112.053000   60.811600  -70.678700
  C    -111.889000   62.167200  -70.813500
  H    -112.930000   60.478000  -70.108700
  C    -110.981000   58.600300  -71.318700
  H    -111.348000   58.297600  -72.347700
  H    -111.651000   58.209000  -70.549800
  C    -109.649000   57.987100  -70.950700
  H    -109.712000   56.913300  -71.172500
  H    -108.910000   58.305800  -71.702700
  C    -109.051000   58.263700  -69.539000
  H    -108.865000   59.314200  -69.401500
  H    -109.735000   58.102200  -68.767400
  H    -108.174000   57.796200  -69.261200
  S    -112.189000   64.614800  -69.626000
  C    -113.666000   65.071900  -68.852200
  C    -114.720000   64.255800  -69.256900
  C    -114.262000   63.106400  -69.945700
  C    -112.871000   63.097300  -70.194300
  H    -115.731000   64.591500  -68.919300
  C    -115.191000   62.039100  -70.419000
  H    -115.168000   61.128200  -69.775400
  H    -114.677000   61.724000  -71.375500
  C    -116.687000   62.482400  -70.666200
  H    -117.126000   62.809600  -69.712000
  H    -117.233000   61.634300  -70.932000
  C    -116.949000   63.465300  -71.759300
  H    -116.607000   64.424900  -71.468400
  H    -118.000000   63.534000  -71.834900
  H    -116.561000   63.112100  -72.753700
  H    -109.007000   60.661100  -72.039000
  H    -113.800000   66.061600  -68.466500

 Total Charge           Charge          ....    0
 Multiplicity           Mult            ....    1
 Number of Electrons    NEL             ....  134
 Basis Dimension        Dim             ....  322

ORBITAL ENERGIES
----------------

  NO   OCC          E(Eh)            E(eV)
   0   2.0000     -88.970514     -2421.0108
   1   2.0000     -88.960808     -2420.7467
   2   2.0000     -10.328317      -281.0478
   3   2.0000     -10.324258      -280.9373
   4   2.0000     -10.315158      -280.6897
   5   2.0000     -10.312073      -280.6058
   6   2.0000     -10.304813      -280.4082
   7   2.0000     -10.301584      -280.3203
   8   2.0000     -10.297291      -280.2035
   9   2.0000     -10.296285      -280.1762
  10   2.0000     -10.295645      -280.1588
  11   2.0000     -10.290396      -280.0159
  12   2.0000     -10.289971      -280.0044
  13   2.0000     -10.282654      -279.8052
  14   2.0000     -10.270537      -279.4755
  15   2.0000     -10.266913      -279.3769
  16   2.0000      -8.086192      -220.0365
  17   2.0000      -8.076057      -219.7607
  18   2.0000      -6.044559      -164.4808
  19   2.0000      -6.040727      -164.3765
  20   2.0000      -6.036896      -164.2723
  21   2.0000      -6.034354      -164.2031
  22   2.0000      -6.030493      -164.0981
  23   2.0000      -6.027041      -164.0041
  24   2.0000      -1.012470       -27.5507
  25   2.0000      -0.987157       -26.8619
  26   2.0000      -0.916764       -24.9464
  27   2.0000      -0.908598       -24.7242
  28   2.0000      -0.864523       -23.5249
  29   2.0000      -0.858716       -23.3669
  30   2.0000      -0.848519       -23.0894
  31   2.0000      -0.813317       -22.1315
  32   2.0000      -0.789801       -21.4916
  33   2.0000      -0.772821       -21.0295
  34   2.0000      -0.714192       -19.4342
  35   2.0000      -0.703400       -19.1405
  36   2.0000      -0.689677       -18.7671
  37   2.0000      -0.655843       -17.8464
  38   2.0000      -0.636981       -17.3331
  39   2.0000      -0.609991       -16.5987
  40   2.0000      -0.591834       -16.1046
  41   2.0000      -0.577029       -15.7018
  42   2.0000      -0.561128       -15.2691
  43   2.0000      -0.550883       -14.9903
  44   2.0000      -0.543131       -14.7794
  45   2.0000      -0.534835       -14.5536
  46   2.0000      -0.518265       -14.1027
  47   2.0000      -0.511958       -13.9311
  48   2.0000      -0.498720       -13.5709
  49   2.0000      -0.496955       -13.5228
  50   2.0000      -0.486826       -13.2472
  51   2.0000      -0.484198       -13.1757
  52   2.0000      -0.470770       -12.8103
  53   2.0000      -0.468490       -12.7483
  54   2.0000      -0.460798       -12.5390
  55   2.0000      -0.455339       -12.3904
  56   2.0000      -0.449684       -12.2365
  57   2.0000      -0.440660       -11.9910
  58   2.0000      -0.435519       -11.8511
  59   2.0000      -0.419967       -11.4279
  60   2.0000      -0.418870       -11.3980
  61   2.0000      -0.414439       -11.2775
  62   2.0000      -0.410919       -11.1817
  63   2.0000      -0.349472        -9.5096
  64   2.0000      -0.335977        -9.1424
  65   2.0000      -0.326696        -8.8898
  66   2.0000      -0.283149        -7.7049
  67   0.0000       0.023688         0.6446
  68   0.0000       0.077640         2.1127
  69   0.0000       0.101656         2.7662
  70   0.0000       0.125687         3.4201
  71   0.0000       0.139915         3.8073

MULLIKEN ATOMIC CHARGES
-----------------------
   0 S :    0.127881
   1 C :   -0.153267
   2 C :   -0.047046
   3 C :   -0.040847
   4 C :   -0.098212
   5 H :    0.019006
   6 C :    0.058393
   7 H :    0.054578
   8 H :    0.028707
   9 C :   -0.097026
  10 H :    0.028216
  11 H :    0.020397
  12 C :    0.016744
  13 H :    0.021079
  14 H :    0.006220
  15 H :    0.021090
  16 S :    0.083415
  17 C :   -0.086843
  18 C :   -0.072171
  19 C :   -0.025921
  20 C :   -0.156695
  21 H :    0.039195
  22 C :   -0.001463
  23 H :    0.053702
  24 H :    0.039211
  25 C :   -0.061165
  26 H :    0.024019
  27 H :    0.009068
  28 C :   -0.003833
  29 H :    0.021393
  30 H :    0.018614
  31 H :    0.040360
  32 H :    0.059194
  33 H :    0.054010
Sum of atomic charges:   -0.0000000

LOEWDIN ATOMIC CHARGES
----------------------
   0 S :    0.428415
   1 C :   -0.202111
   2 C :   -0.059785
   3 C :   -0.070105
   4 C :   -0.212844
   5 H :    0.036746
   6 C :   -0.035056
   7 H :    0.048148
   8 H :    0.031106
   9 C :   -0.043869
  10 H :    0.026599
  11 H :    0.020593
  12 C :   -0.057321
  13 H :    0.028865
  14 H :    0.018519
  15 H :    0.019789
  16 S :    0.405033
  17 C :   -0.191838
  18 C :   -0.079487
  19 C :   -0.066179
  20 C :   -0.189492
  21 H :    0.041581
  22 C :   -0.042874
  23 H :    0.033396
  24 H :    0.037945
  25 C :   -0.038110
  26 H :    0.023449
  27 H :    0.017886
  28 C :   -0.055668
  29 H :    0.017779
  30 H :    0.023099
  31 H :    0.033918
  32 H :    0.028729
  33 H :    0.023144

  Mayer bond orders larger than 0.100000
B(  0-S ,  1-C ) :   1.1321 B(  0-S ,  4-C ) :   1.1648 B(  1-C ,  2-C ) :   1.5944
B(  1-C , 32-H ) :   0.9646 B(  2-C ,  3-C ) :   1.2264 B(  2-C ,  6-C ) :   1.0174
B(  3-C ,  4-C ) :   1.5634 B(  3-C ,  5-H ) :   0.9933 B(  4-C , 20-C ) :   1.0448
B(  6-C ,  7-H ) :   0.9207 B(  6-C ,  8-H ) :   0.9518 B(  6-C ,  9-C ) :   1.0917
B(  9-C , 10-H ) :   0.9530 B(  9-C , 11-H ) :   0.9497 B(  9-C , 12-C ) :   1.0645
B( 12-C , 13-H ) :   0.9693 B( 12-C , 14-H ) :   0.9724 B( 12-C , 15-H ) :   0.9753
B( 16-S , 17-C ) :   1.1824 B( 16-S , 20-C ) :   1.1476 B( 17-C , 18-C ) :   1.5856
B( 17-C , 20-C ) :   0.1076 B( 17-C , 33-H ) :   0.9623 B( 18-C , 19-C ) :   1.2605
B( 18-C , 21-H ) :   0.9831 B( 19-C , 20-C ) :   1.5535 B( 19-C , 22-C ) :   1.0287
B( 22-C , 23-H ) :   0.9290 B( 22-C , 24-H ) :   0.9378 B( 22-C , 25-C ) :   1.0769
B( 25-C , 26-H ) :   0.9439 B( 25-C , 27-H ) :   0.9511 B( 25-C , 28-C ) :   1.0948
B( 28-C , 29-H ) :   0.9725 B( 28-C , 30-H ) :   0.9687 B( 28-C , 31-H ) :   0.9705

Dispersion correction           -0.014279878
FINAL SINGLE POINT ENERGY     -1339.865538337202

DIPOLE MOMENT
-------------
                                X             Y             Z
Electronic contribution:     10.36366      18.60233       0.52393
Nuclear contribution   :    -10.74338     -19.05937      -0.47784
                        -----------------------------------------
Total Dipole Moment    :     -0.37972      -0.45705       0.04609
                        -----------------------------------------
Magnitude (a.u.)       :      0.59599
Magnitude (Debye)      :      1.51488

Rotational constants in cm-1:     0.022166     0.007704     0.006512
Rotational constants in MHz :   664.526753   230.945874   195.232193

                             ****ORCA TERMINATED NORMALLY****
TOTAL RUN TIME: 0 days 0 hours 0 minutes 21 seconds 595 msec
