                         Program Version 4.2.1 -  RELEASE  -
|  1> ! wB97X-D3 SP def2-SVP
|  2> %pal
|  3> nprocs 24
|  4> end
|  5>
|  6> * xyz 0 1
|  7> S 	 -67.4824 	 -46.3573 	 -87.767
|  8> C 	 -66.1041 	 -47.1738 	 -88.6185
|  9> C 	 -65.2526 	 -47.7185 	 -87.6237
| 10> C 	 -65.7189 	 -47.4424 	 -86.2251
| 11> C 	 -66.8761 	 -46.6613 	 -86.1839
| 12> H 	 -65.3172 	 -47.6931 	 -85.247
| 13> C 	 -63.9829 	 -48.4816 	 -87.876
| 14> H 	 -64.1285 	 -48.9977 	 -88.7843
| 15> H 	 -63.9028 	 -49.1339 	 -86.9359
| 16> C 	 -62.7433 	 -47.6171 	 -88.1665
| 17> H 	 -62.8465 	 -46.9874 	 -89.0188
| 18> H 	 -62.5886 	 -47.2254 	 -87.1613
| 19> C 	 -61.4619 	 -48.4291 	 -88.3454
| 20> H 	 -60.5829 	 -47.8586 	 -88.2751
| 21> H 	 -61.5299 	 -49.1619 	 -87.5702
| 22> H 	 -61.366 	 -49.0671 	 -89.2256
| 23> S 	 -67.714 	 -44.532 	 -84.6433
| 24> C 	 -68.4754 	 -44.9163 	 -83.1291
| 25> C 	 -68.6807 	 -46.2541 	 -82.9514
| 26> C 	 -68.1997 	 -47.0415 	 -84.0086
| 27> C 	 -67.6286 	 -46.2688 	 -84.9845
| 28> H 	 -69.2497 	 -46.608 	 -82.0822
| 29> C 	 -68.1772 	 -48.5172 	 -84.0624
| 30> H 	 -68.6195 	 -48.776 	 -83.0971
| 31> H 	 -67.2151 	 -49.0724 	 -84.0618
| 32> C 	 -69.1733 	 -49.169 	 -85.0838
| 33> H 	 -69.0769 	 -48.7876 	 -86.1501
| 34> H 	 -70.1435 	 -48.8688 	 -84.8012
| 35> C 	 -69.1467 	 -50.6935 	 -85.1561
| 36> H 	 -70.0455 	 -51.0289 	 -85.7484
| 37> H 	 -69.1897 	 -51.1496 	 -84.164
| 38> H 	 -68.1679 	 -51.0702 	 -85.5451
| 39> H 	 -66.0269 	 -47.3539 	 -89.7111
| 40> H 	 -69.1911 	 -44.2415 	 -82.5834
| 41> *
| 42>
| 43>                          ****END OF INPUT****

CARTESIAN COORDINATES (ANGSTROEM)
---------------------------------
  S    -67.482400  -46.357300  -87.767000
  C    -66.104100  -47.173800  -88.618500
  C    -65.252600  -47.718500  -87.623700
  C    -65.718900  -47.442400  -86.225100
  C    -66.876100  -46.661300  -86.183900
  H    -65.317200  -47.693100  -85.247000
  C    -63.982900  -48.481600  -87.876000
  H    -64.128500  -48.997700  -88.784300
  H    -63.902800  -49.133900  -86.935900
  C    -62.743300  -47.617100  -88.166500
  H    -62.846500  -46.987400  -89.018800
  H    -62.588600  -47.225400  -87.161300
  C    -61.461900  -48.429100  -88.345400
  H    -60.582900  -47.858600  -88.275100
  H    -61.529900  -49.161900  -87.570200
  H    -61.366000  -49.067100  -89.225600
  S    -67.714000  -44.532000  -84.643300
  C    -68.475400  -44.916300  -83.129100
  C    -68.680700  -46.254100  -82.951400
  C    -68.199700  -47.041500  -84.008600
  C    -67.628600  -46.268800  -84.984500
  H    -69.249700  -46.608000  -82.082200
  C    -68.177200  -48.517200  -84.062400
  H    -68.619500  -48.776000  -83.097100
  H    -67.215100  -49.072400  -84.061800
  C    -69.173300  -49.169000  -85.083800
  H    -69.076900  -48.787600  -86.150100
  H    -70.143500  -48.868800  -84.801200
  C    -69.146700  -50.693500  -85.156100
  H    -70.045500  -51.028900  -85.748400
  H    -69.189700  -51.149600  -84.164000
  H    -68.167900  -51.070200  -85.545100
  H    -66.026900  -47.353900  -89.711100
  H    -69.191100  -44.241500  -82.583400

 Total Charge           Charge          ....    0
 Multiplicity           Mult            ....    1
 Number of Electrons    NEL             ....  134
 Basis Dimension        Dim             ....  322

ORBITAL ENERGIES
----------------

  NO   OCC          E(Eh)            E(eV)
   0   2.0000     -88.968289     -2420.9502
   1   2.0000     -88.966294     -2420.8959
   2   2.0000     -10.329930      -281.0917
   3   2.0000     -10.326928      -281.0100
   4   2.0000     -10.326727      -281.0045
   5   2.0000     -10.315846      -280.7084
   6   2.0000     -10.314942      -280.6838
   7   2.0000     -10.301818      -280.3267
   8   2.0000     -10.300659      -280.2952
   9   2.0000     -10.294091      -280.1165
  10   2.0000     -10.294006      -280.1141
  11   2.0000     -10.293253      -280.0937
  12   2.0000     -10.284564      -279.8572
  13   2.0000     -10.283656      -279.8325
  14   2.0000     -10.281802      -279.7821
  15   2.0000     -10.269539      -279.4484
  16   2.0000      -8.082953      -219.9483
  17   2.0000      -8.080122      -219.8713
  18   2.0000      -6.041372      -164.3941
  19   2.0000      -6.038817      -164.3246
  20   2.0000      -6.037529      -164.2895
  21   2.0000      -6.034531      -164.2079
  22   2.0000      -6.033748      -164.1866
  23   2.0000      -6.030943      -164.1103
  24   2.0000      -1.008101       -27.4318
  25   2.0000      -0.978164       -26.6172
  26   2.0000      -0.916958       -24.9517
  27   2.0000      -0.907785       -24.7021
  28   2.0000      -0.868689       -23.6382
  29   2.0000      -0.854761       -23.2592
  30   2.0000      -0.843806       -22.9611
  31   2.0000      -0.813596       -22.1391
  32   2.0000      -0.782181       -21.2842
  33   2.0000      -0.769878       -20.9495
  34   2.0000      -0.703140       -19.1334
  35   2.0000      -0.699593       -19.0369
  36   2.0000      -0.688105       -18.7243
  37   2.0000      -0.661722       -18.0064
  38   2.0000      -0.641117       -17.4457
  39   2.0000      -0.614636       -16.7251
  40   2.0000      -0.597743       -16.2654
  41   2.0000      -0.582341       -15.8463
  42   2.0000      -0.562520       -15.3069
  43   2.0000      -0.552986       -15.0475
  44   2.0000      -0.528191       -14.3728
  45   2.0000      -0.524225       -14.2649
  46   2.0000      -0.515113       -14.0169
  47   2.0000      -0.508205       -13.8290
  48   2.0000      -0.504153       -13.7187
  49   2.0000      -0.501924       -13.6581
  50   2.0000      -0.500436       -13.6175
  51   2.0000      -0.477622       -12.9967
  52   2.0000      -0.469196       -12.7675
  53   2.0000      -0.456561       -12.4237
  54   2.0000      -0.456071       -12.4103
  55   2.0000      -0.451003       -12.2724
  56   2.0000      -0.446466       -12.1490
  57   2.0000      -0.435502       -11.8506
  58   2.0000      -0.433068       -11.7844
  59   2.0000      -0.428631       -11.6637
  60   2.0000      -0.414906       -11.2902
  61   2.0000      -0.409541       -11.1442
  62   2.0000      -0.404987       -11.0203
  63   2.0000      -0.340097        -9.2545
  64   2.0000      -0.331628        -9.0241
  65   2.0000      -0.324214        -8.8223
  66   2.0000      -0.304735        -8.2922
  67   0.0000       0.030206         0.8219
  68   0.0000       0.059773         1.6265
  69   0.0000       0.107429         2.9233
  70   0.0000       0.115462         3.1419
  71   0.0000       0.125324         3.4102

MULLIKEN ATOMIC CHARGES
-----------------------
   0 S :    0.101795
   1 C :   -0.133904
   2 C :   -0.099060
   3 C :    0.043578
   4 C :   -0.154413
   5 H :    0.016490
   6 C :    0.036805
   7 H :    0.009382
   8 H :    0.047049
   9 C :   -0.043150
  10 H :    0.035404
  11 H :    0.027645
  12 C :   -0.020231
  13 H :    0.032693
  14 H :    0.004314
  15 H :    0.018674
  16 S :    0.118551
  17 C :   -0.087877
  18 C :   -0.075916
  19 C :    0.017198
  20 C :   -0.197742
  21 H :    0.027107
  22 C :    0.065382
  23 H :    0.000082
  24 H :    0.039874
  25 C :   -0.078943
  26 H :    0.044764
  27 H :    0.009860
  28 C :   -0.059556
  29 H :    0.051199
  30 H :    0.018768
  31 H :    0.036751
  32 H :    0.070879
  33 H :    0.076549
Sum of atomic charges:    0.0000000

LOEWDIN ATOMIC CHARGES
----------------------
   0 S :    0.396350
   1 C :   -0.197451
   2 C :   -0.051352
   3 C :   -0.069993
   4 C :   -0.204455
   5 H :    0.032478
   6 C :   -0.038565
   7 H :    0.021672
   8 H :    0.042789
   9 C :   -0.030405
  10 H :    0.022339
  11 H :    0.031429
  12 C :   -0.062789
  13 H :    0.020769
  14 H :    0.020612
  15 H :    0.020696
  16 S :    0.408728
  17 C :   -0.205046
  18 C :   -0.072451
  19 C :   -0.060807
  20 C :   -0.186501
  21 H :    0.036697
  22 C :   -0.036534
  23 H :    0.029973
  24 H :    0.033382
  25 C :   -0.040549
  26 H :    0.028840
  27 H :    0.014845
  28 C :   -0.072234
  29 H :    0.036914
  30 H :    0.019340
  31 H :    0.027564
  32 H :    0.040143
  33 H :    0.043573

  Mayer bond orders larger than 0.100000
B(  0-S ,  1-C ) :   1.1153 B(  0-S ,  4-C ) :   1.1639 B(  1-C ,  2-C ) :   1.6132
B(  1-C , 32-H ) :   0.9681 B(  2-C ,  3-C ) :   1.1951 B(  2-C ,  6-C ) :   1.0375
B(  3-C ,  4-C ) :   1.5995 B(  3-C ,  5-H ) :   0.9889 B(  4-C , 20-C ) :   1.0032
B(  6-C ,  7-H ) :   0.9317 B(  6-C ,  8-H ) :   0.9405 B(  6-C ,  9-C ) :   1.0723
B(  9-C , 10-H ) :   0.9586 B(  9-C , 11-H ) :   0.9554 B(  9-C , 12-C ) :   1.0804
B( 12-C , 13-H ) :   0.9763 B( 12-C , 14-H ) :   0.9709 B( 12-C , 15-H ) :   0.9732
B( 16-S , 17-C ) :   1.1523 B( 16-S , 20-C ) :   1.1534 B( 17-C , 18-C ) :   1.6314
B( 17-C , 33-H ) :   0.9458 B( 18-C , 19-C ) :   1.2575 B( 18-C , 21-H ) :   0.9799
B( 19-C , 20-C ) :   1.5913 B( 19-C , 22-C ) :   1.0414 B( 22-C , 23-H ) :   0.9177
B( 22-C , 24-H ) :   0.9419 B( 22-C , 25-C ) :   1.0503 B( 25-C , 26-H ) :   0.9589
B( 25-C , 27-H ) :   0.9515 B( 25-C , 28-C ) :   1.0883 B( 28-C , 29-H ) :   0.9728
B( 28-C , 30-H ) :   0.9718 B( 28-C , 31-H ) :   0.9737

Dispersion correction           -0.014239502
FINAL SINGLE POINT ENERGY     -1339.854071091699

DIPOLE MOMENT
-------------
                                X             Y             Z
Electronic contribution:    -11.98425      23.03563       2.39289
Nuclear contribution   :     12.09716     -23.59772      -2.26590
                        -----------------------------------------
Total Dipole Moment    :      0.11292      -0.56208       0.12699
                        -----------------------------------------
Magnitude (a.u.)       :      0.58721
Magnitude (Debye)      :      1.49256

Rotational constants in cm-1:     0.018663     0.008012     0.006847
Rotational constants in MHz :   559.492680   240.197801   205.275844

                             ****ORCA TERMINATED NORMALLY****
TOTAL RUN TIME: 0 days 0 hours 0 minutes 20 seconds 229 msec
