                         Program Version 4.2.1 -  RELEASE  -
|  1> ! wB97X-D3 SP def2-SVP
|  2> %pal
|  3> nprocs 24
|  4> end
|  5>
|  6> * xyz 0 1
|  7> S 	 -54.4038 	 12.0688 	 -104.051
|  8> C 	 -54.2052 	 12.9511 	 -102.597
|  9> C 	 -55.2975 	 13.7691 	 -102.323
| 10> C 	 -56.1429 	 13.7631 	 -103.521
| 11> C 	 -55.8303 	 12.9334 	 -104.562
| 12> H 	 -57.098 	 14.2874 	 -103.52
| 13> C 	 -55.4461 	 14.5947 	 -101.059
| 14> H 	 -55.0007 	 14.0224 	 -100.294
| 15> H 	 -56.4573 	 14.8314 	 -100.886
| 16> C 	 -54.7851 	 15.9618 	 -101.107
| 17> H 	 -53.8097 	 15.9734 	 -101.576
| 18> H 	 -55.3675 	 16.4964 	 -101.827
| 19> C 	 -54.7454 	 16.6936 	 -99.7686
| 20> H 	 -54.3013 	 17.6208 	 -99.8443
| 21> H 	 -55.7208 	 16.926 	 -99.407
| 22> H 	 -54.3033 	 16.0846 	 -98.9673
| 23> S 	 -55.4138 	 11.8819 	 -107.029
| 24> C 	 -56.7228 	 11.7427 	 -108.128
| 25> C 	 -57.9483 	 12.1259 	 -107.546
| 26> C 	 -57.778 	 12.8583 	 -106.306
| 27> C 	 -56.5073 	 12.6554 	 -105.827
| 28> H 	 -58.8989 	 11.9135 	 -108.068
| 29> C 	 -58.9379 	 13.5677 	 -105.627
| 30> H 	 -58.8888 	 13.3242 	 -104.578
| 31> H 	 -59.9127 	 13.1499 	 -105.925
| 32> C 	 -59.0593 	 15.0646 	 -105.875
| 33> H 	 -58.2308 	 15.6625 	 -105.316
| 34> H 	 -59.9936 	 15.4107 	 -105.471
| 35> C 	 -58.9334 	 15.55 	 -107.379
| 36> H 	 -58.8618 	 16.6131 	 -107.409
| 37> H 	 -59.6994 	 15.185 	 -108.036
| 38> H 	 -58.0452 	 15.1424 	 -107.822
| 39> H 	 -53.4313 	 12.7963 	 -101.855
| 40> H 	 -56.6352 	 11.3258 	 -109.147
| 41> *
| 42>
| 43>                          ****END OF INPUT****

CARTESIAN COORDINATES (ANGSTROEM)
---------------------------------
  S    -54.403800   12.068800  -104.051000
  C    -54.205200   12.951100  -102.597000
  C    -55.297500   13.769100  -102.323000
  C    -56.142900   13.763100  -103.521000
  C    -55.830300   12.933400  -104.562000
  H    -57.098000   14.287400  -103.520000
  C    -55.446100   14.594700  -101.059000
  H    -55.000700   14.022400  -100.294000
  H    -56.457300   14.831400  -100.886000
  C    -54.785100   15.961800  -101.107000
  H    -53.809700   15.973400  -101.576000
  H    -55.367500   16.496400  -101.827000
  C    -54.745400   16.693600  -99.768600
  H    -54.301300   17.620800  -99.844300
  H    -55.720800   16.926000  -99.407000
  H    -54.303300   16.084600  -98.967300
  S    -55.413800   11.881900  -107.029000
  C    -56.722800   11.742700  -108.128000
  C    -57.948300   12.125900  -107.546000
  C    -57.778000   12.858300  -106.306000
  C    -56.507300   12.655400  -105.827000
  H    -58.898900   11.913500  -108.068000
  C    -58.937900   13.567700  -105.627000
  H    -58.888800   13.324200  -104.578000
  H    -59.912700   13.149900  -105.925000
  C    -59.059300   15.064600  -105.875000
  H    -58.230800   15.662500  -105.316000
  H    -59.993600   15.410700  -105.471000
  C    -58.933400   15.550000  -107.379000
  H    -58.861800   16.613100  -107.409000
  H    -59.699400   15.185000  -108.036000
  H    -58.045200   15.142400  -107.822000
  H    -53.431300   12.796300  -101.855000
  H    -56.635200   11.325800  -109.147000

 Total Charge           Charge          ....    0
 Multiplicity           Mult            ....    1
 Number of Electrons    NEL             ....  134
 Basis Dimension        Dim             ....  322

ORBITAL ENERGIES
----------------

  NO   OCC          E(Eh)            E(eV)
   0   2.0000     -88.967399     -2420.9260
   1   2.0000     -88.963214     -2420.8121
   2   2.0000     -10.334246      -281.2091
   3   2.0000     -10.329079      -281.0685
   4   2.0000     -10.321086      -280.8510
   5   2.0000     -10.310982      -280.5761
   6   2.0000     -10.310531      -280.5638
   7   2.0000     -10.303433      -280.3707
   8   2.0000     -10.301958      -280.3305
   9   2.0000     -10.297261      -280.2027
  10   2.0000     -10.296809      -280.1904
  11   2.0000     -10.292572      -280.0751
  12   2.0000     -10.286571      -279.9118
  13   2.0000     -10.279476      -279.7188
  14   2.0000     -10.272360      -279.5251
  15   2.0000     -10.271245      -279.4948
  16   2.0000      -8.082151      -219.9265
  17   2.0000      -8.078666      -219.8317
  18   2.0000      -6.040673      -164.3751
  19   2.0000      -6.037264      -164.2823
  20   2.0000      -6.036734      -164.2679
  21   2.0000      -6.033033      -164.1672
  22   2.0000      -6.032809      -164.1611
  23   2.0000      -6.029316      -164.0660
  24   2.0000      -1.008570       -27.4446
  25   2.0000      -0.984888       -26.8002
  26   2.0000      -0.917956       -24.9788
  27   2.0000      -0.909012       -24.7355
  28   2.0000      -0.869737       -23.6667
  29   2.0000      -0.850843       -23.1526
  30   2.0000      -0.841118       -22.8880
  31   2.0000      -0.813726       -22.1426
  32   2.0000      -0.791567       -21.5396
  33   2.0000      -0.778916       -21.1954
  34   2.0000      -0.709913       -19.3177
  35   2.0000      -0.703638       -19.1470
  36   2.0000      -0.688458       -18.7339
  37   2.0000      -0.666968       -18.1491
  38   2.0000      -0.637816       -17.3559
  39   2.0000      -0.619598       -16.8601
  40   2.0000      -0.592689       -16.1279
  41   2.0000      -0.577806       -15.7229
  42   2.0000      -0.562239       -15.2993
  43   2.0000      -0.552488       -15.0340
  44   2.0000      -0.550483       -14.9794
  45   2.0000      -0.528785       -14.3890
  46   2.0000      -0.516114       -14.0442
  47   2.0000      -0.510333       -13.8869
  48   2.0000      -0.504743       -13.7347
  49   2.0000      -0.499150       -13.5826
  50   2.0000      -0.489353       -13.3160
  51   2.0000      -0.481927       -13.1139
  52   2.0000      -0.473020       -12.8715
  53   2.0000      -0.466310       -12.6889
  54   2.0000      -0.458370       -12.4729
  55   2.0000      -0.450885       -12.2692
  56   2.0000      -0.446581       -12.1521
  57   2.0000      -0.443665       -12.0727
  58   2.0000      -0.437815       -11.9136
  59   2.0000      -0.423614       -11.5271
  60   2.0000      -0.420467       -11.4415
  61   2.0000      -0.415720       -11.3123
  62   2.0000      -0.409776       -11.1506
  63   2.0000      -0.361631        -9.8405
  64   2.0000      -0.333099        -9.0641
  65   2.0000      -0.324731        -8.8364
  66   2.0000      -0.282365        -7.6835
  67   0.0000       0.023542         0.6406
  68   0.0000       0.077220         2.1013
  69   0.0000       0.101331         2.7574
  70   0.0000       0.111905         3.0451
  71   0.0000       0.133999         3.6463

MULLIKEN ATOMIC CHARGES
-----------------------
   0 S :    0.100690
   1 C :   -0.106764
   2 C :   -0.125369
   3 C :   -0.023601
   4 C :   -0.085220
   5 H :   -0.002689
   6 C :    0.127632
   7 H :    0.010156
   8 H :    0.009986
   9 C :   -0.077932
  10 H :    0.022541
  11 H :    0.010658
  12 C :    0.008564
  13 H :    0.019689
  14 H :    0.008218
  15 H :    0.028835
  16 S :    0.105548
  17 C :   -0.102583
  18 C :   -0.045541
  19 C :   -0.077085
  20 C :   -0.112722
  21 H :    0.031747
  22 C :    0.076916
  23 H :    0.031498
  24 H :    0.019808
  25 C :   -0.098507
  26 H :    0.042200
  27 H :    0.029819
  28 C :   -0.037521
  29 H :    0.032878
  30 H :    0.022666
  31 H :    0.036952
  32 H :    0.047079
  33 H :    0.071454
Sum of atomic charges:   -0.0000000

LOEWDIN ATOMIC CHARGES
----------------------
   0 S :    0.414637
   1 C :   -0.206240
   2 C :   -0.057852
   3 C :   -0.079053
   4 C :   -0.197158
   5 H :    0.023091
   6 C :   -0.020114
   7 H :    0.024126
   8 H :    0.027349
   9 C :   -0.037609
  10 H :    0.021462
  11 H :    0.020595
  12 C :   -0.056523
  13 H :    0.019309
  14 H :    0.020809
  15 H :    0.027789
  16 S :    0.399587
  17 C :   -0.201769
  18 C :   -0.070989
  19 C :   -0.051952
  20 C :   -0.170647
  21 H :    0.034795
  22 C :   -0.034148
  23 H :    0.030811
  24 H :    0.034495
  25 C :   -0.038772
  26 H :    0.030255
  27 H :    0.020168
  28 C :   -0.061700
  29 H :    0.024399
  30 H :    0.019837
  31 H :    0.026012
  32 H :    0.029194
  33 H :    0.035802

  Mayer bond orders larger than 0.100000
B(  0-S ,  1-C ) :   1.1554 B(  0-S ,  4-C ) :   1.1336 B(  1-C ,  2-C ) :   1.5961
B(  1-C , 32-H ) :   0.9643 B(  2-C ,  3-C ) :   1.2483 B(  2-C ,  6-C ) :   1.0437
B(  3-C ,  4-C ) :   1.5853 B(  3-C ,  5-H ) :   0.9880 B(  4-C , 20-C ) :   1.0630
B(  6-C ,  7-H ) :   0.9345 B(  6-C ,  8-H ) :   0.9337 B(  6-C ,  9-C ) :   1.0630
B(  9-C , 10-H ) :   0.9580 B(  9-C , 11-H ) :   0.9516 B(  9-C , 12-C ) :   1.0864
B( 12-C , 13-H ) :   0.9702 B( 12-C , 14-H ) :   0.9692 B( 12-C , 15-H ) :   0.9748
B( 16-S , 17-C ) :   1.1573 B( 16-S , 20-C ) :   1.1263 B( 17-C , 18-C ) :   1.6158
B( 17-C , 33-H ) :   0.9639 B( 18-C , 19-C ) :   1.2132 B( 18-C , 21-H ) :   0.9830
B( 19-C , 20-C ) :   1.6170 B( 19-C , 22-C ) :   1.0373 B( 22-C , 23-H ) :   0.9335
B( 22-C , 24-H ) :   0.9334 B( 22-C , 25-C ) :   1.0724 B( 25-C , 26-H ) :   0.9545
B( 25-C , 27-H ) :   0.9577 B( 25-C , 28-C ) :   1.0727 B( 28-C , 29-H ) :   0.9762
B( 28-C , 30-H ) :   0.9763 B( 28-C , 31-H ) :   0.9717

Dispersion correction           -0.014084146
FINAL SINGLE POINT ENERGY     -1339.873167893615

DIPOLE MOMENT
-------------
                                X             Y             Z
Electronic contribution:     11.99492     -22.74588     -12.82498
Nuclear contribution   :    -12.53194      23.12204      13.05185
                        -----------------------------------------
Total Dipole Moment    :     -0.53702       0.37616       0.22687
                        -----------------------------------------
Magnitude (a.u.)       :      0.69380
Magnitude (Debye)      :      1.76350

Rotational constants in cm-1:     0.020371     0.008081     0.006152
Rotational constants in MHz :   610.719202   242.249394   184.433085

                             ****ORCA TERMINATED NORMALLY****
TOTAL RUN TIME: 0 days 0 hours 0 minutes 21 seconds 354 msec
