                         Program Version 4.2.1 -  RELEASE  -
|  1> ! wB97X-D3 SP def2-SVP
|  2> %pal
|  3> nprocs 24
|  4> end
|  5>
|  6> * xyz 0 1
|  7> S 	 -117.525 	 23.3762 	 -117.287
|  8> C 	 -118.425 	 23.428 	 -118.791
|  9> C 	 -118.976 	 24.6583 	 -119.036
| 10> C 	 -118.641 	 25.602 	 -118.023
| 11> C 	 -117.805 	 25.1031 	 -117.062
| 12> H 	 -118.875 	 26.7055 	 -117.933
| 13> C 	 -119.921 	 24.9783 	 -120.171
| 14> H 	 -119.669 	 24.5296 	 -121.143
| 15> H 	 -119.723 	 26.0082 	 -120.296
| 16> C 	 -121.396 	 24.7722 	 -119.751
| 17> H 	 -121.533 	 25.1267 	 -118.676
| 18> H 	 -122.024 	 25.3521 	 -120.332
| 19> C 	 -121.92 	 23.3618 	 -119.8
| 20> H 	 -122.992 	 23.5097 	 -119.88
| 21> H 	 -121.588 	 22.7466 	 -120.662
| 22> H 	 -121.729 	 22.7814 	 -118.898
| 23> S 	 -118.145 	 26.7475 	 -114.889
| 24> C 	 -116.799 	 27.4699 	 -114.116
| 25> C 	 -115.602 	 27.1026 	 -114.664
| 26> C 	 -115.761 	 26.2304 	 -115.77
| 27> C 	 -117.101 	 25.8415 	 -115.993
| 28> H 	 -114.656 	 27.4067 	 -114.283
| 29> C 	 -114.567 	 25.9067 	 -116.646
| 30> H 	 -114.926 	 25.0658 	 -117.268
| 31> H 	 -113.797 	 25.4714 	 -115.973
| 32> C 	 -114.013 	 26.9778 	 -117.557
| 33> H 	 -113.053 	 26.6557 	 -117.953
| 34> H 	 -113.809 	 27.8434 	 -116.981
| 35> C 	 -115.096 	 27.4056 	 -118.684
| 36> H 	 -116.119 	 27.672 	 -118.337
| 37> H 	 -115.25 	 26.6328 	 -119.49
| 38> H 	 -114.768 	 28.306 	 -119.14
| 39> H 	 -118.669 	 22.5893 	 -119.409
| 40> H 	 -116.777 	 27.9754 	 -113.134
| 41> *
| 42>
| 43>                          ****END OF INPUT****

CARTESIAN COORDINATES (ANGSTROEM)
---------------------------------
  S    -117.525000   23.376200  -117.287000
  C    -118.425000   23.428000  -118.791000
  C    -118.976000   24.658300  -119.036000
  C    -118.641000   25.602000  -118.023000
  C    -117.805000   25.103100  -117.062000
  H    -118.875000   26.705500  -117.933000
  C    -119.921000   24.978300  -120.171000
  H    -119.669000   24.529600  -121.143000
  H    -119.723000   26.008200  -120.296000
  C    -121.396000   24.772200  -119.751000
  H    -121.533000   25.126700  -118.676000
  H    -122.024000   25.352100  -120.332000
  C    -121.920000   23.361800  -119.800000
  H    -122.992000   23.509700  -119.880000
  H    -121.588000   22.746600  -120.662000
  H    -121.729000   22.781400  -118.898000
  S    -118.145000   26.747500  -114.889000
  C    -116.799000   27.469900  -114.116000
  C    -115.602000   27.102600  -114.664000
  C    -115.761000   26.230400  -115.770000
  C    -117.101000   25.841500  -115.993000
  H    -114.656000   27.406700  -114.283000
  C    -114.567000   25.906700  -116.646000
  H    -114.926000   25.065800  -117.268000
  H    -113.797000   25.471400  -115.973000
  C    -114.013000   26.977800  -117.557000
  H    -113.053000   26.655700  -117.953000
  H    -113.809000   27.843400  -116.981000
  C    -115.096000   27.405600  -118.684000
  H    -116.119000   27.672000  -118.337000
  H    -115.250000   26.632800  -119.490000
  H    -114.768000   28.306000  -119.140000
  H    -118.669000   22.589300  -119.409000
  H    -116.777000   27.975400  -113.134000

 Total Charge           Charge          ....    0
 Multiplicity           Mult            ....    1
 Number of Electrons    NEL             ....  134
 Basis Dimension        Dim             ....  322

ORBITAL ENERGIES
----------------

  NO   OCC          E(Eh)            E(eV)
   0   2.0000     -88.966274     -2420.8954
   1   2.0000     -88.965986     -2420.8876
   2   2.0000     -10.330102      -281.0964
   3   2.0000     -10.329975      -281.0929
   4   2.0000     -10.314545      -280.6730
   5   2.0000     -10.309263      -280.5293
   6   2.0000     -10.303291      -280.3668
   7   2.0000     -10.299240      -280.2566
   8   2.0000     -10.297336      -280.2047
   9   2.0000     -10.288765      -279.9715
  10   2.0000     -10.288367      -279.9607
  11   2.0000     -10.287439      -279.9355
  12   2.0000     -10.287075      -279.9255
  13   2.0000     -10.284350      -279.8514
  14   2.0000     -10.279537      -279.7204
  15   2.0000     -10.275141      -279.6008
  16   2.0000      -8.081217      -219.9011
  17   2.0000      -8.080223      -219.8740
  18   2.0000      -6.039675      -164.3479
  19   2.0000      -6.038701      -164.3214
  20   2.0000      -6.035573      -164.2363
  21   2.0000      -6.034869      -164.2171
  22   2.0000      -6.032139      -164.1429
  23   2.0000      -6.030961      -164.1108
  24   2.0000      -1.006018       -27.3752
  25   2.0000      -0.986543       -26.8452
  26   2.0000      -0.912959       -24.8429
  27   2.0000      -0.903632       -24.5891
  28   2.0000      -0.868598       -23.6358
  29   2.0000      -0.850782       -23.1510
  30   2.0000      -0.840073       -22.8595
  31   2.0000      -0.813459       -22.1354
  32   2.0000      -0.783979       -21.3332
  33   2.0000      -0.771458       -20.9924
  34   2.0000      -0.709681       -19.3114
  35   2.0000      -0.697664       -18.9844
  36   2.0000      -0.690643       -18.7933
  37   2.0000      -0.661762       -18.0075
  38   2.0000      -0.637799       -17.3554
  39   2.0000      -0.615722       -16.7546
  40   2.0000      -0.590730       -16.0746
  41   2.0000      -0.573676       -15.6105
  42   2.0000      -0.552425       -15.0322
  43   2.0000      -0.545795       -14.8518
  44   2.0000      -0.537215       -14.6184
  45   2.0000      -0.536203       -14.5908
  46   2.0000      -0.516649       -14.0587
  47   2.0000      -0.508107       -13.8263
  48   2.0000      -0.502655       -13.6779
  49   2.0000      -0.492780       -13.4092
  50   2.0000      -0.484010       -13.1706
  51   2.0000      -0.480270       -13.0688
  52   2.0000      -0.466609       -12.6971
  53   2.0000      -0.466185       -12.6855
  54   2.0000      -0.456093       -12.4109
  55   2.0000      -0.450344       -12.2545
  56   2.0000      -0.443458       -12.0671
  57   2.0000      -0.432976       -11.7819
  58   2.0000      -0.430975       -11.7274
  59   2.0000      -0.425428       -11.5765
  60   2.0000      -0.419069       -11.4035
  61   2.0000      -0.415440       -11.3047
  62   2.0000      -0.411411       -11.1951
  63   2.0000      -0.343497        -9.3470
  64   2.0000      -0.333911        -9.0862
  65   2.0000      -0.328144        -8.9292
  66   2.0000      -0.296555        -8.0697
  67   0.0000       0.036943         1.0053
  68   0.0000       0.064708         1.7608
  69   0.0000       0.114761         3.1228
  70   0.0000       0.117048         3.1850
  71   0.0000       0.131535         3.5792

MULLIKEN ATOMIC CHARGES
-----------------------
   0 S :    0.113551
   1 C :   -0.104957
   2 C :   -0.110176
   3 C :    0.019525
   4 C :   -0.170821
   5 H :    0.038290
   6 C :    0.103236
   7 H :    0.030020
   8 H :    0.005090
   9 C :   -0.058951
  10 H :    0.037567
  11 H :    0.013025
  12 C :   -0.057795
  13 H :    0.030769
  14 H :    0.029742
  15 H :    0.042060
  16 S :    0.108378
  17 C :   -0.084747
  18 C :   -0.029097
  19 C :   -0.047681
  20 C :   -0.174255
  21 H :    0.005711
  22 C :    0.051121
  23 H :    0.015458
  24 H :    0.032784
  25 C :   -0.013434
  26 H :    0.033573
  27 H :    0.014607
  28 C :   -0.082090
  29 H :    0.041266
  30 H :    0.045214
  31 H :    0.020715
  32 H :    0.034948
  33 H :    0.067354
Sum of atomic charges:    0.0000000

LOEWDIN ATOMIC CHARGES
----------------------
   0 S :    0.399897
   1 C :   -0.193671
   2 C :   -0.063223
   3 C :   -0.072556
   4 C :   -0.192700
   5 H :    0.042356
   6 C :   -0.028719
   7 H :    0.031791
   8 H :    0.025801
   9 C :   -0.035552
  10 H :    0.037853
  11 H :    0.011734
  12 C :   -0.070270
  13 H :    0.029905
  14 H :    0.024412
  15 H :    0.026052
  16 S :    0.419507
  17 C :   -0.201362
  18 C :   -0.072039
  19 C :   -0.051957
  20 C :   -0.201650
  21 H :    0.026802
  22 C :   -0.041412
  23 H :    0.026209
  24 H :    0.033642
  25 C :   -0.027921
  26 H :    0.028294
  27 H :    0.016505
  28 C :   -0.069692
  29 H :    0.030149
  30 H :    0.031236
  31 H :    0.017362
  32 H :    0.024358
  33 H :    0.038860

  Mayer bond orders larger than 0.100000
B(  0-S ,  1-C ) :   1.1274 B(  0-S ,  4-C ) :   1.1457 B(  1-C ,  2-C ) :   1.6409
B(  1-C , 32-H ) :   0.9674 B(  2-C ,  3-C ) :   1.2249 B(  2-C ,  6-C ) :   1.0174
B(  3-C ,  4-C ) :   1.6171 B(  3-C ,  5-H ) :   0.9744 B(  4-C , 20-C ) :   0.9978
B(  6-C ,  7-H ) :   0.9462 B(  6-C ,  8-H ) :   0.9270 B(  6-C ,  9-C ) :   1.0717
B(  9-C , 10-H ) :   0.9510 B(  9-C , 11-H ) :   0.9623 B(  9-C , 12-C ) :   1.0771
B( 12-C , 13-H ) :   0.9741 B( 12-C , 14-H ) :   0.9750 B( 12-C , 15-H ) :   0.9752
B( 16-S , 17-C ) :   1.1692 B( 16-S , 20-C ) :   1.1447 B( 17-C , 18-C ) :   1.5959
B( 17-C , 33-H ) :   0.9560 B( 18-C , 19-C ) :   1.2623 B( 18-C , 21-H ) :   0.9936
B( 19-C , 20-C ) :   1.5738 B( 19-C , 22-C ) :   1.0435 B( 22-C , 23-H ) :   0.9287
B( 22-C , 24-H ) :   0.9315 B( 22-C , 25-C ) :   1.0767 B( 25-C , 26-H ) :   0.9550
B( 25-C , 27-H ) :   0.9560 B( 25-C , 28-C ) :   1.0567 B( 28-C , 29-H ) :   0.9775
B( 28-C , 30-H ) :   0.9784 B( 28-C , 31-H ) :   0.9764

Dispersion correction           -0.015685090
FINAL SINGLE POINT ENERGY     -1339.881400010911

DIPOLE MOMENT
-------------
                                X             Y             Z
Electronic contribution:      2.07119      -3.08648      17.86738
Nuclear contribution   :     -2.02601       3.37023     -18.17942
                        -----------------------------------------
Total Dipole Moment    :      0.04518       0.28375      -0.31204
                        -----------------------------------------
Magnitude (a.u.)       :      0.42418
Magnitude (Debye)      :      1.07817

Rotational constants in cm-1:     0.022609     0.008107     0.007282
Rotational constants in MHz :   677.813947   243.029873   218.323184

                             ****ORCA TERMINATED NORMALLY****
TOTAL RUN TIME: 0 days 0 hours 0 minutes 22 seconds 186 msec
