                         Program Version 4.2.1 -  RELEASE  -
|  1> ! wB97X-D3 SP def2-SVP
|  2> %pal
|  3> nprocs 24
|  4> end
|  5>
|  6> * xyz 0 1
|  7> S 	 -108.408 	 60.8494 	 -101.937
|  8> C 	 -108.438 	 59.8014 	 -100.556
|  9> C 	 -108.583 	 60.5076 	 -99.4173
| 10> C 	 -108.235 	 61.9064 	 -99.5659
| 11> C 	 -108.225 	 62.2714 	 -100.902
| 12> H 	 -108.212 	 62.6631 	 -98.7639
| 13> C 	 -109.017 	 59.9211 	 -98.1054
| 14> H 	 -109.585 	 59.0658 	 -98.3229
| 15> H 	 -109.75 	 60.5641 	 -97.6635
| 16> C 	 -107.907 	 59.5728 	 -97.0458
| 17> H 	 -107.52 	 58.6052 	 -97.4931
| 18> H 	 -107.133 	 60.2945 	 -96.9064
| 19> C 	 -108.583 	 59.2868 	 -95.6708
| 20> H 	 -109.084 	 58.3104 	 -95.5168
| 21> H 	 -107.791 	 59.1107 	 -94.8806
| 22> H 	 -109.252 	 60.0036 	 -95.3765
| 23> S 	 -106.656 	 64.6101 	 -100.926
| 24> C 	 -107.065 	 65.8835 	 -101.955
| 25> C 	 -108.257 	 65.6614 	 -102.564
| 26> C 	 -108.857 	 64.3371 	 -102.325
| 27> C 	 -108.092 	 63.6371 	 -101.427
| 28> H 	 -108.592 	 66.433 	 -103.278
| 29> C 	 -110.167 	 63.9609 	 -103.02
| 30> H 	 -110.106 	 62.9224 	 -103.445
| 31> H 	 -110.27 	 64.6636 	 -103.843
| 32> C 	 -111.354 	 64.1072 	 -102.037
| 33> H 	 -111.676 	 65.13 	 -101.78
| 34> H 	 -111.187 	 63.5048 	 -101.198
| 35> C 	 -112.584 	 63.4026 	 -102.578
| 36> H 	 -113.063 	 64.0088 	 -103.321
| 37> H 	 -113.319 	 63.2493 	 -101.845
| 38> H 	 -112.297 	 62.4604 	 -103.076
| 39> H 	 -108.557 	 58.7203 	 -100.599
| 40> H 	 -106.507 	 66.8378 	 -101.98
| 41> *
| 42>
| 43>                          ****END OF INPUT****

CARTESIAN COORDINATES (ANGSTROEM)
---------------------------------
  S    -108.408000   60.849400  -101.937000
  C    -108.438000   59.801400  -100.556000
  C    -108.583000   60.507600  -99.417300
  C    -108.235000   61.906400  -99.565900
  C    -108.225000   62.271400  -100.902000
  H    -108.212000   62.663100  -98.763900
  C    -109.017000   59.921100  -98.105400
  H    -109.585000   59.065800  -98.322900
  H    -109.750000   60.564100  -97.663500
  C    -107.907000   59.572800  -97.045800
  H    -107.520000   58.605200  -97.493100
  H    -107.133000   60.294500  -96.906400
  C    -108.583000   59.286800  -95.670800
  H    -109.084000   58.310400  -95.516800
  H    -107.791000   59.110700  -94.880600
  H    -109.252000   60.003600  -95.376500
  S    -106.656000   64.610100  -100.926000
  C    -107.065000   65.883500  -101.955000
  C    -108.257000   65.661400  -102.564000
  C    -108.857000   64.337100  -102.325000
  C    -108.092000   63.637100  -101.427000
  H    -108.592000   66.433000  -103.278000
  C    -110.167000   63.960900  -103.020000
  H    -110.106000   62.922400  -103.445000
  H    -110.270000   64.663600  -103.843000
  C    -111.354000   64.107200  -102.037000
  H    -111.676000   65.130000  -101.780000
  H    -111.187000   63.504800  -101.198000
  C    -112.584000   63.402600  -102.578000
  H    -113.063000   64.008800  -103.321000
  H    -113.319000   63.249300  -101.845000
  H    -112.297000   62.460400  -103.076000
  H    -108.557000   58.720300  -100.599000
  H    -106.507000   66.837800  -101.980000

 Total Charge           Charge          ....    0
 Multiplicity           Mult            ....    1
 Number of Electrons    NEL             ....  134
 Basis Dimension        Dim             ....  322

ORBITAL ENERGIES
----------------

  NO   OCC          E(Eh)            E(eV)
   0   2.0000     -88.965684     -2420.8793
   1   2.0000     -88.960102     -2420.7275
   2   2.0000     -10.332260      -281.1551
   3   2.0000     -10.327833      -281.0346
   4   2.0000     -10.311827      -280.5991
   5   2.0000     -10.309845      -280.5451
   6   2.0000     -10.306083      -280.4428
   7   2.0000     -10.298293      -280.2308
   8   2.0000     -10.297829      -280.2182
   9   2.0000     -10.297619      -280.2125
  10   2.0000     -10.295639      -280.1586
  11   2.0000     -10.291862      -280.0558
  12   2.0000     -10.285876      -279.8929
  13   2.0000     -10.279081      -279.7080
  14   2.0000     -10.278969      -279.7050
  15   2.0000     -10.265303      -279.3331
  16   2.0000      -8.080278      -219.8756
  17   2.0000      -8.075533      -219.7464
  18   2.0000      -6.038946      -164.3281
  19   2.0000      -6.034911      -164.2183
  20   2.0000      -6.034102      -164.1963
  21   2.0000      -6.030781      -164.1059
  22   2.0000      -6.029955      -164.0834
  23   2.0000      -6.026165      -163.9803
  24   2.0000      -1.005315       -27.3560
  25   2.0000      -0.986442       -26.8424
  26   2.0000      -0.911352       -24.7992
  27   2.0000      -0.907204       -24.6863
  28   2.0000      -0.869892       -23.6710
  29   2.0000      -0.850774       -23.1507
  30   2.0000      -0.846095       -23.0234
  31   2.0000      -0.812147       -22.0996
  32   2.0000      -0.782844       -21.3023
  33   2.0000      -0.771599       -20.9963
  34   2.0000      -0.708237       -19.2721
  35   2.0000      -0.702079       -19.1045
  36   2.0000      -0.690043       -18.7770
  37   2.0000      -0.659506       -17.9461
  38   2.0000      -0.637205       -17.3392
  39   2.0000      -0.615781       -16.7563
  40   2.0000      -0.593801       -16.1581
  41   2.0000      -0.570694       -15.5294
  42   2.0000      -0.569282       -15.4910
  43   2.0000      -0.559004       -15.2113
  44   2.0000      -0.528391       -14.3782
  45   2.0000      -0.524219       -14.2647
  46   2.0000      -0.513714       -13.9789
  47   2.0000      -0.510692       -13.8966
  48   2.0000      -0.508253       -13.8303
  49   2.0000      -0.502418       -13.6715
  50   2.0000      -0.489153       -13.3105
  51   2.0000      -0.482548       -13.1308
  52   2.0000      -0.468322       -12.7437
  53   2.0000      -0.466284       -12.6882
  54   2.0000      -0.458164       -12.4673
  55   2.0000      -0.447084       -12.1658
  56   2.0000      -0.441230       -12.0065
  57   2.0000      -0.435119       -11.8402
  58   2.0000      -0.430038       -11.7019
  59   2.0000      -0.424608       -11.5542
  60   2.0000      -0.422493       -11.4966
  61   2.0000      -0.418255       -11.3813
  62   2.0000      -0.411419       -11.1953
  63   2.0000      -0.349583        -9.5126
  64   2.0000      -0.327107        -8.9010
  65   2.0000      -0.325817        -8.8659
  66   2.0000      -0.294757        -8.0208
  67   0.0000       0.036494         0.9931
  68   0.0000       0.072511         1.9731
  69   0.0000       0.099826         2.7164
  70   0.0000       0.119673         3.2565
  71   0.0000       0.134028         3.6471

MULLIKEN ATOMIC CHARGES
-----------------------
   0 S :    0.106292
   1 C :   -0.115460
   2 C :   -0.094431
   3 C :    0.018599
   4 C :   -0.138520
   5 H :    0.027203
   6 C :    0.076455
   7 H :    0.002699
   8 H :    0.014361
   9 C :   -0.057273
  10 H :    0.038595
  11 H :    0.040847
  12 C :   -0.061581
  13 H :    0.028709
  14 H :    0.033768
  15 H :    0.022391
  16 S :    0.101987
  17 C :   -0.098227
  18 C :   -0.058291
  19 C :   -0.035705
  20 C :   -0.170063
  21 H :    0.025771
  22 C :    0.074261
  23 H :    0.037760
  24 H :    0.019995
  25 C :   -0.051873
  26 H :    0.037399
  27 H :    0.024554
  28 C :   -0.029823
  29 H :    0.011314
  30 H :    0.021325
  31 H :    0.026414
  32 H :    0.049202
  33 H :    0.071346
Sum of atomic charges:    0.0000000

LOEWDIN ATOMIC CHARGES
----------------------
   0 S :    0.398816
   1 C :   -0.200838
   2 C :   -0.063340
   3 C :   -0.061252
   4 C :   -0.184891
   5 H :    0.036394
   6 C :   -0.030454
   7 H :    0.023530
   8 H :    0.025449
   9 C :   -0.029853
  10 H :    0.034232
  11 H :    0.021955
  12 C :   -0.072793
  13 H :    0.029472
  14 H :    0.034047
  15 H :    0.009794
  16 S :    0.401637
  17 C :   -0.207576
  18 C :   -0.084359
  19 C :   -0.052352
  20 C :   -0.185504
  21 H :    0.032995
  22 C :   -0.026718
  23 H :    0.033712
  24 H :    0.029683
  25 C :   -0.032992
  26 H :    0.030185
  27 H :    0.020721
  28 C :   -0.059594
  29 H :    0.016400
  30 H :    0.017394
  31 H :    0.025499
  32 H :    0.030848
  33 H :    0.039753

  Mayer bond orders larger than 0.100000
B(  0-S ,  1-C ) :   1.1199 B(  0-S ,  4-C ) :   1.1374 B(  1-C ,  2-C ) :   1.6537
B(  1-C , 32-H ) :   0.9639 B(  2-C ,  3-C ) :   1.2033 B(  2-C ,  6-C ) :   1.0311
B(  3-C ,  4-C ) :   1.5939 B(  3-C ,  5-H ) :   0.9877 B(  4-C , 20-C ) :   1.0461
B(  6-C ,  7-H ) :   0.9386 B(  6-C ,  8-H ) :   0.9413 B(  6-C ,  9-C ) :   1.0450
B(  9-C , 10-H ) :   0.9587 B(  9-C , 11-H ) :   0.9667 B(  9-C , 12-C ) :   1.0680
B( 12-C , 13-H ) :   0.9752 B( 12-C , 14-H ) :   0.9738 B( 12-C , 15-H ) :   0.9799
B( 16-S , 17-C ) :   1.1560 B( 16-S , 20-C ) :   1.1225 B( 17-C , 18-C ) :   1.6469
B( 17-C , 33-H ) :   0.9585 B( 18-C , 19-C ) :   1.2078 B( 18-C , 21-H ) :   0.9815
B( 19-C , 20-C ) :   1.6245 B( 19-C , 22-C ) :   1.0418 B( 22-C , 23-H ) :   0.9360
B( 22-C , 24-H ) :   0.9287 B( 22-C , 25-C ) :   1.0708 B( 25-C , 26-H ) :   0.9536
B( 25-C , 27-H ) :   0.9616 B( 25-C , 28-C ) :   1.0855 B( 28-C , 29-H ) :   0.9729
B( 28-C , 30-H ) :   0.9751 B( 28-C , 31-H ) :   0.9736

Dispersion correction           -0.013961144
FINAL SINGLE POINT ENERGY     -1339.867653818462

DIPOLE MOMENT
-------------
                                X             Y             Z
Electronic contribution:     16.79652       7.76414     -12.37640
Nuclear contribution   :    -17.28327      -7.76091      12.65755
                        -----------------------------------------
Total Dipole Moment    :     -0.48675       0.00323       0.28115
                        -----------------------------------------
Magnitude (a.u.)       :      0.56212
Magnitude (Debye)      :      1.42880

Rotational constants in cm-1:     0.018803     0.007849     0.006627
Rotational constants in MHz :   563.712281   235.309663   198.658716

                             ****ORCA TERMINATED NORMALLY****
TOTAL RUN TIME: 0 days 0 hours 0 minutes 21 seconds 36 msec
