                         Program Version 4.2.1 -  RELEASE  -
|  1> ! wB97X-D3 SP def2-SVP
|  2> %pal
|  3> nprocs 24
|  4> end
|  5>
|  6> * xyz 0 1
|  7> S 	 28.2019 	 1.36647 	 -116.913
|  8> C 	 28.3479 	 2.71223 	 -118.028
|  9> C 	 29.5969 	 3.25871 	 -117.946
| 10> C 	 30.4051 	 2.66651 	 -116.928
| 11> C 	 29.793 	 1.53712 	 -116.33
| 12> H 	 31.3622 	 2.94992 	 -116.561
| 13> C 	 30.0219 	 4.42431 	 -118.847
| 14> H 	 29.8534 	 5.34471 	 -118.253
| 15> H 	 29.3033 	 4.45041 	 -119.705
| 16> C 	 31.3521 	 4.19345 	 -119.577
| 17> H 	 32.1218 	 4.17222 	 -118.804
| 18> H 	 31.2743 	 3.25897 	 -120.111
| 19> C 	 31.5977 	 5.27621 	 -120.636
| 20> H 	 31.4362 	 6.2365 	 -120.111
| 21> H 	 32.5763 	 5.30689 	 -121.105
| 22> H 	 30.7714 	 5.17944 	 -121.352
| 23> S 	 29.4274 	 0.47318 	 -113.748
| 24> C 	 30.7307 	 -0.261245 	 -112.965
| 25> C 	 31.8738 	 -0.137547 	 -113.742
| 26> C 	 31.679 	 0.406207 	 -115.046
| 27> C 	 30.4055 	 0.889345 	 -115.207
| 28> H 	 32.8107 	 -0.510536 	 -113.271
| 29> C 	 32.8716 	 0.538716 	 -116.05
| 30> H 	 32.6614 	 0.46217 	 -117.11
| 31> H 	 33.4092 	 -0.475349 	 -115.934
| 32> C 	 33.9778 	 1.7029 	 -115.905
| 33> H 	 33.56 	 2.71774 	 -116.049
| 34> H 	 34.703 	 1.77716 	 -116.692
| 35> C 	 34.6646 	 1.69768 	 -114.58
| 36> H 	 35.1044 	 0.761768 	 -114.507
| 37> H 	 33.9371 	 1.84169 	 -113.787
| 38> H 	 35.3489 	 2.55491 	 -114.606
| 39> H 	 27.5981 	 2.98472 	 -118.691
| 40> H 	 30.6878 	 -0.619132 	 -111.93
| 41> *
| 42>
| 43>                          ****END OF INPUT****

CARTESIAN COORDINATES (ANGSTROEM)
---------------------------------
  S     28.201900    1.366470  -116.913000
  C     28.347900    2.712230  -118.028000
  C     29.596900    3.258710  -117.946000
  C     30.405100    2.666510  -116.928000
  C     29.793000    1.537120  -116.330000
  H     31.362200    2.949920  -116.561000
  C     30.021900    4.424310  -118.847000
  H     29.853400    5.344710  -118.253000
  H     29.303300    4.450410  -119.705000
  C     31.352100    4.193450  -119.577000
  H     32.121800    4.172220  -118.804000
  H     31.274300    3.258970  -120.111000
  C     31.597700    5.276210  -120.636000
  H     31.436200    6.236500  -120.111000
  H     32.576300    5.306890  -121.105000
  H     30.771400    5.179440  -121.352000
  S     29.427400    0.473180  -113.748000
  C     30.730700   -0.261245  -112.965000
  C     31.873800   -0.137547  -113.742000
  C     31.679000    0.406207  -115.046000
  C     30.405500    0.889345  -115.207000
  H     32.810700   -0.510536  -113.271000
  C     32.871600    0.538716  -116.050000
  H     32.661400    0.462170  -117.110000
  H     33.409200   -0.475349  -115.934000
  C     33.977800    1.702900  -115.905000
  H     33.560000    2.717740  -116.049000
  H     34.703000    1.777160  -116.692000
  C     34.664600    1.697680  -114.580000
  H     35.104400    0.761768  -114.507000
  H     33.937100    1.841690  -113.787000
  H     35.348900    2.554910  -114.606000
  H     27.598100    2.984720  -118.691000
  H     30.687800   -0.619132  -111.930000

 Total Charge           Charge          ....    0
 Multiplicity           Mult            ....    1
 Number of Electrons    NEL             ....  134
 Basis Dimension        Dim             ....  322

ORBITAL ENERGIES
----------------

  NO   OCC          E(Eh)            E(eV)
   0   2.0000     -88.967491     -2420.9285
   1   2.0000     -88.963759     -2420.8270
   2   2.0000     -10.330049      -281.0949
   3   2.0000     -10.326792      -281.0063
   4   2.0000     -10.316532      -280.7271
   5   2.0000     -10.310399      -280.5602
   6   2.0000     -10.308415      -280.5062
   7   2.0000     -10.306358      -280.4503
   8   2.0000     -10.300975      -280.3038
   9   2.0000     -10.297352      -280.2052
  10   2.0000     -10.296434      -280.1802
  11   2.0000     -10.292635      -280.0768
  12   2.0000     -10.289371      -279.9880
  13   2.0000     -10.287287      -279.9313
  14   2.0000     -10.281358      -279.7700
  15   2.0000     -10.268159      -279.4108
  16   2.0000      -8.082703      -219.9415
  17   2.0000      -8.079120      -219.8440
  18   2.0000      -6.041126      -164.3874
  19   2.0000      -6.037573      -164.2907
  20   2.0000      -6.037004      -164.2752
  21   2.0000      -6.033668      -164.1844
  22   2.0000      -6.033450      -164.1785
  23   2.0000      -6.029979      -164.0841
  24   2.0000      -1.010461       -27.4960
  25   2.0000      -0.988462       -26.8974
  26   2.0000      -0.914614       -24.8879
  27   2.0000      -0.904277       -24.6066
  28   2.0000      -0.876423       -23.8487
  29   2.0000      -0.856317       -23.3016
  30   2.0000      -0.844277       -22.9739
  31   2.0000      -0.810420       -22.0527
  32   2.0000      -0.783079       -21.3087
  33   2.0000      -0.773032       -21.0353
  34   2.0000      -0.712119       -19.3777
  35   2.0000      -0.698974       -19.0201
  36   2.0000      -0.692544       -18.8451
  37   2.0000      -0.659129       -17.9358
  38   2.0000      -0.643835       -17.5196
  39   2.0000      -0.616070       -16.7641
  40   2.0000      -0.593853       -16.1596
  41   2.0000      -0.574729       -15.6392
  42   2.0000      -0.566989       -15.4286
  43   2.0000      -0.551775       -15.0146
  44   2.0000      -0.548941       -14.9375
  45   2.0000      -0.527719       -14.3600
  46   2.0000      -0.518836       -14.1182
  47   2.0000      -0.513433       -13.9712
  48   2.0000      -0.508490       -13.8367
  49   2.0000      -0.499426       -13.5901
  50   2.0000      -0.493548       -13.4301
  51   2.0000      -0.484960       -13.1964
  52   2.0000      -0.468358       -12.7447
  53   2.0000      -0.466942       -12.7061
  54   2.0000      -0.462350       -12.5812
  55   2.0000      -0.447057       -12.1650
  56   2.0000      -0.441626       -12.0173
  57   2.0000      -0.434393       -11.8204
  58   2.0000      -0.428017       -11.6469
  59   2.0000      -0.425808       -11.5868
  60   2.0000      -0.422800       -11.5050
  61   2.0000      -0.411972       -11.2103
  62   2.0000      -0.405531       -11.0350
  63   2.0000      -0.353921        -9.6307
  64   2.0000      -0.332637        -9.0515
  65   2.0000      -0.331141        -9.0108
  66   2.0000      -0.289430        -7.8758
  67   0.0000       0.025782         0.7016
  68   0.0000       0.077874         2.1190
  69   0.0000       0.118578         3.2267
  70   0.0000       0.124658         3.3921
  71   0.0000       0.132189         3.5970

MULLIKEN ATOMIC CHARGES
-----------------------
   0 S :    0.115403
   1 C :   -0.110551
   2 C :   -0.052600
   3 C :    0.027257
   4 C :   -0.139513
   5 H :   -0.017357
   6 C :    0.027173
   7 H :    0.055324
   8 H :    0.011575
   9 C :   -0.075489
  10 H :    0.031170
  11 H :    0.036335
  12 C :   -0.037401
  13 H :    0.024031
  14 H :    0.045540
  15 H :    0.028667
  16 S :    0.106849
  17 C :   -0.105534
  18 C :   -0.064688
  19 C :   -0.003250
  20 C :   -0.153760
  21 H :    0.032481
  22 C :    0.017679
  23 H :    0.033824
  24 H :    0.034933
  25 C :   -0.069561
  26 H :    0.016905
  27 H :    0.017514
  28 C :   -0.019062
  29 H :    0.015965
  30 H :    0.040076
  31 H :    0.032814
  32 H :    0.024932
  33 H :    0.072319
Sum of atomic charges:   -0.0000000

LOEWDIN ATOMIC CHARGES
----------------------
   0 S :    0.427658
   1 C :   -0.187592
   2 C :   -0.062032
   3 C :   -0.054358
   4 C :   -0.210250
   5 H :    0.021973
   6 C :   -0.033950
   7 H :    0.036603
   8 H :    0.028907
   9 C :   -0.038749
  10 H :    0.018785
  11 H :    0.026762
  12 C :   -0.064863
  13 H :    0.026441
  14 H :    0.026692
  15 H :    0.025504
  16 S :    0.405402
  17 C :   -0.207273
  18 C :   -0.083311
  19 C :   -0.060335
  20 C :   -0.175419
  21 H :    0.036036
  22 C :   -0.038776
  23 H :    0.030732
  24 H :    0.039874
  25 C :   -0.041537
  26 H :    0.019336
  27 H :    0.022082
  28 C :   -0.057692
  29 H :    0.013280
  30 H :    0.026480
  31 H :    0.030196
  32 H :    0.015691
  33 H :    0.037706

  Mayer bond orders larger than 0.100000
B(  0-S ,  1-C ) :   1.1374 B(  0-S ,  4-C ) :   1.1696 B(  1-C ,  2-C ) :   1.5922
B(  1-C , 32-H ) :   0.9808 B(  2-C ,  3-C ) :   1.2468 B(  2-C ,  6-C ) :   1.0147
B(  3-C ,  4-C ) :   1.5153 B(  3-C ,  5-H ) :   1.0027 B(  4-C , 20-C ) :   1.0892
B(  6-C ,  7-H ) :   0.9380 B(  6-C ,  8-H ) :   0.9474 B(  6-C ,  9-C ) :   1.0523
B(  9-C , 10-H ) :   0.9551 B(  9-C , 11-H ) :   0.9596 B(  9-C , 12-C ) :   1.0821
B( 12-C , 13-H ) :   0.9739 B( 12-C , 14-H ) :   0.9752 B( 12-C , 15-H ) :   0.9741
B( 16-S , 17-C ) :   1.1708 B( 16-S , 20-C ) :   1.1278 B( 17-C , 18-C ) :   1.6006
B( 17-C , 33-H ) :   0.9640 B( 18-C , 19-C ) :   1.2374 B( 18-C , 21-H ) :   0.9839
B( 19-C , 20-C ) :   1.5978 B( 19-C , 22-C ) :   1.0249 B( 22-C , 23-H ) :   0.9415
B( 22-C , 24-H ) :   0.9415 B( 22-C , 25-C ) :   1.0531 B( 25-C , 26-H ) :   0.9524
B( 25-C , 27-H ) :   0.9527 B( 25-C , 28-C ) :   1.0839 B( 28-C , 29-H ) :   0.9775
B( 28-C , 30-H ) :   0.9724 B( 28-C , 31-H ) :   0.9697

Dispersion correction           -0.014414786
FINAL SINGLE POINT ENERGY     -1339.869910510967

DIPOLE MOMENT
-------------
                                X             Y             Z
Electronic contribution:    -24.16973     -14.43760      14.30886
Nuclear contribution   :     24.72649      14.77534     -14.55078
                        -----------------------------------------
Total Dipole Moment    :      0.55676       0.33774      -0.24192
                        -----------------------------------------
Magnitude (a.u.)       :      0.69468
Magnitude (Debye)      :      1.76573

Rotational constants in cm-1:     0.018052     0.009279     0.006433
Rotational constants in MHz :   541.180422   278.184376   192.862820

                             ****ORCA TERMINATED NORMALLY****
TOTAL RUN TIME: 0 days 0 hours 0 minutes 20 seconds 507 msec
