                         Program Version 4.2.1 -  RELEASE  -
|  1> ! wB97X-D3 SP def2-SVP
|  2> %pal
|  3> nprocs 24
|  4> end
|  5>
|  6> * xyz 0 1
|  7> S 	 -108.415 	 1.85435 	 -112.868
|  8> C 	 -109.832 	 2.74082 	 -113.292
|  9> C 	 -109.786 	 3.19765 	 -114.609
| 10> C 	 -108.592 	 2.77285 	 -115.286
| 11> C 	 -107.777 	 2.01673 	 -114.473
| 12> H 	 -108.29 	 2.85932 	 -116.318
| 13> C 	 -110.867 	 4.01587 	 -115.282
| 14> H 	 -110.436 	 4.37599 	 -116.277
| 15> H 	 -111.084 	 4.9103 	 -114.726
| 16> C 	 -112.114 	 3.18715 	 -115.36
| 17> H 	 -111.855 	 2.3891 	 -116
| 18> H 	 -112.246 	 2.64183 	 -114.351
| 19> C 	 -113.412 	 3.85379 	 -115.948
| 20> H 	 -114.182 	 3.17252 	 -116.304
| 21> H 	 -113.865 	 4.27511 	 -114.993
| 22> H 	 -113.252 	 4.6126 	 -116.661
| 23> S 	 -105.169 	 1.36465 	 -114.026
| 24> C 	 -104.334 	 0.0457965 	 -114.932
| 25> C 	 -105.187 	 -0.393222 	 -115.936
| 26> C 	 -106.494 	 0.20157 	 -115.876
| 27> C 	 -106.649 	 1.20361 	 -114.93
| 28> H 	 -104.901 	 -1.1837 	 -116.615
| 29> C 	 -107.656 	 -0.192545 	 -116.84
| 30> H 	 -107.565 	 0.498508 	 -117.679
| 31> H 	 -108.479 	 0.120543 	 -116.183
| 32> C 	 -107.744 	 -1.62172 	 -117.335
| 33> H 	 -106.774 	 -2.09383 	 -117.665
| 34> H 	 -108.435 	 -1.76594 	 -118.178
| 35> C 	 -108.282 	 -2.60565 	 -116.277
| 36> H 	 -109.346 	 -2.42458 	 -116.18
| 37> H 	 -107.705 	 -2.40042 	 -115.337
| 38> H 	 -108.272 	 -3.64209 	 -116.572
| 39> H 	 -110.61 	 2.91529 	 -112.583
| 40> H 	 -103.237 	 -0.249978 	 -114.948
| 41> *
| 42>
| 43>                          ****END OF INPUT****

CARTESIAN COORDINATES (ANGSTROEM)
---------------------------------
  S    -108.415000    1.854350  -112.868000
  C    -109.832000    2.740820  -113.292000
  C    -109.786000    3.197650  -114.609000
  C    -108.592000    2.772850  -115.286000
  C    -107.777000    2.016730  -114.473000
  H    -108.290000    2.859320  -116.318000
  C    -110.867000    4.015870  -115.282000
  H    -110.436000    4.375990  -116.277000
  H    -111.084000    4.910300  -114.726000
  C    -112.114000    3.187150  -115.360000
  H    -111.855000    2.389100  -116.000000
  H    -112.246000    2.641830  -114.351000
  C    -113.412000    3.853790  -115.948000
  H    -114.182000    3.172520  -116.304000
  H    -113.865000    4.275110  -114.993000
  H    -113.252000    4.612600  -116.661000
  S    -105.169000    1.364650  -114.026000
  C    -104.334000    0.045796  -114.932000
  C    -105.187000   -0.393222  -115.936000
  C    -106.494000    0.201570  -115.876000
  C    -106.649000    1.203610  -114.930000
  H    -104.901000   -1.183700  -116.615000
  C    -107.656000   -0.192545  -116.840000
  H    -107.565000    0.498508  -117.679000
  H    -108.479000    0.120543  -116.183000
  C    -107.744000   -1.621720  -117.335000
  H    -106.774000   -2.093830  -117.665000
  H    -108.435000   -1.765940  -118.178000
  C    -108.282000   -2.605650  -116.277000
  H    -109.346000   -2.424580  -116.180000
  H    -107.705000   -2.400420  -115.337000
  H    -108.272000   -3.642090  -116.572000
  H    -110.610000    2.915290  -112.583000
  H    -103.237000   -0.249978  -114.948000

 Total Charge           Charge          ....    0
 Multiplicity           Mult            ....    1
 Number of Electrons    NEL             ....  134
 Basis Dimension        Dim             ....  322

ORBITAL ENERGIES
----------------

  NO   OCC          E(Eh)            E(eV)
   0   2.0000     -88.969747     -2420.9899
   1   2.0000     -88.963326     -2420.8152
   2   2.0000     -10.328557      -281.0543
   3   2.0000     -10.326954      -281.0107
   4   2.0000     -10.326537      -280.9993
   5   2.0000     -10.315536      -280.7000
   6   2.0000     -10.306414      -280.4518
   7   2.0000     -10.305989      -280.4402
   8   2.0000     -10.297481      -280.2087
   9   2.0000     -10.296123      -280.1717
  10   2.0000     -10.294881      -280.1379
  11   2.0000     -10.293644      -280.1043
  12   2.0000     -10.290484      -280.0183
  13   2.0000     -10.289337      -279.9871
  14   2.0000     -10.283401      -279.8256
  15   2.0000     -10.273675      -279.5609
  16   2.0000      -8.085095      -220.0066
  17   2.0000      -8.077363      -219.7962
  18   2.0000      -6.043483      -164.4515
  19   2.0000      -6.039436      -164.3414
  20   2.0000      -6.036067      -164.2497
  21   2.0000      -6.036015      -164.2483
  22   2.0000      -6.031807      -164.1338
  23   2.0000      -6.028091      -164.0327
  24   2.0000      -1.009719       -27.4758
  25   2.0000      -0.982795       -26.7432
  26   2.0000      -0.915881       -24.9224
  27   2.0000      -0.904664       -24.6172
  28   2.0000      -0.869892       -23.6710
  29   2.0000      -0.851801       -23.1787
  30   2.0000      -0.841051       -22.8862
  31   2.0000      -0.817841       -22.2546
  32   2.0000      -0.782010       -21.2796
  33   2.0000      -0.768696       -20.9173
  34   2.0000      -0.705021       -19.1846
  35   2.0000      -0.699769       -19.0417
  36   2.0000      -0.691893       -18.8274
  37   2.0000      -0.657753       -17.8984
  38   2.0000      -0.649776       -17.6813
  39   2.0000      -0.617801       -16.8112
  40   2.0000      -0.584252       -15.8983
  41   2.0000      -0.570856       -15.5338
  42   2.0000      -0.560157       -15.2427
  43   2.0000      -0.556969       -15.1559
  44   2.0000      -0.539543       -14.6817
  45   2.0000      -0.527455       -14.3528
  46   2.0000      -0.521195       -14.1824
  47   2.0000      -0.516773       -14.0621
  48   2.0000      -0.506456       -13.7814
  49   2.0000      -0.502066       -13.6619
  50   2.0000      -0.488781       -13.3004
  51   2.0000      -0.478767       -13.0279
  52   2.0000      -0.472962       -12.8700
  53   2.0000      -0.463185       -12.6039
  54   2.0000      -0.452284       -12.3073
  55   2.0000      -0.450376       -12.2554
  56   2.0000      -0.447193       -12.1688
  57   2.0000      -0.441019       -12.0007
  58   2.0000      -0.430035       -11.7019
  59   2.0000      -0.425484       -11.5780
  60   2.0000      -0.418044       -11.3756
  61   2.0000      -0.404821       -11.0157
  62   2.0000      -0.403634       -10.9834
  63   2.0000      -0.345827        -9.4104
  64   2.0000      -0.335655        -9.1336
  65   2.0000      -0.327450        -8.9104
  66   2.0000      -0.296422        -8.0661
  67   0.0000       0.031631         0.8607
  68   0.0000       0.062406         1.6981
  69   0.0000       0.112135         3.0513
  70   0.0000       0.124640         3.3916
  71   0.0000       0.134225         3.6524

MULLIKEN ATOMIC CHARGES
-----------------------
   0 S :    0.138382
   1 C :   -0.128777
   2 C :   -0.098403
   3 C :    0.028647
   4 C :   -0.149355
   5 H :    0.016450
   6 C :    0.098962
   7 H :    0.031361
   8 H :    0.024012
   9 C :   -0.118066
  10 H :    0.014093
  11 H :    0.039446
  12 C :   -0.029634
  13 H :    0.039714
  14 H :    0.034816
  15 H :    0.033273
  16 S :    0.087390
  17 C :   -0.113432
  18 C :   -0.033182
  19 C :   -0.071437
  20 C :   -0.176960
  21 H :    0.021978
  22 C :    0.076531
  23 H :    0.045819
  24 H :    0.044830
  25 C :   -0.088452
  26 H :    0.034076
  27 H :    0.028903
  28 C :   -0.069001
  29 H :    0.023709
  30 H :    0.052185
  31 H :    0.030145
  32 H :    0.046988
  33 H :    0.084988
Sum of atomic charges:   -0.0000000

LOEWDIN ATOMIC CHARGES
----------------------
   0 S :    0.434474
   1 C :   -0.200485
   2 C :   -0.057362
   3 C :   -0.058041
   4 C :   -0.208189
   5 H :    0.035015
   6 C :   -0.033251
   7 H :    0.035853
   8 H :    0.025223
   9 C :   -0.048612
  10 H :    0.015738
  11 H :    0.033971
  12 C :   -0.068222
  13 H :    0.028485
  14 H :    0.035255
  15 H :    0.019385
  16 S :    0.387776
  17 C :   -0.186170
  18 C :   -0.075358
  19 C :   -0.059094
  20 C :   -0.207538
  21 H :    0.030499
  22 C :   -0.033739
  23 H :    0.034010
  24 H :    0.038296
  25 C :   -0.051099
  26 H :    0.025912
  27 H :    0.026722
  28 C :   -0.068255
  29 H :    0.021586
  30 H :    0.032356
  31 H :    0.022274
  32 H :    0.022725
  33 H :    0.049860

  Mayer bond orders larger than 0.100000
B(  0-S ,  1-C ) :   1.1585 B(  0-S ,  4-C ) :   1.1668 B(  1-C ,  2-C ) :   1.5805
B(  1-C , 32-H ) :   0.9730 B(  2-C ,  3-C ) :   1.2423 B(  2-C ,  6-C ) :   1.0171
B(  3-C ,  4-C ) :   1.5650 B(  3-C ,  5-H ) :   1.0024 B(  4-C , 20-C ) :   1.0149
B(  6-C ,  7-H ) :   0.9412 B(  6-C ,  8-H ) :   0.9368 B(  6-C ,  9-C ) :   1.0493
B(  9-C , 10-H ) :   0.9537 B(  9-C , 11-H ) :   0.9628 B(  9-C , 12-C ) :   1.0566
B( 12-C , 13-H ) :   0.9779 B( 12-C , 14-H ) :   0.9774 B( 12-C , 15-H ) :   0.9769
B( 16-S , 17-C ) :   1.1436 B( 16-S , 20-C ) :   1.1360 B( 17-C , 18-C ) :   1.6148
B( 17-C , 20-C ) :   0.1018 B( 17-C , 33-H ) :   0.9557 B( 18-C , 19-C ) :   1.2443
B( 18-C , 21-H ) :   0.9845 B( 19-C , 20-C ) :   1.6053 B( 19-C , 22-C ) :   1.0042
B( 22-C , 23-H ) :   0.9364 B( 22-C , 24-H ) :   0.9395 B( 22-C , 25-C ) :   1.0645
B( 25-C , 26-H ) :   0.9561 B( 25-C , 27-H ) :   0.9552 B( 25-C , 28-C ) :   1.0758
B( 28-C , 29-H ) :   0.9747 B( 28-C , 30-H ) :   0.9780 B( 28-C , 31-H ) :   0.9751

Dispersion correction           -0.014176776
FINAL SINGLE POINT ENERGY     -1339.869299522899

DIPOLE MOMENT
-------------
                                X             Y             Z
Electronic contribution:     22.46695       5.23057      16.35097
Nuclear contribution   :    -22.94231      -5.35208     -16.92890
                        -----------------------------------------
Total Dipole Moment    :     -0.47536      -0.12151      -0.57793
                        -----------------------------------------
Magnitude (a.u.)       :      0.75812
Magnitude (Debye)      :      1.92698

Rotational constants in cm-1:     0.019896     0.008114     0.006496
Rotational constants in MHz :   596.474400   243.246201   194.751682

                             ****ORCA TERMINATED NORMALLY****
TOTAL RUN TIME: 0 days 0 hours 0 minutes 21 seconds 508 msec
