                         Program Version 4.2.1 -  RELEASE  -
|  1> ! wB97X-D3 SP def2-SVP
|  2> %pal
|  3> nprocs 24
|  4> end
|  5>
|  6> * xyz 0 1
|  7> S 	 -102.312 	 14.6738 	 -123.985
|  8> C 	 -101.093 	 15.7863 	 -124.556
|  9> C 	 -99.9287 	 15.1822 	 -124.988
| 10> C 	 -100.039 	 13.7596 	 -124.789
| 11> C 	 -101.203 	 13.3343 	 -124.266
| 12> H 	 -99.2352 	 13.0412 	 -125.027
| 13> C 	 -98.649 	 15.8122 	 -125.466
| 14> H 	 -97.847 	 15.2038 	 -125.182
| 15> H 	 -98.5617 	 16.8172 	 -125.057
| 16> C 	 -98.4561 	 15.9272 	 -126.992
| 17> H 	 -99.1988 	 16.6438 	 -127.367
| 18> H 	 -97.4833 	 16.3644 	 -127.22
| 19> C 	 -98.4628 	 14.5089 	 -127.657
| 20> H 	 -99.5133 	 14.1685 	 -127.836
| 21> H 	 -97.744 	 14.4729 	 -128.545
| 22> H 	 -98.1331 	 13.7441 	 -126.928
| 23> S 	 -103.065 	 11.3609 	 -124.881
| 24> C 	 -102.923 	 9.76849 	 -124.121
| 25> C 	 -101.895 	 9.79062 	 -123.197
| 26> C 	 -101.123 	 11.0002 	 -123.15
| 27> C 	 -101.629 	 11.9592 	 -123.995
| 28> H 	 -101.777 	 8.94414 	 -122.555
| 29> C 	 -99.9534 	 11.2457 	 -122.185
| 30> H 	 -99.7032 	 12.3322 	 -122.41
| 31> H 	 -99.0701 	 10.624 	 -122.425
| 32> C 	 -100.278 	 11.1412 	 -120.688
| 33> H 	 -99.6281 	 11.7577 	 -120.17
| 34> H 	 -100.177 	 10.0853 	 -120.419
| 35> C 	 -101.682 	 11.5257 	 -120.232
| 36> H 	 -101.917 	 12.602 	 -120.246
| 37> H 	 -101.882 	 11.1517 	 -119.198
| 38> H 	 -102.432 	 11.1067 	 -120.866
| 39> H 	 -101.218 	 16.8868 	 -124.496
| 40> H 	 -103.603 	 8.87654 	 -124.203
| 41> *
| 42>
| 43>                          ****END OF INPUT****

CARTESIAN COORDINATES (ANGSTROEM)
---------------------------------
  S    -102.312000   14.673800  -123.985000
  C    -101.093000   15.786300  -124.556000
  C    -99.928700   15.182200  -124.988000
  C    -100.039000   13.759600  -124.789000
  C    -101.203000   13.334300  -124.266000
  H    -99.235200   13.041200  -125.027000
  C    -98.649000   15.812200  -125.466000
  H    -97.847000   15.203800  -125.182000
  H    -98.561700   16.817200  -125.057000
  C    -98.456100   15.927200  -126.992000
  H    -99.198800   16.643800  -127.367000
  H    -97.483300   16.364400  -127.220000
  C    -98.462800   14.508900  -127.657000
  H    -99.513300   14.168500  -127.836000
  H    -97.744000   14.472900  -128.545000
  H    -98.133100   13.744100  -126.928000
  S    -103.065000   11.360900  -124.881000
  C    -102.923000    9.768490  -124.121000
  C    -101.895000    9.790620  -123.197000
  C    -101.123000   11.000200  -123.150000
  C    -101.629000   11.959200  -123.995000
  H    -101.777000    8.944140  -122.555000
  C    -99.953400   11.245700  -122.185000
  H    -99.703200   12.332200  -122.410000
  H    -99.070100   10.624000  -122.425000
  C    -100.278000   11.141200  -120.688000
  H    -99.628100   11.757700  -120.170000
  H    -100.177000   10.085300  -120.419000
  C    -101.682000   11.525700  -120.232000
  H    -101.917000   12.602000  -120.246000
  H    -101.882000   11.151700  -119.198000
  H    -102.432000   11.106700  -120.866000
  H    -101.218000   16.886800  -124.496000
  H    -103.603000    8.876540  -124.203000

 Total Charge           Charge          ....    0
 Multiplicity           Mult            ....    1
 Number of Electrons    NEL             ....  134
 Basis Dimension        Dim             ....  322

ORBITAL ENERGIES
----------------

  NO   OCC          E(Eh)            E(eV)
   0   2.0000     -88.967585     -2420.9311
   1   2.0000     -88.964926     -2420.8587
   2   2.0000     -10.328529      -281.0536
   3   2.0000     -10.327186      -281.0170
   4   2.0000     -10.323524      -280.9174
   5   2.0000     -10.318615      -280.7838
   6   2.0000     -10.304284      -280.3938
   7   2.0000     -10.302889      -280.3558
   8   2.0000     -10.296091      -280.1709
   9   2.0000     -10.294674      -280.1323
  10   2.0000     -10.292585      -280.0755
  11   2.0000     -10.289423      -279.9894
  12   2.0000     -10.289207      -279.9835
  13   2.0000     -10.288107      -279.9536
  14   2.0000     -10.279209      -279.7115
  15   2.0000     -10.270585      -279.4768
  16   2.0000      -8.082393      -219.9331
  17   2.0000      -8.078752      -219.8340
  18   2.0000      -6.040973      -164.3832
  19   2.0000      -6.037437      -164.2870
  20   2.0000      -6.036969      -164.2743
  21   2.0000      -6.033412      -164.1775
  22   2.0000      -6.032985      -164.1659
  23   2.0000      -6.029334      -164.0665
  24   2.0000      -1.006405       -27.3857
  25   2.0000      -0.981843       -26.7173
  26   2.0000      -0.913376       -24.8542
  27   2.0000      -0.905415       -24.6376
  28   2.0000      -0.868043       -23.6206
  29   2.0000      -0.846945       -23.0466
  30   2.0000      -0.840535       -22.8721
  31   2.0000      -0.814481       -22.1632
  32   2.0000      -0.782473       -21.2922
  33   2.0000      -0.772416       -21.0185
  34   2.0000      -0.703600       -19.1459
  35   2.0000      -0.702733       -19.1223
  36   2.0000      -0.689106       -18.7515
  37   2.0000      -0.657319       -17.8866
  38   2.0000      -0.641947       -17.4683
  39   2.0000      -0.615486       -16.7482
  40   2.0000      -0.585215       -15.9245
  41   2.0000      -0.574966       -15.6456
  42   2.0000      -0.560674       -15.2567
  43   2.0000      -0.546713       -14.8768
  44   2.0000      -0.545145       -14.8342
  45   2.0000      -0.538847       -14.6628
  46   2.0000      -0.517418       -14.0797
  47   2.0000      -0.506350       -13.7785
  48   2.0000      -0.499577       -13.5942
  49   2.0000      -0.492995       -13.4151
  50   2.0000      -0.491523       -13.3750
  51   2.0000      -0.470989       -12.8163
  52   2.0000      -0.467264       -12.7149
  53   2.0000      -0.460035       -12.5182
  54   2.0000      -0.456451       -12.4207
  55   2.0000      -0.445683       -12.1276
  56   2.0000      -0.439714       -11.9652
  57   2.0000      -0.437785       -11.9127
  58   2.0000      -0.435838       -11.8598
  59   2.0000      -0.431775       -11.7492
  60   2.0000      -0.417963       -11.3734
  61   2.0000      -0.413016       -11.2387
  62   2.0000      -0.409519       -11.1436
  63   2.0000      -0.345360        -9.3977
  64   2.0000      -0.332740        -9.0543
  65   2.0000      -0.328898        -8.9498
  66   2.0000      -0.300215        -8.1693
  67   0.0000       0.037846         1.0298
  68   0.0000       0.062353         1.6967
  69   0.0000       0.110181         2.9982
  70   0.0000       0.122889         3.3440
  71   0.0000       0.127630         3.4730

MULLIKEN ATOMIC CHARGES
-----------------------
   0 S :    0.115940
   1 C :   -0.137897
   2 C :   -0.080446
   3 C :    0.024986
   4 C :   -0.170173
   5 H :    0.023521
   6 C :    0.087547
   7 H :    0.012256
   8 H :    0.023880
   9 C :   -0.067075
  10 H :    0.033988
  11 H :    0.029296
  12 C :   -0.094728
  13 H :    0.056834
  14 H :    0.054449
  15 H :    0.019758
  16 S :    0.099196
  17 C :   -0.109136
  18 C :   -0.033934
  19 C :   -0.041834
  20 C :   -0.172325
  21 H :    0.010257
  22 C :    0.065585
  23 H :    0.034737
  24 H :    0.046291
  25 C :   -0.048759
  26 H :    0.022143
  27 H :    0.028211
  28 C :   -0.060563
  29 H :    0.031449
  30 H :    0.035347
  31 H :    0.026941
  32 H :    0.056792
  33 H :    0.077465
Sum of atomic charges:    0.0000000

LOEWDIN ATOMIC CHARGES
----------------------
   0 S :    0.399913
   1 C :   -0.195019
   2 C :   -0.064596
   3 C :   -0.060001
   4 C :   -0.195339
   5 H :    0.035831
   6 C :   -0.026280
   7 H :    0.022833
   8 H :    0.031901
   9 C :   -0.037690
  10 H :    0.023350
  11 H :    0.022892
  12 C :   -0.078376
  13 H :    0.035001
  14 H :    0.035865
  15 H :    0.020729
  16 S :    0.377903
  17 C :   -0.188948
  18 C :   -0.073247
  19 C :   -0.058793
  20 C :   -0.186208
  21 H :    0.026102
  22 C :   -0.034466
  23 H :    0.037451
  24 H :    0.035273
  25 C :   -0.036977
  26 H :    0.019274
  27 H :    0.024982
  28 C :   -0.069075
  29 H :    0.025940
  30 H :    0.030870
  31 H :    0.020357
  32 H :    0.032904
  33 H :    0.045643

  Mayer bond orders larger than 0.100000
B(  0-S ,  1-C ) :   1.1379 B(  0-S ,  4-C ) :   1.1343 B(  1-C ,  2-C ) :   1.6382
B(  1-C , 32-H ) :   0.9599 B(  2-C ,  3-C ) :   1.2121 B(  2-C ,  6-C ) :   1.0267
B(  3-C ,  4-C ) :   1.6272 B(  3-C ,  5-H ) :   0.9865 B(  4-C , 20-C ) :   1.0081
B(  6-C ,  7-H ) :   0.9394 B(  6-C ,  8-H ) :   0.9381 B(  6-C ,  9-C ) :   1.0829
B(  9-C , 10-H ) :   0.9584 B(  9-C , 11-H ) :   0.9603 B(  9-C , 12-C ) :   1.0575
B( 12-C , 13-H ) :   0.9717 B( 12-C , 14-H ) :   0.9754 B( 12-C , 15-H ) :   0.9750
B( 16-S , 17-C ) :   1.1333 B( 16-S , 20-C ) :   1.1314 B( 17-C , 18-C ) :   1.6401
B( 17-C , 33-H ) :   0.9596 B( 18-C , 19-C ) :   1.2064 B( 18-C , 21-H ) :   0.9902
B( 19-C , 20-C ) :   1.6332 B( 19-C , 22-C ) :   1.0362 B( 22-C , 23-H ) :   0.9286
B( 22-C , 24-H ) :   0.9408 B( 22-C , 25-C ) :   1.0647 B( 25-C , 26-H ) :   0.9565
B( 25-C , 27-H ) :   0.9531 B( 25-C , 28-C ) :   1.0943 B( 28-C , 29-H ) :   0.9746
B( 28-C , 30-H ) :   0.9737 B( 28-C , 31-H ) :   0.9650

Dispersion correction           -0.015106500
FINAL SINGLE POINT ENERGY     -1339.886683140567

DIPOLE MOMENT
-------------
                                X             Y             Z
Electronic contribution:    -17.83674      -1.66318      -3.53122
Nuclear contribution   :     18.40817       1.65619       3.72887
                        -----------------------------------------
Total Dipole Moment    :      0.57144      -0.00699       0.19765
                        -----------------------------------------
Magnitude (a.u.)       :      0.60469
Magnitude (Debye)      :      1.53701

Rotational constants in cm-1:     0.021003     0.008141     0.007622
Rotational constants in MHz :   629.640691   244.046307   228.500598

                             ****ORCA TERMINATED NORMALLY****
TOTAL RUN TIME: 0 days 0 hours 0 minutes 22 seconds 242 msec
