                         Program Version 4.2.1 -  RELEASE  -
|  1> ! wB97X-D3 SP def2-SVP
|  2> %pal
|  3> nprocs 24
|  4> end
|  5>
|  6> * xyz 0 1
|  7> S 	 -49.1866 	 14.2666 	 -98.0667
|  8> C 	 -49.0383 	 12.5941 	 -97.4808
|  9> C 	 -49.5505 	 11.7258 	 -98.4842
| 10> C 	 -50.1183 	 12.4673 	 -99.6025
| 11> C 	 -49.8615 	 13.8146 	 -99.5668
| 12> H 	 -50.5836 	 11.9912 	 -100.473
| 13> C 	 -49.5335 	 10.206 	 -98.3791
| 14> H 	 -49.2074 	 9.91184 	 -97.3779
| 15> H 	 -48.7921 	 9.96028 	 -99.1923
| 16> C 	 -50.8521 	 9.51211 	 -98.6591
| 17> H 	 -51.4126 	 9.8893 	 -99.5302
| 18> H 	 -50.457 	 8.51169 	 -98.8581
| 19> C 	 -51.8305 	 9.41204 	 -97.4602
| 20> H 	 -51.4201 	 9.03316 	 -96.5647
| 21> H 	 -52.0844 	 10.4309 	 -97.2109
| 22> H 	 -52.6988 	 8.92503 	 -97.7327
| 23> S 	 -51.2256 	 16.1117 	 -100.038
| 24> C 	 -51.4239 	 16.6465 	 -101.66
| 25> C 	 -50.7271 	 15.8825 	 -102.524
| 26> C 	 -50.0029 	 14.8299 	 -101.906
| 27> C 	 -50.1971 	 14.8343 	 -100.563
| 28> H 	 -50.8829 	 16.1738 	 -103.541
| 29> C 	 -49.1727 	 13.8405 	 -102.766
| 30> H 	 -48.6942 	 13.1485 	 -102.033
| 31> H 	 -48.3486 	 14.3955 	 -103.253
| 32> C 	 -49.9867 	 13.0694 	 -103.778
| 33> H 	 -50.233 	 13.7415 	 -104.582
| 34> H 	 -50.9424 	 12.8102 	 -103.397
| 35> C 	 -49.3567 	 11.7457 	 -104.256
| 36> H 	 -49.9321 	 11.241 	 -105
| 37> H 	 -49.2416 	 11.0254 	 -103.425
| 38> H 	 -48.3446 	 12.0203 	 -104.681
| 39> H 	 -48.6498 	 12.0892 	 -96.6779
| 40> H 	 -51.9078 	 17.583 	 -101.933
| 41> *
| 42>
| 43>                          ****END OF INPUT****

CARTESIAN COORDINATES (ANGSTROEM)
---------------------------------
  S    -49.186600   14.266600  -98.066700
  C    -49.038300   12.594100  -97.480800
  C    -49.550500   11.725800  -98.484200
  C    -50.118300   12.467300  -99.602500
  C    -49.861500   13.814600  -99.566800
  H    -50.583600   11.991200  -100.473000
  C    -49.533500   10.206000  -98.379100
  H    -49.207400    9.911840  -97.377900
  H    -48.792100    9.960280  -99.192300
  C    -50.852100    9.512110  -98.659100
  H    -51.412600    9.889300  -99.530200
  H    -50.457000    8.511690  -98.858100
  C    -51.830500    9.412040  -97.460200
  H    -51.420100    9.033160  -96.564700
  H    -52.084400   10.430900  -97.210900
  H    -52.698800    8.925030  -97.732700
  S    -51.225600   16.111700  -100.038000
  C    -51.423900   16.646500  -101.660000
  C    -50.727100   15.882500  -102.524000
  C    -50.002900   14.829900  -101.906000
  C    -50.197100   14.834300  -100.563000
  H    -50.882900   16.173800  -103.541000
  C    -49.172700   13.840500  -102.766000
  H    -48.694200   13.148500  -102.033000
  H    -48.348600   14.395500  -103.253000
  C    -49.986700   13.069400  -103.778000
  H    -50.233000   13.741500  -104.582000
  H    -50.942400   12.810200  -103.397000
  C    -49.356700   11.745700  -104.256000
  H    -49.932100   11.241000  -105.000000
  H    -49.241600   11.025400  -103.425000
  H    -48.344600   12.020300  -104.681000
  H    -48.649800   12.089200  -96.677900
  H    -51.907800   17.583000  -101.933000

 Total Charge           Charge          ....    0
 Multiplicity           Mult            ....    1
 Number of Electrons    NEL             ....  134
 Basis Dimension        Dim             ....  322

ORBITAL ENERGIES
----------------

  NO   OCC          E(Eh)            E(eV)
   0   2.0000     -88.966876     -2420.9118
   1   2.0000     -88.962944     -2420.8048
   2   2.0000     -10.326835      -281.0075
   3   2.0000     -10.322303      -280.8842
   4   2.0000     -10.310517      -280.5634
   5   2.0000     -10.309765      -280.5430
   6   2.0000     -10.303295      -280.3669
   7   2.0000     -10.302916      -280.3566
   8   2.0000     -10.298613      -280.2395
   9   2.0000     -10.296001      -280.1684
  10   2.0000     -10.294338      -280.1232
  11   2.0000     -10.288722      -279.9704
  12   2.0000     -10.286432      -279.9080
  13   2.0000     -10.284417      -279.8532
  14   2.0000     -10.281617      -279.7770
  15   2.0000     -10.267118      -279.3825
  16   2.0000      -8.081387      -219.9057
  17   2.0000      -8.079191      -219.8460
  18   2.0000      -6.040086      -164.3591
  19   2.0000      -6.037538      -164.2898
  20   2.0000      -6.035758      -164.2413
  21   2.0000      -6.033546      -164.1811
  22   2.0000      -6.032111      -164.1421
  23   2.0000      -6.029952      -164.0833
  24   2.0000      -1.015874       -27.6433
  25   2.0000      -0.986481       -26.8435
  26   2.0000      -0.915021       -24.8990
  27   2.0000      -0.910809       -24.7844
  28   2.0000      -0.871563       -23.7164
  29   2.0000      -0.853111       -23.2143
  30   2.0000      -0.842048       -22.9133
  31   2.0000      -0.818304       -22.2672
  32   2.0000      -0.786629       -21.4053
  33   2.0000      -0.777971       -21.1697
  34   2.0000      -0.711888       -19.3715
  35   2.0000      -0.700398       -19.0588
  36   2.0000      -0.694614       -18.9014
  37   2.0000      -0.658847       -17.9282
  38   2.0000      -0.636793       -17.3280
  39   2.0000      -0.619566       -16.8592
  40   2.0000      -0.598972       -16.2989
  41   2.0000      -0.575035       -15.6475
  42   2.0000      -0.565367       -15.3844
  43   2.0000      -0.557247       -15.1635
  44   2.0000      -0.538734       -14.6597
  45   2.0000      -0.526800       -14.3350
  46   2.0000      -0.521042       -14.1783
  47   2.0000      -0.518748       -14.1159
  48   2.0000      -0.512003       -13.9323
  49   2.0000      -0.496376       -13.5071
  50   2.0000      -0.483406       -13.1541
  51   2.0000      -0.479429       -13.0459
  52   2.0000      -0.473616       -12.8878
  53   2.0000      -0.467490       -12.7211
  54   2.0000      -0.464999       -12.6533
  55   2.0000      -0.451289       -12.2802
  56   2.0000      -0.443790       -12.0761
  57   2.0000      -0.439732       -11.9657
  58   2.0000      -0.436432       -11.8759
  59   2.0000      -0.430853       -11.7241
  60   2.0000      -0.424584       -11.5535
  61   2.0000      -0.414519       -11.2796
  62   2.0000      -0.400058       -10.8861
  63   2.0000      -0.346157        -9.4194
  64   2.0000      -0.333166        -9.0659
  65   2.0000      -0.325664        -8.8618
  66   2.0000      -0.298475        -8.1219
  67   0.0000       0.037859         1.0302
  68   0.0000       0.075481         2.0540
  69   0.0000       0.114830         3.1247
  70   0.0000       0.119517         3.2522
  71   0.0000       0.127304         3.4641

MULLIKEN ATOMIC CHARGES
-----------------------
   0 S :    0.115699
   1 C :   -0.052468
   2 C :   -0.160319
   3 C :    0.030404
   4 C :   -0.154527
   5 H :    0.013258
   6 C :    0.062569
   7 H :    0.016348
   8 H :    0.054180
   9 C :   -0.097696
  10 H :    0.038940
  11 H :    0.027244
  12 C :    0.008836
  13 H :    0.015155
  14 H :    0.021927
  15 H :    0.023496
  16 S :    0.114518
  17 C :   -0.099417
  18 C :   -0.039728
  19 C :   -0.028097
  20 C :   -0.147750
  21 H :    0.009516
  22 C :    0.077784
  23 H :    0.026031
  24 H :    0.041248
  25 C :   -0.064878
  26 H :    0.023752
  27 H :    0.016767
  28 C :   -0.053946
  29 H :    0.033065
  30 H :    0.035656
  31 H :    0.036795
  32 H :   -0.002181
  33 H :    0.057817
Sum of atomic charges:   -0.0000000

LOEWDIN ATOMIC CHARGES
----------------------
   0 S :    0.417822
   1 C :   -0.200115
   2 C :   -0.055713
   3 C :   -0.075918
   4 C :   -0.203257
   5 H :    0.030004
   6 C :   -0.033002
   7 H :    0.029302
   8 H :    0.044462
   9 C :   -0.041597
  10 H :    0.026550
  11 H :    0.025291
  12 C :   -0.052145
  13 H :    0.018361
  14 H :    0.027359
  15 H :    0.017887
  16 S :    0.424477
  17 C :   -0.189476
  18 C :   -0.074293
  19 C :   -0.053417
  20 C :   -0.208732
  21 H :    0.030559
  22 C :   -0.028186
  23 H :    0.030883
  24 H :    0.035684
  25 C :   -0.044610
  26 H :    0.021885
  27 H :    0.018141
  28 C :   -0.062016
  29 H :    0.022051
  30 H :    0.026786
  31 H :    0.030382
  32 H :    0.012992
  33 H :    0.031599

  Mayer bond orders larger than 0.100000
B(  0-S ,  1-C ) :   1.1156 B(  0-S ,  4-C ) :   1.1657 B(  1-C ,  2-C ) :   1.6149
B(  1-C , 32-H ) :   0.9745 B(  2-C ,  3-C ) :   1.2275 B(  2-C ,  6-C ) :   1.0257
B(  3-C ,  4-C ) :   1.5840 B(  3-C ,  5-H ) :   0.9875 B(  4-C , 20-C ) :   0.9881
B(  6-C ,  7-H ) :   0.9396 B(  6-C ,  8-H ) :   0.9365 B(  6-C ,  9-C ) :   1.0635
B(  9-C , 10-H ) :   0.9572 B(  9-C , 11-H ) :   0.9541 B(  9-C , 12-C ) :   1.0792
B( 12-C , 13-H ) :   0.9726 B( 12-C , 14-H ) :   0.9748 B( 12-C , 15-H ) :   0.9741
B( 16-S , 17-C ) :   1.1536 B( 16-S , 20-C ) :   1.1552 B( 17-C , 18-C ) :   1.6418
B( 17-C , 33-H ) :   0.9635 B( 18-C , 19-C ) :   1.2006 B( 18-C , 21-H ) :   0.9993
B( 19-C , 20-C ) :   1.6388 B( 19-C , 22-C ) :   1.0348 B( 22-C , 23-H ) :   0.9374
B( 22-C , 24-H ) :   0.9335 B( 22-C , 25-C ) :   1.0540 B( 25-C , 26-H ) :   0.9486
B( 25-C , 27-H ) :   0.9573 B( 25-C , 28-C ) :   1.0893 B( 28-C , 29-H ) :   0.9752
B( 28-C , 30-H ) :   0.9749 B( 28-C , 31-H ) :   0.9746

Dispersion correction           -0.014222364
FINAL SINGLE POINT ENERGY     -1339.873344251791

DIPOLE MOMENT
-------------
                                X             Y             Z
Electronic contribution:      0.99994      26.27648      11.35287
Nuclear contribution   :     -1.10299     -26.79655     -11.87816
                        -----------------------------------------
Total Dipole Moment    :     -0.10305      -0.52007      -0.52529
                        -----------------------------------------
Magnitude (a.u.)       :      0.74634
Magnitude (Debye)      :      1.89704

Rotational constants in cm-1:     0.016787     0.009311     0.006991
Rotational constants in MHz :   503.260011   279.130262   209.571247

                             ****ORCA TERMINATED NORMALLY****
TOTAL RUN TIME: 0 days 0 hours 0 minutes 21 seconds 714 msec
