                         Program Version 4.2.1 -  RELEASE  -
|  1> ! wB97X-D3 SP def2-SVP
|  2> %pal
|  3> nprocs 24
|  4> end
|  5>
|  6> * xyz 0 1
|  7> S 	 -100.985 	 23.4446 	 -109.667
|  8> C 	 -102.02 	 22.0411 	 -109.603
|  9> C 	 -103.322 	 22.3167 	 -109.961
| 10> C 	 -103.418 	 23.6667 	 -110.464
| 11> C 	 -102.279 	 24.3825 	 -110.367
| 12> H 	 -104.291 	 24.0445 	 -110.857
| 13> C 	 -104.569 	 21.3932 	 -109.752
| 14> H 	 -105.044 	 22.0035 	 -108.988
| 15> H 	 -104.202 	 20.4158 	 -109.356
| 16> C 	 -105.354 	 21.2859 	 -111.009
| 17> H 	 -106.366 	 20.8098 	 -110.676
| 18> H 	 -105.606 	 22.2939 	 -111.361
| 19> C 	 -104.649 	 20.4641 	 -112.109
| 20> H 	 -105.196 	 20.5198 	 -113.057
| 21> H 	 -103.709 	 20.9205 	 -112.361
| 22> H 	 -104.529 	 19.4039 	 -111.766
| 23> S 	 -101.199 	 26.6987 	 -109.417
| 24> C 	 -101.342 	 28.2 	 -110.209
| 25> C 	 -101.958 	 28.0302 	 -111.45
| 26> C 	 -102.405 	 26.6653 	 -111.634
| 27> C 	 -102.073 	 25.8149 	 -110.583
| 28> H 	 -102.146 	 28.8434 	 -112.085
| 29> C 	 -103.117 	 26.1261 	 -112.875
| 30> H 	 -104.187 	 26.2653 	 -112.585
| 31> H 	 -102.888 	 25.1339 	 -113.175
| 32> C 	 -102.948 	 27.0049 	 -114.191
| 33> H 	 -102.027 	 26.9301 	 -114.722
| 34> H 	 -102.903 	 28.0787 	 -114.009
| 35> C 	 -104.082 	 26.7146 	 -115.136
| 36> H 	 -105.035 	 26.8666 	 -114.666
| 37> H 	 -104.095 	 25.6629 	 -115.465
| 38> H 	 -103.883 	 27.3994 	 -116.005
| 39> H 	 -101.68 	 21.0812 	 -109.183
| 40> H 	 -100.891 	 29.114 	 -109.752
| 41> *
| 42>
| 43>                          ****END OF INPUT****

CARTESIAN COORDINATES (ANGSTROEM)
---------------------------------
  S    -100.985000   23.444600  -109.667000
  C    -102.020000   22.041100  -109.603000
  C    -103.322000   22.316700  -109.961000
  C    -103.418000   23.666700  -110.464000
  C    -102.279000   24.382500  -110.367000
  H    -104.291000   24.044500  -110.857000
  C    -104.569000   21.393200  -109.752000
  H    -105.044000   22.003500  -108.988000
  H    -104.202000   20.415800  -109.356000
  C    -105.354000   21.285900  -111.009000
  H    -106.366000   20.809800  -110.676000
  H    -105.606000   22.293900  -111.361000
  C    -104.649000   20.464100  -112.109000
  H    -105.196000   20.519800  -113.057000
  H    -103.709000   20.920500  -112.361000
  H    -104.529000   19.403900  -111.766000
  S    -101.199000   26.698700  -109.417000
  C    -101.342000   28.200000  -110.209000
  C    -101.958000   28.030200  -111.450000
  C    -102.405000   26.665300  -111.634000
  C    -102.073000   25.814900  -110.583000
  H    -102.146000   28.843400  -112.085000
  C    -103.117000   26.126100  -112.875000
  H    -104.187000   26.265300  -112.585000
  H    -102.888000   25.133900  -113.175000
  C    -102.948000   27.004900  -114.191000
  H    -102.027000   26.930100  -114.722000
  H    -102.903000   28.078700  -114.009000
  C    -104.082000   26.714600  -115.136000
  H    -105.035000   26.866600  -114.666000
  H    -104.095000   25.662900  -115.465000
  H    -103.883000   27.399400  -116.005000
  H    -101.680000   21.081200  -109.183000
  H    -100.891000   29.114000  -109.752000

 Total Charge           Charge          ....    0
 Multiplicity           Mult            ....    1
 Number of Electrons    NEL             ....  134
 Basis Dimension        Dim             ....  322

ORBITAL ENERGIES
----------------

  NO   OCC          E(Eh)            E(eV)
   0   2.0000     -88.963109     -2420.8093
   1   2.0000     -88.961337     -2420.7611
   2   2.0000     -10.327289      -281.0198
   3   2.0000     -10.320196      -280.8268
   4   2.0000     -10.319232      -280.8006
   5   2.0000     -10.311797      -280.5983
   6   2.0000     -10.304505      -280.3998
   7   2.0000     -10.301246      -280.3112
   8   2.0000     -10.298520      -280.2370
   9   2.0000     -10.295652      -280.1589
  10   2.0000     -10.295519      -280.1553
  11   2.0000     -10.295501      -280.1548
  12   2.0000     -10.286585      -279.9122
  13   2.0000     -10.282387      -279.7980
  14   2.0000     -10.281575      -279.7759
  15   2.0000     -10.278298      -279.6867
  16   2.0000      -8.078316      -219.8222
  17   2.0000      -8.077886      -219.8105
  18   2.0000      -6.036890      -164.2721
  19   2.0000      -6.036190      -164.2531
  20   2.0000      -6.032855      -164.1623
  21   2.0000      -6.031920      -164.1369
  22   2.0000      -6.028969      -164.0566
  23   2.0000      -6.028890      -164.0544
  24   2.0000      -1.012757       -27.5585
  25   2.0000      -0.988199       -26.8903
  26   2.0000      -0.916624       -24.9426
  27   2.0000      -0.907306       -24.6891
  28   2.0000      -0.869729       -23.6665
  29   2.0000      -0.853657       -23.2292
  30   2.0000      -0.842555       -22.9271
  31   2.0000      -0.816431       -22.2162
  32   2.0000      -0.783673       -21.3248
  33   2.0000      -0.769115       -20.9287
  34   2.0000      -0.708174       -19.2704
  35   2.0000      -0.700872       -19.0717
  36   2.0000      -0.686272       -18.6744
  37   2.0000      -0.658808       -17.9271
  38   2.0000      -0.639571       -17.4036
  39   2.0000      -0.629796       -17.1376
  40   2.0000      -0.601670       -16.3723
  41   2.0000      -0.566150       -15.4057
  42   2.0000      -0.563456       -15.3324
  43   2.0000      -0.560900       -15.2629
  44   2.0000      -0.539662       -14.6850
  45   2.0000      -0.526595       -14.3294
  46   2.0000      -0.516455       -14.0535
  47   2.0000      -0.514247       -13.9934
  48   2.0000      -0.500952       -13.6316
  49   2.0000      -0.495170       -13.4743
  50   2.0000      -0.491318       -13.3694
  51   2.0000      -0.481358       -13.0984
  52   2.0000      -0.474179       -12.9031
  53   2.0000      -0.468437       -12.7468
  54   2.0000      -0.461251       -12.5513
  55   2.0000      -0.454716       -12.3735
  56   2.0000      -0.444838       -12.1047
  57   2.0000      -0.441822       -12.0226
  58   2.0000      -0.437960       -11.9175
  59   2.0000      -0.431377       -11.7384
  60   2.0000      -0.416878       -11.3438
  61   2.0000      -0.405214       -11.0264
  62   2.0000      -0.402812       -10.9611
  63   2.0000      -0.353633        -9.6228
  64   2.0000      -0.329630        -8.9697
  65   2.0000      -0.326755        -8.8915
  66   2.0000      -0.290344        -7.9007
  67   0.0000       0.036502         0.9933
  68   0.0000       0.075476         2.0538
  69   0.0000       0.118029         3.2117
  70   0.0000       0.127368         3.4659
  71   0.0000       0.133432         3.6309

MULLIKEN ATOMIC CHARGES
-----------------------
   0 S :    0.103015
   1 C :   -0.141874
   2 C :   -0.116272
   3 C :    0.034357
   4 C :   -0.121478
   5 H :   -0.028944
   6 C :    0.099215
   7 H :    0.048405
   8 H :    0.026465
   9 C :   -0.111344
  10 H :    0.040546
  11 H :    0.029429
  12 C :   -0.040995
  13 H :    0.036173
  14 H :    0.037268
  15 H :    0.042817
  16 S :    0.107342
  17 C :   -0.114901
  18 C :   -0.015961
  19 C :   -0.045953
  20 C :   -0.141511
  21 H :    0.002269
  22 C :    0.051902
  23 H :    0.045309
  24 H :    0.042471
  25 C :   -0.077723
  26 H :    0.023031
  27 H :    0.013930
  28 C :   -0.055471
  29 H :    0.025132
  30 H :    0.030759
  31 H :    0.041301
  32 H :    0.051271
  33 H :    0.080019
Sum of atomic charges:   -0.0000000

LOEWDIN ATOMIC CHARGES
----------------------
   0 S :    0.399519
   1 C :   -0.207824
   2 C :   -0.059743
   3 C :   -0.060326
   4 C :   -0.183343
   5 H :    0.014341
   6 C :   -0.026421
   7 H :    0.039177
   8 H :    0.032475
   9 C :   -0.051327
  10 H :    0.032484
  11 H :    0.021953
  12 C :   -0.065056
  13 H :    0.028855
  14 H :    0.025343
  15 H :    0.032238
  16 S :    0.443667
  17 C :   -0.205417
  18 C :   -0.071502
  19 C :   -0.058791
  20 C :   -0.221063
  21 H :    0.021554
  22 C :   -0.025815
  23 H :    0.039503
  24 H :    0.027928
  25 C :   -0.045209
  26 H :    0.020697
  27 H :    0.019400
  28 C :   -0.063900
  29 H :    0.018367
  30 H :    0.024791
  31 H :    0.034076
  32 H :    0.029303
  33 H :    0.040070

  Mayer bond orders larger than 0.100000
B(  0-S ,  1-C ) :   1.1273 B(  0-S ,  4-C ) :   1.1434 B(  1-C ,  2-C ) :   1.6427
B(  1-C , 32-H ) :   0.9635 B(  2-C ,  3-C ) :   1.2136 B(  2-C ,  6-C ) :   0.9859
B(  3-C ,  4-C ) :   1.6009 B(  3-C ,  5-H ) :   1.0074 B(  4-C , 20-C ) :   1.0308
B(  6-C ,  7-H ) :   0.9386 B(  6-C ,  8-H ) :   0.9436 B(  6-C ,  9-C ) :   1.0753
B(  9-C , 10-H ) :   0.9525 B(  9-C , 11-H ) :   0.9530 B(  9-C , 12-C ) :   1.0715
B( 12-C , 13-H ) :   0.9731 B( 12-C , 14-H ) :   0.9724 B( 12-C , 15-H ) :   0.9740
B( 16-S , 17-C ) :   1.1961 B( 16-S , 20-C ) :   1.1603 B( 17-C , 18-C ) :   1.5443
B( 17-C , 33-H ) :   0.9643 B( 18-C , 19-C ) :   1.2744 B( 18-C , 21-H ) :   1.0033
B( 19-C , 20-C ) :   1.5677 B( 19-C , 22-C ) :   1.0248 B( 22-C , 23-H ) :   0.9367
B( 22-C , 24-H ) :   0.9467 B( 22-C , 25-C ) :   1.0530 B( 25-C , 26-H ) :   0.9538
B( 25-C , 27-H ) :   0.9525 B( 25-C , 28-C ) :   1.0883 B( 28-C , 29-H ) :   0.9773
B( 28-C , 30-H ) :   0.9739 B( 28-C , 31-H ) :   0.9719

Dispersion correction           -0.013848747
FINAL SINGLE POINT ENERGY     -1339.879380870741

DIPOLE MOMENT
-------------
                                X             Y             Z
Electronic contribution:     19.37031       7.90534      20.95137
Nuclear contribution   :    -19.86874      -7.92675     -21.26394
                        -----------------------------------------
Total Dipole Moment    :     -0.49843      -0.02141      -0.31257
                        -----------------------------------------
Magnitude (a.u.)       :      0.58872
Magnitude (Debye)      :      1.49640

Rotational constants in cm-1:     0.016889     0.009375     0.006532
Rotational constants in MHz :   506.320092   281.053335   195.824592

                             ****ORCA TERMINATED NORMALLY****
TOTAL RUN TIME: 0 days 0 hours 0 minutes 21 seconds 411 msec
