                         Program Version 4.2.1 -  RELEASE  -
|  1> ! wB97X-D3 SP def2-SVP
|  2> %pal
|  3> nprocs 24
|  4> end
|  5>
|  6> * xyz 0 1
|  7> S 	 -130.089 	 3.36507 	 6.0115
|  8> C 	 -129.114 	 3.19965 	 4.60561
|  9> C 	 -128.285 	 2.09673 	 4.66055
| 10> C 	 -128.473 	 1.39473 	 5.86878
| 11> C 	 -129.476 	 1.88754 	 6.67619
| 12> H 	 -127.982 	 0.398677 	 6.05768
| 13> C 	 -127.353 	 1.56884 	 3.65877
| 14> H 	 -127.841 	 0.810524 	 3.00655
| 15> H 	 -126.558 	 1.02645 	 4.24498
| 16> C 	 -126.7 	 2.75736 	 2.94837
| 17> H 	 -127.434 	 3.60049 	 2.63574
| 18> H 	 -126.061 	 3.31754 	 3.60395
| 19> C 	 -125.745 	 2.36371 	 1.77853
| 20> H 	 -125.385 	 3.31743 	 1.3465
| 21> H 	 -124.963 	 1.66841 	 2.10686
| 22> H 	 -126.222 	 1.72389 	 1.00623
| 23> S 	 -129.324 	 2.31671 	 9.33577
| 24> C 	 -130.124 	 1.15937 	 10.419
| 25> C 	 -130.6 	 0.112775 	 9.76153
| 26> C 	 -130.396 	 0.166046 	 8.35297
| 27> C 	 -129.885 	 1.3891 	 7.98063
| 28> H 	 -130.953 	 -0.722443 	 10.3175
| 29> C 	 -130.788 	 -0.939224 	 7.39889
| 30> H 	 -130.298 	 -0.827438 	 6.47576
| 31> H 	 -131.862 	 -0.764749 	 7.27679
| 32> C 	 -130.602 	 -2.4175 	 7.98891
| 33> H 	 -131.253 	 -3.089 	 7.40178
| 34> H 	 -131.023 	 -2.49081 	 9.01993
| 35> C 	 -129.175 	 -2.95629 	 8.10753
| 36> H 	 -129.091 	 -3.94939 	 8.50992
| 37> H 	 -128.668 	 -2.29016 	 8.76426
| 38> H 	 -128.777 	 -3.02814 	 7.05718
| 39> H 	 -129.044 	 3.9361 	 3.82877
| 40> H 	 -130.003 	 1.18925 	 11.4854
| 41> *
| 42>
| 43>                          ****END OF INPUT****

CARTESIAN COORDINATES (ANGSTROEM)
---------------------------------
  S    -130.089000    3.365070    6.011500
  C    -129.114000    3.199650    4.605610
  C    -128.285000    2.096730    4.660550
  C    -128.473000    1.394730    5.868780
  C    -129.476000    1.887540    6.676190
  H    -127.982000    0.398677    6.057680
  C    -127.353000    1.568840    3.658770
  H    -127.841000    0.810524    3.006550
  H    -126.558000    1.026450    4.244980
  C    -126.700000    2.757360    2.948370
  H    -127.434000    3.600490    2.635740
  H    -126.061000    3.317540    3.603950
  C    -125.745000    2.363710    1.778530
  H    -125.385000    3.317430    1.346500
  H    -124.963000    1.668410    2.106860
  H    -126.222000    1.723890    1.006230
  S    -129.324000    2.316710    9.335770
  C    -130.124000    1.159370   10.419000
  C    -130.600000    0.112775    9.761530
  C    -130.396000    0.166046    8.352970
  C    -129.885000    1.389100    7.980630
  H    -130.953000   -0.722443   10.317500
  C    -130.788000   -0.939224    7.398890
  H    -130.298000   -0.827438    6.475760
  H    -131.862000   -0.764749    7.276790
  C    -130.602000   -2.417500    7.988910
  H    -131.253000   -3.089000    7.401780
  H    -131.023000   -2.490810    9.019930
  C    -129.175000   -2.956290    8.107530
  H    -129.091000   -3.949390    8.509920
  H    -128.668000   -2.290160    8.764260
  H    -128.777000   -3.028140    7.057180
  H    -129.044000    3.936100    3.828770
  H    -130.003000    1.189250   11.485400

 Total Charge           Charge          ....    0
 Multiplicity           Mult            ....    1
 Number of Electrons    NEL             ....  134
 Basis Dimension        Dim             ....  322

ORBITAL ENERGIES
----------------

  NO   OCC          E(Eh)            E(eV)
   0   2.0000     -88.965173     -2420.8654
   1   2.0000     -88.959905     -2420.7221
   2   2.0000     -10.323099      -280.9058
   3   2.0000     -10.318866      -280.7906
   4   2.0000     -10.310279      -280.5570
   5   2.0000     -10.307778      -280.4889
   6   2.0000     -10.300304      -280.2855
   7   2.0000     -10.296880      -280.1924
   8   2.0000     -10.295073      -280.1432
   9   2.0000     -10.293582      -280.1026
  10   2.0000     -10.292861      -280.0830
  11   2.0000     -10.291456      -280.0448
  12   2.0000     -10.290472      -280.0180
  13   2.0000     -10.285166      -279.8736
  14   2.0000     -10.283208      -279.8203
  15   2.0000     -10.278461      -279.6912
  16   2.0000      -8.080710      -219.8873
  17   2.0000      -8.075012      -219.7322
  18   2.0000      -6.039087      -164.3319
  19   2.0000      -6.035004      -164.2208
  20   2.0000      -6.033569      -164.1818
  21   2.0000      -6.031671      -164.1301
  22   2.0000      -6.029639      -164.0748
  23   2.0000      -6.025526      -163.9629
  24   2.0000      -1.011980       -27.5374
  25   2.0000      -0.990483       -26.9524
  26   2.0000      -0.915942       -24.9241
  27   2.0000      -0.902763       -24.5654
  28   2.0000      -0.871069       -23.7030
  29   2.0000      -0.851830       -23.1795
  30   2.0000      -0.847736       -23.0681
  31   2.0000      -0.816050       -22.2059
  32   2.0000      -0.782336       -21.2884
  33   2.0000      -0.771111       -20.9830
  34   2.0000      -0.712641       -19.3920
  35   2.0000      -0.699344       -19.0301
  36   2.0000      -0.691348       -18.8125
  37   2.0000      -0.656075       -17.8527
  38   2.0000      -0.638841       -17.3837
  39   2.0000      -0.615930       -16.7603
  40   2.0000      -0.599712       -16.3190
  41   2.0000      -0.572721       -15.5845
  42   2.0000      -0.555997       -15.1295
  43   2.0000      -0.553162       -15.0523
  44   2.0000      -0.541851       -14.7445
  45   2.0000      -0.530138       -14.4258
  46   2.0000      -0.522551       -14.2193
  47   2.0000      -0.513631       -13.9766
  48   2.0000      -0.501954       -13.6589
  49   2.0000      -0.494595       -13.4586
  50   2.0000      -0.488345       -13.2885
  51   2.0000      -0.478516       -13.0211
  52   2.0000      -0.477468       -12.9926
  53   2.0000      -0.464627       -12.6431
  54   2.0000      -0.457906       -12.4603
  55   2.0000      -0.451029       -12.2731
  56   2.0000      -0.447176       -12.1683
  57   2.0000      -0.442349       -12.0369
  58   2.0000      -0.432997       -11.7824
  59   2.0000      -0.421976       -11.4825
  60   2.0000      -0.417420       -11.3586
  61   2.0000      -0.416379       -11.3302
  62   2.0000      -0.409302       -11.1377
  63   2.0000      -0.343740        -9.3536
  64   2.0000      -0.328805        -8.9472
  65   2.0000      -0.323437        -8.8012
  66   2.0000      -0.299770        -8.1572
  67   0.0000       0.042039         1.1439
  68   0.0000       0.065619         1.7856
  69   0.0000       0.113445         3.0870
  70   0.0000       0.127073         3.4578
  71   0.0000       0.128740         3.5032

MULLIKEN ATOMIC CHARGES
-----------------------
   0 S :    0.128467
   1 C :   -0.121754
   2 C :   -0.095405
   3 C :    0.029680
   4 C :   -0.199639
   5 H :    0.027699
   6 C :    0.083362
   7 H :    0.056275
   8 H :    0.034833
   9 C :   -0.146728
  10 H :    0.040329
  11 H :    0.030614
  12 C :   -0.038539
  13 H :    0.044148
  14 H :    0.028324
  15 H :    0.026236
  16 S :    0.099923
  17 C :   -0.073529
  18 C :   -0.024603
  19 C :   -0.045112
  20 C :   -0.158882
  21 H :    0.006093
  22 C :    0.120597
  23 H :    0.012752
  24 H :    0.046878
  25 C :   -0.128485
  26 H :    0.029714
  27 H :    0.026189
  28 C :   -0.026507
  29 H :    0.033597
  30 H :    0.035867
  31 H :    0.033977
  32 H :    0.035822
  33 H :    0.047809
Sum of atomic charges:   -0.0000000

LOEWDIN ATOMIC CHARGES
----------------------
   0 S :    0.433454
   1 C :   -0.207279
   2 C :   -0.072671
   3 C :   -0.067824
   4 C :   -0.210100
   5 H :    0.038005
   6 C :   -0.035467
   7 H :    0.039647
   8 H :    0.039466
   9 C :   -0.047567
  10 H :    0.030080
  11 H :    0.024882
  12 C :   -0.072765
  13 H :    0.030894
  14 H :    0.025111
  15 H :    0.023299
  16 S :    0.394297
  17 C :   -0.165968
  18 C :   -0.072877
  19 C :   -0.053710
  20 C :   -0.207410
  21 H :    0.028151
  22 C :   -0.019965
  23 H :    0.021486
  24 H :    0.043660
  25 C :   -0.043689
  26 H :    0.022975
  27 H :    0.022027
  28 C :   -0.064735
  29 H :    0.025448
  30 H :    0.023199
  31 H :    0.029817
  32 H :    0.019672
  33 H :    0.026455

  Mayer bond orders larger than 0.100000
B(  0-S ,  1-C ) :   1.1515 B(  0-S ,  4-C ) :   1.1714 B(  1-C ,  2-C ) :   1.5838
B(  1-C , 32-H ) :   0.9679 B(  2-C ,  3-C ) :   1.2826 B(  2-C ,  6-C ) :   1.0150
B(  3-C ,  4-C ) :   1.5626 B(  3-C ,  5-H ) :   0.9815 B(  4-C , 20-C ) :   1.0061
B(  6-C ,  7-H ) :   0.9336 B(  6-C ,  8-H ) :   0.9384 B(  6-C ,  9-C ) :   1.0539
B(  9-C , 10-H ) :   0.9554 B(  9-C , 11-H ) :   0.9574 B(  9-C , 12-C ) :   1.0795
B( 12-C , 13-H ) :   0.9737 B( 12-C , 14-H ) :   0.9714 B( 12-C , 15-H ) :   0.9766
B( 16-S , 17-C ) :   1.1315 B( 16-S , 20-C ) :   1.1525 B( 17-C , 18-C ) :   1.6593
B( 17-C , 33-H ) :   0.9649 B( 18-C , 19-C ) :   1.2045 B( 18-C , 21-H ) :   0.9914
B( 19-C , 20-C ) :   1.6231 B( 19-C , 22-C ) :   1.0391 B( 22-C , 23-H ) :   0.9346
B( 22-C , 24-H ) :   0.9296 B( 22-C , 25-C ) :   1.0626 B( 25-C , 26-H ) :   0.9577
B( 25-C , 27-H ) :   0.9560 B( 25-C , 28-C ) :   1.0728 B( 28-C , 29-H ) :   0.9728
B( 28-C , 30-H ) :   0.9757 B( 28-C , 31-H ) :   0.9749

Dispersion correction           -0.013980843
FINAL SINGLE POINT ENERGY     -1339.877005522640

DIPOLE MOMENT
-------------
                                X             Y             Z
Electronic contribution:    -10.91137      17.92801      15.50880
Nuclear contribution   :     11.13335     -18.58659     -15.67339
                        -----------------------------------------
Total Dipole Moment    :      0.22198      -0.65858      -0.16459
                        -----------------------------------------
Magnitude (a.u.)       :      0.71420
Magnitude (Debye)      :      1.81536

Rotational constants in cm-1:     0.020883     0.007631     0.006248
Rotational constants in MHz :   626.067914   228.767362   187.299577

                             ****ORCA TERMINATED NORMALLY****
TOTAL RUN TIME: 0 days 0 hours 0 minutes 21 seconds 315 msec
