                         Program Version 4.2.1 -  RELEASE  -
|  1> ! wB97X-D3 SP def2-SVP
|  2> %pal
|  3> nprocs 24
|  4> end
|  5>
|  6> * xyz 0 1
|  7> S 	 -79.213 	 -22.4236 	 -54.1773
|  8> C 	 -79.6192 	 -21.4676 	 -52.7752
|  9> C 	 -79.2452 	 -22.2039 	 -51.5999
| 10> C 	 -78.4491 	 -23.3511 	 -51.884
| 11> C 	 -78.4394 	 -23.6628 	 -53.2084
| 12> H 	 -77.8928 	 -24.0052 	 -51.1873
| 13> C 	 -79.4847 	 -21.8088 	 -50.2055
| 14> H 	 -79.6399 	 -20.75 	 -50.1839
| 15> H 	 -78.5584 	 -21.9134 	 -49.6693
| 16> C 	 -80.5605 	 -22.3931 	 -49.3724
| 17> H 	 -80.1582 	 -23.2708 	 -48.7776
| 18> H 	 -80.8119 	 -21.6386 	 -48.6582
| 19> C 	 -81.9201 	 -22.7404 	 -50.1346
| 20> H 	 -82.7782 	 -22.6774 	 -49.5744
| 21> H 	 -82.0887 	 -22.0421 	 -50.919
| 22> H 	 -81.8602 	 -23.7105 	 -50.6321
| 23> S 	 -78.6521 	 -26.3941 	 -53.6734
| 24> C 	 -77.3639 	 -27.2331 	 -54.5839
| 25> C 	 -76.455 	 -26.291 	 -55.0023
| 26> C 	 -76.7581 	 -24.9758 	 -54.6181
| 27> C 	 -77.812 	 -24.8348 	 -53.7437
| 28> H 	 -75.6413 	 -26.5458 	 -55.6167
| 29> C 	 -75.9021 	 -23.8129 	 -55.0948
| 30> H 	 -75.1137 	 -23.7176 	 -54.3649
| 31> H 	 -76.3882 	 -22.8351 	 -55.1094
| 32> C 	 -75.2876 	 -23.7881 	 -56.4843
| 33> H 	 -74.57 	 -24.5907 	 -56.4355
| 34> H 	 -74.4883 	 -23.0267 	 -56.6092
| 35> C 	 -76.2524 	 -24.0115 	 -57.668
| 36> H 	 -75.8777 	 -24.8518 	 -58.3174
| 37> H 	 -76.3415 	 -23.0189 	 -58.1858
| 38> H 	 -77.2864 	 -24.334 	 -57.3199
| 39> H 	 -80.1704 	 -20.5359 	 -52.7717
| 40> H 	 -77.423 	 -28.2521 	 -54.9546
| 41> *
| 42>
| 43>                          ****END OF INPUT****

CARTESIAN COORDINATES (ANGSTROEM)
---------------------------------
  S    -79.213000  -22.423600  -54.177300
  C    -79.619200  -21.467600  -52.775200
  C    -79.245200  -22.203900  -51.599900
  C    -78.449100  -23.351100  -51.884000
  C    -78.439400  -23.662800  -53.208400
  H    -77.892800  -24.005200  -51.187300
  C    -79.484700  -21.808800  -50.205500
  H    -79.639900  -20.750000  -50.183900
  H    -78.558400  -21.913400  -49.669300
  C    -80.560500  -22.393100  -49.372400
  H    -80.158200  -23.270800  -48.777600
  H    -80.811900  -21.638600  -48.658200
  C    -81.920100  -22.740400  -50.134600
  H    -82.778200  -22.677400  -49.574400
  H    -82.088700  -22.042100  -50.919000
  H    -81.860200  -23.710500  -50.632100
  S    -78.652100  -26.394100  -53.673400
  C    -77.363900  -27.233100  -54.583900
  C    -76.455000  -26.291000  -55.002300
  C    -76.758100  -24.975800  -54.618100
  C    -77.812000  -24.834800  -53.743700
  H    -75.641300  -26.545800  -55.616700
  C    -75.902100  -23.812900  -55.094800
  H    -75.113700  -23.717600  -54.364900
  H    -76.388200  -22.835100  -55.109400
  C    -75.287600  -23.788100  -56.484300
  H    -74.570000  -24.590700  -56.435500
  H    -74.488300  -23.026700  -56.609200
  C    -76.252400  -24.011500  -57.668000
  H    -75.877700  -24.851800  -58.317400
  H    -76.341500  -23.018900  -58.185800
  H    -77.286400  -24.334000  -57.319900
  H    -80.170400  -20.535900  -52.771700
  H    -77.423000  -28.252100  -54.954600

 Total Charge           Charge          ....    0
 Multiplicity           Mult            ....    1
 Number of Electrons    NEL             ....  134
 Basis Dimension        Dim             ....  322

ORBITAL ENERGIES
----------------

  NO   OCC          E(Eh)            E(eV)
   0   2.0000     -88.968831     -2420.9650
   1   2.0000     -88.963028     -2420.8071
   2   2.0000     -10.323311      -280.9116
   3   2.0000     -10.322761      -280.8966
   4   2.0000     -10.322488      -280.8892
   5   2.0000     -10.320512      -280.8354
   6   2.0000     -10.302808      -280.3536
   7   2.0000     -10.300963      -280.3035
   8   2.0000     -10.292295      -280.0676
   9   2.0000     -10.289267      -279.9852
  10   2.0000     -10.288217      -279.9566
  11   2.0000     -10.286940      -279.9219
  12   2.0000     -10.283469      -279.8274
  13   2.0000     -10.283324      -279.8235
  14   2.0000     -10.277953      -279.6773
  15   2.0000     -10.266926      -279.3773
  16   2.0000      -8.082956      -219.9484
  17   2.0000      -8.076977      -219.7857
  18   2.0000      -6.041471      -164.3968
  19   2.0000      -6.037428      -164.2868
  20   2.0000      -6.035579      -164.2364
  21   2.0000      -6.033864      -164.1898
  22   2.0000      -6.031578      -164.1276
  23   2.0000      -6.027669      -164.0212
  24   2.0000      -1.006908       -27.3993
  25   2.0000      -0.983528       -26.7632
  26   2.0000      -0.915872       -24.9221
  27   2.0000      -0.906160       -24.6579
  28   2.0000      -0.871859       -23.7245
  29   2.0000      -0.846427       -23.0325
  30   2.0000      -0.840990       -22.8845
  31   2.0000      -0.815366       -22.1872
  32   2.0000      -0.785913       -21.3858
  33   2.0000      -0.773768       -21.0553
  34   2.0000      -0.708976       -19.2922
  35   2.0000      -0.701773       -19.0962
  36   2.0000      -0.693552       -18.8725
  37   2.0000      -0.661303       -17.9950
  38   2.0000      -0.638859       -17.3842
  39   2.0000      -0.615447       -16.7472
  40   2.0000      -0.598216       -16.2783
  41   2.0000      -0.567007       -15.4290
  42   2.0000      -0.554838       -15.0979
  43   2.0000      -0.554041       -15.0762
  44   2.0000      -0.545819       -14.8525
  45   2.0000      -0.536027       -14.5860
  46   2.0000      -0.519117       -14.1259
  47   2.0000      -0.514611       -14.0033
  48   2.0000      -0.502830       -13.6827
  49   2.0000      -0.492045       -13.3892
  50   2.0000      -0.486427       -13.2363
  51   2.0000      -0.476358       -12.9623
  52   2.0000      -0.473003       -12.8711
  53   2.0000      -0.469078       -12.7643
  54   2.0000      -0.461227       -12.5506
  55   2.0000      -0.448008       -12.1909
  56   2.0000      -0.443859       -12.0780
  57   2.0000      -0.439946       -11.9716
  58   2.0000      -0.428986       -11.6733
  59   2.0000      -0.419546       -11.4164
  60   2.0000      -0.414351       -11.2751
  61   2.0000      -0.408016       -11.1027
  62   2.0000      -0.390462       -10.6250
  63   2.0000      -0.338211        -9.2032
  64   2.0000      -0.333286        -9.0692
  65   2.0000      -0.320149        -8.7117
  66   2.0000      -0.302430        -8.2295
  67   0.0000       0.033746         0.9183
  68   0.0000       0.055422         1.5081
  69   0.0000       0.111757         3.0411
  70   0.0000       0.116396         3.1673
  71   0.0000       0.130421         3.5489

MULLIKEN ATOMIC CHARGES
-----------------------
   0 S :    0.128428
   1 C :   -0.119272
   2 C :   -0.096869
   3 C :    0.015998
   4 C :   -0.156035
   5 H :    0.031341
   6 C :    0.088184
   7 H :    0.000937
   8 H :    0.019897
   9 C :   -0.077654
  10 H :    0.036866
  11 H :    0.022920
  12 C :   -0.010434
  13 H :    0.015726
  14 H :    0.005261
  15 H :    0.040171
  16 S :    0.094326
  17 C :   -0.094026
  18 C :   -0.011425
  19 C :   -0.022429
  20 C :   -0.165619
  21 H :   -0.000129
  22 C :    0.062807
  23 H :    0.031790
  24 H :    0.024545
  25 C :   -0.086160
  26 H :   -0.002772
  27 H :    0.026749
  28 C :   -0.081335
  29 H :    0.047941
  30 H :    0.053756
  31 H :    0.054505
  32 H :    0.054839
  33 H :    0.067174
Sum of atomic charges:   -0.0000000

LOEWDIN ATOMIC CHARGES
----------------------
   0 S :    0.417809
   1 C :   -0.204369
   2 C :   -0.057028
   3 C :   -0.056973
   4 C :   -0.198718
   5 H :    0.042018
   6 C :   -0.046407
   7 H :    0.027587
   8 H :    0.035047
   9 C :   -0.036735
  10 H :    0.027585
  11 H :    0.023811
  12 C :   -0.058572
  13 H :    0.013691
  14 H :    0.020073
  15 H :    0.031449
  16 S :    0.385218
  17 C :   -0.168382
  18 C :   -0.067683
  19 C :   -0.054408
  20 C :   -0.197505
  21 H :    0.024171
  22 C :   -0.037482
  23 H :    0.034752
  24 H :    0.024226
  25 C :   -0.060100
  26 H :    0.011843
  27 H :    0.033077
  28 C :   -0.077978
  29 H :    0.034694
  30 H :    0.035065
  31 H :    0.035763
  32 H :    0.029753
  33 H :    0.034708

  Mayer bond orders larger than 0.100000
B(  0-S ,  1-C ) :   1.1468 B(  0-S ,  4-C ) :   1.1391 B(  1-C ,  2-C ) :   1.5717
B(  1-C ,  4-C ) :   0.1005 B(  1-C , 32-H ) :   0.9688 B(  2-C ,  3-C ) :   1.2318
B(  2-C ,  6-C ) :   1.0547 B(  3-C ,  4-C ) :   1.5806 B(  3-C ,  5-H ) :   0.9901
B(  4-C , 20-C ) :   1.0547 B(  6-C ,  7-H ) :   0.9264 B(  6-C ,  8-H ) :   0.9317
B(  6-C ,  9-C ) :   1.0788 B(  9-C , 10-H ) :   0.9582 B(  9-C , 11-H ) :   0.9554
B(  9-C , 12-C ) :   1.0768 B( 12-C , 13-H ) :   0.9775 B( 12-C , 14-H ) :   0.9734
B( 12-C , 15-H ) :   0.9724 B( 16-S , 17-C ) :   1.1586 B( 16-S , 20-C ) :   1.1321
B( 17-C , 18-C ) :   1.5844 B( 17-C , 20-C ) :   0.1049 B( 17-C , 33-H ) :   0.9671
B( 18-C , 19-C ) :   1.2599 B( 18-C , 21-H ) :   0.9987 B( 19-C , 20-C ) :   1.5823
B( 19-C , 22-C ) :   1.0293 B( 22-C , 23-H ) :   0.9308 B( 22-C , 24-H ) :   0.9381
B( 22-C , 25-C ) :   1.0841 B( 25-C , 26-H ) :   0.9508 B( 25-C , 27-H ) :   0.9508
B( 25-C , 28-C ) :   1.0436 B( 28-C , 29-H ) :   0.9769 B( 28-C , 30-H ) :   0.9781
B( 28-C , 31-H ) :   0.9795

Dispersion correction           -0.015029301
FINAL SINGLE POINT ENERGY     -1339.853743702165

DIPOLE MOMENT
-------------
                                X             Y             Z
Electronic contribution:     -2.33641      -7.77705      -2.90052
Nuclear contribution   :      2.63450       7.97177       2.97073
                        -----------------------------------------
Total Dipole Moment    :      0.29809       0.19472       0.07021
                        -----------------------------------------
Magnitude (a.u.)       :      0.36291
Magnitude (Debye)      :      0.92244

Rotational constants in cm-1:     0.024806     0.007871     0.006688
Rotational constants in MHz :   743.656304   235.975864   200.489230

                             ****ORCA TERMINATED NORMALLY****
TOTAL RUN TIME: 0 days 0 hours 0 minutes 21 seconds 481 msec
