                         Program Version 4.2.1 -  RELEASE  -
|  1> ! wB97X-D3 SP def2-SVP
|  2> %pal
|  3> nprocs 24
|  4> end
|  5>
|  6> * xyz 0 1
|  7> S 	 -70.7003 	 3.64648 	 -70.027
|  8> C 	 -70.8404 	 5.03131 	 -68.9835
|  9> C 	 -71.5623 	 4.66016 	 -67.8208
| 10> C 	 -71.9914 	 3.31006 	 -67.8018
| 11> C 	 -71.5987 	 2.65492 	 -68.9513
| 12> H 	 -72.606 	 2.80426 	 -67.0642
| 13> C 	 -71.9083 	 5.55909 	 -66.6244
| 14> H 	 -71.011 	 5.76201 	 -66.0827
| 15> H 	 -72.4621 	 4.92244 	 -65.9329
| 16> C 	 -72.7264 	 6.88949 	 -66.873
| 17> H 	 -72.1293 	 7.64968 	 -67.3392
| 18> H 	 -73.5036 	 6.63984 	 -67.5657
| 19> C 	 -73.3764 	 7.41897 	 -65.5431
| 20> H 	 -74.0938 	 6.70991 	 -65.1286
| 21> H 	 -72.66 	 7.59384 	 -64.7802
| 22> H 	 -73.9227 	 8.386 	 -65.7242
| 23> S 	 -70.4266 	 0.283147 	 -69.6631
| 24> C 	 -71.4115 	 -1.13759 	 -69.8648
| 25> C 	 -72.7076 	 -0.901765 	 -69.5387
| 26> C 	 -72.9568 	 0.3896 	 -69.0746
| 27> C 	 -71.8254 	 1.2355 	 -69.2158
| 28> H 	 -73.5775 	 -1.60866 	 -69.7055
| 29> C 	 -74.3024 	 0.844355 	 -68.5818
| 30> H 	 -74.5651 	 1.78577 	 -69.0203
| 31> H 	 -74.1312 	 1.01998 	 -67.5338
| 32> C 	 -75.5137 	 -0.198198 	 -68.6633
| 33> H 	 -75.3336 	 -1.02939 	 -68.0512
| 34> H 	 -75.6537 	 -0.562796 	 -69.6628
| 35> C 	 -76.8219 	 0.325595 	 -68.0908
| 36> H 	 -76.6267 	 0.763001 	 -67.1022
| 37> H 	 -77.5291 	 -0.483961 	 -68.056
| 38> H 	 -77.1797 	 1.12642 	 -68.7827
| 39> H 	 -70.543 	 6.0098 	 -69.2775
| 40> H 	 -71.0707 	 -2.01683 	 -70.4062
| 41> *
| 42>
| 43>                          ****END OF INPUT****

CARTESIAN COORDINATES (ANGSTROEM)
---------------------------------
  S    -70.700300    3.646480  -70.027000
  C    -70.840400    5.031310  -68.983500
  C    -71.562300    4.660160  -67.820800
  C    -71.991400    3.310060  -67.801800
  C    -71.598700    2.654920  -68.951300
  H    -72.606000    2.804260  -67.064200
  C    -71.908300    5.559090  -66.624400
  H    -71.011000    5.762010  -66.082700
  H    -72.462100    4.922440  -65.932900
  C    -72.726400    6.889490  -66.873000
  H    -72.129300    7.649680  -67.339200
  H    -73.503600    6.639840  -67.565700
  C    -73.376400    7.418970  -65.543100
  H    -74.093800    6.709910  -65.128600
  H    -72.660000    7.593840  -64.780200
  H    -73.922700    8.386000  -65.724200
  S    -70.426600    0.283147  -69.663100
  C    -71.411500   -1.137590  -69.864800
  C    -72.707600   -0.901765  -69.538700
  C    -72.956800    0.389600  -69.074600
  C    -71.825400    1.235500  -69.215800
  H    -73.577500   -1.608660  -69.705500
  C    -74.302400    0.844355  -68.581800
  H    -74.565100    1.785770  -69.020300
  H    -74.131200    1.019980  -67.533800
  C    -75.513700   -0.198198  -68.663300
  H    -75.333600   -1.029390  -68.051200
  H    -75.653700   -0.562796  -69.662800
  C    -76.821900    0.325595  -68.090800
  H    -76.626700    0.763001  -67.102200
  H    -77.529100   -0.483961  -68.056000
  H    -77.179700    1.126420  -68.782700
  H    -70.543000    6.009800  -69.277500
  H    -71.070700   -2.016830  -70.406200

 Total Charge           Charge          ....    0
 Multiplicity           Mult            ....    1
 Number of Electrons    NEL             ....  134
 Basis Dimension        Dim             ....  322

ORBITAL ENERGIES
----------------

  NO   OCC          E(Eh)            E(eV)
   0   2.0000     -88.969067     -2420.9714
   1   2.0000     -88.963600     -2420.8226
   2   2.0000     -10.326165      -280.9892
   3   2.0000     -10.324667      -280.9485
   4   2.0000     -10.315160      -280.6898
   5   2.0000     -10.310551      -280.5643
   6   2.0000     -10.305706      -280.4325
   7   2.0000     -10.300444      -280.2893
   8   2.0000     -10.292543      -280.0743
   9   2.0000     -10.292427      -280.0712
  10   2.0000     -10.290865      -280.0287
  11   2.0000     -10.290514      -280.0191
  12   2.0000     -10.289471      -279.9907
  13   2.0000     -10.285286      -279.8769
  14   2.0000     -10.282381      -279.7978
  15   2.0000     -10.282025      -279.7881
  16   2.0000      -8.084318      -219.9855
  17   2.0000      -8.078497      -219.8271
  18   2.0000      -6.042679      -164.4297
  19   2.0000      -6.038575      -164.3180
  20   2.0000      -6.036960      -164.2740
  21   2.0000      -6.035390      -164.2313
  22   2.0000      -6.032930      -164.1644
  23   2.0000      -6.029366      -164.0674
  24   2.0000      -1.009480       -27.4694
  25   2.0000      -0.986512       -26.8444
  26   2.0000      -0.908805       -24.7298
  27   2.0000      -0.902168       -24.5492
  28   2.0000      -0.866687       -23.5838
  29   2.0000      -0.857871       -23.3438
  30   2.0000      -0.850111       -23.1327
  31   2.0000      -0.812057       -22.0972
  32   2.0000      -0.780276       -21.2324
  33   2.0000      -0.767108       -20.8741
  34   2.0000      -0.711283       -19.3550
  35   2.0000      -0.706999       -19.2384
  36   2.0000      -0.695417       -18.9232
  37   2.0000      -0.653792       -17.7906
  38   2.0000      -0.641260       -17.4496
  39   2.0000      -0.615842       -16.7579
  40   2.0000      -0.598230       -16.2787
  41   2.0000      -0.575257       -15.6535
  42   2.0000      -0.561201       -15.2710
  43   2.0000      -0.559964       -15.2374
  44   2.0000      -0.532966       -14.5028
  45   2.0000      -0.521725       -14.1969
  46   2.0000      -0.517621       -14.0852
  47   2.0000      -0.513834       -13.9821
  48   2.0000      -0.501469       -13.6457
  49   2.0000      -0.496204       -13.5024
  50   2.0000      -0.488514       -13.2931
  51   2.0000      -0.477550       -12.9948
  52   2.0000      -0.474906       -12.9229
  53   2.0000      -0.468819       -12.7572
  54   2.0000      -0.458598       -12.4791
  55   2.0000      -0.456215       -12.4142
  56   2.0000      -0.452289       -12.3074
  57   2.0000      -0.432854       -11.7786
  58   2.0000      -0.431479       -11.7411
  59   2.0000      -0.428639       -11.6639
  60   2.0000      -0.423357       -11.5201
  61   2.0000      -0.421340       -11.4653
  62   2.0000      -0.419267       -11.4088
  63   2.0000      -0.348564        -9.4849
  64   2.0000      -0.332698        -9.0532
  65   2.0000      -0.328855        -8.9486
  66   2.0000      -0.285602        -7.7716
  67   0.0000       0.027208         0.7404
  68   0.0000       0.072606         1.9757
  69   0.0000       0.117605         3.2002
  70   0.0000       0.129689         3.5290
  71   0.0000       0.135846         3.6966

MULLIKEN ATOMIC CHARGES
-----------------------
   0 S :    0.125338
   1 C :   -0.116825
   2 C :   -0.082175
   3 C :    0.013233
   4 C :   -0.148305
   5 H :    0.015032
   6 C :    0.065024
   7 H :    0.033112
   8 H :    0.004647
   9 C :   -0.051020
  10 H :    0.029911
  11 H :    0.029261
  12 C :   -0.072395
  13 H :    0.033605
  14 H :    0.027424
  15 H :    0.043508
  16 S :    0.106045
  17 C :   -0.084658
  18 C :   -0.057714
  19 C :   -0.048400
  20 C :   -0.168707
  21 H :    0.040913
  22 C :    0.070532
  23 H :    0.034843
  24 H :    0.030093
  25 C :   -0.096866
  26 H :    0.020305
  27 H :    0.032880
  28 C :   -0.032796
  29 H :    0.032009
  30 H :    0.036346
  31 H :    0.035515
  32 H :    0.041792
  33 H :    0.058491
Sum of atomic charges:   -0.0000000

LOEWDIN ATOMIC CHARGES
----------------------
   0 S :    0.435121
   1 C :   -0.205405
   2 C :   -0.055456
   3 C :   -0.066732
   4 C :   -0.206582
   5 H :    0.033818
   6 C :   -0.031752
   7 H :    0.028469
   8 H :    0.025935
   9 C :   -0.031584
  10 H :    0.019606
  11 H :    0.022279
  12 C :   -0.066420
  13 H :    0.024752
  14 H :    0.018264
  15 H :    0.033254
  16 S :    0.412192
  17 C :   -0.196018
  18 C :   -0.082303
  19 C :   -0.059705
  20 C :   -0.201370
  21 H :    0.044446
  22 C :   -0.027600
  23 H :    0.030092
  24 H :    0.031184
  25 C :   -0.038344
  26 H :    0.016729
  27 H :    0.018919
  28 C :   -0.057929
  29 H :    0.026044
  30 H :    0.025291
  31 H :    0.027930
  32 H :    0.022160
  33 H :    0.030713

  Mayer bond orders larger than 0.100000
B(  0-S ,  1-C ) :   1.1468 B(  0-S ,  4-C ) :   1.1872 B(  1-C ,  2-C ) :   1.5553
B(  1-C ,  4-C ) :   0.1023 B(  1-C , 32-H ) :   0.9824 B(  2-C ,  3-C ) :   1.2779
B(  2-C ,  6-C ) :   1.0206 B(  3-C ,  4-C ) :   1.5292 B(  3-C ,  5-H ) :   0.9934
B(  4-C , 20-C ) :   1.0340 B(  6-C ,  7-H ) :   0.9342 B(  6-C ,  8-H ) :   0.9472
B(  6-C ,  9-C ) :   1.0497 B(  9-C , 10-H ) :   0.9577 B(  9-C , 11-H ) :   0.9623
B(  9-C , 12-C ) :   1.0792 B( 12-C , 13-H ) :   0.9771 B( 12-C , 14-H ) :   0.9786
B( 12-C , 15-H ) :   0.9756 B( 16-S , 17-C ) :   1.1594 B( 16-S , 20-C ) :   1.1619
B( 17-C , 18-C ) :   1.5735 B( 17-C , 20-C ) :   0.1098 B( 17-C , 33-H ) :   0.9604
B( 18-C , 19-C ) :   1.3132 B( 18-C , 21-H ) :   0.9680 B( 19-C , 20-C ) :   1.5575
B( 19-C , 22-C ) :   1.0242 B( 22-C , 23-H ) :   0.9375 B( 22-C , 24-H ) :   0.9190
B( 22-C , 25-C ) :   1.0786 B( 25-C , 26-H ) :   0.9499 B( 25-C , 27-H ) :   0.9534
B( 25-C , 28-C ) :   1.0902 B( 28-C , 29-H ) :   0.9733 B( 28-C , 30-H ) :   0.9734
B( 28-C , 31-H ) :   0.9761

Dispersion correction           -0.013252382
FINAL SINGLE POINT ENERGY     -1339.884625680180

DIPOLE MOMENT
-------------
                                X             Y             Z
Electronic contribution:     24.71782     -10.44375     -16.56888
Nuclear contribution   :    -25.33099      10.57880      16.89083
                        -----------------------------------------
Total Dipole Moment    :     -0.61317       0.13506       0.32196
                        -----------------------------------------
Magnitude (a.u.)       :      0.70560
Magnitude (Debye)      :      1.79350

Rotational constants in cm-1:     0.016867     0.008170     0.005843
Rotational constants in MHz :   505.671890   244.928415   175.178371

                             ****ORCA TERMINATED NORMALLY****
TOTAL RUN TIME: 0 days 0 hours 0 minutes 20 seconds 706 msec
