                         Program Version 4.2.1 -  RELEASE  -
|  1> ! wB97X-D3 SP def2-SVP
|  2> %pal
|  3> nprocs 24
|  4> end
|  5>
|  6> * xyz 0 1
|  7> S 	 -96.0866 	 7.26041 	 -0.519122
|  8> C 	 -96.5992 	 7.74683 	 -2.08082
|  9> C 	 -95.7467 	 8.59527 	 -2.69835
| 10> C 	 -94.578 	 8.86503 	 -2.00468
| 11> C 	 -94.5555 	 8.23781 	 -0.77923
| 12> H 	 -93.7289 	 9.41645 	 -2.25666
| 13> C 	 -95.9625 	 9.10218 	 -4.15754
| 14> H 	 -95.3363 	 9.98139 	 -4.39325
| 15> H 	 -96.962 	 9.48135 	 -4.09586
| 16> C 	 -95.6467 	 8.11004 	 -5.27742
| 17> H 	 -94.7679 	 7.63304 	 -5.1745
| 18> H 	 -96.5308 	 7.4074 	 -5.25039
| 19> C 	 -95.5304 	 8.61019 	 -6.73778
| 20> H 	 -95.0154 	 7.92757 	 -7.40892
| 21> H 	 -96.5371 	 8.81866 	 -7.11502
| 22> H 	 -94.8892 	 9.53396 	 -6.79122
| 23> S 	 -93.1665 	 6.64304 	 0.901969
| 24> C 	 -91.8254 	 7.08545 	 1.77656
| 25> C 	 -91.4932 	 8.40489 	 1.51919
| 26> C 	 -92.5163 	 9.07253 	 0.668387
| 27> C 	 -93.4156 	 8.15139 	 0.119475
| 28> H 	 -90.6257 	 8.77383 	 1.99811
| 29> C 	 -92.4209 	 10.5652 	 0.365257
| 30> H 	 -93.4275 	 10.9879 	 0.260789
| 31> H 	 -91.8612 	 10.6221 	 -0.582185
| 32> C 	 -91.5635 	 11.4941 	 1.22663
| 33> H 	 -90.5774 	 11.1214 	 1.15675
| 34> H 	 -91.8771 	 11.2467 	 2.29765
| 35> C 	 -91.7804 	 12.9753 	 1.05061
| 36> H 	 -92.8332 	 13.3022 	 0.915186
| 37> H 	 -91.2367 	 13.3387 	 0.171126
| 38> H 	 -91.4355 	 13.303 	 2.06073
| 39> H 	 -97.5315 	 7.4292 	 -2.43362
| 40> H 	 -91.3865 	 6.33742 	 2.39439
| 41> *
| 42>
| 43>                          ****END OF INPUT****

CARTESIAN COORDINATES (ANGSTROEM)
---------------------------------
  S    -96.086600    7.260410   -0.519122
  C    -96.599200    7.746830   -2.080820
  C    -95.746700    8.595270   -2.698350
  C    -94.578000    8.865030   -2.004680
  C    -94.555500    8.237810   -0.779230
  H    -93.728900    9.416450   -2.256660
  C    -95.962500    9.102180   -4.157540
  H    -95.336300    9.981390   -4.393250
  H    -96.962000    9.481350   -4.095860
  C    -95.646700    8.110040   -5.277420
  H    -94.767900    7.633040   -5.174500
  H    -96.530800    7.407400   -5.250390
  C    -95.530400    8.610190   -6.737780
  H    -95.015400    7.927570   -7.408920
  H    -96.537100    8.818660   -7.115020
  H    -94.889200    9.533960   -6.791220
  S    -93.166500    6.643040    0.901969
  C    -91.825400    7.085450    1.776560
  C    -91.493200    8.404890    1.519190
  C    -92.516300    9.072530    0.668387
  C    -93.415600    8.151390    0.119475
  H    -90.625700    8.773830    1.998110
  C    -92.420900   10.565200    0.365257
  H    -93.427500   10.987900    0.260789
  H    -91.861200   10.622100   -0.582185
  C    -91.563500   11.494100    1.226630
  H    -90.577400   11.121400    1.156750
  H    -91.877100   11.246700    2.297650
  C    -91.780400   12.975300    1.050610
  H    -92.833200   13.302200    0.915186
  H    -91.236700   13.338700    0.171126
  H    -91.435500   13.303000    2.060730
  H    -97.531500    7.429200   -2.433620
  H    -91.386500    6.337420    2.394390

 Total Charge           Charge          ....    0
 Multiplicity           Mult            ....    1
 Number of Electrons    NEL             ....  134
 Basis Dimension        Dim             ....  322

ORBITAL ENERGIES
----------------

  NO   OCC          E(Eh)            E(eV)
   0   2.0000     -88.966487     -2420.9012
   1   2.0000     -88.956709     -2420.6351
   2   2.0000     -10.332446      -281.1602
   3   2.0000     -10.323175      -280.9079
   4   2.0000     -10.312424      -280.6153
   5   2.0000     -10.309516      -280.5362
   6   2.0000     -10.306336      -280.4497
   7   2.0000     -10.296281      -280.1761
   8   2.0000     -10.295209      -280.1469
   9   2.0000     -10.291513      -280.0463
  10   2.0000     -10.290080      -280.0073
  11   2.0000     -10.287792      -279.9450
  12   2.0000     -10.286290      -279.9042
  13   2.0000     -10.285956      -279.8951
  14   2.0000     -10.282056      -279.7890
  15   2.0000     -10.281071      -279.7622
  16   2.0000      -8.080776      -219.8891
  17   2.0000      -8.074332      -219.7138
  18   2.0000      -6.039219      -164.3355
  19   2.0000      -6.035453      -164.2330
  20   2.0000      -6.032633      -164.1563
  21   2.0000      -6.031529      -164.1263
  22   2.0000      -6.028179      -164.0351
  23   2.0000      -6.025375      -163.9588
  24   2.0000      -1.011401       -27.5216
  25   2.0000      -0.990502       -26.9529
  26   2.0000      -0.912927       -24.8420
  27   2.0000      -0.905894       -24.6506
  28   2.0000      -0.875257       -23.8170
  29   2.0000      -0.855695       -23.2847
  30   2.0000      -0.848104       -23.0781
  31   2.0000      -0.817830       -22.2543
  32   2.0000      -0.782611       -21.2959
  33   2.0000      -0.771194       -20.9853
  34   2.0000      -0.705976       -19.2106
  35   2.0000      -0.699735       -19.0407
  36   2.0000      -0.695893       -18.9362
  37   2.0000      -0.660781       -17.9808
  38   2.0000      -0.645494       -17.5648
  39   2.0000      -0.619322       -16.8526
  40   2.0000      -0.599456       -16.3120
  41   2.0000      -0.575418       -15.6579
  42   2.0000      -0.569944       -15.5090
  43   2.0000      -0.564426       -15.3588
  44   2.0000      -0.531878       -14.4731
  45   2.0000      -0.526980       -14.3399
  46   2.0000      -0.519321       -14.1314
  47   2.0000      -0.513971       -13.9859
  48   2.0000      -0.508210       -13.8291
  49   2.0000      -0.500233       -13.6120
  50   2.0000      -0.493989       -13.4421
  51   2.0000      -0.487267       -13.2592
  52   2.0000      -0.476467       -12.9653
  53   2.0000      -0.470139       -12.7931
  54   2.0000      -0.458824       -12.4852
  55   2.0000      -0.453516       -12.3408
  56   2.0000      -0.447552       -12.1785
  57   2.0000      -0.437789       -11.9129
  58   2.0000      -0.428792       -11.6680
  59   2.0000      -0.412515       -11.2251
  60   2.0000      -0.411643       -11.2014
  61   2.0000      -0.406749       -11.0682
  62   2.0000      -0.404454       -11.0058
  63   2.0000      -0.357965        -9.7407
  64   2.0000      -0.335485        -9.1290
  65   2.0000      -0.321967        -8.7612
  66   2.0000      -0.286342        -7.7917
  67   0.0000       0.028371         0.7720
  68   0.0000       0.077332         2.1043
  69   0.0000       0.109711         2.9854
  70   0.0000       0.123865         3.3705
  71   0.0000       0.142290         3.8719

MULLIKEN ATOMIC CHARGES
-----------------------
   0 S :    0.105740
   1 C :   -0.112454
   2 C :   -0.039331
   3 C :    0.029576
   4 C :   -0.137133
   5 H :   -0.009039
   6 C :    0.074552
   7 H :    0.008430
   8 H :    0.024684
   9 C :   -0.030441
  10 H :    0.009644
  11 H :    0.030464
  12 C :   -0.075480
  13 H :    0.038170
  14 H :    0.035553
  15 H :    0.028849
  16 S :    0.096878
  17 C :   -0.083496
  18 C :   -0.036317
  19 C :   -0.048039
  20 C :   -0.143640
  21 H :    0.010549
  22 C :    0.035827
  23 H :    0.034426
  24 H :    0.038215
  25 C :   -0.120085
  26 H :    0.027077
  27 H :    0.025575
  28 C :   -0.028694
  29 H :    0.039155
  30 H :    0.041477
  31 H :    0.049376
  32 H :    0.024401
  33 H :    0.055532
Sum of atomic charges:    0.0000000

LOEWDIN ATOMIC CHARGES
----------------------
   0 S :    0.383152
   1 C :   -0.188549
   2 C :   -0.065828
   3 C :   -0.047983
   4 C :   -0.160742
   5 H :    0.027633
   6 C :   -0.027369
   7 H :    0.025631
   8 H :    0.027273
   9 C :   -0.036045
  10 H :    0.010377
  11 H :    0.029598
  12 C :   -0.067140
  13 H :    0.027164
  14 H :    0.023741
  15 H :    0.026177
  16 S :    0.451851
  17 C :   -0.204568
  18 C :   -0.078703
  19 C :   -0.050695
  20 C :   -0.217227
  21 H :    0.023686
  22 C :   -0.044233
  23 H :    0.030501
  24 H :    0.034723
  25 C :   -0.049067
  26 H :    0.017178
  27 H :    0.024608
  28 C :   -0.065056
  29 H :    0.031046
  30 H :    0.026919
  31 H :    0.041128
  32 H :    0.015752
  33 H :    0.025068

  Mayer bond orders larger than 0.100000
B(  0-S ,  1-C ) :   1.1432 B(  0-S ,  4-C ) :   1.1292 B(  1-C ,  2-C ) :   1.6095
B(  1-C , 32-H ) :   0.9767 B(  2-C ,  3-C ) :   1.2315 B(  2-C ,  6-C ) :   1.0114
B(  3-C ,  4-C ) :   1.5765 B(  3-C ,  5-H ) :   1.0114 B(  4-C , 20-C ) :   1.0712
B(  6-C ,  7-H ) :   0.9438 B(  6-C ,  8-H ) :   0.9409 B(  6-C ,  9-C ) :   1.0594
B(  9-C , 10-H ) :   0.9592 B(  9-C , 11-H ) :   0.9571 B(  9-C , 12-C ) :   1.0813
B( 12-C , 13-H ) :   0.9772 B( 12-C , 14-H ) :   0.9795 B( 12-C , 15-H ) :   0.9715
B( 16-S , 17-C ) :   1.2042 B( 16-S , 20-C ) :   1.1502 B( 17-C , 18-C ) :   1.5594
B( 17-C , 33-H ) :   0.9742 B( 18-C , 19-C ) :   1.2324 B( 18-C , 21-H ) :   0.9994
B( 19-C , 20-C ) :   1.5641 B( 19-C , 22-C ) :   1.0477 B( 22-C , 23-H ) :   0.9370
B( 22-C , 24-H ) :   0.9301 B( 22-C , 25-C ) :   1.0729 B( 25-C , 26-H ) :   0.9462
B( 25-C , 27-H ) :   0.9644 B( 25-C , 28-C ) :   1.0651 B( 28-C , 29-H ) :   0.9739
B( 28-C , 30-H ) :   0.9744 B( 28-C , 31-H ) :   0.9757

Dispersion correction           -0.013083276
FINAL SINGLE POINT ENERGY     -1339.849590199078

DIPOLE MOMENT
-------------
                                X             Y             Z
Electronic contribution:     -5.27298     -20.49197      16.63817
Nuclear contribution   :      5.56185      20.88721     -16.91545
                        -----------------------------------------
Total Dipole Moment    :      0.28887       0.39524      -0.27728
                        -----------------------------------------
Magnitude (a.u.)       :      0.56262
Magnitude (Debye)      :      1.43006

Rotational constants in cm-1:     0.017677     0.007485     0.005963
Rotational constants in MHz :   529.957011   224.393977   178.762113

                             ****ORCA TERMINATED NORMALLY****
TOTAL RUN TIME: 0 days 0 hours 0 minutes 20 seconds 635 msec
