                         Program Version 4.2.1 -  RELEASE  -
|  1> ! wB97X-D3 SP def2-SVP
|  2> %pal
|  3> nprocs 24
|  4> end
|  5>
|  6> * xyz 0 1
|  7> S 	 -133.654 	 60.1906 	 -62.3283
|  8> C 	 -134.128 	 61.7832 	 -62.2632
|  9> C 	 -133.75 	 62.3983 	 -61.129
| 10> C 	 -132.791 	 61.566 	 -60.4389
| 11> C 	 -132.571 	 60.3494 	 -61.0075
| 12> H 	 -132.177 	 61.8642 	 -59.5543
| 13> C 	 -133.999 	 63.8442 	 -60.6881
| 14> H 	 -133.703 	 64.5636 	 -61.4865
| 15> H 	 -133.439 	 64.0468 	 -59.7814
| 16> C 	 -135.508 	 63.9871 	 -60.3651
| 17> H 	 -135.799 	 63.157 	 -59.7269
| 18> H 	 -135.61 	 64.8589 	 -59.6919
| 19> C 	 -136.399 	 64.4653 	 -61.511
| 20> H 	 -136.55 	 63.6867 	 -62.2628
| 21> H 	 -137.307 	 64.9921 	 -61.204
| 22> H 	 -135.961 	 65.2191 	 -62.2193
| 23> S 	 -132.511 	 57.663 	 -60.433
| 24> C 	 -131.082 	 56.8268 	 -59.998
| 25> C 	 -130.049 	 57.7295 	 -59.7912
| 26> C 	 -130.44 	 59.0826 	 -60.0134
| 27> C 	 -131.754 	 59.2345 	 -60.5336
| 28> H 	 -129.067 	 57.4316 	 -59.4158
| 29> C 	 -129.501 	 60.1706 	 -59.7192
| 30> H 	 -129.842 	 60.8185 	 -58.7777
| 31> H 	 -129.62 	 60.8982 	 -60.4747
| 32> C 	 -127.971 	 59.8776 	 -59.5716
| 33> H 	 -127.656 	 59.143 	 -58.7946
| 34> H 	 -127.439 	 60.7824 	 -59.2458
| 35> C 	 -127.297 	 59.39 	 -60.8282
| 36> H 	 -126.23 	 59.5073 	 -60.7926
| 37> H 	 -127.671 	 60.026 	 -61.6905
| 38> H 	 -127.593 	 58.3925 	 -61.1679
| 39> H 	 -134.677 	 62.3548 	 -63.0306
| 40> H 	 -130.988 	 55.7251 	 -59.9654
| 41> *
| 42>
| 43>                          ****END OF INPUT****

CARTESIAN COORDINATES (ANGSTROEM)
---------------------------------
  S    -133.654000   60.190600  -62.328300
  C    -134.128000   61.783200  -62.263200
  C    -133.750000   62.398300  -61.129000
  C    -132.791000   61.566000  -60.438900
  C    -132.571000   60.349400  -61.007500
  H    -132.177000   61.864200  -59.554300
  C    -133.999000   63.844200  -60.688100
  H    -133.703000   64.563600  -61.486500
  H    -133.439000   64.046800  -59.781400
  C    -135.508000   63.987100  -60.365100
  H    -135.799000   63.157000  -59.726900
  H    -135.610000   64.858900  -59.691900
  C    -136.399000   64.465300  -61.511000
  H    -136.550000   63.686700  -62.262800
  H    -137.307000   64.992100  -61.204000
  H    -135.961000   65.219100  -62.219300
  S    -132.511000   57.663000  -60.433000
  C    -131.082000   56.826800  -59.998000
  C    -130.049000   57.729500  -59.791200
  C    -130.440000   59.082600  -60.013400
  C    -131.754000   59.234500  -60.533600
  H    -129.067000   57.431600  -59.415800
  C    -129.501000   60.170600  -59.719200
  H    -129.842000   60.818500  -58.777700
  H    -129.620000   60.898200  -60.474700
  C    -127.971000   59.877600  -59.571600
  H    -127.656000   59.143000  -58.794600
  H    -127.439000   60.782400  -59.245800
  C    -127.297000   59.390000  -60.828200
  H    -126.230000   59.507300  -60.792600
  H    -127.671000   60.026000  -61.690500
  H    -127.593000   58.392500  -61.167900
  H    -134.677000   62.354800  -63.030600
  H    -130.988000   55.725100  -59.965400

 Total Charge           Charge          ....    0
 Multiplicity           Mult            ....    1
 Number of Electrons    NEL             ....  134
 Basis Dimension        Dim             ....  322

ORBITAL ENERGIES
----------------

  NO   OCC          E(Eh)            E(eV)
   0   2.0000     -88.963949     -2420.8321
   1   2.0000     -88.963795     -2420.8279
   2   2.0000     -10.329801      -281.0882
   3   2.0000     -10.325760      -280.9782
   4   2.0000     -10.316817      -280.7349
   5   2.0000     -10.307489      -280.4810
   6   2.0000     -10.304098      -280.3888
   7   2.0000     -10.297906      -280.2203
   8   2.0000     -10.297305      -280.2039
   9   2.0000     -10.297156      -280.1999
  10   2.0000     -10.295186      -280.1463
  11   2.0000     -10.292775      -280.0806
  12   2.0000     -10.292164      -280.0640
  13   2.0000     -10.289263      -279.9851
  14   2.0000     -10.285174      -279.8738
  15   2.0000     -10.276043      -279.6253
  16   2.0000      -8.081171      -219.8998
  17   2.0000      -8.079197      -219.8461
  18   2.0000      -6.039552      -164.3446
  19   2.0000      -6.037700      -164.2942
  20   2.0000      -6.035300      -164.2289
  21   2.0000      -6.033397      -164.1771
  22   2.0000      -6.031902      -164.1364
  23   2.0000      -6.030137      -164.0884
  24   2.0000      -1.020722       -27.7753
  25   2.0000      -0.993584       -27.0368
  26   2.0000      -0.913292       -24.8519
  27   2.0000      -0.909902       -24.7597
  28   2.0000      -0.873282       -23.7632
  29   2.0000      -0.853136       -23.2150
  30   2.0000      -0.846847       -23.0439
  31   2.0000      -0.816091       -22.2070
  32   2.0000      -0.785392       -21.3716
  33   2.0000      -0.773053       -21.0358
  34   2.0000      -0.707218       -19.2444
  35   2.0000      -0.700246       -19.0547
  36   2.0000      -0.694756       -18.9053
  37   2.0000      -0.658755       -17.9256
  38   2.0000      -0.641061       -17.4441
  39   2.0000      -0.618583       -16.8325
  40   2.0000      -0.600032       -16.3277
  41   2.0000      -0.577199       -15.7064
  42   2.0000      -0.552286       -15.0285
  43   2.0000      -0.545461       -14.8428
  44   2.0000      -0.543885       -14.7999
  45   2.0000      -0.531626       -14.4663
  46   2.0000      -0.520698       -14.1689
  47   2.0000      -0.511133       -13.9086
  48   2.0000      -0.506255       -13.7759
  49   2.0000      -0.502675       -13.6785
  50   2.0000      -0.493009       -13.4154
  51   2.0000      -0.484118       -13.1735
  52   2.0000      -0.478698       -13.0260
  53   2.0000      -0.471666       -12.8347
  54   2.0000      -0.455736       -12.4012
  55   2.0000      -0.449335       -12.2270
  56   2.0000      -0.443689       -12.0734
  57   2.0000      -0.438584       -11.9345
  58   2.0000      -0.432204       -11.7609
  59   2.0000      -0.422413       -11.4944
  60   2.0000      -0.417307       -11.3555
  61   2.0000      -0.410855       -11.1799
  62   2.0000      -0.401881       -10.9357
  63   2.0000      -0.355027        -9.6608
  64   2.0000      -0.329029        -8.9533
  65   2.0000      -0.325928        -8.8690
  66   2.0000      -0.289310        -7.8725
  67   0.0000       0.030004         0.8165
  68   0.0000       0.071736         1.9520
  69   0.0000       0.116338         3.1657
  70   0.0000       0.123770         3.3680
  71   0.0000       0.134400         3.6572

MULLIKEN ATOMIC CHARGES
-----------------------
   0 S :    0.131730
   1 C :   -0.117537
   2 C :   -0.096939
   3 C :   -0.004110
   4 C :   -0.149586
   5 H :    0.020304
   6 C :    0.073748
   7 H :    0.043453
   8 H :    0.022434
   9 C :   -0.071729
  10 H :    0.041892
  11 H :    0.021605
  12 C :   -0.062472
  13 H :    0.023172
  14 H :    0.045682
  15 H :    0.021152
  16 S :    0.105211
  17 C :   -0.097422
  18 C :   -0.040791
  19 C :   -0.028058
  20 C :   -0.142673
  21 H :    0.024472
  22 C :    0.025371
  23 H :    0.055166
  24 H :    0.017564
  25 C :   -0.080103
  26 H :    0.032122
  27 H :    0.027302
  28 C :   -0.062528
  29 H :    0.037120
  30 H :    0.024470
  31 H :    0.034422
  32 H :    0.054250
  33 H :    0.071306
Sum of atomic charges:   -0.0000000

LOEWDIN ATOMIC CHARGES
----------------------
   0 S :    0.453443
   1 C :   -0.221276
   2 C :   -0.071739
   3 C :   -0.066818
   4 C :   -0.214574
   5 H :    0.035084
   6 C :   -0.024506
   7 H :    0.035918
   8 H :    0.030380
   9 C :   -0.046579
  10 H :    0.029624
  11 H :    0.026158
  12 C :   -0.077676
  13 H :    0.019111
  14 H :    0.030544
  15 H :    0.030933
  16 S :    0.428149
  17 C :   -0.204859
  18 C :   -0.077297
  19 C :   -0.062024
  20 C :   -0.200782
  21 H :    0.033834
  22 C :   -0.041997
  23 H :    0.046070
  24 H :    0.025994
  25 C :   -0.049837
  26 H :    0.024681
  27 H :    0.029996
  28 C :   -0.071978
  29 H :    0.024274
  30 H :    0.029731
  31 H :    0.022891
  32 H :    0.036790
  33 H :    0.038338

  Mayer bond orders larger than 0.100000
B(  0-S ,  1-C ) :   1.1644 B(  0-S ,  4-C ) :   1.1557 B(  1-C ,  2-C ) :   1.6098
B(  1-C , 32-H ) :   0.9565 B(  2-C ,  3-C ) :   1.2492 B(  2-C ,  6-C ) :   1.0209
B(  3-C ,  4-C ) :   1.5731 B(  3-C ,  5-H ) :   0.9904 B(  4-C , 20-C ) :   1.0423
B(  6-C ,  7-H ) :   0.9457 B(  6-C ,  8-H ) :   0.9400 B(  6-C ,  9-C ) :   1.0684
B(  9-C , 10-H ) :   0.9585 B(  9-C , 11-H ) :   0.9580 B(  9-C , 12-C ) :   1.0616
B( 12-C , 13-H ) :   0.9722 B( 12-C , 14-H ) :   0.9762 B( 12-C , 15-H ) :   0.9704
B( 16-S , 17-C ) :   1.1823 B( 16-S , 20-C ) :   1.1602 B( 17-C , 18-C ) :   1.5486
B( 17-C , 20-C ) :   0.1085 B( 17-C , 33-H ) :   0.9627 B( 18-C , 19-C ) :   1.2987
B( 18-C , 21-H ) :   0.9829 B( 19-C , 20-C ) :   1.5317 B( 19-C , 22-C ) :   1.0583
B( 22-C , 23-H ) :   0.9216 B( 22-C , 24-H ) :   0.9264 B( 22-C , 25-C ) :   1.0780
B( 25-C , 26-H ) :   0.9498 B( 25-C , 27-H ) :   0.9495 B( 25-C , 28-C ) :   1.0795
B( 28-C , 29-H ) :   0.9740 B( 28-C , 30-H ) :   0.9707 B( 28-C , 31-H ) :   0.9733

Dispersion correction           -0.013910336
FINAL SINGLE POINT ENERGY     -1339.864146127787

DIPOLE MOMENT
-------------
                                X             Y             Z
Electronic contribution:     -7.89004     -19.36499      -4.07492
Nuclear contribution   :      8.17968      19.95453       4.29236
                        -----------------------------------------
Total Dipole Moment    :      0.28964       0.58954       0.21744
                        -----------------------------------------
Magnitude (a.u.)       :      0.69190
Magnitude (Debye)      :      1.75867

Rotational constants in cm-1:     0.024786     0.006999     0.005981
Rotational constants in MHz :   743.079670   209.835177   179.303950

                             ****ORCA TERMINATED NORMALLY****
TOTAL RUN TIME: 0 days 0 hours 0 minutes 21 seconds 294 msec
