                         Program Version 4.2.1 -  RELEASE  -
|  1> ! wB97X-D3 SP def2-SVP
|  2> %pal
|  3> nprocs 24
|  4> end
|  5>
|  6> * xyz 0 1
|  7> S 	 -28.0714 	 16.0703 	 7.53139
|  8> C 	 -29.8102 	 15.6593 	 7.50119
|  9> C 	 -30.3346 	 15.5768 	 8.78278
| 10> C 	 -29.3882 	 15.969 	 9.82285
| 11> C 	 -28.1443 	 16.3165 	 9.27334
| 12> H 	 -29.6201 	 16.1521 	 10.8997
| 13> C 	 -31.7858 	 15.3393 	 9.03477
| 14> H 	 -32.2539 	 15.4385 	 8.02044
| 15> H 	 -32.112 	 16.0909 	 9.77291
| 16> C 	 -32.046 	 13.958 	 9.65605
| 17> H 	 -31.8379 	 13.2017 	 8.86954
| 18> H 	 -31.3592 	 13.7234 	 10.4687
| 19> C 	 -33.487 	 13.6878 	 10.1327
| 20> H 	 -33.5938 	 14.0524 	 11.1276
| 21> H 	 -34.2517 	 14.231 	 9.56167
| 22> H 	 -33.7383 	 12.6751 	 10.2105
| 23> S 	 -25.5883 	 15.9575 	 10.2456
| 24> C 	 -24.7186 	 17.2894 	 10.9645
| 25> C 	 -25.4453 	 18.4456 	 10.8261
| 26> C 	 -26.7103 	 18.2679 	 10.1366
| 27> C 	 -27.0074 	 16.936 	 9.91595
| 28> H 	 -25.1016 	 19.4311 	 11.1214
| 29> C 	 -27.6856 	 19.4263 	 10.0895
| 30> H 	 -28.5453 	 19.0781 	 9.46579
| 31> H 	 -27.4238 	 20.3457 	 9.54488
| 32> C 	 -28.18 	 19.8354 	 11.5174
| 33> H 	 -27.2854 	 20.0921 	 12.1736
| 34> H 	 -28.6637 	 18.9327 	 11.9569
| 35> C 	 -29.2792 	 20.8711 	 11.4556
| 36> H 	 -28.9784 	 21.7003 	 10.862
| 37> H 	 -29.7133 	 21.1669 	 12.3951
| 38> H 	 -30.1245 	 20.5143 	 10.9783
| 39> H 	 -30.5061 	 15.8138 	 6.66499
| 40> H 	 -23.8439 	 17.3111 	 11.6105
| 41> *
| 42>
| 43>                          ****END OF INPUT****

CARTESIAN COORDINATES (ANGSTROEM)
---------------------------------
  S    -28.071400   16.070300    7.531390
  C    -29.810200   15.659300    7.501190
  C    -30.334600   15.576800    8.782780
  C    -29.388200   15.969000    9.822850
  C    -28.144300   16.316500    9.273340
  H    -29.620100   16.152100   10.899700
  C    -31.785800   15.339300    9.034770
  H    -32.253900   15.438500    8.020440
  H    -32.112000   16.090900    9.772910
  C    -32.046000   13.958000    9.656050
  H    -31.837900   13.201700    8.869540
  H    -31.359200   13.723400   10.468700
  C    -33.487000   13.687800   10.132700
  H    -33.593800   14.052400   11.127600
  H    -34.251700   14.231000    9.561670
  H    -33.738300   12.675100   10.210500
  S    -25.588300   15.957500   10.245600
  C    -24.718600   17.289400   10.964500
  C    -25.445300   18.445600   10.826100
  C    -26.710300   18.267900   10.136600
  C    -27.007400   16.936000    9.915950
  H    -25.101600   19.431100   11.121400
  C    -27.685600   19.426300   10.089500
  H    -28.545300   19.078100    9.465790
  H    -27.423800   20.345700    9.544880
  C    -28.180000   19.835400   11.517400
  H    -27.285400   20.092100   12.173600
  H    -28.663700   18.932700   11.956900
  C    -29.279200   20.871100   11.455600
  H    -28.978400   21.700300   10.862000
  H    -29.713300   21.166900   12.395100
  H    -30.124500   20.514300   10.978300
  H    -30.506100   15.813800    6.664990
  H    -23.843900   17.311100   11.610500

 Total Charge           Charge          ....    0
 Multiplicity           Mult            ....    1
 Number of Electrons    NEL             ....  134
 Basis Dimension        Dim             ....  322

ORBITAL ENERGIES
----------------

  NO   OCC          E(Eh)            E(eV)
   0   2.0000     -88.967245     -2420.9218
   1   2.0000     -88.964271     -2420.8409
   2   2.0000     -10.334342      -281.2117
   3   2.0000     -10.325827      -280.9800
   4   2.0000     -10.317306      -280.7482
   5   2.0000     -10.317177      -280.7447
   6   2.0000     -10.307334      -280.4768
   7   2.0000     -10.305011      -280.4136
   8   2.0000     -10.304308      -280.3945
   9   2.0000     -10.298152      -280.2270
  10   2.0000     -10.294475      -280.1269
  11   2.0000     -10.293637      -280.1041
  12   2.0000     -10.292407      -280.0706
  13   2.0000     -10.288587      -279.9667
  14   2.0000     -10.271772      -279.5091
  15   2.0000     -10.267129      -279.3828
  16   2.0000      -8.081206      -219.9008
  17   2.0000      -8.079083      -219.8430
  18   2.0000      -6.039845      -164.3525
  19   2.0000      -6.037806      -164.2971
  20   2.0000      -6.035863      -164.2442
  21   2.0000      -6.033482      -164.1794
  22   2.0000      -6.031811      -164.1339
  23   2.0000      -6.029689      -164.0762
  24   2.0000      -1.004602       -27.3366
  25   2.0000      -0.979801       -26.6617
  26   2.0000      -0.913405       -24.8550
  27   2.0000      -0.906943       -24.6792
  28   2.0000      -0.870172       -23.6786
  29   2.0000      -0.850319       -23.1384
  30   2.0000      -0.845247       -23.0003
  31   2.0000      -0.816430       -22.2162
  32   2.0000      -0.783122       -21.3098
  33   2.0000      -0.770249       -20.9595
  34   2.0000      -0.708983       -19.2924
  35   2.0000      -0.698169       -18.9981
  36   2.0000      -0.694600       -18.9010
  37   2.0000      -0.659458       -17.9448
  38   2.0000      -0.637844       -17.3566
  39   2.0000      -0.615630       -16.7521
  40   2.0000      -0.596412       -16.2292
  41   2.0000      -0.570750       -15.5309
  42   2.0000      -0.561083       -15.2679
  43   2.0000      -0.557936       -15.1822
  44   2.0000      -0.527205       -14.3460
  45   2.0000      -0.524503       -14.2724
  46   2.0000      -0.519249       -14.1295
  47   2.0000      -0.510464       -13.8904
  48   2.0000      -0.508348       -13.8329
  49   2.0000      -0.502954       -13.6861
  50   2.0000      -0.495042       -13.4708
  51   2.0000      -0.478420       -13.0185
  52   2.0000      -0.471327       -12.8255
  53   2.0000      -0.465249       -12.6601
  54   2.0000      -0.454801       -12.3758
  55   2.0000      -0.453172       -12.3314
  56   2.0000      -0.438578       -11.9343
  57   2.0000      -0.435967       -11.8633
  58   2.0000      -0.432855       -11.7786
  59   2.0000      -0.424467       -11.5503
  60   2.0000      -0.421636       -11.4733
  61   2.0000      -0.415939       -11.3183
  62   2.0000      -0.412427       -11.2227
  63   2.0000      -0.333977        -9.0880
  64   2.0000      -0.330233        -8.9861
  65   2.0000      -0.324318        -8.8251
  66   2.0000      -0.307055        -8.3554
  67   0.0000       0.038300         1.0422
  68   0.0000       0.049602         1.3497
  69   0.0000       0.111934         3.0459
  70   0.0000       0.117118         3.1870
  71   0.0000       0.118799         3.2327

MULLIKEN ATOMIC CHARGES
-----------------------
   0 S :    0.116888
   1 C :   -0.125820
   2 C :   -0.115918
   3 C :    0.042408
   4 C :   -0.171309
   5 H :    0.038241
   6 C :    0.069530
   7 H :    0.028545
   8 H :    0.031180
   9 C :   -0.107861
  10 H :    0.030690
  11 H :    0.034983
  12 C :   -0.005632
  13 H :    0.014285
  14 H :    0.027228
  15 H :    0.025041
  16 S :    0.109842
  17 C :   -0.073674
  18 C :   -0.046694
  19 C :    0.015638
  20 C :   -0.193807
  21 H :    0.020975
  22 C :    0.012940
  23 H :    0.030160
  24 H :    0.030599
  25 C :   -0.104352
  26 H :    0.043832
  27 H :    0.028349
  28 C :    0.024449
  29 H :    0.014604
  30 H :    0.025985
  31 H :    0.002027
  32 H :    0.064803
  33 H :    0.061844
Sum of atomic charges:    0.0000000

LOEWDIN ATOMIC CHARGES
----------------------
   0 S :    0.390114
   1 C :   -0.202203
   2 C :   -0.058309
   3 C :   -0.060595
   4 C :   -0.189012
   5 H :    0.041753
   6 C :   -0.033114
   7 H :    0.036397
   8 H :    0.032034
   9 C :   -0.042998
  10 H :    0.027333
  11 H :    0.024935
  12 C :   -0.063186
  13 H :    0.020637
  14 H :    0.027089
  15 H :    0.020862
  16 S :    0.405858
  17 C :   -0.190052
  18 C :   -0.069853
  19 C :   -0.051329
  20 C :   -0.209409
  21 H :    0.029034
  22 C :   -0.041089
  23 H :    0.033796
  24 H :    0.029717
  25 C :   -0.040705
  26 H :    0.028172
  27 H :    0.026477
  28 C :   -0.061598
  29 H :    0.020048
  30 H :    0.027405
  31 H :    0.018613
  32 H :    0.035465
  33 H :    0.037712

  Mayer bond orders larger than 0.100000
B(  0-S ,  1-C ) :   1.1138 B(  0-S ,  4-C ) :   1.1524 B(  1-C ,  2-C ) :   1.6574
B(  1-C , 32-H ) :   0.9555 B(  2-C ,  3-C ) :   1.1957 B(  2-C ,  6-C ) :   1.0384
B(  3-C ,  4-C ) :   1.6118 B(  3-C ,  5-H ) :   0.9833 B(  4-C , 20-C ) :   1.0170
B(  6-C ,  7-H ) :   0.9355 B(  6-C ,  8-H ) :   0.9397 B(  6-C ,  9-C ) :   1.0575
B(  9-C , 10-H ) :   0.9562 B(  9-C , 11-H ) :   0.9631 B(  9-C , 12-C ) :   1.0772
B( 12-C , 13-H ) :   0.9728 B( 12-C , 14-H ) :   0.9739 B( 12-C , 15-H ) :   0.9755
B( 16-S , 17-C ) :   1.1431 B( 16-S , 20-C ) :   1.1380 B( 17-C , 18-C ) :   1.6295
B( 17-C , 33-H ) :   0.9637 B( 18-C , 19-C ) :   1.2238 B( 18-C , 21-H ) :   0.9838
B( 19-C , 20-C ) :   1.6062 B( 19-C , 22-C ) :   1.0583 B( 22-C , 23-H ) :   0.9371
B( 22-C , 24-H ) :   0.9388 B( 22-C , 25-C ) :   1.0467 B( 25-C , 26-H ) :   0.9568
B( 25-C , 27-H ) :   0.9540 B( 25-C , 28-C ) :   1.0839 B( 28-C , 29-H ) :   0.9716
B( 28-C , 30-H ) :   0.9697 B( 28-C , 31-H ) :   0.9668

Dispersion correction           -0.013981361
FINAL SINGLE POINT ENERGY     -1339.870773802142

DIPOLE MOMENT
-------------
                                X             Y             Z
Electronic contribution:     25.21959      -7.62622     -10.16934
Nuclear contribution   :    -25.82980       8.08594      10.53837
                        -----------------------------------------
Total Dipole Moment    :     -0.61021       0.45972       0.36903
                        -----------------------------------------
Magnitude (a.u.)       :      0.84846
Magnitude (Debye)      :      2.15661

Rotational constants in cm-1:     0.018151     0.007941     0.006593
Rotational constants in MHz :   544.159988   238.055050   197.652891

                             ****ORCA TERMINATED NORMALLY****
TOTAL RUN TIME: 0 days 0 hours 0 minutes 21 seconds 203 msec
