                         Program Version 4.2.1 -  RELEASE  -
|  1> ! wB97X-D3 SP def2-SVP
|  2> %pal
|  3> nprocs 24
|  4> end
|  5>
|  6> * xyz 0 1
|  7> S 	 -90.0571 	 -1.6953 	 2.1207
|  8> C 	 -89.2354 	 -1.96238 	 3.65462
|  9> C 	 -88.699 	 -0.799722 	 4.1659
| 10> C 	 -88.8732 	 0.271399 	 3.23942
| 11> C 	 -89.4236 	 -0.0802085 	 1.99864
| 12> H 	 -88.5466 	 1.30166 	 3.41268
| 13> C 	 -88.0376 	 -0.685065 	 5.49246
| 14> H 	 -87.4014 	 0.246918 	 5.38556
| 15> H 	 -87.3918 	 -1.48101 	 5.69205
| 16> C 	 -88.9519 	 -0.306351 	 6.65997
| 17> H 	 -88.4287 	 -0.305319 	 7.62645
| 18> H 	 -89.4107 	 0.64781 	 6.50354
| 19> C 	 -90.2226 	 -1.10538 	 6.83176
| 20> H 	 -90.6723 	 -1.07696 	 7.77136
| 21> H 	 -91.0023 	 -0.762258 	 6.18538
| 22> H 	 -90.1085 	 -2.05867 	 6.39006
| 23> S 	 -91.3373 	 0.810862 	 0.317172
| 24> C 	 -90.9782 	 2.12691 	 -0.781936
| 25> C 	 -89.6776 	 2.65095 	 -0.581374
| 26> C 	 -88.9177 	 1.8622 	 0.334322
| 27> C 	 -89.7191 	 0.840884 	 0.929045
| 28> H 	 -89.4674 	 3.57159 	 -1.07224
| 29> C 	 -87.4656 	 2.18086 	 0.599819
| 30> H 	 -87.3471 	 2.36888 	 1.71387
| 31> H 	 -87.3453 	 3.18457 	 0.128476
| 32> C 	 -86.5434 	 1.04256 	 0.218463
| 33> H 	 -86.7259 	 0.983139 	 -0.83328
| 34> H 	 -86.7897 	 0.144073 	 0.723
| 35> C 	 -85.0611 	 1.32438 	 0.533104
| 36> H 	 -84.7996 	 2.27357 	 -0.0105565
| 37> H 	 -84.5099 	 0.409241 	 0.12941
| 38> H 	 -85.0398 	 1.39265 	 1.63156
| 39> H 	 -89.2842 	 -2.88456 	 4.37254
| 40> H 	 -91.7189 	 2.71759 	 -1.37017
| 41> *
| 42>
| 43>                          ****END OF INPUT****

CARTESIAN COORDINATES (ANGSTROEM)
---------------------------------
  S    -90.057100   -1.695300    2.120700
  C    -89.235400   -1.962380    3.654620
  C    -88.699000   -0.799722    4.165900
  C    -88.873200    0.271399    3.239420
  C    -89.423600   -0.080209    1.998640
  H    -88.546600    1.301660    3.412680
  C    -88.037600   -0.685065    5.492460
  H    -87.401400    0.246918    5.385560
  H    -87.391800   -1.481010    5.692050
  C    -88.951900   -0.306351    6.659970
  H    -88.428700   -0.305319    7.626450
  H    -89.410700    0.647810    6.503540
  C    -90.222600   -1.105380    6.831760
  H    -90.672300   -1.076960    7.771360
  H    -91.002300   -0.762258    6.185380
  H    -90.108500   -2.058670    6.390060
  S    -91.337300    0.810862    0.317172
  C    -90.978200    2.126910   -0.781936
  C    -89.677600    2.650950   -0.581374
  C    -88.917700    1.862200    0.334322
  C    -89.719100    0.840884    0.929045
  H    -89.467400    3.571590   -1.072240
  C    -87.465600    2.180860    0.599819
  H    -87.347100    2.368880    1.713870
  H    -87.345300    3.184570    0.128476
  C    -86.543400    1.042560    0.218463
  H    -86.725900    0.983139   -0.833280
  H    -86.789700    0.144073    0.723000
  C    -85.061100    1.324380    0.533104
  H    -84.799600    2.273570   -0.010556
  H    -84.509900    0.409241    0.129410
  H    -85.039800    1.392650    1.631560
  H    -89.284200   -2.884560    4.372540
  H    -91.718900    2.717590   -1.370170

 Total Charge           Charge          ....    0
 Multiplicity           Mult            ....    1
 Number of Electrons    NEL             ....  134
 Basis Dimension        Dim             ....  322

ORBITAL ENERGIES
----------------

  NO   OCC          E(Eh)            E(eV)
   0   2.0000     -88.972080     -2421.0534
   1   2.0000     -88.970722     -2421.0164
   2   2.0000     -10.331041      -281.1219
   3   2.0000     -10.328895      -281.0635
   4   2.0000     -10.321589      -280.8647
   5   2.0000     -10.321474      -280.8616
   6   2.0000     -10.307858      -280.4911
   7   2.0000     -10.300217      -280.2831
   8   2.0000     -10.296959      -280.1945
   9   2.0000     -10.296421      -280.1799
  10   2.0000     -10.295426      -280.1528
  11   2.0000     -10.293349      -280.0963
  12   2.0000     -10.286095      -279.8989
  13   2.0000     -10.282832      -279.8101
  14   2.0000     -10.275376      -279.6072
  15   2.0000     -10.259650      -279.1793
  16   2.0000      -8.086721      -220.0509
  17   2.0000      -8.085135      -220.0077
  18   2.0000      -6.045070      -164.4947
  19   2.0000      -6.043713      -164.4578
  20   2.0000      -6.041214      -164.3898
  21   2.0000      -6.039742      -164.3497
  22   2.0000      -6.037682      -164.2937
  23   2.0000      -6.035771      -164.2417
  24   2.0000      -1.008685       -27.4477
  25   2.0000      -0.983825       -26.7712
  26   2.0000      -0.919603       -25.0237
  27   2.0000      -0.912646       -24.8344
  28   2.0000      -0.870906       -23.6986
  29   2.0000      -0.852198       -23.1895
  30   2.0000      -0.849638       -23.1198
  31   2.0000      -0.810674       -22.0596
  32   2.0000      -0.788944       -21.4683
  33   2.0000      -0.768488       -20.9116
  34   2.0000      -0.709197       -19.2982
  35   2.0000      -0.698437       -19.0054
  36   2.0000      -0.685507       -18.6536
  37   2.0000      -0.663101       -18.0439
  38   2.0000      -0.631870       -17.1941
  39   2.0000      -0.622416       -16.9368
  40   2.0000      -0.588605       -16.0167
  41   2.0000      -0.575289       -15.6544
  42   2.0000      -0.570207       -15.5161
  43   2.0000      -0.552431       -15.0324
  44   2.0000      -0.550034       -14.9672
  45   2.0000      -0.526100       -14.3159
  46   2.0000      -0.519812       -14.1448
  47   2.0000      -0.506960       -13.7951
  48   2.0000      -0.501305       -13.6412
  49   2.0000      -0.498617       -13.5680
  50   2.0000      -0.492040       -13.3891
  51   2.0000      -0.484999       -13.1975
  52   2.0000      -0.472945       -12.8695
  53   2.0000      -0.463172       -12.6036
  54   2.0000      -0.460248       -12.5240
  55   2.0000      -0.450324       -12.2539
  56   2.0000      -0.442762       -12.0482
  57   2.0000      -0.440546       -11.9879
  58   2.0000      -0.432894       -11.7796
  59   2.0000      -0.420664       -11.4469
  60   2.0000      -0.418222       -11.3804
  61   2.0000      -0.416299       -11.3281
  62   2.0000      -0.403555       -10.9813
  63   2.0000      -0.348593        -9.4857
  64   2.0000      -0.333582        -9.0772
  65   2.0000      -0.331332        -9.0160
  66   2.0000      -0.284604        -7.7445
  67   0.0000       0.020480         0.5573
  68   0.0000       0.067463         1.8358
  69   0.0000       0.099269         2.7012
  70   0.0000       0.114870         3.1258
  71   0.0000       0.135641         3.6910

MULLIKEN ATOMIC CHARGES
-----------------------
   0 S :    0.113479
   1 C :   -0.148559
   2 C :   -0.103264
   3 C :    0.013744
   4 C :   -0.151516
   5 H :    0.015802
   6 C :    0.080715
   7 H :    0.029901
   8 H :    0.027203
   9 C :   -0.066496
  10 H :    0.038307
  11 H :    0.020649
  12 C :   -0.002355
  13 H :    0.026029
  14 H :    0.014301
  15 H :   -0.013289
  16 S :    0.122955
  17 C :   -0.115170
  18 C :   -0.051035
  19 C :   -0.038806
  20 C :   -0.154496
  21 H :    0.016197
  22 C :    0.054425
  23 H :    0.020493
  24 H :    0.023203
  25 C :   -0.069566
  26 H :    0.025273
  27 H :    0.040824
  28 C :   -0.057130
  29 H :    0.041242
  30 H :    0.054774
  31 H :    0.038310
  32 H :    0.083195
  33 H :    0.070664
Sum of atomic charges:    0.0000000

LOEWDIN ATOMIC CHARGES
----------------------
   0 S :    0.407739
   1 C :   -0.213381
   2 C :   -0.070619
   3 C :   -0.063109
   4 C :   -0.204352
   5 H :    0.029195
   6 C :   -0.029139
   7 H :    0.043704
   8 H :    0.025482
   9 C :   -0.039679
  10 H :    0.028045
  11 H :    0.024860
  12 C :   -0.065553
  13 H :    0.020712
  14 H :    0.025951
  15 H :    0.013011
  16 S :    0.426548
  17 C :   -0.201681
  18 C :   -0.068206
  19 C :   -0.053546
  20 C :   -0.207300
  21 H :    0.029105
  22 C :   -0.038708
  23 H :    0.028593
  24 H :    0.033188
  25 C :   -0.038882
  26 H :    0.021373
  27 H :    0.023992
  28 C :   -0.067610
  29 H :    0.029309
  30 H :    0.037493
  31 H :    0.026032
  32 H :    0.050393
  33 H :    0.037040

  Mayer bond orders larger than 0.100000
B(  0-S ,  1-C ) :   1.1342 B(  0-S ,  4-C ) :   1.1481 B(  1-C ,  2-C ) :   1.6010
B(  1-C , 32-H ) :   0.9472 B(  2-C ,  3-C ) :   1.2678 B(  2-C ,  6-C ) :   1.0232
B(  3-C ,  4-C ) :   1.5399 B(  3-C ,  5-H ) :   0.9855 B(  4-C , 20-C ) :   1.0809
B(  6-C ,  7-H ) :   0.9377 B(  6-C ,  8-H ) :   0.9441 B(  6-C ,  9-C ) :   1.0758
B(  9-C , 10-H ) :   0.9611 B(  9-C , 11-H ) :   0.9578 B(  9-C , 12-C ) :   1.0776
B( 12-C , 13-H ) :   0.9725 B( 12-C , 14-H ) :   0.9659 B( 12-C , 15-H ) :   0.9688
B( 16-S , 17-C ) :   1.1644 B( 16-S , 20-C ) :   1.1651 B( 17-C , 18-C ) :   1.5934
B( 17-C , 20-C ) :   0.1076 B( 17-C , 33-H ) :   0.9593 B( 18-C , 19-C ) :   1.2672
B( 18-C , 21-H ) :   0.9909 B( 19-C , 20-C ) :   1.5329 B( 19-C , 22-C ) :   1.0440
B( 22-C , 23-H ) :   0.9242 B( 22-C , 24-H ) :   0.9338 B( 22-C , 25-C ) :   1.0547
B( 25-C , 26-H ) :   0.9546 B( 25-C , 27-H ) :   0.9549 B( 25-C , 28-C ) :   1.0792
B( 28-C , 29-H ) :   0.9746 B( 28-C , 30-H ) :   0.9743 B( 28-C , 31-H ) :   0.9753

Dispersion correction           -0.014698541
FINAL SINGLE POINT ENERGY     -1339.853573269614

DIPOLE MOMENT
-------------
                                X             Y             Z
Electronic contribution:    -17.70960      -4.83221     -14.79058
Nuclear contribution   :     17.96197       5.27947      15.13580
                        -----------------------------------------
Total Dipole Moment    :      0.25237       0.44725       0.34521
                        -----------------------------------------
Magnitude (a.u.)       :      0.61879
Magnitude (Debye)      :      1.57283

Rotational constants in cm-1:     0.018643     0.008963     0.007124
Rotational constants in MHz :   558.913004   268.714308   213.584077

                             ****ORCA TERMINATED NORMALLY****
TOTAL RUN TIME: 0 days 0 hours 0 minutes 22 seconds 41 msec
