                         Program Version 4.2.1 -  RELEASE  -
|  1> ! wB97X-D3 SP def2-SVP
|  2> %pal
|  3> nprocs 24
|  4> end
|  5>
|  6> * xyz 0 1
|  7> S 	 -122.734 	 50.2272 	 -28.3178
|  8> C 	 -122.899 	 48.8381 	 -29.378
|  9> C 	 -122.494 	 49.0797 	 -30.6743
| 10> C 	 -121.963 	 50.4148 	 -30.849
| 11> C 	 -121.888 	 51.1167 	 -29.6237
| 12> H 	 -121.768 	 50.8616 	 -31.769
| 13> C 	 -122.647 	 48.0988 	 -31.8444
| 14> H 	 -122.628 	 47.1535 	 -31.4009
| 15> H 	 -121.817 	 48.0286 	 -32.5655
| 16> C 	 -123.92 	 48.2181 	 -32.6287
| 17> H 	 -124 	 49.151 	 -33.1352
| 18> H 	 -123.903 	 47.5008 	 -33.3683
| 19> C 	 -125.1 	 47.9873 	 -31.5783
| 20> H 	 -125.256 	 48.8185 	 -30.8857
| 21> H 	 -126.009 	 48.0028 	 -32.1393
| 22> H 	 -125.035 	 47.0535 	 -30.9541
| 23> S 	 -119.728 	 52.8032 	 -29.3817
| 24> C 	 -120.068 	 54.4846 	 -28.9209
| 25> C 	 -121.384 	 54.7603 	 -28.9172
| 26> C 	 -122.192 	 53.653 	 -29.2533
| 27> C 	 -121.482 	 52.4899 	 -29.4787
| 28> H 	 -121.805 	 55.8067 	 -28.6768
| 29> C 	 -123.798 	 53.7853 	 -29.2509
| 30> H 	 -124.053 	 54.0934 	 -28.2346
| 31> H 	 -124.326 	 52.8297 	 -29.423
| 32> C 	 -124.169 	 54.8898 	 -30.2821
| 33> H 	 -123.557 	 55.749 	 -30.0831
| 34> H 	 -125.167 	 55.3103 	 -30.1384
| 35> C 	 -123.79 	 54.5772 	 -31.7402
| 36> H 	 -124.45 	 53.8652 	 -32.2692
| 37> H 	 -122.726 	 54.3177 	 -31.7869
| 38> H 	 -123.945 	 55.4803 	 -32.3106
| 39> H 	 -123.11 	 47.8114 	 -29.1914
| 40> H 	 -119.416 	 55.2551 	 -28.5911
| 41> *
| 42>
| 43>                          ****END OF INPUT****

CARTESIAN COORDINATES (ANGSTROEM)
---------------------------------
  S    -122.734000   50.227200  -28.317800
  C    -122.899000   48.838100  -29.378000
  C    -122.494000   49.079700  -30.674300
  C    -121.963000   50.414800  -30.849000
  C    -121.888000   51.116700  -29.623700
  H    -121.768000   50.861600  -31.769000
  C    -122.647000   48.098800  -31.844400
  H    -122.628000   47.153500  -31.400900
  H    -121.817000   48.028600  -32.565500
  C    -123.920000   48.218100  -32.628700
  H    -124.000000   49.151000  -33.135200
  H    -123.903000   47.500800  -33.368300
  C    -125.100000   47.987300  -31.578300
  H    -125.256000   48.818500  -30.885700
  H    -126.009000   48.002800  -32.139300
  H    -125.035000   47.053500  -30.954100
  S    -119.728000   52.803200  -29.381700
  C    -120.068000   54.484600  -28.920900
  C    -121.384000   54.760300  -28.917200
  C    -122.192000   53.653000  -29.253300
  C    -121.482000   52.489900  -29.478700
  H    -121.805000   55.806700  -28.676800
  C    -123.798000   53.785300  -29.250900
  H    -124.053000   54.093400  -28.234600
  H    -124.326000   52.829700  -29.423000
  C    -124.169000   54.889800  -30.282100
  H    -123.557000   55.749000  -30.083100
  H    -125.167000   55.310300  -30.138400
  C    -123.790000   54.577200  -31.740200
  H    -124.450000   53.865200  -32.269200
  H    -122.726000   54.317700  -31.786900
  H    -123.945000   55.480300  -32.310600
  H    -123.110000   47.811400  -29.191400
  H    -119.416000   55.255100  -28.591100

 Total Charge           Charge          ....    0
 Multiplicity           Mult            ....    1
 Number of Electrons    NEL             ....  134
 Basis Dimension        Dim             ....  322

ORBITAL ENERGIES
----------------

  NO   OCC          E(Eh)            E(eV)
   0   2.0000     -88.972037     -2421.0522
   1   2.0000     -88.964829     -2420.8561
   2   2.0000     -10.332290      -281.1559
   3   2.0000     -10.324332      -280.9394
   4   2.0000     -10.313894      -280.6553
   5   2.0000     -10.311727      -280.5964
   6   2.0000     -10.305078      -280.4154
   7   2.0000     -10.299978      -280.2767
   8   2.0000     -10.299621      -280.2669
   9   2.0000     -10.294989      -280.1409
  10   2.0000     -10.294952      -280.1399
  11   2.0000     -10.285649      -279.8867
  12   2.0000     -10.284837      -279.8646
  13   2.0000     -10.281686      -279.7789
  14   2.0000     -10.278229      -279.6848
  15   2.0000     -10.274345      -279.5791
  16   2.0000      -8.085291      -220.0120
  17   2.0000      -8.078737      -219.8336
  18   2.0000      -6.043983      -164.4652
  19   2.0000      -6.040069      -164.3586
  20   2.0000      -6.037415      -164.2864
  21   2.0000      -6.035879      -164.2446
  22   2.0000      -6.033464      -164.1789
  23   2.0000      -6.029242      -164.0640
  24   2.0000      -1.000602       -27.2278
  25   2.0000      -0.978885       -26.6368
  26   2.0000      -0.914614       -24.8879
  27   2.0000      -0.899585       -24.4790
  28   2.0000      -0.869687       -23.6654
  29   2.0000      -0.842561       -22.9273
  30   2.0000      -0.838443       -22.8152
  31   2.0000      -0.810311       -22.0497
  32   2.0000      -0.782379       -21.2896
  33   2.0000      -0.774472       -21.0745
  34   2.0000      -0.716006       -19.4835
  35   2.0000      -0.700761       -19.0687
  36   2.0000      -0.692646       -18.8479
  37   2.0000      -0.655249       -17.8302
  38   2.0000      -0.637789       -17.3551
  39   2.0000      -0.615406       -16.7460
  40   2.0000      -0.594451       -16.1758
  41   2.0000      -0.570026       -15.5112
  42   2.0000      -0.552335       -15.0298
  43   2.0000      -0.548376       -14.9221
  44   2.0000      -0.543040       -14.7769
  45   2.0000      -0.531241       -14.4558
  46   2.0000      -0.513278       -13.9670
  47   2.0000      -0.510470       -13.8906
  48   2.0000      -0.501479       -13.6459
  49   2.0000      -0.488471       -13.2920
  50   2.0000      -0.485197       -13.2029
  51   2.0000      -0.476010       -12.9529
  52   2.0000      -0.465530       -12.6677
  53   2.0000      -0.457497       -12.4491
  54   2.0000      -0.456693       -12.4273
  55   2.0000      -0.453038       -12.3278
  56   2.0000      -0.447130       -12.1670
  57   2.0000      -0.438840       -11.9414
  58   2.0000      -0.433618       -11.7993
  59   2.0000      -0.426496       -11.6056
  60   2.0000      -0.419036       -11.4026
  61   2.0000      -0.412765       -11.2319
  62   2.0000      -0.408579       -11.1180
  63   2.0000      -0.338394        -9.2082
  64   2.0000      -0.335085        -9.1181
  65   2.0000      -0.324377        -8.8268
  66   2.0000      -0.300395        -8.1742
  67   0.0000       0.037861         1.0303
  68   0.0000       0.051800         1.4096
  69   0.0000       0.106639         2.9018
  70   0.0000       0.113384         3.0853
  71   0.0000       0.127226         3.4620

MULLIKEN ATOMIC CHARGES
-----------------------
   0 S :    0.127766
   1 C :   -0.083625
   2 C :   -0.121713
   3 C :    0.068695
   4 C :   -0.162313
   5 H :   -0.002858
   6 C :    0.074471
   7 H :   -0.004706
   8 H :    0.024602
   9 C :    0.000790
  10 H :    0.022928
  11 H :    0.012730
  12 C :   -0.090305
  13 H :    0.050764
  14 H :    0.020760
  15 H :    0.036961
  16 S :    0.107165
  17 C :   -0.061789
  18 C :   -0.077185
  19 C :   -0.048303
  20 C :   -0.197648
  21 H :    0.053541
  22 C :    0.105240
  23 H :    0.031487
  24 H :    0.036886
  25 C :   -0.088782
  26 H :    0.009639
  27 H :    0.026605
  28 C :   -0.046657
  29 H :    0.032258
  30 H :    0.051748
  31 H :    0.022464
  32 H :    0.028077
  33 H :    0.040304
Sum of atomic charges:   -0.0000000

LOEWDIN ATOMIC CHARGES
----------------------
   0 S :    0.397080
   1 C :   -0.194842
   2 C :   -0.056321
   3 C :   -0.038362
   4 C :   -0.186606
   5 H :    0.022004
   6 C :   -0.031562
   7 H :    0.019375
   8 H :    0.029617
   9 C :   -0.021266
  10 H :    0.021706
  11 H :    0.015092
  12 C :   -0.069533
  13 H :    0.028574
  14 H :    0.018610
  15 H :    0.028479
  16 S :    0.382743
  17 C :   -0.172083
  18 C :   -0.085699
  19 C :   -0.055278
  20 C :   -0.199409
  21 H :    0.046897
  22 C :   -0.020452
  23 H :    0.030257
  24 H :    0.028353
  25 C :   -0.046237
  26 H :    0.018984
  27 H :    0.023077
  28 C :   -0.065511
  29 H :    0.023779
  30 H :    0.030936
  31 H :    0.024642
  32 H :    0.025047
  33 H :    0.027907

  Mayer bond orders larger than 0.100000
B(  0-S ,  1-C ) :   1.1279 B(  0-S ,  4-C ) :   1.1243 B(  1-C ,  2-C ) :   1.6443
B(  1-C , 32-H ) :   0.9559 B(  2-C ,  3-C ) :   1.2299 B(  2-C ,  6-C ) :   1.0205
B(  3-C ,  4-C ) :   1.5827 B(  3-C ,  5-H ) :   0.9997 B(  4-C , 20-C ) :   1.0389
B(  6-C ,  7-H ) :   0.9341 B(  6-C ,  8-H ) :   0.9451 B(  6-C ,  9-C ) :   1.0816
B(  9-C , 10-H ) :   0.9543 B(  9-C , 11-H ) :   0.9539 B(  9-C , 12-C ) :   1.0658
B( 12-C , 13-H ) :   0.9725 B( 12-C , 14-H ) :   0.9735 B( 12-C , 15-H ) :   0.9776
B( 16-S , 17-C ) :   1.1321 B( 16-S , 20-C ) :   1.1223 B( 17-C , 18-C ) :   1.6630
B( 17-C , 33-H ) :   0.9629 B( 18-C , 19-C ) :   1.2253 B( 18-C , 21-H ) :   0.9650
B( 19-C , 20-C ) :   1.6321 B( 19-C , 22-C ) :   1.0088 B( 22-C , 23-H ) :   0.9431
B( 22-C , 24-H ) :   0.9477 B( 22-C , 25-C ) :   1.0577 B( 25-C , 26-H ) :   0.9575
B( 25-C , 27-H ) :   0.9564 B( 25-C , 28-C ) :   1.0738 B( 28-C , 29-H ) :   0.9769
B( 28-C , 30-H ) :   0.9709 B( 28-C , 31-H ) :   0.9718

Dispersion correction           -0.015406233
FINAL SINGLE POINT ENERGY     -1339.857568881486

DIPOLE MOMENT
-------------
                                X             Y             Z
Electronic contribution:     18.50688       1.25120      15.82727
Nuclear contribution   :    -18.92907      -1.11373     -16.18610
                        -----------------------------------------
Total Dipole Moment    :     -0.42219       0.13747      -0.35883
                        -----------------------------------------
Magnitude (a.u.)       :      0.57088
Magnitude (Debye)      :      1.45106

Rotational constants in cm-1:     0.020733     0.008549     0.007370
Rotational constants in MHz :   621.557698   256.290042   220.941513

                             ****ORCA TERMINATED NORMALLY****
TOTAL RUN TIME: 0 days 0 hours 0 minutes 22 seconds 215 msec
