                         Program Version 4.2.1 -  RELEASE  -
|  1> ! wB97X-D3 SP def2-SVP
|  2> %pal
|  3> nprocs 24
|  4> end
|  5>
|  6> * xyz 0 1
|  7> S 	 -89.7921 	 51.44 	 -95.7639
|  8> C 	 -90.6075 	 50.5627 	 -94.3934
|  9> C 	 -91.9288 	 50.3411 	 -94.7677
| 10> C 	 -92.291 	 50.8713 	 -96.0525
| 11> C 	 -91.2958 	 51.5416 	 -96.6801
| 12> H 	 -93.2549 	 50.6363 	 -96.4337
| 13> C 	 -92.8484 	 49.4682 	 -93.9318
| 14> H 	 -92.2296 	 49.1723 	 -93.0966
| 15> H 	 -93.0177 	 48.7742 	 -94.7259
| 16> C 	 -94.0955 	 50.2619 	 -93.3255
| 17> H 	 -93.8014 	 50.7773 	 -92.45
| 18> H 	 -94.391 	 51.0399 	 -94.0265
| 19> C 	 -95.2624 	 49.3277 	 -92.9599
| 20> H 	 -95.5633 	 48.8747 	 -93.8671
| 21> H 	 -94.9797 	 48.5589 	 -92.2282
| 22> H 	 -96.0354 	 49.9667 	 -92.4703
| 23> S 	 -89.9165 	 51.3082 	 -99.1245
| 24> C 	 -90.7336 	 51.943 	 -100.564
| 25> C 	 -91.905 	 52.5225 	 -100.277
| 26> C 	 -92.267 	 52.5406 	 -98.8902
| 27> C 	 -91.2054 	 51.9605 	 -98.0957
| 28> H 	 -92.4632 	 52.9076 	 -101.153
| 29> C 	 -93.623 	 52.7583 	 -98.3261
| 30> H 	 -93.4836 	 52.6446 	 -97.2022
| 31> H 	 -94.2965 	 51.9207 	 -98.5632
| 32> C 	 -94.2302 	 54.1802 	 -98.5324
| 33> H 	 -94.4049 	 54.381 	 -99.5387
| 34> H 	 -93.4289 	 54.895 	 -98.225
| 35> C 	 -95.598 	 54.2838 	 -97.7891
| 36> H 	 -96.2698 	 53.593 	 -98.257
| 37> H 	 -96.1525 	 55.2657 	 -97.7123
| 38> H 	 -95.4871 	 54.0333 	 -96.7371
| 39> H 	 -90.054 	 50.2318 	 -93.4759
| 40> H 	 -90.2813 	 51.8672 	 -101.5
| 41> *
| 42>
| 43>                          ****END OF INPUT****

CARTESIAN COORDINATES (ANGSTROEM)
---------------------------------
  S    -89.792100   51.440000  -95.763900
  C    -90.607500   50.562700  -94.393400
  C    -91.928800   50.341100  -94.767700
  C    -92.291000   50.871300  -96.052500
  C    -91.295800   51.541600  -96.680100
  H    -93.254900   50.636300  -96.433700
  C    -92.848400   49.468200  -93.931800
  H    -92.229600   49.172300  -93.096600
  H    -93.017700   48.774200  -94.725900
  C    -94.095500   50.261900  -93.325500
  H    -93.801400   50.777300  -92.450000
  H    -94.391000   51.039900  -94.026500
  C    -95.262400   49.327700  -92.959900
  H    -95.563300   48.874700  -93.867100
  H    -94.979700   48.558900  -92.228200
  H    -96.035400   49.966700  -92.470300
  S    -89.916500   51.308200  -99.124500
  C    -90.733600   51.943000  -100.564000
  C    -91.905000   52.522500  -100.277000
  C    -92.267000   52.540600  -98.890200
  C    -91.205400   51.960500  -98.095700
  H    -92.463200   52.907600  -101.153000
  C    -93.623000   52.758300  -98.326100
  H    -93.483600   52.644600  -97.202200
  H    -94.296500   51.920700  -98.563200
  C    -94.230200   54.180200  -98.532400
  H    -94.404900   54.381000  -99.538700
  H    -93.428900   54.895000  -98.225000
  C    -95.598000   54.283800  -97.789100
  H    -96.269800   53.593000  -98.257000
  H    -96.152500   55.265700  -97.712300
  H    -95.487100   54.033300  -96.737100
  H    -90.054000   50.231800  -93.475900
  H    -90.281300   51.867200  -101.500000

 Total Charge           Charge          ....    0
 Multiplicity           Mult            ....    1
 Number of Electrons    NEL             ....  134
 Basis Dimension        Dim             ....  322

ORBITAL ENERGIES
----------------

  NO   OCC          E(Eh)            E(eV)
   0   2.0000     -88.966573     -2420.9035
   1   2.0000     -88.961102     -2420.7547
   2   2.0000     -10.334728      -281.2223
   3   2.0000     -10.334118      -281.2056
   4   2.0000     -10.322804      -280.8978
   5   2.0000     -10.312105      -280.6066
   6   2.0000     -10.308917      -280.5199
   7   2.0000     -10.302804      -280.3535
   8   2.0000     -10.295483      -280.1543
   9   2.0000     -10.294798      -280.1357
  10   2.0000     -10.293949      -280.1126
  11   2.0000     -10.293669      -280.1050
  12   2.0000     -10.288849      -279.9738
  13   2.0000     -10.287997      -279.9506
  14   2.0000     -10.281568      -279.7757
  15   2.0000     -10.280558      -279.7482
  16   2.0000      -8.080573      -219.8836
  17   2.0000      -8.074989      -219.7316
  18   2.0000      -6.039147      -164.3336
  19   2.0000      -6.035250      -164.2275
  20   2.0000      -6.033691      -164.1851
  21   2.0000      -6.031230      -164.1181
  22   2.0000      -6.029651      -164.0751
  23   2.0000      -6.025546      -163.9635
  24   2.0000      -1.001604       -27.2550
  25   2.0000      -0.978762       -26.6335
  26   2.0000      -0.909310       -24.7436
  27   2.0000      -0.905857       -24.6496
  28   2.0000      -0.868760       -23.6402
  29   2.0000      -0.849962       -23.1286
  30   2.0000      -0.842895       -22.9363
  31   2.0000      -0.820687       -22.3320
  32   2.0000      -0.779896       -21.2220
  33   2.0000      -0.764295       -20.7975
  34   2.0000      -0.710767       -19.3410
  35   2.0000      -0.704977       -19.1834
  36   2.0000      -0.700113       -19.0510
  37   2.0000      -0.649215       -17.6660
  38   2.0000      -0.636724       -17.3261
  39   2.0000      -0.630391       -17.1538
  40   2.0000      -0.598445       -16.2845
  41   2.0000      -0.569211       -15.4890
  42   2.0000      -0.566542       -15.4164
  43   2.0000      -0.555159       -15.1066
  44   2.0000      -0.532765       -14.4973
  45   2.0000      -0.525614       -14.3027
  46   2.0000      -0.519606       -14.1392
  47   2.0000      -0.513344       -13.9688
  48   2.0000      -0.502907       -13.6848
  49   2.0000      -0.500671       -13.6239
  50   2.0000      -0.488517       -13.2932
  51   2.0000      -0.478338       -13.0162
  52   2.0000      -0.471787       -12.8380
  53   2.0000      -0.459356       -12.4997
  54   2.0000      -0.456188       -12.4135
  55   2.0000      -0.448911       -12.2155
  56   2.0000      -0.447768       -12.1844
  57   2.0000      -0.440322       -11.9818
  58   2.0000      -0.432725       -11.7750
  59   2.0000      -0.425943       -11.5905
  60   2.0000      -0.424690       -11.5564
  61   2.0000      -0.415770       -11.3137
  62   2.0000      -0.403428       -10.9778
  63   2.0000      -0.354015        -9.6332
  64   2.0000      -0.329742        -8.9727
  65   2.0000      -0.325479        -8.8567
  66   2.0000      -0.290767        -7.9122
  67   0.0000       0.023001         0.6259
  68   0.0000       0.073040         1.9875
  69   0.0000       0.105235         2.8636
  70   0.0000       0.114916         3.1270
  71   0.0000       0.125539         3.4161

MULLIKEN ATOMIC CHARGES
-----------------------
   0 S :    0.069221
   1 C :   -0.151240
   2 C :   -0.132833
   3 C :    0.040038
   4 C :   -0.122658
   5 H :    0.001320
   6 C :    0.080884
   7 H :    0.020958
   8 H :    0.041772
   9 C :   -0.074212
  10 H :    0.020415
  11 H :    0.028707
  12 C :   -0.039037
  13 H :    0.027583
  14 H :    0.036242
  15 H :    0.042010
  16 S :    0.096779
  17 C :   -0.082628
  18 C :   -0.019227
  19 C :   -0.032335
  20 C :   -0.115656
  21 H :    0.031608
  22 C :   -0.025493
  23 H :    0.042126
  24 H :    0.046829
  25 C :   -0.040467
  26 H :    0.017473
  27 H :    0.042205
  28 C :   -0.057455
  29 H :    0.026101
  30 H :    0.043534
  31 H :    0.025905
  32 H :    0.074758
  33 H :    0.036771
Sum of atomic charges:   -0.0000000

LOEWDIN ATOMIC CHARGES
----------------------
   0 S :    0.361640
   1 C :   -0.191384
   2 C :   -0.060133
   3 C :   -0.068722
   4 C :   -0.177548
   5 H :    0.026360
   6 C :   -0.025475
   7 H :    0.031157
   8 H :    0.034715
   9 C :   -0.033548
  10 H :    0.019422
  11 H :    0.021220
  12 C :   -0.061938
  13 H :    0.017950
  14 H :    0.027044
  15 H :    0.032303
  16 S :    0.386319
  17 C :   -0.164446
  18 C :   -0.073850
  19 C :   -0.055177
  20 C :   -0.190429
  21 H :    0.040600
  22 C :   -0.044582
  23 H :    0.041228
  24 H :    0.032425
  25 C :   -0.033743
  26 H :    0.011150
  27 H :    0.032813
  28 C :   -0.071324
  29 H :    0.022103
  30 H :    0.033112
  31 H :    0.022494
  32 H :    0.040725
  33 H :    0.017518

  Mayer bond orders larger than 0.100000
B(  0-S ,  1-C ) :   1.1065 B(  0-S ,  4-C ) :   1.1455 B(  1-C ,  2-C ) :   1.6279
B(  1-C , 32-H ) :   0.9640 B(  2-C ,  3-C ) :   1.2358 B(  2-C ,  6-C ) :   1.0003
B(  3-C ,  4-C ) :   1.5576 B(  3-C ,  5-H ) :   0.9928 B(  4-C , 20-C ) :   1.0309
B(  6-C ,  7-H ) :   0.9405 B(  6-C ,  8-H ) :   0.9475 B(  6-C ,  9-C ) :   1.0489
B(  9-C , 10-H ) :   0.9550 B(  9-C , 11-H ) :   0.9659 B(  9-C , 12-C ) :   1.0769
B( 12-C , 13-H ) :   0.9808 B( 12-C , 14-H ) :   0.9749 B( 12-C , 15-H ) :   0.9738
B( 16-S , 17-C ) :   1.1339 B( 16-S , 20-C ) :   1.1478 B( 17-C , 18-C ) :   1.6401
B( 17-C , 33-H ) :   0.9745 B( 18-C , 19-C ) :   1.2172 B( 18-C , 21-H ) :   0.9866
B( 19-C , 20-C ) :   1.5660 B( 19-C , 22-C ) :   1.0618 B( 22-C , 23-H ) :   0.9261
B( 22-C , 24-H ) :   0.9354 B( 22-C , 25-C ) :   1.0402 B( 25-C , 26-H ) :   0.9616
B( 25-C , 27-H ) :   0.9584 B( 25-C , 28-C ) :   1.0674 B( 28-C , 29-H ) :   0.9741
B( 28-C , 30-H ) :   0.9762 B( 28-C , 31-H ) :   0.9781

Dispersion correction           -0.013621919
FINAL SINGLE POINT ENERGY     -1339.859722896445

DIPOLE MOMENT
-------------
                                X             Y             Z
Electronic contribution:     29.89613      -1.75881     -11.60531
Nuclear contribution   :    -30.62801       1.49892      11.66327
                        -----------------------------------------
Total Dipole Moment    :     -0.73188      -0.25989       0.05797
                        -----------------------------------------
Magnitude (a.u.)       :      0.77882
Magnitude (Debye)      :      1.97959

Rotational constants in cm-1:     0.016013     0.009193     0.006421
Rotational constants in MHz :   480.069006   275.598771   192.486529

                             ****ORCA TERMINATED NORMALLY****
TOTAL RUN TIME: 0 days 0 hours 0 minutes 21 seconds 263 msec
