                         Program Version 4.2.1 -  RELEASE  -
|  1> ! wB97X-D3 SP def2-SVP
|  2> %pal
|  3> nprocs 24
|  4> end
|  5>
|  6> * xyz 0 1
|  7> S 	 -81.7596 	 -15.636 	 -53.3065
|  8> C 	 -83.3941 	 -15.0852 	 -52.9789
|  9> C 	 -84.1617 	 -16.1181 	 -52.4805
| 10> C 	 -83.4328 	 -17.324 	 -52.2605
| 11> C 	 -82.1095 	 -17.1804 	 -52.6003
| 12> H 	 -83.7325 	 -18.2852 	 -51.9141
| 13> C 	 -85.6148 	 -16.0409 	 -52.1011
| 14> H 	 -86.1035 	 -16.7252 	 -52.8001
| 15> H 	 -86.048 	 -15.0166 	 -52.3266
| 16> C 	 -85.8561 	 -16.3828 	 -50.6578
| 17> H 	 -85.4976 	 -17.3335 	 -50.3268
| 18> H 	 -85.5057 	 -15.6286 	 -49.984
| 19> C 	 -87.4441 	 -16.4771 	 -50.4933
| 20> H 	 -87.7861 	 -17.3156 	 -51.067
| 21> H 	 -87.8307 	 -16.7225 	 -49.5056
| 22> H 	 -87.9891 	 -15.5799 	 -50.7628
| 23> S 	 -80.5336 	 -18.4294 	 -50.7682
| 24> C 	 -79.4215 	 -19.5506 	 -51.3019
| 25> C 	 -79.4155 	 -19.7229 	 -52.6595
| 26> C 	 -80.3002 	 -18.8292 	 -53.3033
| 27> C 	 -81.0538 	 -18.1283 	 -52.4278
| 28> H 	 -78.7295 	 -20.4315 	 -53.2147
| 29> C 	 -80.3094 	 -18.6702 	 -54.8298
| 30> H 	 -80.7584 	 -17.7119 	 -55.0975
| 31> H 	 -81.1066 	 -19.3467 	 -55.167
| 32> C 	 -79.0508 	 -18.7889 	 -55.5633
| 33> H 	 -78.6084 	 -19.7225 	 -55.2546
| 34> H 	 -78.3928 	 -17.9476 	 -55.3379
| 35> C 	 -79.1893 	 -18.5694 	 -57.131
| 36> H 	 -78.3322 	 -19.1259 	 -57.583
| 37> H 	 -79.2324 	 -17.4866 	 -57.3932
| 38> H 	 -80.1904 	 -18.9601 	 -57.4068
| 39> H 	 -83.6999 	 -14.1164 	 -53.1259
| 40> H 	 -78.7526 	 -20.0665 	 -50.6147
| 41> *
| 42>
| 43>                          ****END OF INPUT****

CARTESIAN COORDINATES (ANGSTROEM)
---------------------------------
  S    -81.759600  -15.636000  -53.306500
  C    -83.394100  -15.085200  -52.978900
  C    -84.161700  -16.118100  -52.480500
  C    -83.432800  -17.324000  -52.260500
  C    -82.109500  -17.180400  -52.600300
  H    -83.732500  -18.285200  -51.914100
  C    -85.614800  -16.040900  -52.101100
  H    -86.103500  -16.725200  -52.800100
  H    -86.048000  -15.016600  -52.326600
  C    -85.856100  -16.382800  -50.657800
  H    -85.497600  -17.333500  -50.326800
  H    -85.505700  -15.628600  -49.984000
  C    -87.444100  -16.477100  -50.493300
  H    -87.786100  -17.315600  -51.067000
  H    -87.830700  -16.722500  -49.505600
  H    -87.989100  -15.579900  -50.762800
  S    -80.533600  -18.429400  -50.768200
  C    -79.421500  -19.550600  -51.301900
  C    -79.415500  -19.722900  -52.659500
  C    -80.300200  -18.829200  -53.303300
  C    -81.053800  -18.128300  -52.427800
  H    -78.729500  -20.431500  -53.214700
  C    -80.309400  -18.670200  -54.829800
  H    -80.758400  -17.711900  -55.097500
  H    -81.106600  -19.346700  -55.167000
  C    -79.050800  -18.788900  -55.563300
  H    -78.608400  -19.722500  -55.254600
  H    -78.392800  -17.947600  -55.337900
  C    -79.189300  -18.569400  -57.131000
  H    -78.332200  -19.125900  -57.583000
  H    -79.232400  -17.486600  -57.393200
  H    -80.190400  -18.960100  -57.406800
  H    -83.699900  -14.116400  -53.125900
  H    -78.752600  -20.066500  -50.614700

 Total Charge           Charge          ....    0
 Multiplicity           Mult            ....    1
 Number of Electrons    NEL             ....  134
 Basis Dimension        Dim             ....  322

ORBITAL ENERGIES
----------------

  NO   OCC          E(Eh)            E(eV)
   0   2.0000     -88.962648     -2420.7967
   1   2.0000     -88.961931     -2420.7772
   2   2.0000     -10.321072      -280.8506
   3   2.0000     -10.314364      -280.6681
   4   2.0000     -10.309836      -280.5449
   5   2.0000     -10.305749      -280.4337
   6   2.0000     -10.298532      -280.2373
   7   2.0000     -10.296967      -280.1947
   8   2.0000     -10.293614      -280.1035
   9   2.0000     -10.291719      -280.0519
  10   2.0000     -10.289036      -279.9789
  11   2.0000     -10.288757      -279.9713
  12   2.0000     -10.285954      -279.8951
  13   2.0000     -10.284779      -279.8631
  14   2.0000     -10.282151      -279.7916
  15   2.0000     -10.274790      -279.5913
  16   2.0000      -8.079085      -219.8431
  17   2.0000      -8.076825      -219.7816
  18   2.0000      -6.037306      -164.2835
  19   2.0000      -6.035285      -164.2285
  20   2.0000      -6.033436      -164.1781
  21   2.0000      -6.031282      -164.1195
  22   2.0000      -6.029954      -164.0834
  23   2.0000      -6.027684      -164.0216
  24   2.0000      -1.015106       -27.6224
  25   2.0000      -0.989832       -26.9347
  26   2.0000      -0.915543       -24.9132
  27   2.0000      -0.913616       -24.8608
  28   2.0000      -0.871564       -23.7165
  29   2.0000      -0.851662       -23.1749
  30   2.0000      -0.845042       -22.9948
  31   2.0000      -0.811243       -22.0751
  32   2.0000      -0.781668       -21.2703
  33   2.0000      -0.770273       -20.9602
  34   2.0000      -0.710316       -19.3287
  35   2.0000      -0.702632       -19.1196
  36   2.0000      -0.695336       -18.9210
  37   2.0000      -0.659110       -17.9353
  38   2.0000      -0.645215       -17.5572
  39   2.0000      -0.617850       -16.8126
  40   2.0000      -0.605584       -16.4788
  41   2.0000      -0.569506       -15.4970
  42   2.0000      -0.566799       -15.4234
  43   2.0000      -0.560934       -15.2638
  44   2.0000      -0.529755       -14.4154
  45   2.0000      -0.524784       -14.2801
  46   2.0000      -0.514694       -14.0055
  47   2.0000      -0.511288       -13.9129
  48   2.0000      -0.507480       -13.8092
  49   2.0000      -0.502617       -13.6769
  50   2.0000      -0.486115       -13.2279
  51   2.0000      -0.479477       -13.0472
  52   2.0000      -0.468355       -12.7446
  53   2.0000      -0.466429       -12.6922
  54   2.0000      -0.460420       -12.5287
  55   2.0000      -0.455124       -12.3846
  56   2.0000      -0.447056       -12.1650
  57   2.0000      -0.438549       -11.9335
  58   2.0000      -0.433497       -11.7960
  59   2.0000      -0.431103       -11.7309
  60   2.0000      -0.421474       -11.4689
  61   2.0000      -0.410862       -11.1801
  62   2.0000      -0.401676       -10.9302
  63   2.0000      -0.335387        -9.1263
  64   2.0000      -0.331302        -9.0152
  65   2.0000      -0.328531        -8.9398
  66   2.0000      -0.299063        -8.1379
  67   0.0000       0.045941         1.2501
  68   0.0000       0.065787         1.7902
  69   0.0000       0.115133         3.1329
  70   0.0000       0.120831         3.2880
  71   0.0000       0.139101         3.7851

MULLIKEN ATOMIC CHARGES
-----------------------
   0 S :    0.110193
   1 C :   -0.098524
   2 C :   -0.049398
   3 C :    0.038723
   4 C :   -0.180452
   5 H :    0.000990
   6 C :    0.054288
   7 H :    0.036152
   8 H :    0.025191
   9 C :   -0.051249
  10 H :    0.031248
  11 H :    0.035237
  12 C :   -0.061060
  13 H :    0.020736
  14 H :    0.021956
  15 H :    0.029325
  16 S :    0.131229
  17 C :   -0.086466
  18 C :   -0.069548
  19 C :   -0.006561
  20 C :   -0.199573
  21 H :    0.037116
  22 C :    0.089224
  23 H :    0.001053
  24 H :    0.030824
  25 C :   -0.081926
  26 H :    0.025731
  27 H :    0.037697
  28 C :   -0.070570
  29 H :    0.054588
  30 H :    0.048609
  31 H :    0.029420
  32 H :    0.008877
  33 H :    0.056922
Sum of atomic charges:    0.0000000

LOEWDIN ATOMIC CHARGES
----------------------
   0 S :    0.409382
   1 C :   -0.186821
   2 C :   -0.058388
   3 C :   -0.059928
   4 C :   -0.193384
   5 H :    0.029141
   6 C :   -0.033999
   7 H :    0.034815
   8 H :    0.035507
   9 C :   -0.026816
  10 H :    0.021614
  11 H :    0.025211
  12 C :   -0.067497
  13 H :    0.020229
  14 H :    0.021565
  15 H :    0.021496
  16 S :    0.438320
  17 C :   -0.206011
  18 C :   -0.086518
  19 C :   -0.050680
  20 C :   -0.209253
  21 H :    0.039695
  22 C :   -0.040475
  23 H :    0.020763
  24 H :    0.035542
  25 C :   -0.045489
  26 H :    0.016316
  27 H :    0.031121
  28 C :   -0.064757
  29 H :    0.035770
  30 H :    0.031228
  31 H :    0.023318
  32 H :    0.009253
  33 H :    0.029729

  Mayer bond orders larger than 0.100000
B(  0-S ,  1-C ) :   1.1259 B(  0-S ,  4-C ) :   1.1600 B(  1-C ,  2-C ) :   1.6200
B(  1-C , 32-H ) :   0.9851 B(  2-C ,  3-C ) :   1.1947 B(  2-C ,  6-C ) :   1.0199
B(  3-C ,  4-C ) :   1.6026 B(  3-C ,  5-H ) :   1.0012 B(  4-C , 20-C ) :   1.0153
B(  6-C ,  7-H ) :   0.9374 B(  6-C ,  8-H ) :   0.9433 B(  6-C ,  9-C ) :   1.0651
B(  9-C , 10-H ) :   0.9569 B(  9-C , 11-H ) :   0.9581 B(  9-C , 12-C ) :   1.0707
B( 12-C , 13-H ) :   0.9784 B( 12-C , 14-H ) :   0.9761 B( 12-C , 15-H ) :   0.9773
B( 16-S , 17-C ) :   1.1871 B( 16-S , 20-C ) :   1.1420 B( 17-C , 18-C ) :   1.5909
B( 17-C , 33-H ) :   0.9634 B( 18-C , 19-C ) :   1.2521 B( 18-C , 21-H ) :   0.9795
B( 19-C , 20-C ) :   1.6238 B( 19-C , 22-C ) :   1.0290 B( 22-C , 23-H ) :   0.9279
B( 22-C , 24-H ) :   0.9149 B( 22-C , 25-C ) :   1.0788 B( 25-C , 26-H ) :   0.9535
B( 25-C , 27-H ) :   0.9560 B( 25-C , 28-C ) :   1.0635 B( 28-C , 29-H ) :   0.9749
B( 28-C , 30-H ) :   0.9775 B( 28-C , 31-H ) :   0.9783

Dispersion correction           -0.013659458
FINAL SINGLE POINT ENERGY     -1339.876290294985

DIPOLE MOMENT
-------------
                                X             Y             Z
Electronic contribution:     12.01796       2.55109       9.29833
Nuclear contribution   :    -12.20736      -2.72882      -9.43119
                        -----------------------------------------
Total Dipole Moment    :     -0.18941      -0.17773      -0.13287
                        -----------------------------------------
Magnitude (a.u.)       :      0.29174
Magnitude (Debye)      :      0.74156

Rotational constants in cm-1:     0.021770     0.007452     0.006233
Rotational constants in MHz :   652.655037   223.405290   186.865470

                             ****ORCA TERMINATED NORMALLY****
TOTAL RUN TIME: 0 days 0 hours 0 minutes 20 seconds 102 msec
