                         Program Version 4.2.1 -  RELEASE  -
|  1> ! wB97X-D3 SP def2-SVP
|  2> %pal
|  3> nprocs 24
|  4> end
|  5>
|  6> * xyz 0 1
|  7> S 	 -78.0821 	 -18.3289 	 -51.1306
|  8> C 	 -79.3619 	 -18.1789 	 -49.8425
|  9> C 	 -80.1234 	 -17.0495 	 -50.086
| 10> C 	 -79.6682 	 -16.2977 	 -51.2038
| 11> C 	 -78.6219 	 -16.8374 	 -51.91
| 12> H 	 -80.1145 	 -15.3465 	 -51.5854
| 13> C 	 -81.5024 	 -16.7802 	 -49.5131
| 14> H 	 -81.9692 	 -17.6578 	 -49.1383
| 15> H 	 -82.2479 	 -16.4857 	 -50.2523
| 16> C 	 -81.6049 	 -15.7519 	 -48.406
| 17> H 	 -82.488 	 -15.9199 	 -47.7842
| 18> H 	 -80.9419 	 -16.1743 	 -47.6813
| 19> C 	 -81.2144 	 -14.3958 	 -48.8552
| 20> H 	 -81.8889 	 -14.1061 	 -49.6673
| 21> H 	 -81.2041 	 -13.6765 	 -47.9849
| 22> H 	 -80.1838 	 -14.5079 	 -49.2376
| 23> S 	 -78.2055 	 -17.1218 	 -54.6514
| 24> C 	 -77.3274 	 -15.8321 	 -55.5554
| 25> C 	 -76.9501 	 -14.8007 	 -54.6989
| 26> C 	 -77.2902 	 -15.0795 	 -53.3025
| 27> C 	 -77.9741 	 -16.2813 	 -53.1229
| 28> H 	 -76.4556 	 -13.9381 	 -55.0331
| 29> C 	 -77.0376 	 -13.946 	 -52.2446
| 30> H 	 -75.9326 	 -13.8699 	 -52.2443
| 31> H 	 -77.4552 	 -14.2653 	 -51.2685
| 32> C 	 -77.581 	 -12.5809 	 -52.5902
| 33> H 	 -77.1298 	 -12.2287 	 -53.5104
| 34> H 	 -77.2528 	 -11.8841 	 -51.8014
| 35> C 	 -79.1067 	 -12.5715 	 -52.6904
| 36> H 	 -79.6187 	 -13.2726 	 -52.04
| 37> H 	 -79.4058 	 -12.7919 	 -53.7156
| 38> H 	 -79.6147 	 -11.5483 	 -52.459
| 39> H 	 -79.6094 	 -18.9305 	 -49.0932
| 40> H 	 -77.043 	 -15.6698 	 -56.5907
| 41> *
| 42>
| 43>                          ****END OF INPUT****

CARTESIAN COORDINATES (ANGSTROEM)
---------------------------------
  S    -78.082100  -18.328900  -51.130600
  C    -79.361900  -18.178900  -49.842500
  C    -80.123400  -17.049500  -50.086000
  C    -79.668200  -16.297700  -51.203800
  C    -78.621900  -16.837400  -51.910000
  H    -80.114500  -15.346500  -51.585400
  C    -81.502400  -16.780200  -49.513100
  H    -81.969200  -17.657800  -49.138300
  H    -82.247900  -16.485700  -50.252300
  C    -81.604900  -15.751900  -48.406000
  H    -82.488000  -15.919900  -47.784200
  H    -80.941900  -16.174300  -47.681300
  C    -81.214400  -14.395800  -48.855200
  H    -81.888900  -14.106100  -49.667300
  H    -81.204100  -13.676500  -47.984900
  H    -80.183800  -14.507900  -49.237600
  S    -78.205500  -17.121800  -54.651400
  C    -77.327400  -15.832100  -55.555400
  C    -76.950100  -14.800700  -54.698900
  C    -77.290200  -15.079500  -53.302500
  C    -77.974100  -16.281300  -53.122900
  H    -76.455600  -13.938100  -55.033100
  C    -77.037600  -13.946000  -52.244600
  H    -75.932600  -13.869900  -52.244300
  H    -77.455200  -14.265300  -51.268500
  C    -77.581000  -12.580900  -52.590200
  H    -77.129800  -12.228700  -53.510400
  H    -77.252800  -11.884100  -51.801400
  C    -79.106700  -12.571500  -52.690400
  H    -79.618700  -13.272600  -52.040000
  H    -79.405800  -12.791900  -53.715600
  H    -79.614700  -11.548300  -52.459000
  H    -79.609400  -18.930500  -49.093200
  H    -77.043000  -15.669800  -56.590700

 Total Charge           Charge          ....    0
 Multiplicity           Mult            ....    1
 Number of Electrons    NEL             ....  134
 Basis Dimension        Dim             ....  322

ORBITAL ENERGIES
----------------

  NO   OCC          E(Eh)            E(eV)
   0   2.0000     -88.970740     -2421.0169
   1   2.0000     -88.968023     -2420.9430
   2   2.0000     -10.334550      -281.2174
   3   2.0000     -10.332625      -281.1650
   4   2.0000     -10.325626      -280.9746
   5   2.0000     -10.325372      -280.9677
   6   2.0000     -10.310726      -280.5691
   7   2.0000     -10.305408      -280.4244
   8   2.0000     -10.298112      -280.2259
   9   2.0000     -10.297411      -280.2068
  10   2.0000     -10.296197      -280.1738
  11   2.0000     -10.288862      -279.9742
  12   2.0000     -10.286512      -279.9102
  13   2.0000     -10.283098      -279.8173
  14   2.0000     -10.281929      -279.7855
  15   2.0000     -10.275741      -279.6171
  16   2.0000      -8.084057      -219.9784
  17   2.0000      -8.081388      -219.9057
  18   2.0000      -6.042930      -164.4365
  19   2.0000      -6.040124      -164.3601
  20   2.0000      -6.038725      -164.3221
  21   2.0000      -6.036007      -164.2481
  22   2.0000      -6.034524      -164.2077
  23   2.0000      -6.032039      -164.1401
  24   2.0000      -0.999080       -27.1863
  25   2.0000      -0.976985       -26.5851
  26   2.0000      -0.920677       -25.0529
  27   2.0000      -0.909404       -24.7462
  28   2.0000      -0.869102       -23.6495
  29   2.0000      -0.842681       -22.9305
  30   2.0000      -0.840386       -22.8681
  31   2.0000      -0.816864       -22.2280
  32   2.0000      -0.785079       -21.3631
  33   2.0000      -0.773555       -21.0495
  34   2.0000      -0.706810       -19.2333
  35   2.0000      -0.702339       -19.1116
  36   2.0000      -0.691854       -18.8263
  37   2.0000      -0.660100       -17.9622
  38   2.0000      -0.642948       -17.4955
  39   2.0000      -0.616641       -16.7797
  40   2.0000      -0.590060       -16.0563
  41   2.0000      -0.577653       -15.7187
  42   2.0000      -0.555198       -15.1077
  43   2.0000      -0.553094       -15.0504
  44   2.0000      -0.543148       -14.7798
  45   2.0000      -0.537188       -14.6176
  46   2.0000      -0.515501       -14.0275
  47   2.0000      -0.514778       -14.0078
  48   2.0000      -0.503351       -13.6969
  49   2.0000      -0.498444       -13.5634
  50   2.0000      -0.493202       -13.4207
  51   2.0000      -0.479274       -13.0417
  52   2.0000      -0.467586       -12.7237
  53   2.0000      -0.463580       -12.6147
  54   2.0000      -0.458324       -12.4716
  55   2.0000      -0.444430       -12.0935
  56   2.0000      -0.437814       -11.9135
  57   2.0000      -0.434292       -11.8177
  58   2.0000      -0.431667       -11.7463
  59   2.0000      -0.428267       -11.6537
  60   2.0000      -0.425810       -11.5869
  61   2.0000      -0.407613       -11.0917
  62   2.0000      -0.404887       -11.0175
  63   2.0000      -0.340233        -9.2582
  64   2.0000      -0.333189        -9.0665
  65   2.0000      -0.326885        -8.8950
  66   2.0000      -0.306668        -8.3449
  67   0.0000       0.033015         0.8984
  68   0.0000       0.058212         1.5840
  69   0.0000       0.104264         2.8372
  70   0.0000       0.112950         3.0735
  71   0.0000       0.120703         3.2845

MULLIKEN ATOMIC CHARGES
-----------------------
   0 S :    0.100419
   1 C :   -0.126537
   2 C :   -0.053414
   3 C :    0.029086
   4 C :   -0.161628
   5 H :    0.025161
   6 C :    0.037508
   7 H :    0.002636
   8 H :    0.028002
   9 C :   -0.054007
  10 H :    0.016438
  11 H :   -0.002308
  12 C :   -0.040572
  13 H :    0.033396
  14 H :    0.048129
  15 H :    0.043496
  16 S :    0.114573
  17 C :   -0.075977
  18 C :   -0.044675
  19 C :   -0.030982
  20 C :   -0.174943
  21 H :    0.007810
  22 C :    0.051405
  23 H :    0.039954
  24 H :    0.038188
  25 C :   -0.056821
  26 H :    0.023141
  27 H :    0.039232
  28 C :   -0.070937
  29 H :    0.020661
  30 H :    0.038477
  31 H :    0.041111
  32 H :    0.057092
  33 H :    0.056884
Sum of atomic charges:   -0.0000000

LOEWDIN ATOMIC CHARGES
----------------------
   0 S :    0.374073
   1 C :   -0.168907
   2 C :   -0.066673
   3 C :   -0.066230
   4 C :   -0.189444
   5 H :    0.036543
   6 C :   -0.029395
   7 H :    0.026001
   8 H :    0.029676
   9 C :   -0.055066
  10 H :    0.023911
  11 H :    0.018823
  12 C :   -0.066657
  13 H :    0.025016
  14 H :    0.034660
  15 H :    0.032040
  16 S :    0.389864
  17 C :   -0.173723
  18 C :   -0.065484
  19 C :   -0.049603
  20 C :   -0.206254
  21 H :    0.021647
  22 C :   -0.029090
  23 H :    0.037179
  24 H :    0.030946
  25 C :   -0.044461
  26 H :    0.020248
  27 H :    0.030742
  28 C :   -0.073380
  29 H :    0.018136
  30 H :    0.027917
  31 H :    0.036233
  32 H :    0.033296
  33 H :    0.037415

  Mayer bond orders larger than 0.100000
B(  0-S ,  1-C ) :   1.1251 B(  0-S ,  4-C ) :   1.1383 B(  1-C ,  2-C ) :   1.6329
B(  1-C , 32-H ) :   0.9660 B(  2-C ,  3-C ) :   1.2143 B(  2-C ,  6-C ) :   1.0096
B(  3-C ,  4-C ) :   1.6123 B(  3-C ,  5-H ) :   0.9830 B(  4-C , 20-C ) :   1.0049
B(  6-C ,  7-H ) :   0.9379 B(  6-C ,  8-H ) :   0.9520 B(  6-C ,  9-C ) :   1.0818
B(  9-C , 10-H ) :   0.9499 B(  9-C , 11-H ) :   0.9416 B(  9-C , 12-C ) :   1.0760
B( 12-C , 13-H ) :   0.9742 B( 12-C , 14-H ) :   0.9696 B( 12-C , 15-H ) :   0.9656
B( 16-S , 17-C ) :   1.1306 B( 16-S , 20-C ) :   1.1257 B( 17-C , 18-C ) :   1.6514
B( 17-C , 33-H ) :   0.9631 B( 18-C , 19-C ) :   1.2104 B( 18-C , 21-H ) :   0.9894
B( 19-C , 20-C ) :   1.6330 B( 19-C , 22-C ) :   1.0246 B( 22-C , 23-H ) :   0.9316
B( 22-C , 24-H ) :   0.9426 B( 22-C , 25-C ) :   1.0905 B( 25-C , 26-H ) :   0.9511
B( 25-C , 27-H ) :   0.9541 B( 25-C , 28-C ) :   1.0605 B( 28-C , 29-H ) :   0.9765
B( 28-C , 30-H ) :   0.9740 B( 28-C , 31-H ) :   0.9725

Dispersion correction           -0.015717837
FINAL SINGLE POINT ENERGY     -1339.867067170856

DIPOLE MOMENT
-------------
                                X             Y             Z
Electronic contribution:     11.45527     -23.19423     -13.48160
Nuclear contribution   :    -11.69964      23.77950      13.65997
                        -----------------------------------------
Total Dipole Moment    :     -0.24437       0.58527       0.17837
                        -----------------------------------------
Magnitude (a.u.)       :      0.65885
Magnitude (Debye)      :      1.67466

Rotational constants in cm-1:     0.018317     0.009901     0.007268
Rotational constants in MHz :   549.123044   296.813419   217.883695

                             ****ORCA TERMINATED NORMALLY****
TOTAL RUN TIME: 0 days 0 hours 0 minutes 22 seconds 665 msec
