                         Program Version 4.2.1 -  RELEASE  -
|  1> ! wB97X-D3 SP def2-SVP
|  2> %pal
|  3> nprocs 24
|  4> end
|  5>
|  6> * xyz 0 1
|  7> S 	 -126.432 	 63.2902 	 -60.0145
|  8> C 	 -127.59 	 63.977 	 -61.1099
|  9> C 	 -128.858 	 63.9393 	 -60.5905
| 10> C 	 -128.983 	 63.4909 	 -59.2847
| 11> C 	 -127.712 	 63.1321 	 -58.7851
| 12> H 	 -129.861 	 63.4646 	 -58.6074
| 13> C 	 -130.068 	 64.5137 	 -61.3247
| 14> H 	 -130.87 	 64.51 	 -60.6052
| 15> H 	 -130.396 	 63.8491 	 -62.1406
| 16> C 	 -129.896 	 65.9327 	 -61.9403
| 17> H 	 -130.865 	 66.4296 	 -61.8267
| 18> H 	 -129.266 	 66.4951 	 -61.3581
| 19> C 	 -129.326 	 66.1675 	 -63.3471
| 20> H 	 -129.948 	 65.614 	 -64.0714
| 21> H 	 -129.447 	 67.2339 	 -63.5172
| 22> H 	 -128.287 	 65.8404 	 -63.4595
| 23> S 	 -125.965 	 63.5383 	 -56.6038
| 24> C 	 -126.317 	 62.7552 	 -55.0508
| 25> C 	 -127.52 	 62.0671 	 -55.1225
| 26> C 	 -128.174 	 62.1941 	 -56.454
| 27> C 	 -127.391 	 62.8094 	 -57.4152
| 28> H 	 -127.874 	 61.5534 	 -54.2612
| 29> C 	 -129.407 	 61.3257 	 -56.8423
| 30> H 	 -130.254 	 61.9371 	 -57.0971
| 31> H 	 -129.753 	 60.8212 	 -55.9078
| 32> C 	 -129.077 	 60.1893 	 -57.8044
| 33> H 	 -128.634 	 60.5547 	 -58.7185
| 34> H 	 -130.067 	 59.8196 	 -58.0759
| 35> C 	 -128.15 	 59.1046 	 -57.1827
| 36> H 	 -127.234 	 59.6217 	 -56.7952
| 37> H 	 -127.98 	 58.419 	 -57.9491
| 38> H 	 -128.608 	 58.533 	 -56.4266
| 39> H 	 -127.493 	 64.3249 	 -62.1306
| 40> H 	 -125.723 	 62.7287 	 -54.1505
| 41> *
| 42>
| 43>                          ****END OF INPUT****

CARTESIAN COORDINATES (ANGSTROEM)
---------------------------------
  S    -126.432000   63.290200  -60.014500
  C    -127.590000   63.977000  -61.109900
  C    -128.858000   63.939300  -60.590500
  C    -128.983000   63.490900  -59.284700
  C    -127.712000   63.132100  -58.785100
  H    -129.861000   63.464600  -58.607400
  C    -130.068000   64.513700  -61.324700
  H    -130.870000   64.510000  -60.605200
  H    -130.396000   63.849100  -62.140600
  C    -129.896000   65.932700  -61.940300
  H    -130.865000   66.429600  -61.826700
  H    -129.266000   66.495100  -61.358100
  C    -129.326000   66.167500  -63.347100
  H    -129.948000   65.614000  -64.071400
  H    -129.447000   67.233900  -63.517200
  H    -128.287000   65.840400  -63.459500
  S    -125.965000   63.538300  -56.603800
  C    -126.317000   62.755200  -55.050800
  C    -127.520000   62.067100  -55.122500
  C    -128.174000   62.194100  -56.454000
  C    -127.391000   62.809400  -57.415200
  H    -127.874000   61.553400  -54.261200
  C    -129.407000   61.325700  -56.842300
  H    -130.254000   61.937100  -57.097100
  H    -129.753000   60.821200  -55.907800
  C    -129.077000   60.189300  -57.804400
  H    -128.634000   60.554700  -58.718500
  H    -130.067000   59.819600  -58.075900
  C    -128.150000   59.104600  -57.182700
  H    -127.234000   59.621700  -56.795200
  H    -127.980000   58.419000  -57.949100
  H    -128.608000   58.533000  -56.426600
  H    -127.493000   64.324900  -62.130600
  H    -125.723000   62.728700  -54.150500

 Total Charge           Charge          ....    0
 Multiplicity           Mult            ....    1
 Number of Electrons    NEL             ....  134
 Basis Dimension        Dim             ....  322

ORBITAL ENERGIES
----------------

  NO   OCC          E(Eh)            E(eV)
   0   2.0000     -88.974443     -2421.1177
   1   2.0000     -88.964038     -2420.8346
   2   2.0000     -10.335479      -281.2427
   3   2.0000     -10.329271      -281.0738
   4   2.0000     -10.320478      -280.8345
   5   2.0000     -10.309952      -280.5481
   6   2.0000     -10.307383      -280.4781
   7   2.0000     -10.299357      -280.2598
   8   2.0000     -10.298628      -280.2399
   9   2.0000     -10.295387      -280.1517
  10   2.0000     -10.291788      -280.0538
  11   2.0000     -10.291657      -280.0502
  12   2.0000     -10.283894      -279.8390
  13   2.0000     -10.280012      -279.7334
  14   2.0000     -10.279382      -279.7162
  15   2.0000     -10.267549      -279.3942
  16   2.0000      -8.088244      -220.0923
  17   2.0000      -8.077633      -219.8036
  18   2.0000      -6.046719      -164.5396
  19   2.0000      -6.042857      -164.4345
  20   2.0000      -6.039129      -164.3330
  21   2.0000      -6.036483      -164.2611
  22   2.0000      -6.032227      -164.1452
  23   2.0000      -6.028145      -164.0342
  24   2.0000      -1.004756       -27.3408
  25   2.0000      -0.977433       -26.5973
  26   2.0000      -0.908722       -24.7276
  27   2.0000      -0.903494       -24.5853
  28   2.0000      -0.868898       -23.6439
  29   2.0000      -0.857603       -23.3366
  30   2.0000      -0.834961       -22.7204
  31   2.0000      -0.813339       -22.1321
  32   2.0000      -0.785106       -21.3638
  33   2.0000      -0.774906       -21.0863
  34   2.0000      -0.712689       -19.3933
  35   2.0000      -0.701406       -19.0862
  36   2.0000      -0.686886       -18.6911
  37   2.0000      -0.662540       -18.0286
  38   2.0000      -0.636754       -17.3270
  39   2.0000      -0.616291       -16.7701
  40   2.0000      -0.588039       -16.0014
  41   2.0000      -0.575476       -15.6595
  42   2.0000      -0.553728       -15.0677
  43   2.0000      -0.543422       -14.7873
  44   2.0000      -0.541285       -14.7291
  45   2.0000      -0.534512       -14.5448
  46   2.0000      -0.521572       -14.1927
  47   2.0000      -0.510335       -13.8869
  48   2.0000      -0.505921       -13.7668
  49   2.0000      -0.498550       -13.5662
  50   2.0000      -0.488234       -13.2855
  51   2.0000      -0.479181       -13.0392
  52   2.0000      -0.475053       -12.9269
  53   2.0000      -0.467450       -12.7200
  54   2.0000      -0.458503       -12.4765
  55   2.0000      -0.450613       -12.2618
  56   2.0000      -0.437315       -11.9000
  57   2.0000      -0.436044       -11.8654
  58   2.0000      -0.429889       -11.6979
  59   2.0000      -0.426991       -11.6190
  60   2.0000      -0.415392       -11.3034
  61   2.0000      -0.414393       -11.2762
  62   2.0000      -0.407482       -11.0882
  63   2.0000      -0.354575        -9.6485
  64   2.0000      -0.337318        -9.1789
  65   2.0000      -0.326711        -8.8903
  66   2.0000      -0.284957        -7.7541
  67   0.0000       0.016205         0.4410
  68   0.0000       0.075803         2.0627
  69   0.0000       0.105935         2.8826
  70   0.0000       0.118353         3.2205
  71   0.0000       0.137768         3.7489

MULLIKEN ATOMIC CHARGES
-----------------------
   0 S :    0.131390
   1 C :   -0.098314
   2 C :   -0.086625
   3 C :    0.005403
   4 C :   -0.172432
   5 H :    0.031500
   6 C :    0.094567
   7 H :    0.008225
   8 H :    0.035233
   9 C :   -0.081005
  10 H :    0.026181
  11 H :    0.011639
  12 C :   -0.054251
  13 H :    0.030112
  14 H :    0.042346
  15 H :    0.040285
  16 S :    0.091550
  17 C :   -0.087828
  18 C :   -0.024199
  19 C :   -0.067350
  20 C :   -0.113428
  21 H :    0.014275
  22 C :    0.027411
  23 H :    0.024660
  24 H :    0.013594
  25 C :   -0.055698
  26 H :    0.038402
  27 H :    0.018413
  28 C :   -0.023714
  29 H :    0.059092
  30 H :    0.021657
  31 H :    0.014341
  32 H :    0.026614
  33 H :    0.057954
Sum of atomic charges:   -0.0000000

LOEWDIN ATOMIC CHARGES
----------------------
   0 S :    0.413166
   1 C :   -0.208871
   2 C :   -0.067416
   3 C :   -0.057838
   4 C :   -0.178238
   5 H :    0.042007
   6 C :   -0.028295
   7 H :    0.026062
   8 H :    0.033465
   9 C :   -0.042974
  10 H :    0.028988
  11 H :    0.013239
  12 C :   -0.060524
  13 H :    0.023437
  14 H :    0.032668
  15 H :    0.021833
  16 S :    0.371271
  17 C :   -0.178826
  18 C :   -0.067683
  19 C :   -0.058858
  20 C :   -0.188893
  21 H :    0.026666
  22 C :   -0.037128
  23 H :    0.021143
  24 H :    0.031093
  25 C :   -0.034124
  26 H :    0.021657
  27 H :    0.022817
  28 C :   -0.056213
  29 H :    0.037991
  30 H :    0.020390
  31 H :    0.015995
  32 H :    0.028799
  33 H :    0.033195

  Mayer bond orders larger than 0.100000
B(  0-S ,  1-C ) :   1.1309 B(  0-S ,  4-C ) :   1.1584 B(  1-C ,  2-C ) :   1.6042
B(  1-C ,  4-C ) :   0.1021 B(  1-C , 32-H ) :   0.9635 B(  2-C ,  3-C ) :   1.2789
B(  2-C ,  6-C ) :   1.0206 B(  3-C ,  4-C ) :   1.5277 B(  3-C ,  5-H ) :   0.9822
B(  4-C , 20-C ) :   1.0909 B(  6-C ,  7-H ) :   0.9425 B(  6-C ,  8-H ) :   0.9331
B(  6-C ,  9-C ) :   1.0621 B(  9-C , 10-H ) :   0.9565 B(  9-C , 11-H ) :   0.9602
B(  9-C , 12-C ) :   1.0765 B( 12-C , 13-H ) :   0.9750 B( 12-C , 14-H ) :   0.9704
B( 12-C , 15-H ) :   0.9734 B( 16-S , 17-C ) :   1.1323 B( 16-S , 20-C ) :   1.1075
B( 17-C , 18-C ) :   1.6441 B( 17-C , 33-H ) :   0.9658 B( 18-C , 19-C ) :   1.2064
B( 18-C , 21-H ) :   0.9910 B( 19-C , 20-C ) :   1.6050 B( 19-C , 22-C ) :   1.0367
B( 22-C , 23-H ) :   0.9368 B( 22-C , 24-H ) :   0.9389 B( 22-C , 25-C ) :   1.0669
B( 25-C , 26-H ) :   0.9557 B( 25-C , 27-H ) :   0.9508 B( 25-C , 28-C ) :   1.0726
B( 28-C , 29-H ) :   0.9747 B( 28-C , 30-H ) :   0.9726 B( 28-C , 31-H ) :   0.9745

Dispersion correction           -0.015094631
FINAL SINGLE POINT ENERGY     -1339.868763480411

DIPOLE MOMENT
-------------
                                X             Y             Z
Electronic contribution:     18.13762       3.37656      10.44722
Nuclear contribution   :    -18.80077      -3.44353     -10.47858
                        -----------------------------------------
Total Dipole Moment    :     -0.66316      -0.06697      -0.03136
                        -----------------------------------------
Magnitude (a.u.)       :      0.66727
Magnitude (Debye)      :      1.69606

Rotational constants in cm-1:     0.023911     0.007754     0.006834
Rotational constants in MHz :   716.826315   232.449422   204.881623

                             ****ORCA TERMINATED NORMALLY****
TOTAL RUN TIME: 0 days 0 hours 0 minutes 21 seconds 24 msec
