                         Program Version 4.2.1 -  RELEASE  -
|  1> ! wB97X-D3 SP def2-SVP
|  2> %pal
|  3> nprocs 24
|  4> end
|  5>
|  6> * xyz 0 1
|  7> S 	 -17.8942 	 -29.9838 	 -94.9526
|  8> C 	 -16.5559 	 -30.8151 	 -94.3088
|  9> C 	 -16.9761 	 -32.0993 	 -93.8572
| 10> C 	 -18.3729 	 -32.3044 	 -94.0701
| 11> C 	 -19.0796 	 -31.1618 	 -94.5828
| 12> H 	 -18.7454 	 -33.2265 	 -93.7976
| 13> C 	 -16.1174 	 -33.1446 	 -93.06
| 14> H 	 -16.1317 	 -32.9123 	 -92.032
| 15> H 	 -15.1669 	 -32.9256 	 -93.3872
| 16> C 	 -16.4421 	 -34.6505 	 -93.2808
| 17> H 	 -15.751 	 -35.2216 	 -92.6866
| 18> H 	 -17.4324 	 -34.9252 	 -92.984
| 19> C 	 -16.1827 	 -35.2243 	 -94.6972
| 20> H 	 -15.1206 	 -35.1524 	 -94.7612
| 21> H 	 -16.3986 	 -36.2899 	 -94.6639
| 22> H 	 -16.5911 	 -34.7859 	 -95.5582
| 23> S 	 -21.6639 	 -31.9539 	 -94.1121
| 24> C 	 -22.8444 	 -31.8157 	 -95.4222
| 25> C 	 -22.3742 	 -31.0085 	 -96.4637
| 26> C 	 -20.9518 	 -30.7134 	 -96.3151
| 27> C 	 -20.4546 	 -31.1015 	 -95.0509
| 28> H 	 -23.0671 	 -30.8263 	 -97.2873
| 29> C 	 -20.2016 	 -29.9766 	 -97.4714
| 30> H 	 -20.6534 	 -30.3654 	 -98.4204
| 31> H 	 -19.1046 	 -30.2886 	 -97.5537
| 32> C 	 -20.1717 	 -28.4259 	 -97.3416
| 33> H 	 -19.7278 	 -28.0913 	 -96.4399
| 34> H 	 -21.2032 	 -27.9519 	 -97.3803
| 35> C 	 -19.3258 	 -27.638 	 -98.372
| 36> H 	 -19.8837 	 -27.6685 	 -99.3419
| 37> H 	 -18.4855 	 -28.2576 	 -98.6203
| 38> H 	 -19.0381 	 -26.6855 	 -98.0593
| 39> H 	 -15.4768 	 -30.4182 	 -94.2843
| 40> H 	 -23.7823 	 -32.2958 	 -95.526
| 41> *
| 42>
| 43>                          ****END OF INPUT****

CARTESIAN COORDINATES (ANGSTROEM)
---------------------------------
  S    -17.894200  -29.983800  -94.952600
  C    -16.555900  -30.815100  -94.308800
  C    -16.976100  -32.099300  -93.857200
  C    -18.372900  -32.304400  -94.070100
  C    -19.079600  -31.161800  -94.582800
  H    -18.745400  -33.226500  -93.797600
  C    -16.117400  -33.144600  -93.060000
  H    -16.131700  -32.912300  -92.032000
  H    -15.166900  -32.925600  -93.387200
  C    -16.442100  -34.650500  -93.280800
  H    -15.751000  -35.221600  -92.686600
  H    -17.432400  -34.925200  -92.984000
  C    -16.182700  -35.224300  -94.697200
  H    -15.120600  -35.152400  -94.761200
  H    -16.398600  -36.289900  -94.663900
  H    -16.591100  -34.785900  -95.558200
  S    -21.663900  -31.953900  -94.112100
  C    -22.844400  -31.815700  -95.422200
  C    -22.374200  -31.008500  -96.463700
  C    -20.951800  -30.713400  -96.315100
  C    -20.454600  -31.101500  -95.050900
  H    -23.067100  -30.826300  -97.287300
  C    -20.201600  -29.976600  -97.471400
  H    -20.653400  -30.365400  -98.420400
  H    -19.104600  -30.288600  -97.553700
  C    -20.171700  -28.425900  -97.341600
  H    -19.727800  -28.091300  -96.439900
  H    -21.203200  -27.951900  -97.380300
  C    -19.325800  -27.638000  -98.372000
  H    -19.883700  -27.668500  -99.341900
  H    -18.485500  -28.257600  -98.620300
  H    -19.038100  -26.685500  -98.059300
  H    -15.476800  -30.418200  -94.284300
  H    -23.782300  -32.295800  -95.526000

 Total Charge           Charge          ....    0
 Multiplicity           Mult            ....    1
 Number of Electrons    NEL             ....  134
 Basis Dimension        Dim             ....  322

ORBITAL ENERGIES
----------------

  NO   OCC          E(Eh)            E(eV)
   0   2.0000     -88.970932     -2421.0221
   1   2.0000     -88.969335     -2420.9787
   2   2.0000     -10.333479      -281.1883
   3   2.0000     -10.332533      -281.1625
   4   2.0000     -10.322072      -280.8779
   5   2.0000     -10.318048      -280.7684
   6   2.0000     -10.313895      -280.6554
   7   2.0000     -10.306055      -280.4420
   8   2.0000     -10.304822      -280.4085
   9   2.0000     -10.300276      -280.2847
  10   2.0000     -10.290868      -280.0288
  11   2.0000     -10.289009      -279.9782
  12   2.0000     -10.288002      -279.9508
  13   2.0000     -10.285098      -279.8717
  14   2.0000     -10.270885      -279.4850
  15   2.0000     -10.269445      -279.4458
  16   2.0000      -8.085952      -220.0299
  17   2.0000      -8.083305      -219.9579
  18   2.0000      -6.044312      -164.4741
  19   2.0000      -6.041961      -164.4101
  20   2.0000      -6.040027      -164.3575
  21   2.0000      -6.037874      -164.2989
  22   2.0000      -6.037244      -164.2818
  23   2.0000      -6.034007      -164.1937
  24   2.0000      -1.005570       -27.3630
  25   2.0000      -0.980215       -26.6730
  26   2.0000      -0.908471       -24.7207
  27   2.0000      -0.897672       -24.4269
  28   2.0000      -0.868386       -23.6300
  29   2.0000      -0.850401       -23.1406
  30   2.0000      -0.843440       -22.9512
  31   2.0000      -0.811134       -22.0721
  32   2.0000      -0.786863       -21.4116
  33   2.0000      -0.769019       -20.9261
  34   2.0000      -0.711691       -19.3661
  35   2.0000      -0.694509       -18.8986
  36   2.0000      -0.686323       -18.6758
  37   2.0000      -0.662600       -18.0303
  38   2.0000      -0.637736       -17.3537
  39   2.0000      -0.618864       -16.8401
  40   2.0000      -0.590367       -16.0647
  41   2.0000      -0.566705       -15.4208
  42   2.0000      -0.558636       -15.2013
  43   2.0000      -0.553788       -15.0693
  44   2.0000      -0.542614       -14.7653
  45   2.0000      -0.531742       -14.4694
  46   2.0000      -0.517549       -14.0832
  47   2.0000      -0.512772       -13.9532
  48   2.0000      -0.504189       -13.7197
  49   2.0000      -0.498875       -13.5751
  50   2.0000      -0.487202       -13.2574
  51   2.0000      -0.475815       -12.9476
  52   2.0000      -0.472985       -12.8706
  53   2.0000      -0.461929       -12.5697
  54   2.0000      -0.455101       -12.3839
  55   2.0000      -0.448655       -12.2085
  56   2.0000      -0.444157       -12.0861
  57   2.0000      -0.437202       -11.8969
  58   2.0000      -0.433981       -11.8092
  59   2.0000      -0.425279       -11.5724
  60   2.0000      -0.415343       -11.3021
  61   2.0000      -0.412993       -11.2381
  62   2.0000      -0.407493       -11.0884
  63   2.0000      -0.349994        -9.5238
  64   2.0000      -0.332457        -9.0466
  65   2.0000      -0.328023        -8.9260
  66   2.0000      -0.285013        -7.7556
  67   0.0000       0.022575         0.6143
  68   0.0000       0.076639         2.0855
  69   0.0000       0.110863         3.0167
  70   0.0000       0.118493         3.2244
  71   0.0000       0.135497         3.6871

MULLIKEN ATOMIC CHARGES
-----------------------
   0 S :    0.117076
   1 C :   -0.153544
   2 C :   -0.146839
   3 C :    0.057861
   4 C :   -0.126816
   5 H :   -0.027173
   6 C :    0.143034
   7 H :    0.039443
   8 H :   -0.012861
   9 C :   -0.091442
  10 H :    0.023919
  11 H :    0.029547
  12 C :   -0.034602
  13 H :    0.012771
  14 H :    0.030817
  15 H :    0.037667
  16 S :    0.111892
  17 C :   -0.094742
  18 C :   -0.032718
  19 C :   -0.047564
  20 C :   -0.121949
  21 H :    0.030428
  22 C :    0.023396
  23 H :    0.034515
  24 H :    0.040520
  25 C :   -0.080055
  26 H :    0.019640
  27 H :    0.034884
  28 C :   -0.019117
  29 H :    0.024829
  30 H :    0.010626
  31 H :    0.035066
  32 H :    0.084249
  33 H :    0.047240
Sum of atomic charges:    0.0000000

LOEWDIN ATOMIC CHARGES
----------------------
   0 S :    0.473355
   1 C :   -0.240520
   2 C :   -0.062956
   3 C :   -0.058645
   4 C :   -0.214003
   5 H :    0.011927
   6 C :   -0.016543
   7 H :    0.031075
   8 H :    0.016809
   9 C :   -0.033514
  10 H :    0.027809
  11 H :    0.015308
  12 C :   -0.058150
  13 H :    0.021339
  14 H :    0.029079
  15 H :    0.017819
  16 S :    0.406023
  17 C :   -0.179683
  18 C :   -0.067918
  19 C :   -0.051547
  20 C :   -0.200204
  21 H :    0.035723
  22 C :   -0.042442
  23 H :    0.033798
  24 H :    0.031135
  25 C :   -0.046556
  26 H :    0.012565
  27 H :    0.027998
  28 C :   -0.059137
  29 H :    0.027434
  30 H :    0.019677
  31 H :    0.019015
  32 H :    0.049345
  33 H :    0.024588

  Mayer bond orders larger than 0.100000
B(  0-S ,  1-C ) :   1.1865 B(  0-S ,  4-C ) :   1.1928 B(  1-C ,  2-C ) :   1.5251
B(  1-C ,  4-C ) :   0.1082 B(  1-C , 32-H ) :   0.9594 B(  2-C ,  3-C ) :   1.3561
B(  2-C ,  6-C ) :   0.9952 B(  3-C ,  4-C ) :   1.4507 B(  3-C ,  5-H ) :   0.9995
B(  4-C , 20-C ) :   1.0557 B(  6-C ,  7-H ) :   0.9415 B(  6-C ,  8-H ) :   0.9324
B(  6-C ,  9-C ) :   1.0805 B(  9-C , 10-H ) :   0.9550 B(  9-C , 11-H ) :   0.9587
B(  9-C , 12-C ) :   1.0677 B( 12-C , 13-H ) :   0.9781 B( 12-C , 14-H ) :   0.9748
B( 12-C , 15-H ) :   0.9807 B( 16-S , 17-C ) :   1.1475 B( 16-S , 20-C ) :   1.1329
B( 17-C , 18-C ) :   1.6309 B( 17-C , 33-H ) :   0.9693 B( 18-C , 19-C ) :   1.2284
B( 18-C , 21-H ) :   0.9842 B( 19-C , 20-C ) :   1.5802 B( 19-C , 22-C ) :   1.0394
B( 22-C , 23-H ) :   0.9388 B( 22-C , 24-H ) :   0.9325 B( 22-C , 25-C ) :   1.0536
B( 25-C , 26-H ) :   0.9573 B( 25-C , 27-H ) :   0.9582 B( 25-C , 28-C ) :   1.0780
B( 28-C , 29-H ) :   0.9759 B( 28-C , 30-H ) :   0.9718 B( 28-C , 31-H ) :   0.9774

Dispersion correction           -0.014187331
FINAL SINGLE POINT ENERGY     -1339.853585557285

DIPOLE MOMENT
-------------
                                X             Y             Z
Electronic contribution:    -12.06412       3.87621       9.49146
Nuclear contribution   :     12.35624      -4.18406      -9.70404
                        -----------------------------------------
Total Dipole Moment    :      0.29212      -0.30785      -0.21258
                        -----------------------------------------
Magnitude (a.u.)       :      0.47465
Magnitude (Debye)      :      1.20648

Rotational constants in cm-1:     0.018419     0.008786     0.006748
Rotational constants in MHz :   552.192590   263.398818   202.308557

                             ****ORCA TERMINATED NORMALLY****
TOTAL RUN TIME: 0 days 0 hours 0 minutes 22 seconds 117 msec
