                         Program Version 4.2.1 -  RELEASE  -
|  1> ! wB97X-D3 SP def2-SVP
|  2> %pal
|  3> nprocs 24
|  4> end
|  5>
|  6> * xyz 0 1
|  7> S 	 -45.2262 	 13.8503 	 34.188
|  8> C 	 -44.4452 	 12.8072 	 35.4024
|  9> C 	 -43.4592 	 12.0436 	 34.949
| 10> C 	 -43.2735 	 12.2571 	 33.5215
| 11> C 	 -44.036 	 13.2375 	 32.9091
| 12> H 	 -42.4942 	 11.9027 	 32.8553
| 13> C 	 -42.6076 	 11.104 	 35.7648
| 14> H 	 -42.6935 	 10.2277 	 35.168
| 15> H 	 -43.1603 	 10.968 	 36.6132
| 16> C 	 -41.1447 	 11.4537 	 35.9412
| 17> H 	 -40.5338 	 10.7379 	 36.4339
| 18> H 	 -40.7586 	 11.3521 	 34.8907
| 19> C 	 -40.9212 	 12.8439 	 36.4289
| 20> H 	 -41.2021 	 13.581 	 35.6863
| 21> H 	 -41.4421 	 13.1611 	 37.3665
| 22> H 	 -39.8719 	 13.041 	 36.6161
| 23> S 	 -45.1286 	 13.3113 	 30.4397
| 24> C 	 -44.2215 	 13.9809 	 29.1015
| 25> C 	 -43.0554 	 14.5662 	 29.5747
| 26> C 	 -42.9673 	 14.5532 	 31.0002
| 27> C 	 -43.9204 	 13.7849 	 31.5672
| 28> H 	 -42.3947 	 15.0128 	 28.8629
| 29> C 	 -41.9665 	 15.5092 	 31.7303
| 30> H 	 -42.108 	 15.4469 	 32.8294
| 31> H 	 -42.3171 	 16.5445 	 31.4482
| 32> C 	 -40.4792 	 15.4576 	 31.352
| 33> H 	 -39.8716 	 15.8365 	 32.1646
| 34> H 	 -40.1644 	 16.0928 	 30.5377
| 35> C 	 -40.0634 	 14.0017 	 31.1716
| 36> H 	 -40.0022 	 13.4014 	 32.0899
| 37> H 	 -39.0443 	 14.0345 	 30.8251
| 38> H 	 -40.6384 	 13.5704 	 30.4547
| 39> H 	 -44.6645 	 12.8415 	 36.4748
| 40> H 	 -44.5283 	 13.8867 	 28.0749
| 41> *
| 42>
| 43>                          ****END OF INPUT****

CARTESIAN COORDINATES (ANGSTROEM)
---------------------------------
  S    -45.226200   13.850300   34.188000
  C    -44.445200   12.807200   35.402400
  C    -43.459200   12.043600   34.949000
  C    -43.273500   12.257100   33.521500
  C    -44.036000   13.237500   32.909100
  H    -42.494200   11.902700   32.855300
  C    -42.607600   11.104000   35.764800
  H    -42.693500   10.227700   35.168000
  H    -43.160300   10.968000   36.613200
  C    -41.144700   11.453700   35.941200
  H    -40.533800   10.737900   36.433900
  H    -40.758600   11.352100   34.890700
  C    -40.921200   12.843900   36.428900
  H    -41.202100   13.581000   35.686300
  H    -41.442100   13.161100   37.366500
  H    -39.871900   13.041000   36.616100
  S    -45.128600   13.311300   30.439700
  C    -44.221500   13.980900   29.101500
  C    -43.055400   14.566200   29.574700
  C    -42.967300   14.553200   31.000200
  C    -43.920400   13.784900   31.567200
  H    -42.394700   15.012800   28.862900
  C    -41.966500   15.509200   31.730300
  H    -42.108000   15.446900   32.829400
  H    -42.317100   16.544500   31.448200
  C    -40.479200   15.457600   31.352000
  H    -39.871600   15.836500   32.164600
  H    -40.164400   16.092800   30.537700
  C    -40.063400   14.001700   31.171600
  H    -40.002200   13.401400   32.089900
  H    -39.044300   14.034500   30.825100
  H    -40.638400   13.570400   30.454700
  H    -44.664500   12.841500   36.474800
  H    -44.528300   13.886700   28.074900

 Total Charge           Charge          ....    0
 Multiplicity           Mult            ....    1
 Number of Electrons    NEL             ....  134
 Basis Dimension        Dim             ....  322

ORBITAL ENERGIES
----------------

  NO   OCC          E(Eh)            E(eV)
   0   2.0000     -88.962706     -2420.7983
   1   2.0000     -88.958950     -2420.6961
   2   2.0000     -10.334482      -281.2156
   3   2.0000     -10.321810      -280.8707
   4   2.0000     -10.320103      -280.8243
   5   2.0000     -10.311484      -280.5897
   6   2.0000     -10.306156      -280.4448
   7   2.0000     -10.299538      -280.2647
   8   2.0000     -10.297340      -280.2049
   9   2.0000     -10.297017      -280.1961
  10   2.0000     -10.294856      -280.1373
  11   2.0000     -10.287337      -279.9327
  12   2.0000     -10.283796      -279.8363
  13   2.0000     -10.282291      -279.7954
  14   2.0000     -10.274859      -279.5931
  15   2.0000     -10.264950      -279.3235
  16   2.0000      -8.078524      -219.8278
  17   2.0000      -8.072161      -219.6547
  18   2.0000      -6.036974      -164.2744
  19   2.0000      -6.032885      -164.1631
  20   2.0000      -6.030974      -164.1111
  21   2.0000      -6.029247      -164.0642
  22   2.0000      -6.027026      -164.0037
  23   2.0000      -6.022552      -163.8820
  24   2.0000      -1.008562       -27.4444
  25   2.0000      -0.980803       -26.6890
  26   2.0000      -0.917981       -24.9795
  27   2.0000      -0.908487       -24.7212
  28   2.0000      -0.873769       -23.7765
  29   2.0000      -0.848978       -23.1019
  30   2.0000      -0.841258       -22.8918
  31   2.0000      -0.817873       -22.2554
  32   2.0000      -0.786165       -21.3926
  33   2.0000      -0.779151       -21.2018
  34   2.0000      -0.714048       -19.4302
  35   2.0000      -0.701664       -19.0932
  36   2.0000      -0.694555       -18.8998
  37   2.0000      -0.665970       -18.1220
  38   2.0000      -0.640697       -17.4343
  39   2.0000      -0.614339       -16.7170
  40   2.0000      -0.593398       -16.1472
  41   2.0000      -0.567712       -15.4482
  42   2.0000      -0.556880       -15.1535
  43   2.0000      -0.552634       -15.0379
  44   2.0000      -0.551300       -15.0016
  45   2.0000      -0.548192       -14.9171
  46   2.0000      -0.520790       -14.1714
  47   2.0000      -0.514541       -14.0014
  48   2.0000      -0.502169       -13.6647
  49   2.0000      -0.493530       -13.4296
  50   2.0000      -0.491501       -13.3744
  51   2.0000      -0.483328       -13.1520
  52   2.0000      -0.470135       -12.7930
  53   2.0000      -0.465618       -12.6701
  54   2.0000      -0.459370       -12.5001
  55   2.0000      -0.450189       -12.2503
  56   2.0000      -0.441723       -12.0199
  57   2.0000      -0.436446       -11.8763
  58   2.0000      -0.429670       -11.6919
  59   2.0000      -0.423827       -11.5329
  60   2.0000      -0.420452       -11.4411
  61   2.0000      -0.411309       -11.1923
  62   2.0000      -0.409520       -11.1436
  63   2.0000      -0.337078        -9.1724
  64   2.0000      -0.327612        -8.9148
  65   2.0000      -0.326081        -8.8731
  66   2.0000      -0.309510        -8.4222
  67   0.0000       0.043192         1.1753
  68   0.0000       0.055325         1.5055
  69   0.0000       0.110794         3.0149
  70   0.0000       0.117295         3.1918
  71   0.0000       0.124143         3.3781

MULLIKEN ATOMIC CHARGES
-----------------------
   0 S :    0.073364
   1 C :   -0.121488
   2 C :   -0.125558
   3 C :    0.048545
   4 C :   -0.173344
   5 H :    0.012448
   6 C :    0.167248
   7 H :    0.022360
   8 H :   -0.011708
   9 C :   -0.048544
  10 H :    0.025793
  11 H :    0.021972
  12 C :   -0.050827
  13 H :    0.037872
  14 H :    0.032390
  15 H :    0.024423
  16 S :    0.113689
  17 C :   -0.094606
  18 C :   -0.028683
  19 C :   -0.026914
  20 C :   -0.193656
  21 H :    0.017096
  22 C :    0.063492
  23 H :    0.040650
  24 H :    0.045256
  25 C :   -0.081175
  26 H :    0.024599
  27 H :    0.026562
  28 C :   -0.014254
  29 H :    0.034841
  30 H :    0.016069
  31 H :    0.017533
  32 H :    0.046232
  33 H :    0.058323
Sum of atomic charges:   -0.0000000

LOEWDIN ATOMIC CHARGES
----------------------
   0 S :    0.329194
   1 C :   -0.177008
   2 C :   -0.068513
   3 C :   -0.053620
   4 C :   -0.163969
   5 H :    0.031177
   6 C :   -0.017067
   7 H :    0.034934
   8 H :    0.014687
   9 C :   -0.042065
  10 H :    0.022265
  11 H :    0.031929
  12 C :   -0.070570
  13 H :    0.027582
  14 H :    0.028559
  15 H :    0.025166
  16 S :    0.420529
  17 C :   -0.175252
  18 C :   -0.071307
  19 C :   -0.053539
  20 C :   -0.217570
  21 H :    0.028862
  22 C :   -0.029717
  23 H :    0.035098
  24 H :    0.040950
  25 C :   -0.045620
  26 H :    0.028385
  27 H :    0.021715
  28 C :   -0.055852
  29 H :    0.028685
  30 H :    0.024313
  31 H :    0.007892
  32 H :    0.031779
  33 H :    0.027967

  Mayer bond orders larger than 0.100000
B(  0-S ,  1-C ) :   1.1140 B(  0-S ,  4-C ) :   1.0847 B(  1-C ,  2-C ) :   1.7011
B(  1-C , 32-H ) :   0.9519 B(  2-C ,  3-C ) :   1.1544 B(  2-C ,  6-C ) :   1.0003
B(  3-C ,  4-C ) :   1.6816 B(  3-C ,  5-H ) :   0.9869 B(  4-C , 20-C ) :   1.0104
B(  6-C ,  7-H ) :   0.9324 B(  6-C ,  8-H ) :   0.9328 B(  6-C ,  9-C ) :   1.0682
B(  9-C , 10-H ) :   0.9575 B(  9-C , 11-H ) :   0.9472 B(  9-C , 12-C ) :   1.0840
B( 12-C , 13-H ) :   0.9676 B( 12-C , 14-H ) :   0.9758 B( 12-C , 15-H ) :   0.9711
B( 16-S , 17-C ) :   1.1599 B( 16-S , 20-C ) :   1.1478 B( 17-C , 18-C ) :   1.6133
B( 17-C , 33-H ) :   0.9728 B( 18-C , 19-C ) :   1.2102 B( 18-C , 21-H ) :   0.9944
B( 19-C , 20-C ) :   1.6346 B( 19-C , 22-C ) :   1.0292 B( 22-C , 23-H ) :   0.9400
B( 22-C , 24-H ) :   0.9423 B( 22-C , 25-C ) :   1.0631 B( 25-C , 26-H ) :   0.9532
B( 25-C , 27-H ) :   0.9534 B( 25-C , 28-C ) :   1.0928 B( 28-C , 29-H ) :   0.9746
B( 28-C , 30-H ) :   0.9684 B( 28-C , 31-H ) :   0.9681

Dispersion correction           -0.015703297
FINAL SINGLE POINT ENERGY     -1339.861287520770

DIPOLE MOMENT
-------------
                                X             Y             Z
Electronic contribution:    -26.99789       0.42561      -8.99984
Nuclear contribution   :     27.84562      -0.40757       8.96991
                        -----------------------------------------
Total Dipole Moment    :      0.84773       0.01803      -0.02993
                        -----------------------------------------
Magnitude (a.u.)       :      0.84845
Magnitude (Debye)      :      2.15659

Rotational constants in cm-1:     0.018545     0.009878     0.007460
Rotational constants in MHz :   555.955921   296.142816   223.653658

                             ****ORCA TERMINATED NORMALLY****
TOTAL RUN TIME: 0 days 0 hours 0 minutes 22 seconds 796 msec
