                         Program Version 4.2.1 -  RELEASE  -
|  1> ! wB97X-D3 SP def2-SVP
|  2> %pal
|  3> nprocs 24
|  4> end
|  5>
|  6> * xyz 0 1
|  7> S 	 -100.832 	 -1.27763 	 -104.536
|  8> C 	 -100.907 	 -2.50637 	 -105.74
|  9> C 	 -100.531 	 -3.69135 	 -105.172
| 10> C 	 -100.258 	 -3.63936 	 -103.778
| 11> C 	 -100.335 	 -2.37585 	 -103.281
| 12> H 	 -99.9322 	 -4.37678 	 -103.055
| 13> C 	 -100.436 	 -4.96128 	 -106.007
| 14> H 	 -99.3684 	 -5.00225 	 -105.944
| 15> H 	 -100.611 	 -4.79143 	 -107.069
| 16> C 	 -101.065 	 -6.24491 	 -105.564
| 17> H 	 -101.078 	 -6.39513 	 -104.461
| 18> H 	 -102.167 	 -6.11504 	 -105.854
| 19> C 	 -100.503 	 -7.44535 	 -106.316
| 20> H 	 -101.076 	 -7.70187 	 -107.16
| 21> H 	 -99.442 	 -7.34474 	 -106.604
| 22> H 	 -100.587 	 -8.36591 	 -105.723
| 23> S 	 -98.5057 	 -1.86666 	 -101.153
| 24> C 	 -99.1171 	 -1.10473 	 -99.7154
| 25> C 	 -100.478 	 -1.02705 	 -99.7618
| 26> C 	 -101.048 	 -1.5033 	 -100.987
| 27> C 	 -100.148 	 -1.9018 	 -101.93
| 28> H 	 -101.065 	 -0.571409 	 -98.9585
| 29> C 	 -102.624 	 -1.63413 	 -101.101
| 30> H 	 -102.91 	 -2.17212 	 -101.909
| 31> H 	 -103.119 	 -0.670332 	 -101.206
| 32> C 	 -103.375 	 -2.30539 	 -99.8804
| 33> H 	 -104.479 	 -2.07735 	 -99.8388
| 34> H 	 -103.07 	 -1.85074 	 -98.9121
| 35> C 	 -103.109 	 -3.79178 	 -99.8724
| 36> H 	 -103.307 	 -4.08139 	 -98.8468
| 37> H 	 -102.123 	 -3.94666 	 -100.205
| 38> H 	 -103.853 	 -4.26325 	 -100.552
| 39> H 	 -101.016 	 -2.28311 	 -106.719
| 40> H 	 -98.5528 	 -0.808257 	 -98.8841
| 41> *
| 42>
| 43>                          ****END OF INPUT****

CARTESIAN COORDINATES (ANGSTROEM)
---------------------------------
  S    -100.832000   -1.277630  -104.536000
  C    -100.907000   -2.506370  -105.740000
  C    -100.531000   -3.691350  -105.172000
  C    -100.258000   -3.639360  -103.778000
  C    -100.335000   -2.375850  -103.281000
  H    -99.932200   -4.376780  -103.055000
  C    -100.436000   -4.961280  -106.007000
  H    -99.368400   -5.002250  -105.944000
  H    -100.611000   -4.791430  -107.069000
  C    -101.065000   -6.244910  -105.564000
  H    -101.078000   -6.395130  -104.461000
  H    -102.167000   -6.115040  -105.854000
  C    -100.503000   -7.445350  -106.316000
  H    -101.076000   -7.701870  -107.160000
  H    -99.442000   -7.344740  -106.604000
  H    -100.587000   -8.365910  -105.723000
  S    -98.505700   -1.866660  -101.153000
  C    -99.117100   -1.104730  -99.715400
  C    -100.478000   -1.027050  -99.761800
  C    -101.048000   -1.503300  -100.987000
  C    -100.148000   -1.901800  -101.930000
  H    -101.065000   -0.571409  -98.958500
  C    -102.624000   -1.634130  -101.101000
  H    -102.910000   -2.172120  -101.909000
  H    -103.119000   -0.670332  -101.206000
  C    -103.375000   -2.305390  -99.880400
  H    -104.479000   -2.077350  -99.838800
  H    -103.070000   -1.850740  -98.912100
  C    -103.109000   -3.791780  -99.872400
  H    -103.307000   -4.081390  -98.846800
  H    -102.123000   -3.946660  -100.205000
  H    -103.853000   -4.263250  -100.552000
  H    -101.016000   -2.283110  -106.719000
  H    -98.552800   -0.808257  -98.884100

 Total Charge           Charge          ....    0
 Multiplicity           Mult            ....    1
 Number of Electrons    NEL             ....  134
 Basis Dimension        Dim             ....  322

ORBITAL ENERGIES
----------------

  NO   OCC          E(Eh)            E(eV)
   0   2.0000     -88.963600     -2420.8226
   1   2.0000     -88.959343     -2420.7068
   2   2.0000     -10.329175      -281.0712
   3   2.0000     -10.325589      -280.9736
   4   2.0000     -10.315900      -280.7099
   5   2.0000     -10.308028      -280.4957
   6   2.0000     -10.303015      -280.3593
   7   2.0000     -10.302152      -280.3358
   8   2.0000     -10.293421      -280.0982
   9   2.0000     -10.292787      -280.0810
  10   2.0000     -10.292627      -280.0766
  11   2.0000     -10.288264      -279.9579
  12   2.0000     -10.286528      -279.9107
  13   2.0000     -10.285338      -279.8783
  14   2.0000     -10.275946      -279.6227
  15   2.0000     -10.268466      -279.4192
  16   2.0000      -8.077818      -219.8086
  17   2.0000      -8.075119      -219.7352
  18   2.0000      -6.036471      -164.2607
  19   2.0000      -6.033542      -164.1810
  20   2.0000      -6.032449      -164.1513
  21   2.0000      -6.029290      -164.0653
  22   2.0000      -6.028382      -164.0406
  23   2.0000      -6.026089      -163.9782
  24   2.0000      -1.010872       -27.5072
  25   2.0000      -0.987521       -26.8718
  26   2.0000      -0.915649       -24.9161
  27   2.0000      -0.902520       -24.5588
  28   2.0000      -0.877545       -23.8792
  29   2.0000      -0.850110       -23.1327
  30   2.0000      -0.843736       -22.9592
  31   2.0000      -0.821196       -22.3459
  32   2.0000      -0.783847       -21.3295
  33   2.0000      -0.774254       -21.0685
  34   2.0000      -0.712752       -19.3950
  35   2.0000      -0.697863       -18.9898
  36   2.0000      -0.692159       -18.8346
  37   2.0000      -0.664384       -18.0788
  38   2.0000      -0.647642       -17.6232
  39   2.0000      -0.618120       -16.8199
  40   2.0000      -0.602098       -16.3839
  41   2.0000      -0.572188       -15.5700
  42   2.0000      -0.562142       -15.2967
  43   2.0000      -0.553130       -15.0514
  44   2.0000      -0.534178       -14.5357
  45   2.0000      -0.529581       -14.4106
  46   2.0000      -0.525153       -14.2902
  47   2.0000      -0.520009       -14.1502
  48   2.0000      -0.507957       -13.8222
  49   2.0000      -0.504205       -13.7201
  50   2.0000      -0.493052       -13.4166
  51   2.0000      -0.477763       -13.0006
  52   2.0000      -0.475555       -12.9405
  53   2.0000      -0.467567       -12.7232
  54   2.0000      -0.459829       -12.5126
  55   2.0000      -0.448650       -12.2084
  56   2.0000      -0.444590       -12.0979
  57   2.0000      -0.438254       -11.9255
  58   2.0000      -0.430063       -11.7026
  59   2.0000      -0.419185       -11.4066
  60   2.0000      -0.414478       -11.2785
  61   2.0000      -0.405909       -11.0454
  62   2.0000      -0.403148       -10.9702
  63   2.0000      -0.342611        -9.3229
  64   2.0000      -0.330213        -8.9856
  65   2.0000      -0.325178        -8.8485
  66   2.0000      -0.306985        -8.3535
  67   0.0000       0.041111         1.1187
  68   0.0000       0.059318         1.6141
  69   0.0000       0.110562         3.0086
  70   0.0000       0.129008         3.5105
  71   0.0000       0.137894         3.7523

MULLIKEN ATOMIC CHARGES
-----------------------
   0 S :    0.107853
   1 C :   -0.087127
   2 C :   -0.062378
   3 C :    0.038020
   4 C :   -0.188391
   5 H :    0.013007
   6 C :    0.064216
   7 H :    0.026396
   8 H :    0.015776
   9 C :   -0.087027
  10 H :    0.041119
  11 H :    0.039973
  12 C :   -0.038090
  13 H :    0.023985
  14 H :    0.036485
  15 H :    0.027396
  16 S :    0.094429
  17 C :   -0.060568
  18 C :   -0.037897
  19 C :   -0.011526
  20 C :   -0.181137
  21 H :    0.028806
  22 C :    0.119851
  23 H :   -0.001721
  24 H :    0.030947
  25 C :   -0.145407
  26 H :    0.032502
  27 H :    0.020258
  28 C :   -0.011263
  29 H :    0.029813
  30 H :    0.033169
  31 H :    0.036750
  32 H :    0.009737
  33 H :    0.042043
Sum of atomic charges:    0.0000000

LOEWDIN ATOMIC CHARGES
----------------------
   0 S :    0.420739
   1 C :   -0.189393
   2 C :   -0.054935
   3 C :   -0.065648
   4 C :   -0.194016
   5 H :    0.036176
   6 C :   -0.039573
   7 H :    0.031362
   8 H :    0.029481
   9 C :   -0.049346
  10 H :    0.027072
  11 H :    0.035389
  12 C :   -0.067162
  13 H :    0.020926
  14 H :    0.028467
  15 H :    0.030842
  16 S :    0.377097
  17 C :   -0.170066
  18 C :   -0.075869
  19 C :   -0.048458
  20 C :   -0.188921
  21 H :    0.034208
  22 C :   -0.018623
  23 H :    0.011273
  24 H :    0.033227
  25 C :   -0.047145
  26 H :    0.027890
  27 H :    0.016234
  28 C :   -0.059358
  29 H :    0.026800
  30 H :    0.019729
  31 H :    0.030355
  32 H :    0.007661
  33 H :    0.023586

  Mayer bond orders larger than 0.100000
B(  0-S ,  1-C ) :   1.1400 B(  0-S ,  4-C ) :   1.1651 B(  1-C ,  2-C ) :   1.5981
B(  1-C , 32-H ) :   0.9914 B(  2-C ,  3-C ) :   1.2138 B(  2-C ,  6-C ) :   0.9999
B(  3-C ,  4-C ) :   1.6002 B(  3-C ,  5-H ) :   0.9974 B(  4-C , 20-C ) :   1.0232
B(  6-C ,  7-H ) :   0.9324 B(  6-C ,  8-H ) :   0.9459 B(  6-C ,  9-C ) :   1.0616
B(  9-C , 10-H ) :   0.9612 B(  9-C , 11-H ) :   0.9553 B(  9-C , 12-C ) :   1.0658
B( 12-C , 13-H ) :   0.9754 B( 12-C , 14-H ) :   0.9793 B( 12-C , 15-H ) :   0.9730
B( 16-S , 17-C ) :   1.1506 B( 16-S , 20-C ) :   1.1057 B( 17-C , 18-C ) :   1.6231
B( 17-C , 33-H ) :   0.9728 B( 18-C , 19-C ) :   1.2242 B( 18-C , 21-H ) :   0.9863
B( 19-C , 20-C ) :   1.6365 B( 19-C , 22-C ) :   1.0307 B( 22-C , 23-H ) :   0.9404
B( 22-C , 24-H ) :   0.9353 B( 22-C , 25-C ) :   1.0642 B( 25-C , 26-H ) :   0.9565
B( 25-C , 27-H ) :   0.9599 B( 25-C , 28-C ) :   1.0652 B( 28-C , 29-H ) :   0.9748
B( 28-C , 30-H ) :   0.9802 B( 28-C , 31-H ) :   0.9748

Dispersion correction           -0.014230687
FINAL SINGLE POINT ENERGY     -1339.861062786717

DIPOLE MOMENT
-------------
                                X             Y             Z
Electronic contribution:     14.04799      20.52260       1.24342
Nuclear contribution   :    -14.35872     -20.89370      -1.18832
                        -----------------------------------------
Total Dipole Moment    :     -0.31073      -0.37109       0.05510
                        -----------------------------------------
Magnitude (a.u.)       :      0.48714
Magnitude (Debye)      :      1.23820

Rotational constants in cm-1:     0.019091     0.007707     0.007012
Rotational constants in MHz :   572.348358   231.044174   210.213553

                             ****ORCA TERMINATED NORMALLY****
TOTAL RUN TIME: 0 days 0 hours 0 minutes 20 seconds 152 msec
