                         Program Version 4.2.1 -  RELEASE  -
|  1> ! wB97X-D3 SP def2-SVP
|  2> %pal
|  3> nprocs 24
|  4> end
|  5>
|  6> * xyz 0 1
|  7> S 	 -86.6873 	 -48.7755 	 -71.0032
|  8> C 	 -85.5639 	 -47.7213 	 -70.1117
|  9> C 	 -86.093 	 -46.4683 	 -69.8202
| 10> C 	 -87.443 	 -46.3415 	 -70.2749
| 11> C 	 -87.8628 	 -47.4333 	 -70.9672
| 12> H 	 -88.1295 	 -45.4464 	 -70.2127
| 13> C 	 -85.3051 	 -45.4293 	 -69.1068
| 14> H 	 -85.0354 	 -44.5787 	 -69.6734
| 15> H 	 -84.2342 	 -45.7767 	 -69.0033
| 16> C 	 -85.7899 	 -45.0575 	 -67.6462
| 17> H 	 -85.0369 	 -44.352 	 -67.2452
| 18> H 	 -86.7387 	 -44.5942 	 -67.7716
| 19> C 	 -85.8671 	 -46.291 	 -66.7004
| 20> H 	 -86.3993 	 -47.1349 	 -67.2068
| 21> H 	 -84.8563 	 -46.7627 	 -66.6393
| 22> H 	 -86.3295 	 -46.0366 	 -65.733
| 23> S 	 -89.6576 	 -45.8467 	 -72.4136
| 24> C 	 -90.7458 	 -46.6753 	 -73.4927
| 25> C 	 -90.9131 	 -48.0222 	 -73.0979
| 26> C 	 -89.9698 	 -48.4997 	 -72.0865
| 27> C 	 -89.1007 	 -47.464 	 -71.7297
| 28> H 	 -91.7115 	 -48.6111 	 -73.4452
| 29> C 	 -89.9639 	 -49.951 	 -71.5451
| 30> H 	 -91.0532 	 -50.1621 	 -71.3041
| 31> H 	 -89.3736 	 -49.9685 	 -70.6361
| 32> C 	 -89.2786 	 -50.9965 	 -72.4473
| 33> H 	 -89.2551 	 -51.9425 	 -71.9226
| 34> H 	 -88.2083 	 -50.7981 	 -72.5479
| 35> C 	 -89.8786 	 -51.234 	 -73.8469
| 36> H 	 -90.1173 	 -50.2693 	 -74.3136
| 37> H 	 -90.8008 	 -51.7881 	 -73.7827
| 38> H 	 -89.2103 	 -51.7946 	 -74.3567
| 39> H 	 -84.5591 	 -47.9108 	 -69.7134
| 40> H 	 -91.3228 	 -46.1705 	 -74.2667
| 41> *
| 42>
| 43>                          ****END OF INPUT****

CARTESIAN COORDINATES (ANGSTROEM)
---------------------------------
  S    -86.687300  -48.775500  -71.003200
  C    -85.563900  -47.721300  -70.111700
  C    -86.093000  -46.468300  -69.820200
  C    -87.443000  -46.341500  -70.274900
  C    -87.862800  -47.433300  -70.967200
  H    -88.129500  -45.446400  -70.212700
  C    -85.305100  -45.429300  -69.106800
  H    -85.035400  -44.578700  -69.673400
  H    -84.234200  -45.776700  -69.003300
  C    -85.789900  -45.057500  -67.646200
  H    -85.036900  -44.352000  -67.245200
  H    -86.738700  -44.594200  -67.771600
  C    -85.867100  -46.291000  -66.700400
  H    -86.399300  -47.134900  -67.206800
  H    -84.856300  -46.762700  -66.639300
  H    -86.329500  -46.036600  -65.733000
  S    -89.657600  -45.846700  -72.413600
  C    -90.745800  -46.675300  -73.492700
  C    -90.913100  -48.022200  -73.097900
  C    -89.969800  -48.499700  -72.086500
  C    -89.100700  -47.464000  -71.729700
  H    -91.711500  -48.611100  -73.445200
  C    -89.963900  -49.951000  -71.545100
  H    -91.053200  -50.162100  -71.304100
  H    -89.373600  -49.968500  -70.636100
  C    -89.278600  -50.996500  -72.447300
  H    -89.255100  -51.942500  -71.922600
  H    -88.208300  -50.798100  -72.547900
  C    -89.878600  -51.234000  -73.846900
  H    -90.117300  -50.269300  -74.313600
  H    -90.800800  -51.788100  -73.782700
  H    -89.210300  -51.794600  -74.356700
  H    -84.559100  -47.910800  -69.713400
  H    -91.322800  -46.170500  -74.266700

 Total Charge           Charge          ....    0
 Multiplicity           Mult            ....    1
 Number of Electrons    NEL             ....  134
 Basis Dimension        Dim             ....  322

ORBITAL ENERGIES
----------------

  NO   OCC          E(Eh)            E(eV)
   0   2.0000     -88.974666     -2421.1237
   1   2.0000     -88.966098     -2420.8906
   2   2.0000     -10.333295      -281.1833
   3   2.0000     -10.331088      -281.1232
   4   2.0000     -10.325010      -280.9578
   5   2.0000     -10.317000      -280.7398
   6   2.0000     -10.311664      -280.5946
   7   2.0000     -10.302884      -280.3557
   8   2.0000     -10.302274      -280.3391
   9   2.0000     -10.298673      -280.2411
  10   2.0000     -10.296279      -280.1760
  11   2.0000     -10.292125      -280.0630
  12   2.0000     -10.290635      -280.0224
  13   2.0000     -10.285195      -279.8744
  14   2.0000     -10.282220      -279.7934
  15   2.0000     -10.265881      -279.3488
  16   2.0000      -8.087538      -220.0731
  17   2.0000      -8.079766      -219.8616
  18   2.0000      -6.046255      -164.5270
  19   2.0000      -6.042491      -164.4245
  20   2.0000      -6.038447      -164.3145
  21   2.0000      -6.038021      -164.3029
  22   2.0000      -6.034665      -164.2116
  23   2.0000      -6.030182      -164.0896
  24   2.0000      -1.000361       -27.2212
  25   2.0000      -0.974347       -26.5133
  26   2.0000      -0.907325       -24.6896
  27   2.0000      -0.904814       -24.6212
  28   2.0000      -0.864635       -23.5279
  29   2.0000      -0.850636       -23.1470
  30   2.0000      -0.842560       -22.9272
  31   2.0000      -0.808021       -21.9874
  32   2.0000      -0.788619       -21.4594
  33   2.0000      -0.771666       -20.9981
  34   2.0000      -0.710335       -19.3292
  35   2.0000      -0.695274       -18.9194
  36   2.0000      -0.688324       -18.7303
  37   2.0000      -0.669639       -18.2218
  38   2.0000      -0.627574       -17.0772
  39   2.0000      -0.617277       -16.7970
  40   2.0000      -0.590024       -16.0554
  41   2.0000      -0.564405       -15.3582
  42   2.0000      -0.555500       -15.1159
  43   2.0000      -0.548409       -14.9230
  44   2.0000      -0.546249       -14.8642
  45   2.0000      -0.536275       -14.5928
  46   2.0000      -0.522391       -14.2150
  47   2.0000      -0.509178       -13.8554
  48   2.0000      -0.498564       -13.5666
  49   2.0000      -0.488028       -13.2799
  50   2.0000      -0.481707       -13.1079
  51   2.0000      -0.477742       -13.0000
  52   2.0000      -0.470627       -12.8064
  53   2.0000      -0.468221       -12.7409
  54   2.0000      -0.456417       -12.4197
  55   2.0000      -0.449494       -12.2313
  56   2.0000      -0.445258       -12.1161
  57   2.0000      -0.438870       -11.9423
  58   2.0000      -0.429728       -11.6935
  59   2.0000      -0.425892       -11.5891
  60   2.0000      -0.420531       -11.4432
  61   2.0000      -0.413481       -11.2514
  62   2.0000      -0.409257       -11.1364
  63   2.0000      -0.355679        -9.6785
  64   2.0000      -0.335907        -9.1405
  65   2.0000      -0.328296        -8.9334
  66   2.0000      -0.280514        -7.6332
  67   0.0000       0.017374         0.4728
  68   0.0000       0.064973         1.7680
  69   0.0000       0.094193         2.5631
  70   0.0000       0.102447         2.7877
  71   0.0000       0.130311         3.5459

MULLIKEN ATOMIC CHARGES
-----------------------
   0 S :    0.107013
   1 C :   -0.104040
   2 C :   -0.078335
   3 C :   -0.032665
   4 C :   -0.101066
   5 H :    0.044343
   6 C :    0.037741
   7 H :    0.028279
   8 H :    0.003510
   9 C :   -0.066264
  10 H :    0.040119
  11 H :    0.032297
  12 C :   -0.078387
  13 H :    0.046323
  14 H :    0.024960
  15 H :    0.053048
  16 S :    0.079631
  17 C :   -0.088180
  18 C :   -0.020599
  19 C :   -0.062804
  20 C :   -0.153591
  21 H :    0.007519
  22 C :    0.058063
  23 H :    0.048451
  24 H :    0.027016
  25 C :   -0.083436
  26 H :    0.024723
  27 H :    0.025999
  28 C :   -0.003348
  29 H :    0.036324
  30 H :    0.019809
  31 H :    0.013387
  32 H :    0.045951
  33 H :    0.068208
Sum of atomic charges:   -0.0000000

LOEWDIN ATOMIC CHARGES
----------------------
   0 S :    0.388275
   1 C :   -0.196311
   2 C :   -0.059091
   3 C :   -0.076887
   4 C :   -0.172591
   5 H :    0.038665
   6 C :   -0.040870
   7 H :    0.028037
   8 H :    0.032257
   9 C :   -0.033458
  10 H :    0.028622
  11 H :    0.016388
  12 C :   -0.076234
  13 H :    0.031505
  14 H :    0.027433
  15 H :    0.029831
  16 S :    0.369486
  17 C :   -0.182333
  18 C :   -0.066855
  19 C :   -0.052903
  20 C :   -0.164206
  21 H :    0.019886
  22 C :   -0.032744
  23 H :    0.042127
  24 H :    0.027491
  25 C :   -0.041723
  26 H :    0.024012
  27 H :    0.018950
  28 C :   -0.054907
  29 H :    0.028201
  30 H :    0.022507
  31 H :    0.012778
  32 H :    0.032178
  33 H :    0.032485

  Mayer bond orders larger than 0.100000
B(  0-S ,  1-C ) :   1.1059 B(  0-S ,  4-C ) :   1.1170 B(  1-C ,  2-C ) :   1.6472
B(  1-C , 32-H ) :   0.9543 B(  2-C ,  3-C ) :   1.2050 B(  2-C ,  6-C ) :   1.0392
B(  3-C ,  4-C ) :   1.5939 B(  3-C ,  5-H ) :   0.9775 B(  4-C , 20-C ) :   1.0922
B(  6-C ,  7-H ) :   0.9375 B(  6-C ,  8-H ) :   0.9331 B(  6-C ,  9-C ) :   1.0554
B(  9-C , 10-H ) :   0.9580 B(  9-C , 11-H ) :   0.9619 B(  9-C , 12-C ) :   1.0674
B( 12-C , 13-H ) :   0.9729 B( 12-C , 14-H ) :   0.9731 B( 12-C , 15-H ) :   0.9751
B( 16-S , 17-C ) :   1.1450 B( 16-S , 20-C ) :   1.1098 B( 17-C , 18-C ) :   1.6107
B( 17-C , 33-H ) :   0.9688 B( 18-C , 19-C ) :   1.2083 B( 18-C , 21-H ) :   0.9881
B( 19-C , 20-C ) :   1.5975 B( 19-C , 22-C ) :   1.0331 B( 22-C , 23-H ) :   0.9392
B( 22-C , 24-H ) :   0.9289 B( 22-C , 25-C ) :   1.0756 B( 25-C , 26-H ) :   0.9521
B( 25-C , 27-H ) :   0.9509 B( 25-C , 28-C ) :   1.0814 B( 28-C , 29-H ) :   0.9719
B( 28-C , 30-H ) :   0.9745 B( 28-C , 31-H ) :   0.9714

Dispersion correction           -0.014826146
FINAL SINGLE POINT ENERGY     -1339.865545684665

DIPOLE MOMENT
-------------
                                X             Y             Z
Electronic contribution:     -3.64525       6.59244      -9.23482
Nuclear contribution   :      3.60336      -6.65745       9.34425
                        -----------------------------------------
Total Dipole Moment    :     -0.04190      -0.06501       0.10943
                        -----------------------------------------
Magnitude (a.u.)       :      0.13401
Magnitude (Debye)      :      0.34061

Rotational constants in cm-1:     0.023291     0.008038     0.006569
Rotational constants in MHz :   698.260818   240.958631   196.944170

                             ****ORCA TERMINATED NORMALLY****
TOTAL RUN TIME: 0 days 0 hours 0 minutes 21 seconds 367 msec
