                         Program Version 4.2.1 -  RELEASE  -
|  1> ! wB97X-D3 SP def2-SVP
|  2> %pal
|  3> nprocs 24
|  4> end
|  5>
|  6> * xyz 0 1
|  7> S 	 -3.68559 	 -21.1041 	 -105.794
|  8> C 	 -3.22454 	 -22.7439 	 -106.139
|  9> C 	 -3.63516 	 -23.665 	 -105.179
| 10> C 	 -4.3706 	 -23.021 	 -104.156
| 11> C 	 -4.41734 	 -21.6413 	 -104.292
| 12> H 	 -4.96712 	 -23.5365 	 -103.399
| 13> C 	 -3.40242 	 -25.1937 	 -105.308
| 14> H 	 -2.7567 	 -25.3127 	 -106.249
| 15> H 	 -4.4026 	 -25.581 	 -105.531
| 16> C 	 -2.75982 	 -25.9564 	 -104.179
| 17> H 	 -1.94876 	 -25.3336 	 -103.761
| 18> H 	 -3.38782 	 -26.0974 	 -103.325
| 19> C 	 -2.36729 	 -27.3582 	 -104.619
| 20> H 	 -1.63224 	 -27.31 	 -105.332
| 21> H 	 -1.97464 	 -27.8521 	 -103.703
| 22> H 	 -3.25873 	 -27.8198 	 -104.948
| 23> S 	 -6.45266 	 -19.755 	 -104.177
| 24> C 	 -6.75738 	 -18.8692 	 -102.699
| 25> C 	 -6.05587 	 -19.3637 	 -101.627
| 26> C 	 -5.16556 	 -20.418 	 -101.997
| 27> C 	 -5.16457 	 -20.7037 	 -103.416
| 28> H 	 -6.17806 	 -18.9413 	 -100.665
| 29> C 	 -4.0937 	 -20.9861 	 -101.069
| 30> H 	 -3.67695 	 -21.8574 	 -101.554
| 31> H 	 -4.5864 	 -21.2402 	 -100.094
| 32> C 	 -2.95635 	 -19.9335 	 -100.754
| 33> H 	 -2.64843 	 -19.4495 	 -101.719
| 34> H 	 -2.03157 	 -20.5581 	 -100.554
| 35> C 	 -3.29402 	 -18.7973 	 -99.778
| 36> H 	 -2.34468 	 -18.2675 	 -99.5631
| 37> H 	 -3.85733 	 -19.2253 	 -98.9295
| 38> H 	 -3.99261 	 -18.0452 	 -100.173
| 39> H 	 -2.78696 	 -23.0023 	 -107.06
| 40> H 	 -7.29402 	 -17.9732 	 -102.63
| 41> *
| 42>
| 43>                          ****END OF INPUT****

CARTESIAN COORDINATES (ANGSTROEM)
---------------------------------
  S     -3.685590  -21.104100  -105.794000
  C     -3.224540  -22.743900  -106.139000
  C     -3.635160  -23.665000  -105.179000
  C     -4.370600  -23.021000  -104.156000
  C     -4.417340  -21.641300  -104.292000
  H     -4.967120  -23.536500  -103.399000
  C     -3.402420  -25.193700  -105.308000
  H     -2.756700  -25.312700  -106.249000
  H     -4.402600  -25.581000  -105.531000
  C     -2.759820  -25.956400  -104.179000
  H     -1.948760  -25.333600  -103.761000
  H     -3.387820  -26.097400  -103.325000
  C     -2.367290  -27.358200  -104.619000
  H     -1.632240  -27.310000  -105.332000
  H     -1.974640  -27.852100  -103.703000
  H     -3.258730  -27.819800  -104.948000
  S     -6.452660  -19.755000  -104.177000
  C     -6.757380  -18.869200  -102.699000
  C     -6.055870  -19.363700  -101.627000
  C     -5.165560  -20.418000  -101.997000
  C     -5.164570  -20.703700  -103.416000
  H     -6.178060  -18.941300  -100.665000
  C     -4.093700  -20.986100  -101.069000
  H     -3.676950  -21.857400  -101.554000
  H     -4.586400  -21.240200  -100.094000
  C     -2.956350  -19.933500  -100.754000
  H     -2.648430  -19.449500  -101.719000
  H     -2.031570  -20.558100  -100.554000
  C     -3.294020  -18.797300  -99.778000
  H     -2.344680  -18.267500  -99.563100
  H     -3.857330  -19.225300  -98.929500
  H     -3.992610  -18.045200  -100.173000
  H     -2.786960  -23.002300  -107.060000
  H     -7.294020  -17.973200  -102.630000

 Total Charge           Charge          ....    0
 Multiplicity           Mult            ....    1
 Number of Electrons    NEL             ....  134
 Basis Dimension        Dim             ....  322

ORBITAL ENERGIES
----------------

  NO   OCC          E(Eh)            E(eV)
   0   2.0000     -88.969530     -2420.9840
   1   2.0000     -88.963464     -2420.8189
   2   2.0000     -10.332288      -281.1558
   3   2.0000     -10.331352      -281.1304
   4   2.0000     -10.311504      -280.5903
   5   2.0000     -10.311403      -280.5875
   6   2.0000     -10.308036      -280.4959
   7   2.0000     -10.303319      -280.3676
   8   2.0000     -10.300528      -280.2916
   9   2.0000     -10.295953      -280.1671
  10   2.0000     -10.293542      -280.1015
  11   2.0000     -10.291947      -280.0581
  12   2.0000     -10.290974      -280.0316
  13   2.0000     -10.284033      -279.8428
  14   2.0000     -10.283100      -279.8174
  15   2.0000     -10.272706      -279.5345
  16   2.0000      -8.084313      -219.9853
  17   2.0000      -8.077788      -219.8078
  18   2.0000      -6.042655      -164.4290
  19   2.0000      -6.038862      -164.3258
  20   2.0000      -6.036264      -164.2551
  21   2.0000      -6.035200      -164.2261
  22   2.0000      -6.032239      -164.1456
  23   2.0000      -6.028732      -164.0501
  24   2.0000      -1.002049       -27.2671
  25   2.0000      -0.979890       -26.6642
  26   2.0000      -0.915528       -24.9128
  27   2.0000      -0.898120       -24.4391
  28   2.0000      -0.868777       -23.6406
  29   2.0000      -0.853243       -23.2179
  30   2.0000      -0.840730       -22.8774
  31   2.0000      -0.815866       -22.2008
  32   2.0000      -0.782545       -21.2941
  33   2.0000      -0.767315       -20.8797
  34   2.0000      -0.708154       -19.2699
  35   2.0000      -0.695459       -18.9244
  36   2.0000      -0.686523       -18.6812
  37   2.0000      -0.657627       -17.8949
  38   2.0000      -0.644114       -17.5272
  39   2.0000      -0.620551       -16.8861
  40   2.0000      -0.587870       -15.9968
  41   2.0000      -0.577673       -15.7193
  42   2.0000      -0.568252       -15.4629
  43   2.0000      -0.550111       -14.9693
  44   2.0000      -0.530660       -14.4400
  45   2.0000      -0.526648       -14.3308
  46   2.0000      -0.517983       -14.0950
  47   2.0000      -0.511053       -13.9065
  48   2.0000      -0.502945       -13.6858
  49   2.0000      -0.495392       -13.4803
  50   2.0000      -0.485354       -13.2071
  51   2.0000      -0.480840       -13.0843
  52   2.0000      -0.472923       -12.8689
  53   2.0000      -0.471344       -12.8259
  54   2.0000      -0.457728       -12.4554
  55   2.0000      -0.452953       -12.3255
  56   2.0000      -0.439065       -11.9476
  57   2.0000      -0.437274       -11.8988
  58   2.0000      -0.431407       -11.7392
  59   2.0000      -0.427891       -11.6435
  60   2.0000      -0.423212       -11.5162
  61   2.0000      -0.420122       -11.4321
  62   2.0000      -0.400523       -10.8988
  63   2.0000      -0.342783        -9.3276
  64   2.0000      -0.331287        -9.0148
  65   2.0000      -0.327045        -8.8993
  66   2.0000      -0.290373        -7.9014
  67   0.0000       0.026860         0.7309
  68   0.0000       0.069758         1.8982
  69   0.0000       0.113025         3.0756
  70   0.0000       0.122659         3.3377
  71   0.0000       0.129379         3.5206

MULLIKEN ATOMIC CHARGES
-----------------------
   0 S :    0.122008
   1 C :   -0.113470
   2 C :   -0.082728
   3 C :    0.035112
   4 C :   -0.166476
   5 H :    0.026136
   6 C :    0.040794
   7 H :    0.026019
   8 H :    0.039365
   9 C :   -0.080126
  10 H :    0.030276
  11 H :    0.017659
  12 C :    0.000937
  13 H :    0.017748
  14 H :    0.037934
  15 H :    0.025215
  16 S :    0.101361
  17 C :   -0.068772
  18 C :   -0.031748
  19 C :   -0.029866
  20 C :   -0.174837
  21 H :    0.007445
  22 C :    0.062282
  23 H :    0.022432
  24 H :    0.031611
  25 C :   -0.105024
  26 H :    0.032120
  27 H :    0.039164
  28 C :   -0.049285
  29 H :    0.050620
  30 H :    0.029191
  31 H :    0.038024
  32 H :    0.029476
  33 H :    0.039404
Sum of atomic charges:   -0.0000000

LOEWDIN ATOMIC CHARGES
----------------------
   0 S :    0.415267
   1 C :   -0.193189
   2 C :   -0.063468
   3 C :   -0.061223
   4 C :   -0.200211
   5 H :    0.036675
   6 C :   -0.034101
   7 H :    0.036487
   8 H :    0.033024
   9 C :   -0.047658
  10 H :    0.026353
  11 H :    0.019034
  12 C :   -0.044702
  13 H :    0.011304
  14 H :    0.034655
  15 H :    0.022628
  16 S :    0.397174
  17 C :   -0.176005
  18 C :   -0.069211
  19 C :   -0.051105
  20 C :   -0.201803
  21 H :    0.026538
  22 C :   -0.033766
  23 H :    0.028092
  24 H :    0.031502
  25 C :   -0.050369
  26 H :    0.028902
  27 H :    0.030603
  28 C :   -0.072886
  29 H :    0.036427
  30 H :    0.023931
  31 H :    0.026552
  32 H :    0.015029
  33 H :    0.019520

  Mayer bond orders larger than 0.100000
B(  0-S ,  1-C ) :   1.1488 B(  0-S ,  4-C ) :   1.1611 B(  1-C ,  2-C ) :   1.6023
B(  1-C , 32-H ) :   0.9706 B(  2-C ,  3-C ) :   1.2572 B(  2-C ,  6-C ) :   1.0113
B(  3-C ,  4-C ) :   1.5611 B(  3-C ,  5-H ) :   0.9911 B(  4-C , 20-C ) :   1.0295
B(  6-C ,  7-H ) :   0.9470 B(  6-C ,  8-H ) :   0.9313 B(  6-C ,  9-C ) :   1.0658
B(  9-C , 10-H ) :   0.9567 B(  9-C , 11-H ) :   0.9484 B(  9-C , 12-C ) :   1.0829
B( 12-C , 13-H ) :   0.9793 B( 12-C , 14-H ) :   0.9736 B( 12-C , 15-H ) :   0.9731
B( 16-S , 17-C ) :   1.1585 B( 16-S , 20-C ) :   1.1498 B( 17-C , 18-C ) :   1.6012
B( 17-C , 20-C ) :   0.1055 B( 17-C , 33-H ) :   0.9696 B( 18-C , 19-C ) :   1.2483
B( 18-C , 21-H ) :   0.9934 B( 19-C , 20-C ) :   1.5581 B( 19-C , 22-C ) :   1.0560
B( 22-C , 23-H ) :   0.9326 B( 22-C , 24-H ) :   0.9369 B( 22-C , 25-C ) :   1.0605
B( 25-C , 26-H ) :   0.9528 B( 25-C , 27-H ) :   0.9610 B( 25-C , 28-C ) :   1.0677
B( 28-C , 29-H ) :   0.9695 B( 28-C , 30-H ) :   0.9764 B( 28-C , 31-H ) :   0.9680

Dispersion correction           -0.013892016
FINAL SINGLE POINT ENERGY     -1339.876189276703

DIPOLE MOMENT
-------------
                                X             Y             Z
Electronic contribution:    -13.03102      15.89261     -15.14318
Nuclear contribution   :     13.21492     -16.25842      15.45066
                        -----------------------------------------
Total Dipole Moment    :      0.18389      -0.36581       0.30748
                        -----------------------------------------
Magnitude (a.u.)       :      0.51203
Magnitude (Debye)      :      1.30148

Rotational constants in cm-1:     0.020147     0.007466     0.006246
Rotational constants in MHz :   603.982383   223.822493   187.258518

                             ****ORCA TERMINATED NORMALLY****
TOTAL RUN TIME: 0 days 0 hours 0 minutes 21 seconds 187 msec
