                         Program Version 4.2.1 -  RELEASE  -
|  1> ! wB97X-D3 SP def2-SVP
|  2> %pal
|  3> nprocs 24
|  4> end
|  5>
|  6> * xyz 0 1
|  7> S 	 -98.4985 	 45.3924 	 -88.8381
|  8> C 	 -98.1057 	 43.6868 	 -88.9873
|  9> C 	 -99.2078 	 42.9495 	 -88.8367
| 10> C 	 -100.431 	 43.7068 	 -88.7076
| 11> C 	 -100.158 	 45.0489 	 -88.4776
| 12> H 	 -101.362 	 43.2468 	 -88.6146
| 13> C 	 -99.3058 	 41.4181 	 -88.8805
| 14> H 	 -98.479 	 41.0996 	 -89.5171
| 15> H 	 -100.266 	 41.0918 	 -89.3227
| 16> C 	 -99.1752 	 40.7496 	 -87.5144
| 17> H 	 -98.9603 	 39.6444 	 -87.7046
| 18> H 	 -98.2601 	 41.1564 	 -87.1163
| 19> C 	 -100.438 	 40.7693 	 -86.6446
| 20> H 	 -100.754 	 41.832 	 -86.4548
| 21> H 	 -101.255 	 40.3221 	 -87.1874
| 22> H 	 -100.317 	 40.1374 	 -85.7318
| 23> S 	 -101.293 	 47.4131 	 -89.3951
| 24> C 	 -102.695 	 48.078 	 -88.5262
| 25> C 	 -103.127 	 47.2311 	 -87.5273
| 26> C 	 -102.264 	 46.0975 	 -87.3085
| 27> C 	 -101.167 	 46.0623 	 -88.205
| 28> H 	 -103.835 	 47.6952 	 -86.8721
| 29> C 	 -102.59 	 45.0715 	 -86.2612
| 30> H 	 -101.968 	 44.1602 	 -86.4174
| 31> H 	 -103.576 	 44.7226 	 -86.4296
| 32> C 	 -102.325 	 45.3849 	 -84.811
| 33> H 	 -102.926 	 46.2635 	 -84.5412
| 34> H 	 -101.274 	 45.554 	 -84.6728
| 35> C 	 -102.626 	 44.2388 	 -83.8695
| 36> H 	 -103.695 	 44.0757 	 -83.7417
| 37> H 	 -102.247 	 44.4361 	 -82.8791
| 38> H 	 -102.15 	 43.3256 	 -84.139
| 39> H 	 -97.1191 	 43.3828 	 -89.359
| 40> H 	 -102.896 	 49.161 	 -88.515
| 41> *
| 42>
| 43>                          ****END OF INPUT****

CARTESIAN COORDINATES (ANGSTROEM)
---------------------------------
  S    -98.498500   45.392400  -88.838100
  C    -98.105700   43.686800  -88.987300
  C    -99.207800   42.949500  -88.836700
  C    -100.431000   43.706800  -88.707600
  C    -100.158000   45.048900  -88.477600
  H    -101.362000   43.246800  -88.614600
  C    -99.305800   41.418100  -88.880500
  H    -98.479000   41.099600  -89.517100
  H    -100.266000   41.091800  -89.322700
  C    -99.175200   40.749600  -87.514400
  H    -98.960300   39.644400  -87.704600
  H    -98.260100   41.156400  -87.116300
  C    -100.438000   40.769300  -86.644600
  H    -100.754000   41.832000  -86.454800
  H    -101.255000   40.322100  -87.187400
  H    -100.317000   40.137400  -85.731800
  S    -101.293000   47.413100  -89.395100
  C    -102.695000   48.078000  -88.526200
  C    -103.127000   47.231100  -87.527300
  C    -102.264000   46.097500  -87.308500
  C    -101.167000   46.062300  -88.205000
  H    -103.835000   47.695200  -86.872100
  C    -102.590000   45.071500  -86.261200
  H    -101.968000   44.160200  -86.417400
  H    -103.576000   44.722600  -86.429600
  C    -102.325000   45.384900  -84.811000
  H    -102.926000   46.263500  -84.541200
  H    -101.274000   45.554000  -84.672800
  C    -102.626000   44.238800  -83.869500
  H    -103.695000   44.075700  -83.741700
  H    -102.247000   44.436100  -82.879100
  H    -102.150000   43.325600  -84.139000
  H    -97.119100   43.382800  -89.359000
  H    -102.896000   49.161000  -88.515000

 Total Charge           Charge          ....    0
 Multiplicity           Mult            ....    1
 Number of Electrons    NEL             ....  134
 Basis Dimension        Dim             ....  322

ORBITAL ENERGIES
----------------

  NO   OCC          E(Eh)            E(eV)
   0   2.0000     -88.965165     -2420.8652
   1   2.0000     -88.962454     -2420.7914
   2   2.0000     -10.335082      -281.2319
   3   2.0000     -10.331443      -281.1328
   4   2.0000     -10.319832      -280.8169
   5   2.0000     -10.314663      -280.6763
   6   2.0000     -10.312363      -280.6137
   7   2.0000     -10.298632      -280.2400
   8   2.0000     -10.295453      -280.1535
   9   2.0000     -10.293638      -280.1041
  10   2.0000     -10.292626      -280.0766
  11   2.0000     -10.290054      -280.0066
  12   2.0000     -10.286565      -279.9117
  13   2.0000     -10.286265      -279.9035
  14   2.0000     -10.281536      -279.7748
  15   2.0000     -10.272041      -279.5164
  16   2.0000      -8.080467      -219.8807
  17   2.0000      -8.076214      -219.7650
  18   2.0000      -6.039031      -164.3304
  19   2.0000      -6.034912      -164.2183
  20   2.0000      -6.034793      -164.2151
  21   2.0000      -6.031106      -164.1147
  22   2.0000      -6.030879      -164.1086
  23   2.0000      -6.026931      -164.0011
  24   2.0000      -1.007144       -27.4058
  25   2.0000      -0.979563       -26.6553
  26   2.0000      -0.914775       -24.8923
  27   2.0000      -0.912112       -24.8198
  28   2.0000      -0.871893       -23.7254
  29   2.0000      -0.852156       -23.1884
  30   2.0000      -0.844233       -22.9727
  31   2.0000      -0.816120       -22.2077
  32   2.0000      -0.785198       -21.3663
  33   2.0000      -0.774138       -21.0654
  34   2.0000      -0.708679       -19.2841
  35   2.0000      -0.697511       -18.9802
  36   2.0000      -0.692382       -18.8407
  37   2.0000      -0.659611       -17.9489
  38   2.0000      -0.644103       -17.5269
  39   2.0000      -0.618077       -16.8187
  40   2.0000      -0.595681       -16.2093
  41   2.0000      -0.576093       -15.6763
  42   2.0000      -0.573055       -15.5936
  43   2.0000      -0.550894       -14.9906
  44   2.0000      -0.542984       -14.7753
  45   2.0000      -0.525624       -14.3030
  46   2.0000      -0.517475       -14.0812
  47   2.0000      -0.512607       -13.9487
  48   2.0000      -0.503712       -13.7067
  49   2.0000      -0.501650       -13.6506
  50   2.0000      -0.492605       -13.4045
  51   2.0000      -0.487427       -13.2636
  52   2.0000      -0.474029       -12.8990
  53   2.0000      -0.466913       -12.7053
  54   2.0000      -0.458783       -12.4841
  55   2.0000      -0.448421       -12.2022
  56   2.0000      -0.440320       -11.9817
  57   2.0000      -0.433982       -11.8092
  58   2.0000      -0.430137       -11.7046
  59   2.0000      -0.428850       -11.6696
  60   2.0000      -0.421304       -11.4643
  61   2.0000      -0.416892       -11.3442
  62   2.0000      -0.404426       -11.0050
  63   2.0000      -0.343830        -9.3561
  64   2.0000      -0.330616        -8.9965
  65   2.0000      -0.329502        -8.9662
  66   2.0000      -0.298478        -8.1220
  67   0.0000       0.019655         0.5349
  68   0.0000       0.072593         1.9754
  69   0.0000       0.104870         2.8536
  70   0.0000       0.115283         3.1370
  71   0.0000       0.123958         3.3731

MULLIKEN ATOMIC CHARGES
-----------------------
   0 S :    0.103741
   1 C :   -0.140708
   2 C :   -0.088986
   3 C :    0.064497
   4 C :   -0.152096
   5 H :   -0.001746
   6 C :    0.054223
   7 H :    0.022699
   8 H :    0.023253
   9 C :   -0.066763
  10 H :    0.033506
  11 H :    0.023073
  12 C :   -0.060297
  13 H :    0.049564
  14 H :    0.020499
  15 H :    0.049389
  16 S :    0.077804
  17 C :   -0.116005
  18 C :   -0.025283
  19 C :   -0.031557
  20 C :   -0.129678
  21 H :    0.025217
  22 C :    0.065887
  23 H :   -0.002071
  24 H :    0.019510
  25 C :   -0.050443
  26 H :    0.024441
  27 H :    0.028551
  28 C :   -0.029694
  29 H :    0.025932
  30 H :    0.025186
  31 H :    0.018824
  32 H :    0.059417
  33 H :    0.080113
Sum of atomic charges:   -0.0000000

LOEWDIN ATOMIC CHARGES
----------------------
   0 S :    0.406881
   1 C :   -0.195252
   2 C :   -0.066582
   3 C :   -0.047138
   4 C :   -0.199680
   5 H :    0.020029
   6 C :   -0.029852
   7 H :    0.030213
   8 H :    0.028050
   9 C :   -0.043960
  10 H :    0.030091
  11 H :    0.020051
  12 C :   -0.071555
  13 H :    0.027528
  14 H :    0.021990
  15 H :    0.034683
  16 S :    0.363779
  17 C :   -0.178969
  18 C :   -0.070602
  19 C :   -0.047716
  20 C :   -0.176373
  21 H :    0.031814
  22 C :   -0.038870
  23 H :    0.029793
  24 H :    0.026483
  25 C :   -0.035234
  26 H :    0.022103
  27 H :    0.026742
  28 C :   -0.060649
  29 H :    0.023525
  30 H :    0.026853
  31 H :    0.020093
  32 H :    0.034327
  33 H :    0.037403

  Mayer bond orders larger than 0.100000
B(  0-S ,  1-C ) :   1.1200 B(  0-S ,  4-C ) :   1.1617 B(  1-C ,  2-C ) :   1.6381
B(  1-C , 32-H ) :   0.9689 B(  2-C ,  3-C ) :   1.2349 B(  2-C ,  6-C ) :   1.0182
B(  3-C ,  4-C ) :   1.5455 B(  3-C ,  5-H ) :   0.9991 B(  4-C , 20-C ) :   1.0419
B(  6-C ,  7-H ) :   0.9383 B(  6-C ,  8-H ) :   0.9455 B(  6-C ,  9-C ) :   1.0717
B(  9-C , 10-H ) :   0.9541 B(  9-C , 11-H ) :   0.9538 B(  9-C , 12-C ) :   1.0758
B( 12-C , 13-H ) :   0.9733 B( 12-C , 14-H ) :   0.9689 B( 12-C , 15-H ) :   0.9714
B( 16-S , 17-C ) :   1.1420 B( 16-S , 20-C ) :   1.1276 B( 17-C , 18-C ) :   1.6451
B( 17-C , 20-C ) :   0.1007 B( 17-C , 33-H ) :   0.9554 B( 18-C , 19-C ) :   1.2181
B( 18-C , 21-H ) :   0.9842 B( 19-C , 20-C ) :   1.6071 B( 19-C , 22-C ) :   1.0487
B( 22-C , 23-H ) :   0.9248 B( 22-C , 24-H ) :   0.9304 B( 22-C , 25-C ) :   1.0764
B( 25-C , 26-H ) :   0.9536 B( 25-C , 27-H ) :   0.9509 B( 25-C , 28-C ) :   1.0965
B( 28-C , 29-H ) :   0.9733 B( 28-C , 30-H ) :   0.9718 B( 28-C , 31-H ) :   0.9709

Dispersion correction           -0.014681625
FINAL SINGLE POINT ENERGY     -1339.875534284771

DIPOLE MOMENT
-------------
                                X             Y             Z
Electronic contribution:      7.84142      22.89304     -20.02852
Nuclear contribution   :     -8.03951     -23.42716      20.44129
                        -----------------------------------------
Total Dipole Moment    :     -0.19810      -0.53412       0.41277
                        -----------------------------------------
Magnitude (a.u.)       :      0.70349
Magnitude (Debye)      :      1.78814

Rotational constants in cm-1:     0.016218     0.010422     0.007019
Rotational constants in MHz :   486.206232   312.439372   210.429912

                             ****ORCA TERMINATED NORMALLY****
TOTAL RUN TIME: 0 days 0 hours 0 minutes 22 seconds 278 msec
