                         Program Version 4.2.1 -  RELEASE  -
|  1> ! wB97X-D3 SP def2-SVP
|  2> %pal
|  3> nprocs 24
|  4> end
|  5>
|  6> * xyz 0 1
|  7> S 	 -131.195 	 62.232 	 -61.0145
|  8> C 	 -130.787 	 63.8657 	 -61.3997
|  9> C 	 -131.723 	 64.8184 	 -60.9856
| 10> C 	 -132.687 	 64.1388 	 -60.1187
| 11> C 	 -132.512 	 62.7956 	 -60.0172
| 12> H 	 -133.549 	 64.5632 	 -59.6047
| 13> C 	 -131.497 	 66.2773 	 -61.187
| 14> H 	 -130.693 	 66.3757 	 -61.8853
| 15> H 	 -131.263 	 66.6277 	 -60.2056
| 16> C 	 -132.821 	 66.8628 	 -61.8358
| 17> H 	 -133.602 	 66.7094 	 -61.1317
| 18> H 	 -132.652 	 67.884 	 -61.9615
| 19> C 	 -133.127 	 66.2864 	 -63.2316
| 20> H 	 -134.192 	 66.2746 	 -63.447
| 21> H 	 -132.644 	 67 	 -63.9343
| 22> H 	 -132.65 	 65.3479 	 -63.4846
| 23> S 	 -133.88 	 60.3859 	 -60.0367
| 24> C 	 -134.83 	 59.8571 	 -58.7413
| 25> C 	 -134.613 	 60.6685 	 -57.7239
| 26> C 	 -133.819 	 61.8382 	 -57.9544
| 27> C 	 -133.352 	 61.8486 	 -59.2547
| 28> H 	 -135.043 	 60.2968 	 -56.7695
| 29> C 	 -133.438 	 62.8221 	 -56.8378
| 30> H 	 -133.933 	 63.7462 	 -56.9568
| 31> H 	 -132.376 	 63.0827 	 -56.818
| 32> C 	 -133.742 	 62.2313 	 -55.4307
| 33> H 	 -134.784 	 61.9083 	 -55.3594
| 34> H 	 -133.658 	 62.9811 	 -54.6703
| 35> C 	 -132.696 	 61.1456 	 -54.9753
| 36> H 	 -132.91 	 60.8863 	 -53.9167
| 37> H 	 -131.661 	 61.3762 	 -54.9979
| 38> H 	 -132.788 	 60.2589 	 -55.6574
| 39> H 	 -129.954 	 64.1396 	 -61.972
| 40> H 	 -135.324 	 58.8688 	 -58.7104
| 41> *
| 42>
| 43>                          ****END OF INPUT****

CARTESIAN COORDINATES (ANGSTROEM)
---------------------------------
  S    -131.195000   62.232000  -61.014500
  C    -130.787000   63.865700  -61.399700
  C    -131.723000   64.818400  -60.985600
  C    -132.687000   64.138800  -60.118700
  C    -132.512000   62.795600  -60.017200
  H    -133.549000   64.563200  -59.604700
  C    -131.497000   66.277300  -61.187000
  H    -130.693000   66.375700  -61.885300
  H    -131.263000   66.627700  -60.205600
  C    -132.821000   66.862800  -61.835800
  H    -133.602000   66.709400  -61.131700
  H    -132.652000   67.884000  -61.961500
  C    -133.127000   66.286400  -63.231600
  H    -134.192000   66.274600  -63.447000
  H    -132.644000   67.000000  -63.934300
  H    -132.650000   65.347900  -63.484600
  S    -133.880000   60.385900  -60.036700
  C    -134.830000   59.857100  -58.741300
  C    -134.613000   60.668500  -57.723900
  C    -133.819000   61.838200  -57.954400
  C    -133.352000   61.848600  -59.254700
  H    -135.043000   60.296800  -56.769500
  C    -133.438000   62.822100  -56.837800
  H    -133.933000   63.746200  -56.956800
  H    -132.376000   63.082700  -56.818000
  C    -133.742000   62.231300  -55.430700
  H    -134.784000   61.908300  -55.359400
  H    -133.658000   62.981100  -54.670300
  C    -132.696000   61.145600  -54.975300
  H    -132.910000   60.886300  -53.916700
  H    -131.661000   61.376200  -54.997900
  H    -132.788000   60.258900  -55.657400
  H    -129.954000   64.139600  -61.972000
  H    -135.324000   58.868800  -58.710400

 Total Charge           Charge          ....    0
 Multiplicity           Mult            ....    1
 Number of Electrons    NEL             ....  134
 Basis Dimension        Dim             ....  322

ORBITAL ENERGIES
----------------

  NO   OCC          E(Eh)            E(eV)
   0   2.0000     -88.964410     -2420.8447
   1   2.0000     -88.956582     -2420.6317
   2   2.0000     -10.327424      -281.0235
   3   2.0000     -10.325853      -280.9808
   4   2.0000     -10.307375      -280.4779
   5   2.0000     -10.307181      -280.4726
   6   2.0000     -10.303907      -280.3836
   7   2.0000     -10.302452      -280.3440
   8   2.0000     -10.295767      -280.1621
   9   2.0000     -10.291828      -280.0549
  10   2.0000     -10.290657      -280.0230
  11   2.0000     -10.287389      -279.9341
  12   2.0000     -10.286813      -279.9184
  13   2.0000     -10.282969      -279.8138
  14   2.0000     -10.278931      -279.7039
  15   2.0000     -10.276520      -279.6383
  16   2.0000      -8.079797      -219.8625
  17   2.0000      -8.073210      -219.6832
  18   2.0000      -6.038218      -164.3083
  19   2.0000      -6.034364      -164.2034
  20   2.0000      -6.031606      -164.1283
  21   2.0000      -6.030468      -164.0974
  22   2.0000      -6.027401      -164.0139
  23   2.0000      -6.024004      -163.9215
  24   2.0000      -1.013796       -27.5868
  25   2.0000      -0.990992       -26.9663
  26   2.0000      -0.915010       -24.8987
  27   2.0000      -0.904554       -24.6142
  28   2.0000      -0.871618       -23.7179
  29   2.0000      -0.847151       -23.0521
  30   2.0000      -0.837051       -22.7773
  31   2.0000      -0.822024       -22.3684
  32   2.0000      -0.783399       -21.3174
  33   2.0000      -0.774170       -21.0662
  34   2.0000      -0.712672       -19.3928
  35   2.0000      -0.701036       -19.0762
  36   2.0000      -0.692989       -18.8572
  37   2.0000      -0.650827       -17.7099
  38   2.0000      -0.640768       -17.4362
  39   2.0000      -0.622221       -16.9315
  40   2.0000      -0.606286       -16.4979
  41   2.0000      -0.568138       -15.4598
  42   2.0000      -0.561979       -15.2922
  43   2.0000      -0.551097       -14.9961
  44   2.0000      -0.540854       -14.7174
  45   2.0000      -0.525634       -14.3032
  46   2.0000      -0.518046       -14.0967
  47   2.0000      -0.514947       -14.0124
  48   2.0000      -0.504618       -13.7314
  49   2.0000      -0.492811       -13.4101
  50   2.0000      -0.487793       -13.2735
  51   2.0000      -0.478792       -13.0286
  52   2.0000      -0.475364       -12.9353
  53   2.0000      -0.467664       -12.7258
  54   2.0000      -0.464839       -12.6489
  55   2.0000      -0.446792       -12.1578
  56   2.0000      -0.445462       -12.1216
  57   2.0000      -0.441784       -12.0216
  58   2.0000      -0.429616       -11.6904
  59   2.0000      -0.428390       -11.6571
  60   2.0000      -0.417573       -11.3628
  61   2.0000      -0.413608       -11.2548
  62   2.0000      -0.406083       -11.0501
  63   2.0000      -0.354071        -9.6348
  64   2.0000      -0.328696        -8.9443
  65   2.0000      -0.325820        -8.8660
  66   2.0000      -0.294167        -8.0047
  67   0.0000       0.037292         1.0148
  68   0.0000       0.076006         2.0682
  69   0.0000       0.119498         3.2517
  70   0.0000       0.126458         3.4411
  71   0.0000       0.140746         3.8299

MULLIKEN ATOMIC CHARGES
-----------------------
   0 S :    0.116328
   1 C :   -0.097495
   2 C :   -0.119390
   3 C :    0.007834
   4 C :   -0.133688
   5 H :    0.014918
   6 C :    0.099898
   7 H :    0.008878
   8 H :    0.042092
   9 C :   -0.055464
  10 H :    0.027543
  11 H :    0.019492
  12 C :   -0.060214
  13 H :    0.043623
  14 H :    0.024144
  15 H :    0.042706
  16 S :    0.087847
  17 C :   -0.094790
  18 C :   -0.064587
  19 C :   -0.034421
  20 C :   -0.158949
  21 H :    0.027436
  22 C :    0.113449
  23 H :    0.022345
  24 H :    0.034019
  25 C :   -0.097470
  26 H :    0.034814
  27 H :    0.016924
  28 C :   -0.066122
  29 H :    0.037636
  30 H :    0.027977
  31 H :    0.038870
  32 H :    0.023344
  33 H :    0.070472
Sum of atomic charges:   -0.0000000

LOEWDIN ATOMIC CHARGES
----------------------
   0 S :    0.408216
   1 C :   -0.197055
   2 C :   -0.055697
   3 C :   -0.064186
   4 C :   -0.191722
   5 H :    0.032012
   6 C :   -0.017459
   7 H :    0.025223
   8 H :    0.033162
   9 C :   -0.029090
  10 H :    0.016891
  11 H :    0.015648
  12 C :   -0.065933
  13 H :    0.029669
  14 H :    0.029632
  15 H :    0.025439
  16 S :    0.419796
  17 C :   -0.207896
  18 C :   -0.087944
  19 C :   -0.062501
  20 C :   -0.195099
  21 H :    0.036694
  22 C :   -0.024913
  23 H :    0.024371
  24 H :    0.035661
  25 C :   -0.039648
  26 H :    0.023034
  27 H :    0.019848
  28 C :   -0.069094
  29 H :    0.029213
  30 H :    0.019909
  31 H :    0.028257
  32 H :    0.013325
  33 H :    0.042238

  Mayer bond orders larger than 0.100000
B(  0-S ,  1-C ) :   1.1395 B(  0-S ,  4-C ) :   1.1387 B(  1-C ,  2-C ) :   1.6218
B(  1-C , 32-H ) :   0.9703 B(  2-C ,  3-C ) :   1.1896 B(  2-C ,  6-C ) :   1.0280
B(  3-C ,  4-C ) :   1.6264 B(  3-C ,  5-H ) :   0.9921 B(  4-C , 20-C ) :   1.0233
B(  6-C ,  7-H ) :   0.9377 B(  6-C ,  8-H ) :   0.9418 B(  6-C ,  9-C ) :   1.0631
B(  9-C , 10-H ) :   0.9653 B(  9-C , 11-H ) :   0.9643 B(  9-C , 12-C ) :   1.0566
B( 12-C , 13-H ) :   0.9764 B( 12-C , 14-H ) :   0.9783 B( 12-C , 15-H ) :   0.9796
B( 16-S , 17-C ) :   1.1580 B( 16-S , 20-C ) :   1.1581 B( 17-C , 18-C ) :   1.6217
B( 17-C , 33-H ) :   0.9591 B( 18-C , 19-C ) :   1.2398 B( 18-C , 21-H ) :   0.9779
B( 19-C , 20-C ) :   1.6000 B( 19-C , 22-C ) :   1.0198 B( 22-C , 23-H ) :   0.9260
B( 22-C , 24-H ) :   0.9399 B( 22-C , 25-C ) :   1.0888 B( 25-C , 26-H ) :   0.9494
B( 25-C , 27-H ) :   0.9543 B( 25-C , 28-C ) :   1.0669 B( 28-C , 29-H ) :   0.9767
B( 28-C , 30-H ) :   0.9754 B( 28-C , 31-H ) :   0.9765

Dispersion correction           -0.014251198
FINAL SINGLE POINT ENERGY     -1339.871498842123

DIPOLE MOMENT
-------------
                                X             Y             Z
Electronic contribution:      2.00196     -16.54211      -9.73260
Nuclear contribution   :     -2.02511      17.06599      10.09386
                        -----------------------------------------
Total Dipole Moment    :     -0.02315       0.52389       0.36126
                        -----------------------------------------
Magnitude (a.u.)       :      0.63679
Magnitude (Debye)      :      1.61860

Rotational constants in cm-1:     0.022155     0.007622     0.006779
Rotational constants in MHz :   664.199828   228.514815   203.216993

                             ****ORCA TERMINATED NORMALLY****
TOTAL RUN TIME: 0 days 0 hours 0 minutes 21 seconds 488 msec
