                         Program Version 4.2.1 -  RELEASE  -
|  1> ! wB97X-D3 SP def2-SVP
|  2> %pal
|  3> nprocs 24
|  4> end
|  5>
|  6> * xyz 0 1
|  7> S 	 -123.109 	 30.8613 	 -115.185
|  8> C 	 -124.415 	 29.8181 	 -115.709
|  9> C 	 -123.89 	 28.7568 	 -116.392
| 10> C 	 -122.424 	 28.6276 	 -116.301
| 11> C 	 -121.81 	 29.7604 	 -115.759
| 12> H 	 -121.792 	 27.8384 	 -116.772
| 13> C 	 -124.67 	 27.703 	 -117.138
| 14> H 	 -125.626 	 27.5355 	 -116.724
| 15> H 	 -124.189 	 26.7546 	 -117.048
| 16> C 	 -124.814 	 27.9711 	 -118.669
| 17> H 	 -123.883 	 27.7934 	 -119.18
| 18> H 	 -125.408 	 27.1373 	 -119.163
| 19> C 	 -125.489 	 29.2214 	 -119.114
| 20> H 	 -126.469 	 29.2568 	 -118.757
| 21> H 	 -124.885 	 30.0729 	 -118.824
| 22> H 	 -125.446 	 29.1908 	 -120.212
| 23> S 	 -119.736 	 31.512 	 -116.299
| 24> C 	 -118.13 	 31.1919 	 -115.711
| 25> C 	 -118.163 	 30.2102 	 -114.69
| 26> C 	 -119.415 	 29.4626 	 -114.616
| 27> C 	 -120.398 	 30.1415 	 -115.41
| 28> H 	 -117.29 	 30.0091 	 -114.044
| 29> C 	 -119.52 	 28.1135 	 -113.903
| 30> H 	 -120.564 	 27.7541 	 -113.986
| 31> H 	 -119.278 	 28.2988 	 -112.822
| 32> C 	 -118.612 	 27.0416 	 -114.468
| 33> H 	 -117.566 	 27.416 	 -114.373
| 34> H 	 -118.826 	 26.9101 	 -115.568
| 35> C 	 -118.936 	 25.673 	 -113.944
| 36> H 	 -117.979 	 25.129 	 -114.096
| 37> H 	 -119.762 	 25.1792 	 -114.468
| 38> H 	 -119.119 	 25.6278 	 -112.817
| 39> H 	 -125.493 	 30.0277 	 -115.704
| 40> H 	 -117.263 	 31.8416 	 -115.78
| 41> *
| 42>
| 43>                          ****END OF INPUT****

CARTESIAN COORDINATES (ANGSTROEM)
---------------------------------
  S    -123.109000   30.861300  -115.185000
  C    -124.415000   29.818100  -115.709000
  C    -123.890000   28.756800  -116.392000
  C    -122.424000   28.627600  -116.301000
  C    -121.810000   29.760400  -115.759000
  H    -121.792000   27.838400  -116.772000
  C    -124.670000   27.703000  -117.138000
  H    -125.626000   27.535500  -116.724000
  H    -124.189000   26.754600  -117.048000
  C    -124.814000   27.971100  -118.669000
  H    -123.883000   27.793400  -119.180000
  H    -125.408000   27.137300  -119.163000
  C    -125.489000   29.221400  -119.114000
  H    -126.469000   29.256800  -118.757000
  H    -124.885000   30.072900  -118.824000
  H    -125.446000   29.190800  -120.212000
  S    -119.736000   31.512000  -116.299000
  C    -118.130000   31.191900  -115.711000
  C    -118.163000   30.210200  -114.690000
  C    -119.415000   29.462600  -114.616000
  C    -120.398000   30.141500  -115.410000
  H    -117.290000   30.009100  -114.044000
  C    -119.520000   28.113500  -113.903000
  H    -120.564000   27.754100  -113.986000
  H    -119.278000   28.298800  -112.822000
  C    -118.612000   27.041600  -114.468000
  H    -117.566000   27.416000  -114.373000
  H    -118.826000   26.910100  -115.568000
  C    -118.936000   25.673000  -113.944000
  H    -117.979000   25.129000  -114.096000
  H    -119.762000   25.179200  -114.468000
  H    -119.119000   25.627800  -112.817000
  H    -125.493000   30.027700  -115.704000
  H    -117.263000   31.841600  -115.780000

 Total Charge           Charge          ....    0
 Multiplicity           Mult            ....    1
 Number of Electrons    NEL             ....  134
 Basis Dimension        Dim             ....  322

ORBITAL ENERGIES
----------------

  NO   OCC          E(Eh)            E(eV)
   0   2.0000     -88.971250     -2421.0308
   1   2.0000     -88.960745     -2420.7449
   2   2.0000     -10.339420      -281.3499
   3   2.0000     -10.337472      -281.2969
   4   2.0000     -10.322376      -280.8861
   5   2.0000     -10.315676      -280.7038
   6   2.0000     -10.315609      -280.7020
   7   2.0000     -10.305255      -280.4202
   8   2.0000     -10.303843      -280.3818
   9   2.0000     -10.303394      -280.3696
  10   2.0000     -10.297675      -280.2140
  11   2.0000     -10.291422      -280.0438
  12   2.0000     -10.286427      -279.9079
  13   2.0000     -10.285514      -279.8831
  14   2.0000     -10.283893      -279.8390
  15   2.0000     -10.267606      -279.3958
  16   2.0000      -8.085468      -220.0168
  17   2.0000      -8.074949      -219.7305
  18   2.0000      -6.044064      -164.4673
  19   2.0000      -6.039955      -164.3555
  20   2.0000      -6.036248      -164.2547
  21   2.0000      -6.033743      -164.1865
  22   2.0000      -6.029380      -164.0678
  23   2.0000      -6.025558      -163.9638
  24   2.0000      -0.996277       -27.1101
  25   2.0000      -0.977287       -26.5933
  26   2.0000      -0.914615       -24.8879
  27   2.0000      -0.908990       -24.7349
  28   2.0000      -0.863771       -23.5044
  29   2.0000      -0.851490       -23.1702
  30   2.0000      -0.841976       -22.9113
  31   2.0000      -0.812634       -22.1129
  32   2.0000      -0.783370       -21.3166
  33   2.0000      -0.771981       -21.0067
  34   2.0000      -0.700334       -19.0571
  35   2.0000      -0.690287       -18.7837
  36   2.0000      -0.688447       -18.7336
  37   2.0000      -0.653750       -17.7894
  38   2.0000      -0.638711       -17.3802
  39   2.0000      -0.614692       -16.7266
  40   2.0000      -0.592870       -16.1328
  41   2.0000      -0.570945       -15.5362
  42   2.0000      -0.565406       -15.3855
  43   2.0000      -0.550084       -14.9686
  44   2.0000      -0.541727       -14.7411
  45   2.0000      -0.522733       -14.2243
  46   2.0000      -0.518874       -14.1193
  47   2.0000      -0.516078       -14.0432
  48   2.0000      -0.508630       -13.8405
  49   2.0000      -0.498816       -13.5735
  50   2.0000      -0.486455       -13.2371
  51   2.0000      -0.485400       -13.2084
  52   2.0000      -0.473327       -12.8799
  53   2.0000      -0.461067       -12.5463
  54   2.0000      -0.455519       -12.3953
  55   2.0000      -0.445151       -12.1132
  56   2.0000      -0.437705       -11.9106
  57   2.0000      -0.432011       -11.7556
  58   2.0000      -0.430519       -11.7150
  59   2.0000      -0.427555       -11.6344
  60   2.0000      -0.420693       -11.4476
  61   2.0000      -0.409906       -11.1541
  62   2.0000      -0.403456       -10.9786
  63   2.0000      -0.340849        -9.2750
  64   2.0000      -0.327631        -8.9153
  65   2.0000      -0.324427        -8.8281
  66   2.0000      -0.300639        -8.1808
  67   0.0000       0.034100         0.9279
  68   0.0000       0.057746         1.5714
  69   0.0000       0.108024         2.9395
  70   0.0000       0.118059         3.2125
  71   0.0000       0.123214         3.3528

MULLIKEN ATOMIC CHARGES
-----------------------
   0 S :    0.083555
   1 C :   -0.104597
   2 C :   -0.127024
   3 C :    0.024701
   4 C :   -0.142951
   5 H :    0.034789
   6 C :    0.116906
   7 H :    0.007288
   8 H :    0.010900
   9 C :   -0.118511
  10 H :    0.016567
  11 H :    0.021139
  12 C :   -0.009243
  13 H :    0.021400
  14 H :    0.040670
  15 H :    0.031589
  16 S :    0.126119
  17 C :   -0.091160
  18 C :   -0.071486
  19 C :   -0.020767
  20 C :   -0.174845
  21 H :    0.037221
  22 C :    0.053671
  23 H :    0.030878
  24 H :    0.043277
  25 C :   -0.107253
  26 H :    0.038491
  27 H :    0.037934
  28 C :   -0.062494
  29 H :    0.041060
  30 H :    0.049581
  31 H :    0.037539
  32 H :    0.059144
  33 H :    0.065910
Sum of atomic charges:   -0.0000000

LOEWDIN ATOMIC CHARGES
----------------------
   0 S :    0.380271
   1 C :   -0.199257
   2 C :   -0.066308
   3 C :   -0.069690
   4 C :   -0.178845
   5 H :    0.038855
   6 C :   -0.029210
   7 H :    0.022167
   8 H :    0.029342
   9 C :   -0.046129
  10 H :    0.018041
  11 H :    0.027179
  12 C :   -0.059490
  13 H :    0.015918
  14 H :    0.026434
  15 H :    0.033288
  16 S :    0.419823
  17 C :   -0.199150
  18 C :   -0.072059
  19 C :   -0.044015
  20 C :   -0.210948
  21 H :    0.033206
  22 C :   -0.038576
  23 H :    0.033376
  24 H :    0.038458
  25 C :   -0.052538
  26 H :    0.025269
  27 H :    0.034383
  28 C :   -0.073765
  29 H :    0.035356
  30 H :    0.029040
  31 H :    0.029094
  32 H :    0.038375
  33 H :    0.032105

  Mayer bond orders larger than 0.100000
B(  0-S ,  1-C ) :   1.1220 B(  0-S ,  4-C ) :   1.1451 B(  1-C ,  2-C ) :   1.6415
B(  1-C , 32-H ) :   0.9649 B(  2-C ,  3-C ) :   1.1995 B(  2-C ,  6-C ) :   1.0357
B(  3-C ,  4-C ) :   1.6140 B(  3-C ,  5-H ) :   0.9870 B(  4-C , 20-C ) :   0.9814
B(  6-C ,  7-H ) :   0.9430 B(  6-C ,  8-H ) :   0.9338 B(  6-C ,  9-C ) :   1.0681
B(  9-C , 10-H ) :   0.9555 B(  9-C , 11-H ) :   0.9531 B(  9-C , 12-C ) :   1.0886
B( 12-C , 13-H ) :   0.9746 B( 12-C , 14-H ) :   0.9717 B( 12-C , 15-H ) :   0.9685
B( 16-S , 17-C ) :   1.1599 B( 16-S , 20-C ) :   1.1583 B( 17-C , 18-C ) :   1.6070
B( 17-C , 20-C ) :   0.1055 B( 17-C , 33-H ) :   0.9633 B( 18-C , 19-C ) :   1.2379
B( 18-C , 21-H ) :   0.9765 B( 19-C , 20-C ) :   1.5778 B( 19-C , 22-C ) :   1.0491
B( 22-C , 23-H ) :   0.9383 B( 22-C , 24-H ) :   0.9259 B( 22-C , 25-C ) :   1.0659
B( 25-C , 26-H ) :   0.9566 B( 25-C , 27-H ) :   0.9513 B( 25-C , 28-C ) :   1.0737
B( 28-C , 29-H ) :   0.9719 B( 28-C , 30-H ) :   0.9760 B( 28-C , 31-H ) :   0.9720

Dispersion correction           -0.014090064
FINAL SINGLE POINT ENERGY     -1339.869193805950

DIPOLE MOMENT
-------------
                                X             Y             Z
Electronic contribution:      4.10104      22.90279       4.84504
Nuclear contribution   :     -3.93263     -23.55212      -4.91824
                        -----------------------------------------
Total Dipole Moment    :      0.16841      -0.64932      -0.07320
                        -----------------------------------------
Magnitude (a.u.)       :      0.67479
Magnitude (Debye)      :      1.71518

Rotational constants in cm-1:     0.018518     0.008132     0.006586
Rotational constants in MHz :   555.152977   243.801828   197.431530

                             ****ORCA TERMINATED NORMALLY****
TOTAL RUN TIME: 0 days 0 hours 0 minutes 21 seconds 72 msec
