                         Program Version 4.2.1 -  RELEASE  -
|  1> ! wB97X-D3 SP def2-SVP
|  2> %pal
|  3> nprocs 24
|  4> end
|  5>
|  6> * xyz 0 1
|  7> S 	 -117.346 	 15.8291 	 -113.264
|  8> C 	 -115.801 	 16.3338 	 -113.89
|  9> C 	 -114.857 	 15.3378 	 -113.753
| 10> C 	 -115.489 	 14.0787 	 -113.552
| 11> C 	 -116.848 	 14.1772 	 -113.287
| 12> H 	 -114.959 	 13.1606 	 -113.42
| 13> C 	 -113.411 	 15.3624 	 -114.025
| 14> H 	 -113.361 	 16.1079 	 -114.749
| 15> H 	 -113.176 	 14.3968 	 -114.418
| 16> C 	 -112.511 	 15.8066 	 -112.845
| 17> H 	 -113.113 	 16.5787 	 -112.203
| 18> H 	 -112.278 	 14.9549 	 -112.206
| 19> C 	 -111.165 	 16.4268 	 -113.309
| 20> H 	 -110.455 	 15.6293 	 -113.584
| 21> H 	 -111.204 	 17.1866 	 -114.157
| 22> H 	 -110.708 	 17.0359 	 -112.467
| 23> S 	 -118.827 	 13.2438 	 -111.634
| 24> C 	 -119.496 	 11.7001 	 -111.823
| 25> C 	 -118.893 	 11.0774 	 -112.878
| 26> C 	 -117.929 	 11.8385 	 -113.602
| 27> C 	 -117.777 	 13.0637 	 -113.013
| 28> H 	 -119.151 	 10.0576 	 -113.122
| 29> C 	 -117.192 	 11.3424 	 -114.844
| 30> H 	 -116.618 	 12.1489 	 -115.356
| 31> H 	 -118.001 	 10.9777 	 -115.545
| 32> C 	 -116.247 	 10.2433 	 -114.605
| 33> H 	 -116.765 	 9.37178 	 -114.087
| 34> H 	 -115.397 	 10.5136 	 -113.854
| 35> C 	 -115.705 	 9.7831 	 -115.992
| 36> H 	 -114.912 	 9.0316 	 -115.953
| 37> H 	 -115.151 	 10.5351 	 -116.489
| 38> H 	 -116.501 	 9.43635 	 -116.6
| 39> H 	 -115.596 	 17.341 	 -113.876
| 40> H 	 -120.271 	 11.2509 	 -111.188
| 41> *
| 42>
| 43>                          ****END OF INPUT****

CARTESIAN COORDINATES (ANGSTROEM)
---------------------------------
  S    -117.346000   15.829100  -113.264000
  C    -115.801000   16.333800  -113.890000
  C    -114.857000   15.337800  -113.753000
  C    -115.489000   14.078700  -113.552000
  C    -116.848000   14.177200  -113.287000
  H    -114.959000   13.160600  -113.420000
  C    -113.411000   15.362400  -114.025000
  H    -113.361000   16.107900  -114.749000
  H    -113.176000   14.396800  -114.418000
  C    -112.511000   15.806600  -112.845000
  H    -113.113000   16.578700  -112.203000
  H    -112.278000   14.954900  -112.206000
  C    -111.165000   16.426800  -113.309000
  H    -110.455000   15.629300  -113.584000
  H    -111.204000   17.186600  -114.157000
  H    -110.708000   17.035900  -112.467000
  S    -118.827000   13.243800  -111.634000
  C    -119.496000   11.700100  -111.823000
  C    -118.893000   11.077400  -112.878000
  C    -117.929000   11.838500  -113.602000
  C    -117.777000   13.063700  -113.013000
  H    -119.151000   10.057600  -113.122000
  C    -117.192000   11.342400  -114.844000
  H    -116.618000   12.148900  -115.356000
  H    -118.001000   10.977700  -115.545000
  C    -116.247000   10.243300  -114.605000
  H    -116.765000    9.371780  -114.087000
  H    -115.397000   10.513600  -113.854000
  C    -115.705000    9.783100  -115.992000
  H    -114.912000    9.031600  -115.953000
  H    -115.151000   10.535100  -116.489000
  H    -116.501000    9.436350  -116.600000
  H    -115.596000   17.341000  -113.876000
  H    -120.271000   11.250900  -111.188000

 Total Charge           Charge          ....    0
 Multiplicity           Mult            ....    1
 Number of Electrons    NEL             ....  134
 Basis Dimension        Dim             ....  322

ORBITAL ENERGIES
----------------

  NO   OCC          E(Eh)            E(eV)
   0   2.0000     -88.964178     -2420.8384
   1   2.0000     -88.961546     -2420.7667
   2   2.0000     -10.327624      -281.0289
   3   2.0000     -10.322951      -280.9018
   4   2.0000     -10.312959      -280.6299
   5   2.0000     -10.304532      -280.4006
   6   2.0000     -10.299849      -280.2731
   7   2.0000     -10.299745      -280.2703
   8   2.0000     -10.297294      -280.2036
   9   2.0000     -10.296884      -280.1925
  10   2.0000     -10.294963      -280.1402
  11   2.0000     -10.291737      -280.0524
  12   2.0000     -10.289076      -279.9800
  13   2.0000     -10.287674      -279.9418
  14   2.0000     -10.282985      -279.8142
  15   2.0000     -10.274747      -279.5901
  16   2.0000      -8.079671      -219.8590
  17   2.0000      -8.077795      -219.8080
  18   2.0000      -6.038074      -164.3043
  19   2.0000      -6.036159      -164.2522
  20   2.0000      -6.034177      -164.1983
  21   2.0000      -6.032054      -164.1405
  22   2.0000      -6.030403      -164.0956
  23   2.0000      -6.028650      -164.0479
  24   2.0000      -1.013455       -27.5775
  25   2.0000      -0.992835       -27.0164
  26   2.0000      -0.917116       -24.9560
  27   2.0000      -0.915560       -24.9137
  28   2.0000      -0.867886       -23.6164
  29   2.0000      -0.853779       -23.2325
  30   2.0000      -0.846776       -23.0419
  31   2.0000      -0.813889       -22.1471
  32   2.0000      -0.783869       -21.3302
  33   2.0000      -0.775238       -21.0953
  34   2.0000      -0.701876       -19.0990
  35   2.0000      -0.700505       -19.0617
  36   2.0000      -0.693203       -18.8630
  37   2.0000      -0.661470       -17.9995
  38   2.0000      -0.643906       -17.5216
  39   2.0000      -0.623437       -16.9646
  40   2.0000      -0.602236       -16.3877
  41   2.0000      -0.573283       -15.5998
  42   2.0000      -0.569066       -15.4851
  43   2.0000      -0.554462       -15.0877
  44   2.0000      -0.523157       -14.2358
  45   2.0000      -0.521343       -14.1865
  46   2.0000      -0.517858       -14.0916
  47   2.0000      -0.514804       -14.0085
  48   2.0000      -0.509508       -13.8644
  49   2.0000      -0.500135       -13.6094
  50   2.0000      -0.493640       -13.4326
  51   2.0000      -0.480437       -13.0734
  52   2.0000      -0.474894       -12.9225
  53   2.0000      -0.464676       -12.6445
  54   2.0000      -0.462079       -12.5738
  55   2.0000      -0.447569       -12.1790
  56   2.0000      -0.443273       -12.0621
  57   2.0000      -0.440518       -11.9871
  58   2.0000      -0.433296       -11.7906
  59   2.0000      -0.426439       -11.6040
  60   2.0000      -0.421348       -11.4655
  61   2.0000      -0.417849       -11.3703
  62   2.0000      -0.410459       -11.1692
  63   2.0000      -0.349569        -9.5123
  64   2.0000      -0.330582        -8.9956
  65   2.0000      -0.328785        -8.9467
  66   2.0000      -0.292153        -7.9499
  67   0.0000       0.031830         0.8661
  68   0.0000       0.074891         2.0379
  69   0.0000       0.113145         3.0788
  70   0.0000       0.123115         3.3501
  71   0.0000       0.130080         3.5397

MULLIKEN ATOMIC CHARGES
-----------------------
   0 S :    0.108046
   1 C :   -0.082074
   2 C :   -0.124232
   3 C :    0.008076
   4 C :   -0.129534
   5 H :    0.001241
   6 C :    0.140805
   7 H :    0.003095
   8 H :    0.017649
   9 C :   -0.099706
  10 H :    0.049089
  11 H :    0.037330
  12 C :   -0.094948
  13 H :    0.043200
  14 H :    0.041843
  15 H :    0.044540
  16 S :    0.104541
  17 C :   -0.084331
  18 C :   -0.048095
  19 C :   -0.002294
  20 C :   -0.161819
  21 H :    0.006442
  22 C :    0.042255
  23 H :    0.037329
  24 H :    0.038844
  25 C :   -0.128784
  26 H :    0.035871
  27 H :    0.043184
  28 C :   -0.004402
  29 H :    0.023988
  30 H :    0.015947
  31 H :    0.027530
  32 H :    0.023399
  33 H :    0.065977
Sum of atomic charges:   -0.0000000

LOEWDIN ATOMIC CHARGES
----------------------
   0 S :    0.420469
   1 C :   -0.195273
   2 C :   -0.052274
   3 C :   -0.068152
   4 C :   -0.194448
   5 H :    0.025426
   6 C :   -0.026908
   7 H :    0.026572
   8 H :    0.028780
   9 C :   -0.041957
  10 H :    0.035069
  11 H :    0.025678
  12 C :   -0.081369
  13 H :    0.026885
  14 H :    0.028752
  15 H :    0.033642
  16 S :    0.424229
  17 C :   -0.205657
  18 C :   -0.074665
  19 C :   -0.060389
  20 C :   -0.197080
  21 H :    0.025562
  22 C :   -0.038525
  23 H :    0.035726
  24 H :    0.039893
  25 C :   -0.050283
  26 H :    0.026547
  27 H :    0.030204
  28 C :   -0.061647
  29 H :    0.026704
  30 H :    0.020667
  31 H :    0.022243
  32 H :    0.007008
  33 H :    0.038569

  Mayer bond orders larger than 0.100000
B(  0-S ,  1-C ) :   1.1403 B(  0-S ,  4-C ) :   1.1787 B(  1-C ,  2-C ) :   1.5948
B(  1-C ,  4-C ) :   0.1026 B(  1-C , 32-H ) :   0.9702 B(  2-C ,  3-C ) :   1.2540
B(  2-C ,  6-C ) :   1.0295 B(  3-C ,  4-C ) :   1.5502 B(  3-C ,  5-H ) :   0.9964
B(  4-C , 20-C ) :   1.0146 B(  6-C ,  7-H ) :   0.9333 B(  6-C ,  8-H ) :   0.9380
B(  6-C ,  9-C ) :   1.0409 B(  9-C , 10-H ) :   0.9645 B(  9-C , 11-H ) :   0.9541
B(  9-C , 12-C ) :   1.0693 B( 12-C , 13-H ) :   0.9757 B( 12-C , 14-H ) :   0.9772
B( 12-C , 15-H ) :   0.9757 B( 16-S , 17-C ) :   1.1580 B( 16-S , 20-C ) :   1.1562
B( 17-C , 18-C ) :   1.5992 B( 17-C , 33-H ) :   0.9679 B( 18-C , 19-C ) :   1.2410
B( 18-C , 21-H ) :   0.9916 B( 19-C , 20-C ) :   1.6091 B( 19-C , 22-C ) :   1.0283
B( 22-C , 23-H ) :   0.9355 B( 22-C , 24-H ) :   0.9321 B( 22-C , 25-C ) :   1.0684
B( 25-C , 26-H ) :   0.9529 B( 25-C , 27-H ) :   0.9495 B( 25-C , 28-C ) :   1.0730
B( 28-C , 29-H ) :   0.9719 B( 28-C , 30-H ) :   0.9719 B( 28-C , 31-H ) :   0.9740

Dispersion correction           -0.013730891
FINAL SINGLE POINT ENERGY     -1339.875304890136

DIPOLE MOMENT
-------------
                                X             Y             Z
Electronic contribution:    -25.76052       8.54394      11.42847
Nuclear contribution   :     26.30586      -8.90712     -11.58083
                        -----------------------------------------
Total Dipole Moment    :      0.54533      -0.36318      -0.15236
                        -----------------------------------------
Magnitude (a.u.)       :      0.67268
Magnitude (Debye)      :      1.70983

Rotational constants in cm-1:     0.017892     0.008349     0.006312
Rotational constants in MHz :   536.374372   250.301557   189.237288

                             ****ORCA TERMINATED NORMALLY****
TOTAL RUN TIME: 0 days 0 hours 0 minutes 21 seconds 383 msec
