                         Program Version 4.2.1 -  RELEASE  -
|  1> ! wB97X-D3 SP def2-SVP
|  2> %pal
|  3> nprocs 24
|  4> end
|  5>
|  6> * xyz 0 1
|  7> S 	 -66.078 	 0.724034 	 -73.1938
|  8> C 	 -65.8732 	 2.34427 	 -73.7696
|  9> C 	 -67.083 	 2.95846 	 -74.0319
| 10> C 	 -68.1869 	 2.01638 	 -73.9038
| 11> C 	 -67.7747 	 0.746515 	 -73.5957
| 12> H 	 -69.2735 	 2.15659 	 -74.0426
| 13> C 	 -67.3334 	 4.39608 	 -74.4907
| 14> H 	 -66.6476 	 5.0407 	 -73.9136
| 15> H 	 -68.272 	 4.709 	 -74.1521
| 16> C 	 -67.1887 	 4.74926 	 -76.0024
| 17> H 	 -66.1559 	 4.36 	 -76.3129
| 18> H 	 -67.8809 	 4.16589 	 -76.6078
| 19> C 	 -67.3099 	 6.26218 	 -76.4133
| 20> H 	 -66.4263 	 6.81474 	 -76.1924
| 21> H 	 -67.5809 	 6.35259 	 -77.4845
| 22> H 	 -68.1276 	 6.72954 	 -75.9311
| 23> S 	 -69.4362 	 -1.18101 	 -74.8063
| 24> C 	 -70.3876 	 -2.33094 	 -73.9366
| 25> C 	 -70.1435 	 -2.08456 	 -72.5815
| 26> C 	 -69.2361 	 -1.03155 	 -72.2754
| 27> C 	 -68.7592 	 -0.353977 	 -73.4127
| 28> H 	 -70.6936 	 -2.63509 	 -71.9182
| 29> C 	 -69.1311 	 -0.561144 	 -70.8065
| 30> H 	 -70.0921 	 -0.856383 	 -70.327
| 31> H 	 -69.1162 	 0.535846 	 -70.7386
| 32> C 	 -68.0329 	 -1.12091 	 -70.0514
| 33> H 	 -67.1407 	 -0.825181 	 -70.5854
| 34> H 	 -68.0928 	 -2.21505 	 -70.1896
| 35> C 	 -67.8823 	 -0.802873 	 -68.5483
| 36> H 	 -66.9801 	 -1.33598 	 -68.2762
| 37> H 	 -68.7572 	 -1.25856 	 -68.0637
| 38> H 	 -67.8137 	 0.248489 	 -68.2405
| 39> H 	 -64.9155 	 2.83262 	 -73.9361
| 40> H 	 -71.0959 	 -3.01388 	 -74.3889
| 41> *
| 42>
| 43>                          ****END OF INPUT****

CARTESIAN COORDINATES (ANGSTROEM)
---------------------------------
  S    -66.078000    0.724034  -73.193800
  C    -65.873200    2.344270  -73.769600
  C    -67.083000    2.958460  -74.031900
  C    -68.186900    2.016380  -73.903800
  C    -67.774700    0.746515  -73.595700
  H    -69.273500    2.156590  -74.042600
  C    -67.333400    4.396080  -74.490700
  H    -66.647600    5.040700  -73.913600
  H    -68.272000    4.709000  -74.152100
  C    -67.188700    4.749260  -76.002400
  H    -66.155900    4.360000  -76.312900
  H    -67.880900    4.165890  -76.607800
  C    -67.309900    6.262180  -76.413300
  H    -66.426300    6.814740  -76.192400
  H    -67.580900    6.352590  -77.484500
  H    -68.127600    6.729540  -75.931100
  S    -69.436200   -1.181010  -74.806300
  C    -70.387600   -2.330940  -73.936600
  C    -70.143500   -2.084560  -72.581500
  C    -69.236100   -1.031550  -72.275400
  C    -68.759200   -0.353977  -73.412700
  H    -70.693600   -2.635090  -71.918200
  C    -69.131100   -0.561144  -70.806500
  H    -70.092100   -0.856383  -70.327000
  H    -69.116200    0.535846  -70.738600
  C    -68.032900   -1.120910  -70.051400
  H    -67.140700   -0.825181  -70.585400
  H    -68.092800   -2.215050  -70.189600
  C    -67.882300   -0.802873  -68.548300
  H    -66.980100   -1.335980  -68.276200
  H    -68.757200   -1.258560  -68.063700
  H    -67.813700    0.248489  -68.240500
  H    -64.915500    2.832620  -73.936100
  H    -71.095900   -3.013880  -74.388900

 Total Charge           Charge          ....    0
 Multiplicity           Mult            ....    1
 Number of Electrons    NEL             ....  134
 Basis Dimension        Dim             ....  322

ORBITAL ENERGIES
----------------

  NO   OCC          E(Eh)            E(eV)
   0   2.0000     -88.971151     -2421.0281
   1   2.0000     -88.962612     -2420.7958
   2   2.0000     -10.331861      -281.1442
   3   2.0000     -10.330293      -281.1016
   4   2.0000     -10.319390      -280.8049
   5   2.0000     -10.318295      -280.7751
   6   2.0000     -10.307835      -280.4904
   7   2.0000     -10.304760      -280.4068
   8   2.0000     -10.298220      -280.2288
   9   2.0000     -10.296420      -280.1798
  10   2.0000     -10.292902      -280.0841
  11   2.0000     -10.287973      -279.9500
  12   2.0000     -10.285640      -279.8865
  13   2.0000     -10.279435      -279.7177
  14   2.0000     -10.277509      -279.6652
  15   2.0000     -10.274353      -279.5794
  16   2.0000      -8.085775      -220.0251
  17   2.0000      -8.077553      -219.8014
  18   2.0000      -6.044307      -164.4740
  19   2.0000      -6.040362      -164.3666
  20   2.0000      -6.036432      -164.2597
  21   2.0000      -6.036014      -164.2483
  22   2.0000      -6.031606      -164.1283
  23   2.0000      -6.028753      -164.0507
  24   2.0000      -1.006541       -27.3894
  25   2.0000      -0.986961       -26.8566
  26   2.0000      -0.913780       -24.8652
  27   2.0000      -0.903272       -24.5793
  28   2.0000      -0.869229       -23.6529
  29   2.0000      -0.848535       -23.0898
  30   2.0000      -0.844944       -22.9921
  31   2.0000      -0.814889       -22.1743
  32   2.0000      -0.784659       -21.3516
  33   2.0000      -0.775986       -21.1157
  34   2.0000      -0.702945       -19.1281
  35   2.0000      -0.700777       -19.0691
  36   2.0000      -0.684859       -18.6360
  37   2.0000      -0.663951       -18.0670
  38   2.0000      -0.645097       -17.5540
  39   2.0000      -0.614856       -16.7311
  40   2.0000      -0.596853       -16.2412
  41   2.0000      -0.573448       -15.6043
  42   2.0000      -0.565766       -15.3953
  43   2.0000      -0.557414       -15.1680
  44   2.0000      -0.525680       -14.3045
  45   2.0000      -0.519412       -14.1339
  46   2.0000      -0.517190       -14.0735
  47   2.0000      -0.511579       -13.9208
  48   2.0000      -0.509612       -13.8673
  49   2.0000      -0.502654       -13.6779
  50   2.0000      -0.496605       -13.5133
  51   2.0000      -0.478107       -13.0099
  52   2.0000      -0.473868       -12.8946
  53   2.0000      -0.469099       -12.7648
  54   2.0000      -0.466559       -12.6957
  55   2.0000      -0.446009       -12.1365
  56   2.0000      -0.438589       -11.9346
  57   2.0000      -0.437098       -11.8940
  58   2.0000      -0.429208       -11.6793
  59   2.0000      -0.426207       -11.5977
  60   2.0000      -0.416982       -11.3466
  61   2.0000      -0.412357       -11.2208
  62   2.0000      -0.400731       -10.9044
  63   2.0000      -0.339014        -9.2250
  64   2.0000      -0.331801        -9.0288
  65   2.0000      -0.325500        -8.8573
  66   2.0000      -0.307948        -8.3797
  67   0.0000       0.039515         1.0752
  68   0.0000       0.055661         1.5146
  69   0.0000       0.104564         2.8453
  70   0.0000       0.127684         3.4745
  71   0.0000       0.132423         3.6034

MULLIKEN ATOMIC CHARGES
-----------------------
   0 S :    0.132859
   1 C :   -0.124243
   2 C :   -0.081020
   3 C :    0.012861
   4 C :   -0.137108
   5 H :    0.032479
   6 C :    0.100491
   7 H :    0.019243
   8 H :    0.001930
   9 C :   -0.091361
  10 H :    0.029753
  11 H :    0.029855
  12 C :   -0.033246
  13 H :    0.036213
  14 H :    0.039208
  15 H :    0.019329
  16 S :    0.100630
  17 C :   -0.101776
  18 C :   -0.014703
  19 C :   -0.015316
  20 C :   -0.194111
  21 H :   -0.014862
  22 C :    0.071869
  23 H :    0.011405
  24 H :    0.024976
  25 C :   -0.090491
  26 H :    0.008367
  27 H :    0.019378
  28 C :   -0.020182
  29 H :    0.038044
  30 H :    0.028275
  31 H :    0.040023
  32 H :    0.053156
  33 H :    0.068075
Sum of atomic charges:    0.0000000

LOEWDIN ATOMIC CHARGES
----------------------
   0 S :    0.421553
   1 C :   -0.196850
   2 C :   -0.061910
   3 C :   -0.055444
   4 C :   -0.205768
   5 H :    0.039927
   6 C :   -0.032448
   7 H :    0.031613
   8 H :    0.019766
   9 C :   -0.040630
  10 H :    0.027852
  11 H :    0.021751
  12 C :   -0.063237
  13 H :    0.022446
  14 H :    0.035029
  15 H :    0.018981
  16 S :    0.421107
  17 C :   -0.193944
  18 C :   -0.066438
  19 C :   -0.056804
  20 C :   -0.200325
  21 H :    0.013521
  22 C :   -0.033546
  23 H :    0.027474
  24 H :    0.029223
  25 C :   -0.052393
  26 H :    0.014496
  27 H :    0.025862
  28 C :   -0.061206
  29 H :    0.030441
  30 H :    0.025485
  31 H :    0.026547
  32 H :    0.032711
  33 H :    0.035159

  Mayer bond orders larger than 0.100000
B(  0-S ,  1-C ) :   1.1469 B(  0-S ,  4-C ) :   1.1375 B(  1-C ,  2-C ) :   1.6169
B(  1-C , 32-H ) :   0.9693 B(  2-C ,  3-C ) :   1.2164 B(  2-C ,  6-C ) :   1.0294
B(  3-C ,  4-C ) :   1.6045 B(  3-C ,  5-H ) :   0.9885 B(  4-C , 20-C ) :   1.0156
B(  6-C ,  7-H ) :   0.9393 B(  6-C ,  8-H ) :   0.9351 B(  6-C ,  9-C ) :   1.0554
B(  9-C , 10-H ) :   0.9595 B(  9-C , 11-H ) :   0.9607 B(  9-C , 12-C ) :   1.0704
B( 12-C , 13-H ) :   0.9783 B( 12-C , 14-H ) :   0.9755 B( 12-C , 15-H ) :   0.9760
B( 16-S , 17-C ) :   1.1817 B( 16-S , 20-C ) :   1.1666 B( 17-C , 18-C ) :   1.5478
B( 17-C , 20-C ) :   0.1117 B( 17-C , 33-H ) :   0.9722 B( 18-C , 19-C ) :   1.2819
B( 18-C , 21-H ) :   1.0037 B( 19-C , 20-C ) :   1.5510 B( 19-C , 22-C ) :   1.0249
B( 22-C , 23-H ) :   0.9372 B( 22-C , 24-H ) :   0.9370 B( 22-C , 25-C ) :   1.0769
B( 25-C , 26-H ) :   0.9459 B( 25-C , 27-H ) :   0.9495 B( 25-C , 28-C ) :   1.0791
B( 28-C , 29-H ) :   0.9735 B( 28-C , 30-H ) :   0.9735 B( 28-C , 31-H ) :   0.9752

Dispersion correction           -0.013802562
FINAL SINGLE POINT ENERGY     -1339.875324461133

DIPOLE MOMENT
-------------
                                X             Y             Z
Electronic contribution:     -0.12888     -16.00597      -8.02977
Nuclear contribution   :     -0.11088      16.42370       8.18535
                        -----------------------------------------
Total Dipole Moment    :     -0.23976       0.41773       0.15557
                        -----------------------------------------
Magnitude (a.u.)       :      0.50615
Magnitude (Debye)      :      1.28653

Rotational constants in cm-1:     0.019928     0.007327     0.006035
Rotational constants in MHz :   597.418409   219.647351   180.931552

                             ****ORCA TERMINATED NORMALLY****
TOTAL RUN TIME: 0 days 0 hours 0 minutes 20 seconds 578 msec
