                         Program Version 4.2.1 -  RELEASE  -
|  1> ! wB97X-D3 SP def2-SVP
|  2> %pal
|  3> nprocs 24
|  4> end
|  5>
|  6> * xyz 0 1
|  7> S 	 -109.69 	 1.65931 	 -112.71
|  8> C 	 -110.098 	 2.68789 	 -114.187
|  9> C 	 -108.892 	 3.26012 	 -114.603
| 10> C 	 -107.79 	 2.96293 	 -113.747
| 11> C 	 -108.062 	 2.12034 	 -112.717
| 12> H 	 -106.793 	 3.25002 	 -113.871
| 13> C 	 -108.816 	 4.15316 	 -115.815
| 14> H 	 -109.804 	 4.54972 	 -115.822
| 15> H 	 -108.753 	 3.545 	 -116.707
| 16> C 	 -107.934 	 5.35698 	 -115.74
| 17> H 	 -108.109 	 6.04394 	 -114.939
| 18> H 	 -106.91 	 5.03493 	 -115.426
| 19> C 	 -107.809 	 6.25654 	 -117.027
| 20> H 	 -107.183 	 7.0732 	 -116.861
| 21> H 	 -107.587 	 5.57179 	 -117.842
| 22> H 	 -108.782 	 6.65174 	 -117.337
| 23> S 	 -107.377 	 1.78385 	 -110.039
| 24> C 	 -105.803 	 1.14507 	 -109.701
| 25> C 	 -105.073 	 0.740643 	 -110.808
| 26> C 	 -105.812 	 1.02496 	 -112.002
| 27> C 	 -107.094 	 1.5419 	 -111.764
| 28> H 	 -104.093 	 0.217733 	 -110.772
| 29> C 	 -105.288 	 0.518694 	 -113.347
| 30> H 	 -104.185 	 0.378769 	 -113.253
| 31> H 	 -105.388 	 1.30252 	 -114.054
| 32> C 	 -106 	 -0.765615 	 -113.842
| 33> H 	 -105.664 	 -1.05496 	 -114.836
| 34> H 	 -107.117 	 -0.461969 	 -114.001
| 35> C 	 -105.74 	 -2.01267 	 -113.003
| 36> H 	 -106.24 	 -1.90722 	 -112.039
| 37> H 	 -104.663 	 -2.25751 	 -113.02
| 38> H 	 -106.184 	 -2.9194 	 -113.5
| 39> H 	 -110.951 	 2.71382 	 -114.814
| 40> H 	 -105.434 	 0.912551 	 -108.678
| 41> *
| 42>
| 43>                          ****END OF INPUT****

CARTESIAN COORDINATES (ANGSTROEM)
---------------------------------
  S    -109.690000    1.659310  -112.710000
  C    -110.098000    2.687890  -114.187000
  C    -108.892000    3.260120  -114.603000
  C    -107.790000    2.962930  -113.747000
  C    -108.062000    2.120340  -112.717000
  H    -106.793000    3.250020  -113.871000
  C    -108.816000    4.153160  -115.815000
  H    -109.804000    4.549720  -115.822000
  H    -108.753000    3.545000  -116.707000
  C    -107.934000    5.356980  -115.740000
  H    -108.109000    6.043940  -114.939000
  H    -106.910000    5.034930  -115.426000
  C    -107.809000    6.256540  -117.027000
  H    -107.183000    7.073200  -116.861000
  H    -107.587000    5.571790  -117.842000
  H    -108.782000    6.651740  -117.337000
  S    -107.377000    1.783850  -110.039000
  C    -105.803000    1.145070  -109.701000
  C    -105.073000    0.740643  -110.808000
  C    -105.812000    1.024960  -112.002000
  C    -107.094000    1.541900  -111.764000
  H    -104.093000    0.217733  -110.772000
  C    -105.288000    0.518694  -113.347000
  H    -104.185000    0.378769  -113.253000
  H    -105.388000    1.302520  -114.054000
  C    -106.000000   -0.765615  -113.842000
  H    -105.664000   -1.054960  -114.836000
  H    -107.117000   -0.461969  -114.001000
  C    -105.740000   -2.012670  -113.003000
  H    -106.240000   -1.907220  -112.039000
  H    -104.663000   -2.257510  -113.020000
  H    -106.184000   -2.919400  -113.500000
  H    -110.951000    2.713820  -114.814000
  H    -105.434000    0.912551  -108.678000

 Total Charge           Charge          ....    0
 Multiplicity           Mult            ....    1
 Number of Electrons    NEL             ....  134
 Basis Dimension        Dim             ....  322

ORBITAL ENERGIES
----------------

  NO   OCC          E(Eh)            E(eV)
   0   2.0000     -88.971046     -2421.0252
   1   2.0000     -88.965878     -2420.8846
   2   2.0000     -10.329656      -281.0842
   3   2.0000     -10.326178      -280.9896
   4   2.0000     -10.321240      -280.8552
   5   2.0000     -10.317974      -280.7664
   6   2.0000     -10.306338      -280.4497
   7   2.0000     -10.304177      -280.3909
   8   2.0000     -10.298829      -280.2454
   9   2.0000     -10.291804      -280.0542
  10   2.0000     -10.290855      -280.0284
  11   2.0000     -10.288014      -279.9511
  12   2.0000     -10.287278      -279.9311
  13   2.0000     -10.284191      -279.8471
  14   2.0000     -10.279341      -279.7151
  15   2.0000     -10.278295      -279.6866
  16   2.0000      -8.085701      -220.0231
  17   2.0000      -8.080121      -219.8713
  18   2.0000      -6.044120      -164.4689
  19   2.0000      -6.040251      -164.3636
  20   2.0000      -6.038716      -164.3218
  21   2.0000      -6.036533      -164.2624
  22   2.0000      -6.034610      -164.2101
  23   2.0000      -6.030873      -164.1084
  24   2.0000      -1.007231       -27.4082
  25   2.0000      -0.983540       -26.7635
  26   2.0000      -0.917080       -24.9550
  27   2.0000      -0.904968       -24.6254
  28   2.0000      -0.867642       -23.6097
  29   2.0000      -0.848716       -23.0947
  30   2.0000      -0.841929       -22.9100
  31   2.0000      -0.816445       -22.2166
  32   2.0000      -0.787601       -21.4317
  33   2.0000      -0.774117       -21.0648
  34   2.0000      -0.713023       -19.4024
  35   2.0000      -0.697748       -18.9867
  36   2.0000      -0.682455       -18.5705
  37   2.0000      -0.659447       -17.9445
  38   2.0000      -0.643446       -17.5091
  39   2.0000      -0.619499       -16.8574
  40   2.0000      -0.590440       -16.0667
  41   2.0000      -0.573665       -15.6102
  42   2.0000      -0.560600       -15.2547
  43   2.0000      -0.551353       -15.0031
  44   2.0000      -0.545628       -14.8473
  45   2.0000      -0.535640       -14.5755
  46   2.0000      -0.514803       -14.0085
  47   2.0000      -0.507754       -13.8167
  48   2.0000      -0.505024       -13.7424
  49   2.0000      -0.497597       -13.5403
  50   2.0000      -0.486660       -13.2427
  51   2.0000      -0.479002       -13.0343
  52   2.0000      -0.470005       -12.7895
  53   2.0000      -0.469175       -12.7669
  54   2.0000      -0.459781       -12.5113
  55   2.0000      -0.456593       -12.4245
  56   2.0000      -0.447475       -12.1764
  57   2.0000      -0.438570       -11.9341
  58   2.0000      -0.433281       -11.7902
  59   2.0000      -0.417359       -11.3569
  60   2.0000      -0.414170       -11.2701
  61   2.0000      -0.410867       -11.1802
  62   2.0000      -0.403257       -10.9732
  63   2.0000      -0.343813        -9.3556
  64   2.0000      -0.334872        -9.1123
  65   2.0000      -0.330546        -8.9946
  66   2.0000      -0.295307        -8.0357
  67   0.0000       0.028917         0.7869
  68   0.0000       0.066299         1.8041
  69   0.0000       0.104997         2.8571
  70   0.0000       0.119372         3.2483
  71   0.0000       0.134254         3.6532

MULLIKEN ATOMIC CHARGES
-----------------------
   0 S :    0.095603
   1 C :   -0.104083
   2 C :   -0.120363
   3 C :    0.041557
   4 C :   -0.137714
   5 H :   -0.014755
   6 C :    0.127695
   7 H :    0.008328
   8 H :    0.040203
   9 C :   -0.114396
  10 H :    0.022617
  11 H :    0.021715
  12 C :   -0.013492
  13 H :    0.034165
  14 H :    0.026337
  15 H :    0.019644
  16 S :    0.124475
  17 C :   -0.096778
  18 C :   -0.045823
  19 C :   -0.068407
  20 C :   -0.154978
  21 H :    0.038812
  22 C :    0.098597
  23 H :    0.017171
  24 H :    0.008660
  25 C :   -0.094257
  26 H :    0.022168
  27 H :    0.053255
  28 C :   -0.060674
  29 H :    0.053673
  30 H :    0.032226
  31 H :    0.034541
  32 H :    0.037423
  33 H :    0.066856
Sum of atomic charges:    0.0000000

LOEWDIN ATOMIC CHARGES
----------------------
   0 S :    0.396792
   1 C :   -0.180252
   2 C :   -0.047813
   3 C :   -0.071830
   4 C :   -0.204671
   5 H :    0.019956
   6 C :   -0.035262
   7 H :    0.031663
   8 H :    0.034985
   9 C :   -0.044538
  10 H :    0.023491
  11 H :    0.021186
  12 C :   -0.054133
  13 H :    0.020686
  14 H :    0.025266
  15 H :    0.023745
  16 S :    0.417171
  17 C :   -0.192469
  18 C :   -0.076884
  19 C :   -0.051508
  20 C :   -0.204532
  21 H :    0.042156
  22 C :   -0.031879
  23 H :    0.029497
  24 H :    0.022397
  25 C :   -0.046002
  26 H :    0.020494
  27 H :    0.036800
  28 C :   -0.072527
  29 H :    0.028392
  30 H :    0.027702
  31 H :    0.032264
  32 H :    0.024796
  33 H :    0.034860

  Mayer bond orders larger than 0.100000
B(  0-S ,  1-C ) :   1.1060 B(  0-S ,  4-C ) :   1.1661 B(  1-C ,  2-C ) :   1.6268
B(  1-C , 32-H ) :   0.9733 B(  2-C ,  3-C ) :   1.2214 B(  2-C ,  6-C ) :   1.0067
B(  3-C ,  4-C ) :   1.5901 B(  3-C ,  5-H ) :   1.0060 B(  4-C , 20-C ) :   0.9956
B(  6-C ,  7-H ) :   0.9339 B(  6-C ,  8-H ) :   0.9293 B(  6-C ,  9-C ) :   1.0665
B(  9-C , 10-H ) :   0.9564 B(  9-C , 11-H ) :   0.9504 B(  9-C , 12-C ) :   1.0830
B( 12-C , 13-H ) :   0.9749 B( 12-C , 14-H ) :   0.9763 B( 12-C , 15-H ) :   0.9753
B( 16-S , 17-C ) :   1.1733 B( 16-S , 20-C ) :   1.1405 B( 17-C , 18-C ) :   1.5971
B( 17-C , 20-C ) :   0.1006 B( 17-C , 33-H ) :   0.9576 B( 18-C , 19-C ) :   1.2577
B( 18-C , 21-H ) :   0.9829 B( 19-C , 20-C ) :   1.5871 B( 19-C , 22-C ) :   1.0410
B( 22-C , 23-H ) :   0.9366 B( 22-C , 24-H ) :   0.9249 B( 22-C , 25-C ) :   1.0711
B( 25-C , 26-H ) :   0.9549 B( 25-C , 27-H ) :   0.9536 B( 25-C , 28-C ) :   1.0756
B( 28-C , 29-H ) :   0.9752 B( 28-C , 30-H ) :   0.9710 B( 28-C , 31-H ) :   0.9722

Dispersion correction           -0.014709590
FINAL SINGLE POINT ENERGY     -1339.868121360492

DIPOLE MOMENT
-------------
                                X             Y             Z
Electronic contribution:     -9.92108      -2.71718      22.17120
Nuclear contribution   :     10.36174       2.71801     -22.70287
                        -----------------------------------------
Total Dipole Moment    :      0.44067       0.00082      -0.53167
                        -----------------------------------------
Magnitude (a.u.)       :      0.69055
Magnitude (Debye)      :      1.75524

Rotational constants in cm-1:     0.019811     0.007799     0.007215
Rotational constants in MHz :   593.933627   233.814896   216.311176

                             ****ORCA TERMINATED NORMALLY****
TOTAL RUN TIME: 0 days 0 hours 0 minutes 21 seconds 838 msec
