                         Program Version 4.2.1 -  RELEASE  -
|  1> ! wB97X-D3 SP def2-SVP
|  2> %pal
|  3> nprocs 24
|  4> end
|  5>
|  6> * xyz 0 1
|  7> S 	 46.2551 	 -15.5673 	 -108.551
|  8> C 	 47.0595 	 -15.3387 	 -110.094
|  9> C 	 46.6155 	 -14.2654 	 -110.781
| 10> C 	 45.6839 	 -13.5363 	 -109.965
| 11> C 	 45.3649 	 -14.046 	 -108.738
| 12> H 	 45.1633 	 -12.634 	 -110.372
| 13> C 	 47.1004 	 -13.8461 	 -112.186
| 14> H 	 46.3169 	 -13.9801 	 -112.931
| 15> H 	 47.8201 	 -14.6101 	 -112.387
| 16> C 	 47.7649 	 -12.4587 	 -112.332
| 17> H 	 47.0862 	 -11.723 	 -111.924
| 18> H 	 48.5658 	 -12.3935 	 -111.634
| 19> C 	 48.1744 	 -12.208 	 -113.871
| 20> H 	 48.8632 	 -11.3958 	 -113.924
| 21> H 	 48.7184 	 -13.0502 	 -114.43
| 22> H 	 47.2226 	 -11.9741 	 -114.388
| 23> S 	 43.2074 	 -14.4657 	 -107.202
| 24> C 	 42.4005 	 -13.1321 	 -106.404
| 25> C 	 43.2452 	 -12.0384 	 -106.409
| 26> C 	 44.4211 	 -12.225 	 -107.189
| 27> C 	 44.5529 	 -13.478 	 -107.689
| 28> H 	 42.9062 	 -11.1047 	 -105.903
| 29> C 	 45.5179 	 -11.1916 	 -107.23
| 30> H 	 46.2385 	 -11.5617 	 -107.976
| 31> H 	 45.9962 	 -11.3252 	 -106.255
| 32> C 	 45.1399 	 -9.72562 	 -107.539
| 33> H 	 46.1423 	 -9.25978 	 -107.57
| 34> H 	 44.5842 	 -9.3393 	 -106.708
| 35> C 	 44.3883 	 -9.50004 	 -108.79
| 36> H 	 44.125 	 -8.49374 	 -108.838
| 37> H 	 43.3982 	 -10.0266 	 -108.73
| 38> H 	 44.893 	 -9.93507 	 -109.644
| 39> H 	 47.8637 	 -15.9072 	 -110.602
| 40> H 	 41.3554 	 -13.1627 	 -106.054
| 41> *
| 42>
| 43>                          ****END OF INPUT****

CARTESIAN COORDINATES (ANGSTROEM)
---------------------------------
  S     46.255100  -15.567300  -108.551000
  C     47.059500  -15.338700  -110.094000
  C     46.615500  -14.265400  -110.781000
  C     45.683900  -13.536300  -109.965000
  C     45.364900  -14.046000  -108.738000
  H     45.163300  -12.634000  -110.372000
  C     47.100400  -13.846100  -112.186000
  H     46.316900  -13.980100  -112.931000
  H     47.820100  -14.610100  -112.387000
  C     47.764900  -12.458700  -112.332000
  H     47.086200  -11.723000  -111.924000
  H     48.565800  -12.393500  -111.634000
  C     48.174400  -12.208000  -113.871000
  H     48.863200  -11.395800  -113.924000
  H     48.718400  -13.050200  -114.430000
  H     47.222600  -11.974100  -114.388000
  S     43.207400  -14.465700  -107.202000
  C     42.400500  -13.132100  -106.404000
  C     43.245200  -12.038400  -106.409000
  C     44.421100  -12.225000  -107.189000
  C     44.552900  -13.478000  -107.689000
  H     42.906200  -11.104700  -105.903000
  C     45.517900  -11.191600  -107.230000
  H     46.238500  -11.561700  -107.976000
  H     45.996200  -11.325200  -106.255000
  C     45.139900   -9.725620  -107.539000
  H     46.142300   -9.259780  -107.570000
  H     44.584200   -9.339300  -106.708000
  C     44.388300   -9.500040  -108.790000
  H     44.125000   -8.493740  -108.838000
  H     43.398200  -10.026600  -108.730000
  H     44.893000   -9.935070  -109.644000
  H     47.863700  -15.907200  -110.602000
  H     41.355400  -13.162700  -106.054000

 Total Charge           Charge          ....    0
 Multiplicity           Mult            ....    1
 Number of Electrons    NEL             ....  134
 Basis Dimension        Dim             ....  322

ORBITAL ENERGIES
----------------

  NO   OCC          E(Eh)            E(eV)
   0   2.0000     -88.965243     -2420.8673
   1   2.0000     -88.960363     -2420.7345
   2   2.0000     -10.329847      -281.0894
   3   2.0000     -10.322268      -280.8832
   4   2.0000     -10.320926      -280.8467
   5   2.0000     -10.312502      -280.6174
   6   2.0000     -10.299696      -280.2690
   7   2.0000     -10.297175      -280.2004
   8   2.0000     -10.296350      -280.1779
   9   2.0000     -10.294344      -280.1234
  10   2.0000     -10.294165      -280.1185
  11   2.0000     -10.293573      -280.1024
  12   2.0000     -10.292714      -280.0790
  13   2.0000     -10.287931      -279.9488
  14   2.0000     -10.283273      -279.8221
  15   2.0000     -10.272298      -279.5234
  16   2.0000      -8.079608      -219.8573
  17   2.0000      -8.075921      -219.7570
  18   2.0000      -6.038280      -164.3099
  19   2.0000      -6.034443      -164.2055
  20   2.0000      -6.034286      -164.2013
  21   2.0000      -6.030225      -164.0908
  22   2.0000      -6.030084      -164.0869
  23   2.0000      -6.026681      -163.9943
  24   2.0000      -1.011103       -27.5135
  25   2.0000      -0.987028       -26.8584
  26   2.0000      -0.914055       -24.8727
  27   2.0000      -0.906882       -24.6775
  28   2.0000      -0.872337       -23.7375
  29   2.0000      -0.854669       -23.2567
  30   2.0000      -0.839133       -22.8340
  31   2.0000      -0.816503       -22.2182
  32   2.0000      -0.783238       -21.3130
  33   2.0000      -0.774957       -21.0877
  34   2.0000      -0.716399       -19.4942
  35   2.0000      -0.700766       -19.0688
  36   2.0000      -0.695182       -18.9169
  37   2.0000      -0.658658       -17.9230
  38   2.0000      -0.636352       -17.3160
  39   2.0000      -0.616201       -16.7677
  40   2.0000      -0.596704       -16.2371
  41   2.0000      -0.572940       -15.5905
  42   2.0000      -0.563835       -15.3427
  43   2.0000      -0.555204       -15.1079
  44   2.0000      -0.539183       -14.6719
  45   2.0000      -0.526503       -14.3269
  46   2.0000      -0.520139       -14.1537
  47   2.0000      -0.507593       -13.8123
  48   2.0000      -0.502525       -13.6744
  49   2.0000      -0.500664       -13.6237
  50   2.0000      -0.493976       -13.4418
  51   2.0000      -0.479582       -13.0501
  52   2.0000      -0.476416       -12.9639
  53   2.0000      -0.462840       -12.5945
  54   2.0000      -0.455513       -12.3951
  55   2.0000      -0.448264       -12.1979
  56   2.0000      -0.444811       -12.1039
  57   2.0000      -0.439444       -11.9579
  58   2.0000      -0.433805       -11.8044
  59   2.0000      -0.425251       -11.5717
  60   2.0000      -0.422000       -11.4832
  61   2.0000      -0.417940       -11.3727
  62   2.0000      -0.407343       -11.0844
  63   2.0000      -0.351148        -9.5552
  64   2.0000      -0.330830        -9.0023
  65   2.0000      -0.328033        -8.9262
  66   2.0000      -0.295097        -8.0300
  67   0.0000       0.036292         0.9875
  68   0.0000       0.064748         1.7619
  69   0.0000       0.113426         3.0865
  70   0.0000       0.121280         3.3002
  71   0.0000       0.128634         3.5003

MULLIKEN ATOMIC CHARGES
-----------------------
   0 S :    0.106287
   1 C :   -0.114482
   2 C :   -0.123629
   3 C :    0.002321
   4 C :   -0.135930
   5 H :    0.021407
   6 C :    0.091931
   7 H :    0.036472
   8 H :   -0.002405
   9 C :   -0.060544
  10 H :    0.025230
  11 H :    0.020947
  12 C :   -0.076189
  13 H :    0.035000
  14 H :    0.049761
  15 H :    0.048108
  16 S :    0.092262
  17 C :   -0.110301
  18 C :   -0.045995
  19 C :   -0.060220
  20 C :   -0.128210
  21 H :    0.034638
  22 C :    0.039846
  23 H :    0.024106
  24 H :    0.048584
  25 C :   -0.071377
  26 H :    0.035145
  27 H :    0.021655
  28 C :   -0.013654
  29 H :    0.025717
  30 H :    0.031409
  31 H :    0.029708
  32 H :    0.047486
  33 H :    0.074918
Sum of atomic charges:    0.0000000

LOEWDIN ATOMIC CHARGES
----------------------
   0 S :    0.387626
   1 C :   -0.197318
   2 C :   -0.072904
   3 C :   -0.069560
   4 C :   -0.189196
   5 H :    0.033170
   6 C :   -0.025896
   7 H :    0.031285
   8 H :    0.023185
   9 C :   -0.034253
  10 H :    0.021706
  11 H :    0.018992
  12 C :   -0.068621
  13 H :    0.020982
  14 H :    0.036509
  15 H :    0.031459
  16 S :    0.406680
  17 C :   -0.181533
  18 C :   -0.081181
  19 C :   -0.061501
  20 C :   -0.205711
  21 H :    0.037835
  22 C :   -0.032813
  23 H :    0.030215
  24 H :    0.040465
  25 C :   -0.042713
  26 H :    0.030996
  27 H :    0.018333
  28 C :   -0.061008
  29 H :    0.021311
  30 H :    0.033150
  31 H :    0.024063
  32 H :    0.037719
  33 H :    0.038526

  Mayer bond orders larger than 0.100000
B(  0-S ,  1-C ) :   1.1249 B(  0-S ,  4-C ) :   1.1198 B(  1-C ,  2-C ) :   1.6768
B(  1-C , 32-H ) :   0.9474 B(  2-C ,  3-C ) :   1.2219 B(  2-C ,  6-C ) :   1.0123
B(  3-C ,  4-C ) :   1.6176 B(  3-C ,  5-H ) :   0.9880 B(  4-C , 20-C ) :   1.0043
B(  6-C ,  7-H ) :   0.9409 B(  6-C ,  8-H ) :   0.9355 B(  6-C ,  9-C ) :   1.0543
B(  9-C , 10-H ) :   0.9601 B(  9-C , 11-H ) :   0.9589 B(  9-C , 12-C ) :   1.0568
B( 12-C , 13-H ) :   0.9785 B( 12-C , 14-H ) :   0.9787 B( 12-C , 15-H ) :   0.9775
B( 16-S , 17-C ) :   1.1670 B( 16-S , 20-C ) :   1.1312 B( 17-C , 18-C ) :   1.5975
B( 17-C , 33-H ) :   0.9666 B( 18-C , 19-C ) :   1.2209 B( 18-C , 21-H ) :   0.9872
B( 19-C , 20-C ) :   1.6258 B( 19-C , 22-C ) :   1.0296 B( 22-C , 23-H ) :   0.9351
B( 22-C , 24-H ) :   0.9375 B( 22-C , 25-C ) :   1.0676 B( 25-C , 26-H ) :   0.9519
B( 25-C , 27-H ) :   0.9509 B( 25-C , 28-C ) :   1.0984 B( 28-C , 29-H ) :   0.9678
B( 28-C , 30-H ) :   0.9631 B( 28-C , 31-H ) :   0.9719

Dispersion correction           -0.014517335
FINAL SINGLE POINT ENERGY     -1339.874896225708

DIPOLE MOMENT
-------------
                                X             Y             Z
Electronic contribution:    -10.10249     -23.26316      17.87381
Nuclear contribution   :     10.19974      24.01890     -18.21248
                        -----------------------------------------
Total Dipole Moment    :      0.09725       0.75574      -0.33867
                        -----------------------------------------
Magnitude (a.u.)       :      0.83384
Magnitude (Debye)      :      2.11946

Rotational constants in cm-1:     0.018127     0.008966     0.006555
Rotational constants in MHz :   543.443480   268.788271   196.525870

                             ****ORCA TERMINATED NORMALLY****
TOTAL RUN TIME: 0 days 0 hours 0 minutes 21 seconds 738 msec
