                         Program Version 4.2.1 -  RELEASE  -
|  1> ! wB97X-D3 SP def2-SVP
|  2> %pal
|  3> nprocs 24
|  4> end
|  5>
|  6> * xyz 0 1
|  7> S 	 26.9867 	 -6.02427 	 -112.465
|  8> C 	 26.75 	 -7.30987 	 -113.505
|  9> C 	 25.403 	 -7.57345 	 -113.686
| 10> C 	 24.5183 	 -6.76702 	 -112.929
| 11> C 	 25.2343 	 -5.86631 	 -112.13
| 12> H 	 23.4288 	 -6.69548 	 -112.807
| 13> C 	 24.9531 	 -8.71629 	 -114.521
| 14> H 	 24.0361 	 -9.19364 	 -114.055
| 15> H 	 25.7634 	 -9.49957 	 -114.466
| 16> C 	 24.5617 	 -8.4047 	 -115.969
| 17> H 	 25.4345 	 -7.91631 	 -116.325
| 18> H 	 24.4552 	 -9.35438 	 -116.448
| 19> C 	 23.3273 	 -7.55094 	 -116.115
| 20> H 	 22.4573 	 -7.9404 	 -115.547
| 21> H 	 23.432 	 -6.57813 	 -115.805
| 22> H 	 22.8508 	 -7.45522 	 -117.095
| 23> S 	 25.2686 	 -3.14859 	 -111.37
| 24> C 	 24.016 	 -2.60495 	 -110.329
| 25> C 	 23.3053 	 -3.59657 	 -109.739
| 26> C 	 23.5345 	 -4.86414 	 -110.405
| 27> C 	 24.5768 	 -4.78236 	 -111.315
| 28> H 	 22.6102 	 -3.37778 	 -108.973
| 29> C 	 22.8013 	 -6.10862 	 -109.995
| 30> H 	 23.1721 	 -6.42153 	 -108.98
| 31> H 	 23.0529 	 -6.98152 	 -110.676
| 32> C 	 21.2767 	 -5.82967 	 -110.003
| 33> H 	 21.0307 	 -5.66486 	 -111.029
| 34> H 	 20.9835 	 -4.87701 	 -109.491
| 35> C 	 20.5278 	 -7.00647 	 -109.434
| 36> H 	 19.4203 	 -6.92124 	 -109.452
| 37> H 	 20.7803 	 -7.11597 	 -108.408
| 38> H 	 20.6873 	 -7.93642 	 -109.892
| 39> H 	 27.6366 	 -7.81091 	 -113.887
| 40> H 	 24.0638 	 -1.59682 	 -109.929
| 41> *
| 42>
| 43>                          ****END OF INPUT****

CARTESIAN COORDINATES (ANGSTROEM)
---------------------------------
  S     26.986700   -6.024270  -112.465000
  C     26.750000   -7.309870  -113.505000
  C     25.403000   -7.573450  -113.686000
  C     24.518300   -6.767020  -112.929000
  C     25.234300   -5.866310  -112.130000
  H     23.428800   -6.695480  -112.807000
  C     24.953100   -8.716290  -114.521000
  H     24.036100   -9.193640  -114.055000
  H     25.763400   -9.499570  -114.466000
  C     24.561700   -8.404700  -115.969000
  H     25.434500   -7.916310  -116.325000
  H     24.455200   -9.354380  -116.448000
  C     23.327300   -7.550940  -116.115000
  H     22.457300   -7.940400  -115.547000
  H     23.432000   -6.578130  -115.805000
  H     22.850800   -7.455220  -117.095000
  S     25.268600   -3.148590  -111.370000
  C     24.016000   -2.604950  -110.329000
  C     23.305300   -3.596570  -109.739000
  C     23.534500   -4.864140  -110.405000
  C     24.576800   -4.782360  -111.315000
  H     22.610200   -3.377780  -108.973000
  C     22.801300   -6.108620  -109.995000
  H     23.172100   -6.421530  -108.980000
  H     23.052900   -6.981520  -110.676000
  C     21.276700   -5.829670  -110.003000
  H     21.030700   -5.664860  -111.029000
  H     20.983500   -4.877010  -109.491000
  C     20.527800   -7.006470  -109.434000
  H     19.420300   -6.921240  -109.452000
  H     20.780300   -7.115970  -108.408000
  H     20.687300   -7.936420  -109.892000
  H     27.636600   -7.810910  -113.887000
  H     24.063800   -1.596820  -109.929000

 Total Charge           Charge          ....    0
 Multiplicity           Mult            ....    1
 Number of Electrons    NEL             ....  134
 Basis Dimension        Dim             ....  322

ORBITAL ENERGIES
----------------

  NO   OCC          E(Eh)            E(eV)
   0   2.0000     -88.966684     -2420.9065
   1   2.0000     -88.963263     -2420.8134
   2   2.0000     -10.333947      -281.2010
   3   2.0000     -10.330161      -281.0980
   4   2.0000     -10.311523      -280.5908
   5   2.0000     -10.310968      -280.5757
   6   2.0000     -10.304320      -280.3948
   7   2.0000     -10.299423      -280.2615
   8   2.0000     -10.298945      -280.2485
   9   2.0000     -10.297239      -280.2021
  10   2.0000     -10.291404      -280.0433
  11   2.0000     -10.291371      -280.0424
  12   2.0000     -10.288312      -279.9592
  13   2.0000     -10.278676      -279.6970
  14   2.0000     -10.271329      -279.4971
  15   2.0000     -10.269621      -279.4506
  16   2.0000      -8.082255      -219.9293
  17   2.0000      -8.078612      -219.8302
  18   2.0000      -6.040556      -164.3719
  19   2.0000      -6.037121      -164.2784
  20   2.0000      -6.036552      -164.2629
  21   2.0000      -6.033280      -164.1739
  22   2.0000      -6.033244      -164.1729
  23   2.0000      -6.029131      -164.0610
  24   2.0000      -1.007084       -27.4042
  25   2.0000      -0.990358       -26.9490
  26   2.0000      -0.913284       -24.8517
  27   2.0000      -0.912542       -24.8315
  28   2.0000      -0.870621       -23.6908
  29   2.0000      -0.853949       -23.2371
  30   2.0000      -0.849494       -23.1159
  31   2.0000      -0.817968       -22.2580
  32   2.0000      -0.782128       -21.2828
  33   2.0000      -0.769262       -20.9327
  34   2.0000      -0.707687       -19.2571
  35   2.0000      -0.701360       -19.0850
  36   2.0000      -0.692647       -18.8479
  37   2.0000      -0.661768       -18.0076
  38   2.0000      -0.646772       -17.5996
  39   2.0000      -0.612776       -16.6745
  40   2.0000      -0.597503       -16.2589
  41   2.0000      -0.577983       -15.7277
  42   2.0000      -0.567263       -15.4360
  43   2.0000      -0.544885       -14.8271
  44   2.0000      -0.542842       -14.7715
  45   2.0000      -0.522586       -14.2203
  46   2.0000      -0.518586       -14.1115
  47   2.0000      -0.513552       -13.9744
  48   2.0000      -0.505354       -13.7514
  49   2.0000      -0.494889       -13.4666
  50   2.0000      -0.487265       -13.2592
  51   2.0000      -0.481082       -13.0909
  52   2.0000      -0.472390       -12.8544
  53   2.0000      -0.468047       -12.7362
  54   2.0000      -0.460533       -12.5317
  55   2.0000      -0.456907       -12.4331
  56   2.0000      -0.443477       -12.0676
  57   2.0000      -0.437709       -11.9107
  58   2.0000      -0.431272       -11.7355
  59   2.0000      -0.424121       -11.5409
  60   2.0000      -0.419681       -11.4201
  61   2.0000      -0.417830       -11.3697
  62   2.0000      -0.414589       -11.2815
  63   2.0000      -0.356825        -9.7097
  64   2.0000      -0.330703        -8.9989
  65   2.0000      -0.326957        -8.8969
  66   2.0000      -0.287312        -7.8182
  67   0.0000       0.031834         0.8663
  68   0.0000       0.071100         1.9347
  69   0.0000       0.111646         3.0380
  70   0.0000       0.118288         3.2188
  71   0.0000       0.124272         3.3816

MULLIKEN ATOMIC CHARGES
-----------------------
   0 S :    0.115482
   1 C :   -0.131272
   2 C :   -0.051032
   3 C :    0.016231
   4 C :   -0.160037
   5 H :    0.032265
   6 C :   -0.015852
   7 H :    0.025871
   8 H :    0.031937
   9 C :    0.014030
  10 H :    0.012729
  11 H :    0.025348
  12 C :   -0.040329
  13 H :    0.012865
  14 H :    0.021405
  15 H :    0.028365
  16 S :    0.099779
  17 C :   -0.086515
  18 C :   -0.016722
  19 C :   -0.046716
  20 C :   -0.153285
  21 H :    0.012403
  22 C :    0.026776
  23 H :    0.044808
  24 H :    0.033366
  25 C :   -0.088331
  26 H :    0.021237
  27 H :    0.039752
  28 C :   -0.003068
  29 H :    0.029687
  30 H :    0.016737
  31 H :    0.014161
  32 H :    0.059764
  33 H :    0.058162
Sum of atomic charges:   -0.0000000

LOEWDIN ATOMIC CHARGES
----------------------
   0 S :    0.423376
   1 C :   -0.220507
   2 C :   -0.073533
   3 C :   -0.063992
   4 C :   -0.182025
   5 H :    0.039827
   6 C :   -0.038229
   7 H :    0.029139
   8 H :    0.034123
   9 C :   -0.032314
  10 H :    0.020036
  11 H :    0.023506
  12 C :   -0.068087
  13 H :    0.026468
  14 H :    0.015632
  15 H :    0.030487
  16 S :    0.398294
  17 C :   -0.188389
  18 C :   -0.064203
  19 C :   -0.057711
  20 C :   -0.189935
  21 H :    0.026439
  22 C :   -0.035406
  23 H :    0.036766
  24 H :    0.035426
  25 C :   -0.039653
  26 H :    0.020853
  27 H :    0.029231
  28 C :   -0.064635
  29 H :    0.029813
  30 H :    0.021402
  31 H :    0.018000
  32 H :    0.032213
  33 H :    0.027587

  Mayer bond orders larger than 0.100000
B(  0-S ,  1-C ) :   1.1653 B(  0-S ,  4-C ) :   1.1653 B(  1-C ,  2-C ) :   1.5596
B(  1-C , 32-H ) :   0.9724 B(  2-C ,  3-C ) :   1.2522 B(  2-C ,  6-C ) :   1.0259
B(  3-C ,  4-C ) :   1.5473 B(  3-C ,  5-H ) :   0.9901 B(  4-C , 20-C ) :   1.0375
B(  6-C ,  7-H ) :   0.9444 B(  6-C ,  8-H ) :   0.9459 B(  6-C ,  9-C ) :   1.0684
B(  9-C , 10-H ) :   0.9506 B(  9-C , 11-H ) :   0.9538 B(  9-C , 12-C ) :   1.0812
B( 12-C , 13-H ) :   0.9704 B( 12-C , 14-H ) :   0.9726 B( 12-C , 15-H ) :   0.9713
B( 16-S , 17-C ) :   1.1565 B( 16-S , 20-C ) :   1.1254 B( 17-C , 18-C ) :   1.6438
B( 17-C , 33-H ) :   0.9602 B( 18-C , 19-C ) :   1.2064 B( 18-C , 21-H ) :   0.9934
B( 19-C , 20-C ) :   1.6216 B( 19-C , 22-C ) :   1.0448 B( 22-C , 23-H ) :   0.9355
B( 22-C , 24-H ) :   0.9365 B( 22-C , 25-C ) :   1.0395 B( 25-C , 26-H ) :   0.9539
B( 25-C , 27-H ) :   0.9580 B( 25-C , 28-C ) :   1.0875 B( 28-C , 29-H ) :   0.9714
B( 28-C , 30-H ) :   0.9718 B( 28-C , 31-H ) :   0.9702

Dispersion correction           -0.014085813
FINAL SINGLE POINT ENERGY     -1339.877325466668

DIPOLE MOMENT
-------------
                                X             Y             Z
Electronic contribution:     22.41510      16.79140       5.11443
Nuclear contribution   :    -22.85164     -17.11662      -5.00905
                        -----------------------------------------
Total Dipole Moment    :     -0.43654      -0.32522       0.10537
                        -----------------------------------------
Magnitude (a.u.)       :      0.55447
Magnitude (Debye)      :      1.40936

Rotational constants in cm-1:     0.016645     0.009133     0.006833
Rotational constants in MHz :   498.993728   273.808308   204.844186

                             ****ORCA TERMINATED NORMALLY****
TOTAL RUN TIME: 0 days 0 hours 0 minutes 21 seconds 617 msec
