                         Program Version 4.2.1 -  RELEASE  -
|  1> ! wB97X-D3 SP def2-SVP
|  2> %pal
|  3> nprocs 24
|  4> end
|  5>
|  6> * xyz 0 1
|  7> S 	 -139.656 	 14.5402 	 -2.52701
|  8> C 	 -140.189 	 13.0239 	 -1.7766
|  9> C 	 -139.15 	 12.3183 	 -1.24052
| 10> C 	 -137.871 	 12.9293 	 -1.45353
| 11> C 	 -138.004 	 14.1133 	 -2.21295
| 12> H 	 -136.875 	 12.5959 	 -1.15045
| 13> C 	 -139.303 	 11.0345 	 -0.491584
| 14> H 	 -140.317 	 11.173 	 0.0721384
| 15> H 	 -138.523 	 11.0026 	 0.328587
| 16> C 	 -139.207 	 9.82644 	 -1.31377
| 17> H 	 -140.034 	 9.83951 	 -2.1188
| 18> H 	 -138.295 	 9.84641 	 -1.87454
| 19> C 	 -139.358 	 8.40414 	 -0.59898
| 20> H 	 -140.27 	 8.34871 	 0.0694637
| 21> H 	 -139.257 	 7.71127 	 -1.41998
| 22> H 	 -138.531 	 8.29212 	 0.0780457
| 23> S 	 -137.008 	 16.7661 	 -2.37916
| 24> C 	 -135.433 	 17.0418 	 -3.04582
| 25> C 	 -134.805 	 15.8704 	 -3.28977
| 26> C 	 -135.584 	 14.7219 	 -2.94044
| 27> C 	 -136.953 	 14.9804 	 -2.6406
| 28> H 	 -133.749 	 15.6901 	 -3.64842
| 29> C 	 -135.024 	 13.3497 	 -3.11583
| 30> H 	 -134.68 	 13.3898 	 -4.1361
| 31> H 	 -135.822 	 12.576 	 -3.1766
| 32> C 	 -133.872 	 13.0372 	 -2.12948
| 33> H 	 -134.251 	 13.2807 	 -1.15989
| 34> H 	 -133.031 	 13.7015 	 -2.22006
| 35> C 	 -133.227 	 11.6516 	 -2.30697
| 36> H 	 -132.887 	 11.3031 	 -1.32663
| 37> H 	 -132.427 	 11.6747 	 -3.06401
| 38> H 	 -134.012 	 10.9721 	 -2.53619
| 39> H 	 -141.179 	 12.6925 	 -1.6077
| 40> H 	 -134.969 	 18.0125 	 -3.10994
| 41> *
| 42>
| 43>                          ****END OF INPUT****

CARTESIAN COORDINATES (ANGSTROEM)
---------------------------------
  S    -139.656000   14.540200   -2.527010
  C    -140.189000   13.023900   -1.776600
  C    -139.150000   12.318300   -1.240520
  C    -137.871000   12.929300   -1.453530
  C    -138.004000   14.113300   -2.212950
  H    -136.875000   12.595900   -1.150450
  C    -139.303000   11.034500   -0.491584
  H    -140.317000   11.173000    0.072138
  H    -138.523000   11.002600    0.328587
  C    -139.207000    9.826440   -1.313770
  H    -140.034000    9.839510   -2.118800
  H    -138.295000    9.846410   -1.874540
  C    -139.358000    8.404140   -0.598980
  H    -140.270000    8.348710    0.069464
  H    -139.257000    7.711270   -1.419980
  H    -138.531000    8.292120    0.078046
  S    -137.008000   16.766100   -2.379160
  C    -135.433000   17.041800   -3.045820
  C    -134.805000   15.870400   -3.289770
  C    -135.584000   14.721900   -2.940440
  C    -136.953000   14.980400   -2.640600
  H    -133.749000   15.690100   -3.648420
  C    -135.024000   13.349700   -3.115830
  H    -134.680000   13.389800   -4.136100
  H    -135.822000   12.576000   -3.176600
  C    -133.872000   13.037200   -2.129480
  H    -134.251000   13.280700   -1.159890
  H    -133.031000   13.701500   -2.220060
  C    -133.227000   11.651600   -2.306970
  H    -132.887000   11.303100   -1.326630
  H    -132.427000   11.674700   -3.064010
  H    -134.012000   10.972100   -2.536190
  H    -141.179000   12.692500   -1.607700
  H    -134.969000   18.012500   -3.109940

 Total Charge           Charge          ....    0
 Multiplicity           Mult            ....    1
 Number of Electrons    NEL             ....  134
 Basis Dimension        Dim             ....  322

ORBITAL ENERGIES
----------------

  NO   OCC          E(Eh)            E(eV)
   0   2.0000     -88.970477     -2421.0098
   1   2.0000     -88.961953     -2420.7778
   2   2.0000     -10.332271      -281.1554
   3   2.0000     -10.329774      -281.0874
   4   2.0000     -10.317763      -280.7606
   5   2.0000     -10.310885      -280.5734
   6   2.0000     -10.303508      -280.3727
   7   2.0000     -10.299949      -280.2759
   8   2.0000     -10.299674      -280.2684
   9   2.0000     -10.299090      -280.2525
  10   2.0000     -10.296019      -280.1689
  11   2.0000     -10.291467      -280.0450
  12   2.0000     -10.289231      -279.9842
  13   2.0000     -10.286408      -279.9074
  14   2.0000     -10.285845      -279.8921
  15   2.0000     -10.280609      -279.7496
  16   2.0000      -8.084864      -220.0003
  17   2.0000      -8.076397      -219.7699
  18   2.0000      -6.043396      -164.4492
  19   2.0000      -6.039499      -164.3431
  20   2.0000      -6.035549      -164.2356
  21   2.0000      -6.035031      -164.2215
  22   2.0000      -6.030990      -164.1116
  23   2.0000      -6.026971      -164.0022
  24   2.0000      -1.005947       -27.3732
  25   2.0000      -0.984350       -26.7855
  26   2.0000      -0.917804       -24.9747
  27   2.0000      -0.911261       -24.7967
  28   2.0000      -0.872085       -23.7306
  29   2.0000      -0.853344       -23.2207
  30   2.0000      -0.844494       -22.9799
  31   2.0000      -0.813503       -22.1365
  32   2.0000      -0.784250       -21.3405
  33   2.0000      -0.771503       -20.9937
  34   2.0000      -0.712165       -19.3790
  35   2.0000      -0.703443       -19.1417
  36   2.0000      -0.696711       -18.9585
  37   2.0000      -0.658301       -17.9133
  38   2.0000      -0.638422       -17.3723
  39   2.0000      -0.616182       -16.7672
  40   2.0000      -0.598222       -16.2785
  41   2.0000      -0.571550       -15.5527
  42   2.0000      -0.566639       -15.4190
  43   2.0000      -0.555434       -15.1141
  44   2.0000      -0.534968       -14.5572
  45   2.0000      -0.527324       -14.3492
  46   2.0000      -0.518004       -14.0956
  47   2.0000      -0.514725       -14.0064
  48   2.0000      -0.505129       -13.7453
  49   2.0000      -0.501879       -13.6568
  50   2.0000      -0.495737       -13.4897
  51   2.0000      -0.482559       -13.1311
  52   2.0000      -0.471816       -12.8388
  53   2.0000      -0.463467       -12.6116
  54   2.0000      -0.457806       -12.4575
  55   2.0000      -0.455058       -12.3828
  56   2.0000      -0.448881       -12.2147
  57   2.0000      -0.443586       -12.0706
  58   2.0000      -0.439138       -11.9496
  59   2.0000      -0.418768       -11.3952
  60   2.0000      -0.417153       -11.3513
  61   2.0000      -0.409735       -11.1494
  62   2.0000      -0.407223       -11.0811
  63   2.0000      -0.354862        -9.6563
  64   2.0000      -0.334975        -9.1151
  65   2.0000      -0.325007        -8.8439
  66   2.0000      -0.284811        -7.7501
  67   0.0000       0.019099         0.5197
  68   0.0000       0.075734         2.0608
  69   0.0000       0.108435         2.9507
  70   0.0000       0.118435         3.2228
  71   0.0000       0.123797         3.3687

MULLIKEN ATOMIC CHARGES
-----------------------
   0 S :    0.119332
   1 C :   -0.086529
   2 C :   -0.087949
   3 C :    0.025056
   4 C :   -0.170790
   5 H :    0.015436
   6 C :    0.031539
   7 H :    0.035626
   8 H :    0.029842
   9 C :   -0.093985
  10 H :    0.032045
  11 H :    0.020729
  12 C :   -0.031302
  13 H :    0.046102
  14 H :    0.044636
  15 H :    0.022393
  16 S :    0.080942
  17 C :   -0.071905
  18 C :   -0.023834
  19 C :   -0.080257
  20 C :   -0.099115
  21 H :    0.037164
  22 C :    0.019702
  23 H :    0.023074
  24 H :    0.032490
  25 C :   -0.077657
  26 H :    0.020592
  27 H :    0.019386
  28 C :   -0.012979
  29 H :    0.030958
  30 H :    0.048093
  31 H :    0.016053
  32 H :    0.024056
  33 H :    0.061056
Sum of atomic charges:    0.0000000

LOEWDIN ATOMIC CHARGES
----------------------
   0 S :    0.411422
   1 C :   -0.187673
   2 C :   -0.061678
   3 C :   -0.060895
   4 C :   -0.192881
   5 H :    0.033274
   6 C :   -0.046222
   7 H :    0.038569
   8 H :    0.033507
   9 C :   -0.047937
  10 H :    0.029774
  11 H :    0.020812
  12 C :   -0.062649
  13 H :    0.033881
  14 H :    0.028715
  15 H :    0.018207
  16 S :    0.383199
  17 C :   -0.180282
  18 C :   -0.082600
  19 C :   -0.051885
  20 C :   -0.193644
  21 H :    0.041803
  22 C :   -0.042237
  23 H :    0.030079
  24 H :    0.031467
  25 C :   -0.039756
  26 H :    0.018712
  27 H :    0.022302
  28 C :   -0.059675
  29 H :    0.030557
  30 H :    0.030898
  31 H :    0.018635
  32 H :    0.021212
  33 H :    0.032986

  Mayer bond orders larger than 0.100000
B(  0-S ,  1-C ) :   1.1161 B(  0-S ,  4-C ) :   1.1601 B(  1-C ,  2-C ) :   1.6387
B(  1-C , 32-H ) :   0.9674 B(  2-C ,  3-C ) :   1.2307 B(  2-C ,  6-C ) :   1.0190
B(  3-C ,  4-C ) :   1.5409 B(  3-C ,  5-H ) :   0.9898 B(  4-C , 20-C ) :   1.0885
B(  6-C ,  7-H ) :   0.9356 B(  6-C ,  8-H ) :   0.9364 B(  6-C ,  9-C ) :   1.0763
B(  9-C , 10-H ) :   0.9536 B(  9-C , 11-H ) :   0.9503 B(  9-C , 12-C ) :   1.0690
B( 12-C , 13-H ) :   0.9762 B( 12-C , 14-H ) :   0.9761 B( 12-C , 15-H ) :   0.9757
B( 16-S , 17-C ) :   1.1605 B( 16-S , 20-C ) :   1.1082 B( 17-C , 18-C ) :   1.5815
B( 17-C , 33-H ) :   0.9687 B( 18-C , 19-C ) :   1.2674 B( 18-C , 21-H ) :   0.9767
B( 19-C , 20-C ) :   1.5576 B( 19-C , 22-C ) :   1.0508 B( 22-C , 23-H ) :   0.9346
B( 22-C , 24-H ) :   0.9416 B( 22-C , 25-C ) :   1.0415 B( 25-C , 26-H ) :   0.9594
B( 25-C , 27-H ) :   0.9557 B( 25-C , 28-C ) :   1.0746 B( 28-C , 29-H ) :   0.9731
B( 28-C , 30-H ) :   0.9780 B( 28-C , 31-H ) :   0.9749

Dispersion correction           -0.013912817
FINAL SINGLE POINT ENERGY     -1339.868852976965

DIPOLE MOMENT
-------------
                                X             Y             Z
Electronic contribution:    -11.26703      30.30791      -5.73569
Nuclear contribution   :     11.79895     -30.89128       5.90893
                        -----------------------------------------
Total Dipole Moment    :      0.53192      -0.58336       0.17324
                        -----------------------------------------
Magnitude (a.u.)       :      0.80824
Magnitude (Debye)      :      2.05439

Rotational constants in cm-1:     0.017538     0.008966     0.006164
Rotational constants in MHz :   525.783022   268.780705   184.786493

                             ****ORCA TERMINATED NORMALLY****
TOTAL RUN TIME: 0 days 0 hours 0 minutes 21 seconds 531 msec
