                         Program Version 4.2.1 -  RELEASE  -
|  1> ! wB97X-D3 SP def2-SVP
|  2> %pal
|  3> nprocs 24
|  4> end
|  5>
|  6> * xyz 0 1
|  7> S 	 -64.3847 	 -50.3521 	 -82.4807
|  8> C 	 -64.4815 	 -50.3474 	 -80.713
|  9> C 	 -65.7833 	 -50.3123 	 -80.2749
| 10> C 	 -66.7048 	 -50.2055 	 -81.3401
| 11> C 	 -66.1535 	 -50.184 	 -82.6374
| 12> H 	 -67.7838 	 -50.0906 	 -81.2994
| 13> C 	 -66.2834 	 -50.6542 	 -78.886
| 14> H 	 -67.0828 	 -49.9413 	 -78.5809
| 15> H 	 -65.4414 	 -50.3499 	 -78.2922
| 16> C 	 -66.5917 	 -52.0847 	 -78.6899
| 17> H 	 -67.0122 	 -52.5388 	 -79.5832
| 18> H 	 -65.6948 	 -52.6241 	 -78.5121
| 19> C 	 -67.4424 	 -52.4421 	 -77.4878
| 20> H 	 -68.3271 	 -51.8373 	 -77.3013
| 21> H 	 -67.9211 	 -53.3955 	 -77.7323
| 22> H 	 -66.8816 	 -52.4171 	 -76.5746
| 23> S 	 -66.633 	 -48.5138 	 -84.7493
| 24> C 	 -67.871 	 -48.9713 	 -85.9584
| 25> C 	 -68.5863 	 -50.1021 	 -85.576
| 26> C 	 -68.01 	 -50.7416 	 -84.4208
| 27> C 	 -66.8884 	 -50.0319 	 -83.9386
| 28> H 	 -69.4524 	 -50.3821 	 -86.2172
| 29> C 	 -68.529 	 -52.0722 	 -83.8857
| 30> H 	 -67.8402 	 -52.3973 	 -83.0805
| 31> H 	 -68.4314 	 -52.7443 	 -84.7132
| 32> C 	 -69.9044 	 -52.0866 	 -83.198
| 33> H 	 -69.891 	 -51.2454 	 -82.4582
| 34> H 	 -70.1321 	 -52.972 	 -82.6094
| 35> C 	 -71.149 	 -51.7963 	 -84.0914
| 36> H 	 -71.0955 	 -50.7964 	 -84.5275
| 37> H 	 -72.0195 	 -51.9209 	 -83.4135
| 38> H 	 -71.2137 	 -52.5311 	 -84.9447
| 39> H 	 -63.6548 	 -50.6743 	 -80.0363
| 40> H 	 -68.1358 	 -48.4342 	 -86.9132
| 41> *
| 42>
| 43>                          ****END OF INPUT****

CARTESIAN COORDINATES (ANGSTROEM)
---------------------------------
  S    -64.384700  -50.352100  -82.480700
  C    -64.481500  -50.347400  -80.713000
  C    -65.783300  -50.312300  -80.274900
  C    -66.704800  -50.205500  -81.340100
  C    -66.153500  -50.184000  -82.637400
  H    -67.783800  -50.090600  -81.299400
  C    -66.283400  -50.654200  -78.886000
  H    -67.082800  -49.941300  -78.580900
  H    -65.441400  -50.349900  -78.292200
  C    -66.591700  -52.084700  -78.689900
  H    -67.012200  -52.538800  -79.583200
  H    -65.694800  -52.624100  -78.512100
  C    -67.442400  -52.442100  -77.487800
  H    -68.327100  -51.837300  -77.301300
  H    -67.921100  -53.395500  -77.732300
  H    -66.881600  -52.417100  -76.574600
  S    -66.633000  -48.513800  -84.749300
  C    -67.871000  -48.971300  -85.958400
  C    -68.586300  -50.102100  -85.576000
  C    -68.010000  -50.741600  -84.420800
  C    -66.888400  -50.031900  -83.938600
  H    -69.452400  -50.382100  -86.217200
  C    -68.529000  -52.072200  -83.885700
  H    -67.840200  -52.397300  -83.080500
  H    -68.431400  -52.744300  -84.713200
  C    -69.904400  -52.086600  -83.198000
  H    -69.891000  -51.245400  -82.458200
  H    -70.132100  -52.972000  -82.609400
  C    -71.149000  -51.796300  -84.091400
  H    -71.095500  -50.796400  -84.527500
  H    -72.019500  -51.920900  -83.413500
  H    -71.213700  -52.531100  -84.944700
  H    -63.654800  -50.674300  -80.036300
  H    -68.135800  -48.434200  -86.913200

 Total Charge           Charge          ....    0
 Multiplicity           Mult            ....    1
 Number of Electrons    NEL             ....  134
 Basis Dimension        Dim             ....  322

ORBITAL ENERGIES
----------------

  NO   OCC          E(Eh)            E(eV)
   0   2.0000     -88.969449     -2420.9818
   1   2.0000     -88.967497     -2420.9287
   2   2.0000     -10.336234      -281.2632
   3   2.0000     -10.332782      -281.1693
   4   2.0000     -10.325632      -280.9747
   5   2.0000     -10.319134      -280.7979
   6   2.0000     -10.311890      -280.6008
   7   2.0000     -10.301543      -280.3192
   8   2.0000     -10.298997      -280.2500
   9   2.0000     -10.294429      -280.1256
  10   2.0000     -10.293164      -280.0912
  11   2.0000     -10.292760      -280.0802
  12   2.0000     -10.288787      -279.9721
  13   2.0000     -10.285296      -279.8771
  14   2.0000     -10.279512      -279.7197
  15   2.0000     -10.275375      -279.6072
  16   2.0000      -8.083558      -219.9648
  17   2.0000      -8.081129      -219.8987
  18   2.0000      -6.042075      -164.4132
  19   2.0000      -6.039705      -164.3487
  20   2.0000      -6.038282      -164.3100
  21   2.0000      -6.035774      -164.2418
  22   2.0000      -6.034197      -164.1988
  23   2.0000      -6.031895      -164.1362
  24   2.0000      -0.999345       -27.1936
  25   2.0000      -0.980181       -26.6721
  26   2.0000      -0.919041       -25.0084
  27   2.0000      -0.904921       -24.6242
  28   2.0000      -0.866575       -23.5807
  29   2.0000      -0.847582       -23.0639
  30   2.0000      -0.845317       -23.0022
  31   2.0000      -0.813943       -22.1485
  32   2.0000      -0.784671       -21.3520
  33   2.0000      -0.771184       -20.9850
  34   2.0000      -0.705495       -19.1975
  35   2.0000      -0.701682       -19.0937
  36   2.0000      -0.686756       -18.6876
  37   2.0000      -0.655907       -17.8481
  38   2.0000      -0.639026       -17.3888
  39   2.0000      -0.616556       -16.7773
  40   2.0000      -0.586968       -15.9722
  41   2.0000      -0.568956       -15.4821
  42   2.0000      -0.566654       -15.4194
  43   2.0000      -0.551004       -14.9936
  44   2.0000      -0.542311       -14.7570
  45   2.0000      -0.533522       -14.5179
  46   2.0000      -0.522446       -14.2165
  47   2.0000      -0.509044       -13.8518
  48   2.0000      -0.501905       -13.6575
  49   2.0000      -0.494519       -13.4565
  50   2.0000      -0.489535       -13.3209
  51   2.0000      -0.475619       -12.9423
  52   2.0000      -0.471381       -12.8269
  53   2.0000      -0.464765       -12.6469
  54   2.0000      -0.459984       -12.5168
  55   2.0000      -0.446462       -12.1489
  56   2.0000      -0.440729       -11.9929
  57   2.0000      -0.438507       -11.9324
  58   2.0000      -0.435119       -11.8402
  59   2.0000      -0.419317       -11.4102
  60   2.0000      -0.418540       -11.3891
  61   2.0000      -0.415377       -11.3030
  62   2.0000      -0.413606       -11.2548
  63   2.0000      -0.342459        -9.3188
  64   2.0000      -0.331161        -9.0113
  65   2.0000      -0.327318        -8.9068
  66   2.0000      -0.300334        -8.1725
  67   0.0000       0.029949         0.8149
  68   0.0000       0.059837         1.6282
  69   0.0000       0.108667         2.9570
  70   0.0000       0.116433         3.1683
  71   0.0000       0.123458         3.3595

MULLIKEN ATOMIC CHARGES
-----------------------
   0 S :    0.103443
   1 C :   -0.129976
   2 C :   -0.108329
   3 C :    0.044416
   4 C :   -0.187206
   5 H :    0.010650
   6 C :    0.076809
   7 H :    0.032985
   8 H :    0.009451
   9 C :   -0.038003
  10 H :    0.026809
  11 H :    0.016716
  12 C :   -0.037393
  13 H :    0.018661
  14 H :    0.029851
  15 H :    0.034138
  16 S :    0.118652
  17 C :   -0.119061
  18 C :   -0.060761
  19 C :   -0.048155
  20 C :   -0.146083
  21 H :    0.044321
  22 C :    0.090138
  23 H :    0.033318
  24 H :    0.032844
  25 C :   -0.093983
  26 H :    0.027989
  27 H :    0.036633
  28 C :   -0.081851
  29 H :    0.042951
  30 H :    0.043244
  31 H :    0.035113
  32 H :    0.067084
  33 H :    0.074585
Sum of atomic charges:   -0.0000000

LOEWDIN ATOMIC CHARGES
----------------------
   0 S :    0.386851
   1 C :   -0.198755
   2 C :   -0.069329
   3 C :   -0.059888
   4 C :   -0.191799
   5 H :    0.029969
   6 C :   -0.033444
   7 H :    0.034337
   8 H :    0.027638
   9 C :   -0.042118
  10 H :    0.024937
  11 H :    0.026502
  12 C :   -0.063207
  13 H :    0.021068
  14 H :    0.032339
  15 H :    0.022892
  16 S :    0.404592
  17 C :   -0.184848
  18 C :   -0.079690
  19 C :   -0.051816
  20 C :   -0.206785
  21 H :    0.042189
  22 C :   -0.032861
  23 H :    0.037958
  24 H :    0.028451
  25 C :   -0.043748
  26 H :    0.026961
  27 H :    0.025018
  28 C :   -0.073324
  29 H :    0.022554
  30 H :    0.031130
  31 H :    0.025051
  32 H :    0.039495
  33 H :    0.041680

  Mayer bond orders larger than 0.100000
B(  0-S ,  1-C ) :   1.1388 B(  0-S ,  4-C ) :   1.1499 B(  1-C ,  2-C ) :   1.6190
B(  1-C , 32-H ) :   0.9558 B(  2-C ,  3-C ) :   1.2431 B(  2-C ,  6-C ) :   1.0297
B(  3-C ,  4-C ) :   1.5705 B(  3-C ,  5-H ) :   0.9948 B(  4-C , 20-C ) :   1.0010
B(  6-C ,  7-H ) :   0.9426 B(  6-C ,  8-H ) :   0.9297 B(  6-C ,  9-C ) :   1.0616
B(  9-C , 10-H ) :   0.9631 B(  9-C , 11-H ) :   0.9448 B(  9-C , 12-C ) :   1.0833
B( 12-C , 13-H ) :   0.9759 B( 12-C , 14-H ) :   0.9723 B( 12-C , 15-H ) :   0.9773
B( 16-S , 17-C ) :   1.1448 B( 16-S , 20-C ) :   1.1548 B( 17-C , 18-C ) :   1.6362
B( 17-C , 33-H ) :   0.9579 B( 18-C , 19-C ) :   1.2217 B( 18-C , 21-H ) :   0.9788
B( 19-C , 20-C ) :   1.6017 B( 19-C , 22-C ) :   1.0347 B( 22-C , 23-H ) :   0.9279
B( 22-C , 24-H ) :   0.9425 B( 22-C , 25-C ) :   1.0633 B( 25-C , 26-H ) :   0.9507
B( 25-C , 27-H ) :   0.9603 B( 25-C , 28-C ) :   1.0784 B( 28-C , 29-H ) :   0.9714
B( 28-C , 30-H ) :   0.9735 B( 28-C , 31-H ) :   0.9769

Dispersion correction           -0.014566420
FINAL SINGLE POINT ENERGY     -1339.872195262832

DIPOLE MOMENT
-------------
                                X             Y             Z
Electronic contribution:     19.94908      16.09331     -17.23316
Nuclear contribution   :    -20.52239     -16.52041      17.57046
                        -----------------------------------------
Total Dipole Moment    :     -0.57331      -0.42709       0.33731
                        -----------------------------------------
Magnitude (a.u.)       :      0.79049
Magnitude (Debye)      :      2.00926

Rotational constants in cm-1:     0.017369     0.009206     0.006503
Rotational constants in MHz :   520.702129   275.989678   194.950112

                             ****ORCA TERMINATED NORMALLY****
TOTAL RUN TIME: 0 days 0 hours 0 minutes 21 seconds 509 msec
