                         Program Version 4.2.1 -  RELEASE  -
|  1> ! wB97X-D3 SP def2-SVP
|  2> %pal
|  3> nprocs 24
|  4> end
|  5>
|  6> * xyz 0 1
|  7> S 	 -134.995 	 30.828 	 -19.5366
|  8> C 	 -133.915 	 29.9174 	 -18.5839
|  9> C 	 -134.074 	 28.5421 	 -18.6982
| 10> C 	 -135.149 	 28.2679 	 -19.6127
| 11> C 	 -135.774 	 29.4257 	 -20.1006
| 12> H 	 -135.479 	 27.2404 	 -19.7243
| 13> C 	 -133.374 	 27.4929 	 -17.9157
| 14> H 	 -134.074 	 26.6611 	 -17.8446
| 15> H 	 -133.241 	 27.8776 	 -16.9355
| 16> C 	 -132.126 	 26.7502 	 -18.4306
| 17> H 	 -131.943 	 25.8854 	 -17.8707
| 18> H 	 -132.497 	 26.3169 	 -19.3316
| 19> C 	 -130.888 	 27.6011 	 -18.5398
| 20> H 	 -130.617 	 28.037 	 -17.6091
| 21> H 	 -130.118 	 26.9736 	 -18.8341
| 22> H 	 -131.017 	 28.3621 	 -19.3746
| 23> S 	 -138.534 	 30.0782 	 -20.2414
| 24> C 	 -139.354 	 29.8991 	 -21.8194
| 25> C 	 -138.51 	 29.4419 	 -22.7443
| 26> C 	 -137.169 	 29.1472 	 -22.2679
| 27> C 	 -136.994 	 29.604 	 -20.9636
| 28> H 	 -138.847 	 29.2171 	 -23.7772
| 29> C 	 -136.162 	 28.3433 	 -23.0816
| 30> H 	 -136.741 	 27.7135 	 -23.8116
| 31> H 	 -135.542 	 27.7762 	 -22.4041
| 32> C 	 -135.188 	 29.2446 	 -23.8087
| 33> H 	 -134.629 	 29.704 	 -23.0296
| 34> H 	 -135.696 	 30.1175 	 -24.2233
| 35> C 	 -134.36 	 28.6484 	 -24.9376
| 36> H 	 -133.717 	 29.38 	 -25.3243
| 37> H 	 -135.025 	 28.1404 	 -25.6816
| 38> H 	 -133.759 	 27.799 	 -24.5171
| 39> H 	 -133.166 	 30.2704 	 -17.9487
| 40> H 	 -140.397 	 30.0721 	 -22.0341
| 41> *
| 42>
| 43>                          ****END OF INPUT****

CARTESIAN COORDINATES (ANGSTROEM)
---------------------------------
  S    -134.995000   30.828000  -19.536600
  C    -133.915000   29.917400  -18.583900
  C    -134.074000   28.542100  -18.698200
  C    -135.149000   28.267900  -19.612700
  C    -135.774000   29.425700  -20.100600
  H    -135.479000   27.240400  -19.724300
  C    -133.374000   27.492900  -17.915700
  H    -134.074000   26.661100  -17.844600
  H    -133.241000   27.877600  -16.935500
  C    -132.126000   26.750200  -18.430600
  H    -131.943000   25.885400  -17.870700
  H    -132.497000   26.316900  -19.331600
  C    -130.888000   27.601100  -18.539800
  H    -130.617000   28.037000  -17.609100
  H    -130.118000   26.973600  -18.834100
  H    -131.017000   28.362100  -19.374600
  S    -138.534000   30.078200  -20.241400
  C    -139.354000   29.899100  -21.819400
  C    -138.510000   29.441900  -22.744300
  C    -137.169000   29.147200  -22.267900
  C    -136.994000   29.604000  -20.963600
  H    -138.847000   29.217100  -23.777200
  C    -136.162000   28.343300  -23.081600
  H    -136.741000   27.713500  -23.811600
  H    -135.542000   27.776200  -22.404100
  C    -135.188000   29.244600  -23.808700
  H    -134.629000   29.704000  -23.029600
  H    -135.696000   30.117500  -24.223300
  C    -134.360000   28.648400  -24.937600
  H    -133.717000   29.380000  -25.324300
  H    -135.025000   28.140400  -25.681600
  H    -133.759000   27.799000  -24.517100
  H    -133.166000   30.270400  -17.948700
  H    -140.397000   30.072100  -22.034100

 Total Charge           Charge          ....    0
 Multiplicity           Mult            ....    1
 Number of Electrons    NEL             ....  134
 Basis Dimension        Dim             ....  322

ORBITAL ENERGIES
----------------

  NO   OCC          E(Eh)            E(eV)
   0   2.0000     -88.968951     -2420.9682
   1   2.0000     -88.963962     -2420.8325
   2   2.0000     -10.330520      -281.1077
   3   2.0000     -10.328848      -281.0622
   4   2.0000     -10.315505      -280.6992
   5   2.0000     -10.304897      -280.4105
   6   2.0000     -10.304471      -280.3989
   7   2.0000     -10.297443      -280.2077
   8   2.0000     -10.296572      -280.1840
   9   2.0000     -10.293194      -280.0920
  10   2.0000     -10.291708      -280.0516
  11   2.0000     -10.285663      -279.8871
  12   2.0000     -10.279076      -279.7079
  13   2.0000     -10.277879      -279.6753
  14   2.0000     -10.273588      -279.5585
  15   2.0000     -10.272329      -279.5243
  16   2.0000      -8.085048      -220.0053
  17   2.0000      -8.077904      -219.8109
  18   2.0000      -6.043344      -164.4478
  19   2.0000      -6.039146      -164.3335
  20   2.0000      -6.036666      -164.2660
  21   2.0000      -6.036183      -164.2529
  22   2.0000      -6.032676      -164.1575
  23   2.0000      -6.028281      -164.0379
  24   2.0000      -1.008423       -27.4406
  25   2.0000      -0.984807       -26.7980
  26   2.0000      -0.918673       -24.9984
  27   2.0000      -0.909751       -24.7556
  28   2.0000      -0.868982       -23.6462
  29   2.0000      -0.853506       -23.2251
  30   2.0000      -0.844030       -22.9672
  31   2.0000      -0.816178       -22.2093
  32   2.0000      -0.789783       -21.4911
  33   2.0000      -0.773072       -21.0364
  34   2.0000      -0.713022       -19.4023
  35   2.0000      -0.699349       -19.0302
  36   2.0000      -0.688183       -18.7264
  37   2.0000      -0.655536       -17.8380
  38   2.0000      -0.638497       -17.3744
  39   2.0000      -0.622302       -16.9337
  40   2.0000      -0.596507       -16.2318
  41   2.0000      -0.571482       -15.5508
  42   2.0000      -0.563750       -15.3404
  43   2.0000      -0.553125       -15.0513
  44   2.0000      -0.548335       -14.9210
  45   2.0000      -0.530185       -14.4271
  46   2.0000      -0.522620       -14.2212
  47   2.0000      -0.509126       -13.8540
  48   2.0000      -0.502645       -13.6777
  49   2.0000      -0.494828       -13.4649
  50   2.0000      -0.488414       -13.2904
  51   2.0000      -0.481365       -13.0986
  52   2.0000      -0.472371       -12.8539
  53   2.0000      -0.468590       -12.7510
  54   2.0000      -0.459249       -12.4968
  55   2.0000      -0.449665       -12.2360
  56   2.0000      -0.446400       -12.1472
  57   2.0000      -0.437272       -11.8988
  58   2.0000      -0.435315       -11.8455
  59   2.0000      -0.428277       -11.6540
  60   2.0000      -0.421806       -11.4779
  61   2.0000      -0.416730       -11.3398
  62   2.0000      -0.405128       -11.0241
  63   2.0000      -0.341855        -9.3024
  64   2.0000      -0.329644        -8.9701
  65   2.0000      -0.323230        -8.7955
  66   2.0000      -0.302796        -8.2395
  67   0.0000       0.041783         1.1370
  68   0.0000       0.064006         1.7417
  69   0.0000       0.111691         3.0393
  70   0.0000       0.115281         3.1370
  71   0.0000       0.130500         3.5511

MULLIKEN ATOMIC CHARGES
-----------------------
   0 S :    0.144703
   1 C :   -0.083750
   2 C :   -0.122080
   3 C :    0.053951
   4 C :   -0.198724
   5 H :    0.011998
   6 C :    0.056500
   7 H :    0.013317
   8 H :    0.015689
   9 C :   -0.026419
  10 H :    0.011470
  11 H :    0.001981
  12 C :   -0.010523
  13 H :    0.023151
  14 H :    0.015426
  15 H :    0.046060
  16 S :    0.101325
  17 C :   -0.081917
  18 C :   -0.028239
  19 C :   -0.062659
  20 C :   -0.149584
  21 H :    0.027289
  22 C :    0.115022
  23 H :    0.025610
  24 H :    0.016411
  25 C :   -0.097526
  26 H :    0.016077
  27 H :    0.016763
  28 C :   -0.012820
  29 H :    0.036390
  30 H :    0.033335
  31 H :    0.024008
  32 H :    0.014214
  33 H :    0.053550
Sum of atomic charges:    0.0000000

LOEWDIN ATOMIC CHARGES
----------------------
   0 S :    0.460793
   1 C :   -0.206793
   2 C :   -0.063888
   3 C :   -0.062531
   4 C :   -0.216400
   5 H :    0.029627
   6 C :   -0.031683
   7 H :    0.034133
   8 H :    0.024298
   9 C :   -0.033054
  10 H :    0.018427
  11 H :    0.020383
  12 C :   -0.059153
  13 H :    0.020912
  14 H :    0.018081
  15 H :    0.037042
  16 S :    0.378565
  17 C :   -0.170564
  18 C :   -0.074692
  19 C :   -0.046135
  20 C :   -0.207144
  21 H :    0.036539
  22 C :   -0.026217
  23 H :    0.032294
  24 H :    0.029211
  25 C :   -0.047643
  26 H :    0.020311
  27 H :    0.020550
  28 C :   -0.061184
  29 H :    0.021785
  30 H :    0.029303
  31 H :    0.026918
  32 H :    0.015086
  33 H :    0.032824

  Mayer bond orders larger than 0.100000
B(  0-S ,  1-C ) :   1.1616 B(  0-S ,  4-C ) :   1.1921 B(  1-C ,  2-C ) :   1.5835
B(  1-C , 32-H ) :   0.9713 B(  2-C ,  3-C ) :   1.2814 B(  2-C ,  6-C ) :   1.0277
B(  3-C ,  4-C ) :   1.5421 B(  3-C ,  5-H ) :   0.9907 B(  4-C , 20-C ) :   0.9834
B(  6-C ,  7-H ) :   0.9344 B(  6-C ,  8-H ) :   0.9400 B(  6-C ,  9-C ) :   1.0745
B(  9-C , 10-H ) :   0.9505 B(  9-C , 11-H ) :   0.9474 B(  9-C , 12-C ) :   1.0863
B( 12-C , 13-H ) :   0.9738 B( 12-C , 14-H ) :   0.9699 B( 12-C , 15-H ) :   0.9736
B( 16-S , 17-C ) :   1.1225 B( 16-S , 20-C ) :   1.1331 B( 17-C , 18-C ) :   1.6679
B( 17-C , 33-H ) :   0.9652 B( 18-C , 19-C ) :   1.2148 B( 18-C , 21-H ) :   0.9787
B( 19-C , 20-C ) :   1.6270 B( 19-C , 22-C ) :   1.0473 B( 22-C , 23-H ) :   0.9365
B( 22-C , 24-H ) :   0.9230 B( 22-C , 25-C ) :   1.0616 B( 25-C , 26-H ) :   0.9505
B( 25-C , 27-H ) :   0.9566 B( 25-C , 28-C ) :   1.0841 B( 28-C , 29-H ) :   0.9730
B( 28-C , 30-H ) :   0.9731 B( 28-C , 31-H ) :   0.9716

Dispersion correction           -0.014305381
FINAL SINGLE POINT ENERGY     -1339.873529476486

DIPOLE MOMENT
-------------
                                X             Y             Z
Electronic contribution:    -21.61176      15.38956       8.69722
Nuclear contribution   :     21.90365     -15.96272      -8.84728
                        -----------------------------------------
Total Dipole Moment    :      0.29189      -0.57315      -0.15006
                        -----------------------------------------
Magnitude (a.u.)       :      0.66047
Magnitude (Debye)      :      1.67879

Rotational constants in cm-1:     0.018855     0.008440     0.006713
Rotational constants in MHz :   565.267208   253.035947   201.241926

                             ****ORCA TERMINATED NORMALLY****
TOTAL RUN TIME: 0 days 0 hours 0 minutes 21 seconds 470 msec
