                         Program Version 4.2.1 -  RELEASE  -
|  1> ! wB97X-D3 SP def2-SVP
|  2> %pal
|  3> nprocs 24
|  4> end
|  5>
|  6> * xyz 0 1
|  7> S 	 -87.1353 	 4.55 	 -115.82
|  8> C 	 -86.8811 	 3.02122 	 -114.982
|  9> C 	 -87.8291 	 2.04895 	 -115.318
| 10> C 	 -88.8237 	 2.60008 	 -116.16
| 11> C 	 -88.6062 	 3.9201 	 -116.463
| 12> H 	 -89.7052 	 2.09742 	 -116.548
| 13> C 	 -87.8185 	 0.628012 	 -114.718
| 14> H 	 -87.0803 	 0.567596 	 -113.905
| 15> H 	 -87.296 	 0.101935 	 -115.534
| 16> C 	 -89.2195 	 0.113953 	 -114.338
| 17> H 	 -89.1237 	 -0.464339 	 -113.367
| 18> H 	 -89.8635 	 0.898902 	 -114.06
| 19> C 	 -89.8951 	 -0.631311 	 -115.545
| 20> H 	 -89.9177 	 -0.0297284 	 -116.421
| 21> H 	 -89.3591 	 -1.56296 	 -115.654
| 22> H 	 -90.9035 	 -0.932041 	 -115.231
| 23> S 	 -88.7452 	 6.13905 	 -118.143
| 24> C 	 -90.1766 	 6.60381 	 -118.907
| 25> C 	 -91.2054 	 5.80249 	 -118.429
| 26> C 	 -90.832 	 4.71226 	 -117.548
| 27> C 	 -89.4849 	 4.76834 	 -117.268
| 28> H 	 -92.2092 	 5.96383 	 -118.804
| 29> C 	 -91.8236 	 3.81411 	 -116.958
| 30> H 	 -91.5066 	 3.5918 	 -115.93
| 31> H 	 -91.9225 	 2.92655 	 -117.58
| 32> C 	 -93.2756 	 4.30419 	 -116.829
| 33> H 	 -93.8304 	 4.24491 	 -117.814
| 34> H 	 -93.2463 	 5.33265 	 -116.528
| 35> C 	 -94.0594 	 3.64898 	 -115.628
| 36> H 	 -95.0246 	 4.08625 	 -115.579
| 37> H 	 -93.6146 	 3.73649 	 -114.639
| 38> H 	 -94.1704 	 2.55193 	 -115.783
| 39> H 	 -86.0174 	 2.73345 	 -114.446
| 40> H 	 -90.2891 	 7.47333 	 -119.5
| 41> *
| 42>
| 43>                          ****END OF INPUT****

CARTESIAN COORDINATES (ANGSTROEM)
---------------------------------
  S    -87.135300    4.550000  -115.820000
  C    -86.881100    3.021220  -114.982000
  C    -87.829100    2.048950  -115.318000
  C    -88.823700    2.600080  -116.160000
  C    -88.606200    3.920100  -116.463000
  H    -89.705200    2.097420  -116.548000
  C    -87.818500    0.628012  -114.718000
  H    -87.080300    0.567596  -113.905000
  H    -87.296000    0.101935  -115.534000
  C    -89.219500    0.113953  -114.338000
  H    -89.123700   -0.464339  -113.367000
  H    -89.863500    0.898902  -114.060000
  C    -89.895100   -0.631311  -115.545000
  H    -89.917700   -0.029728  -116.421000
  H    -89.359100   -1.562960  -115.654000
  H    -90.903500   -0.932041  -115.231000
  S    -88.745200    6.139050  -118.143000
  C    -90.176600    6.603810  -118.907000
  C    -91.205400    5.802490  -118.429000
  C    -90.832000    4.712260  -117.548000
  C    -89.484900    4.768340  -117.268000
  H    -92.209200    5.963830  -118.804000
  C    -91.823600    3.814110  -116.958000
  H    -91.506600    3.591800  -115.930000
  H    -91.922500    2.926550  -117.580000
  C    -93.275600    4.304190  -116.829000
  H    -93.830400    4.244910  -117.814000
  H    -93.246300    5.332650  -116.528000
  C    -94.059400    3.648980  -115.628000
  H    -95.024600    4.086250  -115.579000
  H    -93.614600    3.736490  -114.639000
  H    -94.170400    2.551930  -115.783000
  H    -86.017400    2.733450  -114.446000
  H    -90.289100    7.473330  -119.500000

 Total Charge           Charge          ....    0
 Multiplicity           Mult            ....    1
 Number of Electrons    NEL             ....  134
 Basis Dimension        Dim             ....  322

ORBITAL ENERGIES
----------------

  NO   OCC          E(Eh)            E(eV)
   0   2.0000     -88.967604     -2420.9316
   1   2.0000     -88.960930     -2420.7500
   2   2.0000     -10.327301      -281.0201
   3   2.0000     -10.327153      -281.0161
   4   2.0000     -10.312006      -280.6039
   5   2.0000     -10.307184      -280.4727
   6   2.0000     -10.301675      -280.3228
   7   2.0000     -10.301454      -280.3168
   8   2.0000     -10.297560      -280.2109
   9   2.0000     -10.292975      -280.0861
  10   2.0000     -10.292535      -280.0741
  11   2.0000     -10.292216      -280.0654
  12   2.0000     -10.290921      -280.0302
  13   2.0000     -10.290904      -280.0297
  14   2.0000     -10.282256      -279.7944
  15   2.0000     -10.281690      -279.7790
  16   2.0000      -8.082412      -219.9336
  17   2.0000      -8.076503      -219.7728
  18   2.0000      -6.040863      -164.3803
  19   2.0000      -6.037050      -164.2765
  20   2.0000      -6.035031      -164.2215
  21   2.0000      -6.033100      -164.1690
  22   2.0000      -6.030770      -164.1056
  23   2.0000      -6.027336      -164.0121
  24   2.0000      -1.009473       -27.4692
  25   2.0000      -0.986039       -26.8315
  26   2.0000      -0.914697       -24.8902
  27   2.0000      -0.910265       -24.7696
  28   2.0000      -0.869098       -23.6494
  29   2.0000      -0.853102       -23.2141
  30   2.0000      -0.840948       -22.8834
  31   2.0000      -0.814423       -22.1616
  32   2.0000      -0.785483       -21.3741
  33   2.0000      -0.774693       -21.0805
  34   2.0000      -0.712333       -19.3836
  35   2.0000      -0.704799       -19.1786
  36   2.0000      -0.696952       -18.9650
  37   2.0000      -0.653298       -17.7772
  38   2.0000      -0.638310       -17.3693
  39   2.0000      -0.625342       -17.0164
  40   2.0000      -0.603413       -16.4197
  41   2.0000      -0.576143       -15.6777
  42   2.0000      -0.563694       -15.3389
  43   2.0000      -0.545457       -14.8426
  44   2.0000      -0.534120       -14.5341
  45   2.0000      -0.528586       -14.3836
  46   2.0000      -0.519944       -14.1484
  47   2.0000      -0.514137       -13.9904
  48   2.0000      -0.504351       -13.7241
  49   2.0000      -0.495716       -13.4891
  50   2.0000      -0.494390       -13.4530
  51   2.0000      -0.484076       -13.1724
  52   2.0000      -0.476547       -12.9675
  53   2.0000      -0.470844       -12.8123
  54   2.0000      -0.462394       -12.5824
  55   2.0000      -0.451453       -12.2847
  56   2.0000      -0.447082       -12.1657
  57   2.0000      -0.445020       -12.1096
  58   2.0000      -0.432739       -11.7754
  59   2.0000      -0.430866       -11.7245
  60   2.0000      -0.418789       -11.3958
  61   2.0000      -0.412021       -11.2117
  62   2.0000      -0.406064       -11.0496
  63   2.0000      -0.356071        -9.6892
  64   2.0000      -0.333553        -9.0764
  65   2.0000      -0.326031        -8.8718
  66   2.0000      -0.281906        -7.6711
  67   0.0000       0.025719         0.6999
  68   0.0000       0.083219         2.2645
  69   0.0000       0.107152         2.9157
  70   0.0000       0.126559         3.4439
  71   0.0000       0.133339         3.6283

MULLIKEN ATOMIC CHARGES
-----------------------
   0 S :    0.115411
   1 C :   -0.104364
   2 C :   -0.099525
   3 C :   -0.027074
   4 C :   -0.107379
   5 H :    0.003724
   6 C :    0.071845
   7 H :    0.019842
   8 H :    0.045678
   9 C :   -0.085473
  10 H :    0.040205
  11 H :    0.029063
  12 C :   -0.038803
  13 H :    0.040523
  14 H :    0.033881
  15 H :    0.032106
  16 S :    0.087580
  17 C :   -0.059577
  18 C :   -0.053199
  19 C :   -0.051585
  20 C :   -0.138293
  21 H :    0.014017
  22 C :    0.049421
  23 H :    0.038459
  24 H :    0.045912
  25 C :   -0.104546
  26 H :    0.046975
  27 H :    0.029395
  28 C :   -0.051156
  29 H :    0.031047
  30 H :    0.039181
  31 H :    0.029845
  32 H :    0.025705
  33 H :    0.051156
Sum of atomic charges:   -0.0000000

LOEWDIN ATOMIC CHARGES
----------------------
   0 S :    0.409861
   1 C :   -0.199876
   2 C :   -0.051677
   3 C :   -0.075008
   4 C :   -0.189847
   5 H :    0.029868
   6 C :   -0.033755
   7 H :    0.030299
   8 H :    0.039375
   9 C :   -0.041889
  10 H :    0.034346
  11 H :    0.017554
  12 C :   -0.055664
  13 H :    0.019000
  14 H :    0.026192
  15 H :    0.027762
  16 S :    0.406335
  17 C :   -0.198493
  18 C :   -0.074659
  19 C :   -0.062277
  20 C :   -0.181786
  21 H :    0.026297
  22 C :   -0.041545
  23 H :    0.037321
  24 H :    0.036951
  25 C :   -0.041031
  26 H :    0.029978
  27 H :    0.021087
  28 C :   -0.063716
  29 H :    0.023022
  30 H :    0.026743
  31 H :    0.025088
  32 H :    0.016956
  33 H :    0.027187

  Mayer bond orders larger than 0.100000
B(  0-S ,  1-C ) :   1.1254 B(  0-S ,  4-C ) :   1.1538 B(  1-C ,  2-C ) :   1.6272
B(  1-C , 32-H ) :   0.9667 B(  2-C ,  3-C ) :   1.2370 B(  2-C ,  6-C ) :   1.0067
B(  3-C ,  4-C ) :   1.5728 B(  3-C ,  5-H ) :   0.9849 B(  4-C , 20-C ) :   1.0649
B(  6-C ,  7-H ) :   0.9449 B(  6-C ,  8-H ) :   0.9387 B(  6-C ,  9-C ) :   1.0398
B(  9-C , 10-H ) :   0.9602 B(  9-C , 11-H ) :   0.9674 B(  9-C , 12-C ) :   1.0608
B( 12-C , 13-H ) :   0.9776 B( 12-C , 14-H ) :   0.9768 B( 12-C , 15-H ) :   0.9732
B( 16-S , 17-C ) :   1.1677 B( 16-S , 20-C ) :   1.1307 B( 17-C , 18-C ) :   1.5827
B( 17-C , 33-H ) :   0.9719 B( 18-C , 19-C ) :   1.2476 B( 18-C , 21-H ) :   0.9862
B( 19-C , 20-C ) :   1.5957 B( 19-C , 22-C ) :   1.0605 B( 22-C , 23-H ) :   0.9381
B( 22-C , 24-H ) :   0.9041 B( 22-C , 25-C ) :   1.0789 B( 25-C , 26-H ) :   0.9472
B( 25-C , 27-H ) :   0.9561 B( 25-C , 28-C ) :   1.0810 B( 28-C , 29-H ) :   0.9745
B( 28-C , 30-H ) :   0.9745 B( 28-C , 31-H ) :   0.9766

Dispersion correction           -0.014077335
FINAL SINGLE POINT ENERGY     -1339.878586603313

DIPOLE MOMENT
-------------
                                X             Y             Z
Electronic contribution:     21.62249      21.73672      -8.81730
Nuclear contribution   :    -22.17724     -22.24499       8.98500
                        -----------------------------------------
Total Dipole Moment    :     -0.55475      -0.50827       0.16769
                        -----------------------------------------
Magnitude (a.u.)       :      0.77085
Magnitude (Debye)      :      1.95934

Rotational constants in cm-1:     0.015699     0.010400     0.006745
Rotational constants in MHz :   470.650491   311.770211   202.210575

                             ****ORCA TERMINATED NORMALLY****
TOTAL RUN TIME: 0 days 0 hours 0 minutes 20 seconds 953 msec
