                         Program Version 4.2.1 -  RELEASE  -
|  1> ! wB97X-D3 SP def2-SVP
|  2> %pal
|  3> nprocs 24
|  4> end
|  5>
|  6> * xyz 0 1
|  7> S 	 -104.809 	 -2.9498 	 -108.315
|  8> C 	 -105.831 	 -3.23164 	 -106.948
|  9> C 	 -105.711 	 -2.1418 	 -106.061
| 10> C 	 -104.807 	 -1.1365 	 -106.459
| 11> C 	 -104.126 	 -1.47469 	 -107.593
| 12> H 	 -104.594 	 -0.179773 	 -105.946
| 13> C 	 -106.423 	 -2.00597 	 -104.743
| 14> H 	 -105.626 	 -2.09998 	 -104.034
| 15> H 	 -107.098 	 -2.83257 	 -104.608
| 16> C 	 -107.22 	 -0.717438 	 -104.418
| 17> H 	 -106.546 	 0.136344 	 -104.203
| 18> H 	 -107.887 	 -0.636541 	 -105.262
| 19> C 	 -108.105 	 -0.866195 	 -103.185
| 20> H 	 -107.649 	 -1.1676 	 -102.24
| 21> H 	 -108.597 	 0.0623734 	 -102.947
| 22> H 	 -108.861 	 -1.59385 	 -103.439
| 23> S 	 -103.086 	 -0.606355 	 -109.904
| 24> C 	 -101.526 	 0.200491 	 -109.945
| 25> C 	 -101.124 	 0.500615 	 -108.659
| 26> C 	 -101.919 	 -0.100048 	 -107.613
| 27> C 	 -103.08 	 -0.711621 	 -108.157
| 28> H 	 -100.232 	 1.01606 	 -108.478
| 29> C 	 -101.602 	 0.0779276 	 -106.197
| 30> H 	 -100.641 	 -0.378995 	 -106.048
| 31> H 	 -102.109 	 -0.753294 	 -105.717
| 32> C 	 -101.706 	 1.42671 	 -105.578
| 33> H 	 -102.7 	 1.64352 	 -105.601
| 34> H 	 -101.219 	 2.17455 	 -106.151
| 35> C 	 -101.224 	 1.48507 	 -104.069
| 36> H 	 -100.181 	 1.44343 	 -103.95
| 37> H 	 -101.795 	 0.670904 	 -103.582
| 38> H 	 -101.534 	 2.44162 	 -103.597
| 39> H 	 -106.5 	 -4.0351 	 -106.846
| 40> H 	 -101.044 	 0.425517 	 -110.856
| 41> *
| 42>
| 43>                          ****END OF INPUT****

CARTESIAN COORDINATES (ANGSTROEM)
---------------------------------
  S    -104.809000   -2.949800  -108.315000
  C    -105.831000   -3.231640  -106.948000
  C    -105.711000   -2.141800  -106.061000
  C    -104.807000   -1.136500  -106.459000
  C    -104.126000   -1.474690  -107.593000
  H    -104.594000   -0.179773  -105.946000
  C    -106.423000   -2.005970  -104.743000
  H    -105.626000   -2.099980  -104.034000
  H    -107.098000   -2.832570  -104.608000
  C    -107.220000   -0.717438  -104.418000
  H    -106.546000    0.136344  -104.203000
  H    -107.887000   -0.636541  -105.262000
  C    -108.105000   -0.866195  -103.185000
  H    -107.649000   -1.167600  -102.240000
  H    -108.597000    0.062373  -102.947000
  H    -108.861000   -1.593850  -103.439000
  S    -103.086000   -0.606355  -109.904000
  C    -101.526000    0.200491  -109.945000
  C    -101.124000    0.500615  -108.659000
  C    -101.919000   -0.100048  -107.613000
  C    -103.080000   -0.711621  -108.157000
  H    -100.232000    1.016060  -108.478000
  C    -101.602000    0.077928  -106.197000
  H    -100.641000   -0.378995  -106.048000
  H    -102.109000   -0.753294  -105.717000
  C    -101.706000    1.426710  -105.578000
  H    -102.700000    1.643520  -105.601000
  H    -101.219000    2.174550  -106.151000
  C    -101.224000    1.485070  -104.069000
  H    -100.181000    1.443430  -103.950000
  H    -101.795000    0.670904  -103.582000
  H    -101.534000    2.441620  -103.597000
  H    -106.500000   -4.035100  -106.846000
  H    -101.044000    0.425517  -110.856000

 Total Charge           Charge          ....    0
 Multiplicity           Mult            ....    1
 Number of Electrons    NEL             ....  134
 Basis Dimension        Dim             ....  322

ORBITAL ENERGIES
----------------

  NO   OCC          E(Eh)            E(eV)
   0   2.0000     -88.966323     -2420.8967
   1   2.0000     -88.961184     -2420.7569
   2   2.0000     -10.325612      -280.9742
   3   2.0000     -10.325126      -280.9610
   4   2.0000     -10.315604      -280.7018
   5   2.0000     -10.313074      -280.6330
   6   2.0000     -10.304167      -280.3907
   7   2.0000     -10.300256      -280.2842
   8   2.0000     -10.291282      -280.0400
   9   2.0000     -10.290607      -280.0217
  10   2.0000     -10.289361      -279.9878
  11   2.0000     -10.284652      -279.8596
  12   2.0000     -10.284193      -279.8471
  13   2.0000     -10.280797      -279.7547
  14   2.0000     -10.280291      -279.7409
  15   2.0000     -10.275849      -279.6201
  16   2.0000      -8.080788      -219.8894
  17   2.0000      -8.076241      -219.7657
  18   2.0000      -6.039334      -164.3386
  19   2.0000      -6.035314      -164.2292
  20   2.0000      -6.034749      -164.2139
  21   2.0000      -6.031519      -164.1260
  22   2.0000      -6.030652      -164.1024
  23   2.0000      -6.027044      -164.0042
  24   2.0000      -1.008060       -27.4307
  25   2.0000      -0.982162       -26.7260
  26   2.0000      -0.919024       -25.0079
  27   2.0000      -0.912091       -24.8193
  28   2.0000      -0.875758       -23.8306
  29   2.0000      -0.855533       -23.2802
  30   2.0000      -0.848344       -23.0846
  31   2.0000      -0.816919       -22.2295
  32   2.0000      -0.782678       -21.2977
  33   2.0000      -0.769252       -20.9324
  34   2.0000      -0.719970       -19.5914
  35   2.0000      -0.706377       -19.2215
  36   2.0000      -0.697344       -18.9757
  37   2.0000      -0.665260       -18.1027
  38   2.0000      -0.641862       -17.4659
  39   2.0000      -0.622887       -16.9496
  40   2.0000      -0.602167       -16.3858
  41   2.0000      -0.579639       -15.7728
  42   2.0000      -0.570361       -15.5203
  43   2.0000      -0.559239       -15.2177
  44   2.0000      -0.533144       -14.5076
  45   2.0000      -0.526656       -14.3311
  46   2.0000      -0.521500       -14.1907
  47   2.0000      -0.514059       -13.9882
  48   2.0000      -0.508425       -13.8350
  49   2.0000      -0.503681       -13.7059
  50   2.0000      -0.502976       -13.6867
  51   2.0000      -0.476576       -12.9683
  52   2.0000      -0.473034       -12.8719
  53   2.0000      -0.465481       -12.6664
  54   2.0000      -0.462341       -12.5809
  55   2.0000      -0.450815       -12.2673
  56   2.0000      -0.450143       -12.2490
  57   2.0000      -0.439925       -11.9710
  58   2.0000      -0.430165       -11.7054
  59   2.0000      -0.425052       -11.5662
  60   2.0000      -0.418491       -11.3877
  61   2.0000      -0.416571       -11.3355
  62   2.0000      -0.413310       -11.2467
  63   2.0000      -0.353570        -9.6211
  64   2.0000      -0.329898        -8.9770
  65   2.0000      -0.325550        -8.8587
  66   2.0000      -0.283547        -7.7157
  67   0.0000       0.022170         0.6033
  68   0.0000       0.077155         2.0995
  69   0.0000       0.107252         2.9185
  70   0.0000       0.122057         3.3214
  71   0.0000       0.127045         3.4571

MULLIKEN ATOMIC CHARGES
-----------------------
   0 S :    0.116342
   1 C :   -0.101364
   2 C :   -0.078100
   3 C :   -0.009680
   4 C :   -0.118547
   5 H :    0.031726
   6 C :    0.075119
   7 H :    0.026932
   8 H :   -0.000625
   9 C :   -0.076886
  10 H :    0.038754
  11 H :    0.035438
  12 C :   -0.045031
  13 H :    0.028287
  14 H :    0.030011
  15 H :    0.024123
  16 S :    0.087611
  17 C :   -0.078391
  18 C :   -0.001243
  19 C :   -0.067505
  20 C :   -0.162960
  21 H :   -0.001647
  22 C :    0.073515
  23 H :    0.003158
  24 H :    0.005628
  25 C :    0.021404
  26 H :   -0.002726
  27 H :    0.016965
  28 C :   -0.057370
  29 H :    0.034763
  30 H :    0.037624
  31 H :    0.036194
  32 H :    0.030614
  33 H :    0.047868
Sum of atomic charges:   -0.0000000

LOEWDIN ATOMIC CHARGES
----------------------
   0 S :    0.403412
   1 C :   -0.201070
   2 C :   -0.060718
   3 C :   -0.063946
   4 C :   -0.188086
   5 H :    0.040034
   6 C :   -0.033320
   7 H :    0.029238
   8 H :    0.022597
   9 C :   -0.036918
  10 H :    0.025504
  11 H :    0.027931
  12 C :   -0.064925
  13 H :    0.023863
  14 H :    0.025597
  15 H :    0.022826
  16 S :    0.398143
  17 C :   -0.171728
  18 C :   -0.060952
  19 C :   -0.049909
  20 C :   -0.194552
  21 H :    0.021110
  22 C :   -0.050806
  23 H :    0.031420
  24 H :    0.033690
  25 C :   -0.023251
  26 H :    0.011614
  27 H :    0.020945
  28 C :   -0.056653
  29 H :    0.017481
  30 H :    0.030024
  31 H :    0.030197
  32 H :    0.020109
  33 H :    0.021099

  Mayer bond orders larger than 0.100000
B(  0-S ,  1-C ) :   1.1326 B(  0-S ,  4-C ) :   1.1389 B(  1-C ,  2-C ) :   1.5774
B(  1-C , 32-H ) :   0.9789 B(  2-C ,  3-C ) :   1.2437 B(  2-C ,  6-C ) :   1.0340
B(  3-C ,  4-C ) :   1.5435 B(  3-C ,  5-H ) :   0.9951 B(  4-C , 20-C ) :   1.1017
B(  6-C ,  7-H ) :   0.9300 B(  6-C ,  8-H ) :   0.9412 B(  6-C ,  9-C ) :   1.0663
B(  9-C , 10-H ) :   0.9504 B(  9-C , 11-H ) :   0.9583 B(  9-C , 12-C ) :   1.0929
B( 12-C , 13-H ) :   0.9749 B( 12-C , 14-H ) :   0.9736 B( 12-C , 15-H ) :   0.9740
B( 16-S , 17-C ) :   1.1497 B( 16-S , 20-C ) :   1.1393 B( 17-C , 18-C ) :   1.5890
B( 17-C , 33-H ) :   0.9782 B( 18-C , 19-C ) :   1.2401 B( 18-C , 21-H ) :   0.9964
B( 19-C , 20-C ) :   1.5503 B( 19-C , 22-C ) :   1.0743 B( 22-C , 23-H ) :   0.9040
B( 22-C , 24-H ) :   0.9083 B( 22-C , 25-C ) :   1.0515 B( 25-C , 26-H ) :   0.9485
B( 25-C , 27-H ) :   0.9513 B( 25-C , 28-C ) :   1.0762 B( 28-C , 29-H ) :   0.9802
B( 28-C , 30-H ) :   0.9769 B( 28-C , 31-H ) :   0.9766

Dispersion correction           -0.013814903
FINAL SINGLE POINT ENERGY     -1339.868040514594

DIPOLE MOMENT
-------------
                                X             Y             Z
Electronic contribution:      4.04455     -11.27636     -30.06963
Nuclear contribution   :     -3.96609      11.59489      30.73681
                        -----------------------------------------
Total Dipole Moment    :      0.07846       0.31853       0.66719
                        -----------------------------------------
Magnitude (a.u.)       :      0.74348
Magnitude (Debye)      :      1.88977

Rotational constants in cm-1:     0.016392     0.009291     0.006399
Rotational constants in MHz :   491.415359   278.548068   191.851771

                             ****ORCA TERMINATED NORMALLY****
TOTAL RUN TIME: 0 days 0 hours 0 minutes 20 seconds 260 msec
