                         Program Version 4.2.1 -  RELEASE  -
|  1> ! wB97X-D3 SP def2-SVP
|  2> %pal
|  3> nprocs 24
|  4> end
|  5>
|  6> * xyz 0 1
|  7> S 	 -115.511 	 16.6467 	 -117.128
|  8> C 	 -115.337 	 18.0878 	 -118.145
|  9> C 	 -115.987 	 19.196 	 -117.643
| 10> C 	 -116.611 	 18.8442 	 -116.342
| 11> C 	 -116.341 	 17.6161 	 -115.924
| 12> H 	 -117.116 	 19.4517 	 -115.71
| 13> C 	 -116.111 	 20.6608 	 -118.131
| 14> H 	 -117.088 	 21.0684 	 -118.003
| 15> H 	 -115.972 	 20.561 	 -119.166
| 16> C 	 -115.009 	 21.6829 	 -117.546
| 17> H 	 -115.093 	 22.661 	 -118.135
| 18> H 	 -115.295 	 21.809 	 -116.498
| 19> C 	 -113.55 	 21.2019 	 -117.589
| 20> H 	 -113.479 	 20.1907 	 -117.194
| 21> H 	 -113.286 	 21.1252 	 -118.686
| 22> H 	 -112.836 	 21.7967 	 -116.962
| 23> S 	 -117.279 	 15.3897 	 -114.651
| 24> C 	 -117.004 	 15.2749 	 -112.975
| 25> C 	 -116.541 	 16.4321 	 -112.391
| 26> C 	 -116.246 	 17.4308 	 -113.353
| 27> C 	 -116.545 	 16.9606 	 -114.618
| 28> H 	 -116.348 	 16.4117 	 -111.362
| 29> C 	 -115.599 	 18.8078 	 -113.06
| 30> H 	 -115.958 	 19.0653 	 -112.067
| 31> H 	 -115.972 	 19.5245 	 -113.787
| 32> C 	 -114.071 	 18.8254 	 -113.116
| 33> H 	 -113.809 	 18.3335 	 -114.089
| 34> H 	 -113.642 	 18.3783 	 -112.194
| 35> C 	 -113.343 	 20.2461 	 -113.177
| 36> H 	 -113.668 	 20.8525 	 -112.244
| 37> H 	 -113.703 	 20.7311 	 -114.107
| 38> H 	 -112.241 	 20.3112 	 -113.257
| 39> H 	 -114.658 	 17.9775 	 -118.983
| 40> H 	 -117.338 	 14.3868 	 -112.517
| 41> *
| 42>
| 43>                          ****END OF INPUT****

CARTESIAN COORDINATES (ANGSTROEM)
---------------------------------
  S    -115.511000   16.646700  -117.128000
  C    -115.337000   18.087800  -118.145000
  C    -115.987000   19.196000  -117.643000
  C    -116.611000   18.844200  -116.342000
  C    -116.341000   17.616100  -115.924000
  H    -117.116000   19.451700  -115.710000
  C    -116.111000   20.660800  -118.131000
  H    -117.088000   21.068400  -118.003000
  H    -115.972000   20.561000  -119.166000
  C    -115.009000   21.682900  -117.546000
  H    -115.093000   22.661000  -118.135000
  H    -115.295000   21.809000  -116.498000
  C    -113.550000   21.201900  -117.589000
  H    -113.479000   20.190700  -117.194000
  H    -113.286000   21.125200  -118.686000
  H    -112.836000   21.796700  -116.962000
  S    -117.279000   15.389700  -114.651000
  C    -117.004000   15.274900  -112.975000
  C    -116.541000   16.432100  -112.391000
  C    -116.246000   17.430800  -113.353000
  C    -116.545000   16.960600  -114.618000
  H    -116.348000   16.411700  -111.362000
  C    -115.599000   18.807800  -113.060000
  H    -115.958000   19.065300  -112.067000
  H    -115.972000   19.524500  -113.787000
  C    -114.071000   18.825400  -113.116000
  H    -113.809000   18.333500  -114.089000
  H    -113.642000   18.378300  -112.194000
  C    -113.343000   20.246100  -113.177000
  H    -113.668000   20.852500  -112.244000
  H    -113.703000   20.731100  -114.107000
  H    -112.241000   20.311200  -113.257000
  H    -114.658000   17.977500  -118.983000
  H    -117.338000   14.386800  -112.517000

 Total Charge           Charge          ....    0
 Multiplicity           Mult            ....    1
 Number of Electrons    NEL             ....  134
 Basis Dimension        Dim             ....  322

ORBITAL ENERGIES
----------------

  NO   OCC          E(Eh)            E(eV)
   0   2.0000     -88.965890     -2420.8849
   1   2.0000     -88.959674     -2420.7158
   2   2.0000     -10.322379      -280.8862
   3   2.0000     -10.322144      -280.8798
   4   2.0000     -10.319048      -280.7956
   5   2.0000     -10.312274      -280.6112
   6   2.0000     -10.309428      -280.5338
   7   2.0000     -10.304946      -280.4118
   8   2.0000     -10.300010      -280.2775
   9   2.0000     -10.296536      -280.1830
  10   2.0000     -10.296181      -280.1733
  11   2.0000     -10.294376      -280.1242
  12   2.0000     -10.291412      -280.0436
  13   2.0000     -10.290892      -280.0294
  14   2.0000     -10.284390      -279.8525
  15   2.0000     -10.283696      -279.8336
  16   2.0000      -8.082251      -219.9292
  17   2.0000      -8.074870      -219.7284
  18   2.0000      -6.040346      -164.3662
  19   2.0000      -6.036687      -164.2666
  20   2.0000      -6.033458      -164.1787
  21   2.0000      -6.033191      -164.1715
  22   2.0000      -6.029461      -164.0700
  23   2.0000      -6.025362      -163.9584
  24   2.0000      -1.012621       -27.5548
  25   2.0000      -0.985521       -26.8174
  26   2.0000      -0.904948       -24.6249
  27   2.0000      -0.902206       -24.5503
  28   2.0000      -0.866109       -23.5680
  29   2.0000      -0.851947       -23.1827
  30   2.0000      -0.842922       -22.9371
  31   2.0000      -0.815862       -22.2007
  32   2.0000      -0.785112       -21.3640
  33   2.0000      -0.774516       -21.0756
  34   2.0000      -0.700617       -19.0648
  35   2.0000      -0.691706       -18.8223
  36   2.0000      -0.687105       -18.6971
  37   2.0000      -0.667328       -18.1589
  38   2.0000      -0.651527       -17.7290
  39   2.0000      -0.622366       -16.9355
  40   2.0000      -0.598194       -16.2777
  41   2.0000      -0.571952       -15.5636
  42   2.0000      -0.559131       -15.2147
  43   2.0000      -0.556703       -15.1487
  44   2.0000      -0.535379       -14.5684
  45   2.0000      -0.521505       -14.1909
  46   2.0000      -0.512845       -13.9552
  47   2.0000      -0.510823       -13.9002
  48   2.0000      -0.503537       -13.7019
  49   2.0000      -0.500452       -13.6180
  50   2.0000      -0.485370       -13.2076
  51   2.0000      -0.482872       -13.1396
  52   2.0000      -0.467263       -12.7149
  53   2.0000      -0.462869       -12.5953
  54   2.0000      -0.455869       -12.4048
  55   2.0000      -0.452586       -12.3155
  56   2.0000      -0.446655       -12.1541
  57   2.0000      -0.441659       -12.0181
  58   2.0000      -0.435840       -11.8598
  59   2.0000      -0.423942       -11.5360
  60   2.0000      -0.422054       -11.4847
  61   2.0000      -0.415183       -11.2977
  62   2.0000      -0.402577       -10.9547
  63   2.0000      -0.348218        -9.4755
  64   2.0000      -0.337829        -9.1928
  65   2.0000      -0.329064        -8.9543
  66   2.0000      -0.294400        -8.0110
  67   0.0000       0.036211         0.9854
  68   0.0000       0.069138         1.8814
  69   0.0000       0.105406         2.8682
  70   0.0000       0.113487         3.0881
  71   0.0000       0.124328         3.3831

MULLIKEN ATOMIC CHARGES
-----------------------
   0 S :    0.082590
   1 C :   -0.140870
   2 C :   -0.088088
   3 C :    0.047939
   4 C :   -0.122443
   5 H :   -0.030790
   6 C :    0.102225
   7 H :    0.032442
   8 H :    0.010154
   9 C :   -0.101106
  10 H :    0.052191
  11 H :    0.031105
  12 C :   -0.078083
  13 H :    0.040538
  14 H :    0.036498
  15 H :    0.051050
  16 S :    0.120237
  17 C :   -0.082894
  18 C :   -0.018646
  19 C :   -0.029376
  20 C :   -0.176618
  21 H :   -0.000922
  22 C :    0.126594
  23 H :    0.017230
  24 H :    0.004817
  25 C :   -0.092037
  26 H :    0.051981
  27 H :    0.040272
  28 C :   -0.103301
  29 H :    0.041994
  30 H :    0.031888
  31 H :    0.050571
  32 H :    0.053505
  33 H :    0.039354
Sum of atomic charges:    0.0000000

LOEWDIN ATOMIC CHARGES
----------------------
   0 S :    0.375006
   1 C :   -0.184118
   2 C :   -0.051771
   3 C :   -0.058184
   4 C :   -0.179194
   5 H :    0.011970
   6 C :   -0.024409
   7 H :    0.030951
   8 H :    0.021404
   9 C :   -0.040626
  10 H :    0.033627
  11 H :    0.018570
  12 C :   -0.077933
  13 H :    0.023834
  14 H :    0.030513
  15 H :    0.033158
  16 S :    0.431772
  17 C :   -0.185813
  18 C :   -0.063771
  19 C :   -0.051864
  20 C :   -0.205318
  21 H :    0.025034
  22 C :   -0.024869
  23 H :    0.028494
  24 H :    0.026626
  25 C :   -0.043097
  26 H :    0.033256
  27 H :    0.026582
  28 C :   -0.082057
  29 H :    0.030755
  30 H :    0.022046
  31 H :    0.030120
  32 H :    0.024309
  33 H :    0.014997

  Mayer bond orders larger than 0.100000
B(  0-S ,  1-C ) :   1.1203 B(  0-S ,  4-C ) :   1.1210 B(  1-C ,  2-C ) :   1.6580
B(  1-C , 32-H ) :   0.9737 B(  2-C ,  3-C ) :   1.1437 B(  2-C ,  6-C ) :   1.0175
B(  3-C ,  4-C ) :   1.6780 B(  3-C ,  5-H ) :   1.0124 B(  4-C , 20-C ) :   0.9884
B(  6-C ,  7-H ) :   0.9481 B(  6-C ,  8-H ) :   0.9377 B(  6-C ,  9-C ) :   1.0469
B(  9-C , 10-H ) :   0.9586 B(  9-C , 11-H ) :   0.9602 B(  9-C , 12-C ) :   1.0756
B( 12-C , 13-H ) :   0.9693 B( 12-C , 14-H ) :   0.9756 B( 12-C , 15-H ) :   0.9728
B( 16-S , 17-C ) :   1.1691 B( 16-S , 20-C ) :   1.1708 B( 17-C , 18-C ) :   1.5919
B( 17-C , 33-H ) :   0.9753 B( 18-C , 19-C ) :   1.2359 B( 18-C , 21-H ) :   1.0059
B( 19-C , 20-C ) :   1.6023 B( 19-C , 22-C ) :   1.0394 B( 22-C , 23-H ) :   0.9251
B( 22-C , 24-H ) :   0.9300 B( 22-C , 25-C ) :   1.0652 B( 25-C , 26-H ) :   0.9587
B( 25-C , 27-H ) :   0.9586 B( 25-C , 28-C ) :   1.0646 B( 28-C , 29-H ) :   0.9752
B( 28-C , 30-H ) :   0.9758 B( 28-C , 31-H ) :   0.9771

Dispersion correction           -0.015841472
FINAL SINGLE POINT ENERGY     -1339.867953149534

DIPOLE MOMENT
-------------
                                X             Y             Z
Electronic contribution:    -14.82171     -27.33867      -2.58130
Nuclear contribution   :     14.96209      27.84075       2.80314
                        -----------------------------------------
Total Dipole Moment    :      0.14039       0.50208       0.22184
                        -----------------------------------------
Magnitude (a.u.)       :      0.56657
Magnitude (Debye)      :      1.44011

Rotational constants in cm-1:     0.019316     0.010098     0.007459
Rotational constants in MHz :   579.093991   302.729167   223.624598

                             ****ORCA TERMINATED NORMALLY****
TOTAL RUN TIME: 0 days 0 hours 0 minutes 22 seconds 881 msec
