                         Program Version 4.2.1 -  RELEASE  -
|  1> ! wB97X-D3 SP def2-SVP
|  2> %pal
|  3> nprocs 24
|  4> end
|  5>
|  6> * xyz 0 1
|  7> S 	 -107.44 	 2.86783 	 -105.592
|  8> C 	 -107.255 	 4.09937 	 -106.877
|  9> C 	 -105.969 	 4.28736 	 -107.157
| 10> C 	 -105.024 	 3.38639 	 -106.432
| 11> C 	 -105.728 	 2.51577 	 -105.605
| 12> H 	 -103.983 	 3.46015 	 -106.442
| 13> C 	 -105.359 	 5.44736 	 -107.939
| 14> H 	 -106.292 	 5.9691 	 -108.322
| 15> H 	 -104.836 	 5.0609 	 -108.844
| 16> C 	 -104.492 	 6.37729 	 -107.152
| 17> H 	 -105.041 	 6.59198 	 -106.218
| 18> H 	 -103.632 	 5.82786 	 -106.856
| 19> C 	 -104.026 	 7.58883 	 -107.892
| 20> H 	 -104.943 	 8.16286 	 -108.119
| 21> H 	 -103.473 	 8.3422 	 -107.286
| 22> H 	 -103.476 	 7.28358 	 -108.761
| 23> S 	 -105.599 	 -0.132272 	 -105.631
| 24> C 	 -104.411 	 -0.885777 	 -104.637
| 25> C 	 -103.843 	 -0.0612954 	 -103.678
| 26> C 	 -104.249 	 1.29609 	 -103.92
| 27> C 	 -105.218 	 1.38625 	 -104.917
| 28> H 	 -103.094 	 -0.483925 	 -103.054
| 29> C 	 -103.607 	 2.39954 	 -103.145
| 30> H 	 -103.45 	 3.21837 	 -103.863
| 31> H 	 -102.599 	 2.08376 	 -102.891
| 32> C 	 -104.191 	 2.86283 	 -101.809
| 33> H 	 -103.592 	 3.53631 	 -101.248
| 34> H 	 -104.211 	 1.9817 	 -101.252
| 35> C 	 -105.597 	 3.42737 	 -101.993
| 36> H 	 -105.996 	 3.73033 	 -101.021
| 37> H 	 -106.279 	 2.83121 	 -102.593
| 38> H 	 -105.573 	 4.43052 	 -102.425
| 39> H 	 -108.097 	 4.64321 	 -107.221
| 40> H 	 -104.146 	 -1.92484 	 -104.584
| 41> *
| 42>
| 43>                          ****END OF INPUT****

CARTESIAN COORDINATES (ANGSTROEM)
---------------------------------
  S    -107.440000    2.867830  -105.592000
  C    -107.255000    4.099370  -106.877000
  C    -105.969000    4.287360  -107.157000
  C    -105.024000    3.386390  -106.432000
  C    -105.728000    2.515770  -105.605000
  H    -103.983000    3.460150  -106.442000
  C    -105.359000    5.447360  -107.939000
  H    -106.292000    5.969100  -108.322000
  H    -104.836000    5.060900  -108.844000
  C    -104.492000    6.377290  -107.152000
  H    -105.041000    6.591980  -106.218000
  H    -103.632000    5.827860  -106.856000
  C    -104.026000    7.588830  -107.892000
  H    -104.943000    8.162860  -108.119000
  H    -103.473000    8.342200  -107.286000
  H    -103.476000    7.283580  -108.761000
  S    -105.599000   -0.132272  -105.631000
  C    -104.411000   -0.885777  -104.637000
  C    -103.843000   -0.061295  -103.678000
  C    -104.249000    1.296090  -103.920000
  C    -105.218000    1.386250  -104.917000
  H    -103.094000   -0.483925  -103.054000
  C    -103.607000    2.399540  -103.145000
  H    -103.450000    3.218370  -103.863000
  H    -102.599000    2.083760  -102.891000
  C    -104.191000    2.862830  -101.809000
  H    -103.592000    3.536310  -101.248000
  H    -104.211000    1.981700  -101.252000
  C    -105.597000    3.427370  -101.993000
  H    -105.996000    3.730330  -101.021000
  H    -106.279000    2.831210  -102.593000
  H    -105.573000    4.430520  -102.425000
  H    -108.097000    4.643210  -107.221000
  H    -104.146000   -1.924840  -104.584000

 Total Charge           Charge          ....    0
 Multiplicity           Mult            ....    1
 Number of Electrons    NEL             ....  134
 Basis Dimension        Dim             ....  322

ORBITAL ENERGIES
----------------

  NO   OCC          E(Eh)            E(eV)
   0   2.0000     -88.968606     -2420.9589
   1   2.0000     -88.961024     -2420.7525
   2   2.0000     -10.327590      -281.0280
   3   2.0000     -10.318764      -280.7878
   4   2.0000     -10.312236      -280.6102
   5   2.0000     -10.311202      -280.5821
   6   2.0000     -10.304609      -280.4027
   7   2.0000     -10.301249      -280.3112
   8   2.0000     -10.294904      -280.1386
   9   2.0000     -10.293982      -280.1135
  10   2.0000     -10.290745      -280.0254
  11   2.0000     -10.285716      -279.8886
  12   2.0000     -10.281007      -279.7604
  13   2.0000     -10.280314      -279.7416
  14   2.0000     -10.276542      -279.6389
  15   2.0000     -10.267172      -279.3839
  16   2.0000      -8.084211      -219.9826
  17   2.0000      -8.075622      -219.7488
  18   2.0000      -6.042586      -164.4271
  19   2.0000      -6.038603      -164.3187
  20   2.0000      -6.035034      -164.2216
  21   2.0000      -6.034298      -164.2016
  22   2.0000      -6.030223      -164.0907
  23   2.0000      -6.026134      -163.9794
  24   2.0000      -1.011423       -27.5222
  25   2.0000      -0.982578       -26.7373
  26   2.0000      -0.918938       -25.0056
  27   2.0000      -0.911876       -24.8134
  28   2.0000      -0.878401       -23.9025
  29   2.0000      -0.851516       -23.1709
  30   2.0000      -0.843573       -22.9548
  31   2.0000      -0.814792       -22.1716
  32   2.0000      -0.783009       -21.3067
  33   2.0000      -0.773142       -21.0383
  34   2.0000      -0.715074       -19.4582
  35   2.0000      -0.698752       -19.0140
  36   2.0000      -0.691984       -18.8298
  37   2.0000      -0.663293       -18.0491
  38   2.0000      -0.646613       -17.5952
  39   2.0000      -0.617997       -16.8165
  40   2.0000      -0.592487       -16.1224
  41   2.0000      -0.580426       -15.7942
  42   2.0000      -0.563783       -15.3413
  43   2.0000      -0.556337       -15.1387
  44   2.0000      -0.542137       -14.7523
  45   2.0000      -0.525761       -14.3067
  46   2.0000      -0.519544       -14.1375
  47   2.0000      -0.513928       -13.9847
  48   2.0000      -0.506366       -13.7789
  49   2.0000      -0.498713       -13.5707
  50   2.0000      -0.497118       -13.5273
  51   2.0000      -0.481913       -13.1135
  52   2.0000      -0.470275       -12.7968
  53   2.0000      -0.458020       -12.4634
  54   2.0000      -0.456656       -12.4262
  55   2.0000      -0.454300       -12.3621
  56   2.0000      -0.447069       -12.1654
  57   2.0000      -0.435318       -11.8456
  58   2.0000      -0.431115       -11.7312
  59   2.0000      -0.419795       -11.4232
  60   2.0000      -0.417119       -11.3504
  61   2.0000      -0.410934       -11.1821
  62   2.0000      -0.408902       -11.1268
  63   2.0000      -0.341261        -9.2862
  64   2.0000      -0.330883        -9.0038
  65   2.0000      -0.324301        -8.8247
  66   2.0000      -0.300969        -8.1898
  67   0.0000       0.041502         1.1293
  68   0.0000       0.061251         1.6667
  69   0.0000       0.105648         2.8748
  70   0.0000       0.121091         3.2951
  71   0.0000       0.125184         3.4064

MULLIKEN ATOMIC CHARGES
-----------------------
   0 S :    0.086146
   1 C :   -0.123793
   2 C :   -0.065323
   3 C :    0.067524
   4 C :   -0.176797
   5 H :   -0.000011
   6 C :    0.031774
   7 H :    0.014754
   8 H :    0.035640
   9 C :   -0.061924
  10 H :    0.033487
  11 H :    0.014692
  12 C :   -0.032006
  13 H :    0.025724
  14 H :    0.040375
  15 H :    0.035000
  16 S :    0.147304
  17 C :   -0.089277
  18 C :   -0.034039
  19 C :   -0.042234
  20 C :   -0.154952
  21 H :    0.013009
  22 C :    0.068021
  23 H :    0.015227
  24 H :    0.008760
  25 C :    0.008222
  26 H :    0.019616
  27 H :    0.003846
  28 C :   -0.045556
  29 H :    0.018608
  30 H :    0.038368
  31 H :    0.017398
  32 H :    0.038144
  33 H :    0.044272
Sum of atomic charges:    0.0000000

LOEWDIN ATOMIC CHARGES
----------------------
   0 S :    0.377869
   1 C :   -0.177086
   2 C :   -0.059529
   3 C :   -0.049859
   4 C :   -0.189735
   5 H :    0.019606
   6 C :   -0.035829
   7 H :    0.029472
   8 H :    0.031495
   9 C :   -0.047679
  10 H :    0.030119
  11 H :    0.016638
  12 C :   -0.063164
  13 H :    0.028334
  14 H :    0.032620
  15 H :    0.024769
  16 S :    0.445051
  17 C :   -0.190292
  18 C :   -0.066959
  19 C :   -0.046543
  20 C :   -0.224031
  21 H :    0.029173
  22 C :   -0.034530
  23 H :    0.027660
  24 H :    0.029017
  25 C :   -0.028226
  26 H :    0.023145
  27 H :    0.016107
  28 C :   -0.067960
  29 H :    0.024768
  30 H :    0.021354
  31 H :    0.025727
  32 H :    0.023134
  33 H :    0.025364

  Mayer bond orders larger than 0.100000
B(  0-S ,  1-C ) :   1.0931 B(  0-S ,  4-C ) :   1.1441 B(  1-C ,  2-C ) :   1.6842
B(  1-C , 32-H ) :   0.9746 B(  2-C ,  3-C ) :   1.1645 B(  2-C ,  6-C ) :   1.0236
B(  3-C ,  4-C ) :   1.6170 B(  3-C ,  5-H ) :   1.0011 B(  4-C , 20-C ) :   1.0249
B(  6-C ,  7-H ) :   0.9443 B(  6-C ,  8-H ) :   0.9308 B(  6-C ,  9-C ) :   1.0698
B(  9-C , 10-H ) :   0.9518 B(  9-C , 11-H ) :   0.9433 B(  9-C , 12-C ) :   1.0923
B( 12-C , 13-H ) :   0.9732 B( 12-C , 14-H ) :   0.9721 B( 12-C , 15-H ) :   0.9715
B( 16-S , 17-C ) :   1.1696 B( 16-S , 20-C ) :   1.1492 B( 17-C , 18-C ) :   1.6283
B( 17-C , 33-H ) :   0.9626 B( 18-C , 19-C ) :   1.2274 B( 18-C , 21-H ) :   0.9925
B( 19-C , 20-C ) :   1.5882 B( 19-C , 22-C ) :   1.0530 B( 22-C , 23-H ) :   0.9276
B( 22-C , 24-H ) :   0.9261 B( 22-C , 25-C ) :   1.0751 B( 25-C , 26-H ) :   0.9506
B( 25-C , 27-H ) :   0.9475 B( 25-C , 28-C ) :   1.0896 B( 28-C , 29-H ) :   0.9699
B( 28-C , 30-H ) :   0.9747 B( 28-C , 31-H ) :   0.9708

Dispersion correction           -0.015028506
FINAL SINGLE POINT ENERGY     -1339.870087977576

DIPOLE MOMENT
-------------
                                X             Y             Z
Electronic contribution:    -11.55749     -23.10078      -4.25068
Nuclear contribution   :     12.14639      23.46820       4.34512
                        -----------------------------------------
Total Dipole Moment    :      0.58890       0.36742       0.09443
                        -----------------------------------------
Magnitude (a.u.)       :      0.70051
Magnitude (Debye)      :      1.78056

Rotational constants in cm-1:     0.019529     0.008628     0.007549
Rotational constants in MHz :   585.466912   258.646428   226.327944

                             ****ORCA TERMINATED NORMALLY****
TOTAL RUN TIME: 0 days 0 hours 0 minutes 22 seconds 335 msec
