                         Program Version 4.2.1 -  RELEASE  -
|  1> ! wB97X-D3 SP def2-SVP
|  2> %pal
|  3> nprocs 24
|  4> end
|  5>
|  6> * xyz 0 1
|  7> S 	 -89.7576 	 -0.852048 	 3.05184
|  8> C 	 -88.9872 	 -1.21812 	 4.55221
|  9> C 	 -87.8055 	 -0.525238 	 4.7005
| 10> C 	 -87.6471 	 0.438491 	 3.66473
| 11> C 	 -88.5516 	 0.402773 	 2.67588
| 12> H 	 -86.7477 	 1.13998 	 3.69857
| 13> C 	 -86.7142 	 -0.768769 	 5.76714
| 14> H 	 -85.8355 	 -1.19336 	 5.2457
| 15> H 	 -87.053 	 -1.5456 	 6.52397
| 16> C 	 -86.25 	 0.460293 	 6.48671
| 17> H 	 -85.5306 	 0.156352 	 7.2388
| 18> H 	 -85.7226 	 1.15387 	 5.85269
| 19> C 	 -87.3849 	 1.20912 	 7.16319
| 20> H 	 -86.9359 	 1.9581 	 7.78918
| 21> H 	 -88.0239 	 1.71105 	 6.39128
| 22> H 	 -88.0737 	 0.528899 	 7.6747
| 23> S 	 -90.3479 	 1.8433 	 1.20213
| 24> C 	 -89.7764 	 3.17195 	 0.253552
| 25> C 	 -88.3964 	 3.16111 	 0.204953
| 26> C 	 -87.7275 	 2.25219 	 1.04937
| 27> C 	 -88.6659 	 1.47918 	 1.70117
| 28> H 	 -87.922 	 3.86414 	 -0.458292
| 29> C 	 -86.2286 	 2.35048 	 1.31153
| 30> H 	 -86.1098 	 2.43972 	 2.38214
| 31> H 	 -85.7733 	 3.2849 	 0.788199
| 32> C 	 -85.3556 	 1.16143 	 0.903131
| 33> H 	 -85.7353 	 0.873228 	 -0.0802703
| 34> H 	 -85.4215 	 0.309387 	 1.53538
| 35> C 	 -83.833 	 1.47255 	 0.820201
| 36> H 	 -83.6536 	 2.40965 	 0.329561
| 37> H 	 -83.2596 	 0.769698 	 0.263413
| 38> H 	 -83.1931 	 1.46033 	 1.74393
| 39> H 	 -89.1439 	 -2.13073 	 5.15979
| 40> H 	 -90.4801 	 3.94764 	 -0.164476
| 41> *
| 42>
| 43>                          ****END OF INPUT****

CARTESIAN COORDINATES (ANGSTROEM)
---------------------------------
  S    -89.757600   -0.852048    3.051840
  C    -88.987200   -1.218120    4.552210
  C    -87.805500   -0.525238    4.700500
  C    -87.647100    0.438491    3.664730
  C    -88.551600    0.402773    2.675880
  H    -86.747700    1.139980    3.698570
  C    -86.714200   -0.768769    5.767140
  H    -85.835500   -1.193360    5.245700
  H    -87.053000   -1.545600    6.523970
  C    -86.250000    0.460293    6.486710
  H    -85.530600    0.156352    7.238800
  H    -85.722600    1.153870    5.852690
  C    -87.384900    1.209120    7.163190
  H    -86.935900    1.958100    7.789180
  H    -88.023900    1.711050    6.391280
  H    -88.073700    0.528899    7.674700
  S    -90.347900    1.843300    1.202130
  C    -89.776400    3.171950    0.253552
  C    -88.396400    3.161110    0.204953
  C    -87.727500    2.252190    1.049370
  C    -88.665900    1.479180    1.701170
  H    -87.922000    3.864140   -0.458292
  C    -86.228600    2.350480    1.311530
  H    -86.109800    2.439720    2.382140
  H    -85.773300    3.284900    0.788199
  C    -85.355600    1.161430    0.903131
  H    -85.735300    0.873228   -0.080270
  H    -85.421500    0.309387    1.535380
  C    -83.833000    1.472550    0.820201
  H    -83.653600    2.409650    0.329561
  H    -83.259600    0.769698    0.263413
  H    -83.193100    1.460330    1.743930
  H    -89.143900   -2.130730    5.159790
  H    -90.480100    3.947640   -0.164476

 Total Charge           Charge          ....    0
 Multiplicity           Mult            ....    1
 Number of Electrons    NEL             ....  134
 Basis Dimension        Dim             ....  322

ORBITAL ENERGIES
----------------

  NO   OCC          E(Eh)            E(eV)
   0   2.0000     -88.968030     -2420.9432
   1   2.0000     -88.964811     -2420.8556
   2   2.0000     -10.331902      -281.1454
   3   2.0000     -10.329104      -281.0692
   4   2.0000     -10.318896      -280.7914
   5   2.0000     -10.313677      -280.6494
   6   2.0000     -10.305524      -280.4276
   7   2.0000     -10.304272      -280.3935
   8   2.0000     -10.300058      -280.2788
   9   2.0000     -10.299679      -280.2685
  10   2.0000     -10.293096      -280.0894
  11   2.0000     -10.292152      -280.0637
  12   2.0000     -10.287150      -279.9276
  13   2.0000     -10.281905      -279.7849
  14   2.0000     -10.279048      -279.7071
  15   2.0000     -10.274098      -279.5724
  16   2.0000      -8.082564      -219.9377
  17   2.0000      -8.079563      -219.8561
  18   2.0000      -6.041316      -164.3926
  19   2.0000      -6.037998      -164.3023
  20   2.0000      -6.037179      -164.2800
  21   2.0000      -6.034148      -164.1975
  22   2.0000      -6.032986      -164.1659
  23   2.0000      -6.030317      -164.0933
  24   2.0000      -1.010803       -27.5054
  25   2.0000      -0.987791       -26.8791
  26   2.0000      -0.916553       -24.9407
  27   2.0000      -0.909703       -24.7543
  28   2.0000      -0.872539       -23.7430
  29   2.0000      -0.855524       -23.2800
  30   2.0000      -0.843904       -22.9638
  31   2.0000      -0.811220       -22.0744
  32   2.0000      -0.786463       -21.4008
  33   2.0000      -0.775486       -21.1021
  34   2.0000      -0.711202       -19.3528
  35   2.0000      -0.696519       -18.9533
  36   2.0000      -0.691372       -18.8132
  37   2.0000      -0.663225       -18.0473
  38   2.0000      -0.631531       -17.1848
  39   2.0000      -0.625900       -17.0316
  40   2.0000      -0.598292       -16.2804
  41   2.0000      -0.571570       -15.5532
  42   2.0000      -0.561839       -15.2884
  43   2.0000      -0.557951       -15.1826
  44   2.0000      -0.540123       -14.6975
  45   2.0000      -0.525180       -14.2909
  46   2.0000      -0.520105       -14.1528
  47   2.0000      -0.513024       -13.9601
  48   2.0000      -0.498045       -13.5525
  49   2.0000      -0.492296       -13.3961
  50   2.0000      -0.490835       -13.3563
  51   2.0000      -0.483577       -13.1588
  52   2.0000      -0.468243       -12.7415
  53   2.0000      -0.467635       -12.7250
  54   2.0000      -0.457801       -12.4574
  55   2.0000      -0.449097       -12.2205
  56   2.0000      -0.441282       -12.0079
  57   2.0000      -0.437647       -11.9090
  58   2.0000      -0.436061       -11.8658
  59   2.0000      -0.425953       -11.5908
  60   2.0000      -0.421271       -11.4634
  61   2.0000      -0.417193       -11.3524
  62   2.0000      -0.412477       -11.2241
  63   2.0000      -0.363828        -9.9003
  64   2.0000      -0.335262        -9.1229
  65   2.0000      -0.328487        -8.9386
  66   2.0000      -0.283967        -7.7271
  67   0.0000       0.024064         0.6548
  68   0.0000       0.075421         2.0523
  69   0.0000       0.101178         2.7532
  70   0.0000       0.115998         3.1565
  71   0.0000       0.131048         3.5660

MULLIKEN ATOMIC CHARGES
-----------------------
   0 S :    0.102446
   1 C :   -0.124651
   2 C :   -0.106893
   3 C :   -0.041084
   4 C :   -0.075808
   5 H :    0.024733
   6 C :    0.053882
   7 H :    0.044223
   8 H :    0.029425
   9 C :   -0.082883
  10 H :    0.027339
  11 H :    0.021658
  12 C :   -0.046739
  13 H :    0.034596
  14 H :    0.043733
  15 H :    0.028937
  16 S :    0.100144
  17 C :   -0.121421
  18 C :   -0.038931
  19 C :    0.003782
  20 C :   -0.161030
  21 H :    0.010143
  22 C :    0.027876
  23 H :    0.035761
  24 H :    0.038105
  25 C :   -0.046095
  26 H :    0.030716
  27 H :    0.031081
  28 C :   -0.055088
  29 H :    0.016736
  30 H :    0.020783
  31 H :    0.031508
  32 H :    0.060044
  33 H :    0.082971
Sum of atomic charges:   -0.0000000

LOEWDIN ATOMIC CHARGES
----------------------
   0 S :    0.394866
   1 C :   -0.211496
   2 C :   -0.066744
   3 C :   -0.073403
   4 C :   -0.185290
   5 H :    0.038856
   6 C :   -0.033623
   7 H :    0.036488
   8 H :    0.034619
   9 C :   -0.048752
  10 H :    0.025752
  11 H :    0.018611
  12 C :   -0.063985
  13 H :    0.023736
  14 H :    0.032397
  15 H :    0.024623
  16 S :    0.393961
  17 C :   -0.202408
  18 C :   -0.070381
  19 C :   -0.061977
  20 C :   -0.164717
  21 H :    0.027603
  22 C :   -0.030295
  23 H :    0.026359
  24 H :    0.042760
  25 C :   -0.037100
  26 H :    0.027875
  27 H :    0.020700
  28 C :   -0.073111
  29 H :    0.018338
  30 H :    0.023951
  31 H :    0.030660
  32 H :    0.037547
  33 H :    0.043583

  Mayer bond orders larger than 0.100000
B(  0-S ,  1-C ) :   1.1319 B(  0-S ,  4-C ) :   1.1225 B(  1-C ,  2-C ) :   1.6373
B(  1-C , 32-H ) :   0.9505 B(  2-C ,  3-C ) :   1.2517 B(  2-C ,  6-C ) :   1.0141
B(  3-C ,  4-C ) :   1.5848 B(  3-C ,  5-H ) :   0.9706 B(  4-C , 20-C ) :   1.0663
B(  6-C ,  7-H ) :   0.9392 B(  6-C ,  8-H ) :   0.9414 B(  6-C ,  9-C ) :   1.0870
B(  9-C , 10-H ) :   0.9515 B(  9-C , 11-H ) :   0.9477 B(  9-C , 12-C ) :   1.0814
B( 12-C , 13-H ) :   0.9739 B( 12-C , 14-H ) :   0.9680 B( 12-C , 15-H ) :   0.9762
B( 16-S , 17-C ) :   1.1520 B( 16-S , 20-C ) :   1.1385 B( 17-C , 18-C ) :   1.6013
B( 17-C , 20-C ) :   0.1005 B( 17-C , 33-H ) :   0.9623 B( 18-C , 19-C ) :   1.2481
B( 18-C , 21-H ) :   0.9916 B( 19-C , 20-C ) :   1.5869 B( 19-C , 22-C ) :   1.0334
B( 22-C , 23-H ) :   0.9323 B( 22-C , 24-H ) :   0.9369 B( 22-C , 25-C ) :   1.0618
B( 25-C , 26-H ) :   0.9558 B( 25-C , 27-H ) :   0.9526 B( 25-C , 28-C ) :   1.0794
B( 28-C , 29-H ) :   0.9744 B( 28-C , 30-H ) :   0.9734 B( 28-C , 31-H ) :   0.9749

Dispersion correction           -0.014545047
FINAL SINGLE POINT ENERGY     -1339.875529786939

DIPOLE MOMENT
-------------
                                X             Y             Z
Electronic contribution:    -26.77926      -3.90993     -11.10843
Nuclear contribution   :     27.53880       4.08792      11.30331
                        -----------------------------------------
Total Dipole Moment    :      0.75954       0.17799       0.19488
                        -----------------------------------------
Magnitude (a.u.)       :      0.80409
Magnitude (Debye)      :      2.04383

Rotational constants in cm-1:     0.015836     0.010242     0.007462
Rotational constants in MHz :   474.751147   307.053359   223.717993

                             ****ORCA TERMINATED NORMALLY****
TOTAL RUN TIME: 0 days 0 hours 0 minutes 22 seconds 97 msec
