                         Program Version 4.2.1 -  RELEASE  -
|  1> ! wB97X-D3 SP def2-SVP
|  2> %pal
|  3> nprocs 24
|  4> end
|  5>
|  6> * xyz 0 1
|  7> S 	 -116.888 	 42.2533 	 -113.236
|  8> C 	 -118.262 	 41.3562 	 -113.972
|  9> C 	 -117.83 	 40.6748 	 -115.088
| 10> C 	 -116.423 	 40.8157 	 -115.39
| 11> C 	 -115.805 	 41.6249 	 -114.48
| 12> H 	 -115.963 	 40.3554 	 -116.258
| 13> C 	 -118.745 	 39.7086 	 -115.757
| 14> H 	 -119.377 	 39.3544 	 -114.909
| 15> H 	 -118.076 	 38.87 	 -116.017
| 16> C 	 -119.572 	 40.0597 	 -116.978
| 17> H 	 -120.144 	 40.8778 	 -116.64
| 18> H 	 -118.842 	 40.5203 	 -117.658
| 19> C 	 -120.433 	 38.957 	 -117.572
| 20> H 	 -121.171 	 39.4262 	 -118.237
| 21> H 	 -119.805 	 38.4555 	 -118.332
| 22> H 	 -120.869 	 38.3139 	 -116.815
| 23> S 	 -113.67 	 42.321 	 -116.048
| 24> C 	 -112.081 	 42.5816 	 -115.259
| 25> C 	 -112.072 	 42.1032 	 -113.993
| 26> C 	 -113.384 	 41.8538 	 -113.502
| 27> C 	 -114.357 	 41.8565 	 -114.495
| 28> H 	 -111.137 	 42.1816 	 -113.421
| 29> C 	 -113.643 	 41.3467 	 -112.078
| 30> H 	 -114.612 	 40.8131 	 -112.028
| 31> H 	 -113.795 	 42.1883 	 -111.548
| 32> C 	 -112.612 	 40.3067 	 -111.433
| 33> H 	 -112.929 	 40.0908 	 -110.473
| 34> H 	 -111.606 	 40.7304 	 -111.39
| 35> C 	 -112.577 	 38.9885 	 -112.19
| 36> H 	 -112.358 	 39.0933 	 -113.297
| 37> H 	 -113.575 	 38.5204 	 -112.154
| 38> H 	 -111.812 	 38.3155 	 -111.811
| 39> H 	 -119.183 	 41.3301 	 -113.386
| 40> H 	 -111.251 	 42.9987 	 -115.75
| 41> *
| 42>
| 43>                          ****END OF INPUT****

CARTESIAN COORDINATES (ANGSTROEM)
---------------------------------
  S    -116.888000   42.253300  -113.236000
  C    -118.262000   41.356200  -113.972000
  C    -117.830000   40.674800  -115.088000
  C    -116.423000   40.815700  -115.390000
  C    -115.805000   41.624900  -114.480000
  H    -115.963000   40.355400  -116.258000
  C    -118.745000   39.708600  -115.757000
  H    -119.377000   39.354400  -114.909000
  H    -118.076000   38.870000  -116.017000
  C    -119.572000   40.059700  -116.978000
  H    -120.144000   40.877800  -116.640000
  H    -118.842000   40.520300  -117.658000
  C    -120.433000   38.957000  -117.572000
  H    -121.171000   39.426200  -118.237000
  H    -119.805000   38.455500  -118.332000
  H    -120.869000   38.313900  -116.815000
  S    -113.670000   42.321000  -116.048000
  C    -112.081000   42.581600  -115.259000
  C    -112.072000   42.103200  -113.993000
  C    -113.384000   41.853800  -113.502000
  C    -114.357000   41.856500  -114.495000
  H    -111.137000   42.181600  -113.421000
  C    -113.643000   41.346700  -112.078000
  H    -114.612000   40.813100  -112.028000
  H    -113.795000   42.188300  -111.548000
  C    -112.612000   40.306700  -111.433000
  H    -112.929000   40.090800  -110.473000
  H    -111.606000   40.730400  -111.390000
  C    -112.577000   38.988500  -112.190000
  H    -112.358000   39.093300  -113.297000
  H    -113.575000   38.520400  -112.154000
  H    -111.812000   38.315500  -111.811000
  H    -119.183000   41.330100  -113.386000
  H    -111.251000   42.998700  -115.750000

 Total Charge           Charge          ....    0
 Multiplicity           Mult            ....    1
 Number of Electrons    NEL             ....  134
 Basis Dimension        Dim             ....  322

ORBITAL ENERGIES
----------------

  NO   OCC          E(Eh)            E(eV)
   0   2.0000     -88.965787     -2420.8821
   1   2.0000     -88.963408     -2420.8174
   2   2.0000     -10.332575      -281.1637
   3   2.0000     -10.326215      -280.9906
   4   2.0000     -10.317054      -280.7413
   5   2.0000     -10.314723      -280.6779
   6   2.0000     -10.303591      -280.3750
   7   2.0000     -10.302556      -280.3468
   8   2.0000     -10.294951      -280.1398
   9   2.0000     -10.294007      -280.1142
  10   2.0000     -10.287156      -279.9278
  11   2.0000     -10.284719      -279.8614
  12   2.0000     -10.284458      -279.8543
  13   2.0000     -10.282735      -279.8075
  14   2.0000     -10.279545      -279.7206
  15   2.0000     -10.276519      -279.6383
  16   2.0000      -8.079525      -219.8550
  17   2.0000      -8.077512      -219.8003
  18   2.0000      -6.038180      -164.3072
  19   2.0000      -6.036109      -164.2509
  20   2.0000      -6.034215      -164.1993
  21   2.0000      -6.032236      -164.1455
  22   2.0000      -6.030163      -164.0891
  23   2.0000      -6.028109      -164.0332
  24   2.0000      -1.003317       -27.3016
  25   2.0000      -0.980578       -26.6829
  26   2.0000      -0.913802       -24.8658
  27   2.0000      -0.900818       -24.5125
  28   2.0000      -0.872143       -23.7322
  29   2.0000      -0.852106       -23.1870
  30   2.0000      -0.842877       -22.9358
  31   2.0000      -0.818951       -22.2848
  32   2.0000      -0.780700       -21.2439
  33   2.0000      -0.768903       -20.9229
  34   2.0000      -0.706697       -19.2302
  35   2.0000      -0.701908       -19.0999
  36   2.0000      -0.695093       -18.9144
  37   2.0000      -0.661755       -18.0073
  38   2.0000      -0.640507       -17.4291
  39   2.0000      -0.614767       -16.7287
  40   2.0000      -0.596577       -16.2337
  41   2.0000      -0.568435       -15.4679
  42   2.0000      -0.561867       -15.2892
  43   2.0000      -0.556538       -15.1442
  44   2.0000      -0.539132       -14.6705
  45   2.0000      -0.525996       -14.3131
  46   2.0000      -0.522822       -14.2267
  47   2.0000      -0.513862       -13.9829
  48   2.0000      -0.505677       -13.7602
  49   2.0000      -0.495468       -13.4824
  50   2.0000      -0.484204       -13.1759
  51   2.0000      -0.475169       -12.9300
  52   2.0000      -0.466907       -12.7052
  53   2.0000      -0.465633       -12.6705
  54   2.0000      -0.460060       -12.5189
  55   2.0000      -0.451171       -12.2770
  56   2.0000      -0.442320       -12.0361
  57   2.0000      -0.436969       -11.8905
  58   2.0000      -0.431229       -11.7343
  59   2.0000      -0.422632       -11.5004
  60   2.0000      -0.418125       -11.3778
  61   2.0000      -0.413511       -11.2522
  62   2.0000      -0.406805       -11.0697
  63   2.0000      -0.351960        -9.5773
  64   2.0000      -0.332676        -9.0526
  65   2.0000      -0.326644        -8.8884
  66   2.0000      -0.290242        -7.8979
  67   0.0000       0.028631         0.7791
  68   0.0000       0.072636         1.9765
  69   0.0000       0.099715         2.7134
  70   0.0000       0.113466         3.0876
  71   0.0000       0.130697         3.5565

MULLIKEN ATOMIC CHARGES
-----------------------
   0 S :    0.091192
   1 C :   -0.157017
   2 C :   -0.059380
   3 C :    0.004416
   4 C :   -0.098298
   5 H :    0.022738
   6 C :    0.008777
   7 H :    0.023203
   8 H :    0.017029
   9 C :   -0.035131
  10 H :    0.007877
  11 H :    0.021055
  12 C :   -0.022530
  13 H :    0.034744
  14 H :    0.033603
  15 H :    0.045957
  16 S :    0.088479
  17 C :   -0.079438
  18 C :   -0.028460
  19 C :   -0.063342
  20 C :   -0.151396
  21 H :    0.033408
  22 C :    0.079667
  23 H :    0.026939
  24 H :    0.008065
  25 C :   -0.033018
  26 H :    0.017607
  27 H :    0.027010
  28 C :   -0.082644
  29 H :    0.044294
  30 H :    0.032905
  31 H :    0.037242
  32 H :    0.065035
  33 H :    0.039409
Sum of atomic charges:   -0.0000000

LOEWDIN ATOMIC CHARGES
----------------------
   0 S :    0.377111
   1 C :   -0.185179
   2 C :   -0.058764
   3 C :   -0.068860
   4 C :   -0.177298
   5 H :    0.033852
   6 C :   -0.041663
   7 H :    0.031606
   8 H :    0.027995
   9 C :   -0.045119
  10 H :    0.015307
  11 H :    0.026806
  12 C :   -0.063320
  13 H :    0.032908
  14 H :    0.032496
  15 H :    0.028593
  16 S :    0.379991
  17 C :   -0.155433
  18 C :   -0.072438
  19 C :   -0.057007
  20 C :   -0.189428
  21 H :    0.039044
  22 C :   -0.024997
  23 H :    0.029201
  24 H :    0.014081
  25 C :   -0.028647
  26 H :    0.017485
  27 H :    0.020009
  28 C :   -0.071480
  29 H :    0.031867
  30 H :    0.026653
  31 H :    0.024891
  32 H :    0.030472
  33 H :    0.019267

  Mayer bond orders larger than 0.100000
B(  0-S ,  1-C ) :   1.1072 B(  0-S ,  4-C ) :   1.1424 B(  1-C ,  2-C ) :   1.6193
B(  1-C , 32-H ) :   0.9723 B(  2-C ,  3-C ) :   1.2251 B(  2-C ,  6-C ) :   1.0212
B(  3-C ,  4-C ) :   1.5664 B(  3-C ,  5-H ) :   0.9945 B(  4-C , 20-C ) :   1.0327
B(  6-C ,  7-H ) :   0.9404 B(  6-C ,  8-H ) :   0.9383 B(  6-C ,  9-C ) :   1.0612
B(  9-C , 10-H ) :   0.9511 B(  9-C , 11-H ) :   0.9518 B(  9-C , 12-C ) :   1.0758
B( 12-C , 13-H ) :   0.9718 B( 12-C , 14-H ) :   0.9737 B( 12-C , 15-H ) :   0.9751
B( 16-S , 17-C ) :   1.1392 B( 16-S , 20-C ) :   1.1299 B( 17-C , 18-C ) :   1.6410
B( 17-C , 33-H ) :   0.9721 B( 18-C , 19-C ) :   1.2187 B( 18-C , 21-H ) :   0.9819
B( 19-C , 20-C ) :   1.6092 B( 19-C , 22-C ) :   1.0199 B( 22-C , 23-H ) :   0.9416
B( 22-C , 24-H ) :   0.9251 B( 22-C , 25-C ) :   1.0719 B( 25-C , 26-H ) :   0.9532
B( 25-C , 27-H ) :   0.9548 B( 25-C , 28-C ) :   1.0786 B( 28-C , 29-H ) :   0.9749
B( 28-C , 30-H ) :   0.9738 B( 28-C , 31-H ) :   0.9743

Dispersion correction           -0.014085132
FINAL SINGLE POINT ENERGY     -1339.869088755514

DIPOLE MOMENT
-------------
                                X             Y             Z
Electronic contribution:      6.86916      17.38012      -0.60900
Nuclear contribution   :     -6.85520     -17.74318       0.72637
                        -----------------------------------------
Total Dipole Moment    :      0.01396      -0.36306       0.11737
                        -----------------------------------------
Magnitude (a.u.)       :      0.38181
Magnitude (Debye)      :      0.97050

Rotational constants in cm-1:     0.022105     0.007094     0.006440
Rotational constants in MHz :   662.687318   212.680063   193.058901

                             ****ORCA TERMINATED NORMALLY****
TOTAL RUN TIME: 0 days 0 hours 0 minutes 20 seconds 2 msec
