                         Program Version 4.2.1 -  RELEASE  -
|  1> ! wB97X-D3 SP def2-SVP
|  2> %pal
|  3> nprocs 24
|  4> end
|  5>
|  6> * xyz 0 1
|  7> S 	 1.79039 	 -16.8321 	 -104.676
|  8> C 	 1.65259 	 -17.6791 	 -106.245
|  9> C 	 0.733908 	 -18.7212 	 -106.18
| 10> C 	 0.118591 	 -18.8066 	 -104.944
| 11> C 	 0.473852 	 -17.8571 	 -104.001
| 12> H 	 -0.623848 	 -19.5225 	 -104.633
| 13> C 	 0.323617 	 -19.488 	 -107.343
| 14> H 	 0.0254102 	 -18.7962 	 -108.14
| 15> H 	 -0.659475 	 -19.8323 	 -107.232
| 16> C 	 1.17738 	 -20.6178 	 -107.918
| 17> H 	 2.21751 	 -20.3036 	 -108.007
| 18> H 	 1.063 	 -21.4254 	 -107.212
| 19> C 	 0.725648 	 -21.0279 	 -109.259
| 20> H 	 1.31762 	 -21.8618 	 -109.542
| 21> H 	 -0.304754 	 -21.2254 	 -109.351
| 22> H 	 0.961907 	 -20.2178 	 -109.927
| 23> S 	 -0.92686 	 -18.984 	 -101.999
| 24> C 	 -1.44126 	 -18.105 	 -100.595
| 25> C 	 -1.35091 	 -16.7062 	 -100.845
| 26> C 	 -0.649641 	 -16.4594 	 -102.074
| 27> C 	 -0.238117 	 -17.6049 	 -102.753
| 28> H 	 -1.72691 	 -15.9067 	 -100.171
| 29> C 	 -0.592789 	 -15.008 	 -102.531
| 30> H 	 -1.56464 	 -14.571 	 -102.376
| 31> H 	 -0.544565 	 -14.9328 	 -103.6
| 32> C 	 0.501205 	 -14.1724 	 -101.914
| 33> H 	 1.48709 	 -14.6186 	 -102.297
| 34> H 	 0.513424 	 -14.1894 	 -100.847
| 35> C 	 0.539552 	 -12.7213 	 -102.41
| 36> H 	 1.24858 	 -12.0767 	 -101.831
| 37> H 	 -0.403025 	 -12.2249 	 -102.395
| 38> H 	 0.858068 	 -12.8013 	 -103.444
| 39> H 	 1.98139 	 -17.2273 	 -107.159
| 40> H 	 -1.98619 	 -18.5351 	 -99.7249
| 41> *
| 42>
| 43>                          ****END OF INPUT****

CARTESIAN COORDINATES (ANGSTROEM)
---------------------------------
  S      1.790390  -16.832100  -104.676000
  C      1.652590  -17.679100  -106.245000
  C      0.733908  -18.721200  -106.180000
  C      0.118591  -18.806600  -104.944000
  C      0.473852  -17.857100  -104.001000
  H     -0.623848  -19.522500  -104.633000
  C      0.323617  -19.488000  -107.343000
  H      0.025410  -18.796200  -108.140000
  H     -0.659475  -19.832300  -107.232000
  C      1.177380  -20.617800  -107.918000
  H      2.217510  -20.303600  -108.007000
  H      1.063000  -21.425400  -107.212000
  C      0.725648  -21.027900  -109.259000
  H      1.317620  -21.861800  -109.542000
  H     -0.304754  -21.225400  -109.351000
  H      0.961907  -20.217800  -109.927000
  S     -0.926860  -18.984000  -101.999000
  C     -1.441260  -18.105000  -100.595000
  C     -1.350910  -16.706200  -100.845000
  C     -0.649641  -16.459400  -102.074000
  C     -0.238117  -17.604900  -102.753000
  H     -1.726910  -15.906700  -100.171000
  C     -0.592789  -15.008000  -102.531000
  H     -1.564640  -14.571000  -102.376000
  H     -0.544565  -14.932800  -103.600000
  C      0.501205  -14.172400  -101.914000
  H      1.487090  -14.618600  -102.297000
  H      0.513424  -14.189400  -100.847000
  C      0.539552  -12.721300  -102.410000
  H      1.248580  -12.076700  -101.831000
  H     -0.403025  -12.224900  -102.395000
  H      0.858068  -12.801300  -103.444000
  H      1.981390  -17.227300  -107.159000
  H     -1.986190  -18.535100  -99.724900

 Total Charge           Charge          ....    0
 Multiplicity           Mult            ....    1
 Number of Electrons    NEL             ....  134
 Basis Dimension        Dim             ....  322

ORBITAL ENERGIES
----------------

  NO   OCC          E(Eh)            E(eV)
   0   2.0000     -88.970059     -2420.9984
   1   2.0000     -88.967672     -2420.9334
   2   2.0000     -10.335617      -281.2464
   3   2.0000     -10.329130      -281.0699
   4   2.0000     -10.325463      -280.9701
   5   2.0000     -10.314305      -280.6665
   6   2.0000     -10.305291      -280.4212
   7   2.0000     -10.302670      -280.3499
   8   2.0000     -10.297067      -280.1974
   9   2.0000     -10.289822      -280.0003
  10   2.0000     -10.284639      -279.8593
  11   2.0000     -10.284058      -279.8434
  12   2.0000     -10.279998      -279.7330
  13   2.0000     -10.279402      -279.7167
  14   2.0000     -10.274190      -279.5749
  15   2.0000     -10.266851      -279.3752
  16   2.0000      -8.083158      -219.9539
  17   2.0000      -8.082836      -219.9451
  18   2.0000      -6.041685      -164.4026
  19   2.0000      -6.041426      -164.3956
  20   2.0000      -6.037616      -164.2919
  21   2.0000      -6.037538      -164.2898
  22   2.0000      -6.033888      -164.1904
  23   2.0000      -6.033644      -164.1838
  24   2.0000      -1.008600       -27.4454
  25   2.0000      -0.984805       -26.7979
  26   2.0000      -0.922189       -25.0941
  27   2.0000      -0.910917       -24.7873
  28   2.0000      -0.874157       -23.7870
  29   2.0000      -0.858278       -23.3549
  30   2.0000      -0.847671       -23.0663
  31   2.0000      -0.813583       -22.1387
  32   2.0000      -0.784110       -21.3367
  33   2.0000      -0.771195       -20.9853
  34   2.0000      -0.705390       -19.1946
  35   2.0000      -0.703333       -19.1387
  36   2.0000      -0.691889       -18.8273
  37   2.0000      -0.672539       -18.3007
  38   2.0000      -0.637447       -17.3458
  39   2.0000      -0.620253       -16.8779
  40   2.0000      -0.600149       -16.3309
  41   2.0000      -0.580247       -15.7893
  42   2.0000      -0.563885       -15.3441
  43   2.0000      -0.562704       -15.3120
  44   2.0000      -0.538177       -14.6445
  45   2.0000      -0.526125       -14.3166
  46   2.0000      -0.522478       -14.2174
  47   2.0000      -0.511914       -13.9299
  48   2.0000      -0.507038       -13.7972
  49   2.0000      -0.503311       -13.6958
  50   2.0000      -0.492984       -13.4148
  51   2.0000      -0.485103       -13.2003
  52   2.0000      -0.468701       -12.7540
  53   2.0000      -0.460182       -12.5222
  54   2.0000      -0.456854       -12.4316
  55   2.0000      -0.450959       -12.2712
  56   2.0000      -0.443034       -12.0556
  57   2.0000      -0.438069       -11.9205
  58   2.0000      -0.434395       -11.8205
  59   2.0000      -0.428644       -11.6640
  60   2.0000      -0.418020       -11.3749
  61   2.0000      -0.412470       -11.2239
  62   2.0000      -0.409829       -11.1520
  63   2.0000      -0.353476        -9.6186
  64   2.0000      -0.334537        -9.1032
  65   2.0000      -0.329560        -8.9678
  66   2.0000      -0.282345        -7.6830
  67   0.0000       0.015232         0.4145
  68   0.0000       0.071771         1.9530
  69   0.0000       0.097490         2.6528
  70   0.0000       0.112977         3.0743
  71   0.0000       0.132171         3.5965

MULLIKEN ATOMIC CHARGES
-----------------------
   0 S :    0.097037
   1 C :   -0.121094
   2 C :   -0.027424
   3 C :   -0.004864
   4 C :   -0.112177
   5 H :    0.012585
   6 C :    0.035486
   7 H :    0.010303
   8 H :   -0.013041
   9 C :   -0.036245
  10 H :    0.028533
  11 H :    0.024444
  12 C :   -0.003059
  13 H :    0.027027
  14 H :    0.019350
  15 H :    0.018762
  16 S :    0.097268
  17 C :   -0.101067
  18 C :   -0.046415
  19 C :   -0.052517
  20 C :   -0.133226
  21 H :    0.040637
  22 C :    0.060647
  23 H :    0.013748
  24 H :    0.007728
  25 C :   -0.075290
  26 H :    0.031532
  27 H :    0.021894
  28 C :   -0.039600
  29 H :    0.041563
  30 H :    0.020238
  31 H :    0.029849
  32 H :    0.050113
  33 H :    0.077275
Sum of atomic charges:   -0.0000000

LOEWDIN ATOMIC CHARGES
----------------------
   0 S :    0.377118
   1 C :   -0.181729
   2 C :   -0.061576
   3 C :   -0.068209
   4 C :   -0.171000
   5 H :    0.023944
   6 C :   -0.044198
   7 H :    0.034481
   8 H :    0.023681
   9 C :   -0.030721
  10 H :    0.026132
  11 H :    0.022284
  12 C :   -0.053633
  13 H :    0.026221
  14 H :    0.018004
  15 H :    0.024788
  16 S :    0.437027
  17 C :   -0.199924
  18 C :   -0.070052
  19 C :   -0.056319
  20 C :   -0.206557
  21 H :    0.039611
  22 C :   -0.036051
  23 H :    0.027797
  24 H :    0.023432
  25 C :   -0.040657
  26 H :    0.029519
  27 H :    0.014801
  28 C :   -0.065728
  29 H :    0.032008
  30 H :    0.015905
  31 H :    0.026132
  32 H :    0.024613
  33 H :    0.038856

  Mayer bond orders larger than 0.100000
B(  0-S ,  1-C ) :   1.1309 B(  0-S ,  4-C ) :   1.1359 B(  1-C ,  2-C ) :   1.5810
B(  1-C ,  4-C ) :   0.1035 B(  1-C , 32-H ) :   0.9666 B(  2-C ,  3-C ) :   1.2853
B(  2-C ,  6-C ) :   1.0285 B(  3-C ,  4-C ) :   1.5473 B(  3-C ,  5-H ) :   0.9830
B(  4-C , 20-C ) :   1.0614 B(  6-C ,  7-H ) :   0.9322 B(  6-C ,  8-H ) :   0.9253
B(  6-C ,  9-C ) :   1.0562 B(  9-C , 10-H ) :   0.9565 B(  9-C , 11-H ) :   0.9511
B(  9-C , 12-C ) :   1.0951 B( 12-C , 13-H ) :   0.9687 B( 12-C , 14-H ) :   0.9729
B( 12-C , 15-H ) :   0.9712 B( 16-S , 17-C ) :   1.1759 B( 16-S , 20-C ) :   1.1491
B( 17-C , 18-C ) :   1.5556 B( 17-C , 33-H ) :   0.9652 B( 18-C , 19-C ) :   1.2798
B( 18-C , 21-H ) :   0.9831 B( 19-C , 20-C ) :   1.5490 B( 19-C , 22-C ) :   1.0370
B( 22-C , 23-H ) :   0.9361 B( 22-C , 24-H ) :   0.9326 B( 22-C , 25-C ) :   1.0632
B( 25-C , 26-H ) :   0.9533 B( 25-C , 27-H ) :   0.9608 B( 25-C , 28-C ) :   1.0774
B( 28-C , 29-H ) :   0.9746 B( 28-C , 30-H ) :   0.9752 B( 28-C , 31-H ) :   0.9762

Dispersion correction           -0.013604371
FINAL SINGLE POINT ENERGY     -1339.865035894548

DIPOLE MOMENT
-------------
                                X             Y             Z
Electronic contribution:     -0.34924      -5.75962      13.99049
Nuclear contribution   :     -0.11826       5.87992     -14.29215
                        -----------------------------------------
Total Dipole Moment    :     -0.46750       0.12030      -0.30165
                        -----------------------------------------
Magnitude (a.u.)       :      0.56923
Magnitude (Debye)      :      1.44687

Rotational constants in cm-1:     0.022228     0.007336     0.005793
Rotational constants in MHz :   666.377490   219.936963   173.665251

                             ****ORCA TERMINATED NORMALLY****
TOTAL RUN TIME: 0 days 0 hours 0 minutes 22 seconds 279 msec
