                         Program Version 4.2.1 -  RELEASE  -
|  1> ! wB97X-D3 SP def2-SVP
|  2> %pal
|  3> nprocs 24
|  4> end
|  5>
|  6> * xyz 0 1
|  7> S 	 -56.5419 	 -1.2453 	 -32.0903
|  8> C 	 -58.275 	 -1.27708 	 -32.0445
|  9> C 	 -58.9161 	 -0.445715 	 -32.92
| 10> C 	 -57.9179 	 0.391208 	 -33.5405
| 11> C 	 -56.6517 	 0.134162 	 -33.1631
| 12> H 	 -57.9275 	 1.15181 	 -34.2564
| 13> C 	 -60.4744 	 -0.266905 	 -33.1884
| 14> H 	 -60.7489 	 0.765213 	 -33.5079
| 15> H 	 -60.7298 	 -0.219049 	 -32.1545
| 16> C 	 -61.2251 	 -1.39649 	 -33.8532
| 17> H 	 -60.7982 	 -2.33646 	 -33.4651
| 18> H 	 -62.2094 	 -1.52375 	 -33.4822
| 19> C 	 -61.1055 	 -1.30011 	 -35.3705
| 20> H 	 -60.0416 	 -1.17018 	 -35.6112
| 21> H 	 -61.4996 	 -2.20485 	 -35.7635
| 22> H 	 -61.6662 	 -0.458492 	 -35.8528
| 23> S 	 -54.1819 	 0.323106 	 -34.4347
| 24> C 	 -53.2627 	 1.71857 	 -34.2037
| 25> C 	 -53.9068 	 2.64853 	 -33.4408
| 26> C 	 -55.1897 	 2.25742 	 -32.9409
| 27> C 	 -55.4314 	 0.944959 	 -33.3593
| 28> H 	 -53.3396 	 3.57649 	 -33.3109
| 29> C 	 -55.9887 	 3.16082 	 -32.0486
| 30> H 	 -55.3302 	 3.39239 	 -31.235
| 31> H 	 -56.9366 	 2.68759 	 -31.6611
| 32> C 	 -56.4639 	 4.53937 	 -32.4935
| 33> H 	 -57.071 	 4.39141 	 -33.3613
| 34> H 	 -55.6006 	 5.17829 	 -32.6137
| 35> C 	 -57.3151 	 5.31654 	 -31.4712
| 36> H 	 -58.3442 	 5.06221 	 -31.503
| 37> H 	 -57.3613 	 6.379 	 -31.5963
| 38> H 	 -56.9866 	 5.02282 	 -30.4906
| 39> H 	 -58.8244 	 -1.99443 	 -31.4698
| 40> H 	 -52.1864 	 1.77353 	 -34.3018
| 41> *
| 42>
| 43>                          ****END OF INPUT****

CARTESIAN COORDINATES (ANGSTROEM)
---------------------------------
  S    -56.541900   -1.245300  -32.090300
  C    -58.275000   -1.277080  -32.044500
  C    -58.916100   -0.445715  -32.920000
  C    -57.917900    0.391208  -33.540500
  C    -56.651700    0.134162  -33.163100
  H    -57.927500    1.151810  -34.256400
  C    -60.474400   -0.266905  -33.188400
  H    -60.748900    0.765213  -33.507900
  H    -60.729800   -0.219049  -32.154500
  C    -61.225100   -1.396490  -33.853200
  H    -60.798200   -2.336460  -33.465100
  H    -62.209400   -1.523750  -33.482200
  C    -61.105500   -1.300110  -35.370500
  H    -60.041600   -1.170180  -35.611200
  H    -61.499600   -2.204850  -35.763500
  H    -61.666200   -0.458492  -35.852800
  S    -54.181900    0.323106  -34.434700
  C    -53.262700    1.718570  -34.203700
  C    -53.906800    2.648530  -33.440800
  C    -55.189700    2.257420  -32.940900
  C    -55.431400    0.944959  -33.359300
  H    -53.339600    3.576490  -33.310900
  C    -55.988700    3.160820  -32.048600
  H    -55.330200    3.392390  -31.235000
  H    -56.936600    2.687590  -31.661100
  C    -56.463900    4.539370  -32.493500
  H    -57.071000    4.391410  -33.361300
  H    -55.600600    5.178290  -32.613700
  C    -57.315100    5.316540  -31.471200
  H    -58.344200    5.062210  -31.503000
  H    -57.361300    6.379000  -31.596300
  H    -56.986600    5.022820  -30.490600
  H    -58.824400   -1.994430  -31.469800
  H    -52.186400    1.773530  -34.301800

 Total Charge           Charge          ....    0
 Multiplicity           Mult            ....    1
 Number of Electrons    NEL             ....  134
 Basis Dimension        Dim             ....  322

ORBITAL ENERGIES
----------------

  NO   OCC          E(Eh)            E(eV)
   0   2.0000     -88.963576     -2420.8220
   1   2.0000     -88.962611     -2420.7957
   2   2.0000     -10.326536      -280.9993
   3   2.0000     -10.318726      -280.7868
   4   2.0000     -10.310735      -280.5694
   5   2.0000     -10.308002      -280.4950
   6   2.0000     -10.307576      -280.4834
   7   2.0000     -10.306092      -280.4430
   8   2.0000     -10.296539      -280.1831
   9   2.0000     -10.291558      -280.0475
  10   2.0000     -10.289390      -279.9885
  11   2.0000     -10.285671      -279.8873
  12   2.0000     -10.284816      -279.8641
  13   2.0000     -10.282708      -279.8067
  14   2.0000     -10.276695      -279.6431
  15   2.0000     -10.272142      -279.5192
  16   2.0000      -8.079435      -219.8526
  17   2.0000      -8.078080      -219.8157
  18   2.0000      -6.037764      -164.2959
  19   2.0000      -6.036452      -164.2602
  20   2.0000      -6.033829      -164.1888
  21   2.0000      -6.032668      -164.1572
  22   2.0000      -6.030289      -164.0925
  23   2.0000      -6.028758      -164.0509
  24   2.0000      -1.009372       -27.4664
  25   2.0000      -0.988930       -26.9102
  26   2.0000      -0.914200       -24.8766
  27   2.0000      -0.911190       -24.7947
  28   2.0000      -0.868677       -23.6379
  29   2.0000      -0.855999       -23.2929
  30   2.0000      -0.847872       -23.0718
  31   2.0000      -0.815299       -22.1854
  32   2.0000      -0.788356       -21.4523
  33   2.0000      -0.776224       -21.1221
  34   2.0000      -0.706391       -19.2219
  35   2.0000      -0.703843       -19.1526
  36   2.0000      -0.689878       -18.7725
  37   2.0000      -0.655210       -17.8292
  38   2.0000      -0.648371       -17.6431
  39   2.0000      -0.611727       -16.6459
  40   2.0000      -0.596660       -16.2360
  41   2.0000      -0.579599       -15.7717
  42   2.0000      -0.569450       -15.4955
  43   2.0000      -0.562900       -15.3173
  44   2.0000      -0.532684       -14.4951
  45   2.0000      -0.523868       -14.2552
  46   2.0000      -0.515977       -14.0404
  47   2.0000      -0.511820       -13.9273
  48   2.0000      -0.508751       -13.8438
  49   2.0000      -0.490871       -13.3573
  50   2.0000      -0.484906       -13.1950
  51   2.0000      -0.478015       -13.0075
  52   2.0000      -0.471153       -12.8207
  53   2.0000      -0.464784       -12.6474
  54   2.0000      -0.461963       -12.5706
  55   2.0000      -0.457741       -12.4558
  56   2.0000      -0.443497       -12.0682
  57   2.0000      -0.437206       -11.8970
  58   2.0000      -0.434656       -11.8276
  59   2.0000      -0.427190       -11.6244
  60   2.0000      -0.425081       -11.5671
  61   2.0000      -0.410082       -11.1589
  62   2.0000      -0.408186       -11.1073
  63   2.0000      -0.336114        -9.1461
  64   2.0000      -0.329994        -8.9796
  65   2.0000      -0.328191        -8.9305
  66   2.0000      -0.304217        -8.2782
  67   0.0000       0.041775         1.1367
  68   0.0000       0.064489         1.7548
  69   0.0000       0.117620         3.2006
  70   0.0000       0.119899         3.2626
  71   0.0000       0.128646         3.5006

MULLIKEN ATOMIC CHARGES
-----------------------
   0 S :    0.118531
   1 C :   -0.115255
   2 C :   -0.077150
   3 C :    0.052804
   4 C :   -0.180537
   5 H :   -0.018871
   6 C :    0.057593
   7 H :    0.030481
   8 H :    0.017536
   9 C :   -0.026495
  10 H :    0.015088
  11 H :    0.015340
  12 C :   -0.039058
  13 H :    0.040433
  14 H :    0.026700
  15 H :    0.037328
  16 S :    0.118142
  17 C :   -0.088215
  18 C :   -0.074091
  19 C :    0.040682
  20 C :   -0.199862
  21 H :    0.023286
  22 C :    0.044327
  23 H :    0.023305
  24 H :    0.037382
  25 C :   -0.060740
  26 H :    0.025437
  27 H :    0.025359
  28 C :   -0.028560
  29 H :    0.015658
  30 H :    0.033123
  31 H :    0.017185
  32 H :    0.031051
  33 H :    0.062060
Sum of atomic charges:   -0.0000000

LOEWDIN ATOMIC CHARGES
----------------------
   0 S :    0.406266
   1 C :   -0.192619
   2 C :   -0.058483
   3 C :   -0.058049
   4 C :   -0.197084
   5 H :    0.024319
   6 C :   -0.032809
   7 H :    0.034013
   8 H :    0.031569
   9 C :   -0.043194
  10 H :    0.028928
  11 H :    0.019471
  12 C :   -0.061637
  13 H :    0.030826
  14 H :    0.020443
  15 H :    0.029470
  16 S :    0.423412
  17 C :   -0.212985
  18 C :   -0.075116
  19 C :   -0.049064
  20 C :   -0.201997
  21 H :    0.033292
  22 C :   -0.037037
  23 H :    0.032083
  24 H :    0.037843
  25 C :   -0.033708
  26 H :    0.020140
  27 H :    0.021107
  28 C :   -0.060849
  29 H :    0.020117
  30 H :    0.027086
  31 H :    0.022183
  32 H :    0.019246
  33 H :    0.032816

  Mayer bond orders larger than 0.100000
B(  0-S ,  1-C ) :   1.1494 B(  0-S ,  4-C ) :   1.1352 B(  1-C ,  2-C ) :   1.6589
B(  1-C , 32-H ) :   0.9643 B(  2-C ,  3-C ) :   1.1699 B(  2-C ,  6-C ) :   0.9812
B(  3-C ,  4-C ) :   1.6509 B(  3-C ,  5-H ) :   1.0139 B(  4-C , 20-C ) :   0.9768
B(  6-C ,  7-H ) :   0.9529 B(  6-C ,  8-H ) :   0.9319 B(  6-C ,  9-C ) :   1.0758
B(  9-C , 10-H ) :   0.9493 B(  9-C , 11-H ) :   0.9506 B(  9-C , 12-C ) :   1.0719
B( 12-C , 13-H ) :   0.9769 B( 12-C , 14-H ) :   0.9740 B( 12-C , 15-H ) :   0.9769
B( 16-S , 17-C ) :   1.1597 B( 16-S , 20-C ) :   1.1620 B( 17-C , 18-C ) :   1.6397
B( 17-C , 33-H ) :   0.9571 B( 18-C , 19-C ) :   1.2170 B( 18-C , 21-H ) :   0.9853
B( 19-C , 20-C ) :   1.5885 B( 19-C , 22-C ) :   1.0547 B( 22-C , 23-H ) :   0.9211
B( 22-C , 24-H ) :   0.9378 B( 22-C , 25-C ) :   1.0776 B( 25-C , 26-H ) :   0.9580
B( 25-C , 27-H ) :   0.9525 B( 25-C , 28-C ) :   1.0843 B( 28-C , 29-H ) :   0.9723
B( 28-C , 30-H ) :   0.9752 B( 28-C , 31-H ) :   0.9724

Dispersion correction           -0.013836706
FINAL SINGLE POINT ENERGY     -1339.854879889761

DIPOLE MOMENT
-------------
                                X             Y             Z
Electronic contribution:     22.16592     -13.99514      -1.17073
Nuclear contribution   :    -22.62802      14.40999       1.36659
                        -----------------------------------------
Total Dipole Moment    :     -0.46210       0.41486       0.19586
                        -----------------------------------------
Magnitude (a.u.)       :      0.65116
Magnitude (Debye)      :      1.65511

Rotational constants in cm-1:     0.017124     0.008317     0.006632
Rotational constants in MHz :   513.354328   249.344243   198.836478

                             ****ORCA TERMINATED NORMALLY****
TOTAL RUN TIME: 0 days 0 hours 0 minutes 21 seconds 181 msec
