                         Program Version 4.2.1 -  RELEASE  -
|  1> ! wB97X-D3 SP def2-SVP
|  2> %pal
|  3> nprocs 24
|  4> end
|  5>
|  6> * xyz 0 1
|  7> S 	 -110.337 	 52.4084 	 -87.2089
|  8> C 	 -108.781 	 52.614 	 -86.5045
|  9> C 	 -108.33 	 53.9209 	 -86.6711
| 10> C 	 -109.31 	 54.7315 	 -87.2908
| 11> C 	 -110.497 	 54.1038 	 -87.6373
| 12> H 	 -109.27 	 55.7882 	 -87.5071
| 13> C 	 -107.111 	 54.5093 	 -86.0186
| 14> H 	 -106.752 	 55.2355 	 -86.6695
| 15> H 	 -106.264 	 53.8647 	 -85.9963
| 16> C 	 -107.478 	 55.1501 	 -84.6683
| 17> H 	 -108.081 	 56.1016 	 -84.8595
| 18> H 	 -108.252 	 54.4748 	 -84.2225
| 19> C 	 -106.265 	 55.3931 	 -83.7213
| 20> H 	 -105.531 	 56.1222 	 -84.0988
| 21> H 	 -106.547 	 55.803 	 -82.7734
| 22> H 	 -105.666 	 54.5063 	 -83.4136
| 23> S 	 -113.21 	 54.5618 	 -87.5046
| 24> C 	 -114.13 	 55.3532 	 -88.7734
| 25> C 	 -113.246 	 55.7138 	 -89.771
| 26> C 	 -111.847 	 55.4028 	 -89.4929
| 27> C 	 -111.671 	 54.6938 	 -88.3258
| 28> H 	 -113.643 	 56.3665 	 -90.5992
| 29> C 	 -110.771 	 55.9063 	 -90.3972
| 30> H 	 -111.013 	 55.578 	 -91.488
| 31> H 	 -109.749 	 55.5614 	 -90.1497
| 32> C 	 -110.709 	 57.4441 	 -90.3946
| 33> H 	 -110.696 	 57.7367 	 -89.3749
| 34> H 	 -111.596 	 57.9732 	 -90.7236
| 35> C 	 -109.363 	 57.8718 	 -91.0685
| 36> H 	 -109.292 	 58.9422 	 -91.0812
| 37> H 	 -109.315 	 57.4935 	 -92.0364
| 38> H 	 -108.484 	 57.3721 	 -90.6423
| 39> H 	 -108.336 	 51.7695 	 -85.8753
| 40> H 	 -115.207 	 55.4208 	 -88.71
| 41> *
| 42>
| 43>                          ****END OF INPUT****

CARTESIAN COORDINATES (ANGSTROEM)
---------------------------------
  S    -110.337000   52.408400  -87.208900
  C    -108.781000   52.614000  -86.504500
  C    -108.330000   53.920900  -86.671100
  C    -109.310000   54.731500  -87.290800
  C    -110.497000   54.103800  -87.637300
  H    -109.270000   55.788200  -87.507100
  C    -107.111000   54.509300  -86.018600
  H    -106.752000   55.235500  -86.669500
  H    -106.264000   53.864700  -85.996300
  C    -107.478000   55.150100  -84.668300
  H    -108.081000   56.101600  -84.859500
  H    -108.252000   54.474800  -84.222500
  C    -106.265000   55.393100  -83.721300
  H    -105.531000   56.122200  -84.098800
  H    -106.547000   55.803000  -82.773400
  H    -105.666000   54.506300  -83.413600
  S    -113.210000   54.561800  -87.504600
  C    -114.130000   55.353200  -88.773400
  C    -113.246000   55.713800  -89.771000
  C    -111.847000   55.402800  -89.492900
  C    -111.671000   54.693800  -88.325800
  H    -113.643000   56.366500  -90.599200
  C    -110.771000   55.906300  -90.397200
  H    -111.013000   55.578000  -91.488000
  H    -109.749000   55.561400  -90.149700
  C    -110.709000   57.444100  -90.394600
  H    -110.696000   57.736700  -89.374900
  H    -111.596000   57.973200  -90.723600
  C    -109.363000   57.871800  -91.068500
  H    -109.292000   58.942200  -91.081200
  H    -109.315000   57.493500  -92.036400
  H    -108.484000   57.372100  -90.642300
  H    -108.336000   51.769500  -85.875300
  H    -115.207000   55.420800  -88.710000

 Total Charge           Charge          ....    0
 Multiplicity           Mult            ....    1
 Number of Electrons    NEL             ....  134
 Basis Dimension        Dim             ....  322

ORBITAL ENERGIES
----------------

  NO   OCC          E(Eh)            E(eV)
   0   2.0000     -88.965125     -2420.8641
   1   2.0000     -88.958937     -2420.6957
   2   2.0000     -10.331777      -281.1419
   3   2.0000     -10.329750      -281.0868
   4   2.0000     -10.322388      -280.8865
   5   2.0000     -10.320099      -280.8242
   6   2.0000     -10.307284      -280.4755
   7   2.0000     -10.302625      -280.3487
   8   2.0000     -10.302002      -280.3317
   9   2.0000     -10.298410      -280.2340
  10   2.0000     -10.297815      -280.2178
  11   2.0000     -10.293906      -280.1114
  12   2.0000     -10.284210      -279.8476
  13   2.0000     -10.282789      -279.8089
  14   2.0000     -10.282420      -279.7989
  15   2.0000     -10.274680      -279.5882
  16   2.0000      -8.080249      -219.8747
  17   2.0000      -8.074166      -219.7092
  18   2.0000      -6.038636      -164.3196
  19   2.0000      -6.034533      -164.2080
  20   2.0000      -6.032745      -164.1594
  21   2.0000      -6.031270      -164.1192
  22   2.0000      -6.028458      -164.0427
  23   2.0000      -6.024944      -163.9471
  24   2.0000      -1.006744       -27.3949
  25   2.0000      -0.986954       -26.8564
  26   2.0000      -0.911155       -24.7938
  27   2.0000      -0.909925       -24.7603
  28   2.0000      -0.867453       -23.6046
  29   2.0000      -0.847749       -23.0684
  30   2.0000      -0.843673       -22.9575
  31   2.0000      -0.815571       -22.1928
  32   2.0000      -0.781058       -21.2537
  33   2.0000      -0.771136       -20.9837
  34   2.0000      -0.709420       -19.3043
  35   2.0000      -0.704169       -19.1614
  36   2.0000      -0.694204       -18.8903
  37   2.0000      -0.661038       -17.9878
  38   2.0000      -0.645880       -17.5753
  39   2.0000      -0.621105       -16.9011
  40   2.0000      -0.601154       -16.3582
  41   2.0000      -0.569555       -15.4984
  42   2.0000      -0.558749       -15.2043
  43   2.0000      -0.547705       -14.9038
  44   2.0000      -0.530962       -14.4482
  45   2.0000      -0.520872       -14.1736
  46   2.0000      -0.515936       -14.0393
  47   2.0000      -0.511601       -13.9214
  48   2.0000      -0.508290       -13.8313
  49   2.0000      -0.503152       -13.6915
  50   2.0000      -0.492715       -13.4075
  51   2.0000      -0.477842       -13.0027
  52   2.0000      -0.469087       -12.7645
  53   2.0000      -0.467531       -12.7222
  54   2.0000      -0.458873       -12.4866
  55   2.0000      -0.448480       -12.2038
  56   2.0000      -0.445924       -12.1342
  57   2.0000      -0.440914       -11.9979
  58   2.0000      -0.434572       -11.8253
  59   2.0000      -0.425698       -11.5838
  60   2.0000      -0.419732       -11.4215
  61   2.0000      -0.411773       -11.2049
  62   2.0000      -0.409093       -11.1320
  63   2.0000      -0.344253        -9.3676
  64   2.0000      -0.331563        -9.0223
  65   2.0000      -0.324156        -8.8207
  66   2.0000      -0.301311        -8.1991
  67   0.0000       0.033143         0.9019
  68   0.0000       0.069772         1.8986
  69   0.0000       0.118218         3.2169
  70   0.0000       0.123894         3.3713
  71   0.0000       0.129385         3.5207

MULLIKEN ATOMIC CHARGES
-----------------------
   0 S :    0.119910
   1 C :   -0.155102
   2 C :   -0.093539
   3 C :    0.022776
   4 C :   -0.152394
   5 H :    0.008077
   6 C :    0.130618
   7 H :   -0.000439
   8 H :    0.009523
   9 C :   -0.099951
  10 H :    0.042097
  11 H :    0.041870
  12 C :   -0.047518
  13 H :    0.032195
  14 H :    0.024597
  15 H :    0.035652
  16 S :    0.081817
  17 C :   -0.100063
  18 C :   -0.047500
  19 C :   -0.018310
  20 C :   -0.156747
  21 H :    0.045570
  22 C :    0.018569
  23 H :    0.045968
  24 H :    0.028545
  25 C :   -0.079804
  26 H :    0.015911
  27 H :    0.028270
  28 C :   -0.005464
  29 H :    0.035809
  30 H :    0.008231
  31 H :    0.026038
  32 H :    0.086037
  33 H :    0.068751
Sum of atomic charges:   -0.0000000

LOEWDIN ATOMIC CHARGES
----------------------
   0 S :    0.422069
   1 C :   -0.213688
   2 C :   -0.067965
   3 C :   -0.062950
   4 C :   -0.199511
   5 H :    0.030047
   6 C :   -0.031179
   7 H :    0.022480
   8 H :    0.026099
   9 C :   -0.041950
  10 H :    0.033856
  11 H :    0.029348
  12 C :   -0.075816
  13 H :    0.027392
  14 H :    0.023388
  15 H :    0.029874
  16 S :    0.396478
  17 C :   -0.176717
  18 C :   -0.080279
  19 C :   -0.058166
  20 C :   -0.201383
  21 H :    0.040978
  22 C :   -0.036245
  23 H :    0.040541
  24 H :    0.030802
  25 C :   -0.037799
  26 H :    0.017113
  27 H :    0.022469
  28 C :   -0.057471
  29 H :    0.024445
  30 H :    0.016187
  31 H :    0.028589
  32 H :    0.046909
  33 H :    0.032055

  Mayer bond orders larger than 0.100000
B(  0-S ,  1-C ) :   1.1692 B(  0-S ,  4-C ) :   1.1660 B(  1-C ,  2-C ) :   1.5609
B(  1-C ,  4-C ) :   0.1052 B(  1-C , 32-H ) :   0.9605 B(  2-C ,  3-C ) :   1.2587
B(  2-C ,  6-C ) :   1.0453 B(  3-C ,  4-C ) :   1.5582 B(  3-C ,  5-H ) :   1.0007
B(  4-C , 20-C ) :   1.0120 B(  6-C ,  7-H ) :   0.9217 B(  6-C ,  8-H ) :   0.9418
B(  6-C ,  9-C ) :   1.0429 B(  9-C , 10-H ) :   0.9520 B(  9-C , 11-H ) :   0.9641
B(  9-C , 12-C ) :   1.0722 B( 12-C , 13-H ) :   0.9748 B( 12-C , 14-H ) :   0.9741
B( 12-C , 15-H ) :   0.9760 B( 16-S , 17-C ) :   1.1587 B( 16-S , 20-C ) :   1.1371
B( 17-C , 18-C ) :   1.6062 B( 17-C , 33-H ) :   0.9728 B( 18-C , 19-C ) :   1.2150
B( 18-C , 21-H ) :   0.9808 B( 19-C , 20-C ) :   1.6128 B( 19-C , 22-C ) :   1.0613
B( 22-C , 23-H ) :   0.9284 B( 22-C , 24-H ) :   0.9445 B( 22-C , 25-C ) :   1.0465
B( 25-C , 26-H ) :   0.9540 B( 25-C , 27-H ) :   0.9544 B( 25-C , 28-C ) :   1.0808
B( 28-C , 29-H ) :   0.9747 B( 28-C , 30-H ) :   0.9712 B( 28-C , 31-H ) :   0.9722

Dispersion correction           -0.014045918
FINAL SINGLE POINT ENERGY     -1339.878858494121

DIPOLE MOMENT
-------------
                                X             Y             Z
Electronic contribution:    -21.18740     -17.84237       0.46890
Nuclear contribution   :     21.54196      18.37153      -0.54087
                        -----------------------------------------
Total Dipole Moment    :      0.35456       0.52916      -0.07197
                        -----------------------------------------
Magnitude (a.u.)       :      0.64101
Magnitude (Debye)      :      1.62932

Rotational constants in cm-1:     0.017705     0.008239     0.006546
Rotational constants in MHz :   530.790472   246.992124   196.236838

                             ****ORCA TERMINATED NORMALLY****
TOTAL RUN TIME: 0 days 0 hours 0 minutes 21 seconds 170 msec
