                         Program Version 4.2.1 -  RELEASE  -
|  1> ! wB97X-D3 SP def2-SVP
|  2> %pal
|  3> nprocs 24
|  4> end
|  5>
|  6> * xyz 0 1
|  7> S 	 -133.838 	 58.6219 	 -62.5387
|  8> C 	 -133.959 	 59.9107 	 -63.7098
|  9> C 	 -133.171 	 59.6547 	 -64.8302
| 10> C 	 -132.462 	 58.3914 	 -64.7556
| 11> C 	 -132.732 	 57.6848 	 -63.5606
| 12> H 	 -131.79 	 57.9538 	 -65.4888
| 13> C 	 -133.06 	 60.5569 	 -66.1094
| 14> H 	 -133.954 	 61.1741 	 -66.2271
| 15> H 	 -133.096 	 59.8402 	 -66.9576
| 16> C 	 -131.872 	 61.468 	 -66.1147
| 17> H 	 -131.687 	 61.97 	 -65.1437
| 18> H 	 -131.064 	 60.7664 	 -66.2894
| 19> C 	 -132.034 	 62.6042 	 -67.1647
| 20> H 	 -133.004 	 63.0876 	 -67.0171
| 21> H 	 -131.205 	 63.2945 	 -67.2313
| 22> H 	 -131.97 	 62.2213 	 -68.1527
| 23> S 	 -133.447 	 55.4335 	 -62.0879
| 24> C 	 -132.306 	 54.1545 	 -61.9011
| 25> C 	 -131.128 	 54.3854 	 -62.5888
| 26> C 	 -131.089 	 55.7122 	 -63.1831
| 27> C 	 -132.322 	 56.3434 	 -63.1697
| 28> H 	 -130.345 	 53.7217 	 -62.5925
| 29> C 	 -129.742 	 56.3301 	 -63.7024
| 30> H 	 -129.512 	 57.2135 	 -63.1881
| 31> H 	 -129.833 	 56.7151 	 -64.7837
| 32> C 	 -128.396 	 55.5324 	 -63.4356
| 33> H 	 -128.51 	 54.4226 	 -63.2931
| 34> H 	 -128.041 	 55.7163 	 -62.4615
| 35> C 	 -127.299 	 55.7619 	 -64.4578
| 36> H 	 -127.067 	 56.8171 	 -64.5195
| 37> H 	 -127.44 	 55.338 	 -65.4363
| 38> H 	 -126.317 	 55.3266 	 -64.2467
| 39> H 	 -134.526 	 60.8048 	 -63.5248
| 40> H 	 -132.429 	 53.3957 	 -61.1847
| 41> *
| 42>
| 43>                          ****END OF INPUT****

CARTESIAN COORDINATES (ANGSTROEM)
---------------------------------
  S    -133.838000   58.621900  -62.538700
  C    -133.959000   59.910700  -63.709800
  C    -133.171000   59.654700  -64.830200
  C    -132.462000   58.391400  -64.755600
  C    -132.732000   57.684800  -63.560600
  H    -131.790000   57.953800  -65.488800
  C    -133.060000   60.556900  -66.109400
  H    -133.954000   61.174100  -66.227100
  H    -133.096000   59.840200  -66.957600
  C    -131.872000   61.468000  -66.114700
  H    -131.687000   61.970000  -65.143700
  H    -131.064000   60.766400  -66.289400
  C    -132.034000   62.604200  -67.164700
  H    -133.004000   63.087600  -67.017100
  H    -131.205000   63.294500  -67.231300
  H    -131.970000   62.221300  -68.152700
  S    -133.447000   55.433500  -62.087900
  C    -132.306000   54.154500  -61.901100
  C    -131.128000   54.385400  -62.588800
  C    -131.089000   55.712200  -63.183100
  C    -132.322000   56.343400  -63.169700
  H    -130.345000   53.721700  -62.592500
  C    -129.742000   56.330100  -63.702400
  H    -129.512000   57.213500  -63.188100
  H    -129.833000   56.715100  -64.783700
  C    -128.396000   55.532400  -63.435600
  H    -128.510000   54.422600  -63.293100
  H    -128.041000   55.716300  -62.461500
  C    -127.299000   55.761900  -64.457800
  H    -127.067000   56.817100  -64.519500
  H    -127.440000   55.338000  -65.436300
  H    -126.317000   55.326600  -64.246700
  H    -134.526000   60.804800  -63.524800
  H    -132.429000   53.395700  -61.184700

 Total Charge           Charge          ....    0
 Multiplicity           Mult            ....    1
 Number of Electrons    NEL             ....  134
 Basis Dimension        Dim             ....  322

ORBITAL ENERGIES
----------------

  NO   OCC          E(Eh)            E(eV)
   0   2.0000     -88.966310     -2420.8964
   1   2.0000     -88.964983     -2420.8603
   2   2.0000     -10.335147      -281.2336
   3   2.0000     -10.330738      -281.1137
   4   2.0000     -10.315976      -280.7120
   5   2.0000     -10.315538      -280.7001
   6   2.0000     -10.313690      -280.6498
   7   2.0000     -10.308214      -280.5008
   8   2.0000     -10.304461      -280.3986
   9   2.0000     -10.300891      -280.3015
  10   2.0000     -10.294836      -280.1367
  11   2.0000     -10.293115      -280.0899
  12   2.0000     -10.292082      -280.0618
  13   2.0000     -10.286429      -279.9080
  14   2.0000     -10.278175      -279.6834
  15   2.0000     -10.277199      -279.6568
  16   2.0000      -8.080631      -219.8851
  17   2.0000      -8.079537      -219.8554
  18   2.0000      -6.039172      -164.3342
  19   2.0000      -6.038081      -164.3045
  20   2.0000      -6.035099      -164.2234
  21   2.0000      -6.034101      -164.1962
  22   2.0000      -6.031484      -164.1250
  23   2.0000      -6.030235      -164.0910
  24   2.0000      -1.000387       -27.2219
  25   2.0000      -0.977750       -26.6059
  26   2.0000      -0.911110       -24.7926
  27   2.0000      -0.902843       -24.5676
  28   2.0000      -0.869392       -23.6574
  29   2.0000      -0.852160       -23.1885
  30   2.0000      -0.841283       -22.8925
  31   2.0000      -0.811603       -22.0848
  32   2.0000      -0.785036       -21.3619
  33   2.0000      -0.774483       -21.0748
  34   2.0000      -0.712767       -19.3954
  35   2.0000      -0.701305       -19.0835
  36   2.0000      -0.697331       -18.9753
  37   2.0000      -0.661235       -17.9931
  38   2.0000      -0.643045       -17.4981
  39   2.0000      -0.617987       -16.8163
  40   2.0000      -0.603906       -16.4331
  41   2.0000      -0.569227       -15.4894
  42   2.0000      -0.563104       -15.3228
  43   2.0000      -0.554295       -15.0831
  44   2.0000      -0.528403       -14.3786
  45   2.0000      -0.525002       -14.2860
  46   2.0000      -0.516127       -14.0445
  47   2.0000      -0.510508       -13.8916
  48   2.0000      -0.504652       -13.7323
  49   2.0000      -0.499607       -13.5950
  50   2.0000      -0.492597       -13.4042
  51   2.0000      -0.477401       -12.9907
  52   2.0000      -0.474020       -12.8987
  53   2.0000      -0.466974       -12.7070
  54   2.0000      -0.466199       -12.6859
  55   2.0000      -0.452967       -12.3259
  56   2.0000      -0.444220       -12.0878
  57   2.0000      -0.436084       -11.8665
  58   2.0000      -0.433179       -11.7874
  59   2.0000      -0.426157       -11.5963
  60   2.0000      -0.419641       -11.4190
  61   2.0000      -0.411299       -11.1920
  62   2.0000      -0.408566       -11.1176
  63   2.0000      -0.354204        -9.6384
  64   2.0000      -0.330835        -9.0025
  65   2.0000      -0.329559        -8.9678
  66   2.0000      -0.285055        -7.7567
  67   0.0000       0.019463         0.5296
  68   0.0000       0.074705         2.0328
  69   0.0000       0.103814         2.8249
  70   0.0000       0.121542         3.3073
  71   0.0000       0.133364         3.6290

MULLIKEN ATOMIC CHARGES
-----------------------
   0 S :    0.101555
   1 C :   -0.119527
   2 C :   -0.082822
   3 C :    0.014764
   4 C :   -0.144782
   5 H :    0.016478
   6 C :    0.043031
   7 H :    0.010791
   8 H :    0.037166
   9 C :   -0.062910
  10 H :    0.040603
  11 H :    0.021333
  12 C :   -0.029376
  13 H :    0.038250
  14 H :    0.029111
  15 H :    0.014082
  16 S :    0.089055
  17 C :   -0.063541
  18 C :    0.005838
  19 C :   -0.046960
  20 C :   -0.132571
  21 H :   -0.018946
  22 C :    0.060100
  23 H :    0.032345
  24 H :    0.049219
  25 C :   -0.077564
  26 H :    0.027467
  27 H :    0.019706
  28 C :   -0.048913
  29 H :    0.027364
  30 H :    0.032542
  31 H :    0.020765
  32 H :    0.049025
  33 H :    0.047323
Sum of atomic charges:   -0.0000000

LOEWDIN ATOMIC CHARGES
----------------------
   0 S :    0.396988
   1 C :   -0.199001
   2 C :   -0.057499
   3 C :   -0.066138
   4 C :   -0.183046
   5 H :    0.030788
   6 C :   -0.031155
   7 H :    0.022992
   8 H :    0.034116
   9 C :   -0.043372
  10 H :    0.029391
  11 H :    0.022797
  12 C :   -0.064855
  13 H :    0.027713
  14 H :    0.026197
  15 H :    0.020575
  16 S :    0.390087
  17 C :   -0.175171
  18 C :   -0.061681
  19 C :   -0.044659
  20 C :   -0.187262
  21 H :    0.013323
  22 C :   -0.030603
  23 H :    0.030732
  24 H :    0.039394
  25 C :   -0.043484
  26 H :    0.025747
  27 H :    0.019944
  28 C :   -0.069259
  29 H :    0.023555
  30 H :    0.024670
  31 H :    0.029321
  32 H :    0.027339
  33 H :    0.021515

  Mayer bond orders larger than 0.100000
B(  0-S ,  1-C ) :   1.1365 B(  0-S ,  4-C ) :   1.1502 B(  1-C ,  2-C ) :   1.6098
B(  1-C , 32-H ) :   0.9730 B(  2-C ,  3-C ) :   1.2433 B(  2-C ,  6-C ) :   1.0107
B(  3-C ,  4-C ) :   1.5567 B(  3-C ,  5-H ) :   0.9899 B(  4-C , 20-C ) :   1.0852
B(  6-C ,  7-H ) :   0.9490 B(  6-C ,  8-H ) :   0.9457 B(  6-C ,  9-C ) :   1.0505
B(  9-C , 10-H ) :   0.9607 B(  9-C , 11-H ) :   0.9549 B(  9-C , 12-C ) :   1.0771
B( 12-C , 13-H ) :   0.9752 B( 12-C , 14-H ) :   0.9745 B( 12-C , 15-H ) :   0.9725
B( 16-S , 17-C ) :   1.1664 B( 16-S , 20-C ) :   1.1110 B( 17-C , 18-C ) :   1.6004
B( 17-C , 33-H ) :   0.9699 B( 18-C , 19-C ) :   1.2444 B( 18-C , 21-H ) :   0.9987
B( 19-C , 20-C ) :   1.6126 B( 19-C , 22-C ) :   1.0173 B( 22-C , 23-H ) :   0.9326
B( 22-C , 24-H ) :   0.9482 B( 22-C , 25-C ) :   1.0324 B( 25-C , 26-H ) :   0.9571
B( 25-C , 27-H ) :   0.9570 B( 25-C , 28-C ) :   1.0891 B( 28-C , 29-H ) :   0.9745
B( 28-C , 30-H ) :   0.9762 B( 28-C , 31-H ) :   0.9685

Dispersion correction           -0.013074135
FINAL SINGLE POINT ENERGY     -1339.862578488648

DIPOLE MOMENT
-------------
                                X             Y             Z
Electronic contribution:    -22.38886     -11.94392      18.63573
Nuclear contribution   :     23.05746      12.10937     -18.89923
                        -----------------------------------------
Total Dipole Moment    :      0.66860       0.16545      -0.26350
                        -----------------------------------------
Magnitude (a.u.)       :      0.73745
Magnitude (Debye)      :      1.87446

Rotational constants in cm-1:     0.016946     0.008053     0.005688
Rotational constants in MHz :   508.042392   241.430611   170.514104

                             ****ORCA TERMINATED NORMALLY****
TOTAL RUN TIME: 0 days 0 hours 0 minutes 20 seconds 529 msec
