                         Program Version 4.2.1 -  RELEASE  -
|  1> ! wB97X-D3 SP def2-SVP
|  2> %pal
|  3> nprocs 24
|  4> end
|  5>
|  6> * xyz 0 1
|  7> S 	 -101.835 	 37.2165 	 -89.3132
|  8> C 	 -101.057 	 35.6307 	 -89.4771
|  9> C 	 -99.8454 	 35.594 	 -88.8057
| 10> C 	 -99.6719 	 36.7181 	 -87.956
| 11> C 	 -100.652 	 37.7536 	 -88.1329
| 12> H 	 -98.8081 	 36.8832 	 -87.3495
| 13> C 	 -98.9259 	 34.3399 	 -88.7894
| 14> H 	 -99.4518 	 33.3837 	 -88.5745
| 15> H 	 -98.2508 	 34.424 	 -87.9114
| 16> C 	 -98.1674 	 34.2513 	 -90.0705
| 17> H 	 -98.9829 	 34.0262 	 -90.8788
| 18> H 	 -97.746 	 35.2565 	 -90.2423
| 19> C 	 -97.0157 	 33.2361 	 -90.0879
| 20> H 	 -96.5795 	 33.2544 	 -89.1365
| 21> H 	 -97.2988 	 32.2364 	 -90.2991
| 22> H 	 -96.2139 	 33.4488 	 -90.7543
| 23> S 	 -99.2127 	 40.0085 	 -87.4781
| 24> C 	 -100.014 	 41.3478 	 -86.6252
| 25> C 	 -101.324 	 40.9717 	 -86.3083
| 26> C 	 -101.703 	 39.681 	 -86.847
| 27> C 	 -100.684 	 39.025 	 -87.5031
| 28> H 	 -101.875 	 41.7465 	 -85.8592
| 29> C 	 -103.159 	 39.277 	 -86.4853
| 30> H 	 -103.34 	 39.0354 	 -85.4202
| 31> H 	 -103.194 	 38.3424 	 -86.9881
| 32> C 	 -104.359 	 40.1135 	 -86.9885
| 33> H 	 -104.347 	 40.9794 	 -86.2871
| 34> H 	 -105.158 	 39.4892 	 -86.8362
| 35> C 	 -104.521 	 40.5013 	 -88.489
| 36> H 	 -105.281 	 41.2352 	 -88.6979
| 37> H 	 -104.707 	 39.6043 	 -89.0893
| 38> H 	 -103.522 	 40.8644 	 -88.7449
| 39> H 	 -101.382 	 34.8366 	 -90.138
| 40> H 	 -99.5439 	 42.3229 	 -86.353
| 41> *
| 42>
| 43>                          ****END OF INPUT****

CARTESIAN COORDINATES (ANGSTROEM)
---------------------------------
  S    -101.835000   37.216500  -89.313200
  C    -101.057000   35.630700  -89.477100
  C    -99.845400   35.594000  -88.805700
  C    -99.671900   36.718100  -87.956000
  C    -100.652000   37.753600  -88.132900
  H    -98.808100   36.883200  -87.349500
  C    -98.925900   34.339900  -88.789400
  H    -99.451800   33.383700  -88.574500
  H    -98.250800   34.424000  -87.911400
  C    -98.167400   34.251300  -90.070500
  H    -98.982900   34.026200  -90.878800
  H    -97.746000   35.256500  -90.242300
  C    -97.015700   33.236100  -90.087900
  H    -96.579500   33.254400  -89.136500
  H    -97.298800   32.236400  -90.299100
  H    -96.213900   33.448800  -90.754300
  S    -99.212700   40.008500  -87.478100
  C    -100.014000   41.347800  -86.625200
  C    -101.324000   40.971700  -86.308300
  C    -101.703000   39.681000  -86.847000
  C    -100.684000   39.025000  -87.503100
  H    -101.875000   41.746500  -85.859200
  C    -103.159000   39.277000  -86.485300
  H    -103.340000   39.035400  -85.420200
  H    -103.194000   38.342400  -86.988100
  C    -104.359000   40.113500  -86.988500
  H    -104.347000   40.979400  -86.287100
  H    -105.158000   39.489200  -86.836200
  C    -104.521000   40.501300  -88.489000
  H    -105.281000   41.235200  -88.697900
  H    -104.707000   39.604300  -89.089300
  H    -103.522000   40.864400  -88.744900
  H    -101.382000   34.836600  -90.138000
  H    -99.543900   42.322900  -86.353000

 Total Charge           Charge          ....    0
 Multiplicity           Mult            ....    1
 Number of Electrons    NEL             ....  134
 Basis Dimension        Dim             ....  322

ORBITAL ENERGIES
----------------

  NO   OCC          E(Eh)            E(eV)
   0   2.0000     -88.973086     -2421.0808
   1   2.0000     -88.966538     -2420.9026
   2   2.0000     -10.334844      -281.2254
   3   2.0000     -10.330840      -281.1165
   4   2.0000     -10.325718      -280.9771
   5   2.0000     -10.316909      -280.7374
   6   2.0000     -10.309055      -280.5237
   7   2.0000     -10.304269      -280.3934
   8   2.0000     -10.298409      -280.2340
   9   2.0000     -10.296597      -280.1847
  10   2.0000     -10.293069      -280.0886
  11   2.0000     -10.292207      -280.0652
  12   2.0000     -10.289706      -279.9971
  13   2.0000     -10.281938      -279.7858
  14   2.0000     -10.275024      -279.5976
  15   2.0000     -10.268177      -279.4113
  16   2.0000      -8.086513      -220.0452
  17   2.0000      -8.080503      -219.8817
  18   2.0000      -6.045071      -164.4947
  19   2.0000      -6.041057      -164.3855
  20   2.0000      -6.039189      -164.3347
  21   2.0000      -6.037444      -164.2872
  22   2.0000      -6.035067      -164.2225
  23   2.0000      -6.031149      -164.1159
  24   2.0000      -1.002929       -27.2911
  25   2.0000      -0.978348       -26.6222
  26   2.0000      -0.914350       -24.8807
  27   2.0000      -0.902045       -24.5459
  28   2.0000      -0.872329       -23.7373
  29   2.0000      -0.848898       -23.0997
  30   2.0000      -0.841717       -22.9043
  31   2.0000      -0.810933       -22.0666
  32   2.0000      -0.787845       -21.4383
  33   2.0000      -0.775963       -21.1150
  34   2.0000      -0.711878       -19.3712
  35   2.0000      -0.695189       -18.9170
  36   2.0000      -0.689823       -18.7710
  37   2.0000      -0.662814       -18.0361
  38   2.0000      -0.637949       -17.3595
  39   2.0000      -0.615862       -16.7584
  40   2.0000      -0.590394       -16.0654
  41   2.0000      -0.571021       -15.5383
  42   2.0000      -0.563103       -15.3228
  43   2.0000      -0.552263       -15.0278
  44   2.0000      -0.542497       -14.7621
  45   2.0000      -0.523684       -14.2502
  46   2.0000      -0.520349       -14.1594
  47   2.0000      -0.515120       -14.0171
  48   2.0000      -0.507336       -13.8053
  49   2.0000      -0.501639       -13.6503
  50   2.0000      -0.495752       -13.4901
  51   2.0000      -0.479735       -13.0543
  52   2.0000      -0.470921       -12.8144
  53   2.0000      -0.465988       -12.6802
  54   2.0000      -0.456493       -12.4218
  55   2.0000      -0.446446       -12.1484
  56   2.0000      -0.442397       -12.0382
  57   2.0000      -0.431233       -11.7344
  58   2.0000      -0.431119       -11.7313
  59   2.0000      -0.423630       -11.5275
  60   2.0000      -0.414575       -11.2812
  61   2.0000      -0.407538       -11.0897
  62   2.0000      -0.403330       -10.9752
  63   2.0000      -0.347779        -9.4636
  64   2.0000      -0.335924        -9.1410
  65   2.0000      -0.330838        -9.0025
  66   2.0000      -0.290689        -7.9100
  67   0.0000       0.021519         0.5856
  68   0.0000       0.068007         1.8506
  69   0.0000       0.106072         2.8864
  70   0.0000       0.110070         2.9952
  71   0.0000       0.128522         3.4973

MULLIKEN ATOMIC CHARGES
-----------------------
   0 S :    0.126176
   1 C :   -0.123758
   2 C :   -0.079272
   3 C :    0.033182
   4 C :   -0.173184
   5 H :    0.008039
   6 C :    0.038369
   7 H :    0.040639
   8 H :    0.018267
   9 C :   -0.120167
  10 H :    0.039598
  11 H :    0.038128
  12 C :    0.024692
  13 H :    0.005714
  14 H :    0.021332
  15 H :    0.025935
  16 S :    0.101731
  17 C :   -0.123490
  18 C :   -0.017174
  19 C :   -0.047570
  20 C :   -0.138467
  21 H :    0.009991
  22 C :    0.076607
  23 H :    0.051607
  24 H :   -0.011208
  25 C :   -0.069141
  26 H :    0.032755
  27 H :    0.017222
  28 C :   -0.046735
  29 H :    0.042408
  30 H :    0.032972
  31 H :    0.034533
  32 H :    0.052172
  33 H :    0.078098
Sum of atomic charges:   -0.0000000

LOEWDIN ATOMIC CHARGES
----------------------
   0 S :    0.414247
   1 C :   -0.191380
   2 C :   -0.059801
   3 C :   -0.060613
   4 C :   -0.193760
   5 H :    0.024991
   6 C :   -0.035631
   7 H :    0.032434
   8 H :    0.026768
   9 C :   -0.047708
  10 H :    0.031608
  11 H :    0.028898
  12 C :   -0.060178
  13 H :    0.019420
  14 H :    0.021787
  15 H :    0.026218
  16 S :    0.389089
  17 C :   -0.179752
  18 C :   -0.067777
  19 C :   -0.054583
  20 C :   -0.198979
  21 H :    0.024689
  22 C :   -0.032732
  23 H :    0.042276
  24 H :    0.011415
  25 C :   -0.036244
  26 H :    0.023062
  27 H :    0.015594
  28 C :   -0.062836
  29 H :    0.026973
  30 H :    0.026937
  31 H :    0.026039
  32 H :    0.028501
  33 H :    0.041027

  Mayer bond orders larger than 0.100000
B(  0-S ,  1-C ) :   1.1450 B(  0-S ,  4-C ) :   1.1553 B(  1-C ,  2-C ) :   1.5814
B(  1-C ,  4-C ) :   0.1079 B(  1-C , 32-H ) :   0.9662 B(  2-C ,  3-C ) :   1.2859
B(  2-C ,  6-C ) :   1.0119 B(  3-C ,  4-C ) :   1.5162 B(  3-C ,  5-H ) :   0.9904
B(  4-C , 20-C ) :   1.0958 B(  6-C ,  7-H ) :   0.9497 B(  6-C ,  8-H ) :   0.9427
B(  6-C ,  9-C ) :   1.0548 B(  9-C , 10-H ) :   0.9564 B(  9-C , 11-H ) :   0.9573
B(  9-C , 12-C ) :   1.0747 B( 12-C , 13-H ) :   0.9692 B( 12-C , 14-H ) :   0.9727
B( 12-C , 15-H ) :   0.9752 B( 16-S , 17-C ) :   1.1450 B( 16-S , 20-C ) :   1.1207
B( 17-C , 18-C ) :   1.6289 B( 17-C , 33-H ) :   0.9609 B( 18-C , 19-C ) :   1.2002
B( 18-C , 21-H ) :   0.9980 B( 19-C , 20-C ) :   1.5948 B( 19-C , 22-C ) :   1.0255
B( 22-C , 23-H ) :   0.9430 B( 22-C , 24-H ) :   0.9183 B( 22-C , 25-C ) :   1.0712
B( 25-C , 26-H ) :   0.9583 B( 25-C , 27-H ) :   0.9551 B( 25-C , 28-C ) :   1.0696
B( 28-C , 29-H ) :   0.9749 B( 28-C , 30-H ) :   0.9749 B( 28-C , 31-H ) :   0.9778

Dispersion correction           -0.014199881
FINAL SINGLE POINT ENERGY     -1339.859261249192

DIPOLE MOMENT
-------------
                                X             Y             Z
Electronic contribution:      2.39749      10.62256       2.81273
Nuclear contribution   :     -2.40289     -10.79603      -2.65525
                        -----------------------------------------
Total Dipole Moment    :     -0.00540      -0.17347       0.15747
                        -----------------------------------------
Magnitude (a.u.)       :      0.23435
Magnitude (Debye)      :      0.59567

Rotational constants in cm-1:     0.024979     0.007131     0.005912
Rotational constants in MHz :   748.849937   213.781233   177.231547

                             ****ORCA TERMINATED NORMALLY****
TOTAL RUN TIME: 0 days 0 hours 0 minutes 19 seconds 911 msec
