                         Program Version 4.2.1 -  RELEASE  -
|  1> ! wB97X-D3 SP def2-SVP
|  2> %pal
|  3> nprocs 24
|  4> end
|  5>
|  6> * xyz 0 1
|  7> S 	 -65.2807 	 -46.3062 	 -81.7577
|  8> C 	 -64.9721 	 -47.4735 	 -83.0674
|  9> C 	 -65.5774 	 -48.6709 	 -82.6779
| 10> C 	 -66.5759 	 -48.4858 	 -81.6806
| 11> C 	 -66.6368 	 -47.1932 	 -81.1257
| 12> H 	 -67.1613 	 -49.3033 	 -81.3616
| 13> C 	 -65.3727 	 -49.9018 	 -83.4831
| 14> H 	 -64.9634 	 -49.5574 	 -84.4234
| 15> H 	 -66.292 	 -50.3865 	 -83.8132
| 16> C 	 -64.4147 	 -50.9155 	 -82.918
| 17> H 	 -63.5383 	 -50.3011 	 -82.6671
| 18> H 	 -64.8216 	 -51.3457 	 -82.0105
| 19> C 	 -64.0169 	 -52.0513 	 -83.888
| 20> H 	 -63.5633 	 -51.6478 	 -84.8141
| 21> H 	 -63.09 	 -52.5797 	 -83.5236
| 22> H 	 -64.853 	 -52.7104 	 -84.1623
| 23> S 	 -66.8394 	 -47.1022 	 -78.4178
| 24> C 	 -68.2132 	 -46.2004 	 -77.6571
| 25> C 	 -69.0516 	 -45.7403 	 -78.6622
| 26> C 	 -68.586 	 -46.0553 	 -79.9838
| 27> C 	 -67.3951 	 -46.7541 	 -80.0086
| 28> H 	 -69.9564 	 -45.208 	 -78.447
| 29> C 	 -69.313 	 -45.6431 	 -81.2188
| 30> H 	 -68.6977 	 -45.0133 	 -81.9836
| 31> H 	 -70.0121 	 -44.9461 	 -80.8206
| 32> C 	 -69.9032 	 -46.8128 	 -82.0693
| 33> H 	 -70.8969 	 -47.0266 	 -81.6813
| 34> H 	 -69.2869 	 -47.6772 	 -81.8613
| 35> C 	 -69.7933 	 -46.5769 	 -83.5472
| 36> H 	 -70.0404 	 -45.5991 	 -83.9209
| 37> H 	 -70.3789 	 -47.3504 	 -84.0265
| 38> H 	 -68.7058 	 -46.725 	 -83.836
| 39> H 	 -64.2482 	 -47.4108 	 -83.8522
| 40> H 	 -68.3895 	 -46.0914 	 -76.5836
| 41> *
| 42>
| 43>                          ****END OF INPUT****

CARTESIAN COORDINATES (ANGSTROEM)
---------------------------------
  S    -65.280700  -46.306200  -81.757700
  C    -64.972100  -47.473500  -83.067400
  C    -65.577400  -48.670900  -82.677900
  C    -66.575900  -48.485800  -81.680600
  C    -66.636800  -47.193200  -81.125700
  H    -67.161300  -49.303300  -81.361600
  C    -65.372700  -49.901800  -83.483100
  H    -64.963400  -49.557400  -84.423400
  H    -66.292000  -50.386500  -83.813200
  C    -64.414700  -50.915500  -82.918000
  H    -63.538300  -50.301100  -82.667100
  H    -64.821600  -51.345700  -82.010500
  C    -64.016900  -52.051300  -83.888000
  H    -63.563300  -51.647800  -84.814100
  H    -63.090000  -52.579700  -83.523600
  H    -64.853000  -52.710400  -84.162300
  S    -66.839400  -47.102200  -78.417800
  C    -68.213200  -46.200400  -77.657100
  C    -69.051600  -45.740300  -78.662200
  C    -68.586000  -46.055300  -79.983800
  C    -67.395100  -46.754100  -80.008600
  H    -69.956400  -45.208000  -78.447000
  C    -69.313000  -45.643100  -81.218800
  H    -68.697700  -45.013300  -81.983600
  H    -70.012100  -44.946100  -80.820600
  C    -69.903200  -46.812800  -82.069300
  H    -70.896900  -47.026600  -81.681300
  H    -69.286900  -47.677200  -81.861300
  C    -69.793300  -46.576900  -83.547200
  H    -70.040400  -45.599100  -83.920900
  H    -70.378900  -47.350400  -84.026500
  H    -68.705800  -46.725000  -83.836000
  H    -64.248200  -47.410800  -83.852200
  H    -68.389500  -46.091400  -76.583600

 Total Charge           Charge          ....    0
 Multiplicity           Mult            ....    1
 Number of Electrons    NEL             ....  134
 Basis Dimension        Dim             ....  322

ORBITAL ENERGIES
----------------

  NO   OCC          E(Eh)            E(eV)
   0   2.0000     -88.966536     -2420.9025
   1   2.0000     -88.965670     -2420.8790
   2   2.0000     -10.330823      -281.1160
   3   2.0000     -10.325381      -280.9679
   4   2.0000     -10.319395      -280.8050
   5   2.0000     -10.319215      -280.8001
   6   2.0000     -10.301208      -280.3101
   7   2.0000     -10.299082      -280.2523
   8   2.0000     -10.296915      -280.1933
   9   2.0000     -10.295493      -280.1546
  10   2.0000     -10.287597      -279.9398
  11   2.0000     -10.287173      -279.9282
  12   2.0000     -10.286312      -279.9048
  13   2.0000     -10.285574      -279.8847
  14   2.0000     -10.278158      -279.6829
  15   2.0000     -10.272742      -279.5355
  16   2.0000      -8.080794      -219.8896
  17   2.0000      -8.079935      -219.8662
  18   2.0000      -6.039287      -164.3374
  19   2.0000      -6.038539      -164.3170
  20   2.0000      -6.035396      -164.2315
  21   2.0000      -6.034374      -164.2037
  22   2.0000      -6.031520      -164.1260
  23   2.0000      -6.030744      -164.1049
  24   2.0000      -1.008452       -27.4414
  25   2.0000      -0.982968       -26.7479
  26   2.0000      -0.918102       -24.9828
  27   2.0000      -0.905000       -24.6263
  28   2.0000      -0.873730       -23.7754
  29   2.0000      -0.849758       -23.1231
  30   2.0000      -0.844654       -22.9842
  31   2.0000      -0.817285       -22.2394
  32   2.0000      -0.781280       -21.2597
  33   2.0000      -0.765166       -20.8212
  34   2.0000      -0.712806       -19.3964
  35   2.0000      -0.698217       -18.9995
  36   2.0000      -0.689663       -18.7667
  37   2.0000      -0.668164       -18.1817
  38   2.0000      -0.643401       -17.5078
  39   2.0000      -0.622029       -16.9263
  40   2.0000      -0.592271       -16.1165
  41   2.0000      -0.579356       -15.7651
  42   2.0000      -0.564363       -15.3571
  43   2.0000      -0.558503       -15.1976
  44   2.0000      -0.525197       -14.2913
  45   2.0000      -0.523878       -14.2555
  46   2.0000      -0.518593       -14.1116
  47   2.0000      -0.512671       -13.9505
  48   2.0000      -0.508690       -13.8422
  49   2.0000      -0.505255       -13.7487
  50   2.0000      -0.498496       -13.5648
  51   2.0000      -0.479953       -13.0602
  52   2.0000      -0.470107       -12.7923
  53   2.0000      -0.463302       -12.6071
  54   2.0000      -0.455490       -12.3945
  55   2.0000      -0.445750       -12.1295
  56   2.0000      -0.433667       -11.8007
  57   2.0000      -0.431209       -11.7338
  58   2.0000      -0.428663       -11.6645
  59   2.0000      -0.425358       -11.5746
  60   2.0000      -0.423541       -11.5251
  61   2.0000      -0.415005       -11.2929
  62   2.0000      -0.407080       -11.0772
  63   2.0000      -0.337617        -9.1870
  64   2.0000      -0.326638        -8.8883
  65   2.0000      -0.317083        -8.6283
  66   2.0000      -0.311167        -8.4673
  67   0.0000       0.033120         0.9012
  68   0.0000       0.045960         1.2506
  69   0.0000       0.106987         2.9113
  70   0.0000       0.118874         3.2347
  71   0.0000       0.127125         3.4592

MULLIKEN ATOMIC CHARGES
-----------------------
   0 S :    0.117199
   1 C :   -0.108734
   2 C :   -0.094738
   3 C :    0.065714
   4 C :   -0.166369
   5 H :   -0.000325
   6 C :    0.059456
   7 H :   -0.003084
   8 H :    0.020028
   9 C :   -0.062890
  10 H :    0.024744
  11 H :    0.029930
  12 C :   -0.062434
  13 H :    0.020841
  14 H :    0.042962
  15 H :    0.047879
  16 S :    0.115139
  17 C :   -0.106520
  18 C :   -0.016235
  19 C :   -0.038367
  20 C :   -0.172130
  21 H :    0.015903
  22 C :    0.051910
  23 H :    0.043334
  24 H :    0.002804
  25 C :   -0.036022
  26 H :    0.024709
  27 H :    0.023038
  28 C :   -0.059159
  29 H :    0.031665
  30 H :    0.030781
  31 H :    0.043810
  32 H :    0.048263
  33 H :    0.066896
Sum of atomic charges:   -0.0000000

LOEWDIN ATOMIC CHARGES
----------------------
   0 S :    0.409998
   1 C :   -0.183112
   2 C :   -0.061660
   3 C :   -0.052441
   4 C :   -0.201031
   5 H :    0.023503
   6 C :   -0.038440
   7 H :    0.026876
   8 H :    0.026327
   9 C :   -0.040524
  10 H :    0.027122
  11 H :    0.021959
  12 C :   -0.075016
  13 H :    0.024969
  14 H :    0.036250
  15 H :    0.028095
  16 S :    0.402283
  17 C :   -0.170049
  18 C :   -0.066802
  19 C :   -0.055409
  20 C :   -0.220435
  21 H :    0.030230
  22 C :   -0.038375
  23 H :    0.042142
  24 H :    0.021799
  25 C :   -0.038872
  26 H :    0.020658
  27 H :    0.024251
  28 C :   -0.066286
  29 H :    0.018456
  30 H :    0.026353
  31 H :    0.036539
  32 H :    0.025805
  33 H :    0.034837

  Mayer bond orders larger than 0.100000
B(  0-S ,  1-C ) :   1.1465 B(  0-S ,  4-C ) :   1.1606 B(  1-C ,  2-C ) :   1.5662
B(  1-C ,  4-C ) :   0.1145 B(  1-C , 32-H ) :   0.9713 B(  2-C ,  3-C ) :   1.2686
B(  2-C ,  6-C ) :   1.0429 B(  3-C ,  4-C ) :   1.5243 B(  3-C ,  5-H ) :   1.0018
B(  4-C , 20-C ) :   1.0519 B(  6-C ,  7-H ) :   0.9357 B(  6-C ,  8-H ) :   0.9416
B(  6-C ,  9-C ) :   1.0552 B(  9-C , 10-H ) :   0.9520 B(  9-C , 11-H ) :   0.9565
B(  9-C , 12-C ) :   1.0859 B( 12-C , 13-H ) :   0.9708 B( 12-C , 14-H ) :   0.9733
B( 12-C , 15-H ) :   0.9743 B( 16-S , 17-C ) :   1.1473 B( 16-S , 20-C ) :   1.1457
B( 17-C , 18-C ) :   1.6007 B( 17-C , 20-C ) :   0.1004 B( 17-C , 33-H ) :   0.9672
B( 18-C , 19-C ) :   1.2582 B( 18-C , 21-H ) :   0.9869 B( 19-C , 20-C ) :   1.5837
B( 19-C , 22-C ) :   1.0530 B( 22-C , 23-H ) :   0.9403 B( 22-C , 24-H ) :   0.9224
B( 22-C , 25-C ) :   1.0302 B( 25-C , 26-H ) :   0.9531 B( 25-C , 27-H ) :   0.9640
B( 25-C , 28-C ) :   1.0808 B( 28-C , 29-H ) :   0.9780 B( 28-C , 30-H ) :   0.9703
B( 28-C , 31-H ) :   0.9732

Dispersion correction           -0.014893857
FINAL SINGLE POINT ENERGY     -1339.868071713311

DIPOLE MOMENT
-------------
                                X             Y             Z
Electronic contribution:      4.93551      14.16734      19.72415
Nuclear contribution   :     -5.15471     -14.49270     -19.98367
                        -----------------------------------------
Total Dipole Moment    :     -0.21920      -0.32536      -0.25952
                        -----------------------------------------
Magnitude (a.u.)       :      0.47038
Magnitude (Debye)      :      1.19561

Rotational constants in cm-1:     0.020582     0.008117     0.006995
Rotational constants in MHz :   617.028892   243.347690   209.717743

                             ****ORCA TERMINATED NORMALLY****
TOTAL RUN TIME: 0 days 0 hours 0 minutes 20 seconds 807 msec
