                         Program Version 4.2.1 -  RELEASE  -
|  1> ! wB97X-D3 SP def2-SVP
|  2> %pal
|  3> nprocs 24
|  4> end
|  5>
|  6> * xyz 0 1
|  7> S 	 33.7817 	 -30.8353 	 -132.494
|  8> C 	 34.575 	 -29.2772 	 -132.902
|  9> C 	 35.9236 	 -29.4815 	 -132.719
| 10> C 	 36.2942 	 -30.7593 	 -132.223
| 11> C 	 35.2639 	 -31.6232 	 -131.986
| 12> H 	 37.2884 	 -30.996 	 -131.893
| 13> C 	 37.0494 	 -28.5257 	 -132.872
| 14> H 	 37.8967 	 -28.8043 	 -132.398
| 15> H 	 36.7892 	 -27.6005 	 -132.407
| 16> C 	 37.3328 	 -28.1246 	 -134.319
| 17> H 	 37.9335 	 -28.9222 	 -134.69
| 18> H 	 36.3747 	 -28.0425 	 -134.904
| 19> C 	 38.1825 	 -26.8205 	 -134.341
| 20> H 	 37.6592 	 -25.945 	 -134.015
| 21> H 	 39.027 	 -27.0546 	 -133.627
| 22> H 	 38.5959 	 -26.6414 	 -135.314
| 23> S 	 34.3516 	 -34.3262 	 -132.304
| 24> C 	 35.1767 	 -35.6375 	 -131.476
| 25> C 	 36.0056 	 -35.1426 	 -130.57
| 26> C 	 36.2041 	 -33.704 	 -130.677
| 27> C 	 35.3671 	 -33.0233 	 -131.552
| 28> H 	 36.6886 	 -35.7569 	 -129.957
| 29> C 	 37.1309 	 -33.0228 	 -129.732
| 30> H 	 36.9308 	 -33.2599 	 -128.699
| 31> H 	 36.9519 	 -31.9469 	 -129.894
| 32> C 	 38.6395 	 -33.318 	 -130.034
| 33> H 	 38.8256 	 -33.1119 	 -131.057
| 34> H 	 38.9696 	 -34.3055 	 -130.026
| 35> C 	 39.6043 	 -32.5172 	 -129.077
| 36> H 	 40.6352 	 -32.594 	 -129.35
| 37> H 	 39.4729 	 -32.9301 	 -128.043
| 38> H 	 39.468 	 -31.4614 	 -129.071
| 39> H 	 34.1121 	 -28.3306 	 -133.084
| 40> H 	 34.8618 	 -36.6118 	 -131.665
| 41> *
| 42>
| 43>                          ****END OF INPUT****

CARTESIAN COORDINATES (ANGSTROEM)
---------------------------------
  S     33.781700  -30.835300  -132.494000
  C     34.575000  -29.277200  -132.902000
  C     35.923600  -29.481500  -132.719000
  C     36.294200  -30.759300  -132.223000
  C     35.263900  -31.623200  -131.986000
  H     37.288400  -30.996000  -131.893000
  C     37.049400  -28.525700  -132.872000
  H     37.896700  -28.804300  -132.398000
  H     36.789200  -27.600500  -132.407000
  C     37.332800  -28.124600  -134.319000
  H     37.933500  -28.922200  -134.690000
  H     36.374700  -28.042500  -134.904000
  C     38.182500  -26.820500  -134.341000
  H     37.659200  -25.945000  -134.015000
  H     39.027000  -27.054600  -133.627000
  H     38.595900  -26.641400  -135.314000
  S     34.351600  -34.326200  -132.304000
  C     35.176700  -35.637500  -131.476000
  C     36.005600  -35.142600  -130.570000
  C     36.204100  -33.704000  -130.677000
  C     35.367100  -33.023300  -131.552000
  H     36.688600  -35.756900  -129.957000
  C     37.130900  -33.022800  -129.732000
  H     36.930800  -33.259900  -128.699000
  H     36.951900  -31.946900  -129.894000
  C     38.639500  -33.318000  -130.034000
  H     38.825600  -33.111900  -131.057000
  H     38.969600  -34.305500  -130.026000
  C     39.604300  -32.517200  -129.077000
  H     40.635200  -32.594000  -129.350000
  H     39.472900  -32.930100  -128.043000
  H     39.468000  -31.461400  -129.071000
  H     34.112100  -28.330600  -133.084000
  H     34.861800  -36.611800  -131.665000

 Total Charge           Charge          ....    0
 Multiplicity           Mult            ....    1
 Number of Electrons    NEL             ....  134
 Basis Dimension        Dim             ....  322

ORBITAL ENERGIES
----------------

  NO   OCC          E(Eh)            E(eV)
   0   2.0000     -88.967247     -2420.9219
   1   2.0000     -88.957738     -2420.6631
   2   2.0000     -10.337604      -281.3005
   3   2.0000     -10.336624      -281.2738
   4   2.0000     -10.319997      -280.8214
   5   2.0000     -10.315855      -280.7087
   6   2.0000     -10.305189      -280.4184
   7   2.0000     -10.299628      -280.2671
   8   2.0000     -10.295167      -280.1457
   9   2.0000     -10.291278      -280.0399
  10   2.0000     -10.290523      -280.0194
  11   2.0000     -10.286293      -279.9043
  12   2.0000     -10.284149      -279.8459
  13   2.0000     -10.281278      -279.7678
  14   2.0000     -10.279977      -279.7324
  15   2.0000     -10.276504      -279.6379
  16   2.0000      -8.081104      -219.8980
  17   2.0000      -8.072290      -219.6582
  18   2.0000      -6.039891      -164.3538
  19   2.0000      -6.035610      -164.2373
  20   2.0000      -6.031708      -164.1311
  21   2.0000      -6.031131      -164.1154
  22   2.0000      -6.026796      -163.9974
  23   2.0000      -6.022722      -163.8866
  24   2.0000      -1.006180       -27.3795
  25   2.0000      -0.986757       -26.8510
  26   2.0000      -0.919753       -25.0278
  27   2.0000      -0.906921       -24.6786
  28   2.0000      -0.874408       -23.7938
  29   2.0000      -0.850117       -23.1329
  30   2.0000      -0.842251       -22.9188
  31   2.0000      -0.821435       -22.3524
  32   2.0000      -0.781317       -21.2607
  33   2.0000      -0.773172       -21.0391
  34   2.0000      -0.716151       -19.4875
  35   2.0000      -0.710082       -19.3223
  36   2.0000      -0.701004       -19.0753
  37   2.0000      -0.663868       -18.0648
  38   2.0000      -0.646886       -17.6027
  39   2.0000      -0.624229       -16.9861
  40   2.0000      -0.604053       -16.4371
  41   2.0000      -0.583108       -15.8672
  42   2.0000      -0.567279       -15.4365
  43   2.0000      -0.561390       -15.2762
  44   2.0000      -0.528795       -14.3892
  45   2.0000      -0.524885       -14.2828
  46   2.0000      -0.520028       -14.1507
  47   2.0000      -0.514690       -14.0054
  48   2.0000      -0.512529       -13.9466
  49   2.0000      -0.503872       -13.7110
  50   2.0000      -0.499310       -13.5869
  51   2.0000      -0.483095       -13.1457
  52   2.0000      -0.473100       -12.8737
  53   2.0000      -0.470675       -12.8077
  54   2.0000      -0.458795       -12.4844
  55   2.0000      -0.445634       -12.1263
  56   2.0000      -0.441297       -12.0083
  57   2.0000      -0.437834       -11.9141
  58   2.0000      -0.435324       -11.8458
  59   2.0000      -0.426308       -11.6004
  60   2.0000      -0.423427       -11.5220
  61   2.0000      -0.415485       -11.3059
  62   2.0000      -0.405537       -11.0352
  63   2.0000      -0.361566        -9.8387
  64   2.0000      -0.330462        -8.9923
  65   2.0000      -0.325056        -8.8452
  66   2.0000      -0.294138        -8.0039
  67   0.0000       0.022891         0.6229
  68   0.0000       0.071661         1.9500
  69   0.0000       0.106924         2.9096
  70   0.0000       0.124070         3.3761
  71   0.0000       0.128299         3.4912

MULLIKEN ATOMIC CHARGES
-----------------------
   0 S :    0.097769
   1 C :   -0.113315
   2 C :   -0.077048
   3 C :    0.011246
   4 C :   -0.121181
   5 H :    0.001936
   6 C :    0.115658
   7 H :   -0.014952
   8 H :    0.006685
   9 C :   -0.085472
  10 H :    0.022377
  11 H :    0.042816
  12 C :   -0.046581
  13 H :    0.035715
  14 H :    0.030394
  15 H :    0.033405
  16 S :    0.058461
  17 C :   -0.057718
  18 C :    0.013308
  19 C :   -0.088529
  20 C :   -0.097213
  21 H :    0.030317
  22 C :    0.052334
  23 H :    0.031331
  24 H :    0.023319
  25 C :   -0.057445
  26 H :    0.008657
  27 H :    0.011530
  28 C :   -0.044542
  29 H :    0.026311
  30 H :    0.038291
  31 H :    0.021654
  32 H :    0.047132
  33 H :    0.043352
Sum of atomic charges:    0.0000000

LOEWDIN ATOMIC CHARGES
----------------------
   0 S :    0.391705
   1 C :   -0.181598
   2 C :   -0.055642
   3 C :   -0.067521
   4 C :   -0.183283
   5 H :    0.026889
   6 C :   -0.026557
   7 H :    0.012110
   8 H :    0.027441
   9 C :   -0.032481
  10 H :    0.020101
  11 H :    0.027431
  12 C :   -0.062501
  13 H :    0.020470
  14 H :    0.031657
  15 H :    0.022464
  16 S :    0.359632
  17 C :   -0.151411
  18 C :   -0.075146
  19 C :   -0.056944
  20 C :   -0.172601
  21 H :    0.036855
  22 C :   -0.029075
  23 H :    0.029701
  24 H :    0.032242
  25 C :   -0.034839
  26 H :    0.016982
  27 H :    0.015343
  28 C :   -0.064421
  29 H :    0.022735
  30 H :    0.030976
  31 H :    0.018116
  32 H :    0.031137
  33 H :    0.020031

  Mayer bond orders larger than 0.100000
B(  0-S ,  1-C ) :   1.1153 B(  0-S ,  4-C ) :   1.1493 B(  1-C ,  2-C ) :   1.5972
B(  1-C ,  4-C ) :   0.1002 B(  1-C , 32-H ) :   0.9776 B(  2-C ,  3-C ) :   1.2576
B(  2-C ,  6-C ) :   1.0298 B(  3-C ,  4-C ) :   1.5525 B(  3-C ,  5-H ) :   0.9940
B(  4-C , 20-C ) :   1.0520 B(  6-C ,  7-H ) :   0.9352 B(  6-C ,  8-H ) :   0.9350
B(  6-C ,  9-C ) :   1.0491 B(  9-C , 10-H ) :   0.9546 B(  9-C , 11-H ) :   0.9627
B(  9-C , 12-C ) :   1.0764 B( 12-C , 13-H ) :   0.9777 B( 12-C , 14-H ) :   0.9723
B( 12-C , 15-H ) :   0.9752 B( 16-S , 17-C ) :   1.1448 B( 16-S , 20-C ) :   1.0955
B( 17-C , 18-C ) :   1.6210 B( 17-C , 33-H ) :   0.9781 B( 18-C , 19-C ) :   1.2140
B( 18-C , 21-H ) :   0.9847 B( 19-C , 20-C ) :   1.6223 B( 19-C , 22-C ) :   1.0618
B( 22-C , 23-H ) :   0.9416 B( 22-C , 24-H ) :   0.9386 B( 22-C , 25-C ) :   1.0413
B( 25-C , 26-H ) :   0.9525 B( 25-C , 27-H ) :   0.9577 B( 25-C , 28-C ) :   1.0785
B( 28-C , 29-H ) :   0.9755 B( 28-C , 30-H ) :   0.9761 B( 28-C , 31-H ) :   0.9778

Dispersion correction           -0.013631206
FINAL SINGLE POINT ENERGY     -1339.861136168025

DIPOLE MOMENT
-------------
                                X             Y             Z
Electronic contribution:    -27.12916     -15.53000      -3.80011
Nuclear contribution   :     27.91221      15.74249       4.04191
                        -----------------------------------------
Total Dipole Moment    :      0.78305       0.21249       0.24180
                        -----------------------------------------
Magnitude (a.u.)       :      0.84663
Magnitude (Debye)      :      2.15197

Rotational constants in cm-1:     0.017630     0.008401     0.006150
Rotational constants in MHz :   528.522105   251.862043   184.382036

                             ****ORCA TERMINATED NORMALLY****
TOTAL RUN TIME: 0 days 0 hours 0 minutes 21 seconds 432 msec
