                         Program Version 4.2.1 -  RELEASE  -
|  1> ! wB97X-D3 SP def2-SVP
|  2> %pal
|  3> nprocs 24
|  4> end
|  5>
|  6> * xyz 0 1
|  7> S 	 -51.6427 	 18.2713 	 27.7049
|  8> C 	 -50.687 	 16.9924 	 27.1367
|  9> C 	 -50.7 	 15.9497 	 28.069
| 10> C 	 -51.3049 	 16.3516 	 29.2974
| 11> C 	 -51.8706 	 17.5891 	 29.284
| 12> H 	 -51.2852 	 15.824 	 30.2521
| 13> C 	 -49.9681 	 14.6369 	 27.9046
| 14> H 	 -49.3613 	 14.5364 	 28.8098
| 15> H 	 -49.2239 	 14.7274 	 27.1387
| 16> C 	 -50.8063 	 13.3511 	 27.6124
| 17> H 	 -51.3371 	 13.4689 	 26.6609
| 18> H 	 -50.3132 	 12.4296 	 27.5665
| 19> C 	 -51.965 	 13.0359 	 28.5869
| 20> H 	 -51.5691 	 12.8244 	 29.5733
| 21> H 	 -52.5757 	 13.8978 	 28.7153
| 22> H 	 -52.6075 	 12.2549 	 28.2661
| 23> S 	 -52.3693 	 20.1884 	 30.1274
| 24> C 	 -52.9711 	 20.511 	 31.7717
| 25> C 	 -53.292 	 19.3609 	 32.4694
| 26> C 	 -52.8902 	 18.195 	 31.6972
| 27> C 	 -52.3464 	 18.4092 	 30.4054
| 28> H 	 -53.7002 	 19.4102 	 33.4552
| 29> C 	 -53.0642 	 16.7969 	 32.2739
| 30> H 	 -53.2437 	 16.164 	 31.3837
| 31> H 	 -53.9369 	 16.7572 	 32.9716
| 32> C 	 -51.8575 	 16.3089 	 33.0056
| 33> H 	 -51.589 	 16.8146 	 33.8804
| 34> H 	 -51.009 	 16.4215 	 32.2879
| 35> C 	 -52.0181 	 14.7666 	 33.3397
| 36> H 	 -52.8146 	 14.6685 	 34.0647
| 37> H 	 -51.1073 	 14.3816 	 33.8403
| 38> H 	 -52.2617 	 14.1128 	 32.4279
| 39> H 	 -50.2186 	 16.9231 	 26.1533
| 40> H 	 -53.1069 	 21.5109 	 32.17
| 41> *
| 42>
| 43>                          ****END OF INPUT****

CARTESIAN COORDINATES (ANGSTROEM)
---------------------------------
  S    -51.642700   18.271300   27.704900
  C    -50.687000   16.992400   27.136700
  C    -50.700000   15.949700   28.069000
  C    -51.304900   16.351600   29.297400
  C    -51.870600   17.589100   29.284000
  H    -51.285200   15.824000   30.252100
  C    -49.968100   14.636900   27.904600
  H    -49.361300   14.536400   28.809800
  H    -49.223900   14.727400   27.138700
  C    -50.806300   13.351100   27.612400
  H    -51.337100   13.468900   26.660900
  H    -50.313200   12.429600   27.566500
  C    -51.965000   13.035900   28.586900
  H    -51.569100   12.824400   29.573300
  H    -52.575700   13.897800   28.715300
  H    -52.607500   12.254900   28.266100
  S    -52.369300   20.188400   30.127400
  C    -52.971100   20.511000   31.771700
  C    -53.292000   19.360900   32.469400
  C    -52.890200   18.195000   31.697200
  C    -52.346400   18.409200   30.405400
  H    -53.700200   19.410200   33.455200
  C    -53.064200   16.796900   32.273900
  H    -53.243700   16.164000   31.383700
  H    -53.936900   16.757200   32.971600
  C    -51.857500   16.308900   33.005600
  H    -51.589000   16.814600   33.880400
  H    -51.009000   16.421500   32.287900
  C    -52.018100   14.766600   33.339700
  H    -52.814600   14.668500   34.064700
  H    -51.107300   14.381600   33.840300
  H    -52.261700   14.112800   32.427900
  H    -50.218600   16.923100   26.153300
  H    -53.106900   21.510900   32.170000

 Total Charge           Charge          ....    0
 Multiplicity           Mult            ....    1
 Number of Electrons    NEL             ....  134
 Basis Dimension        Dim             ....  322

ORBITAL ENERGIES
----------------

  NO   OCC          E(Eh)            E(eV)
   0   2.0000     -88.967350     -2420.9247
   1   2.0000     -88.964701     -2420.8526
   2   2.0000     -10.338286      -281.3191
   3   2.0000     -10.332388      -281.1586
   4   2.0000     -10.323581      -280.9189
   5   2.0000     -10.317165      -280.7443
   6   2.0000     -10.311895      -280.6009
   7   2.0000     -10.305349      -280.4228
   8   2.0000     -10.299948      -280.2758
   9   2.0000     -10.294876      -280.1378
  10   2.0000     -10.294667      -280.1321
  11   2.0000     -10.293050      -280.0881
  12   2.0000     -10.288191      -279.9559
  13   2.0000     -10.286766      -279.9171
  14   2.0000     -10.284384      -279.8523
  15   2.0000     -10.267192      -279.3845
  16   2.0000      -8.083370      -219.9597
  17   2.0000      -8.078286      -219.8213
  18   2.0000      -6.041860      -164.4074
  19   2.0000      -6.037600      -164.2915
  20   2.0000      -6.036979      -164.2746
  21   2.0000      -6.034143      -164.1974
  22   2.0000      -6.032999      -164.1663
  23   2.0000      -6.028860      -164.0536
  24   2.0000      -1.013288       -27.5730
  25   2.0000      -0.980623       -26.6841
  26   2.0000      -0.911711       -24.8089
  27   2.0000      -0.908311       -24.7164
  28   2.0000      -0.872950       -23.7542
  29   2.0000      -0.852588       -23.2001
  30   2.0000      -0.840506       -22.8713
  31   2.0000      -0.821688       -22.3593
  32   2.0000      -0.783043       -21.3077
  33   2.0000      -0.767193       -20.8764
  34   2.0000      -0.706907       -19.2359
  35   2.0000      -0.704061       -19.1585
  36   2.0000      -0.693185       -18.8625
  37   2.0000      -0.667288       -18.1578
  38   2.0000      -0.645091       -17.5538
  39   2.0000      -0.621697       -16.9172
  40   2.0000      -0.591337       -16.0911
  41   2.0000      -0.574606       -15.6358
  42   2.0000      -0.571770       -15.5587
  43   2.0000      -0.554372       -15.0852
  44   2.0000      -0.544338       -14.8122
  45   2.0000      -0.523433       -14.2433
  46   2.0000      -0.516918       -14.0661
  47   2.0000      -0.511956       -13.9310
  48   2.0000      -0.507342       -13.8055
  49   2.0000      -0.502274       -13.6676
  50   2.0000      -0.491389       -13.3714
  51   2.0000      -0.482632       -13.1331
  52   2.0000      -0.471623       -12.8335
  53   2.0000      -0.464980       -12.6527
  54   2.0000      -0.460906       -12.5419
  55   2.0000      -0.449517       -12.2320
  56   2.0000      -0.448992       -12.2177
  57   2.0000      -0.441906       -12.0249
  58   2.0000      -0.428553       -11.6615
  59   2.0000      -0.422550       -11.4982
  60   2.0000      -0.419551       -11.4165
  61   2.0000      -0.416171       -11.3246
  62   2.0000      -0.405242       -11.0272
  63   2.0000      -0.366085        -9.9617
  64   2.0000      -0.335211        -9.1215
  65   2.0000      -0.326319        -8.8796
  66   2.0000      -0.284644        -7.7455
  67   0.0000       0.018500         0.5034
  68   0.0000       0.078764         2.1433
  69   0.0000       0.100413         2.7324
  70   0.0000       0.114782         3.1234
  71   0.0000       0.125280         3.4091

MULLIKEN ATOMIC CHARGES
-----------------------
   0 S :    0.111405
   1 C :   -0.118865
   2 C :   -0.096222
   3 C :   -0.010892
   4 C :   -0.092403
   5 H :   -0.000265
   6 C :    0.081110
   7 H :    0.030572
   8 H :    0.012353
   9 C :   -0.045190
  10 H :    0.024334
  11 H :    0.022809
  12 C :   -0.057916
  13 H :    0.018885
  14 H :    0.025783
  15 H :    0.030042
  16 S :    0.074068
  17 C :   -0.085386
  18 C :   -0.003692
  19 C :   -0.070501
  20 C :   -0.109282
  21 H :    0.018837
  22 C :    0.022360
  23 H :    0.032994
  24 H :    0.027410
  25 C :   -0.048013
  26 H :    0.017480
  27 H :    0.028296
  28 C :   -0.078695
  29 H :    0.028101
  30 H :    0.041126
  31 H :    0.048723
  32 H :    0.060278
  33 H :    0.060356
Sum of atomic charges:   -0.0000000

LOEWDIN ATOMIC CHARGES
----------------------
   0 S :    0.433303
   1 C :   -0.209756
   2 C :   -0.065207
   3 C :   -0.070320
   4 C :   -0.195935
   5 H :    0.030995
   6 C :   -0.029849
   7 H :    0.033598
   8 H :    0.028064
   9 C :   -0.033801
  10 H :    0.026234
  11 H :    0.018081
  12 C :   -0.062720
  13 H :    0.018075
  14 H :    0.018143
  15 H :    0.023004
  16 S :    0.366493
  17 C :   -0.164467
  18 C :   -0.069623
  19 C :   -0.050680
  20 C :   -0.180247
  21 H :    0.033239
  22 C :   -0.039371
  23 H :    0.032263
  24 H :    0.031368
  25 C :   -0.036312
  26 H :    0.017224
  27 H :    0.023642
  28 C :   -0.071296
  29 H :    0.020195
  30 H :    0.027558
  31 H :    0.032175
  32 H :    0.036251
  33 H :    0.029679

  Mayer bond orders larger than 0.100000
B(  0-S ,  1-C ) :   1.1641 B(  0-S ,  4-C ) :   1.1467 B(  1-C ,  2-C ) :   1.5810
B(  1-C , 32-H ) :   0.9675 B(  2-C ,  3-C ) :   1.2501 B(  2-C ,  6-C ) :   1.0219
B(  3-C ,  4-C ) :   1.5654 B(  3-C ,  5-H ) :   0.9883 B(  4-C , 20-C ) :   1.0715
B(  6-C ,  7-H ) :   0.9446 B(  6-C ,  8-H ) :   0.9420 B(  6-C ,  9-C ) :   1.0604
B(  9-C , 10-H ) :   0.9557 B(  9-C , 11-H ) :   0.9616 B(  9-C , 12-C ) :   1.0833
B( 12-C , 13-H ) :   0.9757 B( 12-C , 14-H ) :   0.9723 B( 12-C , 15-H ) :   0.9732
B( 16-S , 17-C ) :   1.1538 B( 16-S , 20-C ) :   1.1072 B( 17-C , 18-C ) :   1.6129
B( 17-C , 33-H ) :   0.9648 B( 18-C , 19-C ) :   1.2277 B( 18-C , 21-H ) :   0.9962
B( 19-C , 20-C ) :   1.5872 B( 19-C , 22-C ) :   1.0476 B( 22-C , 23-H ) :   0.9349
B( 22-C , 24-H ) :   0.9354 B( 22-C , 25-C ) :   1.0699 B( 25-C , 26-H ) :   0.9514
B( 25-C , 27-H ) :   0.9512 B( 25-C , 28-C ) :   1.0706 B( 28-C , 29-H ) :   0.9748
B( 28-C , 30-H ) :   0.9756 B( 28-C , 31-H ) :   0.9746

Dispersion correction           -0.014857041
FINAL SINGLE POINT ENERGY     -1339.878397196419

DIPOLE MOMENT
-------------
                                X             Y             Z
Electronic contribution:     -2.19885      29.76334     -10.40134
Nuclear contribution   :      2.32814     -30.23207      10.80116
                        -----------------------------------------
Total Dipole Moment    :      0.12930      -0.46873       0.39982
                        -----------------------------------------
Magnitude (a.u.)       :      0.62951
Magnitude (Debye)      :      1.60008

Rotational constants in cm-1:     0.017760     0.010209     0.006823
Rotational constants in MHz :   532.437348   306.047922   204.537100

                             ****ORCA TERMINATED NORMALLY****
TOTAL RUN TIME: 0 days 0 hours 0 minutes 22 seconds 313 msec
