                         Program Version 4.2.1 -  RELEASE  -
|  1> ! wB97X-D3 SP def2-SVP
|  2> %pal
|  3> nprocs 24
|  4> end
|  5>
|  6> * xyz 0 1
|  7> S 	 30.7 	 -34.4551 	 -127.361
|  8> C 	 31.441 	 -33.1801 	 -126.339
|  9> C 	 32.5715 	 -32.7642 	 -126.994
| 10> C 	 32.8018 	 -33.4644 	 -128.174
| 11> C 	 32.0099 	 -34.5084 	 -128.523
| 12> H 	 33.5476 	 -33.0838 	 -128.892
| 13> C 	 33.6468 	 -31.7137 	 -126.472
| 14> H 	 33.1285 	 -30.7192 	 -126.457
| 15> H 	 34.433 	 -31.5745 	 -127.201
| 16> C 	 34.2572 	 -31.9439 	 -125.166
| 17> H 	 34.5184 	 -30.9699 	 -124.691
| 18> H 	 33.4523 	 -32.3096 	 -124.452
| 19> C 	 35.3525 	 -32.9748 	 -125.214
| 20> H 	 35.5816 	 -33.4288 	 -124.232
| 21> H 	 35.2288 	 -33.836 	 -125.893
| 22> H 	 36.2701 	 -32.5517 	 -125.669
| 23> S 	 30.6181 	 -36.3995 	 -129.901
| 24> C 	 31.1377 	 -36.92 	 -131.488
| 25> C 	 32.411 	 -36.5398 	 -131.677
| 26> C 	 32.933 	 -35.6354 	 -130.703
| 27> C 	 31.9979 	 -35.3071 	 -129.71
| 28> H 	 32.9887 	 -36.8872 	 -132.504
| 29> C 	 34.3344 	 -35.0371 	 -130.813
| 30> H 	 34.6392 	 -34.8394 	 -129.776
| 31> H 	 34.3019 	 -34.0819 	 -131.335
| 32> C 	 35.3822 	 -35.8432 	 -131.599
| 33> H 	 35.1903 	 -36.0152 	 -132.622
| 34> H 	 35.2988 	 -36.8663 	 -131.153
| 35> C 	 36.8424 	 -35.2816 	 -131.523
| 36> H 	 36.9489 	 -34.9315 	 -130.566
| 37> H 	 36.9287 	 -34.3742 	 -132.17
| 38> H 	 37.666 	 -35.9837 	 -131.797
| 39> H 	 31.0874 	 -32.8088 	 -125.434
| 40> H 	 30.6072 	 -37.7164 	 -131.994
| 41> *
| 42>
| 43>                          ****END OF INPUT****

CARTESIAN COORDINATES (ANGSTROEM)
---------------------------------
  S     30.700000  -34.455100  -127.361000
  C     31.441000  -33.180100  -126.339000
  C     32.571500  -32.764200  -126.994000
  C     32.801800  -33.464400  -128.174000
  C     32.009900  -34.508400  -128.523000
  H     33.547600  -33.083800  -128.892000
  C     33.646800  -31.713700  -126.472000
  H     33.128500  -30.719200  -126.457000
  H     34.433000  -31.574500  -127.201000
  C     34.257200  -31.943900  -125.166000
  H     34.518400  -30.969900  -124.691000
  H     33.452300  -32.309600  -124.452000
  C     35.352500  -32.974800  -125.214000
  H     35.581600  -33.428800  -124.232000
  H     35.228800  -33.836000  -125.893000
  H     36.270100  -32.551700  -125.669000
  S     30.618100  -36.399500  -129.901000
  C     31.137700  -36.920000  -131.488000
  C     32.411000  -36.539800  -131.677000
  C     32.933000  -35.635400  -130.703000
  C     31.997900  -35.307100  -129.710000
  H     32.988700  -36.887200  -132.504000
  C     34.334400  -35.037100  -130.813000
  H     34.639200  -34.839400  -129.776000
  H     34.301900  -34.081900  -131.335000
  C     35.382200  -35.843200  -131.599000
  H     35.190300  -36.015200  -132.622000
  H     35.298800  -36.866300  -131.153000
  C     36.842400  -35.281600  -131.523000
  H     36.948900  -34.931500  -130.566000
  H     36.928700  -34.374200  -132.170000
  H     37.666000  -35.983700  -131.797000
  H     31.087400  -32.808800  -125.434000
  H     30.607200  -37.716400  -131.994000

 Total Charge           Charge          ....    0
 Multiplicity           Mult            ....    1
 Number of Electrons    NEL             ....  134
 Basis Dimension        Dim             ....  322

ORBITAL ENERGIES
----------------

  NO   OCC          E(Eh)            E(eV)
   0   2.0000     -88.964523     -2420.8477
   1   2.0000     -88.961452     -2420.7642
   2   2.0000     -10.333721      -281.1948
   3   2.0000     -10.331236      -281.1272
   4   2.0000     -10.316970      -280.7390
   5   2.0000     -10.316780      -280.7338
   6   2.0000     -10.309793      -280.5437
   7   2.0000     -10.301895      -280.3288
   8   2.0000     -10.297728      -280.2154
   9   2.0000     -10.295442      -280.1532
  10   2.0000     -10.291699      -280.0514
  11   2.0000     -10.290521      -280.0193
  12   2.0000     -10.290003      -280.0052
  13   2.0000     -10.288435      -279.9626
  14   2.0000     -10.282486      -279.8007
  15   2.0000     -10.279746      -279.7261
  16   2.0000      -8.078598      -219.8298
  17   2.0000      -8.076539      -219.7738
  18   2.0000      -6.037374      -164.2853
  19   2.0000      -6.035125      -164.2241
  20   2.0000      -6.033165      -164.1708
  21   2.0000      -6.031104      -164.1147
  22   2.0000      -6.029102      -164.0602
  23   2.0000      -6.027083      -164.0053
  24   2.0000      -1.012847       -27.5610
  25   2.0000      -0.989585       -26.9280
  26   2.0000      -0.919485       -25.0205
  27   2.0000      -0.909540       -24.7498
  28   2.0000      -0.879818       -23.9411
  29   2.0000      -0.851630       -23.1740
  30   2.0000      -0.838255       -22.8101
  31   2.0000      -0.819865       -22.3097
  32   2.0000      -0.785026       -21.3616
  33   2.0000      -0.778101       -21.1732
  34   2.0000      -0.714879       -19.4529
  35   2.0000      -0.710733       -19.3400
  36   2.0000      -0.697098       -18.9690
  37   2.0000      -0.658626       -17.9221
  38   2.0000      -0.641336       -17.4516
  39   2.0000      -0.619637       -16.8612
  40   2.0000      -0.603580       -16.4243
  41   2.0000      -0.576540       -15.6884
  42   2.0000      -0.571033       -15.5386
  43   2.0000      -0.557664       -15.1748
  44   2.0000      -0.542918       -14.7735
  45   2.0000      -0.532202       -14.4820
  46   2.0000      -0.521834       -14.1998
  47   2.0000      -0.511039       -13.9061
  48   2.0000      -0.509692       -13.8694
  49   2.0000      -0.503099       -13.6900
  50   2.0000      -0.488526       -13.2935
  51   2.0000      -0.483552       -13.1581
  52   2.0000      -0.476709       -12.9719
  53   2.0000      -0.467052       -12.7091
  54   2.0000      -0.463864       -12.6224
  55   2.0000      -0.452309       -12.3080
  56   2.0000      -0.442699       -12.0465
  57   2.0000      -0.438828       -11.9411
  58   2.0000      -0.429771       -11.6947
  59   2.0000      -0.424094       -11.5402
  60   2.0000      -0.417351       -11.3567
  61   2.0000      -0.410233       -11.1630
  62   2.0000      -0.399179       -10.8622
  63   2.0000      -0.370556       -10.0834
  64   2.0000      -0.333899        -9.0859
  65   2.0000      -0.325920        -8.8687
  66   2.0000      -0.285146        -7.7592
  67   0.0000       0.011554         0.3144
  68   0.0000       0.086780         2.3614
  69   0.0000       0.093230         2.5369
  70   0.0000       0.122431         3.3315
  71   0.0000       0.133982         3.6458

MULLIKEN ATOMIC CHARGES
-----------------------
   0 S :    0.078241
   1 C :   -0.098270
   2 C :   -0.058559
   3 C :   -0.058779
   4 C :   -0.073643
   5 H :    0.017227
   6 C :    0.059437
   7 H :    0.035764
   8 H :    0.010908
   9 C :   -0.060833
  10 H :    0.036196
  11 H :    0.025166
  12 C :   -0.064152
  13 H :    0.039704
  14 H :    0.035600
  15 H :    0.024700
  16 S :    0.067684
  17 C :   -0.062996
  18 C :   -0.020080
  19 C :   -0.063204
  20 C :   -0.117169
  21 H :    0.009718
  22 C :    0.049365
  23 H :    0.036326
  24 H :    0.043403
  25 C :   -0.113780
  26 H :    0.030794
  27 H :    0.031878
  28 C :   -0.019156
  29 H :    0.006260
  30 H :    0.031586
  31 H :    0.052260
  32 H :    0.024427
  33 H :    0.063974
Sum of atomic charges:    0.0000000

LOEWDIN ATOMIC CHARGES
----------------------
   0 S :    0.385112
   1 C :   -0.164907
   2 C :   -0.063277
   3 C :   -0.084485
   4 C :   -0.187790
   5 H :    0.031261
   6 C :   -0.029579
   7 H :    0.037140
   8 H :    0.023543
   9 C :   -0.056080
  10 H :    0.031771
  11 H :    0.028320
  12 C :   -0.074063
  13 H :    0.029479
  14 H :    0.030821
  15 H :    0.026277
  16 S :    0.389286
  17 C :   -0.174800
  18 C :   -0.070732
  19 C :   -0.053113
  20 C :   -0.178892
  21 H :    0.029045
  22 C :   -0.035170
  23 H :    0.032587
  24 H :    0.033065
  25 C :   -0.044696
  26 H :    0.015295
  27 H :    0.027360
  28 C :   -0.059165
  29 H :    0.010217
  30 H :    0.029788
  31 H :    0.035978
  32 H :    0.018199
  33 H :    0.032208

  Mayer bond orders larger than 0.100000
B(  0-S ,  1-C ) :   1.1287 B(  0-S ,  4-C ) :   1.1240 B(  1-C ,  2-C ) :   1.5945
B(  1-C ,  4-C ) :   0.1031 B(  1-C , 32-H ) :   0.9823 B(  2-C ,  3-C ) :   1.2824
B(  2-C ,  6-C ) :   0.9975 B(  3-C ,  4-C ) :   1.5571 B(  3-C ,  5-H ) :   0.9831
B(  4-C , 20-C ) :   1.1211 B(  6-C ,  7-H ) :   0.9340 B(  6-C ,  8-H ) :   0.9490
B(  6-C ,  9-C ) :   1.0844 B(  9-C , 10-H ) :   0.9493 B(  9-C , 11-H ) :   0.9528
B(  9-C , 12-C ) :   1.0660 B( 12-C , 13-H ) :   0.9746 B( 12-C , 14-H ) :   0.9771
B( 12-C , 15-H ) :   0.9708 B( 16-S , 17-C ) :   1.1478 B( 16-S , 20-C ) :   1.1311
B( 17-C , 18-C ) :   1.5961 B( 17-C , 33-H ) :   0.9671 B( 18-C , 19-C ) :   1.2590
B( 18-C , 21-H ) :   0.9928 B( 19-C , 20-C ) :   1.5627 B( 19-C , 22-C ) :   1.0405
B( 22-C , 23-H ) :   0.9253 B( 22-C , 24-H ) :   0.9309 B( 22-C , 25-C ) :   1.0678
B( 25-C , 26-H ) :   0.9506 B( 25-C , 27-H ) :   0.9586 B( 25-C , 28-C ) :   1.0745
B( 28-C , 29-H ) :   0.9760 B( 28-C , 30-H ) :   0.9738 B( 28-C , 31-H ) :   0.9747

Dispersion correction           -0.013484265
FINAL SINGLE POINT ENERGY     -1339.860101459655

DIPOLE MOMENT
-------------
                                X             Y             Z
Electronic contribution:    -29.56556      -9.26344      -1.76270
Nuclear contribution   :     30.30402       9.50950       1.58618
                        -----------------------------------------
Total Dipole Moment    :      0.73846       0.24606      -0.17652
                        -----------------------------------------
Magnitude (a.u.)       :      0.79814
Magnitude (Debye)      :      2.02872

Rotational constants in cm-1:     0.016684     0.009207     0.006204
Rotational constants in MHz :   500.174381   276.008608   186.002335

                             ****ORCA TERMINATED NORMALLY****
TOTAL RUN TIME: 0 days 0 hours 0 minutes 21 seconds 252 msec
