                         Program Version 4.2.1 -  RELEASE  -
|  1> ! wB97X-D3 SP def2-SVP
|  2> %pal
|  3> nprocs 24
|  4> end
|  5>
|  6> * xyz 0 1
|  7> S 	 -34.2351 	 0.322942 	 -0.0132251
|  8> C 	 -34.8197 	 -1.15611 	 -0.822305
|  9> C 	 -36.0488 	 -1.46181 	 -0.327372
| 10> C 	 -36.6141 	 -0.467007 	 0.545207
| 11> C 	 -35.7664 	 0.658296 	 0.778488
| 12> H 	 -37.6375 	 -0.436436 	 1.04648
| 13> C 	 -36.9333 	 -2.62746 	 -0.861366
| 14> H 	 -37.9959 	 -2.38973 	 -1.01265
| 15> H 	 -37.0426 	 -3.38435 	 -0.0866383
| 16> C 	 -36.4515 	 -3.3009 	 -2.11206
| 17> H 	 -36.3804 	 -2.65895 	 -3.06886
| 18> H 	 -35.3488 	 -3.48745 	 -1.98264
| 19> C 	 -37.2051 	 -4.60057 	 -2.48784
| 20> H 	 -36.6623 	 -5.30652 	 -3.16318
| 21> H 	 -37.3463 	 -5.16427 	 -1.63397
| 22> H 	 -38.2523 	 -4.3693 	 -2.76007
| 23> S 	 -36.104 	 3.48011 	 0.591322
| 24> C 	 -36.6039 	 4.31341 	 2.00454
| 25> C 	 -36.5898 	 3.45097 	 3.12887
| 26> C 	 -36.2528 	 2.11824 	 2.80398
| 27> C 	 -35.9444 	 1.9706 	 1.48303
| 28> H 	 -36.7644 	 3.90167 	 4.11484
| 29> C 	 -36.1429 	 1.0339 	 3.88067
| 30> H 	 -35.931 	 0.0243868 	 3.4127
| 31> H 	 -37.0667 	 1.06026 	 4.37031
| 32> C 	 -35.0785 	 1.28772 	 4.87011
| 33> H 	 -35.2345 	 0.542579 	 5.66844
| 34> H 	 -35.3487 	 2.25989 	 5.31821
| 35> C 	 -33.571 	 1.42553 	 4.53647
| 36> H 	 -33.2802 	 0.570099 	 3.8722
| 37> H 	 -32.984 	 1.64706 	 5.37585
| 38> H 	 -33.2561 	 2.19385 	 3.80965
| 39> H 	 -34.2356 	 -1.83328 	 -1.4187
| 40> H 	 -36.8771 	 5.34461 	 2.09893
| 41> *
| 42>
| 43>                          ****END OF INPUT****

CARTESIAN COORDINATES (ANGSTROEM)
---------------------------------
  S    -34.235100    0.322942   -0.013225
  C    -34.819700   -1.156110   -0.822305
  C    -36.048800   -1.461810   -0.327372
  C    -36.614100   -0.467007    0.545207
  C    -35.766400    0.658296    0.778488
  H    -37.637500   -0.436436    1.046480
  C    -36.933300   -2.627460   -0.861366
  H    -37.995900   -2.389730   -1.012650
  H    -37.042600   -3.384350   -0.086638
  C    -36.451500   -3.300900   -2.112060
  H    -36.380400   -2.658950   -3.068860
  H    -35.348800   -3.487450   -1.982640
  C    -37.205100   -4.600570   -2.487840
  H    -36.662300   -5.306520   -3.163180
  H    -37.346300   -5.164270   -1.633970
  H    -38.252300   -4.369300   -2.760070
  S    -36.104000    3.480110    0.591322
  C    -36.603900    4.313410    2.004540
  C    -36.589800    3.450970    3.128870
  C    -36.252800    2.118240    2.803980
  C    -35.944400    1.970600    1.483030
  H    -36.764400    3.901670    4.114840
  C    -36.142900    1.033900    3.880670
  H    -35.931000    0.024387    3.412700
  H    -37.066700    1.060260    4.370310
  C    -35.078500    1.287720    4.870110
  H    -35.234500    0.542579    5.668440
  H    -35.348700    2.259890    5.318210
  C    -33.571000    1.425530    4.536470
  H    -33.280200    0.570099    3.872200
  H    -32.984000    1.647060    5.375850
  H    -33.256100    2.193850    3.809650
  H    -34.235600   -1.833280   -1.418700
  H    -36.877100    5.344610    2.098930

 Total Charge           Charge          ....    0
 Multiplicity           Mult            ....    1
 Number of Electrons    NEL             ....  134
 Basis Dimension        Dim             ....  322

ORBITAL ENERGIES
----------------

  NO   OCC          E(Eh)            E(eV)
   0   2.0000     -88.971366     -2421.0340
   1   2.0000     -88.962286     -2420.7869
   2   2.0000     -10.338465      -281.3239
   3   2.0000     -10.327960      -281.0381
   4   2.0000     -10.320922      -280.8466
   5   2.0000     -10.315194      -280.6907
   6   2.0000     -10.307100      -280.4704
   7   2.0000     -10.306473      -280.4534
   8   2.0000     -10.301701      -280.3235
   9   2.0000     -10.297227      -280.2018
  10   2.0000     -10.296195      -280.1737
  11   2.0000     -10.295606      -280.1577
  12   2.0000     -10.289187      -279.9830
  13   2.0000     -10.285223      -279.8751
  14   2.0000     -10.280091      -279.7355
  15   2.0000     -10.275070      -279.5989
  16   2.0000      -8.086191      -220.0365
  17   2.0000      -8.076431      -219.7709
  18   2.0000      -6.044668      -164.4838
  19   2.0000      -6.040579      -164.3725
  20   2.0000      -6.037073      -164.2771
  21   2.0000      -6.035008      -164.2209
  22   2.0000      -6.030848      -164.1077
  23   2.0000      -6.027312      -164.0115
  24   2.0000      -1.005488       -27.3607
  25   2.0000      -0.983059       -26.7504
  26   2.0000      -0.915521       -24.9126
  27   2.0000      -0.910723       -24.7820
  28   2.0000      -0.865053       -23.5393
  29   2.0000      -0.848869       -23.0989
  30   2.0000      -0.837794       -22.7975
  31   2.0000      -0.810296       -22.0493
  32   2.0000      -0.791432       -21.5359
  33   2.0000      -0.778461       -21.1830
  34   2.0000      -0.710068       -19.3219
  35   2.0000      -0.697150       -18.9704
  36   2.0000      -0.691427       -18.8147
  37   2.0000      -0.656763       -17.8714
  38   2.0000      -0.638529       -17.3753
  39   2.0000      -0.608092       -16.5470
  40   2.0000      -0.596363       -16.2279
  41   2.0000      -0.576214       -15.6796
  42   2.0000      -0.563831       -15.3426
  43   2.0000      -0.554748       -15.0955
  44   2.0000      -0.537151       -14.6166
  45   2.0000      -0.521586       -14.1931
  46   2.0000      -0.519451       -14.1350
  47   2.0000      -0.511868       -13.9286
  48   2.0000      -0.506852       -13.7921
  49   2.0000      -0.499726       -13.5982
  50   2.0000      -0.490488       -13.3469
  51   2.0000      -0.487982       -13.2787
  52   2.0000      -0.471256       -12.8235
  53   2.0000      -0.463457       -12.6113
  54   2.0000      -0.457010       -12.4359
  55   2.0000      -0.446263       -12.1434
  56   2.0000      -0.442331       -12.0364
  57   2.0000      -0.441262       -12.0074
  58   2.0000      -0.436681       -11.8827
  59   2.0000      -0.416233       -11.3263
  60   2.0000      -0.416182       -11.3249
  61   2.0000      -0.404988       -11.0203
  62   2.0000      -0.397725       -10.8227
  63   2.0000      -0.337698        -9.1892
  64   2.0000      -0.336628        -9.1601
  65   2.0000      -0.326927        -8.8961
  66   2.0000      -0.302974        -8.2443
  67   0.0000       0.034880         0.9491
  68   0.0000       0.059777         1.6266
  69   0.0000       0.119621         3.2551
  70   0.0000       0.124467         3.3869
  71   0.0000       0.130134         3.5411

MULLIKEN ATOMIC CHARGES
-----------------------
   0 S :    0.089982
   1 C :   -0.114500
   2 C :   -0.064127
   3 C :    0.021160
   4 C :   -0.193697
   5 H :    0.041271
   6 C :    0.068010
   7 H :    0.029808
   8 H :    0.026604
   9 C :   -0.145144
  10 H :    0.046396
  11 H :    0.024147
  12 C :   -0.019236
  13 H :    0.047010
  14 H :   -0.000125
  15 H :    0.034628
  16 S :    0.139804
  17 C :   -0.096827
  18 C :   -0.067886
  19 C :   -0.024358
  20 C :   -0.166932
  21 H :    0.029805
  22 C :    0.133213
  23 H :    0.039867
  24 H :    0.014425
  25 C :   -0.102772
  26 H :    0.034114
  27 H :    0.013226
  28 C :   -0.033077
  29 H :    0.029393
  30 H :    0.034845
  31 H :    0.027779
  32 H :    0.048198
  33 H :    0.054993
Sum of atomic charges:    0.0000000

LOEWDIN ATOMIC CHARGES
----------------------
   0 S :    0.387269
   1 C :   -0.188239
   2 C :   -0.064092
   3 C :   -0.073122
   4 C :   -0.186213
   5 H :    0.044303
   6 C :   -0.034693
   7 H :    0.032643
   8 H :    0.032407
   9 C :   -0.056882
  10 H :    0.031937
  11 H :    0.021052
  12 C :   -0.066412
  13 H :    0.036718
  14 H :    0.011884
  15 H :    0.030571
  16 S :    0.430773
  17 C :   -0.190916
  18 C :   -0.077089
  19 C :   -0.051199
  20 C :   -0.217324
  21 H :    0.033491
  22 C :   -0.024770
  23 H :    0.036855
  24 H :    0.028660
  25 C :   -0.046297
  26 H :    0.028974
  27 H :    0.020158
  28 C :   -0.072704
  29 H :    0.031702
  30 H :    0.022505
  31 H :    0.030928
  32 H :    0.028065
  33 H :    0.029055

  Mayer bond orders larger than 0.100000
B(  0-S ,  1-C ) :   1.1192 B(  0-S ,  4-C ) :   1.1679 B(  1-C ,  2-C ) :   1.6398
B(  1-C , 32-H ) :   0.9631 B(  2-C ,  3-C ) :   1.2319 B(  2-C ,  6-C ) :   0.9985
B(  3-C ,  4-C ) :   1.5792 B(  3-C ,  5-H ) :   0.9867 B(  4-C , 20-C ) :   0.9949
B(  6-C ,  7-H ) :   0.9524 B(  6-C ,  8-H ) :   0.9286 B(  6-C ,  9-C ) :   1.0732
B(  9-C , 10-H ) :   0.9559 B(  9-C , 11-H ) :   0.9454 B(  9-C , 12-C ) :   1.0773
B( 12-C , 13-H ) :   0.9732 B( 12-C , 14-H ) :   0.9714 B( 12-C , 15-H ) :   0.9731
B( 16-S , 17-C ) :   1.1837 B( 16-S , 20-C ) :   1.1408 B( 17-C , 18-C ) :   1.5843
B( 17-C , 33-H ) :   0.9692 B( 18-C , 19-C ) :   1.2506 B( 18-C , 21-H ) :   0.9867
B( 19-C , 20-C ) :   1.5980 B( 19-C , 22-C ) :   1.0280 B( 22-C , 23-H ) :   0.9294
B( 22-C , 24-H ) :   0.9182 B( 22-C , 25-C ) :   1.0997 B( 25-C , 26-H ) :   0.9519
B( 25-C , 27-H ) :   0.9490 B( 25-C , 28-C ) :   1.0695 B( 28-C , 29-H ) :   0.9712
B( 28-C , 30-H ) :   0.9736 B( 28-C , 31-H ) :   0.9697

Dispersion correction           -0.014219937
FINAL SINGLE POINT ENERGY     -1339.859961992829

DIPOLE MOMENT
-------------
                                X             Y             Z
Electronic contribution:      2.91220      20.17497      -5.13710
Nuclear contribution   :     -3.29918     -20.43667       5.53239
                        -----------------------------------------
Total Dipole Moment    :     -0.38699      -0.26170       0.39529
                        -----------------------------------------
Magnitude (a.u.)       :      0.61197
Magnitude (Debye)      :      1.55550

Rotational constants in cm-1:     0.023886     0.006843     0.006267
Rotational constants in MHz :   716.094837   205.155978   187.884749

                             ****ORCA TERMINATED NORMALLY****
TOTAL RUN TIME: 0 days 0 hours 0 minutes 21 seconds 87 msec
