                         Program Version 4.2.1 -  RELEASE  -
|  1> ! wB97X-D3 SP def2-SVP
|  2> %pal
|  3> nprocs 24
|  4> end
|  5>
|  6> * xyz 0 1
|  7> S 	 -60.464 	 11.8093 	 -97.0864
|  8> C 	 -60.4138 	 13.5148 	 -96.5902
|  9> C 	 -59.6187 	 14.2743 	 -97.45
| 10> C 	 -59.0796 	 13.46 	 -98.4818
| 11> C 	 -59.3925 	 12.1346 	 -98.4007
| 12> H 	 -58.474 	 13.6594 	 -99.2819
| 13> C 	 -59.3566 	 15.7643 	 -97.2449
| 14> H 	 -59.877 	 16.044 	 -96.3504
| 15> H 	 -59.9265 	 16.3688 	 -97.9501
| 16> C 	 -57.8384 	 16.2017 	 -97.0048
| 17> H 	 -57.2212 	 15.7155 	 -97.7146
| 18> H 	 -57.7415 	 17.2446 	 -97.3493
| 19> C 	 -57.2867 	 16.0128 	 -95.5974
| 20> H 	 -57.5289 	 15.0178 	 -95.2204
| 21> H 	 -56.2004 	 16.3163 	 -95.5356
| 22> H 	 -57.7601 	 16.7148 	 -94.8762
| 23> S 	 -58.2224 	 9.69371 	 -98.74
| 24> C 	 -57.867 	 9.17163 	 -100.324
| 25> C 	 -58.3404 	 10.0012 	 -101.276
| 26> C 	 -59.1554 	 11.0527 	 -100.708
| 27> C 	 -59.1263 	 11.0278 	 -99.346
| 28> H 	 -58.0975 	 9.94862 	 -102.283
| 29> C 	 -59.7141 	 12.1405 	 -101.565
| 30> H 	 -59.3391 	 11.9329 	 -102.532
| 31> H 	 -59.3623 	 13.093 	 -101.237
| 32> C 	 -61.2128 	 12.2589 	 -101.641
| 33> H 	 -61.6664 	 12.289 	 -100.657
| 34> H 	 -61.5898 	 11.2868 	 -102.006
| 35> C 	 -61.6818 	 13.3674 	 -102.57
| 36> H 	 -61.5946 	 14.4236 	 -102.202
| 37> H 	 -62.7685 	 13.1793 	 -102.665
| 38> H 	 -61.2902 	 13.2595 	 -103.531
| 39> H 	 -61.0021 	 13.8572 	 -95.7592
| 40> H 	 -57.1628 	 8.40432 	 -100.587
| 41> *
| 42>
| 43>                          ****END OF INPUT****

CARTESIAN COORDINATES (ANGSTROEM)
---------------------------------
  S    -60.464000   11.809300  -97.086400
  C    -60.413800   13.514800  -96.590200
  C    -59.618700   14.274300  -97.450000
  C    -59.079600   13.460000  -98.481800
  C    -59.392500   12.134600  -98.400700
  H    -58.474000   13.659400  -99.281900
  C    -59.356600   15.764300  -97.244900
  H    -59.877000   16.044000  -96.350400
  H    -59.926500   16.368800  -97.950100
  C    -57.838400   16.201700  -97.004800
  H    -57.221200   15.715500  -97.714600
  H    -57.741500   17.244600  -97.349300
  C    -57.286700   16.012800  -95.597400
  H    -57.528900   15.017800  -95.220400
  H    -56.200400   16.316300  -95.535600
  H    -57.760100   16.714800  -94.876200
  S    -58.222400    9.693710  -98.740000
  C    -57.867000    9.171630  -100.324000
  C    -58.340400   10.001200  -101.276000
  C    -59.155400   11.052700  -100.708000
  C    -59.126300   11.027800  -99.346000
  H    -58.097500    9.948620  -102.283000
  C    -59.714100   12.140500  -101.565000
  H    -59.339100   11.932900  -102.532000
  H    -59.362300   13.093000  -101.237000
  C    -61.212800   12.258900  -101.641000
  H    -61.666400   12.289000  -100.657000
  H    -61.589800   11.286800  -102.006000
  C    -61.681800   13.367400  -102.570000
  H    -61.594600   14.423600  -102.202000
  H    -62.768500   13.179300  -102.665000
  H    -61.290200   13.259500  -103.531000
  H    -61.002100   13.857200  -95.759200
  H    -57.162800    8.404320  -100.587000

 Total Charge           Charge          ....    0
 Multiplicity           Mult            ....    1
 Number of Electrons    NEL             ....  134
 Basis Dimension        Dim             ....  322

ORBITAL ENERGIES
----------------

  NO   OCC          E(Eh)            E(eV)
   0   2.0000     -88.964070     -2420.8354
   1   2.0000     -88.961781     -2420.7731
   2   2.0000     -10.324481      -280.9434
   3   2.0000     -10.318558      -280.7822
   4   2.0000     -10.315714      -280.7049
   5   2.0000     -10.309669      -280.5404
   6   2.0000     -10.306667      -280.4587
   7   2.0000     -10.296638      -280.1858
   8   2.0000     -10.295498      -280.1547
   9   2.0000     -10.289054      -279.9794
  10   2.0000     -10.286144      -279.9002
  11   2.0000     -10.285698      -279.8881
  12   2.0000     -10.283889      -279.8389
  13   2.0000     -10.279416      -279.7171
  14   2.0000     -10.278984      -279.7054
  15   2.0000     -10.275888      -279.6211
  16   2.0000      -8.080391      -219.8786
  17   2.0000      -8.076876      -219.7830
  18   2.0000      -6.038780      -164.3236
  19   2.0000      -6.035194      -164.2260
  20   2.0000      -6.034680      -164.2120
  21   2.0000      -6.031319      -164.1205
  22   2.0000      -6.031170      -164.1165
  23   2.0000      -6.027835      -164.0257
  24   2.0000      -1.014508       -27.6062
  25   2.0000      -0.988305       -26.8932
  26   2.0000      -0.916349       -24.9351
  27   2.0000      -0.904517       -24.6132
  28   2.0000      -0.868781       -23.6407
  29   2.0000      -0.855763       -23.2865
  30   2.0000      -0.845864       -23.0171
  31   2.0000      -0.820595       -22.3295
  32   2.0000      -0.785677       -21.3794
  33   2.0000      -0.772882       -21.0312
  34   2.0000      -0.709777       -19.3140
  35   2.0000      -0.700043       -19.0491
  36   2.0000      -0.687333       -18.7033
  37   2.0000      -0.669540       -18.2191
  38   2.0000      -0.653223       -17.7751
  39   2.0000      -0.621752       -16.9187
  40   2.0000      -0.601436       -16.3659
  41   2.0000      -0.572047       -15.5662
  42   2.0000      -0.563426       -15.3316
  43   2.0000      -0.550581       -14.9821
  44   2.0000      -0.528900       -14.3921
  45   2.0000      -0.524016       -14.2592
  46   2.0000      -0.521772       -14.1982
  47   2.0000      -0.509211       -13.8563
  48   2.0000      -0.505629       -13.7589
  49   2.0000      -0.496184       -13.5018
  50   2.0000      -0.494402       -13.4534
  51   2.0000      -0.483990       -13.1700
  52   2.0000      -0.477504       -12.9936
  53   2.0000      -0.465880       -12.6772
  54   2.0000      -0.459303       -12.4983
  55   2.0000      -0.453827       -12.3492
  56   2.0000      -0.444307       -12.0902
  57   2.0000      -0.438981       -11.9453
  58   2.0000      -0.431667       -11.7463
  59   2.0000      -0.424071       -11.5396
  60   2.0000      -0.418758       -11.3950
  61   2.0000      -0.413934       -11.2637
  62   2.0000      -0.412931       -11.2364
  63   2.0000      -0.344504        -9.3744
  64   2.0000      -0.333183        -9.0664
  65   2.0000      -0.329177        -8.9574
  66   2.0000      -0.297726        -8.1015
  67   0.0000       0.038876         1.0579
  68   0.0000       0.068958         1.8764
  69   0.0000       0.116145         3.1605
  70   0.0000       0.118570         3.2264
  71   0.0000       0.137663         3.7460

MULLIKEN ATOMIC CHARGES
-----------------------
   0 S :    0.096770
   1 C :   -0.124777
   2 C :   -0.070105
   3 C :    0.058580
   4 C :   -0.165977
   5 H :   -0.025695
   6 C :    0.080556
   7 H :   -0.003866
   8 H :    0.037028
   9 C :   -0.055891
  10 H :    0.020795
  11 H :    0.022909
  12 C :   -0.066774
  13 H :    0.046452
  14 H :    0.049398
  15 H :    0.026983
  16 S :    0.120385
  17 C :   -0.063497
  18 C :   -0.022541
  19 C :   -0.075200
  20 C :   -0.131664
  21 H :   -0.006130
  22 C :    0.136794
  23 H :   -0.010739
  24 H :    0.004198
  25 C :   -0.086338
  26 H :    0.032855
  27 H :    0.014396
  28 C :   -0.029619
  29 H :    0.045179
  30 H :    0.031967
  31 H :    0.017404
  32 H :    0.046746
  33 H :    0.049414
Sum of atomic charges:    0.0000000

LOEWDIN ATOMIC CHARGES
----------------------
   0 S :    0.399250
   1 C :   -0.185875
   2 C :   -0.058707
   3 C :   -0.060752
   4 C :   -0.191477
   5 H :    0.016951
   6 C :   -0.031625
   7 H :    0.025799
   8 H :    0.034670
   9 C :   -0.039794
  10 H :    0.016444
  11 H :    0.026956
  12 C :   -0.071309
  13 H :    0.028589
  14 H :    0.037061
  15 H :    0.025397
  16 S :    0.435688
  17 C :   -0.191940
  18 C :   -0.062875
  19 C :   -0.050965
  20 C :   -0.217957
  21 H :    0.020319
  22 C :   -0.028079
  23 H :    0.021951
  24 H :    0.023552
  25 C :   -0.039413
  26 H :    0.025072
  27 H :    0.024309
  28 C :   -0.064062
  29 H :    0.031421
  30 H :    0.033746
  31 H :    0.015493
  32 H :    0.022907
  33 H :    0.029257

  Mayer bond orders larger than 0.100000
B(  0-S ,  1-C ) :   1.1423 B(  0-S ,  4-C ) :   1.1602 B(  1-C ,  2-C ) :   1.6036
B(  1-C ,  4-C ) :   0.1023 B(  1-C , 32-H ) :   0.9730 B(  2-C ,  3-C ) :   1.2056
B(  2-C ,  6-C ) :   1.0272 B(  3-C ,  4-C ) :   1.6164 B(  3-C ,  5-H ) :   1.0116
B(  4-C , 20-C ) :   0.9685 B(  6-C ,  7-H ) :   0.9373 B(  6-C ,  8-H ) :   0.9393
B(  6-C ,  9-C ) :   1.0463 B(  9-C , 10-H ) :   0.9638 B(  9-C , 11-H ) :   0.9540
B(  9-C , 12-C ) :   1.0766 B( 12-C , 13-H ) :   0.9775 B( 12-C , 14-H ) :   0.9718
B( 12-C , 15-H ) :   0.9730 B( 16-S , 17-C ) :   1.1630 B( 16-S , 20-C ) :   1.1487
B( 17-C , 18-C ) :   1.6172 B( 17-C , 33-H ) :   0.9638 B( 18-C , 19-C ) :   1.2437
B( 18-C , 21-H ) :   1.0015 B( 19-C , 20-C ) :   1.6174 B( 19-C , 22-C ) :   1.0512
B( 22-C , 23-H ) :   0.9191 B( 22-C , 24-H ) :   0.9268 B( 22-C , 25-C ) :   1.0717
B( 25-C , 26-H ) :   0.9554 B( 25-C , 27-H ) :   0.9480 B( 25-C , 28-C ) :   1.0884
B( 28-C , 29-H ) :   0.9734 B( 28-C , 30-H ) :   0.9724 B( 28-C , 31-H ) :   0.9715

Dispersion correction           -0.014325628
FINAL SINGLE POINT ENERGY     -1339.876416320720

DIPOLE MOMENT
-------------
                                X             Y             Z
Electronic contribution:      1.10830     -23.40527       7.53944
Nuclear contribution   :     -0.95194      23.96850      -7.96475
                        -----------------------------------------
Total Dipole Moment    :      0.15636       0.56323      -0.42531
                        -----------------------------------------
Magnitude (a.u.)       :      0.72288
Magnitude (Debye)      :      1.83742

Rotational constants in cm-1:     0.017616     0.008781     0.007292
Rotational constants in MHz :   528.103695   263.250017   218.597509

                             ****ORCA TERMINATED NORMALLY****
TOTAL RUN TIME: 0 days 0 hours 0 minutes 21 seconds 776 msec
