                         Program Version 4.2.1 -  RELEASE  -
|  1> ! wB97X-D3 SP def2-SVP
|  2> %pal
|  3> nprocs 24
|  4> end
|  5>
|  6> * xyz 0 1
|  7> S 	 -51.836 	 11.8658 	 -104.667
|  8> C 	 -52.7073 	 10.4453 	 -104.027
|  9> C 	 -53.6323 	 10.795 	 -103.088
| 10> C 	 -53.6927 	 12.1826 	 -102.76
| 11> C 	 -52.7117 	 12.8859 	 -103.513
| 12> H 	 -54.4068 	 12.7263 	 -102.182
| 13> C 	 -54.5739 	 9.84912 	 -102.497
| 14> H 	 -55.2964 	 10.4991 	 -101.887
| 15> H 	 -54.0273 	 9.2165 	 -101.739
| 16> C 	 -55.3966 	 9.09238 	 -103.458
| 17> H 	 -56.1705 	 9.71497 	 -104.002
| 18> H 	 -54.7092 	 8.68243 	 -104.218
| 19> C 	 -56.0883 	 7.9541 	 -102.775
| 20> H 	 -56.8951 	 8.24933 	 -101.986
| 21> H 	 -56.6002 	 7.47324 	 -103.598
| 22> H 	 -55.4799 	 7.27078 	 -102.24
| 23> S 	 -52.4023 	 15.053 	 -101.89
| 24> C 	 -51.7018 	 16.4943 	 -102.708
| 25> C 	 -52.0139 	 16.5099 	 -104.027
| 26> C 	 -52.4731 	 15.2098 	 -104.519
| 27> C 	 -52.4925 	 14.304 	 -103.465
| 28> H 	 -51.959 	 17.4407 	 -104.565
| 29> C 	 -52.8182 	 15.0027 	 -105.993
| 30> H 	 -53.5923 	 14.2867 	 -106.074
| 31> H 	 -52.0529 	 14.4416 	 -106.476
| 32> C 	 -53.3118 	 16.2876 	 -106.754
| 33> H 	 -53.6332 	 15.7653 	 -107.699
| 34> H 	 -52.423 	 16.915 	 -107.03
| 35> C 	 -54.4245 	 17.0556 	 -106.203
| 36> H 	 -54.4255 	 18.0197 	 -106.718
| 37> H 	 -54.3611 	 17.3067 	 -105.101
| 38> H 	 -55.3177 	 16.4748 	 -106.481
| 39> H 	 -52.5537 	 9.38428 	 -104.368
| 40> H 	 -51.4227 	 17.4404 	 -102.166
| 41> *
| 42>
| 43>                          ****END OF INPUT****

CARTESIAN COORDINATES (ANGSTROEM)
---------------------------------
  S    -51.836000   11.865800  -104.667000
  C    -52.707300   10.445300  -104.027000
  C    -53.632300   10.795000  -103.088000
  C    -53.692700   12.182600  -102.760000
  C    -52.711700   12.885900  -103.513000
  H    -54.406800   12.726300  -102.182000
  C    -54.573900    9.849120  -102.497000
  H    -55.296400   10.499100  -101.887000
  H    -54.027300    9.216500  -101.739000
  C    -55.396600    9.092380  -103.458000
  H    -56.170500    9.714970  -104.002000
  H    -54.709200    8.682430  -104.218000
  C    -56.088300    7.954100  -102.775000
  H    -56.895100    8.249330  -101.986000
  H    -56.600200    7.473240  -103.598000
  H    -55.479900    7.270780  -102.240000
  S    -52.402300   15.053000  -101.890000
  C    -51.701800   16.494300  -102.708000
  C    -52.013900   16.509900  -104.027000
  C    -52.473100   15.209800  -104.519000
  C    -52.492500   14.304000  -103.465000
  H    -51.959000   17.440700  -104.565000
  C    -52.818200   15.002700  -105.993000
  H    -53.592300   14.286700  -106.074000
  H    -52.052900   14.441600  -106.476000
  C    -53.311800   16.287600  -106.754000
  H    -53.633200   15.765300  -107.699000
  H    -52.423000   16.915000  -107.030000
  C    -54.424500   17.055600  -106.203000
  H    -54.425500   18.019700  -106.718000
  H    -54.361100   17.306700  -105.101000
  H    -55.317700   16.474800  -106.481000
  H    -52.553700    9.384280  -104.368000
  H    -51.422700   17.440400  -102.166000

 Total Charge           Charge          ....    0
 Multiplicity           Mult            ....    1
 Number of Electrons    NEL             ....  134
 Basis Dimension        Dim             ....  322

ORBITAL ENERGIES
----------------

  NO   OCC          E(Eh)            E(eV)
   0   2.0000     -88.970278     -2421.0043
   1   2.0000     -88.962382     -2420.7895
   2   2.0000     -10.330847      -281.1166
   3   2.0000     -10.321186      -280.8537
   4   2.0000     -10.318044      -280.7683
   5   2.0000     -10.313832      -280.6536
   6   2.0000     -10.304875      -280.4099
   7   2.0000     -10.294178      -280.1188
   8   2.0000     -10.293562      -280.1021
   9   2.0000     -10.293120      -280.0900
  10   2.0000     -10.292647      -280.0772
  11   2.0000     -10.288460      -279.9632
  12   2.0000     -10.287836      -279.9462
  13   2.0000     -10.286795      -279.9179
  14   2.0000     -10.280756      -279.7536
  15   2.0000     -10.277662      -279.6694
  16   2.0000      -8.083551      -219.9646
  17   2.0000      -8.076803      -219.7810
  18   2.0000      -6.042143      -164.4151
  19   2.0000      -6.038326      -164.3112
  20   2.0000      -6.035436      -164.2326
  21   2.0000      -6.034275      -164.2010
  22   2.0000      -6.031953      -164.1378
  23   2.0000      -6.026845      -163.9988
  24   2.0000      -1.002117       -27.2690
  25   2.0000      -0.978712       -26.6321
  26   2.0000      -0.922721       -25.1085
  27   2.0000      -0.910974       -24.7889
  28   2.0000      -0.870486       -23.6871
  29   2.0000      -0.854168       -23.2431
  30   2.0000      -0.845679       -23.0121
  31   2.0000      -0.812503       -22.1093
  32   2.0000      -0.786695       -21.4071
  33   2.0000      -0.767522       -20.8853
  34   2.0000      -0.706577       -19.2269
  35   2.0000      -0.695706       -18.9311
  36   2.0000      -0.685948       -18.6656
  37   2.0000      -0.655461       -17.8360
  38   2.0000      -0.635213       -17.2850
  39   2.0000      -0.609321       -16.5805
  40   2.0000      -0.598057       -16.2740
  41   2.0000      -0.573455       -15.6045
  42   2.0000      -0.561247       -15.2723
  43   2.0000      -0.555096       -15.1049
  44   2.0000      -0.536705       -14.6045
  45   2.0000      -0.533664       -14.5217
  46   2.0000      -0.520145       -14.1539
  47   2.0000      -0.509422       -13.8621
  48   2.0000      -0.507734       -13.8161
  49   2.0000      -0.499037       -13.5795
  50   2.0000      -0.484977       -13.1969
  51   2.0000      -0.474324       -12.9070
  52   2.0000      -0.469836       -12.7849
  53   2.0000      -0.462464       -12.5843
  54   2.0000      -0.459339       -12.4992
  55   2.0000      -0.449920       -12.2429
  56   2.0000      -0.444158       -12.0861
  57   2.0000      -0.440868       -11.9966
  58   2.0000      -0.436091       -11.8666
  59   2.0000      -0.421106       -11.4589
  60   2.0000      -0.414837       -11.2883
  61   2.0000      -0.408369       -11.1123
  62   2.0000      -0.402795       -10.9606
  63   2.0000      -0.347495        -9.4558
  64   2.0000      -0.332301        -9.0424
  65   2.0000      -0.323235        -8.7957
  66   2.0000      -0.282569        -7.6891
  67   0.0000       0.021646         0.5890
  68   0.0000       0.067791         1.8447
  69   0.0000       0.089347         2.4313
  70   0.0000       0.110163         2.9977
  71   0.0000       0.138800         3.7769

MULLIKEN ATOMIC CHARGES
-----------------------
   0 S :    0.109949
   1 C :   -0.163523
   2 C :   -0.040612
   3 C :    0.012307
   4 C :   -0.153617
   5 H :    0.016200
   6 C :    0.031312
   7 H :    0.021294
   8 H :    0.049575
   9 C :   -0.086261
  10 H :    0.044346
  11 H :    0.023450
  12 C :   -0.041539
  13 H :    0.035473
  14 H :    0.030136
  15 H :    0.022688
  16 S :    0.096431
  17 C :   -0.099329
  18 C :   -0.039627
  19 C :   -0.061202
  20 C :   -0.160451
  21 H :    0.022705
  22 C :    0.128238
  23 H :    0.003338
  24 H :    0.026622
  25 C :   -0.134902
  26 H :    0.038621
  27 H :    0.039919
  28 C :   -0.040863
  29 H :    0.036344
  30 H :    0.058238
  31 H :    0.040590
  32 H :    0.066337
  33 H :    0.067815
Sum of atomic charges:    0.0000000

LOEWDIN ATOMIC CHARGES
----------------------
   0 S :    0.392122
   1 C :   -0.205278
   2 C :   -0.066536
   3 C :   -0.065513
   4 C :   -0.173375
   5 H :    0.028633
   6 C :   -0.045745
   7 H :    0.034935
   8 H :    0.040605
   9 C :   -0.046508
  10 H :    0.036816
  11 H :    0.022762
  12 C :   -0.066996
  13 H :    0.033177
  14 H :    0.026194
  15 H :    0.016370
  16 S :    0.376618
  17 C :   -0.177785
  18 C :   -0.066961
  19 C :   -0.052500
  20 C :   -0.201363
  21 H :    0.031029
  22 C :   -0.035516
  23 H :    0.024270
  24 H :    0.030034
  25 C :   -0.051389
  26 H :    0.036007
  27 H :    0.022835
  28 C :   -0.073823
  29 H :    0.032766
  30 H :    0.035273
  31 H :    0.033734
  32 H :    0.038001
  33 H :    0.037110

  Mayer bond orders larger than 0.100000
B(  0-S ,  1-C ) :   1.1074 B(  0-S ,  4-C ) :   1.1590 B(  1-C ,  2-C ) :   1.6239
B(  1-C , 32-H ) :   0.9592 B(  2-C ,  3-C ) :   1.2431 B(  2-C ,  6-C ) :   1.0159
B(  3-C ,  4-C ) :   1.5434 B(  3-C ,  5-H ) :   0.9914 B(  4-C , 20-C ) :   1.0776
B(  6-C ,  7-H ) :   0.9397 B(  6-C ,  8-H ) :   0.9330 B(  6-C ,  9-C ) :   1.0759
B(  9-C , 10-H ) :   0.9483 B(  9-C , 11-H ) :   0.9529 B(  9-C , 12-C ) :   1.0866
B( 12-C , 13-H ) :   0.9703 B( 12-C , 14-H ) :   0.9724 B( 12-C , 15-H ) :   0.9749
B( 16-S , 17-C ) :   1.1119 B( 16-S , 20-C ) :   1.1215 B( 17-C , 18-C ) :   1.6684
B( 17-C , 33-H ) :   0.9570 B( 18-C , 19-C ) :   1.1867 B( 18-C , 21-H ) :   0.9850
B( 19-C , 20-C ) :   1.5986 B( 19-C , 22-C ) :   1.0327 B( 22-C , 23-H ) :   0.9214
B( 22-C , 24-H ) :   0.9229 B( 22-C , 25-C ) :   1.0662 B( 25-C , 26-H ) :   0.9570
B( 25-C , 27-H ) :   0.9538 B( 25-C , 28-C ) :   1.0779 B( 28-C , 29-H ) :   0.9678
B( 28-C , 30-H ) :   0.9695 B( 28-C , 31-H ) :   0.9729

Dispersion correction           -0.014091522
FINAL SINGLE POINT ENERGY     -1339.848288195457

DIPOLE MOMENT
-------------
                                X             Y             Z
Electronic contribution:     17.04217       6.06570       8.64452
Nuclear contribution   :    -17.53571      -6.01911      -9.00671
                        -----------------------------------------
Total Dipole Moment    :     -0.49354       0.04659      -0.36218
                        -----------------------------------------
Magnitude (a.u.)       :      0.61395
Magnitude (Debye)      :      1.56053

Rotational constants in cm-1:     0.023248     0.007022     0.006406
Rotational constants in MHz :   696.960651   210.514084   192.056338

                             ****ORCA TERMINATED NORMALLY****
TOTAL RUN TIME: 0 days 0 hours 0 minutes 21 seconds 343 msec
