                         Program Version 4.2.1 -  RELEASE  -
|  1> ! wB97X-D3 SP def2-SVP
|  2> %pal
|  3> nprocs 24
|  4> end
|  5>
|  6> * xyz 0 1
|  7> S 	 -45.6411 	 8.448 	 -26.1115
|  8> C 	 -46.6249 	 7.0175 	 -26.39
|  9> C 	 -47.8394 	 7.32057 	 -26.9822
| 10> C 	 -48.007 	 8.75296 	 -27.16
| 11> C 	 -46.8907 	 9.47274 	 -26.7274
| 12> H 	 -48.8215 	 9.31594 	 -27.5862
| 13> C 	 -48.932 	 6.32558 	 -27.2339
| 14> H 	 -49.8912 	 6.67985 	 -26.8742
| 15> H 	 -48.7719 	 5.44293 	 -26.6254
| 16> C 	 -48.9879 	 5.94194 	 -28.7204
| 17> H 	 -49.3952 	 6.81856 	 -29.2189
| 18> H 	 -48.0636 	 5.86089 	 -29.2248
| 19> C 	 -49.8067 	 4.63161 	 -29.0121
| 20> H 	 -49.2257 	 3.83774 	 -28.5274
| 21> H 	 -50.8009 	 4.69151 	 -28.5332
| 22> H 	 -49.9428 	 4.37366 	 -30.0884
| 23> S 	 -47.2197 	 11.8076 	 -28.1686
| 24> C 	 -46.6525 	 13.2784 	 -27.4749
| 25> C 	 -46.1582 	 13.1231 	 -26.2236
| 26> C 	 -46.2379 	 11.8109 	 -25.7523
| 27> C 	 -46.7444 	 10.9323 	 -26.723
| 28> H 	 -45.7218 	 14.0483 	 -25.7908
| 29> C 	 -45.7034 	 11.5018 	 -24.3764
| 30> H 	 -44.6085 	 11.5182 	 -24.4017
| 31> H 	 -46.0192 	 10.4896 	 -24.1699
| 32> C 	 -46.2385 	 12.3215 	 -23.1843
| 33> H 	 -47.3251 	 12.2663 	 -23.3516
| 34> H 	 -46.0799 	 13.4451 	 -23.2254
| 35> C 	 -45.6554 	 11.9944 	 -21.7976
| 36> H 	 -46.0249 	 11.0541 	 -21.4679
| 37> H 	 -46.1409 	 12.6159 	 -21.0794
| 38> H 	 -44.5626 	 12.0743 	 -21.6435
| 39> H 	 -46.3563 	 6.0102 	 -26.1314
| 40> H 	 -46.7408 	 14.2104 	 -28.0078
| 41> *
| 42>
| 43>                          ****END OF INPUT****

CARTESIAN COORDINATES (ANGSTROEM)
---------------------------------
  S    -45.641100    8.448000  -26.111500
  C    -46.624900    7.017500  -26.390000
  C    -47.839400    7.320570  -26.982200
  C    -48.007000    8.752960  -27.160000
  C    -46.890700    9.472740  -26.727400
  H    -48.821500    9.315940  -27.586200
  C    -48.932000    6.325580  -27.233900
  H    -49.891200    6.679850  -26.874200
  H    -48.771900    5.442930  -26.625400
  C    -48.987900    5.941940  -28.720400
  H    -49.395200    6.818560  -29.218900
  H    -48.063600    5.860890  -29.224800
  C    -49.806700    4.631610  -29.012100
  H    -49.225700    3.837740  -28.527400
  H    -50.800900    4.691510  -28.533200
  H    -49.942800    4.373660  -30.088400
  S    -47.219700   11.807600  -28.168600
  C    -46.652500   13.278400  -27.474900
  C    -46.158200   13.123100  -26.223600
  C    -46.237900   11.810900  -25.752300
  C    -46.744400   10.932300  -26.723000
  H    -45.721800   14.048300  -25.790800
  C    -45.703400   11.501800  -24.376400
  H    -44.608500   11.518200  -24.401700
  H    -46.019200   10.489600  -24.169900
  C    -46.238500   12.321500  -23.184300
  H    -47.325100   12.266300  -23.351600
  H    -46.079900   13.445100  -23.225400
  C    -45.655400   11.994400  -21.797600
  H    -46.024900   11.054100  -21.467900
  H    -46.140900   12.615900  -21.079400
  H    -44.562600   12.074300  -21.643500
  H    -46.356300    6.010200  -26.131400
  H    -46.740800   14.210400  -28.007800

 Total Charge           Charge          ....    0
 Multiplicity           Mult            ....    1
 Number of Electrons    NEL             ....  134
 Basis Dimension        Dim             ....  322

ORBITAL ENERGIES
----------------

  NO   OCC          E(Eh)            E(eV)
   0   2.0000     -88.968420     -2420.9538
   1   2.0000     -88.965510     -2420.8746
   2   2.0000     -10.329252      -281.0732
   3   2.0000     -10.328591      -281.0553
   4   2.0000     -10.312522      -280.6180
   5   2.0000     -10.310414      -280.5606
   6   2.0000     -10.303780      -280.3801
   7   2.0000     -10.302248      -280.3384
   8   2.0000     -10.295319      -280.1499
   9   2.0000     -10.291491      -280.0457
  10   2.0000     -10.290859      -280.0285
  11   2.0000     -10.288319      -279.9594
  12   2.0000     -10.287691      -279.9423
  13   2.0000     -10.284725      -279.8616
  14   2.0000     -10.282409      -279.7986
  15   2.0000     -10.276137      -279.6279
  16   2.0000      -8.082851      -219.9456
  17   2.0000      -8.080799      -219.8897
  18   2.0000      -6.041403      -164.3949
  19   2.0000      -6.039153      -164.3337
  20   2.0000      -6.037353      -164.2847
  21   2.0000      -6.035259      -164.2277
  22   2.0000      -6.033636      -164.1836
  23   2.0000      -6.031684      -164.1305
  24   2.0000      -1.008523       -27.4433
  25   2.0000      -0.986005       -26.8306
  26   2.0000      -0.911562       -24.8049
  27   2.0000      -0.906407       -24.6646
  28   2.0000      -0.867585       -23.6082
  29   2.0000      -0.854370       -23.2486
  30   2.0000      -0.843545       -22.9540
  31   2.0000      -0.813198       -22.1282
  32   2.0000      -0.785612       -21.3776
  33   2.0000      -0.771680       -20.9985
  34   2.0000      -0.707721       -19.2581
  35   2.0000      -0.701864       -19.0987
  36   2.0000      -0.692813       -18.8524
  37   2.0000      -0.660985       -17.9863
  38   2.0000      -0.637452       -17.3460
  39   2.0000      -0.616895       -16.7866
  40   2.0000      -0.599231       -16.3059
  41   2.0000      -0.571770       -15.5587
  42   2.0000      -0.563739       -15.3401
  43   2.0000      -0.553919       -15.0729
  44   2.0000      -0.524504       -14.2725
  45   2.0000      -0.523684       -14.2502
  46   2.0000      -0.514356       -13.9963
  47   2.0000      -0.510626       -13.8948
  48   2.0000      -0.505539       -13.7564
  49   2.0000      -0.502431       -13.6718
  50   2.0000      -0.491508       -13.3746
  51   2.0000      -0.479123       -13.0376
  52   2.0000      -0.470208       -12.7950
  53   2.0000      -0.465022       -12.6539
  54   2.0000      -0.461285       -12.5522
  55   2.0000      -0.450129       -12.2486
  56   2.0000      -0.444006       -12.0820
  57   2.0000      -0.442763       -12.0482
  58   2.0000      -0.430792       -11.7224
  59   2.0000      -0.428371       -11.6566
  60   2.0000      -0.423402       -11.5214
  61   2.0000      -0.412577       -11.2268
  62   2.0000      -0.402974       -10.9655
  63   2.0000      -0.348849        -9.4927
  64   2.0000      -0.334403        -9.0996
  65   2.0000      -0.329615        -8.9693
  66   2.0000      -0.289011        -7.8644
  67   0.0000       0.029562         0.8044
  68   0.0000       0.080304         2.1852
  69   0.0000       0.109549         2.9810
  70   0.0000       0.119279         3.2457
  71   0.0000       0.135679         3.6920

MULLIKEN ATOMIC CHARGES
-----------------------
   0 S :    0.120960
   1 C :   -0.114451
   2 C :   -0.080735
   3 C :    0.017420
   4 C :   -0.153220
   5 H :    0.011756
   6 C :    0.082121
   7 H :    0.027795
   8 H :    0.008184
   9 C :   -0.070532
  10 H :    0.018408
  11 H :    0.024797
  12 C :   -0.066507
  13 H :    0.035002
  14 H :    0.034690
  15 H :    0.048429
  16 S :    0.107708
  17 C :   -0.096116
  18 C :   -0.043398
  19 C :   -0.040932
  20 C :   -0.154180
  21 H :    0.034256
  22 C :    0.104580
  23 H :    0.038099
  24 H :    0.013518
  25 C :   -0.137254
  26 H :    0.036550
  27 H :    0.029016
  28 C :   -0.008099
  29 H :    0.014692
  30 H :    0.019256
  31 H :    0.048552
  32 H :    0.038172
  33 H :    0.051464
Sum of atomic charges:   -0.0000000

LOEWDIN ATOMIC CHARGES
----------------------
   0 S :    0.421989
   1 C :   -0.197214
   2 C :   -0.053817
   3 C :   -0.068040
   4 C :   -0.196866
   5 H :    0.027751
   6 C :   -0.027849
   7 H :    0.031785
   8 H :    0.025128
   9 C :   -0.039852
  10 H :    0.021556
  11 H :    0.019963
  12 C :   -0.069539
  13 H :    0.025209
  14 H :    0.025319
  15 H :    0.031087
  16 S :    0.416166
  17 C :   -0.186706
  18 C :   -0.077091
  19 C :   -0.060625
  20 C :   -0.198672
  21 H :    0.042623
  22 C :   -0.035988
  23 H :    0.032059
  24 H :    0.021298
  25 C :   -0.049733
  26 H :    0.030026
  27 H :    0.023706
  28 C :   -0.064275
  29 H :    0.019516
  30 H :    0.026902
  31 H :    0.033753
  32 H :    0.024691
  33 H :    0.025738

  Mayer bond orders larger than 0.100000
B(  0-S ,  1-C ) :   1.1287 B(  0-S ,  4-C ) :   1.1588 B(  1-C ,  2-C ) :   1.6254
B(  1-C , 32-H ) :   0.9682 B(  2-C ,  3-C ) :   1.2176 B(  2-C ,  6-C ) :   1.0328
B(  3-C ,  4-C ) :   1.5728 B(  3-C ,  5-H ) :   0.9934 B(  4-C , 20-C ) :   1.0350
B(  6-C ,  7-H ) :   0.9396 B(  6-C ,  8-H ) :   0.9469 B(  6-C ,  9-C ) :   1.0378
B(  9-C , 10-H ) :   0.9551 B(  9-C , 11-H ) :   0.9629 B(  9-C , 12-C ) :   1.0721
B( 12-C , 13-H ) :   0.9778 B( 12-C , 14-H ) :   0.9754 B( 12-C , 15-H ) :   0.9765
B( 16-S , 17-C ) :   1.1616 B( 16-S , 20-C ) :   1.1521 B( 17-C , 18-C ) :   1.6138
B( 17-C , 33-H ) :   0.9666 B( 18-C , 19-C ) :   1.2350 B( 18-C , 21-H ) :   0.9900
B( 19-C , 20-C ) :   1.5624 B( 19-C , 22-C ) :   1.0491 B( 22-C , 23-H ) :   0.9339
B( 22-C , 24-H ) :   0.9229 B( 22-C , 25-C ) :   1.0537 B( 25-C , 26-H ) :   0.9568
B( 25-C , 27-H ) :   0.9567 B( 25-C , 28-C ) :   1.0802 B( 28-C , 29-H ) :   0.9719
B( 28-C , 30-H ) :   0.9693 B( 28-C , 31-H ) :   0.9735

Dispersion correction           -0.013476304
FINAL SINGLE POINT ENERGY     -1339.886574899579

DIPOLE MOMENT
-------------
                                X             Y             Z
Electronic contribution:      7.70228       9.34536      -9.56862
Nuclear contribution   :     -7.87894      -9.32932       9.79842
                        -----------------------------------------
Total Dipole Moment    :     -0.17667       0.01604       0.22979
                        -----------------------------------------
Magnitude (a.u.)       :      0.29030
Magnitude (Debye)      :      0.73788

Rotational constants in cm-1:     0.022230     0.007029     0.005814
Rotational constants in MHz :   666.441270   210.713754   174.313492

                             ****ORCA TERMINATED NORMALLY****
TOTAL RUN TIME: 0 days 0 hours 0 minutes 20 seconds 492 msec
