                         Program Version 4.2.1 -  RELEASE  -
|  1> ! wB97X-D3 SP def2-SVP
|  2> %pal
|  3> nprocs 24
|  4> end
|  5>
|  6> * xyz 0 1
|  7> S 	 -123.839 	 67.3697 	 -40.3193
|  8> C 	 -123.736 	 69.1388 	 -40.1546
|  9> C 	 -123.294 	 69.7423 	 -41.2976
| 10> C 	 -123.067 	 68.7815 	 -42.3417
| 11> C 	 -123.27 	 67.5193 	 -41.974
| 12> H 	 -122.696 	 68.9025 	 -43.3355
| 13> C 	 -123.098 	 71.2263 	 -41.4808
| 14> H 	 -122.043 	 71.3578 	 -41.4189
| 15> H 	 -123.667 	 71.706 	 -40.6778
| 16> C 	 -123.554 	 71.7885 	 -42.821
| 17> H 	 -123.204 	 72.7995 	 -42.8158
| 18> H 	 -123.107 	 71.2603 	 -43.6229
| 19> C 	 -125.123 	 71.7893 	 -43.0391
| 20> H 	 -125.42 	 72.7032 	 -43.6619
| 21> H 	 -125.508 	 70.8493 	 -43.4643
| 22> H 	 -125.521 	 71.834 	 -42.0427
| 23> S 	 -121.868 	 65.0991 	 -42.2549
| 24> C 	 -121.88 	 64.3868 	 -43.8073
| 25> C 	 -122.845 	 64.9158 	 -44.698
| 26> C 	 -123.43 	 66.0954 	 -44.1111
| 27> C 	 -123.049 	 66.3181 	 -42.8072
| 28> H 	 -122.875 	 64.6922 	 -45.7489
| 29> C 	 -124.39 	 66.8888 	 -44.8617
| 30> H 	 -124.647 	 67.7869 	 -44.2721
| 31> H 	 -125.418 	 66.4352 	 -44.9871
| 32> C 	 -123.977 	 67.5149 	 -46.2119
| 33> H 	 -124.676 	 68.3971 	 -46.3472
| 34> H 	 -124.129 	 66.789 	 -46.9758
| 35> C 	 -122.496 	 67.9988 	 -46.3259
| 36> H 	 -121.813 	 67.199 	 -46.0628
| 37> H 	 -122.207 	 68.8631 	 -45.6653
| 38> H 	 -122.222 	 68.2737 	 -47.349
| 39> H 	 -123.97 	 69.6859 	 -39.2217
| 40> H 	 -121.229 	 63.5815 	 -44.0162
| 41> *
| 42>
| 43>                          ****END OF INPUT****

CARTESIAN COORDINATES (ANGSTROEM)
---------------------------------
  S    -123.839000   67.369700  -40.319300
  C    -123.736000   69.138800  -40.154600
  C    -123.294000   69.742300  -41.297600
  C    -123.067000   68.781500  -42.341700
  C    -123.270000   67.519300  -41.974000
  H    -122.696000   68.902500  -43.335500
  C    -123.098000   71.226300  -41.480800
  H    -122.043000   71.357800  -41.418900
  H    -123.667000   71.706000  -40.677800
  C    -123.554000   71.788500  -42.821000
  H    -123.204000   72.799500  -42.815800
  H    -123.107000   71.260300  -43.622900
  C    -125.123000   71.789300  -43.039100
  H    -125.420000   72.703200  -43.661900
  H    -125.508000   70.849300  -43.464300
  H    -125.521000   71.834000  -42.042700
  S    -121.868000   65.099100  -42.254900
  C    -121.880000   64.386800  -43.807300
  C    -122.845000   64.915800  -44.698000
  C    -123.430000   66.095400  -44.111100
  C    -123.049000   66.318100  -42.807200
  H    -122.875000   64.692200  -45.748900
  C    -124.390000   66.888800  -44.861700
  H    -124.647000   67.786900  -44.272100
  H    -125.418000   66.435200  -44.987100
  C    -123.977000   67.514900  -46.211900
  H    -124.676000   68.397100  -46.347200
  H    -124.129000   66.789000  -46.975800
  C    -122.496000   67.998800  -46.325900
  H    -121.813000   67.199000  -46.062800
  H    -122.207000   68.863100  -45.665300
  H    -122.222000   68.273700  -47.349000
  H    -123.970000   69.685900  -39.221700
  H    -121.229000   63.581500  -44.016200

 Total Charge           Charge          ....    0
 Multiplicity           Mult            ....    1
 Number of Electrons    NEL             ....  134
 Basis Dimension        Dim             ....  322

ORBITAL ENERGIES
----------------

  NO   OCC          E(Eh)            E(eV)
   0   2.0000     -88.968618     -2420.9592
   1   2.0000     -88.961814     -2420.7740
   2   2.0000     -10.325888      -280.9817
   3   2.0000     -10.323661      -280.9211
   4   2.0000     -10.320231      -280.8278
   5   2.0000     -10.313801      -280.6528
   6   2.0000     -10.301470      -280.3172
   7   2.0000     -10.298755      -280.2434
   8   2.0000     -10.297612      -280.2123
   9   2.0000     -10.293397      -280.0976
  10   2.0000     -10.289929      -280.0032
  11   2.0000     -10.288619      -279.9676
  12   2.0000     -10.285541      -279.8838
  13   2.0000     -10.284159      -279.8462
  14   2.0000     -10.283820      -279.8370
  15   2.0000     -10.283389      -279.8252
  16   2.0000      -8.083757      -219.9702
  17   2.0000      -8.076354      -219.7688
  18   2.0000      -6.042058      -164.4127
  19   2.0000      -6.038300      -164.3105
  20   2.0000      -6.034954      -164.2195
  21   2.0000      -6.034617      -164.2103
  22   2.0000      -6.031083      -164.1141
  23   2.0000      -6.026853      -163.9990
  24   2.0000      -1.007116       -27.4050
  25   2.0000      -0.984984       -26.8028
  26   2.0000      -0.913752       -24.8645
  27   2.0000      -0.911837       -24.8123
  28   2.0000      -0.866703       -23.5842
  29   2.0000      -0.849389       -23.1131
  30   2.0000      -0.841210       -22.8905
  31   2.0000      -0.815044       -22.1785
  32   2.0000      -0.786523       -21.4024
  33   2.0000      -0.774166       -21.0661
  34   2.0000      -0.710370       -19.3302
  35   2.0000      -0.698115       -18.9967
  36   2.0000      -0.691003       -18.8031
  37   2.0000      -0.659987       -17.9592
  38   2.0000      -0.642566       -17.4851
  39   2.0000      -0.622097       -16.9281
  40   2.0000      -0.601447       -16.3662
  41   2.0000      -0.563164       -15.3245
  42   2.0000      -0.560635       -15.2557
  43   2.0000      -0.553765       -15.0687
  44   2.0000      -0.541181       -14.7263
  45   2.0000      -0.536461       -14.5978
  46   2.0000      -0.518946       -14.1212
  47   2.0000      -0.509706       -13.8698
  48   2.0000      -0.498206       -13.5569
  49   2.0000      -0.494531       -13.4569
  50   2.0000      -0.491686       -13.3795
  51   2.0000      -0.478678       -13.0255
  52   2.0000      -0.471318       -12.8252
  53   2.0000      -0.461103       -12.5472
  54   2.0000      -0.458134       -12.4665
  55   2.0000      -0.450597       -12.2614
  56   2.0000      -0.446397       -12.1471
  57   2.0000      -0.440660       -11.9910
  58   2.0000      -0.435672       -11.8552
  59   2.0000      -0.427155       -11.6235
  60   2.0000      -0.423016       -11.5108
  61   2.0000      -0.417455       -11.3595
  62   2.0000      -0.407385       -11.0855
  63   2.0000      -0.345498        -9.4015
  64   2.0000      -0.333619        -9.0782
  65   2.0000      -0.328863        -8.9488
  66   2.0000      -0.295488        -8.0407
  67   0.0000       0.038109         1.0370
  68   0.0000       0.065449         1.7810
  69   0.0000       0.112208         3.0533
  70   0.0000       0.114237         3.1085
  71   0.0000       0.118988         3.2378

MULLIKEN ATOMIC CHARGES
-----------------------
   0 S :    0.094146
   1 C :   -0.148242
   2 C :   -0.077721
   3 C :    0.041817
   4 C :   -0.154828
   5 H :   -0.025394
   6 C :    0.091237
   7 H :    0.037828
   8 H :    0.022536
   9 C :   -0.072496
  10 H :    0.027065
  11 H :    0.024180
  12 C :   -0.071169
  13 H :    0.054006
  14 H :    0.045495
  15 H :    0.022003
  16 S :    0.117848
  17 C :   -0.093060
  18 C :   -0.001539
  19 C :   -0.057948
  20 C :   -0.125269
  21 H :    0.025016
  22 C :    0.027085
  23 H :    0.018692
  24 H :    0.053727
  25 C :   -0.091287
  26 H :    0.044769
  27 H :    0.027627
  28 C :   -0.072413
  29 H :    0.034797
  30 H :    0.043225
  31 H :    0.034586
  32 H :    0.054003
  33 H :    0.049680
Sum of atomic charges:   -0.0000000

LOEWDIN ATOMIC CHARGES
----------------------
   0 S :    0.375036
   1 C :   -0.193575
   2 C :   -0.062086
   3 C :   -0.067926
   4 C :   -0.179403
   5 H :    0.026380
   6 C :   -0.025916
   7 H :    0.034556
   8 H :    0.030188
   9 C :   -0.036086
  10 H :    0.024164
  11 H :    0.015524
  12 C :   -0.068858
  13 H :    0.037350
  14 H :    0.027415
  15 H :    0.020384
  16 S :    0.414757
  17 C :   -0.177583
  18 C :   -0.069755
  19 C :   -0.056605
  20 C :   -0.192891
  21 H :    0.030593
  22 C :   -0.050810
  23 H :    0.032017
  24 H :    0.045298
  25 C :   -0.038087
  26 H :    0.034851
  27 H :    0.015313
  28 C :   -0.074599
  29 H :    0.024982
  30 H :    0.026380
  31 H :    0.027802
  32 H :    0.033039
  33 H :    0.018149

  Mayer bond orders larger than 0.100000
B(  0-S ,  1-C ) :   1.1091 B(  0-S ,  4-C ) :   1.1324 B(  1-C ,  2-C ) :   1.6673
B(  1-C , 32-H ) :   0.9632 B(  2-C ,  3-C ) :   1.1728 B(  2-C ,  6-C ) :   1.0121
B(  3-C ,  4-C ) :   1.6555 B(  3-C ,  5-H ) :   0.9942 B(  4-C , 20-C ) :   0.9919
B(  6-C ,  7-H ) :   0.9268 B(  6-C ,  8-H ) :   0.9413 B(  6-C ,  9-C ) :   1.1009
B(  9-C , 10-H ) :   0.9553 B(  9-C , 11-H ) :   0.9516 B(  9-C , 12-C ) :   1.0589
B( 12-C , 13-H ) :   0.9780 B( 12-C , 14-H ) :   0.9752 B( 12-C , 15-H ) :   0.9795
B( 16-S , 17-C ) :   1.1931 B( 16-S , 20-C ) :   1.1248 B( 17-C , 18-C ) :   1.5783
B( 17-C , 33-H ) :   0.9711 B( 18-C , 19-C ) :   1.2244 B( 18-C , 21-H ) :   0.9899
B( 19-C , 20-C ) :   1.6191 B( 19-C , 22-C ) :   1.0750 B( 22-C , 23-H ) :   0.9284
B( 22-C , 24-H ) :   0.9318 B( 22-C , 25-C ) :   1.0530 B( 25-C , 26-H ) :   0.9613
B( 25-C , 27-H ) :   0.9554 B( 25-C , 28-C ) :   1.0827 B( 28-C , 29-H ) :   0.9656
B( 28-C , 30-H ) :   0.9705 B( 28-C , 31-H ) :   0.9725

Dispersion correction           -0.015912078
FINAL SINGLE POINT ENERGY     -1339.882131110889

DIPOLE MOMENT
-------------
                                X             Y             Z
Electronic contribution:      5.55562     -22.19178      19.14411
Nuclear contribution   :     -5.44582      22.65106     -19.70094
                        -----------------------------------------
Total Dipole Moment    :      0.10980       0.45928      -0.55683
                        -----------------------------------------
Magnitude (a.u.)       :      0.73010
Magnitude (Debye)      :      1.85577

Rotational constants in cm-1:     0.018327     0.010518     0.007458
Rotational constants in MHz :   549.443979   315.333312   223.594577

                             ****ORCA TERMINATED NORMALLY****
TOTAL RUN TIME: 0 days 0 hours 0 minutes 23 seconds 203 msec
