                         Program Version 4.2.1 -  RELEASE  -
|  1> ! wB97X-D3 SP def2-SVP
|  2> %pal
|  3> nprocs 24
|  4> end
|  5>
|  6> * xyz 0 1
|  7> S 	 -31.3683 	 8.60489 	 16.6937
|  8> C 	 -31.0515 	 8.95621 	 15.0335
|  9> C 	 -32.103 	 9.64466 	 14.4163
| 10> C 	 -33.268 	 9.757 	 15.2949
| 11> C 	 -33.0003 	 9.24118 	 16.5783
| 12> H 	 -34.1679 	 10.3233 	 14.9303
| 13> C 	 -32.1061 	 10.3926 	 13.12
| 14> H 	 -33.0053 	 9.98578 	 12.56
| 15> H 	 -31.1995 	 10.1516 	 12.6087
| 16> C 	 -32.3144 	 11.9106 	 13.1491
| 17> H 	 -32.0664 	 12.3124 	 12.1424
| 18> H 	 -33.3409 	 12.0281 	 13.3243
| 19> C 	 -31.4166 	 12.5996 	 14.2327
| 20> H 	 -31.1633 	 13.6607 	 13.9126
| 21> H 	 -31.8747 	 12.7169 	 15.1648
| 22> H 	 -30.494 	 12.0522 	 14.3183
| 23> S 	 -33.1663 	 9.29627 	 19.3359
| 24> C 	 -34.6438 	 8.82052 	 20.0026
| 25> C 	 -35.77 	 9.14332 	 19.234
| 26> C 	 -35.3921 	 9.38548 	 17.8706
| 27> C 	 -33.9449 	 9.28558 	 17.7101
| 28> H 	 -36.7012 	 9.04757 	 19.8095
| 29> C 	 -36.4465 	 9.75169 	 16.8834
| 30> H 	 -37.3555 	 9.20336 	 17.2279
| 31> H 	 -36.0299 	 9.17123 	 16.0661
| 32> C 	 -36.6015 	 11.1939 	 16.5206
| 33> H 	 -35.5822 	 11.6137 	 16.2809
| 34> H 	 -36.9645 	 11.7435 	 17.378
| 35> C 	 -37.4997 	 11.447 	 15.2735
| 36> H 	 -38.5069 	 11.0077 	 15.3432
| 37> H 	 -37.0776 	 11.1434 	 14.3116
| 38> H 	 -37.6232 	 12.5335 	 15.266
| 39> H 	 -30.0822 	 8.71707 	 14.6167
| 40> H 	 -34.77 	 8.51778 	 21.0501
| 41> *
| 42>
| 43>                          ****END OF INPUT****

CARTESIAN COORDINATES (ANGSTROEM)
---------------------------------
  S    -31.368300    8.604890   16.693700
  C    -31.051500    8.956210   15.033500
  C    -32.103000    9.644660   14.416300
  C    -33.268000    9.757000   15.294900
  C    -33.000300    9.241180   16.578300
  H    -34.167900   10.323300   14.930300
  C    -32.106100   10.392600   13.120000
  H    -33.005300    9.985780   12.560000
  H    -31.199500   10.151600   12.608700
  C    -32.314400   11.910600   13.149100
  H    -32.066400   12.312400   12.142400
  H    -33.340900   12.028100   13.324300
  C    -31.416600   12.599600   14.232700
  H    -31.163300   13.660700   13.912600
  H    -31.874700   12.716900   15.164800
  H    -30.494000   12.052200   14.318300
  S    -33.166300    9.296270   19.335900
  C    -34.643800    8.820520   20.002600
  C    -35.770000    9.143320   19.234000
  C    -35.392100    9.385480   17.870600
  C    -33.944900    9.285580   17.710100
  H    -36.701200    9.047570   19.809500
  C    -36.446500    9.751690   16.883400
  H    -37.355500    9.203360   17.227900
  H    -36.029900    9.171230   16.066100
  C    -36.601500   11.193900   16.520600
  H    -35.582200   11.613700   16.280900
  H    -36.964500   11.743500   17.378000
  C    -37.499700   11.447000   15.273500
  H    -38.506900   11.007700   15.343200
  H    -37.077600   11.143400   14.311600
  H    -37.623200   12.533500   15.266000
  H    -30.082200    8.717070   14.616700
  H    -34.770000    8.517780   21.050100

 Total Charge           Charge          ....    0
 Multiplicity           Mult            ....    1
 Number of Electrons    NEL             ....  134
 Basis Dimension        Dim             ....  322

ORBITAL ENERGIES
----------------

  NO   OCC          E(Eh)            E(eV)
   0   2.0000     -88.969713     -2420.9890
   1   2.0000     -88.965551     -2420.8757
   2   2.0000     -10.337765      -281.3049
   3   2.0000     -10.336169      -281.2615
   4   2.0000     -10.315151      -280.6895
   5   2.0000     -10.313651      -280.6487
   6   2.0000     -10.311775      -280.5977
   7   2.0000     -10.303861      -280.3823
   8   2.0000     -10.301486      -280.3177
   9   2.0000     -10.294352      -280.1236
  10   2.0000     -10.294094      -280.1165
  11   2.0000     -10.290981      -280.0318
  12   2.0000     -10.289250      -279.9847
  13   2.0000     -10.288072      -279.9527
  14   2.0000     -10.284644      -279.8594
  15   2.0000     -10.274315      -279.5783
  16   2.0000      -8.084481      -219.9899
  17   2.0000      -8.080799      -219.8897
  18   2.0000      -6.043088      -164.4408
  19   2.0000      -6.039104      -164.3324
  20   2.0000      -6.038997      -164.3295
  21   2.0000      -6.035578      -164.2364
  22   2.0000      -6.035113      -164.2238
  23   2.0000      -6.031421      -164.1233
  24   2.0000      -1.001285       -27.2464
  25   2.0000      -0.981179       -26.6992
  26   2.0000      -0.916100       -24.9284
  27   2.0000      -0.912090       -24.8192
  28   2.0000      -0.861946       -23.4548
  29   2.0000      -0.854150       -23.2426
  30   2.0000      -0.842540       -22.9267
  31   2.0000      -0.808080       -21.9890
  32   2.0000      -0.783585       -21.3224
  33   2.0000      -0.770576       -20.9684
  34   2.0000      -0.711459       -19.3598
  35   2.0000      -0.702635       -19.1197
  36   2.0000      -0.689401       -18.7595
  37   2.0000      -0.655074       -17.8255
  38   2.0000      -0.631141       -17.1742
  39   2.0000      -0.623650       -16.9704
  40   2.0000      -0.586474       -15.9588
  41   2.0000      -0.571785       -15.5591
  42   2.0000      -0.557848       -15.1798
  43   2.0000      -0.552473       -15.0336
  44   2.0000      -0.539913       -14.6918
  45   2.0000      -0.528735       -14.3876
  46   2.0000      -0.514649       -14.0043
  47   2.0000      -0.505905       -13.7664
  48   2.0000      -0.505097       -13.7444
  49   2.0000      -0.496178       -13.5017
  50   2.0000      -0.492131       -13.3916
  51   2.0000      -0.482017       -13.1163
  52   2.0000      -0.470359       -12.7991
  53   2.0000      -0.462740       -12.5918
  54   2.0000      -0.459890       -12.5142
  55   2.0000      -0.453908       -12.3515
  56   2.0000      -0.446811       -12.1583
  57   2.0000      -0.437338       -11.9006
  58   2.0000      -0.428460       -11.6590
  59   2.0000      -0.426418       -11.6034
  60   2.0000      -0.421581       -11.4718
  61   2.0000      -0.416146       -11.3239
  62   2.0000      -0.413283       -11.2460
  63   2.0000      -0.353967        -9.6319
  64   2.0000      -0.328021        -8.9259
  65   2.0000      -0.325792        -8.8652
  66   2.0000      -0.273071        -7.4306
  67   0.0000       0.012499         0.3401
  68   0.0000       0.076644         2.0856
  69   0.0000       0.091024         2.4769
  70   0.0000       0.113184         3.0799
  71   0.0000       0.121058         3.2942

MULLIKEN ATOMIC CHARGES
-----------------------
   0 S :    0.119899
   1 C :   -0.132588
   2 C :   -0.081944
   3 C :   -0.034649
   4 C :   -0.094780
   5 H :    0.026066
   6 C :    0.036720
   7 H :    0.041303
   8 H :    0.013891
   9 C :   -0.057677
  10 H :    0.040847
  11 H :    0.012776
  12 C :   -0.031737
  13 H :    0.033326
  14 H :    0.029709
  15 H :    0.028128
  16 S :    0.104197
  17 C :   -0.108364
  18 C :   -0.058063
  19 C :   -0.048084
  20 C :   -0.161979
  21 H :    0.032155
  22 C :    0.069959
  23 H :    0.029691
  24 H :    0.020946
  25 C :   -0.059395
  26 H :    0.036563
  27 H :    0.028284
  28 C :   -0.046870
  29 H :    0.035786
  30 H :    0.034000
  31 H :    0.035199
  32 H :    0.048915
  33 H :    0.057771
Sum of atomic charges:   -0.0000000

LOEWDIN ATOMIC CHARGES
----------------------
   0 S :    0.416545
   1 C :   -0.210211
   2 C :   -0.060483
   3 C :   -0.074956
   4 C :   -0.194176
   5 H :    0.037084
   6 C :   -0.038790
   7 H :    0.040739
   8 H :    0.022005
   9 C :   -0.034169
  10 H :    0.032244
  11 H :    0.011764
  12 C :   -0.061475
  13 H :    0.031925
  14 H :    0.019617
  15 H :    0.023690
  16 S :    0.404344
  17 C :   -0.203671
  18 C :   -0.083414
  19 C :   -0.044018
  20 C :   -0.183658
  21 H :    0.040179
  22 C :   -0.046369
  23 H :    0.036036
  24 H :    0.033848
  25 C :   -0.039149
  26 H :    0.031859
  27 H :    0.025418
  28 C :   -0.065429
  29 H :    0.026698
  30 H :    0.023412
  31 H :    0.029361
  32 H :    0.025654
  33 H :    0.027545

  Mayer bond orders larger than 0.100000
B(  0-S ,  1-C ) :   1.1336 B(  0-S ,  4-C ) :   1.1567 B(  1-C ,  2-C ) :   1.5910
B(  1-C , 32-H ) :   0.9682 B(  2-C ,  3-C ) :   1.2507 B(  2-C ,  6-C ) :   1.0372
B(  3-C ,  4-C ) :   1.5231 B(  3-C ,  5-H ) :   0.9822 B(  4-C , 20-C ) :   1.1045
B(  6-C ,  7-H ) :   0.9376 B(  6-C ,  8-H ) :   0.9409 B(  6-C ,  9-C ) :   1.0743
B(  9-C , 10-H ) :   0.9589 B(  9-C , 11-H ) :   0.9549 B(  9-C , 12-C ) :   1.0707
B( 12-C , 13-H ) :   0.9769 B( 12-C , 14-H ) :   0.9729 B( 12-C , 15-H ) :   0.9790
B( 16-S , 17-C ) :   1.1764 B( 16-S , 20-C ) :   1.1386 B( 17-C , 18-C ) :   1.5970
B( 17-C , 33-H ) :   0.9622 B( 18-C , 19-C ) :   1.2431 B( 18-C , 21-H ) :   0.9906
B( 19-C , 20-C ) :   1.5202 B( 19-C , 22-C ) :   1.0369 B( 22-C , 23-H ) :   0.9285
B( 22-C , 24-H ) :   0.9220 B( 22-C , 25-C ) :   1.0703 B( 25-C , 26-H ) :   0.9491
B( 25-C , 27-H ) :   0.9511 B( 25-C , 28-C ) :   1.0776 B( 28-C , 29-H ) :   0.9748
B( 28-C , 30-H ) :   0.9764 B( 28-C , 31-H ) :   0.9749

Dispersion correction           -0.014965260
FINAL SINGLE POINT ENERGY     -1339.852047948516

DIPOLE MOMENT
-------------
                                X             Y             Z
Electronic contribution:     12.75986     -16.81499      19.75545
Nuclear contribution   :    -13.15040      17.21424     -20.03810
                        -----------------------------------------
Total Dipole Moment    :     -0.39054       0.39925      -0.28265
                        -----------------------------------------
Magnitude (a.u.)       :      0.62595
Magnitude (Debye)      :      1.59104

Rotational constants in cm-1:     0.016619     0.010494     0.007201
Rotational constants in MHz :   498.219360   314.601325   215.886006

                             ****ORCA TERMINATED NORMALLY****
TOTAL RUN TIME: 0 days 0 hours 0 minutes 22 seconds 374 msec
