                         Program Version 4.2.1 -  RELEASE  -
|  1> ! wB97X-D3 SP def2-SVP
|  2> %pal
|  3> nprocs 24
|  4> end
|  5>
|  6> * xyz 0 1
|  7> S 	 -103.243 	 2.99951 	 -106.513
|  8> C 	 -104.395 	 2.20911 	 -105.484
|  9> C 	 -103.84 	 1.13791 	 -104.823
| 10> C 	 -102.466 	 1.08214 	 -105.011
| 11> C 	 -101.928 	 1.95724 	 -105.939
| 12> H 	 -101.81 	 0.309631 	 -104.603
| 13> C 	 -104.639 	 0.203875 	 -103.89
| 14> H 	 -105.675 	 0.375407 	 -104.153
| 15> H 	 -104.494 	 0.524144 	 -102.839
| 16> C 	 -104.539 	 -1.3207 	 -104.154
| 17> H 	 -104.836 	 -1.56391 	 -105.151
| 18> H 	 -103.452 	 -1.54956 	 -104.103
| 19> C 	 -105.293 	 -2.06059 	 -103.012
| 20> H 	 -106.365 	 -1.8715 	 -102.959
| 21> H 	 -104.975 	 -3.15812 	 -103.085
| 22> H 	 -104.849 	 -1.7357 	 -102.111
| 23> S 	 -100.067 	 2.4825 	 -108.018
| 24> C 	 -98.3381 	 2.43676 	 -107.622
| 25> C 	 -98.1285 	 2.15086 	 -106.269
| 26> C 	 -99.3124 	 1.96479 	 -105.524
| 27> C 	 -100.456 	 2.15445 	 -106.32
| 28> H 	 -97.1541 	 2.27836 	 -105.924
| 29> C 	 -99.394 	 1.69004 	 -103.999
| 30> H 	 -99.4864 	 0.610436 	 -103.752
| 31> H 	 -100.292 	 2.23294 	 -103.656
| 32> C 	 -98.258 	 2.25523 	 -103.083
| 33> H 	 -98.2409 	 3.33421 	 -103.214
| 34> H 	 -97.4023 	 1.76095 	 -103.439
| 35> C 	 -98.405 	 1.91718 	 -101.61
| 36> H 	 -97.4263 	 2.06297 	 -101.175
| 37> H 	 -98.69 	 0.859301 	 -101.469
| 38> H 	 -99.2822 	 2.4023 	 -101.192
| 39> H 	 -105.451 	 2.44477 	 -105.426
| 40> H 	 -97.6 	 2.64015 	 -108.356
| 41> *
| 42>
| 43>                          ****END OF INPUT****

CARTESIAN COORDINATES (ANGSTROEM)
---------------------------------
  S    -103.243000    2.999510  -106.513000
  C    -104.395000    2.209110  -105.484000
  C    -103.840000    1.137910  -104.823000
  C    -102.466000    1.082140  -105.011000
  C    -101.928000    1.957240  -105.939000
  H    -101.810000    0.309631  -104.603000
  C    -104.639000    0.203875  -103.890000
  H    -105.675000    0.375407  -104.153000
  H    -104.494000    0.524144  -102.839000
  C    -104.539000   -1.320700  -104.154000
  H    -104.836000   -1.563910  -105.151000
  H    -103.452000   -1.549560  -104.103000
  C    -105.293000   -2.060590  -103.012000
  H    -106.365000   -1.871500  -102.959000
  H    -104.975000   -3.158120  -103.085000
  H    -104.849000   -1.735700  -102.111000
  S    -100.067000    2.482500  -108.018000
  C    -98.338100    2.436760  -107.622000
  C    -98.128500    2.150860  -106.269000
  C    -99.312400    1.964790  -105.524000
  C    -100.456000    2.154450  -106.320000
  H    -97.154100    2.278360  -105.924000
  C    -99.394000    1.690040  -103.999000
  H    -99.486400    0.610436  -103.752000
  H    -100.292000    2.232940  -103.656000
  C    -98.258000    2.255230  -103.083000
  H    -98.240900    3.334210  -103.214000
  H    -97.402300    1.760950  -103.439000
  C    -98.405000    1.917180  -101.610000
  H    -97.426300    2.062970  -101.175000
  H    -98.690000    0.859301  -101.469000
  H    -99.282200    2.402300  -101.192000
  H    -105.451000    2.444770  -105.426000
  H    -97.600000    2.640150  -108.356000

 Total Charge           Charge          ....    0
 Multiplicity           Mult            ....    1
 Number of Electrons    NEL             ....  134
 Basis Dimension        Dim             ....  322

ORBITAL ENERGIES
----------------

  NO   OCC          E(Eh)            E(eV)
   0   2.0000     -88.969167     -2420.9741
   1   2.0000     -88.966483     -2420.9011
   2   2.0000     -10.337130      -281.2876
   3   2.0000     -10.334690      -281.2212
   4   2.0000     -10.319842      -280.8172
   5   2.0000     -10.312034      -280.6047
   6   2.0000     -10.309358      -280.5319
   7   2.0000     -10.296988      -280.1953
   8   2.0000     -10.296025      -280.1691
   9   2.0000     -10.294130      -280.1175
  10   2.0000     -10.293667      -280.1049
  11   2.0000     -10.290500      -280.0187
  12   2.0000     -10.289897      -280.0023
  13   2.0000     -10.284512      -279.8558
  14   2.0000     -10.282062      -279.7891
  15   2.0000     -10.279388      -279.7164
  16   2.0000      -8.083036      -219.9506
  17   2.0000      -8.080966      -219.8943
  18   2.0000      -6.041473      -164.3968
  19   2.0000      -6.039507      -164.3434
  20   2.0000      -6.037702      -164.2942
  21   2.0000      -6.035413      -164.2319
  22   2.0000      -6.033901      -164.1908
  23   2.0000      -6.031817      -164.1341
  24   2.0000      -1.001768       -27.2595
  25   2.0000      -0.982760       -26.7422
  26   2.0000      -0.907845       -24.7037
  27   2.0000      -0.906633       -24.6708
  28   2.0000      -0.862581       -23.4720
  29   2.0000      -0.854355       -23.2482
  30   2.0000      -0.845462       -23.0062
  31   2.0000      -0.814441       -22.1621
  32   2.0000      -0.780212       -21.2306
  33   2.0000      -0.769330       -20.9345
  34   2.0000      -0.705772       -19.2050
  35   2.0000      -0.699331       -19.0298
  36   2.0000      -0.691193       -18.8083
  37   2.0000      -0.655184       -17.8285
  38   2.0000      -0.639451       -17.4003
  39   2.0000      -0.622422       -16.9370
  40   2.0000      -0.596496       -16.2315
  41   2.0000      -0.578750       -15.7486
  42   2.0000      -0.569045       -15.4845
  43   2.0000      -0.563830       -15.3426
  44   2.0000      -0.534264       -14.5381
  45   2.0000      -0.519575       -14.1383
  46   2.0000      -0.513991       -13.9864
  47   2.0000      -0.505880       -13.7657
  48   2.0000      -0.497410       -13.5352
  49   2.0000      -0.494897       -13.4668
  50   2.0000      -0.493064       -13.4169
  51   2.0000      -0.480539       -13.0761
  52   2.0000      -0.474360       -12.9080
  53   2.0000      -0.470366       -12.7993
  54   2.0000      -0.461404       -12.5554
  55   2.0000      -0.450198       -12.2505
  56   2.0000      -0.444940       -12.1074
  57   2.0000      -0.440495       -11.9865
  58   2.0000      -0.431308       -11.7365
  59   2.0000      -0.424459       -11.5501
  60   2.0000      -0.421120       -11.4593
  61   2.0000      -0.411290       -11.1918
  62   2.0000      -0.407728       -11.0949
  63   2.0000      -0.350038        -9.5250
  64   2.0000      -0.335885        -9.1399
  65   2.0000      -0.334050        -9.0900
  66   2.0000      -0.287373        -7.8198
  67   0.0000       0.025109         0.6833
  68   0.0000       0.073539         2.0011
  69   0.0000       0.109925         2.9912
  70   0.0000       0.125651         3.4191
  71   0.0000       0.138440         3.7671

MULLIKEN ATOMIC CHARGES
-----------------------
   0 S :    0.105072
   1 C :   -0.125087
   2 C :   -0.070070
   3 C :   -0.007306
   4 C :   -0.129575
   5 H :    0.015144
   6 C :    0.044276
   7 H :    0.007914
   8 H :    0.049303
   9 C :   -0.083520
  10 H :    0.031773
  11 H :    0.027733
  12 C :   -0.036227
  13 H :    0.044437
  14 H :    0.046578
  15 H :    0.014441
  16 S :    0.100965
  17 C :   -0.098484
  18 C :   -0.015436
  19 C :   -0.009893
  20 C :   -0.147185
  21 H :    0.004212
  22 C :   -0.009134
  23 H :    0.046695
  24 H :    0.045330
  25 C :   -0.077939
  26 H :    0.040013
  27 H :    0.019959
  28 C :   -0.023794
  29 H :    0.045405
  30 H :    0.015532
  31 H :    0.031570
  32 H :    0.046417
  33 H :    0.050879
Sum of atomic charges:    0.0000000

LOEWDIN ATOMIC CHARGES
----------------------
   0 S :    0.402435
   1 C :   -0.197794
   2 C :   -0.073142
   3 C :   -0.070580
   4 C :   -0.186612
   5 H :    0.031821
   6 C :   -0.032798
   7 H :    0.026020
   8 H :    0.034508
   9 C :   -0.035929
  10 H :    0.021208
  11 H :    0.022554
  12 C :   -0.063644
  13 H :    0.026606
  14 H :    0.038207
  15 H :    0.018416
  16 S :    0.390634
  17 C :   -0.169320
  18 C :   -0.063965
  19 C :   -0.058379
  20 C :   -0.185595
  21 H :    0.023880
  22 C :   -0.036136
  23 H :    0.030122
  24 H :    0.034760
  25 C :   -0.038369
  26 H :    0.026604
  27 H :    0.013530
  28 C :   -0.062888
  29 H :    0.031491
  30 H :    0.025117
  31 H :    0.026669
  32 H :    0.029148
  33 H :    0.021423

  Mayer bond orders larger than 0.100000
B(  0-S ,  1-C ) :   1.1537 B(  0-S ,  4-C ) :   1.1528 B(  1-C ,  2-C ) :   1.5969
B(  1-C ,  4-C ) :   0.1027 B(  1-C , 32-H ) :   0.9643 B(  2-C ,  3-C ) :   1.2698
B(  2-C ,  6-C ) :   1.0087 B(  3-C ,  4-C ) :   1.5644 B(  3-C ,  5-H ) :   0.9902
B(  4-C , 20-C ) :   1.0125 B(  6-C ,  7-H ) :   0.9414 B(  6-C ,  8-H ) :   0.9480
B(  6-C ,  9-C ) :   1.0525 B(  9-C , 10-H ) :   0.9590 B(  9-C , 11-H ) :   0.9597
B(  9-C , 12-C ) :   1.0721 B( 12-C , 13-H ) :   0.9771 B( 12-C , 14-H ) :   0.9737
B( 12-C , 15-H ) :   0.9732 B( 16-S , 17-C ) :   1.1560 B( 16-S , 20-C ) :   1.1515
B( 17-C , 18-C ) :   1.5920 B( 17-C , 20-C ) :   0.1068 B( 17-C , 33-H ) :   0.9721
B( 18-C , 19-C ) :   1.2518 B( 18-C , 21-H ) :   0.9984 B( 19-C , 20-C ) :   1.5924
B( 19-C , 22-C ) :   1.0155 B( 22-C , 23-H ) :   0.9340 B( 22-C , 24-H ) :   0.9436
B( 22-C , 25-C ) :   1.0707 B( 25-C , 26-H ) :   0.9584 B( 25-C , 27-H ) :   0.9482
B( 25-C , 28-C ) :   1.0936 B( 28-C , 29-H ) :   0.9726 B( 28-C , 30-H ) :   0.9694
B( 28-C , 31-H ) :   0.9735

Dispersion correction           -0.013265298
FINAL SINGLE POINT ENERGY     -1339.874437246114

DIPOLE MOMENT
-------------
                                X             Y             Z
Electronic contribution:      1.16910      15.58573     -27.01866
Nuclear contribution   :     -1.03993     -15.91314      27.62419
                        -----------------------------------------
Total Dipole Moment    :      0.12918      -0.32741       0.60553
                        -----------------------------------------
Magnitude (a.u.)       :      0.70039
Magnitude (Debye)      :      1.78026

Rotational constants in cm-1:     0.015859     0.008377     0.006247
Rotational constants in MHz :   475.441896   251.146677   187.281953

                             ****ORCA TERMINATED NORMALLY****
TOTAL RUN TIME: 0 days 0 hours 0 minutes 20 seconds 947 msec
