                         Program Version 4.2.1 -  RELEASE  -
|  1> ! wB97X-D3 SP def2-SVP
|  2> %pal
|  3> nprocs 24
|  4> end
|  5>
|  6> * xyz 0 1
|  7> S 	 -131.209 	 8.89584 	 -3.42604
|  8> C 	 -130.499 	 9.08966 	 -1.8863
|  9> C 	 -131.402 	 8.8598 	 -0.850866
| 10> C 	 -132.621 	 8.4205 	 -1.43244
| 11> C 	 -132.582 	 8.13025 	 -2.77583
| 12> H 	 -133.413 	 8.263 	 -0.764461
| 13> C 	 -131.26 	 9.05971 	 0.625996
| 14> H 	 -131.191 	 8.08683 	 1.15156
| 15> H 	 -132.118 	 9.60018 	 0.979681
| 16> C 	 -130.073 	 9.92947 	 1.053
| 17> H 	 -129.15 	 9.5023 	 0.753598
| 18> H 	 -130.188 	 10.8954 	 0.573239
| 19> C 	 -129.902 	 10.2876 	 2.54439
| 20> H 	 -130.768 	 10.8242 	 2.95483
| 21> H 	 -129.73 	 9.4623 	 3.26517
| 22> H 	 -129.12 	 11.0058 	 2.77797
| 23> S 	 -133.175 	 7.37748 	 -5.3669
| 24> C 	 -134.763 	 6.86103 	 -5.75641
| 25> C 	 -135.503 	 6.63776 	 -4.58498
| 26> C 	 -134.831 	 7.05042 	 -3.38315
| 27> C 	 -133.617 	 7.57328 	 -3.63073
| 28> H 	 -136.54 	 6.23553 	 -4.58256
| 29> C 	 -135.504 	 7.01141 	 -2.04361
| 30> H 	 -136.569 	 7.03533 	 -2.21106
| 31> H 	 -135.319 	 8.02191 	 -1.6416
| 32> C 	 -135.065 	 5.84929 	 -1.14672
| 33> H 	 -134.037 	 5.60274 	 -1.14977
| 34> H 	 -135.404 	 4.88754 	 -1.59159
| 35> C 	 -135.621 	 6.08571 	 0.246949
| 36> H 	 -135.354 	 6.99408 	 0.704867
| 37> H 	 -135.205 	 5.41398 	 0.97519
| 38> H 	 -136.707 	 6.01657 	 0.155829
| 39> H 	 -129.497 	 9.50391 	 -1.75
| 40> H 	 -135.07 	 6.5991 	 -6.75623
| 41> *
| 42>
| 43>                          ****END OF INPUT****

CARTESIAN COORDINATES (ANGSTROEM)
---------------------------------
  S    -131.209000    8.895840   -3.426040
  C    -130.499000    9.089660   -1.886300
  C    -131.402000    8.859800   -0.850866
  C    -132.621000    8.420500   -1.432440
  C    -132.582000    8.130250   -2.775830
  H    -133.413000    8.263000   -0.764461
  C    -131.260000    9.059710    0.625996
  H    -131.191000    8.086830    1.151560
  H    -132.118000    9.600180    0.979681
  C    -130.073000    9.929470    1.053000
  H    -129.150000    9.502300    0.753598
  H    -130.188000   10.895400    0.573239
  C    -129.902000   10.287600    2.544390
  H    -130.768000   10.824200    2.954830
  H    -129.730000    9.462300    3.265170
  H    -129.120000   11.005800    2.777970
  S    -133.175000    7.377480   -5.366900
  C    -134.763000    6.861030   -5.756410
  C    -135.503000    6.637760   -4.584980
  C    -134.831000    7.050420   -3.383150
  C    -133.617000    7.573280   -3.630730
  H    -136.540000    6.235530   -4.582560
  C    -135.504000    7.011410   -2.043610
  H    -136.569000    7.035330   -2.211060
  H    -135.319000    8.021910   -1.641600
  C    -135.065000    5.849290   -1.146720
  H    -134.037000    5.602740   -1.149770
  H    -135.404000    4.887540   -1.591590
  C    -135.621000    6.085710    0.246949
  H    -135.354000    6.994080    0.704867
  H    -135.205000    5.413980    0.975190
  H    -136.707000    6.016570    0.155829
  H    -129.497000    9.503910   -1.750000
  H    -135.070000    6.599100   -6.756230

 Total Charge           Charge          ....    0
 Multiplicity           Mult            ....    1
 Number of Electrons    NEL             ....  134
 Basis Dimension        Dim             ....  322

ORBITAL ENERGIES
----------------

  NO   OCC          E(Eh)            E(eV)
   0   2.0000     -88.963973     -2420.8328
   1   2.0000     -88.962801     -2420.8009
   2   2.0000     -10.325567      -280.9730
   3   2.0000     -10.325182      -280.9625
   4   2.0000     -10.318256      -280.7740
   5   2.0000     -10.309713      -280.5415
   6   2.0000     -10.298044      -280.2240
   7   2.0000     -10.297832      -280.2183
   8   2.0000     -10.296816      -280.1906
   9   2.0000     -10.295613      -280.1579
  10   2.0000     -10.291785      -280.0537
  11   2.0000     -10.286127      -279.8997
  12   2.0000     -10.286072      -279.8983
  13   2.0000     -10.284128      -279.8454
  14   2.0000     -10.281873      -279.7840
  15   2.0000     -10.273740      -279.5627
  16   2.0000      -8.080451      -219.8803
  17   2.0000      -8.077661      -219.8043
  18   2.0000      -6.038858      -164.3257
  19   2.0000      -6.036191      -164.2531
  20   2.0000      -6.034870      -164.2172
  21   2.0000      -6.032259      -164.1461
  22   2.0000      -6.031060      -164.1135
  23   2.0000      -6.028298      -164.0383
  24   2.0000      -1.016088       -27.6491
  25   2.0000      -0.989246       -26.9187
  26   2.0000      -0.916395       -24.9364
  27   2.0000      -0.914927       -24.8964
  28   2.0000      -0.868753       -23.6400
  29   2.0000      -0.860054       -23.4033
  30   2.0000      -0.848287       -23.0831
  31   2.0000      -0.810377       -22.0515
  32   2.0000      -0.785499       -21.3745
  33   2.0000      -0.776563       -21.1313
  34   2.0000      -0.715328       -19.4651
  35   2.0000      -0.711335       -19.3564
  36   2.0000      -0.691387       -18.8136
  37   2.0000      -0.670692       -18.2505
  38   2.0000      -0.636276       -17.3139
  39   2.0000      -0.623444       -16.9648
  40   2.0000      -0.598360       -16.2822
  41   2.0000      -0.578396       -15.7389
  42   2.0000      -0.564309       -15.3556
  43   2.0000      -0.563108       -15.3230
  44   2.0000      -0.533463       -14.5163
  45   2.0000      -0.526390       -14.3238
  46   2.0000      -0.516841       -14.0639
  47   2.0000      -0.510151       -13.8819
  48   2.0000      -0.504968       -13.7409
  49   2.0000      -0.499924       -13.6036
  50   2.0000      -0.495987       -13.4965
  51   2.0000      -0.487858       -13.2753
  52   2.0000      -0.475254       -12.9323
  53   2.0000      -0.466834       -12.7032
  54   2.0000      -0.460694       -12.5361
  55   2.0000      -0.454080       -12.3562
  56   2.0000      -0.451812       -12.2944
  57   2.0000      -0.440111       -11.9760
  58   2.0000      -0.429291       -11.6816
  59   2.0000      -0.427602       -11.6356
  60   2.0000      -0.420886       -11.4529
  61   2.0000      -0.417282       -11.3548
  62   2.0000      -0.408128       -11.1057
  63   2.0000      -0.363377        -9.8880
  64   2.0000      -0.331573        -9.0226
  65   2.0000      -0.326498        -8.8845
  66   2.0000      -0.279948        -7.6178
  67   0.0000       0.021262         0.5786
  68   0.0000       0.089062         2.4235
  69   0.0000       0.094324         2.5667
  70   0.0000       0.119266         3.2454
  71   0.0000       0.134004         3.6464

MULLIKEN ATOMIC CHARGES
-----------------------
   0 S :    0.110970
   1 C :   -0.132624
   2 C :   -0.090446
   3 C :   -0.016431
   4 C :   -0.061232
   5 H :   -0.031315
   6 C :    0.093954
   7 H :    0.047220
   8 H :    0.024922
   9 C :   -0.091833
  10 H :    0.027993
  11 H :    0.031744
  12 C :   -0.059729
  13 H :    0.018729
  14 H :    0.030852
  15 H :    0.030302
  16 S :    0.084849
  17 C :   -0.074249
  18 C :   -0.046839
  19 C :   -0.084698
  20 C :   -0.098830
  21 H :    0.027486
  22 C :    0.038452
  23 H :    0.012327
  24 H :    0.034019
  25 C :   -0.046995
  26 H :    0.023821
  27 H :    0.021813
  28 C :   -0.002694
  29 H :    0.013118
  30 H :    0.023742
  31 H :    0.033747
  32 H :    0.050386
  33 H :    0.057469
Sum of atomic charges:   -0.0000000

LOEWDIN ATOMIC CHARGES
----------------------
   0 S :    0.440399
   1 C :   -0.213693
   2 C :   -0.062532
   3 C :   -0.066605
   4 C :   -0.199214
   5 H :    0.016051
   6 C :   -0.029391
   7 H :    0.038870
   8 H :    0.032606
   9 C :   -0.040189
  10 H :    0.017573
  11 H :    0.027980
  12 C :   -0.074392
  13 H :    0.023016
  14 H :    0.024711
  15 H :    0.028478
  16 S :    0.386918
  17 C :   -0.189923
  18 C :   -0.076310
  19 C :   -0.061773
  20 C :   -0.172020
  21 H :    0.035066
  22 C :   -0.029535
  23 H :    0.028550
  24 H :    0.033947
  25 C :   -0.039302
  26 H :    0.020412
  27 H :    0.031952
  28 C :   -0.059529
  29 H :    0.016514
  30 H :    0.025783
  31 H :    0.029454
  32 H :    0.027507
  33 H :    0.028622

  Mayer bond orders larger than 0.100000
B(  0-S ,  1-C ) :   1.1560 B(  0-S ,  4-C ) :   1.1613 B(  1-C ,  2-C ) :   1.5796
B(  1-C , 32-H ) :   0.9638 B(  2-C ,  3-C ) :   1.2973 B(  2-C ,  6-C ) :   1.0209
B(  3-C ,  4-C ) :   1.5089 B(  3-C ,  5-H ) :   1.0049 B(  4-C , 20-C ) :   1.0879
B(  6-C ,  7-H ) :   0.9279 B(  6-C ,  8-H ) :   0.9383 B(  6-C ,  9-C ) :   1.0782
B(  9-C , 10-H ) :   0.9511 B(  9-C , 11-H ) :   0.9567 B(  9-C , 12-C ) :   1.0863
B( 12-C , 13-H ) :   0.9726 B( 12-C , 14-H ) :   0.9750 B( 12-C , 15-H ) :   0.9737
B( 16-S , 17-C ) :   1.1599 B( 16-S , 20-C ) :   1.1105 B( 17-C , 18-C ) :   1.5899
B( 17-C , 33-H ) :   0.9715 B( 18-C , 19-C ) :   1.2422 B( 18-C , 21-H ) :   0.9824
B( 19-C , 20-C ) :   1.6440 B( 19-C , 22-C ) :   1.0299 B( 22-C , 23-H ) :   0.9277
B( 22-C , 24-H ) :   0.9446 B( 22-C , 25-C ) :   1.0444 B( 25-C , 26-H ) :   0.9624
B( 25-C , 27-H ) :   0.9447 B( 25-C , 28-C ) :   1.0783 B( 28-C , 29-H ) :   0.9747
B( 28-C , 30-H ) :   0.9693 B( 28-C , 31-H ) :   0.9729

Dispersion correction           -0.014042742
FINAL SINGLE POINT ENERGY     -1339.875521520257

DIPOLE MOMENT
-------------
                                X             Y             Z
Electronic contribution:      3.41366      -0.32688     -31.76577
Nuclear contribution   :     -3.72644       0.29188      32.42408
                        -----------------------------------------
Total Dipole Moment    :     -0.31278      -0.03501       0.65832
                        -----------------------------------------
Magnitude (a.u.)       :      0.72968
Magnitude (Debye)      :      1.85471

Rotational constants in cm-1:     0.020668     0.008363     0.006089
Rotational constants in MHz :   619.608935   250.717354   182.535189

                             ****ORCA TERMINATED NORMALLY****
TOTAL RUN TIME: 0 days 0 hours 0 minutes 20 seconds 736 msec
