                         Program Version 4.2.1 -  RELEASE  -
|  1> ! wB97X-D3 SP def2-SVP
|  2> %pal
|  3> nprocs 24
|  4> end
|  5>
|  6> * xyz 0 1
|  7> S 	 -106.712 	 3.61636 	 -113.036
|  8> C 	 -107.207 	 4.20068 	 -114.599
|  9> C 	 -106.192 	 3.87249 	 -115.538
| 10> C 	 -105.154 	 3.04807 	 -115.005
| 11> C 	 -105.192 	 2.81343 	 -113.605
| 12> H 	 -104.214 	 2.7685 	 -115.441
| 13> C 	 -106.278 	 4.25583 	 -116.891
| 14> H 	 -107.183 	 3.82556 	 -117.336
| 15> H 	 -105.446 	 3.75411 	 -117.501
| 16> C 	 -106.175 	 5.75939 	 -117.259
| 17> H 	 -106.882 	 6.32 	 -116.631
| 18> H 	 -105.231 	 6.22242 	 -116.936
| 19> C 	 -106.44 	 6.09049 	 -118.699
| 20> H 	 -107.404 	 5.7382 	 -119.029
| 21> H 	 -106.323 	 7.14587 	 -118.942
| 22> H 	 -105.659 	 5.63172 	 -119.356
| 23> S 	 -103.828 	 3.02099 	 -111.251
| 24> C 	 -102.802 	 1.61993 	 -110.906
| 25> C 	 -102.51 	 0.818485 	 -111.939
| 26> C 	 -103.451 	 1.04226 	 -112.979
| 27> C 	 -104.165 	 2.23385 	 -112.771
| 28> H 	 -101.749 	 0.0599798 	 -111.791
| 29> C 	 -103.47 	 0.145304 	 -114.234
| 30> H 	 -102.831 	 0.579217 	 -115.003
| 31> H 	 -104.464 	 0.294873 	 -114.634
| 32> C 	 -103.294 	 -1.37416 	 -114.033
| 33> H 	 -103.954 	 -1.62234 	 -113.286
| 34> H 	 -102.326 	 -1.64061 	 -113.66
| 35> C 	 -103.657 	 -2.28182 	 -115.239
| 36> H 	 -103.439 	 -3.3272 	 -114.931
| 37> H 	 -103.09 	 -2.1251 	 -116.117
| 38> H 	 -104.694 	 -2.25718 	 -115.481
| 39> H 	 -108.1 	 4.7106 	 -114.829
| 40> H 	 -102.229 	 1.61812 	 -110.093
| 41> *
| 42>
| 43>                          ****END OF INPUT****

CARTESIAN COORDINATES (ANGSTROEM)
---------------------------------
  S    -106.712000    3.616360  -113.036000
  C    -107.207000    4.200680  -114.599000
  C    -106.192000    3.872490  -115.538000
  C    -105.154000    3.048070  -115.005000
  C    -105.192000    2.813430  -113.605000
  H    -104.214000    2.768500  -115.441000
  C    -106.278000    4.255830  -116.891000
  H    -107.183000    3.825560  -117.336000
  H    -105.446000    3.754110  -117.501000
  C    -106.175000    5.759390  -117.259000
  H    -106.882000    6.320000  -116.631000
  H    -105.231000    6.222420  -116.936000
  C    -106.440000    6.090490  -118.699000
  H    -107.404000    5.738200  -119.029000
  H    -106.323000    7.145870  -118.942000
  H    -105.659000    5.631720  -119.356000
  S    -103.828000    3.020990  -111.251000
  C    -102.802000    1.619930  -110.906000
  C    -102.510000    0.818485  -111.939000
  C    -103.451000    1.042260  -112.979000
  C    -104.165000    2.233850  -112.771000
  H    -101.749000    0.059980  -111.791000
  C    -103.470000    0.145304  -114.234000
  H    -102.831000    0.579217  -115.003000
  H    -104.464000    0.294873  -114.634000
  C    -103.294000   -1.374160  -114.033000
  H    -103.954000   -1.622340  -113.286000
  H    -102.326000   -1.640610  -113.660000
  C    -103.657000   -2.281820  -115.239000
  H    -103.439000   -3.327200  -114.931000
  H    -103.090000   -2.125100  -116.117000
  H    -104.694000   -2.257180  -115.481000
  H    -108.100000    4.710600  -114.829000
  H    -102.229000    1.618120  -110.093000

 Total Charge           Charge          ....    0
 Multiplicity           Mult            ....    1
 Number of Electrons    NEL             ....  134
 Basis Dimension        Dim             ....  322

ORBITAL ENERGIES
----------------

  NO   OCC          E(Eh)            E(eV)
   0   2.0000     -88.968858     -2420.9657
   1   2.0000     -88.965216     -2420.8666
   2   2.0000     -10.334239      -281.2089
   3   2.0000     -10.328756      -281.0597
   4   2.0000     -10.315335      -280.6945
   5   2.0000     -10.307795      -280.4894
   6   2.0000     -10.303808      -280.3809
   7   2.0000     -10.299292      -280.2580
   8   2.0000     -10.295298      -280.1493
   9   2.0000     -10.291610      -280.0489
  10   2.0000     -10.291529      -280.0467
  11   2.0000     -10.289188      -279.9830
  12   2.0000     -10.286535      -279.9108
  13   2.0000     -10.281538      -279.7749
  14   2.0000     -10.278421      -279.6900
  15   2.0000     -10.276585      -279.6401
  16   2.0000      -8.083640      -219.9670
  17   2.0000      -8.078738      -219.8336
  18   2.0000      -6.041974      -164.4105
  19   2.0000      -6.038572      -164.3179
  20   2.0000      -6.037284      -164.2829
  21   2.0000      -6.034139      -164.1973
  22   2.0000      -6.033114      -164.1694
  23   2.0000      -6.029812      -164.0795
  24   2.0000      -1.005726       -27.3672
  25   2.0000      -0.981455       -26.7068
  26   2.0000      -0.914830       -24.8938
  27   2.0000      -0.906637       -24.6708
  28   2.0000      -0.874594       -23.7989
  29   2.0000      -0.854786       -23.2599
  30   2.0000      -0.850632       -23.1469
  31   2.0000      -0.819069       -22.2880
  32   2.0000      -0.783448       -21.3187
  33   2.0000      -0.765820       -20.8390
  34   2.0000      -0.712049       -19.3758
  35   2.0000      -0.708063       -19.2674
  36   2.0000      -0.702088       -19.1048
  37   2.0000      -0.659332       -17.9413
  38   2.0000      -0.644086       -17.5265
  39   2.0000      -0.615103       -16.7378
  40   2.0000      -0.598849       -16.2955
  41   2.0000      -0.574449       -15.6316
  42   2.0000      -0.570158       -15.5148
  43   2.0000      -0.557187       -15.1618
  44   2.0000      -0.531561       -14.4645
  45   2.0000      -0.526028       -14.3139
  46   2.0000      -0.517296       -14.0763
  47   2.0000      -0.513536       -13.9740
  48   2.0000      -0.508320       -13.8321
  49   2.0000      -0.499333       -13.5875
  50   2.0000      -0.493131       -13.4188
  51   2.0000      -0.477778       -13.0010
  52   2.0000      -0.475936       -12.9509
  53   2.0000      -0.460054       -12.5187
  54   2.0000      -0.458171       -12.4675
  55   2.0000      -0.454400       -12.3649
  56   2.0000      -0.448951       -12.2166
  57   2.0000      -0.435767       -11.8578
  58   2.0000      -0.433737       -11.8026
  59   2.0000      -0.430050       -11.7023
  60   2.0000      -0.424097       -11.5403
  61   2.0000      -0.416531       -11.3344
  62   2.0000      -0.400395       -10.8953
  63   2.0000      -0.354286        -9.6406
  64   2.0000      -0.335793        -9.1374
  65   2.0000      -0.324112        -8.8195
  66   2.0000      -0.281787        -7.6678
  67   0.0000       0.019678         0.5355
  68   0.0000       0.070065         1.9066
  69   0.0000       0.099300         2.7021
  70   0.0000       0.118973         3.2374
  71   0.0000       0.136479         3.7138

MULLIKEN ATOMIC CHARGES
-----------------------
   0 S :    0.102039
   1 C :   -0.096109
   2 C :   -0.055724
   3 C :    0.030591
   4 C :   -0.159429
   5 H :    0.009770
   6 C :    0.010905
   7 H :    0.035304
   8 H :    0.025098
   9 C :   -0.068497
  10 H :    0.015426
  11 H :    0.025420
  12 C :   -0.037185
  13 H :    0.026677
  14 H :    0.034541
  15 H :    0.026007
  16 S :    0.112217
  17 C :   -0.030201
  18 C :   -0.026761
  19 C :   -0.067956
  20 C :   -0.150675
  21 H :    0.029159
  22 C :    0.068916
  23 H :    0.042258
  24 H :    0.018971
  25 C :   -0.043046
  26 H :    0.013170
  27 H :    0.021405
  28 C :   -0.037798
  29 H :    0.030563
  30 H :    0.025385
  31 H :    0.030574
  32 H :    0.041145
  33 H :   -0.002159
Sum of atomic charges:    0.0000000

LOEWDIN ATOMIC CHARGES
----------------------
   0 S :    0.391115
   1 C :   -0.191894
   2 C :   -0.070448
   3 C :   -0.063225
   4 C :   -0.181160
   5 H :    0.028524
   6 C :   -0.047238
   7 H :    0.035841
   8 H :    0.036739
   9 C :   -0.043131
  10 H :    0.019258
  11 H :    0.026725
  12 C :   -0.066594
  13 H :    0.021092
  14 H :    0.029056
  15 H :    0.027833
  16 S :    0.399690
  17 C :   -0.148914
  18 C :   -0.060628
  19 C :   -0.047052
  20 C :   -0.201996
  21 H :    0.038521
  22 C :   -0.034569
  23 H :    0.029973
  24 H :    0.031189
  25 C :   -0.031732
  26 H :    0.018832
  27 H :    0.017716
  28 C :   -0.055822
  29 H :    0.033137
  30 H :    0.017786
  31 H :    0.022247
  32 H :    0.023480
  33 H :   -0.004353

  Mayer bond orders larger than 0.100000
B(  0-S ,  1-C ) :   1.1528 B(  0-S ,  4-C ) :   1.1456 B(  1-C ,  2-C ) :   1.5252
B(  1-C ,  4-C ) :   0.1090 B(  1-C , 32-H ) :   0.9801 B(  2-C ,  3-C ) :   1.2822
B(  2-C ,  6-C ) :   1.0605 B(  3-C ,  4-C ) :   1.5170 B(  3-C ,  5-H ) :   0.9885
B(  4-C , 20-C ) :   1.0927 B(  6-C ,  7-H ) :   0.9331 B(  6-C ,  8-H ) :   0.9407
B(  6-C ,  9-C ) :   1.0498 B(  9-C , 10-H ) :   0.9541 B(  9-C , 11-H ) :   0.9518
B(  9-C , 12-C ) :   1.0911 B( 12-C , 13-H ) :   0.9738 B( 12-C , 14-H ) :   0.9716
B( 12-C , 15-H ) :   0.9713 B( 16-S , 17-C ) :   1.1372 B( 16-S , 20-C ) :   1.1326
B( 17-C , 18-C ) :   1.6693 B( 17-C , 33-H ) :   0.9684 B( 18-C , 19-C ) :   1.2029
B( 18-C , 21-H ) :   0.9842 B( 19-C , 20-C ) :   1.5996 B( 19-C , 22-C ) :   1.0405
B( 22-C , 23-H ) :   0.9347 B( 22-C , 24-H ) :   0.9236 B( 22-C , 25-C ) :   1.0605
B( 25-C , 26-H ) :   0.9539 B( 25-C , 27-H ) :   0.9534 B( 25-C , 28-C ) :   1.0933
B( 28-C , 29-H ) :   0.9735 B( 28-C , 30-H ) :   0.9777 B( 28-C , 31-H ) :   0.9757

Dispersion correction           -0.013306500
FINAL SINGLE POINT ENERGY     -1339.853431834573

DIPOLE MOMENT
-------------
                                X             Y             Z
Electronic contribution:     -1.78391       7.46847      26.62463
Nuclear contribution   :      2.10225      -7.70777     -27.13445
                        -----------------------------------------
Total Dipole Moment    :      0.31834      -0.23929      -0.50982
                        -----------------------------------------
Magnitude (a.u.)       :      0.64693
Magnitude (Debye)      :      1.64436

Rotational constants in cm-1:     0.018040     0.007564     0.005955
Rotational constants in MHz :   540.825558   226.761866   178.537003

                             ****ORCA TERMINATED NORMALLY****
TOTAL RUN TIME: 0 days 0 hours 0 minutes 20 seconds 774 msec
