                         Program Version 4.2.1 -  RELEASE  -
|  1> ! wB97X-D3 SP def2-SVP
|  2> %pal
|  3> nprocs 24
|  4> end
|  5>
|  6> * xyz 0 1
|  7> S 	 -91.5255 	 -32.7762 	 -73.7426
|  8> C 	 -91.677 	 -34.0702 	 -74.9549
|  9> C 	 -92.3203 	 -33.6206 	 -76.1058
| 10> C 	 -92.7613 	 -32.2648 	 -75.9337
| 11> C 	 -92.343 	 -31.5703 	 -74.8092
| 12> H 	 -93.4392 	 -31.8117 	 -76.7068
| 13> C 	 -92.6893 	 -34.5514 	 -77.2214
| 14> H 	 -91.7508 	 -35.0253 	 -77.5122
| 15> H 	 -93.0769 	 -33.9781 	 -78.0713
| 16> C 	 -93.6974 	 -35.6498 	 -76.9117
| 17> H 	 -93.9028 	 -36.2256 	 -77.8459
| 18> H 	 -93.3947 	 -36.3261 	 -76.1264
| 19> C 	 -95.0157 	 -34.9883 	 -76.5446
| 20> H 	 -95.2122 	 -34.1008 	 -77.179
| 21> H 	 -95.8656 	 -35.6698 	 -76.776
| 22> H 	 -95.1344 	 -34.7652 	 -75.513
| 23> S 	 -92.2585 	 -29.8274 	 -72.7169
| 24> C 	 -92.8031 	 -28.1984 	 -72.9204
| 25> C 	 -93.3215 	 -27.9301 	 -74.1572
| 26> C 	 -93.1797 	 -29.0795 	 -75.0464
| 27> C 	 -92.6591 	 -30.1831 	 -74.4028
| 28> H 	 -93.6143 	 -26.957 	 -74.5065
| 29> C 	 -93.7655 	 -28.978 	 -76.4641
| 30> H 	 -94.3682 	 -28.0789 	 -76.474
| 31> H 	 -94.3207 	 -29.8726 	 -76.7556
| 32> C 	 -92.6681 	 -28.9469 	 -77.488
| 33> H 	 -92.2106 	 -29.9305 	 -77.586
| 34> H 	 -91.8545 	 -28.3266 	 -77.2039
| 35> C 	 -93.1321 	 -28.5938 	 -78.8584
| 36> H 	 -93.8977 	 -27.7624 	 -78.7325
| 37> H 	 -93.5166 	 -29.4416 	 -79.4232
| 38> H 	 -92.269 	 -28.2422 	 -79.5196
| 39> H 	 -91.2603 	 -35.0322 	 -74.9562
| 40> H 	 -92.7182 	 -27.4916 	 -72.1011
| 41> *
| 42>
| 43>                          ****END OF INPUT****

CARTESIAN COORDINATES (ANGSTROEM)
---------------------------------
  S    -91.525500  -32.776200  -73.742600
  C    -91.677000  -34.070200  -74.954900
  C    -92.320300  -33.620600  -76.105800
  C    -92.761300  -32.264800  -75.933700
  C    -92.343000  -31.570300  -74.809200
  H    -93.439200  -31.811700  -76.706800
  C    -92.689300  -34.551400  -77.221400
  H    -91.750800  -35.025300  -77.512200
  H    -93.076900  -33.978100  -78.071300
  C    -93.697400  -35.649800  -76.911700
  H    -93.902800  -36.225600  -77.845900
  H    -93.394700  -36.326100  -76.126400
  C    -95.015700  -34.988300  -76.544600
  H    -95.212200  -34.100800  -77.179000
  H    -95.865600  -35.669800  -76.776000
  H    -95.134400  -34.765200  -75.513000
  S    -92.258500  -29.827400  -72.716900
  C    -92.803100  -28.198400  -72.920400
  C    -93.321500  -27.930100  -74.157200
  C    -93.179700  -29.079500  -75.046400
  C    -92.659100  -30.183100  -74.402800
  H    -93.614300  -26.957000  -74.506500
  C    -93.765500  -28.978000  -76.464100
  H    -94.368200  -28.078900  -76.474000
  H    -94.320700  -29.872600  -76.755600
  C    -92.668100  -28.946900  -77.488000
  H    -92.210600  -29.930500  -77.586000
  H    -91.854500  -28.326600  -77.203900
  C    -93.132100  -28.593800  -78.858400
  H    -93.897700  -27.762400  -78.732500
  H    -93.516600  -29.441600  -79.423200
  H    -92.269000  -28.242200  -79.519600
  H    -91.260300  -35.032200  -74.956200
  H    -92.718200  -27.491600  -72.101100

 Total Charge           Charge          ....    0
 Multiplicity           Mult            ....    1
 Number of Electrons    NEL             ....  134
 Basis Dimension        Dim             ....  322

ORBITAL ENERGIES
----------------

  NO   OCC          E(Eh)            E(eV)
   0   2.0000     -88.969636     -2420.9869
   1   2.0000     -88.966174     -2420.8927
   2   2.0000     -10.339985      -281.3653
   3   2.0000     -10.333456      -281.1876
   4   2.0000     -10.319035      -280.7952
   5   2.0000     -10.314421      -280.6697
   6   2.0000     -10.308357      -280.5046
   7   2.0000     -10.301387      -280.3150
   8   2.0000     -10.299833      -280.2727
   9   2.0000     -10.297491      -280.2090
  10   2.0000     -10.294144      -280.1179
  11   2.0000     -10.293103      -280.0896
  12   2.0000     -10.288745      -279.9710
  13   2.0000     -10.283550      -279.8296
  14   2.0000     -10.273959      -279.5686
  15   2.0000     -10.273820      -279.5649
  16   2.0000      -8.082600      -219.9387
  17   2.0000      -8.081395      -219.9059
  18   2.0000      -6.041508      -164.3978
  19   2.0000      -6.039958      -164.3556
  20   2.0000      -6.037331      -164.2841
  21   2.0000      -6.035945      -164.2464
  22   2.0000      -6.033071      -164.1682
  23   2.0000      -6.031979      -164.1385
  24   2.0000      -1.003910       -27.3178
  25   2.0000      -0.980679       -26.6856
  26   2.0000      -0.920240       -25.0410
  27   2.0000      -0.917202       -24.9583
  28   2.0000      -0.868452       -23.6318
  29   2.0000      -0.854911       -23.2633
  30   2.0000      -0.840528       -22.8719
  31   2.0000      -0.815898       -22.2017
  32   2.0000      -0.782756       -21.2999
  33   2.0000      -0.772887       -21.0313
  34   2.0000      -0.707232       -19.2447
  35   2.0000      -0.700605       -19.0644
  36   2.0000      -0.690120       -18.7791
  37   2.0000      -0.669846       -18.2274
  38   2.0000      -0.632814       -17.2197
  39   2.0000      -0.619500       -16.8574
  40   2.0000      -0.600759       -16.3475
  41   2.0000      -0.581481       -15.8229
  42   2.0000      -0.574204       -15.6249
  43   2.0000      -0.552481       -15.0338
  44   2.0000      -0.543833       -14.7984
  45   2.0000      -0.523927       -14.2568
  46   2.0000      -0.515171       -14.0185
  47   2.0000      -0.511910       -13.9298
  48   2.0000      -0.503199       -13.6927
  49   2.0000      -0.502853       -13.6833
  50   2.0000      -0.492260       -13.3951
  51   2.0000      -0.481984       -13.1155
  52   2.0000      -0.467692       -12.7266
  53   2.0000      -0.464949       -12.6519
  54   2.0000      -0.457944       -12.4613
  55   2.0000      -0.454310       -12.3624
  56   2.0000      -0.439372       -11.9559
  57   2.0000      -0.433142       -11.7864
  58   2.0000      -0.431479       -11.7411
  59   2.0000      -0.426982       -11.6188
  60   2.0000      -0.421997       -11.4831
  61   2.0000      -0.415971       -11.3192
  62   2.0000      -0.411723       -11.2036
  63   2.0000      -0.363071        -9.8797
  64   2.0000      -0.336739        -9.1631
  65   2.0000      -0.326778        -8.8921
  66   2.0000      -0.283196        -7.7062
  67   0.0000       0.017037         0.4636
  68   0.0000       0.082344         2.2407
  69   0.0000       0.086529         2.3546
  70   0.0000       0.115197         3.1347
  71   0.0000       0.128332         3.4921

MULLIKEN ATOMIC CHARGES
-----------------------
   0 S :    0.093377
   1 C :   -0.090972
   2 C :   -0.101979
   3 C :   -0.031961
   4 C :   -0.070993
   5 H :    0.013351
   6 C :    0.050810
   7 H :    0.031617
   8 H :    0.022859
   9 C :   -0.052540
  10 H :    0.037641
  11 H :    0.031110
  12 C :   -0.064860
  13 H :    0.022571
  14 H :    0.026647
  15 H :    0.043005
  16 S :    0.088928
  17 C :   -0.079264
  18 C :   -0.008756
  19 C :   -0.094518
  20 C :   -0.111875
  21 H :    0.017027
  22 C :    0.076935
  23 H :    0.016290
  24 H :    0.033977
  25 C :   -0.072616
  26 H :    0.025005
  27 H :    0.019607
  28 C :   -0.065833
  29 H :    0.032787
  30 H :    0.031590
  31 H :    0.043038
  32 H :    0.028447
  33 H :    0.059548
Sum of atomic charges:   -0.0000000

LOEWDIN ATOMIC CHARGES
----------------------
   0 S :    0.369432
   1 C :   -0.178881
   2 C :   -0.063398
   3 C :   -0.076107
   4 C :   -0.173411
   5 H :    0.031901
   6 C :   -0.035609
   7 H :    0.033363
   8 H :    0.029763
   9 C :   -0.038643
  10 H :    0.031429
  11 H :    0.022328
  12 C :   -0.067858
  13 H :    0.024002
  14 H :    0.027776
  15 H :    0.023397
  16 S :    0.399301
  17 C :   -0.178527
  18 C :   -0.069962
  19 C :   -0.048252
  20 C :   -0.183269
  21 H :    0.030576
  22 C :   -0.023153
  23 H :    0.027001
  24 H :    0.031116
  25 C :   -0.050831
  26 H :    0.025483
  27 H :    0.019367
  28 C :   -0.072398
  29 H :    0.027614
  30 H :    0.021941
  31 H :    0.035844
  32 H :    0.020128
  33 H :    0.028537

  Mayer bond orders larger than 0.100000
B(  0-S ,  1-C ) :   1.1285 B(  0-S ,  4-C ) :   1.1221 B(  1-C ,  2-C ) :   1.6098
B(  1-C ,  4-C ) :   0.1012 B(  1-C , 32-H ) :   0.9687 B(  2-C ,  3-C ) :   1.2632
B(  2-C ,  6-C ) :   1.0270 B(  3-C ,  4-C ) :   1.5753 B(  3-C ,  5-H ) :   0.9710
B(  4-C , 20-C ) :   1.0764 B(  6-C ,  7-H ) :   0.9295 B(  6-C ,  8-H ) :   0.9434
B(  6-C ,  9-C ) :   1.0895 B(  9-C , 10-H ) :   0.9554 B(  9-C , 11-H ) :   0.9533
B(  9-C , 12-C ) :   1.0701 B( 12-C , 13-H ) :   0.9760 B( 12-C , 14-H ) :   0.9739
B( 12-C , 15-H ) :   0.9750 B( 16-S , 17-C ) :   1.1626 B( 16-S , 20-C ) :   1.1170
B( 17-C , 18-C ) :   1.6152 B( 17-C , 33-H ) :   0.9663 B( 18-C , 19-C ) :   1.2308
B( 18-C , 21-H ) :   0.9884 B( 19-C , 20-C ) :   1.6271 B( 19-C , 22-C ) :   1.0415
B( 22-C , 23-H ) :   0.9342 B( 22-C , 24-H ) :   0.9353 B( 22-C , 25-C ) :   1.0647
B( 25-C , 26-H ) :   0.9470 B( 25-C , 27-H ) :   0.9537 B( 25-C , 28-C ) :   1.0882
B( 28-C , 29-H ) :   0.9734 B( 28-C , 30-H ) :   0.9730 B( 28-C , 31-H ) :   0.9727

Dispersion correction           -0.014393501
FINAL SINGLE POINT ENERGY     -1339.879927800121

DIPOLE MOMENT
-------------
                                X             Y             Z
Electronic contribution:     11.32967       4.56013      26.31842
Nuclear contribution   :    -11.60721      -4.55660     -26.90579
                        -----------------------------------------
Total Dipole Moment    :     -0.27754       0.00353      -0.58737
                        -----------------------------------------
Magnitude (a.u.)       :      0.64965
Magnitude (Debye)      :      1.65127

Rotational constants in cm-1:     0.017687     0.009400     0.006863
Rotational constants in MHz :   530.241649   281.791055   205.754184

                             ****ORCA TERMINATED NORMALLY****
TOTAL RUN TIME: 0 days 0 hours 0 minutes 22 seconds 54 msec
