                         Program Version 4.2.1 -  RELEASE  -
|  1> ! wB97X-D3 SP def2-SVP
|  2> %pal
|  3> nprocs 24
|  4> end
|  5>
|  6> * xyz 0 1
|  7> S 	 -29.1232 	 -38.8691 	 -91.5654
|  8> C 	 -29.1583 	 -37.1658 	 -91.9392
|  9> C 	 -30.2557 	 -36.4826 	 -91.3745
| 10> C 	 -31.0602 	 -37.3928 	 -90.6773
| 11> C 	 -30.5906 	 -38.6761 	 -90.6011
| 12> H 	 -31.9919 	 -37.0892 	 -90.1518
| 13> C 	 -30.5326 	 -35.0593 	 -91.5984
| 14> H 	 -31.5744 	 -35.0958 	 -91.8916
| 15> H 	 -29.9317 	 -34.6488 	 -92.4099
| 16> C 	 -30.3373 	 -34.1152 	 -90.3804
| 17> H 	 -30.7679 	 -33.1984 	 -90.7232
| 18> H 	 -30.9868 	 -34.2814 	 -89.5198
| 19> C 	 -28.8274 	 -34.0927 	 -90.0133
| 20> H 	 -28.7217 	 -33.2329 	 -89.3379
| 21> H 	 -28.4359 	 -35.0834 	 -89.6688
| 22> H 	 -28.2232 	 -33.8731 	 -90.8535
| 23> S 	 -30.506 	 -40.6433 	 -88.5374
| 24> C 	 -31.9852 	 -41.4185 	 -88.2257
| 25> C 	 -33.0146 	 -41.1869 	 -89.1023
| 26> C 	 -32.5574 	 -40.2654 	 -90.1338
| 27> C 	 -31.2793 	 -39.7417 	 -89.8987
| 28> H 	 -33.9531 	 -41.7399 	 -89.0278
| 29> C 	 -33.4151 	 -40.0381 	 -91.3793
| 30> H 	 -33.661 	 -38.969 	 -91.3078
| 31> H 	 -34.4132 	 -40.4987 	 -91.2939
| 32> C 	 -32.8321 	 -40.5546 	 -92.7242
| 33> H 	 -32.1563 	 -39.7476 	 -93.0615
| 34> H 	 -33.5675 	 -40.5182 	 -93.4695
| 35> C 	 -32.1819 	 -41.9912 	 -92.7043
| 36> H 	 -32.0825 	 -42.3182 	 -93.7617
| 37> H 	 -32.7619 	 -42.6081 	 -92.0535
| 38> H 	 -31.1272 	 -41.8882 	 -92.3062
| 39> H 	 -28.4322 	 -36.7265 	 -92.5093
| 40> H 	 -32.1521 	 -42.1179 	 -87.3975
| 41> *
| 42>
| 43>                          ****END OF INPUT****

CARTESIAN COORDINATES (ANGSTROEM)
---------------------------------
  S    -29.123200  -38.869100  -91.565400
  C    -29.158300  -37.165800  -91.939200
  C    -30.255700  -36.482600  -91.374500
  C    -31.060200  -37.392800  -90.677300
  C    -30.590600  -38.676100  -90.601100
  H    -31.991900  -37.089200  -90.151800
  C    -30.532600  -35.059300  -91.598400
  H    -31.574400  -35.095800  -91.891600
  H    -29.931700  -34.648800  -92.409900
  C    -30.337300  -34.115200  -90.380400
  H    -30.767900  -33.198400  -90.723200
  H    -30.986800  -34.281400  -89.519800
  C    -28.827400  -34.092700  -90.013300
  H    -28.721700  -33.232900  -89.337900
  H    -28.435900  -35.083400  -89.668800
  H    -28.223200  -33.873100  -90.853500
  S    -30.506000  -40.643300  -88.537400
  C    -31.985200  -41.418500  -88.225700
  C    -33.014600  -41.186900  -89.102300
  C    -32.557400  -40.265400  -90.133800
  C    -31.279300  -39.741700  -89.898700
  H    -33.953100  -41.739900  -89.027800
  C    -33.415100  -40.038100  -91.379300
  H    -33.661000  -38.969000  -91.307800
  H    -34.413200  -40.498700  -91.293900
  C    -32.832100  -40.554600  -92.724200
  H    -32.156300  -39.747600  -93.061500
  H    -33.567500  -40.518200  -93.469500
  C    -32.181900  -41.991200  -92.704300
  H    -32.082500  -42.318200  -93.761700
  H    -32.761900  -42.608100  -92.053500
  H    -31.127200  -41.888200  -92.306200
  H    -28.432200  -36.726500  -92.509300
  H    -32.152100  -42.117900  -87.397500

 Total Charge           Charge          ....    0
 Multiplicity           Mult            ....    1
 Number of Electrons    NEL             ....  134
 Basis Dimension        Dim             ....  322

ORBITAL ENERGIES
----------------

  NO   OCC          E(Eh)            E(eV)
   0   2.0000     -88.967513     -2420.9291
   1   2.0000     -88.965616     -2420.8775
   2   2.0000     -10.325942      -280.9832
   3   2.0000     -10.325701      -280.9766
   4   2.0000     -10.313534      -280.6455
   5   2.0000     -10.307900      -280.4922
   6   2.0000     -10.307152      -280.4719
   7   2.0000     -10.296540      -280.1831
   8   2.0000     -10.292541      -280.0743
   9   2.0000     -10.291794      -280.0540
  10   2.0000     -10.290904      -280.0297
  11   2.0000     -10.289304      -279.9862
  12   2.0000     -10.287534      -279.9380
  13   2.0000     -10.280171      -279.7377
  14   2.0000     -10.279897      -279.7302
  15   2.0000     -10.278839      -279.7014
  16   2.0000      -8.081850      -219.9183
  17   2.0000      -8.080478      -219.8810
  18   2.0000      -6.040196      -164.3621
  19   2.0000      -6.038900      -164.3268
  20   2.0000      -6.036479      -164.2609
  21   2.0000      -6.035094      -164.2233
  22   2.0000      -6.032763      -164.1598
  23   2.0000      -6.031206      -164.1175
  24   2.0000      -1.003023       -27.2936
  25   2.0000      -0.982687       -26.7403
  26   2.0000      -0.914503       -24.8849
  27   2.0000      -0.898532       -24.4503
  28   2.0000      -0.865052       -23.5393
  29   2.0000      -0.850409       -23.1408
  30   2.0000      -0.841200       -22.8902
  31   2.0000      -0.810503       -22.0549
  32   2.0000      -0.782814       -21.3015
  33   2.0000      -0.769891       -20.9498
  34   2.0000      -0.713433       -19.4135
  35   2.0000      -0.703603       -19.1460
  36   2.0000      -0.686667       -18.6852
  37   2.0000      -0.653627       -17.7861
  38   2.0000      -0.640439       -17.4272
  39   2.0000      -0.621936       -16.9237
  40   2.0000      -0.582075       -15.8391
  41   2.0000      -0.566376       -15.4119
  42   2.0000      -0.555637       -15.1196
  43   2.0000      -0.549082       -14.9413
  44   2.0000      -0.541957       -14.7474
  45   2.0000      -0.534744       -14.5511
  46   2.0000      -0.518891       -14.1197
  47   2.0000      -0.503014       -13.6877
  48   2.0000      -0.496774       -13.5179
  49   2.0000      -0.488588       -13.2952
  50   2.0000      -0.486054       -13.2262
  51   2.0000      -0.479009       -13.0345
  52   2.0000      -0.472417       -12.8551
  53   2.0000      -0.467024       -12.7084
  54   2.0000      -0.462354       -12.5813
  55   2.0000      -0.449739       -12.2380
  56   2.0000      -0.441480       -12.0133
  57   2.0000      -0.438583       -11.9344
  58   2.0000      -0.430688       -11.7196
  59   2.0000      -0.425029       -11.5656
  60   2.0000      -0.419120       -11.4048
  61   2.0000      -0.413430       -11.2500
  62   2.0000      -0.401354       -10.9214
  63   2.0000      -0.340380        -9.2622
  64   2.0000      -0.329121        -8.9558
  65   2.0000      -0.326966        -8.8972
  66   2.0000      -0.291671        -7.9368
  67   0.0000       0.034241         0.9317
  68   0.0000       0.062698         1.7061
  69   0.0000       0.110631         3.0104
  70   0.0000       0.121372         3.3027
  71   0.0000       0.128363         3.4929

MULLIKEN ATOMIC CHARGES
-----------------------
   0 S :    0.115663
   1 C :   -0.099876
   2 C :   -0.074832
   3 C :    0.020553
   4 C :   -0.161151
   5 H :    0.023374
   6 C :    0.054664
   7 H :    0.026222
   8 H :    0.022653
   9 C :   -0.051325
  10 H :    0.015909
  11 H :    0.026626
  12 C :   -0.045806
  13 H :    0.039121
  14 H :    0.061446
  15 H :    0.011263
  16 S :    0.118279
  17 C :   -0.084736
  18 C :   -0.044823
  19 C :   -0.049300
  20 C :   -0.180091
  21 H :    0.027659
  22 C :    0.060072
  23 H :    0.029933
  24 H :    0.013739
  25 C :   -0.061874
  26 H :    0.032237
  27 H :    0.011423
  28 C :   -0.046039
  29 H :    0.045906
  30 H :    0.031906
  31 H :    0.045881
  32 H :    0.008288
  33 H :    0.057035
Sum of atomic charges:   -0.0000000

LOEWDIN ATOMIC CHARGES
----------------------
   0 S :    0.402120
   1 C :   -0.185426
   2 C :   -0.063138
   3 C :   -0.058304
   4 C :   -0.195516
   5 H :    0.038099
   6 C :   -0.031666
   7 H :    0.033351
   8 H :    0.031869
   9 C :   -0.037210
  10 H :    0.020802
  11 H :    0.023600
  12 C :   -0.064884
  13 H :    0.030330
  14 H :    0.037669
  15 H :    0.016231
  16 S :    0.401612
  17 C :   -0.194143
  18 C :   -0.083544
  19 C :   -0.041416
  20 C :   -0.198088
  21 H :    0.036352
  22 C :   -0.039418
  23 H :    0.034914
  24 H :    0.027183
  25 C :   -0.040533
  26 H :    0.026295
  27 H :    0.013266
  28 C :   -0.062735
  29 H :    0.032547
  30 H :    0.020312
  31 H :    0.034250
  32 H :    0.003821
  33 H :    0.031397

  Mayer bond orders larger than 0.100000
B(  0-S ,  1-C ) :   1.1492 B(  0-S ,  4-C ) :   1.1402 B(  1-C ,  2-C ) :   1.5643
B(  1-C ,  4-C ) :   0.1001 B(  1-C , 32-H ) :   0.9801 B(  2-C ,  3-C ) :   1.2627
B(  2-C ,  6-C ) :   1.0298 B(  3-C ,  4-C ) :   1.5790 B(  3-C ,  5-H ) :   0.9863
B(  4-C , 20-C ) :   1.0626 B(  6-C ,  7-H ) :   0.9296 B(  6-C ,  8-H ) :   0.9433
B(  6-C ,  9-C ) :   1.0776 B(  9-C , 10-H ) :   0.9550 B(  9-C , 11-H ) :   0.9566
B(  9-C , 12-C ) :   1.0576 B( 12-C , 13-H ) :   0.9740 B( 12-C , 14-H ) :   0.9740
B( 12-C , 15-H ) :   0.9753 B( 16-S , 17-C ) :   1.1715 B( 16-S , 20-C ) :   1.1061
B( 17-C , 18-C ) :   1.6292 B( 17-C , 33-H ) :   0.9567 B( 18-C , 19-C ) :   1.2214
B( 18-C , 21-H ) :   0.9885 B( 19-C , 20-C ) :   1.6056 B( 19-C , 22-C ) :   1.0331
B( 22-C , 23-H ) :   0.9315 B( 22-C , 24-H ) :   0.9406 B( 22-C , 25-C ) :   1.0646
B( 25-C , 26-H ) :   0.9549 B( 25-C , 27-H ) :   0.9605 B( 25-C , 28-C ) :   1.0650
B( 28-C , 29-H ) :   0.9759 B( 28-C , 30-H ) :   0.9795 B( 28-C , 31-H ) :   0.9715

Dispersion correction           -0.015925494
FINAL SINGLE POINT ENERGY     -1339.873005072026

DIPOLE MOMENT
-------------
                                X             Y             Z
Electronic contribution:      7.49540     -12.59713       8.94578
Nuclear contribution   :     -7.96682      12.97609      -9.15348
                        -----------------------------------------
Total Dipole Moment    :     -0.47142       0.37896      -0.20770
                        -----------------------------------------
Magnitude (a.u.)       :      0.63952
Magnitude (Debye)      :      1.62554

Rotational constants in cm-1:     0.021991     0.008256     0.007543
Rotational constants in MHz :   659.274347   247.505717   226.127858

                             ****ORCA TERMINATED NORMALLY****
TOTAL RUN TIME: 0 days 0 hours 0 minutes 22 seconds 390 msec
