                         Program Version 4.2.1 -  RELEASE  -
|  1> ! wB97X-D3 SP def2-SVP
|  2> %pal
|  3> nprocs 24
|  4> end
|  5>
|  6> * xyz 0 1
|  7> S 	 37.5737 	 -21.9557 	 -114.398
|  8> C 	 39.2842 	 -22.0672 	 -114.579
|  9> C 	 39.8436 	 -22.7599 	 -113.498
| 10> C 	 38.8561 	 -23.1411 	 -112.521
| 11> C 	 37.5856 	 -22.998 	 -112.944
| 12> H 	 39.0589 	 -23.7288 	 -111.608
| 13> C 	 41.3748 	 -23.1013 	 -113.366
| 14> H 	 41.5541 	 -23.098 	 -112.275
| 15> H 	 41.924 	 -22.3388 	 -113.956
| 16> C 	 41.7412 	 -24.5432 	 -113.911
| 17> H 	 41.2131 	 -25.4034 	 -113.445
| 18> H 	 41.3862 	 -24.6749 	 -114.947
| 19> C 	 43.2909 	 -24.7771 	 -113.866
| 20> H 	 43.5887 	 -25.7467 	 -114.188
| 21> H 	 44.0314 	 -24.0961 	 -114.37
| 22> H 	 43.7676 	 -24.8323 	 -112.907
| 23> S 	 35.3521 	 -22.0052 	 -111.692
| 24> C 	 34.3221 	 -23.1519 	 -110.811
| 25> C 	 34.7985 	 -24.4295 	 -110.847
| 26> C 	 36.0583 	 -24.5063 	 -111.523
| 27> C 	 36.3829 	 -23.3168 	 -112.185
| 28> H 	 34.2602 	 -25.2034 	 -110.297
| 29> C 	 36.7554 	 -25.8535 	 -111.59
| 30> H 	 36.7781 	 -26.3377 	 -110.607
| 31> H 	 37.83 	 -25.645 	 -111.697
| 32> C 	 36.3338 	 -26.8186 	 -112.703
| 33> H 	 35.2173 	 -26.7746 	 -112.68
| 34> H 	 36.6509 	 -27.8325 	 -112.372
| 35> C 	 36.8766 	 -26.6243 	 -114.102
| 36> H 	 37.9554 	 -26.6458 	 -114.101
| 37> H 	 36.4802 	 -25.7687 	 -114.548
| 38> H 	 36.6444 	 -27.4805 	 -114.785
| 39> H 	 39.8059 	 -21.602 	 -115.425
| 40> H 	 33.4447 	 -22.8778 	 -110.246
| 41> *
| 42>
| 43>                          ****END OF INPUT****

CARTESIAN COORDINATES (ANGSTROEM)
---------------------------------
  S     37.573700  -21.955700  -114.398000
  C     39.284200  -22.067200  -114.579000
  C     39.843600  -22.759900  -113.498000
  C     38.856100  -23.141100  -112.521000
  C     37.585600  -22.998000  -112.944000
  H     39.058900  -23.728800  -111.608000
  C     41.374800  -23.101300  -113.366000
  H     41.554100  -23.098000  -112.275000
  H     41.924000  -22.338800  -113.956000
  C     41.741200  -24.543200  -113.911000
  H     41.213100  -25.403400  -113.445000
  H     41.386200  -24.674900  -114.947000
  C     43.290900  -24.777100  -113.866000
  H     43.588700  -25.746700  -114.188000
  H     44.031400  -24.096100  -114.370000
  H     43.767600  -24.832300  -112.907000
  S     35.352100  -22.005200  -111.692000
  C     34.322100  -23.151900  -110.811000
  C     34.798500  -24.429500  -110.847000
  C     36.058300  -24.506300  -111.523000
  C     36.382900  -23.316800  -112.185000
  H     34.260200  -25.203400  -110.297000
  C     36.755400  -25.853500  -111.590000
  H     36.778100  -26.337700  -110.607000
  H     37.830000  -25.645000  -111.697000
  C     36.333800  -26.818600  -112.703000
  H     35.217300  -26.774600  -112.680000
  H     36.650900  -27.832500  -112.372000
  C     36.876600  -26.624300  -114.102000
  H     37.955400  -26.645800  -114.101000
  H     36.480200  -25.768700  -114.548000
  H     36.644400  -27.480500  -114.785000
  H     39.805900  -21.602000  -115.425000
  H     33.444700  -22.877800  -110.246000

 Total Charge           Charge          ....    0
 Multiplicity           Mult            ....    1
 Number of Electrons    NEL             ....  134
 Basis Dimension        Dim             ....  322

ORBITAL ENERGIES
----------------

  NO   OCC          E(Eh)            E(eV)
   0   2.0000     -88.967311     -2420.9236
   1   2.0000     -88.963778     -2420.8275
   2   2.0000     -10.328056      -281.0407
   3   2.0000     -10.327876      -281.0358
   4   2.0000     -10.316786      -280.7340
   5   2.0000     -10.316065      -280.7144
   6   2.0000     -10.306270      -280.4479
   7   2.0000     -10.305715      -280.4328
   8   2.0000     -10.305298      -280.4214
   9   2.0000     -10.300563      -280.2926
  10   2.0000     -10.294442      -280.1260
  11   2.0000     -10.293350      -280.0963
  12   2.0000     -10.290704      -280.0243
  13   2.0000     -10.288178      -279.9555
  14   2.0000     -10.278765      -279.6994
  15   2.0000     -10.269621      -279.4506
  16   2.0000      -8.081835      -219.9179
  17   2.0000      -8.078517      -219.8276
  18   2.0000      -6.040342      -164.3661
  19   2.0000      -6.037047      -164.2764
  20   2.0000      -6.036475      -164.2608
  21   2.0000      -6.033017      -164.1667
  22   2.0000      -6.032497      -164.1526
  23   2.0000      -6.029262      -164.0646
  24   2.0000      -1.006710       -27.3940
  25   2.0000      -0.983234       -26.7551
  26   2.0000      -0.906402       -24.6644
  27   2.0000      -0.896692       -24.4002
  28   2.0000      -0.871327       -23.7100
  29   2.0000      -0.850641       -23.1471
  30   2.0000      -0.842243       -22.9186
  31   2.0000      -0.816453       -22.2168
  32   2.0000      -0.783089       -21.3089
  33   2.0000      -0.769592       -20.9417
  34   2.0000      -0.708693       -19.2845
  35   2.0000      -0.700569       -19.0634
  36   2.0000      -0.689819       -18.7709
  37   2.0000      -0.659080       -17.9345
  38   2.0000      -0.642446       -17.4818
  39   2.0000      -0.618582       -16.8325
  40   2.0000      -0.597330       -16.2542
  41   2.0000      -0.561367       -15.2756
  42   2.0000      -0.552240       -15.0272
  43   2.0000      -0.550718       -14.9858
  44   2.0000      -0.537665       -14.6306
  45   2.0000      -0.518167       -14.1000
  46   2.0000      -0.512563       -13.9475
  47   2.0000      -0.507774       -13.8172
  48   2.0000      -0.499142       -13.5823
  49   2.0000      -0.495794       -13.4912
  50   2.0000      -0.493768       -13.4361
  51   2.0000      -0.481342       -13.0980
  52   2.0000      -0.472980       -12.8704
  53   2.0000      -0.467130       -12.7112
  54   2.0000      -0.460873       -12.5410
  55   2.0000      -0.447985       -12.1903
  56   2.0000      -0.444930       -12.1072
  57   2.0000      -0.437584       -11.9073
  58   2.0000      -0.431969       -11.7545
  59   2.0000      -0.418152       -11.3785
  60   2.0000      -0.416839       -11.3428
  61   2.0000      -0.413585       -11.2542
  62   2.0000      -0.410181       -11.1616
  63   2.0000      -0.353058        -9.6072
  64   2.0000      -0.333102        -9.0642
  65   2.0000      -0.324656        -8.8343
  66   2.0000      -0.293205        -7.9785
  67   0.0000       0.031175         0.8483
  68   0.0000       0.068040         1.8515
  69   0.0000       0.108829         2.9614
  70   0.0000       0.120606         3.2818
  71   0.0000       0.129406         3.5213

MULLIKEN ATOMIC CHARGES
-----------------------
   0 S :    0.096076
   1 C :   -0.128496
   2 C :   -0.104920
   3 C :    0.038761
   4 C :   -0.169900
   5 H :    0.032754
   6 C :    0.061414
   7 H :    0.038954
   8 H :    0.038809
   9 C :   -0.063631
  10 H :    0.035163
  11 H :    0.032989
  12 C :   -0.051955
  13 H :    0.012444
  14 H :    0.032725
  15 H :    0.012228
  16 S :    0.111863
  17 C :   -0.091787
  18 C :   -0.027094
  19 C :   -0.064090
  20 C :   -0.126847
  21 H :    0.027421
  22 C :    0.069383
  23 H :    0.026541
  24 H :   -0.005876
  25 C :   -0.069898
  26 H :    0.028515
  27 H :    0.025134
  28 C :   -0.016681
  29 H :    0.021523
  30 H :    0.031508
  31 H :    0.032152
  32 H :    0.063004
  33 H :    0.051812
Sum of atomic charges:   -0.0000000

LOEWDIN ATOMIC CHARGES
----------------------
   0 S :    0.392146
   1 C :   -0.207211
   2 C :   -0.066221
   3 C :   -0.064190
   4 C :   -0.183775
   5 H :    0.036925
   6 C :   -0.025445
   7 H :    0.034120
   8 H :    0.035225
   9 C :   -0.041707
  10 H :    0.030008
  11 H :    0.027173
  12 C :   -0.084709
  13 H :    0.021786
  14 H :    0.031539
  15 H :    0.022049
  16 S :    0.402446
  17 C :   -0.174030
  18 C :   -0.070428
  19 C :   -0.055696
  20 C :   -0.202481
  21 H :    0.037414
  22 C :   -0.041830
  23 H :    0.034962
  24 H :    0.024569
  25 C :   -0.041097
  26 H :    0.026143
  27 H :    0.026248
  28 C :   -0.061094
  29 H :    0.023238
  30 H :    0.018572
  31 H :    0.034071
  32 H :    0.033915
  33 H :    0.027366

  Mayer bond orders larger than 0.100000
B(  0-S ,  1-C ) :   1.1447 B(  0-S ,  4-C ) :   1.1316 B(  1-C ,  2-C ) :   1.6050
B(  1-C , 32-H ) :   0.9698 B(  2-C ,  3-C ) :   1.2358 B(  2-C ,  6-C ) :   1.0186
B(  3-C ,  4-C ) :   1.6099 B(  3-C ,  5-H ) :   0.9769 B(  4-C , 20-C ) :   1.0314
B(  6-C ,  7-H ) :   0.9446 B(  6-C ,  8-H ) :   0.9471 B(  6-C ,  9-C ) :   1.0528
B(  9-C , 10-H ) :   0.9569 B(  9-C , 11-H ) :   0.9585 B(  9-C , 12-C ) :   1.0635
B( 12-C , 13-H ) :   0.9726 B( 12-C , 14-H ) :   0.9780 B( 12-C , 15-H ) :   0.9733
B( 16-S , 17-C ) :   1.1404 B( 16-S , 20-C ) :   1.1473 B( 17-C , 18-C ) :   1.6372
B( 17-C , 33-H ) :   0.9659 B( 18-C , 19-C ) :   1.2210 B( 18-C , 21-H ) :   0.9885
B( 19-C , 20-C ) :   1.5985 B( 19-C , 22-C ) :   1.0540 B( 22-C , 23-H ) :   0.9335
B( 22-C , 24-H ) :   0.9216 B( 22-C , 25-C ) :   1.0663 B( 25-C , 26-H ) :   0.9557
B( 25-C , 27-H ) :   0.9518 B( 25-C , 28-C ) :   1.0924 B( 28-C , 29-H ) :   0.9703
B( 28-C , 30-H ) :   0.9747 B( 28-C , 31-H ) :   0.9700

Dispersion correction           -0.014801690
FINAL SINGLE POINT ENERGY     -1339.874981858934

DIPOLE MOMENT
-------------
                                X             Y             Z
Electronic contribution:    -20.41046      22.31396       3.32347
Nuclear contribution   :     20.81049     -22.87706      -3.06743
                        -----------------------------------------
Total Dipole Moment    :      0.40002      -0.56310       0.25604
                        -----------------------------------------
Magnitude (a.u.)       :      0.73665
Magnitude (Debye)      :      1.87242

Rotational constants in cm-1:     0.019772     0.008614     0.006982
Rotational constants in MHz :   592.747231   258.245576   209.328579

                             ****ORCA TERMINATED NORMALLY****
TOTAL RUN TIME: 0 days 0 hours 0 minutes 20 seconds 864 msec
