                         Program Version 4.2.1 -  RELEASE  -
|  1> ! wB97X-D3 SP def2-SVP
|  2> %pal
|  3> nprocs 24
|  4> end
|  5>
|  6> * xyz 0 1
|  7> S 	 -103.143 	 40.5523 	 -94.4014
|  8> C 	 -102.706 	 38.9576 	 -93.6891
|  9> C 	 -102.109 	 39.1145 	 -92.4181
| 10> C 	 -102.062 	 40.5273 	 -92.0735
| 11> C 	 -102.586 	 41.397 	 -93.0594
| 12> H 	 -101.486 	 40.9997 	 -91.2023
| 13> C 	 -101.424 	 38.0023 	 -91.6227
| 14> H 	 -100.557 	 37.6921 	 -92.2272
| 15> H 	 -102.083 	 37.1862 	 -91.4659
| 16> C 	 -100.744 	 38.3074 	 -90.3194
| 17> H 	 -100.003 	 38.9931 	 -90.587
| 18> H 	 -101.437 	 38.6916 	 -89.654
| 19> C 	 -99.8824 	 37.1785 	 -89.6894
| 20> H 	 -100.54 	 36.3015 	 -89.695
| 21> H 	 -99.0059 	 36.9105 	 -90.1798
| 22> H 	 -99.7728 	 37.4172 	 -88.6498
| 23> S 	 -103.244 	 43.4843 	 -91.484
| 24> C 	 -103.516 	 45.0386 	 -92.1187
| 25> C 	 -103.045 	 45.0899 	 -93.378
| 26> C 	 -102.544 	 43.8782 	 -93.9316
| 27> C 	 -102.621 	 42.8532 	 -92.9478
| 28> H 	 -103.18 	 45.9986 	 -93.8653
| 29> C 	 -102.136 	 43.7582 	 -95.3982
| 30> H 	 -103.08 	 43.908 	 -95.904
| 31> H 	 -101.901 	 42.7831 	 -95.616
| 32> C 	 -101.106 	 44.7878 	 -95.8437
| 33> H 	 -100.233 	 44.7161 	 -95.2593
| 34> H 	 -101.314 	 45.8406 	 -95.6484
| 35> C 	 -100.789 	 44.4748 	 -97.3532
| 36> H 	 -100.441 	 43.454 	 -97.4443
| 37> H 	 -99.9976 	 45.0606 	 -97.8392
| 38> H 	 -101.753 	 44.6205 	 -97.9238
| 39> H 	 -102.716 	 38.0852 	 -94.2486
| 40> H 	 -103.89 	 45.7952 	 -91.4924
| 41> *
| 42>
| 43>                          ****END OF INPUT****

CARTESIAN COORDINATES (ANGSTROEM)
---------------------------------
  S    -103.143000   40.552300  -94.401400
  C    -102.706000   38.957600  -93.689100
  C    -102.109000   39.114500  -92.418100
  C    -102.062000   40.527300  -92.073500
  C    -102.586000   41.397000  -93.059400
  H    -101.486000   40.999700  -91.202300
  C    -101.424000   38.002300  -91.622700
  H    -100.557000   37.692100  -92.227200
  H    -102.083000   37.186200  -91.465900
  C    -100.744000   38.307400  -90.319400
  H    -100.003000   38.993100  -90.587000
  H    -101.437000   38.691600  -89.654000
  C    -99.882400   37.178500  -89.689400
  H    -100.540000   36.301500  -89.695000
  H    -99.005900   36.910500  -90.179800
  H    -99.772800   37.417200  -88.649800
  S    -103.244000   43.484300  -91.484000
  C    -103.516000   45.038600  -92.118700
  C    -103.045000   45.089900  -93.378000
  C    -102.544000   43.878200  -93.931600
  C    -102.621000   42.853200  -92.947800
  H    -103.180000   45.998600  -93.865300
  C    -102.136000   43.758200  -95.398200
  H    -103.080000   43.908000  -95.904000
  H    -101.901000   42.783100  -95.616000
  C    -101.106000   44.787800  -95.843700
  H    -100.233000   44.716100  -95.259300
  H    -101.314000   45.840600  -95.648400
  C    -100.789000   44.474800  -97.353200
  H    -100.441000   43.454000  -97.444300
  H    -99.997600   45.060600  -97.839200
  H    -101.753000   44.620500  -97.923800
  H    -102.716000   38.085200  -94.248600
  H    -103.890000   45.795200  -91.492400

 Total Charge           Charge          ....    0
 Multiplicity           Mult            ....    1
 Number of Electrons    NEL             ....  134
 Basis Dimension        Dim             ....  322

ORBITAL ENERGIES
----------------

  NO   OCC          E(Eh)            E(eV)
   0   2.0000     -88.969658     -2420.9875
   1   2.0000     -88.958787     -2420.6916
   2   2.0000     -10.328013      -281.0395
   3   2.0000     -10.324667      -280.9485
   4   2.0000     -10.313112      -280.6341
   5   2.0000     -10.312014      -280.6042
   6   2.0000     -10.306618      -280.4573
   7   2.0000     -10.305764      -280.4341
   8   2.0000     -10.299031      -280.2509
   9   2.0000     -10.289012      -279.9783
  10   2.0000     -10.286485      -279.9095
  11   2.0000     -10.285394      -279.8798
  12   2.0000     -10.283503      -279.8283
  13   2.0000     -10.283313      -279.8232
  14   2.0000     -10.275008      -279.5972
  15   2.0000     -10.273541      -279.5573
  16   2.0000      -8.084180      -219.9817
  17   2.0000      -8.075488      -219.7452
  18   2.0000      -6.042673      -164.4295
  19   2.0000      -6.038578      -164.3181
  20   2.0000      -6.035128      -164.2242
  21   2.0000      -6.033753      -164.1868
  22   2.0000      -6.029561      -164.0727
  23   2.0000      -6.026533      -163.9903
  24   2.0000      -1.012004       -27.5380
  25   2.0000      -0.984498       -26.7896
  26   2.0000      -0.919097       -25.0099
  27   2.0000      -0.912418       -24.8282
  28   2.0000      -0.872567       -23.7438
  29   2.0000      -0.850936       -23.1552
  30   2.0000      -0.842620       -22.9289
  31   2.0000      -0.809217       -22.0199
  32   2.0000      -0.787726       -21.4351
  33   2.0000      -0.774391       -21.0722
  34   2.0000      -0.715107       -19.4590
  35   2.0000      -0.709903       -19.3174
  36   2.0000      -0.691673       -18.8214
  37   2.0000      -0.664395       -18.0791
  38   2.0000      -0.632703       -17.2167
  39   2.0000      -0.615232       -16.7413
  40   2.0000      -0.603814       -16.4306
  41   2.0000      -0.590877       -16.0786
  42   2.0000      -0.570925       -15.5357
  43   2.0000      -0.561792       -15.2871
  44   2.0000      -0.533510       -14.5175
  45   2.0000      -0.523639       -14.2489
  46   2.0000      -0.518596       -14.1117
  47   2.0000      -0.508623       -13.8403
  48   2.0000      -0.506796       -13.7906
  49   2.0000      -0.500152       -13.6098
  50   2.0000      -0.486702       -13.2438
  51   2.0000      -0.485099       -13.2002
  52   2.0000      -0.474645       -12.9157
  53   2.0000      -0.468389       -12.7455
  54   2.0000      -0.457653       -12.4534
  55   2.0000      -0.452796       -12.3212
  56   2.0000      -0.447537       -12.1781
  57   2.0000      -0.444279       -12.0894
  58   2.0000      -0.436809       -11.8862
  59   2.0000      -0.424815       -11.5598
  60   2.0000      -0.422348       -11.4927
  61   2.0000      -0.413390       -11.2489
  62   2.0000      -0.406518       -11.0619
  63   2.0000      -0.349890        -9.5210
  64   2.0000      -0.330514        -8.9938
  65   2.0000      -0.325975        -8.8702
  66   2.0000      -0.285979        -7.7819
  67   0.0000       0.027955         0.7607
  68   0.0000       0.079870         2.1734
  69   0.0000       0.108248         2.9456
  70   0.0000       0.127415         3.4671
  71   0.0000       0.132931         3.6172

MULLIKEN ATOMIC CHARGES
-----------------------
   0 S :    0.110902
   1 C :   -0.120736
   2 C :   -0.057201
   3 C :   -0.053044
   4 C :   -0.118043
   5 H :    0.048095
   6 C :    0.055412
   7 H :    0.036685
   8 H :    0.026296
   9 C :   -0.072998
  10 H :    0.018139
  11 H :    0.023015
  12 C :   -0.009291
  13 H :    0.013466
  14 H :    0.029279
  15 H :    0.033080
  16 S :    0.102780
  17 C :   -0.079621
  18 C :   -0.015965
  19 C :   -0.074038
  20 C :   -0.142565
  21 H :   -0.007199
  22 C :    0.140941
  23 H :    0.030189
  24 H :   -0.015517
  25 C :   -0.065238
  26 H :    0.017552
  27 H :    0.029847
  28 C :   -0.062212
  29 H :    0.032483
  30 H :    0.036134
  31 H :    0.039081
  32 H :    0.025307
  33 H :    0.044984
Sum of atomic charges:    0.0000000

LOEWDIN ATOMIC CHARGES
----------------------
   0 S :    0.430678
   1 C :   -0.186102
   2 C :   -0.046593
   3 C :   -0.094121
   4 C :   -0.216945
   5 H :    0.041107
   6 C :   -0.032454
   7 H :    0.040580
   8 H :    0.024178
   9 C :   -0.034381
  10 H :    0.018998
  11 H :    0.014128
  12 C :   -0.049332
  13 H :    0.023862
  14 H :    0.016843
  15 H :    0.030365
  16 S :    0.445632
  17 C :   -0.187596
  18 C :   -0.071004
  19 C :   -0.051019
  20 C :   -0.215435
  21 H :    0.020158
  22 C :   -0.022082
  23 H :    0.036707
  24 H :    0.009043
  25 C :   -0.036454
  26 H :    0.019677
  27 H :    0.025328
  28 C :   -0.067023
  29 H :    0.024437
  30 H :    0.024640
  31 H :    0.031166
  32 H :    0.011188
  33 H :    0.021828

  Mayer bond orders larger than 0.100000
B(  0-S ,  1-C ) :   1.1355 B(  0-S ,  4-C ) :   1.1778 B(  1-C ,  2-C ) :   1.5858
B(  1-C , 32-H ) :   0.9842 B(  2-C ,  3-C ) :   1.2725 B(  2-C ,  6-C ) :   1.0097
B(  3-C ,  4-C ) :   1.5166 B(  3-C ,  5-H ) :   0.9756 B(  4-C , 20-C ) :   1.0409
B(  6-C ,  7-H ) :   0.9417 B(  6-C ,  8-H ) :   0.9363 B(  6-C ,  9-C ) :   1.0935
B(  9-C , 10-H ) :   0.9465 B(  9-C , 11-H ) :   0.9542 B(  9-C , 12-C ) :   1.0864
B( 12-C , 13-H ) :   0.9749 B( 12-C , 14-H ) :   0.9768 B( 12-C , 15-H ) :   0.9710
B( 16-S , 17-C ) :   1.1755 B( 16-S , 20-C ) :   1.1735 B( 17-C , 18-C ) :   1.5732
B( 17-C , 33-H ) :   0.9785 B( 18-C , 19-C ) :   1.2582 B( 18-C , 21-H ) :   1.0061
B( 19-C , 20-C ) :   1.5309 B( 19-C , 22-C ) :   1.0325 B( 22-C , 23-H ) :   0.9282
B( 22-C , 24-H ) :   0.9291 B( 22-C , 25-C ) :   1.0481 B( 25-C , 26-H ) :   0.9554
B( 25-C , 27-H ) :   0.9582 B( 25-C , 28-C ) :   1.0740 B( 28-C , 29-H ) :   0.9758
B( 28-C , 30-H ) :   0.9763 B( 28-C , 31-H ) :   0.9767

Dispersion correction           -0.013230406
FINAL SINGLE POINT ENERGY     -1339.853956571729

DIPOLE MOMENT
-------------
                                X             Y             Z
Electronic contribution:    -15.23898       6.41541       2.96139
Nuclear contribution   :     15.59908      -6.38901      -3.02986
                        -----------------------------------------
Total Dipole Moment    :      0.36010       0.02640      -0.06847
                        -----------------------------------------
Magnitude (a.u.)       :      0.36750
Magnitude (Debye)      :      0.93411

Rotational constants in cm-1:     0.020521     0.007151     0.006119
Rotational constants in MHz :   615.218131   214.377016   183.439744

                             ****ORCA TERMINATED NORMALLY****
TOTAL RUN TIME: 0 days 0 hours 0 minutes 20 seconds 723 msec
