                         Program Version 4.2.1 -  RELEASE  -
|  1> ! wB97X-D3 SP def2-SVP
|  2> %pal
|  3> nprocs 24
|  4> end
|  5>
|  6> * xyz 0 1
|  7> S 	 -138.019 	 9.64853 	 0.808444
|  8> C 	 -139.474 	 9.84214 	 -0.129717
|  9> C 	 -139.519 	 9.00294 	 -1.18653
| 10> C 	 -138.571 	 7.94619 	 -0.958927
| 11> C 	 -137.672 	 8.19282 	 0.0688278
| 12> H 	 -138.557 	 6.97023 	 -1.61001
| 13> C 	 -140.655 	 9.04544 	 -2.18057
| 14> H 	 -140.237 	 9.26272 	 -3.23276
| 15> H 	 -141.247 	 9.941 	 -1.83567
| 16> C 	 -141.54 	 7.79561 	 -2.02907
| 17> H 	 -140.894 	 6.93478 	 -2.22191
| 18> H 	 -141.79 	 7.82062 	 -1.02262
| 19> C 	 -142.78 	 7.75543 	 -2.87034
| 20> H 	 -143.41 	 6.88622 	 -2.61351
| 21> H 	 -143.447 	 8.59093 	 -2.85131
| 22> H 	 -142.438 	 7.68452 	 -3.92615
| 23> S 	 -134.999 	 8.18499 	 0.752767
| 24> C 	 -134.146 	 6.69724 	 0.955092
| 25> C 	 -135.002 	 5.58596 	 0.770638
| 26> C 	 -136.367 	 5.9454 	 0.415879
| 27> C 	 -136.531 	 7.34848 	 0.449771
| 28> H 	 -134.652 	 4.50957 	 0.891256
| 29> C 	 -137.44 	 4.99174 	 0.102143
| 30> H 	 -138.385 	 5.39842 	 0.275183
| 31> H 	 -137.259 	 4.09004 	 0.620704
| 32> C 	 -137.274 	 4.55123 	 -1.33504
| 33> H 	 -136.309 	 4.02326 	 -1.35735
| 34> H 	 -137.017 	 5.3793 	 -2.072
| 35> C 	 -138.42 	 3.66633 	 -1.80209
| 36> H 	 -138.287 	 3.5199 	 -2.85139
| 37> H 	 -139.395 	 4.11214 	 -1.69992
| 38> H 	 -138.5 	 2.79684 	 -1.10714
| 39> H 	 -140.105 	 10.6298 	 -0.000281702
| 40> H 	 -133.172 	 6.61809 	 1.26499
| 41> *
| 42>
| 43>                          ****END OF INPUT****

CARTESIAN COORDINATES (ANGSTROEM)
---------------------------------
  S    -138.019000    9.648530    0.808444
  C    -139.474000    9.842140   -0.129717
  C    -139.519000    9.002940   -1.186530
  C    -138.571000    7.946190   -0.958927
  C    -137.672000    8.192820    0.068828
  H    -138.557000    6.970230   -1.610010
  C    -140.655000    9.045440   -2.180570
  H    -140.237000    9.262720   -3.232760
  H    -141.247000    9.941000   -1.835670
  C    -141.540000    7.795610   -2.029070
  H    -140.894000    6.934780   -2.221910
  H    -141.790000    7.820620   -1.022620
  C    -142.780000    7.755430   -2.870340
  H    -143.410000    6.886220   -2.613510
  H    -143.447000    8.590930   -2.851310
  H    -142.438000    7.684520   -3.926150
  S    -134.999000    8.184990    0.752767
  C    -134.146000    6.697240    0.955092
  C    -135.002000    5.585960    0.770638
  C    -136.367000    5.945400    0.415879
  C    -136.531000    7.348480    0.449771
  H    -134.652000    4.509570    0.891256
  C    -137.440000    4.991740    0.102143
  H    -138.385000    5.398420    0.275183
  H    -137.259000    4.090040    0.620704
  C    -137.274000    4.551230   -1.335040
  H    -136.309000    4.023260   -1.357350
  H    -137.017000    5.379300   -2.072000
  C    -138.420000    3.666330   -1.802090
  H    -138.287000    3.519900   -2.851390
  H    -139.395000    4.112140   -1.699920
  H    -138.500000    2.796840   -1.107140
  H    -140.105000   10.629800   -0.000282
  H    -133.172000    6.618090    1.264990

 Total Charge           Charge          ....    0
 Multiplicity           Mult            ....    1
 Number of Electrons    NEL             ....  134
 Basis Dimension        Dim             ....  322

ORBITAL ENERGIES
----------------

  NO   OCC          E(Eh)            E(eV)
   0   2.0000     -88.966429     -2420.8996
   1   2.0000     -88.963670     -2420.8245
   2   2.0000     -10.328591      -281.0553
   3   2.0000     -10.324844      -280.9533
   4   2.0000     -10.314469      -280.6710
   5   2.0000     -10.305211      -280.4191
   6   2.0000     -10.304868      -280.4097
   7   2.0000     -10.303114      -280.3620
   8   2.0000     -10.301852      -280.3276
   9   2.0000     -10.299605      -280.2665
  10   2.0000     -10.297451      -280.2079
  11   2.0000     -10.288812      -279.9728
  12   2.0000     -10.282712      -279.8068
  13   2.0000     -10.280149      -279.7371
  14   2.0000     -10.279735      -279.7258
  15   2.0000     -10.279144      -279.7097
  16   2.0000      -8.081063      -219.8969
  17   2.0000      -8.080389      -219.8786
  18   2.0000      -6.039592      -164.3456
  19   2.0000      -6.038710      -164.3217
  20   2.0000      -6.035535      -164.2353
  21   2.0000      -6.034736      -164.2135
  22   2.0000      -6.031888      -164.1360
  23   2.0000      -6.031105      -164.1147
  24   2.0000      -1.014849       -27.6155
  25   2.0000      -0.985043       -26.8044
  26   2.0000      -0.923988       -25.1430
  27   2.0000      -0.919358       -25.0170
  28   2.0000      -0.872383       -23.7388
  29   2.0000      -0.854273       -23.2459
  30   2.0000      -0.843195       -22.9445
  31   2.0000      -0.812276       -22.1031
  32   2.0000      -0.786315       -21.3967
  33   2.0000      -0.776196       -21.1214
  34   2.0000      -0.709236       -19.2993
  35   2.0000      -0.700528       -19.0623
  36   2.0000      -0.695893       -18.9362
  37   2.0000      -0.660922       -17.9846
  38   2.0000      -0.640028       -17.4160
  39   2.0000      -0.619338       -16.8531
  40   2.0000      -0.600992       -16.3538
  41   2.0000      -0.577460       -15.7135
  42   2.0000      -0.571186       -15.5428
  43   2.0000      -0.560355       -15.2480
  44   2.0000      -0.534367       -14.5409
  45   2.0000      -0.526169       -14.3178
  46   2.0000      -0.521966       -14.2034
  47   2.0000      -0.512997       -13.9593
  48   2.0000      -0.505583       -13.7576
  49   2.0000      -0.497255       -13.5310
  50   2.0000      -0.494888       -13.4666
  51   2.0000      -0.491673       -13.3791
  52   2.0000      -0.470961       -12.8155
  53   2.0000      -0.466642       -12.6980
  54   2.0000      -0.459874       -12.5138
  55   2.0000      -0.452878       -12.3234
  56   2.0000      -0.446794       -12.1579
  57   2.0000      -0.439168       -11.9504
  58   2.0000      -0.432803       -11.7772
  59   2.0000      -0.429973       -11.7002
  60   2.0000      -0.423629       -11.5275
  61   2.0000      -0.417901       -11.3717
  62   2.0000      -0.408461       -11.1148
  63   2.0000      -0.351879        -9.5751
  64   2.0000      -0.329986        -8.9794
  65   2.0000      -0.327477        -8.9111
  66   2.0000      -0.285488        -7.7685
  67   0.0000       0.031062         0.8452
  68   0.0000       0.076014         2.0685
  69   0.0000       0.110907         3.0179
  70   0.0000       0.121160         3.2969
  71   0.0000       0.126568         3.4441

MULLIKEN ATOMIC CHARGES
-----------------------
   0 S :    0.116108
   1 C :   -0.091639
   2 C :   -0.076821
   3 C :   -0.052051
   4 C :   -0.123359
   5 H :    0.043601
   6 C :    0.024543
   7 H :    0.053555
   8 H :    0.022584
   9 C :   -0.058316
  10 H :    0.032767
  11 H :    0.016598
  12 C :   -0.024656
  13 H :    0.038503
  14 H :    0.022892
  15 H :    0.027203
  16 S :    0.104211
  17 C :   -0.062124
  18 C :   -0.056054
  19 C :   -0.078737
  20 C :   -0.131497
  21 H :    0.041493
  22 C :    0.159986
  23 H :    0.014277
  24 H :    0.006010
  25 C :   -0.175450
  26 H :    0.021360
  27 H :    0.042767
  28 C :    0.019456
  29 H :    0.036380
  30 H :    0.017666
  31 H :    0.030941
  32 H :    0.007773
  33 H :    0.030030
Sum of atomic charges:   -0.0000000

LOEWDIN ATOMIC CHARGES
----------------------
   0 S :    0.437899
   1 C :   -0.182452
   2 C :   -0.063400
   3 C :   -0.083479
   4 C :   -0.222916
   5 H :    0.043871
   6 C :   -0.032805
   7 H :    0.038762
   8 H :    0.033512
   9 C :   -0.038309
  10 H :    0.025633
  11 H :    0.018281
  12 C :   -0.066362
  13 H :    0.031503
  14 H :    0.020274
  15 H :    0.029427
  16 S :    0.407766
  17 C :   -0.185386
  18 C :   -0.076004
  19 C :   -0.047337
  20 C :   -0.191057
  21 H :    0.040280
  22 C :   -0.024424
  23 H :    0.021595
  24 H :    0.029991
  25 C :   -0.048595
  26 H :    0.024394
  27 H :    0.026129
  28 C :   -0.064084
  29 H :    0.027340
  30 H :    0.020638
  31 H :    0.032423
  32 H :    0.004562
  33 H :    0.012326

  Mayer bond orders larger than 0.100000
B(  0-S ,  1-C ) :   1.1416 B(  0-S ,  4-C ) :   1.1706 B(  1-C ,  2-C ) :   1.6155
B(  1-C , 32-H ) :   0.9753 B(  2-C ,  3-C ) :   1.2332 B(  2-C ,  6-C ) :   1.0338
B(  3-C ,  4-C ) :   1.5584 B(  3-C ,  5-H ) :   0.9708 B(  4-C , 20-C ) :   1.0279
B(  6-C ,  7-H ) :   0.9300 B(  6-C ,  8-H ) :   0.9430 B(  6-C ,  9-C ) :   1.0582
B(  9-C , 10-H ) :   0.9528 B(  9-C , 11-H ) :   0.9528 B(  9-C , 12-C ) :   1.0933
B( 12-C , 13-H ) :   0.9717 B( 12-C , 14-H ) :   0.9744 B( 12-C , 15-H ) :   0.9715
B( 16-S , 17-C ) :   1.1646 B( 16-S , 20-C ) :   1.1430 B( 17-C , 18-C ) :   1.5857
B( 17-C , 20-C ) :   0.1058 B( 17-C , 33-H ) :   0.9794 B( 18-C , 19-C ) :   1.2496
B( 18-C , 21-H ) :   0.9746 B( 19-C , 20-C ) :   1.5825 B( 19-C , 22-C ) :   1.0752
B( 22-C , 23-H ) :   0.9343 B( 22-C , 24-H ) :   0.9119 B( 22-C , 25-C ) :   1.0407
B( 25-C , 26-H ) :   0.9500 B( 25-C , 27-H ) :   0.9547 B( 25-C , 28-C ) :   1.0772
B( 28-C , 29-H ) :   0.9710 B( 28-C , 30-H ) :   0.9724 B( 28-C , 31-H ) :   0.9645

Dispersion correction           -0.014540376
FINAL SINGLE POINT ENERGY     -1339.863924283660

DIPOLE MOMENT
-------------
                                X             Y             Z
Electronic contribution:     21.72524      17.62666      17.27705
Nuclear contribution   :    -22.14112     -18.09503     -17.62040
                        -----------------------------------------
Total Dipole Moment    :     -0.41588      -0.46837      -0.34335
                        -----------------------------------------
Magnitude (a.u.)       :      0.71429
Magnitude (Debye)      :      1.81559

Rotational constants in cm-1:     0.018718     0.009515     0.006585
Rotational constants in MHz :   561.139190   285.266790   197.423992

                             ****ORCA TERMINATED NORMALLY****
TOTAL RUN TIME: 0 days 0 hours 0 minutes 22 seconds 370 msec
