                         Program Version 4.2.1 -  RELEASE  -
|  1> ! wB97X-D3 SP def2-SVP
|  2> %pal
|  3> nprocs 24
|  4> end
|  5>
|  6> * xyz 0 1
|  7> S 	 -106.462 	 47.6856 	 -95.977
|  8> C 	 -106.799 	 49.4132 	 -95.5804
|  9> C 	 -107.037 	 50.0679 	 -96.7678
| 10> C 	 -107.294 	 49.1752 	 -97.921
| 11> C 	 -106.904 	 47.8891 	 -97.6781
| 12> H 	 -107.731 	 49.5114 	 -98.8547
| 13> C 	 -107.29 	 51.5952 	 -96.7824
| 14> H 	 -106.529 	 51.9028 	 -97.4807
| 15> H 	 -106.933 	 51.9837 	 -95.832
| 16> C 	 -108.657 	 52.1345 	 -97.1874
| 17> H 	 -108.838 	 53.2051 	 -96.8879
| 18> H 	 -108.759 	 51.9832 	 -98.2614
| 19> C 	 -109.876 	 51.3284 	 -96.7297
| 20> H 	 -110.15 	 50.3205 	 -97.0736
| 21> H 	 -109.804 	 51.3067 	 -95.6479
| 22> H 	 -110.759 	 51.8881 	 -97.1815
| 23> S 	 -107.738 	 45.332 	 -97.9638
| 24> C 	 -107.404 	 44.445 	 -99.3485
| 25> C 	 -106.855 	 45.2375 	 -100.326
| 26> C 	 -106.602 	 46.5926 	 -99.8762
| 27> C 	 -106.937 	 46.7168 	 -98.5429
| 28> H 	 -106.554 	 44.8292 	 -101.288
| 29> C 	 -106.011 	 47.6973 	 -100.782
| 30> H 	 -106.031 	 48.5408 	 -100.151
| 31> H 	 -106.779 	 47.8108 	 -101.554
| 32> C 	 -104.624 	 47.5059 	 -101.302
| 33> H 	 -104.659 	 46.726 	 -102.102
| 34> H 	 -103.964 	 47.1648 	 -100.477
| 35> C 	 -104.052 	 48.7957 	 -101.929
| 36> H 	 -103.08 	 48.6251 	 -102.194
| 37> H 	 -104.137 	 49.711 	 -101.335
| 38> H 	 -104.529 	 48.9445 	 -102.864
| 39> H 	 -106.625 	 49.8883 	 -94.6741
| 40> H 	 -107.503 	 43.3841 	 -99.4458
| 41> *
| 42>
| 43>                          ****END OF INPUT****

CARTESIAN COORDINATES (ANGSTROEM)
---------------------------------
  S    -106.462000   47.685600  -95.977000
  C    -106.799000   49.413200  -95.580400
  C    -107.037000   50.067900  -96.767800
  C    -107.294000   49.175200  -97.921000
  C    -106.904000   47.889100  -97.678100
  H    -107.731000   49.511400  -98.854700
  C    -107.290000   51.595200  -96.782400
  H    -106.529000   51.902800  -97.480700
  H    -106.933000   51.983700  -95.832000
  C    -108.657000   52.134500  -97.187400
  H    -108.838000   53.205100  -96.887900
  H    -108.759000   51.983200  -98.261400
  C    -109.876000   51.328400  -96.729700
  H    -110.150000   50.320500  -97.073600
  H    -109.804000   51.306700  -95.647900
  H    -110.759000   51.888100  -97.181500
  S    -107.738000   45.332000  -97.963800
  C    -107.404000   44.445000  -99.348500
  C    -106.855000   45.237500  -100.326000
  C    -106.602000   46.592600  -99.876200
  C    -106.937000   46.716800  -98.542900
  H    -106.554000   44.829200  -101.288000
  C    -106.011000   47.697300  -100.782000
  H    -106.031000   48.540800  -100.151000
  H    -106.779000   47.810800  -101.554000
  C    -104.624000   47.505900  -101.302000
  H    -104.659000   46.726000  -102.102000
  H    -103.964000   47.164800  -100.477000
  C    -104.052000   48.795700  -101.929000
  H    -103.080000   48.625100  -102.194000
  H    -104.137000   49.711000  -101.335000
  H    -104.529000   48.944500  -102.864000
  H    -106.625000   49.888300  -94.674100
  H    -107.503000   43.384100  -99.445800

 Total Charge           Charge          ....    0
 Multiplicity           Mult            ....    1
 Number of Electrons    NEL             ....  134
 Basis Dimension        Dim             ....  322

ORBITAL ENERGIES
----------------

  NO   OCC          E(Eh)            E(eV)
   0   2.0000     -88.963112     -2420.8094
   1   2.0000     -88.960624     -2420.7416
   2   2.0000     -10.332503      -281.1617
   3   2.0000     -10.320410      -280.8326
   4   2.0000     -10.313860      -280.6544
   5   2.0000     -10.309160      -280.5265
   6   2.0000     -10.307613      -280.4844
   7   2.0000     -10.303633      -280.3761
   8   2.0000     -10.299294      -280.2580
   9   2.0000     -10.292728      -280.0794
  10   2.0000     -10.292220      -280.0655
  11   2.0000     -10.291483      -280.0455
  12   2.0000     -10.289481      -279.9910
  13   2.0000     -10.286374      -279.9065
  14   2.0000     -10.278481      -279.6917
  15   2.0000     -10.268553      -279.4215
  16   2.0000      -8.080221      -219.8740
  17   2.0000      -8.074581      -219.7205
  18   2.0000      -6.038548      -164.3172
  19   2.0000      -6.034332      -164.2025
  20   2.0000      -6.033382      -164.1767
  21   2.0000      -6.031065      -164.1136
  22   2.0000      -6.029211      -164.0632
  23   2.0000      -6.025036      -163.9496
  24   2.0000      -1.014894       -27.6167
  25   2.0000      -0.981599       -26.7107
  26   2.0000      -0.914014       -24.8716
  27   2.0000      -0.909712       -24.7545
  28   2.0000      -0.871710       -23.7204
  29   2.0000      -0.853985       -23.2381
  30   2.0000      -0.835912       -22.7463
  31   2.0000      -0.819786       -22.3075
  32   2.0000      -0.787964       -21.4416
  33   2.0000      -0.776237       -21.1225
  34   2.0000      -0.707434       -19.2503
  35   2.0000      -0.698864       -19.0171
  36   2.0000      -0.690975       -18.8024
  37   2.0000      -0.657925       -17.9030
  38   2.0000      -0.639717       -17.4076
  39   2.0000      -0.621163       -16.9027
  40   2.0000      -0.596751       -16.2384
  41   2.0000      -0.572695       -15.5838
  42   2.0000      -0.565695       -15.3933
  43   2.0000      -0.555913       -15.1272
  44   2.0000      -0.541457       -14.7338
  45   2.0000      -0.531748       -14.4696
  46   2.0000      -0.519870       -14.1464
  47   2.0000      -0.515839       -14.0367
  48   2.0000      -0.507242       -13.8028
  49   2.0000      -0.504517       -13.7286
  50   2.0000      -0.490268       -13.3409
  51   2.0000      -0.482158       -13.1202
  52   2.0000      -0.476005       -12.9528
  53   2.0000      -0.466046       -12.6817
  54   2.0000      -0.456322       -12.4171
  55   2.0000      -0.448598       -12.2070
  56   2.0000      -0.447542       -12.1782
  57   2.0000      -0.437322       -11.9001
  58   2.0000      -0.429876       -11.6975
  59   2.0000      -0.422518       -11.4973
  60   2.0000      -0.415444       -11.3048
  61   2.0000      -0.410710       -11.1760
  62   2.0000      -0.396798       -10.7974
  63   2.0000      -0.350818        -9.5462
  64   2.0000      -0.330042        -8.9809
  65   2.0000      -0.324108        -8.8194
  66   2.0000      -0.298265        -8.1162
  67   0.0000       0.031049         0.8449
  68   0.0000       0.082184         2.2363
  69   0.0000       0.112323         3.0565
  70   0.0000       0.116395         3.1673
  71   0.0000       0.134539         3.6610

MULLIKEN ATOMIC CHARGES
-----------------------
   0 S :    0.078083
   1 C :   -0.086686
   2 C :   -0.140615
   3 C :    0.034116
   4 C :   -0.141720
   5 H :    0.023097
   6 C :    0.097471
   7 H :    0.030073
   8 H :    0.008425
   9 C :   -0.076009
  10 H :    0.054814
  11 H :    0.025239
  12 C :   -0.082574
  13 H :    0.041195
  14 H :    0.031448
  15 H :    0.035252
  16 S :    0.130940
  17 C :   -0.077687
  18 C :   -0.044298
  19 C :   -0.074533
  20 C :   -0.149061
  21 H :    0.015347
  22 C :    0.123419
  23 H :   -0.012011
  24 H :    0.033476
  25 C :   -0.103377
  26 H :    0.030491
  27 H :    0.044300
  28 C :    0.010027
  29 H :    0.010080
  30 H :    0.037404
  31 H :    0.011468
  32 H :    0.030467
  33 H :    0.051938
Sum of atomic charges:    0.0000000

LOEWDIN ATOMIC CHARGES
----------------------
   0 S :    0.362822
   1 C :   -0.171999
   2 C :   -0.051549
   3 C :   -0.068370
   4 C :   -0.176001
   5 H :    0.031158
   6 C :   -0.036412
   7 H :    0.033464
   8 H :    0.025667
   9 C :   -0.049283
  10 H :    0.038906
  11 H :    0.024252
  12 C :   -0.076980
  13 H :    0.027764
  14 H :    0.020551
  15 H :    0.034394
  16 S :    0.457174
  17 C :   -0.204988
  18 C :   -0.074084
  19 C :   -0.048782
  20 C :   -0.225079
  21 H :    0.028956
  22 C :   -0.030027
  23 H :    0.019439
  24 H :    0.034794
  25 C :   -0.038956
  26 H :    0.026160
  27 H :    0.030866
  28 C :   -0.054697
  29 H :    0.015591
  30 H :    0.028056
  31 H :    0.021848
  32 H :    0.017008
  33 H :    0.028336

  Mayer bond orders larger than 0.100000
B(  0-S ,  1-C ) :   1.0977 B(  0-S ,  4-C ) :   1.1374 B(  1-C ,  2-C ) :   1.6573
B(  1-C , 32-H ) :   0.9757 B(  2-C ,  3-C ) :   1.1760 B(  2-C ,  6-C ) :   1.0247
B(  3-C ,  4-C ) :   1.6208 B(  3-C ,  5-H ) :   0.9847 B(  4-C , 20-C ) :   1.0156
B(  6-C ,  7-H ) :   0.9344 B(  6-C ,  8-H ) :   0.9410 B(  6-C ,  9-C ) :   1.0621
B(  9-C , 10-H ) :   0.9563 B(  9-C , 11-H ) :   0.9518 B(  9-C , 12-C ) :   1.0790
B( 12-C , 13-H ) :   0.9714 B( 12-C , 14-H ) :   0.9799 B( 12-C , 15-H ) :   0.9731
B( 16-S , 17-C ) :   1.1737 B( 16-S , 20-C ) :   1.1677 B( 17-C , 18-C ) :   1.5896
B( 17-C , 33-H ) :   0.9709 B( 18-C , 19-C ) :   1.2458 B( 18-C , 21-H ) :   0.9938
B( 19-C , 20-C ) :   1.5885 B( 19-C , 22-C ) :   1.0302 B( 22-C , 23-H ) :   0.9226
B( 22-C , 24-H ) :   0.9260 B( 22-C , 25-C ) :   1.0776 B( 25-C , 26-H ) :   0.9506
B( 25-C , 27-H ) :   0.9561 B( 25-C , 28-C ) :   1.0910 B( 28-C , 29-H ) :   0.9705
B( 28-C , 30-H ) :   0.9758 B( 28-C , 31-H ) :   0.9698

Dispersion correction           -0.014118450
FINAL SINGLE POINT ENERGY     -1339.864412617832

DIPOLE MOMENT
-------------
                                X             Y             Z
Electronic contribution:     -1.34328     -21.40032      13.67663
Nuclear contribution   :      1.39284      21.84128     -14.23400
                        -----------------------------------------
Total Dipole Moment    :      0.04956       0.44096      -0.55737
                        -----------------------------------------
Magnitude (a.u.)       :      0.71244
Magnitude (Debye)      :      1.81087

Rotational constants in cm-1:     0.017132     0.008959     0.007058
Rotational constants in MHz :   513.613282   268.589506   211.589427

                             ****ORCA TERMINATED NORMALLY****
TOTAL RUN TIME: 0 days 0 hours 0 minutes 21 seconds 536 msec
