                         Program Version 4.2.1 -  RELEASE  -
|  1> ! wB97X-D3 SP def2-SVP
|  2> %pal
|  3> nprocs 24
|  4> end
|  5>
|  6> * xyz 0 1
|  7> S 	 -54.1859 	 11.3615 	 -104.068
|  8> C 	 -55.5153 	 11.7451 	 -105.302
|  9> C 	 -55.5287 	 13.0913 	 -105.426
| 10> C 	 -55.0132 	 13.7384 	 -104.225
| 11> C 	 -54.1555 	 13.0032 	 -103.435
| 12> H 	 -55.1088 	 14.8533 	 -104.04
| 13> C 	 -56.3185 	 13.7871 	 -106.497
| 14> H 	 -56.1499 	 13.3362 	 -107.441
| 15> H 	 -55.8272 	 14.7303 	 -106.717
| 16> C 	 -57.8307 	 14.0375 	 -106.289
| 17> H 	 -58.3474 	 13.0515 	 -106.323
| 18> H 	 -58.1075 	 14.5998 	 -105.422
| 19> C 	 -58.3441 	 14.8853 	 -107.459
| 20> H 	 -59.4313 	 14.6155 	 -107.689
| 21> H 	 -58.2945 	 16.0273 	 -107.206
| 22> H 	 -57.7434 	 14.7715 	 -108.351
| 23> S 	 -54.1723 	 12.8329 	 -100.855
| 24> C 	 -52.9957 	 13.8055 	 -99.9234
| 25> C 	 -52.1059 	 14.5309 	 -100.646
| 26> C 	 -52.3369 	 14.2274 	 -102.054
| 27> C 	 -53.4342 	 13.3922 	 -102.316
| 28> H 	 -51.3789 	 15.1489 	 -100.142
| 29> C 	 -51.4203 	 14.7648 	 -103.131
| 30> H 	 -51.8599 	 14.6174 	 -104.078
| 31> H 	 -50.4732 	 14.1732 	 -103.115
| 32> C 	 -51.1797 	 16.3023 	 -103.048
| 33> H 	 -50.3291 	 16.5226 	 -103.732
| 34> H 	 -50.7485 	 16.4928 	 -102.08
| 35> C 	 -52.3939 	 17.1804 	 -103.282
| 36> H 	 -52.1339 	 18.2349 	 -103.523
| 37> H 	 -53.0103 	 17.208 	 -102.377
| 38> H 	 -53.0373 	 16.7326 	 -104.069
| 39> H 	 -55.8216 	 11.0361 	 -106.104
| 40> H 	 -52.9745 	 13.8171 	 -98.8635
| 41> *
| 42>
| 43>                          ****END OF INPUT****

CARTESIAN COORDINATES (ANGSTROEM)
---------------------------------
  S    -54.185900   11.361500  -104.068000
  C    -55.515300   11.745100  -105.302000
  C    -55.528700   13.091300  -105.426000
  C    -55.013200   13.738400  -104.225000
  C    -54.155500   13.003200  -103.435000
  H    -55.108800   14.853300  -104.040000
  C    -56.318500   13.787100  -106.497000
  H    -56.149900   13.336200  -107.441000
  H    -55.827200   14.730300  -106.717000
  C    -57.830700   14.037500  -106.289000
  H    -58.347400   13.051500  -106.323000
  H    -58.107500   14.599800  -105.422000
  C    -58.344100   14.885300  -107.459000
  H    -59.431300   14.615500  -107.689000
  H    -58.294500   16.027300  -107.206000
  H    -57.743400   14.771500  -108.351000
  S    -54.172300   12.832900  -100.855000
  C    -52.995700   13.805500  -99.923400
  C    -52.105900   14.530900  -100.646000
  C    -52.336900   14.227400  -102.054000
  C    -53.434200   13.392200  -102.316000
  H    -51.378900   15.148900  -100.142000
  C    -51.420300   14.764800  -103.131000
  H    -51.859900   14.617400  -104.078000
  H    -50.473200   14.173200  -103.115000
  C    -51.179700   16.302300  -103.048000
  H    -50.329100   16.522600  -103.732000
  H    -50.748500   16.492800  -102.080000
  C    -52.393900   17.180400  -103.282000
  H    -52.133900   18.234900  -103.523000
  H    -53.010300   17.208000  -102.377000
  H    -53.037300   16.732600  -104.069000
  H    -55.821600   11.036100  -106.104000
  H    -52.974500   13.817100  -98.863500

 Total Charge           Charge          ....    0
 Multiplicity           Mult            ....    1
 Number of Electrons    NEL             ....  134
 Basis Dimension        Dim             ....  322

ORBITAL ENERGIES
----------------

  NO   OCC          E(Eh)            E(eV)
   0   2.0000     -88.963750     -2420.8267
   1   2.0000     -88.956971     -2420.6422
   2   2.0000     -10.326835      -281.0075
   3   2.0000     -10.321006      -280.8488
   4   2.0000     -10.320304      -280.8297
   5   2.0000     -10.317148      -280.7439
   6   2.0000     -10.311599      -280.5929
   7   2.0000     -10.302802      -280.3535
   8   2.0000     -10.299253      -280.2569
   9   2.0000     -10.298178      -280.2277
  10   2.0000     -10.290278      -280.0127
  11   2.0000     -10.290257      -280.0121
  12   2.0000     -10.290112      -280.0082
  13   2.0000     -10.288152      -279.9548
  14   2.0000     -10.286551      -279.9113
  15   2.0000     -10.282153      -279.7916
  16   2.0000      -8.078718      -219.8331
  17   2.0000      -8.070680      -219.6144
  18   2.0000      -6.037247      -164.2819
  19   2.0000      -6.033271      -164.1736
  20   2.0000      -6.029437      -164.0693
  21   2.0000      -6.029313      -164.0659
  22   2.0000      -6.025523      -163.9628
  23   2.0000      -6.020979      -163.8392
  24   2.0000      -1.007826       -27.4243
  25   2.0000      -0.978480       -26.6258
  26   2.0000      -0.915811       -24.9205
  27   2.0000      -0.906709       -24.6728
  28   2.0000      -0.880550       -23.9610
  29   2.0000      -0.844620       -22.9833
  30   2.0000      -0.837713       -22.7953
  31   2.0000      -0.815038       -22.1783
  32   2.0000      -0.779940       -21.2233
  33   2.0000      -0.769037       -20.9266
  34   2.0000      -0.713665       -19.4198
  35   2.0000      -0.700669       -19.0662
  36   2.0000      -0.695343       -18.9212
  37   2.0000      -0.659172       -17.9370
  38   2.0000      -0.640843       -17.4382
  39   2.0000      -0.611226       -16.6323
  40   2.0000      -0.597829       -16.2678
  41   2.0000      -0.571098       -15.5404
  42   2.0000      -0.562130       -15.2963
  43   2.0000      -0.553891       -15.0721
  44   2.0000      -0.541089       -14.7238
  45   2.0000      -0.527223       -14.3465
  46   2.0000      -0.516212       -14.0469
  47   2.0000      -0.511895       -13.9294
  48   2.0000      -0.507725       -13.8159
  49   2.0000      -0.496828       -13.5194
  50   2.0000      -0.491918       -13.3858
  51   2.0000      -0.472648       -12.8614
  52   2.0000      -0.462872       -12.5954
  53   2.0000      -0.459799       -12.5118
  54   2.0000      -0.454231       -12.3603
  55   2.0000      -0.449357       -12.2276
  56   2.0000      -0.446379       -12.1466
  57   2.0000      -0.442655       -12.0453
  58   2.0000      -0.435220       -11.8429
  59   2.0000      -0.420519       -11.4429
  60   2.0000      -0.417596       -11.3634
  61   2.0000      -0.412503       -11.2248
  62   2.0000      -0.406576       -11.0635
  63   2.0000      -0.341904        -9.3037
  64   2.0000      -0.326524        -8.8852
  65   2.0000      -0.317409        -8.6371
  66   2.0000      -0.306577        -8.3424
  67   0.0000       0.035750         0.9728
  68   0.0000       0.056004         1.5239
  69   0.0000       0.098152         2.6708
  70   0.0000       0.115223         3.1354
  71   0.0000       0.120657         3.2833

MULLIKEN ATOMIC CHARGES
-----------------------
   0 S :    0.071254
   1 C :   -0.128904
   2 C :   -0.077868
   3 C :    0.020060
   4 C :   -0.154374
   5 H :    0.032221
   6 C :    0.042750
   7 H :    0.010546
   8 H :    0.012578
   9 C :   -0.024748
  10 H :    0.038034
  11 H :    0.035209
  12 C :   -0.115007
  13 H :    0.049513
  14 H :    0.048869
  15 H :    0.030284
  16 S :    0.115351
  17 C :   -0.068798
  18 C :   -0.033009
  19 C :   -0.028158
  20 C :   -0.168005
  21 H :    0.028879
  22 C :    0.072715
  23 H :    0.011868
  24 H :    0.050390
  25 C :   -0.092024
  26 H :    0.030526
  27 H :    0.014840
  28 C :   -0.053871
  29 H :    0.046062
  30 H :    0.039090
  31 H :    0.033921
  32 H :    0.072404
  33 H :    0.037403
Sum of atomic charges:   -0.0000000

LOEWDIN ATOMIC CHARGES
----------------------
   0 S :    0.346032
   1 C :   -0.166146
   2 C :   -0.064183
   3 C :   -0.066712
   4 C :   -0.201730
   5 H :    0.036806
   6 C :   -0.038884
   7 H :    0.026865
   8 H :    0.030021
   9 C :   -0.034568
  10 H :    0.029088
  11 H :    0.025285
  12 C :   -0.077430
  13 H :    0.034302
  14 H :    0.035157
  15 H :    0.017399
  16 S :    0.408495
  17 C :   -0.153460
  18 C :   -0.070527
  19 C :   -0.039740
  20 C :   -0.217073
  21 H :    0.037951
  22 C :   -0.030326
  23 H :    0.020727
  24 H :    0.041673
  25 C :   -0.045391
  26 H :    0.027040
  27 H :    0.014429
  28 C :   -0.070064
  29 H :    0.032918
  30 H :    0.028828
  31 H :    0.026916
  32 H :    0.038301
  33 H :    0.018004

  Mayer bond orders larger than 0.100000
B(  0-S ,  1-C ) :   1.0979 B(  0-S ,  4-C ) :   1.1166 B(  1-C ,  2-C ) :   1.6503
B(  1-C , 32-H ) :   0.9613 B(  2-C ,  3-C ) :   1.1810 B(  2-C ,  6-C ) :   1.0465
B(  3-C ,  4-C ) :   1.6310 B(  3-C ,  5-H ) :   0.9788 B(  4-C , 20-C ) :   1.0549
B(  6-C ,  7-H ) :   0.9321 B(  6-C ,  8-H ) :   0.9345 B(  6-C ,  9-C ) :   1.0648
B(  9-C , 10-H ) :   0.9583 B(  9-C , 11-H ) :   0.9603 B(  9-C , 12-C ) :   1.0609
B( 12-C , 13-H ) :   0.9744 B( 12-C , 14-H ) :   0.9771 B( 12-C , 15-H ) :   0.9765
B( 16-S , 17-C ) :   1.1467 B( 16-S , 20-C ) :   1.1320 B( 17-C , 18-C ) :   1.6634
B( 17-C , 33-H ) :   0.9651 B( 18-C , 19-C ) :   1.1789 B( 18-C , 21-H ) :   0.9930
B( 19-C , 20-C ) :   1.6164 B( 19-C , 22-C ) :   1.0480 B( 22-C , 23-H ) :   0.9347
B( 22-C , 24-H ) :   0.9356 B( 22-C , 25-C ) :   1.0705 B( 25-C , 26-H ) :   0.9572
B( 25-C , 27-H ) :   0.9560 B( 25-C , 28-C ) :   1.0656 B( 28-C , 29-H ) :   0.9733
B( 28-C , 30-H ) :   0.9721 B( 28-C , 31-H ) :   0.9748

Dispersion correction           -0.014262487
FINAL SINGLE POINT ENERGY     -1339.853571920545

DIPOLE MOMENT
-------------
                                X             Y             Z
Electronic contribution:      4.87877     -21.26341      16.89654
Nuclear contribution   :     -4.78124      21.93943     -17.18446
                        -----------------------------------------
Total Dipole Moment    :      0.09753       0.67602      -0.28792
                        -----------------------------------------
Magnitude (a.u.)       :      0.74123
Magnitude (Debye)      :      1.88405

Rotational constants in cm-1:     0.019230     0.008045     0.006675
Rotational constants in MHz :   576.504055   241.176954   200.105148

                             ****ORCA TERMINATED NORMALLY****
TOTAL RUN TIME: 0 days 0 hours 0 minutes 21 seconds 442 msec
