                         Program Version 4.2.1 -  RELEASE  -
|  1> ! wB97X-D3 SP def2-SVP
|  2> %pal
|  3> nprocs 24
|  4> end
|  5>
|  6> * xyz 0 1
|  7> S 	 39.9751 	 -19.1431 	 -109.73
|  8> C 	 39.4071 	 -18.3444 	 -111.149
|  9> C 	 38.1714 	 -17.779 	 -110.993
| 10> C 	 37.7247 	 -17.9445 	 -109.624
| 11> C 	 38.6065 	 -18.6446 	 -108.771
| 12> H 	 36.8063 	 -17.488 	 -109.202
| 13> C 	 37.3039 	 -17.0449 	 -112.01
| 14> H 	 38.0041 	 -16.7623 	 -112.797
| 15> H 	 36.7577 	 -16.2322 	 -111.625
| 16> C 	 36.3387 	 -18.014 	 -112.82
| 17> H 	 35.9882 	 -17.4675 	 -113.684
| 18> H 	 36.7604 	 -18.9546 	 -113.261
| 19> C 	 35.1045 	 -18.4473 	 -111.937
| 20> H 	 34.2702 	 -18.8682 	 -112.539
| 21> H 	 35.3618 	 -19.1204 	 -111.123
| 22> H 	 34.646 	 -17.5334 	 -111.476
| 23> S 	 39.8865 	 -18.3175 	 -106.373
| 24> C 	 39.0402 	 -18.8993 	 -104.912
| 25> C 	 37.8365 	 -19.4397 	 -105.281
| 26> C 	 37.4829 	 -19.4047 	 -106.671
| 27> C 	 38.4895 	 -18.8264 	 -107.379
| 28> H 	 37.1377 	 -19.9023 	 -104.624
| 29> C 	 36.112 	 -19.9777 	 -107.118
| 30> H 	 36.2308 	 -20.3175 	 -108.141
| 31> H 	 35.4918 	 -19.1612 	 -107.301
| 32> C 	 35.5525 	 -21.1696 	 -106.218
| 33> H 	 35.1878 	 -20.8876 	 -105.279
| 34> H 	 36.4105 	 -21.7703 	 -105.946
| 35> C 	 34.3937 	 -21.9636 	 -106.824
| 36> H 	 33.5195 	 -21.2593 	 -106.954
| 37> H 	 33.9286 	 -22.6782 	 -106.248
| 38> H 	 34.6593 	 -22.3538 	 -107.782
| 39> H 	 40.1218 	 -18.387 	 -111.98
| 40> H 	 39.398 	 -18.9567 	 -103.922
| 41> *
| 42>
| 43>                          ****END OF INPUT****

CARTESIAN COORDINATES (ANGSTROEM)
---------------------------------
  S     39.975100  -19.143100  -109.730000
  C     39.407100  -18.344400  -111.149000
  C     38.171400  -17.779000  -110.993000
  C     37.724700  -17.944500  -109.624000
  C     38.606500  -18.644600  -108.771000
  H     36.806300  -17.488000  -109.202000
  C     37.303900  -17.044900  -112.010000
  H     38.004100  -16.762300  -112.797000
  H     36.757700  -16.232200  -111.625000
  C     36.338700  -18.014000  -112.820000
  H     35.988200  -17.467500  -113.684000
  H     36.760400  -18.954600  -113.261000
  C     35.104500  -18.447300  -111.937000
  H     34.270200  -18.868200  -112.539000
  H     35.361800  -19.120400  -111.123000
  H     34.646000  -17.533400  -111.476000
  S     39.886500  -18.317500  -106.373000
  C     39.040200  -18.899300  -104.912000
  C     37.836500  -19.439700  -105.281000
  C     37.482900  -19.404700  -106.671000
  C     38.489500  -18.826400  -107.379000
  H     37.137700  -19.902300  -104.624000
  C     36.112000  -19.977700  -107.118000
  H     36.230800  -20.317500  -108.141000
  H     35.491800  -19.161200  -107.301000
  C     35.552500  -21.169600  -106.218000
  H     35.187800  -20.887600  -105.279000
  H     36.410500  -21.770300  -105.946000
  C     34.393700  -21.963600  -106.824000
  H     33.519500  -21.259300  -106.954000
  H     33.928600  -22.678200  -106.248000
  H     34.659300  -22.353800  -107.782000
  H     40.121800  -18.387000  -111.980000
  H     39.398000  -18.956700  -103.922000

 Total Charge           Charge          ....    0
 Multiplicity           Mult            ....    1
 Number of Electrons    NEL             ....  134
 Basis Dimension        Dim             ....  322

ORBITAL ENERGIES
----------------

  NO   OCC          E(Eh)            E(eV)
   0   2.0000     -88.964398     -2420.8443
   1   2.0000     -88.962597     -2420.7953
   2   2.0000     -10.324409      -280.9415
   3   2.0000     -10.323084      -280.9054
   4   2.0000     -10.315749      -280.7058
   5   2.0000     -10.314546      -280.6731
   6   2.0000     -10.305048      -280.4146
   7   2.0000     -10.301930      -280.3298
   8   2.0000     -10.297991      -280.2226
   9   2.0000     -10.297160      -280.2000
  10   2.0000     -10.296595      -280.1846
  11   2.0000     -10.295366      -280.1512
  12   2.0000     -10.290822      -280.0275
  13   2.0000     -10.287163      -279.9279
  14   2.0000     -10.282573      -279.8030
  15   2.0000     -10.276892      -279.6485
  16   2.0000      -8.078194      -219.8188
  17   2.0000      -8.077968      -219.8127
  18   2.0000      -6.036765      -164.2687
  19   2.0000      -6.036625      -164.2649
  20   2.0000      -6.032759      -164.1597
  21   2.0000      -6.032459      -164.1516
  22   2.0000      -6.029102      -164.0602
  23   2.0000      -6.028368      -164.0402
  24   2.0000      -1.005512       -27.3614
  25   2.0000      -0.980523       -26.6814
  26   2.0000      -0.905694       -24.6452
  27   2.0000      -0.903329       -24.5808
  28   2.0000      -0.871935       -23.7266
  29   2.0000      -0.852105       -23.1870
  30   2.0000      -0.839541       -22.8451
  31   2.0000      -0.809402       -22.0250
  32   2.0000      -0.785699       -21.3799
  33   2.0000      -0.774640       -21.0790
  34   2.0000      -0.718953       -19.5637
  35   2.0000      -0.703425       -19.1412
  36   2.0000      -0.700440       -19.0599
  37   2.0000      -0.660715       -17.9790
  38   2.0000      -0.645163       -17.5558
  39   2.0000      -0.610851       -16.6221
  40   2.0000      -0.598381       -16.2828
  41   2.0000      -0.571117       -15.5409
  42   2.0000      -0.568895       -15.4804
  43   2.0000      -0.539866       -14.6905
  44   2.0000      -0.535184       -14.5631
  45   2.0000      -0.529574       -14.4104
  46   2.0000      -0.515357       -14.0236
  47   2.0000      -0.509689       -13.8693
  48   2.0000      -0.505304       -13.7500
  49   2.0000      -0.499689       -13.5972
  50   2.0000      -0.487305       -13.2602
  51   2.0000      -0.482524       -13.1301
  52   2.0000      -0.472442       -12.8558
  53   2.0000      -0.466396       -12.6913
  54   2.0000      -0.459844       -12.5130
  55   2.0000      -0.455845       -12.4042
  56   2.0000      -0.437717       -11.9109
  57   2.0000      -0.433519       -11.7966
  58   2.0000      -0.429998       -11.7008
  59   2.0000      -0.424999       -11.5648
  60   2.0000      -0.422356       -11.4929
  61   2.0000      -0.419285       -11.4093
  62   2.0000      -0.418703       -11.3935
  63   2.0000      -0.344437        -9.3726
  64   2.0000      -0.332387        -9.0447
  65   2.0000      -0.326078        -8.8730
  66   2.0000      -0.292556        -7.9609
  67   0.0000       0.029260         0.7962
  68   0.0000       0.072179         1.9641
  69   0.0000       0.113609         3.0915
  70   0.0000       0.123482         3.3601
  71   0.0000       0.130335         3.5466

MULLIKEN ATOMIC CHARGES
-----------------------
   0 S :    0.110343
   1 C :   -0.161377
   2 C :   -0.047357
   3 C :    0.001529
   4 C :   -0.177400
   5 H :    0.020601
   6 C :    0.096631
   7 H :    0.024068
   8 H :    0.028759
   9 C :   -0.082545
  10 H :    0.029505
  11 H :    0.041596
  12 C :   -0.092516
  13 H :    0.040305
  14 H :    0.048371
  15 H :    0.021441
  16 S :    0.100138
  17 C :   -0.056025
  18 C :   -0.025216
  19 C :   -0.057494
  20 C :   -0.172933
  21 H :   -0.001016
  22 C :    0.136711
  23 H :    0.018367
  24 H :    0.021032
  25 C :   -0.084919
  26 H :    0.022202
  27 H :    0.036566
  28 C :   -0.012823
  29 H :    0.024507
  30 H :    0.018297
  31 H :    0.029735
  32 H :    0.059241
  33 H :    0.041675
Sum of atomic charges:    0.0000000

LOEWDIN ATOMIC CHARGES
----------------------
   0 S :    0.418277
   1 C :   -0.201504
   2 C :   -0.066123
   3 C :   -0.065236
   4 C :   -0.206788
   5 H :    0.032102
   6 C :   -0.019241
   7 H :    0.034967
   8 H :    0.025781
   9 C :   -0.036649
  10 H :    0.020279
  11 H :    0.030558
  12 C :   -0.078599
  13 H :    0.028358
  14 H :    0.023251
  15 H :    0.022984
  16 S :    0.370571
  17 C :   -0.168514
  18 C :   -0.065806
  19 C :   -0.048592
  20 C :   -0.187540
  21 H :    0.022769
  22 C :   -0.019595
  23 H :    0.033613
  24 H :    0.025149
  25 C :   -0.035956
  26 H :    0.015924
  27 H :    0.026509
  28 C :   -0.057046
  29 H :    0.034024
  30 H :    0.017019
  31 H :    0.021247
  32 H :    0.028777
  33 H :    0.025031

  Mayer bond orders larger than 0.100000
B(  0-S ,  1-C ) :   1.1597 B(  0-S ,  4-C ) :   1.1533 B(  1-C ,  2-C ) :   1.5836
B(  1-C , 32-H ) :   0.9706 B(  2-C ,  3-C ) :   1.2502 B(  2-C ,  6-C ) :   1.0268
B(  3-C ,  4-C ) :   1.5526 B(  3-C ,  5-H ) :   0.9874 B(  4-C , 20-C ) :   1.0794
B(  6-C ,  7-H ) :   0.9356 B(  6-C ,  8-H ) :   0.9480 B(  6-C ,  9-C ) :   1.0631
B(  9-C , 10-H ) :   0.9601 B(  9-C , 11-H ) :   0.9595 B(  9-C , 12-C ) :   1.0676
B( 12-C , 13-H ) :   0.9751 B( 12-C , 14-H ) :   0.9768 B( 12-C , 15-H ) :   0.9755
B( 16-S , 17-C ) :   1.1177 B( 16-S , 20-C ) :   1.1157 B( 17-C , 18-C ) :   1.6284
B( 17-C , 33-H ) :   0.9723 B( 18-C , 19-C ) :   1.2376 B( 18-C , 21-H ) :   0.9812
B( 19-C , 20-C ) :   1.6404 B( 19-C , 22-C ) :   1.0236 B( 22-C , 23-H ) :   0.9254
B( 22-C , 24-H ) :   0.9262 B( 22-C , 25-C ) :   1.0441 B( 25-C , 26-H ) :   0.9483
B( 25-C , 27-H ) :   0.9613 B( 25-C , 28-C ) :   1.0899 B( 28-C , 29-H ) :   0.9703
B( 28-C , 30-H ) :   0.9733 B( 28-C , 31-H ) :   0.9768

Dispersion correction           -0.014135397
FINAL SINGLE POINT ENERGY     -1339.867727796121

DIPOLE MOMENT
-------------
                                X             Y             Z
Electronic contribution:     28.29265       6.46827       9.08630
Nuclear contribution   :    -29.01054      -6.56884      -9.24735
                        -----------------------------------------
Total Dipole Moment    :     -0.71789      -0.10057      -0.16106
                        -----------------------------------------
Magnitude (a.u.)       :      0.74258
Magnitude (Debye)      :      1.88748

Rotational constants in cm-1:     0.016163     0.009513     0.006581
Rotational constants in MHz :   484.561255   285.196748   197.280766

                             ****ORCA TERMINATED NORMALLY****
TOTAL RUN TIME: 0 days 0 hours 0 minutes 20 seconds 155 msec
