                         Program Version 4.2.1 -  RELEASE  -
|  1> ! wB97X-D3 SP def2-SVP
|  2> %pal
|  3> nprocs 24
|  4> end
|  5>
|  6> * xyz 0 1
|  7> S 	 -107.289 	 12.4519 	 -9.85022
|  8> C 	 -106.083 	 12.5874 	 -8.57674
|  9> C 	 -106.536 	 12.2959 	 -7.33491
| 10> C 	 -107.912 	 11.9283 	 -7.404
| 11> C 	 -108.428 	 11.913 	 -8.69529
| 12> H 	 -108.573 	 11.675 	 -6.56817
| 13> C 	 -105.743 	 12.4513 	 -6.07067
| 14> H 	 -106.405 	 11.9564 	 -5.33943
| 15> H 	 -105.653 	 13.4793 	 -5.7678
| 16> C 	 -104.353 	 11.8586 	 -6.02259
| 17> H 	 -103.66 	 12.2362 	 -6.87001
| 18> H 	 -103.882 	 12.1794 	 -5.10815
| 19> C 	 -104.256 	 10.346 	 -6.01049
| 20> H 	 -105.153 	 9.95735 	 -5.54248
| 21> H 	 -104.414 	 9.9605 	 -7.02779
| 22> H 	 -103.292 	 9.92618 	 -5.62256
| 23> S 	 -110.573 	 10.2484 	 -8.83762
| 24> C 	 -112.183 	 11.0222 	 -9.14253
| 25> C 	 -112.177 	 12.3947 	 -9.23205
| 26> C 	 -110.841 	 12.8779 	 -8.99415
| 27> C 	 -109.908 	 11.8545 	 -8.85956
| 28> H 	 -113.091 	 12.9301 	 -9.49348
| 29> C 	 -110.635 	 14.3763 	 -8.9718
| 30> H 	 -109.682 	 14.6829 	 -8.46954
| 31> H 	 -111.419 	 14.7894 	 -8.3024
| 32> C 	 -110.695 	 14.992 	 -10.4213
| 33> H 	 -111.569 	 14.5988 	 -10.879
| 34> H 	 -109.897 	 14.4873 	 -11.0549
| 35> C 	 -110.458 	 16.5171 	 -10.4774
| 36> H 	 -111.08 	 17.102 	 -9.84728
| 37> H 	 -110.532 	 16.9824 	 -11.3933
| 38> H 	 -109.423 	 16.5881 	 -10.2841
| 39> H 	 -105.09 	 12.9407 	 -8.71409
| 40> H 	 -113.045 	 10.4335 	 -9.36578
| 41> *
| 42>
| 43>                          ****END OF INPUT****

CARTESIAN COORDINATES (ANGSTROEM)
---------------------------------
  S    -107.289000   12.451900   -9.850220
  C    -106.083000   12.587400   -8.576740
  C    -106.536000   12.295900   -7.334910
  C    -107.912000   11.928300   -7.404000
  C    -108.428000   11.913000   -8.695290
  H    -108.573000   11.675000   -6.568170
  C    -105.743000   12.451300   -6.070670
  H    -106.405000   11.956400   -5.339430
  H    -105.653000   13.479300   -5.767800
  C    -104.353000   11.858600   -6.022590
  H    -103.660000   12.236200   -6.870010
  H    -103.882000   12.179400   -5.108150
  C    -104.256000   10.346000   -6.010490
  H    -105.153000    9.957350   -5.542480
  H    -104.414000    9.960500   -7.027790
  H    -103.292000    9.926180   -5.622560
  S    -110.573000   10.248400   -8.837620
  C    -112.183000   11.022200   -9.142530
  C    -112.177000   12.394700   -9.232050
  C    -110.841000   12.877900   -8.994150
  C    -109.908000   11.854500   -8.859560
  H    -113.091000   12.930100   -9.493480
  C    -110.635000   14.376300   -8.971800
  H    -109.682000   14.682900   -8.469540
  H    -111.419000   14.789400   -8.302400
  C    -110.695000   14.992000  -10.421300
  H    -111.569000   14.598800  -10.879000
  H    -109.897000   14.487300  -11.054900
  C    -110.458000   16.517100  -10.477400
  H    -111.080000   17.102000   -9.847280
  H    -110.532000   16.982400  -11.393300
  H    -109.423000   16.588100  -10.284100
  H    -105.090000   12.940700   -8.714090
  H    -113.045000   10.433500   -9.365780

 Total Charge           Charge          ....    0
 Multiplicity           Mult            ....    1
 Number of Electrons    NEL             ....  134
 Basis Dimension        Dim             ....  322

ORBITAL ENERGIES
----------------

  NO   OCC          E(Eh)            E(eV)
   0   2.0000     -88.970821     -2421.0191
   1   2.0000     -88.965371     -2420.8708
   2   2.0000     -10.325427      -280.9692
   3   2.0000     -10.322753      -280.8964
   4   2.0000     -10.316028      -280.7134
   5   2.0000     -10.307609      -280.4843
   6   2.0000     -10.302965      -280.3579
   7   2.0000     -10.296101      -280.1711
   8   2.0000     -10.295672      -280.1595
   9   2.0000     -10.295040      -280.1423
  10   2.0000     -10.292924      -280.0847
  11   2.0000     -10.292655      -280.0774
  12   2.0000     -10.290567      -280.0206
  13   2.0000     -10.288683      -279.9693
  14   2.0000     -10.276168      -279.6287
  15   2.0000     -10.265617      -279.3416
  16   2.0000      -8.085579      -220.0198
  17   2.0000      -8.079495      -219.8542
  18   2.0000      -6.044013      -164.4660
  19   2.0000      -6.040102      -164.3595
  20   2.0000      -6.037956      -164.3011
  21   2.0000      -6.036412      -164.2591
  22   2.0000      -6.034361      -164.2033
  23   2.0000      -6.030079      -164.0868
  24   2.0000      -1.006749       -27.3950
  25   2.0000      -0.981833       -26.7170
  26   2.0000      -0.917514       -24.9668
  27   2.0000      -0.900086       -24.4926
  28   2.0000      -0.866910       -23.5898
  29   2.0000      -0.853109       -23.2143
  30   2.0000      -0.846098       -23.0235
  31   2.0000      -0.811766       -22.0893
  32   2.0000      -0.786796       -21.4098
  33   2.0000      -0.770738       -20.9729
  34   2.0000      -0.706726       -19.2310
  35   2.0000      -0.702112       -19.1055
  36   2.0000      -0.688731       -18.7413
  37   2.0000      -0.661329       -17.9957
  38   2.0000      -0.640288       -17.4231
  39   2.0000      -0.606740       -16.5102
  40   2.0000      -0.593273       -16.1438
  41   2.0000      -0.575176       -15.6513
  42   2.0000      -0.559295       -15.2192
  43   2.0000      -0.556951       -15.1554
  44   2.0000      -0.539023       -14.6675
  45   2.0000      -0.520091       -14.1524
  46   2.0000      -0.514695       -14.0056
  47   2.0000      -0.511890       -13.9292
  48   2.0000      -0.508364       -13.8333
  49   2.0000      -0.493858       -13.4386
  50   2.0000      -0.489171       -13.3110
  51   2.0000      -0.471366       -12.8265
  52   2.0000      -0.469275       -12.7696
  53   2.0000      -0.459927       -12.5153
  54   2.0000      -0.457917       -12.4605
  55   2.0000      -0.449640       -12.2353
  56   2.0000      -0.444699       -12.1009
  57   2.0000      -0.438239       -11.9251
  58   2.0000      -0.431290       -11.7360
  59   2.0000      -0.429636       -11.6910
  60   2.0000      -0.425033       -11.5657
  61   2.0000      -0.412452       -11.2234
  62   2.0000      -0.410108       -11.1596
  63   2.0000      -0.337793        -9.1918
  64   2.0000      -0.335574        -9.1314
  65   2.0000      -0.322793        -8.7836
  66   2.0000      -0.301443        -8.2027
  67   0.0000       0.045916         1.2494
  68   0.0000       0.057508         1.5649
  69   0.0000       0.106115         2.8875
  70   0.0000       0.113247         3.0816
  71   0.0000       0.129314         3.5188

MULLIKEN ATOMIC CHARGES
-----------------------
   0 S :    0.132715
   1 C :   -0.126555
   2 C :   -0.061917
   3 C :    0.010982
   4 C :   -0.142557
   5 H :    0.021468
   6 C :    0.092262
   7 H :    0.019033
   8 H :    0.043189
   9 C :   -0.103021
  10 H :    0.038193
  11 H :    0.024822
  12 C :   -0.050464
  13 H :    0.018154
  14 H :    0.030244
  15 H :    0.051529
  16 S :    0.102608
  17 C :   -0.089495
  18 C :   -0.035053
  19 C :   -0.018816
  20 C :   -0.206759
  21 H :    0.036079
  22 C :    0.046915
  23 H :    0.030269
  24 H :    0.033332
  25 C :   -0.091686
  26 H :    0.009657
  27 H :    0.028266
  28 C :    0.032469
  29 H :    0.023086
  30 H :    0.009066
  31 H :    0.021123
  32 H :    0.026960
  33 H :    0.043900
Sum of atomic charges:   -0.0000000

LOEWDIN ATOMIC CHARGES
----------------------
   0 S :    0.426671
   1 C :   -0.186123
   2 C :   -0.069709
   3 C :   -0.057905
   4 C :   -0.223564
   5 H :    0.033400
   6 C :   -0.029815
   7 H :    0.033365
   8 H :    0.036700
   9 C :   -0.048590
  10 H :    0.030082
  11 H :    0.022620
  12 C :   -0.073121
  13 H :    0.022849
  14 H :    0.027351
  15 H :    0.033654
  16 S :    0.384310
  17 C :   -0.159908
  18 C :   -0.065635
  19 C :   -0.057664
  20 C :   -0.199058
  21 H :    0.039909
  22 C :   -0.035388
  23 H :    0.031152
  24 H :    0.033126
  25 C :   -0.037172
  26 H :    0.010691
  27 H :    0.030139
  28 C :   -0.057301
  29 H :    0.021377
  30 H :    0.018640
  31 H :    0.027730
  32 H :    0.018909
  33 H :    0.018275

  Mayer bond orders larger than 0.100000
B(  0-S ,  1-C ) :   1.1440 B(  0-S ,  4-C ) :   1.1594 B(  1-C ,  2-C ) :   1.6185
B(  1-C , 32-H ) :   0.9676 B(  2-C ,  3-C ) :   1.2463 B(  2-C ,  6-C ) :   1.0042
B(  3-C ,  4-C ) :   1.5780 B(  3-C ,  5-H ) :   0.9883 B(  4-C , 20-C ) :   0.9826
B(  6-C ,  7-H ) :   0.9385 B(  6-C ,  8-H ) :   0.9320 B(  6-C ,  9-C ) :   1.0904
B(  9-C , 10-H ) :   0.9515 B(  9-C , 11-H ) :   0.9535 B(  9-C , 12-C ) :   1.0721
B( 12-C , 13-H ) :   0.9722 B( 12-C , 14-H ) :   0.9718 B( 12-C , 15-H ) :   0.9759
B( 16-S , 17-C ) :   1.1315 B( 16-S , 20-C ) :   1.1414 B( 17-C , 18-C ) :   1.6627
B( 17-C , 33-H ) :   0.9672 B( 18-C , 19-C ) :   1.1889 B( 18-C , 21-H ) :   0.9859
B( 19-C , 20-C ) :   1.6503 B( 19-C , 22-C ) :   1.0469 B( 22-C , 23-H ) :   0.9389
B( 22-C , 24-H ) :   0.9357 B( 22-C , 25-C ) :   1.0443 B( 25-C , 26-H ) :   0.9633
B( 25-C , 27-H ) :   0.9544 B( 25-C , 28-C ) :   1.0688 B( 28-C , 29-H ) :   0.9762
B( 28-C , 30-H ) :   0.9709 B( 28-C , 31-H ) :   0.9723

Dispersion correction           -0.014544190
FINAL SINGLE POINT ENERGY     -1339.869401039878

DIPOLE MOMENT
-------------
                                X             Y             Z
Electronic contribution:     -9.03371     -12.94636      -7.57022
Nuclear contribution   :      9.07220      13.43491       7.83365
                        -----------------------------------------
Total Dipole Moment    :      0.03849       0.48855       0.26343
                        -----------------------------------------
Magnitude (a.u.)       :      0.55638
Magnitude (Debye)      :      1.41421

Rotational constants in cm-1:     0.020513     0.007990     0.006475
Rotational constants in MHz :   614.958848   239.529230   194.107769

                             ****ORCA TERMINATED NORMALLY****
TOTAL RUN TIME: 0 days 0 hours 0 minutes 21 seconds 372 msec
