                         Program Version 4.2.1 -  RELEASE  -
|  1> ! wB97X-D3 SP def2-SVP
|  2> %pal
|  3> nprocs 24
|  4> end
|  5>
|  6> * xyz 0 1
|  7> S 	 40.0273 	 -9.92113 	 -107.91
|  8> C 	 41.0364 	 -8.58025 	 -108.467
|  9> C 	 40.6915 	 -8.28172 	 -109.781
| 10> C 	 39.6914 	 -9.12658 	 -110.341
| 11> C 	 39.2063 	 -10.0178 	 -109.42
| 12> H 	 39.1968 	 -9.1002 	 -111.318
| 13> C 	 41.1433 	 -7.05453 	 -110.508
| 14> H 	 40.8605 	 -7.22143 	 -111.54
| 15> H 	 42.2339 	 -7.04049 	 -110.492
| 16> C 	 40.5513 	 -5.78155 	 -110.031
| 17> H 	 39.4642 	 -5.84897 	 -110.018
| 18> H 	 40.7916 	 -5.5114 	 -109.031
| 19> C 	 40.9963 	 -4.60646 	 -110.897
| 20> H 	 40.6289 	 -4.71922 	 -111.953
| 21> H 	 40.5039 	 -3.69692 	 -110.531
| 22> H 	 42.0595 	 -4.33881 	 -110.947
| 23> S 	 38.3279 	 -12.5785 	 -109.566
| 24> C 	 36.5972 	 -12.8893 	 -109.545
| 25> C 	 35.8596 	 -11.6934 	 -109.628
| 26> C 	 36.6342 	 -10.5681 	 -109.693
| 27> C 	 37.9994 	 -10.8601 	 -109.504
| 28> H 	 34.7646 	 -11.7955 	 -109.625
| 29> C 	 36.0725 	 -9.1618 	 -109.775
| 30> H 	 34.9819 	 -9.34421 	 -109.93
| 31> H 	 36.44 	 -8.68349 	 -110.698
| 32> C 	 36.2036 	 -8.15377 	 -108.606
| 33> H 	 35.5818 	 -7.26998 	 -108.868
| 34> H 	 37.2442 	 -7.88052 	 -108.481
| 35> C 	 35.6004 	 -8.73245 	 -107.3
| 36> H 	 36.0949 	 -9.53009 	 -106.832
| 37> H 	 34.6272 	 -9.16037 	 -107.501
| 38> H 	 35.5244 	 -7.93248 	 -106.583
| 39> H 	 41.7731 	 -8.09086 	 -107.862
| 40> H 	 36.1819 	 -13.895 	 -109.343
| 41> *
| 42>
| 43>                          ****END OF INPUT****

CARTESIAN COORDINATES (ANGSTROEM)
---------------------------------
  S     40.027300   -9.921130  -107.910000
  C     41.036400   -8.580250  -108.467000
  C     40.691500   -8.281720  -109.781000
  C     39.691400   -9.126580  -110.341000
  C     39.206300  -10.017800  -109.420000
  H     39.196800   -9.100200  -111.318000
  C     41.143300   -7.054530  -110.508000
  H     40.860500   -7.221430  -111.540000
  H     42.233900   -7.040490  -110.492000
  C     40.551300   -5.781550  -110.031000
  H     39.464200   -5.848970  -110.018000
  H     40.791600   -5.511400  -109.031000
  C     40.996300   -4.606460  -110.897000
  H     40.628900   -4.719220  -111.953000
  H     40.503900   -3.696920  -110.531000
  H     42.059500   -4.338810  -110.947000
  S     38.327900  -12.578500  -109.566000
  C     36.597200  -12.889300  -109.545000
  C     35.859600  -11.693400  -109.628000
  C     36.634200  -10.568100  -109.693000
  C     37.999400  -10.860100  -109.504000
  H     34.764600  -11.795500  -109.625000
  C     36.072500   -9.161800  -109.775000
  H     34.981900   -9.344210  -109.930000
  H     36.440000   -8.683490  -110.698000
  C     36.203600   -8.153770  -108.606000
  H     35.581800   -7.269980  -108.868000
  H     37.244200   -7.880520  -108.481000
  C     35.600400   -8.732450  -107.300000
  H     36.094900   -9.530090  -106.832000
  H     34.627200   -9.160370  -107.501000
  H     35.524400   -7.932480  -106.583000
  H     41.773100   -8.090860  -107.862000
  H     36.181900  -13.895000  -109.343000

 Total Charge           Charge          ....    0
 Multiplicity           Mult            ....    1
 Number of Electrons    NEL             ....  134
 Basis Dimension        Dim             ....  322

ORBITAL ENERGIES
----------------

  NO   OCC          E(Eh)            E(eV)
   0   2.0000     -88.967831     -2420.9378
   1   2.0000     -88.964843     -2420.8565
   2   2.0000     -10.325148      -280.9616
   3   2.0000     -10.324744      -280.9506
   4   2.0000     -10.318980      -280.7937
   5   2.0000     -10.314047      -280.6595
   6   2.0000     -10.302191      -280.3369
   7   2.0000     -10.299880      -280.2740
   8   2.0000     -10.294123      -280.1173
   9   2.0000     -10.293250      -280.0936
  10   2.0000     -10.293076      -280.0888
  11   2.0000     -10.288356      -279.9604
  12   2.0000     -10.284254      -279.8488
  13   2.0000     -10.281869      -279.7839
  14   2.0000     -10.280880      -279.7570
  15   2.0000     -10.266017      -279.3525
  16   2.0000      -8.082255      -219.9294
  17   2.0000      -8.079753      -219.8613
  18   2.0000      -6.040464      -164.3694
  19   2.0000      -6.038158      -164.3066
  20   2.0000      -6.036748      -164.2683
  21   2.0000      -6.034109      -164.1964
  22   2.0000      -6.033419      -164.1777
  23   2.0000      -6.030722      -164.1043
  24   2.0000      -1.008077       -27.4312
  25   2.0000      -0.985433       -26.8150
  26   2.0000      -0.920284       -25.0422
  27   2.0000      -0.903852       -24.5951
  28   2.0000      -0.867189       -23.5974
  29   2.0000      -0.849948       -23.1283
  30   2.0000      -0.848805       -23.0972
  31   2.0000      -0.811162       -22.0728
  32   2.0000      -0.782674       -21.2976
  33   2.0000      -0.769432       -20.9373
  34   2.0000      -0.707228       -19.2447
  35   2.0000      -0.705798       -19.2057
  36   2.0000      -0.686330       -18.6760
  37   2.0000      -0.661163       -17.9912
  38   2.0000      -0.647628       -17.6229
  39   2.0000      -0.615773       -16.7560
  40   2.0000      -0.586900       -15.9704
  41   2.0000      -0.572901       -15.5894
  42   2.0000      -0.562588       -15.3088
  43   2.0000      -0.552244       -15.0273
  44   2.0000      -0.543103       -14.7786
  45   2.0000      -0.526221       -14.3192
  46   2.0000      -0.518959       -14.1216
  47   2.0000      -0.513044       -13.9606
  48   2.0000      -0.500978       -13.6323
  49   2.0000      -0.494583       -13.4583
  50   2.0000      -0.489292       -13.3143
  51   2.0000      -0.482473       -13.1288
  52   2.0000      -0.469841       -12.7850
  53   2.0000      -0.459530       -12.5045
  54   2.0000      -0.458210       -12.4685
  55   2.0000      -0.447669       -12.1817
  56   2.0000      -0.441684       -12.0188
  57   2.0000      -0.437462       -11.9039
  58   2.0000      -0.432867       -11.7789
  59   2.0000      -0.426565       -11.6074
  60   2.0000      -0.423522       -11.5246
  61   2.0000      -0.414569       -11.2810
  62   2.0000      -0.413638       -11.2557
  63   2.0000      -0.341353        -9.2887
  64   2.0000      -0.332033        -9.0351
  65   2.0000      -0.324013        -8.8168
  66   2.0000      -0.298298        -8.1171
  67   0.0000       0.031909         0.8683
  68   0.0000       0.058820         1.6006
  69   0.0000       0.112796         3.0693
  70   0.0000       0.120417         3.2767
  71   0.0000       0.134222         3.6524

MULLIKEN ATOMIC CHARGES
-----------------------
   0 S :    0.115557
   1 C :   -0.119788
   2 C :   -0.097429
   3 C :    0.046407
   4 C :   -0.170838
   5 H :    0.021791
   6 C :    0.083276
   7 H :    0.008592
   8 H :    0.025988
   9 C :   -0.028475
  10 H :    0.023915
  11 H :    0.014057
  12 C :   -0.072539
  13 H :    0.030947
  14 H :    0.027667
  15 H :    0.037992
  16 S :    0.121303
  17 C :   -0.117022
  18 C :   -0.068377
  19 C :    0.024950
  20 C :   -0.203663
  21 H :    0.028319
  22 C :    0.042667
  23 H :    0.014542
  24 H :    0.032115
  25 C :   -0.052419
  26 H :    0.037091
  27 H :    0.044076
  28 C :   -0.031797
  29 H :    0.028844
  30 H :    0.011043
  31 H :    0.028643
  32 H :    0.044211
  33 H :    0.068355
Sum of atomic charges:    0.0000000

LOEWDIN ATOMIC CHARGES
----------------------
   0 S :    0.416844
   1 C :   -0.193424
   2 C :   -0.060623
   3 C :   -0.069511
   4 C :   -0.208846
   5 H :    0.038938
   6 C :   -0.034062
   7 H :    0.028335
   8 H :    0.031593
   9 C :   -0.037607
  10 H :    0.027988
  11 H :    0.019503
  12 C :   -0.070489
  13 H :    0.026878
  14 H :    0.026327
  15 H :    0.025856
  16 S :    0.418574
  17 C :   -0.193612
  18 C :   -0.075891
  19 C :   -0.061518
  20 C :   -0.204560
  21 H :    0.037929
  22 C :   -0.036097
  23 H :    0.030465
  24 H :    0.031583
  25 C :   -0.031896
  26 H :    0.031794
  27 H :    0.023387
  28 C :   -0.061665
  29 H :    0.019677
  30 H :    0.021396
  31 H :    0.024464
  32 H :    0.025610
  33 H :    0.032659

  Mayer bond orders larger than 0.100000
B(  0-S ,  1-C ) :   1.1324 B(  0-S ,  4-C ) :   1.1814 B(  1-C ,  2-C ) :   1.5886
B(  1-C ,  4-C ) :   0.1004 B(  1-C , 32-H ) :   0.9815 B(  2-C ,  3-C ) :   1.2323
B(  2-C ,  6-C ) :   1.0306 B(  3-C ,  4-C ) :   1.5805 B(  3-C ,  5-H ) :   0.9972
B(  4-C , 20-C ) :   0.9902 B(  6-C ,  7-H ) :   0.9365 B(  6-C ,  8-H ) :   0.9304
B(  6-C ,  9-C ) :   1.0795 B(  9-C , 10-H ) :   0.9479 B(  9-C , 11-H ) :   0.9494
B(  9-C , 12-C ) :   1.0875 B( 12-C , 13-H ) :   0.9738 B( 12-C , 14-H ) :   0.9729
B( 12-C , 15-H ) :   0.9757 B( 16-S , 17-C ) :   1.1750 B( 16-S , 20-C ) :   1.1869
B( 17-C , 18-C ) :   1.5642 B( 17-C , 20-C ) :   0.1260 B( 17-C , 33-H ) :   0.9638
B( 18-C , 19-C ) :   1.2864 B( 18-C , 21-H ) :   0.9866 B( 19-C , 20-C ) :   1.5303
B( 19-C , 22-C ) :   1.0344 B( 22-C , 23-H ) :   0.9349 B( 22-C , 24-H ) :   0.9288
B( 22-C , 25-C ) :   1.0802 B( 25-C , 26-H ) :   0.9538 B( 25-C , 27-H ) :   0.9536
B( 25-C , 28-C ) :   1.0726 B( 28-C , 29-H ) :   0.9743 B( 28-C , 30-H ) :   0.9750
B( 28-C , 31-H ) :   0.9757

Dispersion correction           -0.015441174
FINAL SINGLE POINT ENERGY     -1339.887479423747

DIPOLE MOMENT
-------------
                                X             Y             Z
Electronic contribution:      5.65553     -27.09910       3.29623
Nuclear contribution   :     -5.90307      27.65474      -3.40869
                        -----------------------------------------
Total Dipole Moment    :     -0.24754       0.55564      -0.11245
                        -----------------------------------------
Magnitude (a.u.)       :      0.61860
Magnitude (Debye)      :      1.57235

Rotational constants in cm-1:     0.021356     0.008608     0.007342
Rotational constants in MHz :   640.241183   258.054454   220.100827

                             ****ORCA TERMINATED NORMALLY****
TOTAL RUN TIME: 0 days 0 hours 0 minutes 21 seconds 414 msec
