                         Program Version 4.2.1 -  RELEASE  -
|  1> ! wB97X-D3 SP def2-SVP
|  2> %pal
|  3> nprocs 24
|  4> end
|  5>
|  6> * xyz 0 1
|  7> S 	 -47.5218 	 13.9334 	 -106.067
|  8> C 	 -48.48 	 12.5291 	 -106.213
|  9> C 	 -49.763 	 12.676 	 -105.644
| 10> C 	 -49.8751 	 14.0165 	 -105.098
| 11> C 	 -48.733 	 14.7752 	 -105.082
| 12> H 	 -50.6146 	 14.3869 	 -104.394
| 13> C 	 -50.7957 	 11.6127 	 -105.501
| 14> H 	 -51.2239 	 11.768 	 -104.516
| 15> H 	 -50.2682 	 10.6866 	 -105.734
| 16> C 	 -51.9457 	 11.6085 	 -106.459
| 17> H 	 -51.5104 	 11.6862 	 -107.446
| 18> H 	 -52.336 	 10.579 	 -106.44
| 19> C 	 -53.05 	 12.6855 	 -106.041
| 20> H 	 -52.6096 	 13.6013 	 -105.996
| 21> H 	 -53.9222 	 12.6775 	 -106.717
| 22> H 	 -53.4624 	 12.5591 	 -105.035
| 23> S 	 -46.7188 	 16.1134 	 -103.693
| 24> C 	 -46.9881 	 17.7543 	 -103.061
| 25> C 	 -48.2768 	 18.165 	 -103.45
| 26> C 	 -49.0346 	 17.2187 	 -104.221
| 27> C 	 -48.4036 	 15.9649 	 -104.304
| 28> H 	 -48.7191 	 19.1471 	 -103.124
| 29> C 	 -50.3976 	 17.6019 	 -104.876
| 30> H 	 -50.9938 	 18.3246 	 -104.256
| 31> H 	 -50.8599 	 16.6196 	 -104.762
| 32> C 	 -50.458 	 17.9768 	 -106.356
| 33> H 	 -49.7872 	 17.2417 	 -106.854
| 34> H 	 -50.0469 	 18.929 	 -106.443
| 35> C 	 -51.8375 	 17.875 	 -107
| 36> H 	 -51.6977 	 18.1403 	 -108.037
| 37> H 	 -52.5868 	 18.5981 	 -106.529
| 38> H 	 -52.331 	 16.895 	 -107.075
| 39> H 	 -48.1165 	 11.6679 	 -106.74
| 40> H 	 -46.2457 	 18.257 	 -102.525
| 41> *
| 42>
| 43>                          ****END OF INPUT****

CARTESIAN COORDINATES (ANGSTROEM)
---------------------------------
  S    -47.521800   13.933400  -106.067000
  C    -48.480000   12.529100  -106.213000
  C    -49.763000   12.676000  -105.644000
  C    -49.875100   14.016500  -105.098000
  C    -48.733000   14.775200  -105.082000
  H    -50.614600   14.386900  -104.394000
  C    -50.795700   11.612700  -105.501000
  H    -51.223900   11.768000  -104.516000
  H    -50.268200   10.686600  -105.734000
  C    -51.945700   11.608500  -106.459000
  H    -51.510400   11.686200  -107.446000
  H    -52.336000   10.579000  -106.440000
  C    -53.050000   12.685500  -106.041000
  H    -52.609600   13.601300  -105.996000
  H    -53.922200   12.677500  -106.717000
  H    -53.462400   12.559100  -105.035000
  S    -46.718800   16.113400  -103.693000
  C    -46.988100   17.754300  -103.061000
  C    -48.276800   18.165000  -103.450000
  C    -49.034600   17.218700  -104.221000
  C    -48.403600   15.964900  -104.304000
  H    -48.719100   19.147100  -103.124000
  C    -50.397600   17.601900  -104.876000
  H    -50.993800   18.324600  -104.256000
  H    -50.859900   16.619600  -104.762000
  C    -50.458000   17.976800  -106.356000
  H    -49.787200   17.241700  -106.854000
  H    -50.046900   18.929000  -106.443000
  C    -51.837500   17.875000  -107.000000
  H    -51.697700   18.140300  -108.037000
  H    -52.586800   18.598100  -106.529000
  H    -52.331000   16.895000  -107.075000
  H    -48.116500   11.667900  -106.740000
  H    -46.245700   18.257000  -102.525000

 Total Charge           Charge          ....    0
 Multiplicity           Mult            ....    1
 Number of Electrons    NEL             ....  134
 Basis Dimension        Dim             ....  322

ORBITAL ENERGIES
----------------

  NO   OCC          E(Eh)            E(eV)
   0   2.0000     -88.967477     -2420.9281
   1   2.0000     -88.964612     -2420.8502
   2   2.0000     -10.336246      -281.2635
   3   2.0000     -10.331989      -281.1477
   4   2.0000     -10.324415      -280.9416
   5   2.0000     -10.314080      -280.6604
   6   2.0000     -10.312508      -280.6176
   7   2.0000     -10.306159      -280.4449
   8   2.0000     -10.304290      -280.3940
   9   2.0000     -10.295621      -280.1581
  10   2.0000     -10.295241      -280.1477
  11   2.0000     -10.288464      -279.9633
  12   2.0000     -10.288079      -279.9529
  13   2.0000     -10.283368      -279.8247
  14   2.0000     -10.282817      -279.8097
  15   2.0000     -10.278095      -279.6812
  16   2.0000      -8.080933      -219.8934
  17   2.0000      -8.079865      -219.8643
  18   2.0000      -6.039565      -164.3449
  19   2.0000      -6.038312      -164.3108
  20   2.0000      -6.035574      -164.2363
  21   2.0000      -6.034196      -164.1988
  22   2.0000      -6.031668      -164.1300
  23   2.0000      -6.030751      -164.1051
  24   2.0000      -1.003798       -27.3147
  25   2.0000      -0.978714       -26.6321
  26   2.0000      -0.918071       -24.9820
  27   2.0000      -0.905627       -24.6434
  28   2.0000      -0.869276       -23.6542
  29   2.0000      -0.849304       -23.1107
  30   2.0000      -0.841974       -22.9113
  31   2.0000      -0.815114       -22.1804
  32   2.0000      -0.783690       -21.3253
  33   2.0000      -0.773840       -21.0573
  34   2.0000      -0.709570       -19.3084
  35   2.0000      -0.703831       -19.1522
  36   2.0000      -0.695345       -18.9213
  37   2.0000      -0.661256       -17.9937
  38   2.0000      -0.647105       -17.6086
  39   2.0000      -0.612714       -16.6728
  40   2.0000      -0.591700       -16.1010
  41   2.0000      -0.575772       -15.6675
  42   2.0000      -0.568155       -15.4603
  43   2.0000      -0.552485       -15.0339
  44   2.0000      -0.538289       -14.6476
  45   2.0000      -0.520778       -14.1711
  46   2.0000      -0.514391       -13.9973
  47   2.0000      -0.510917       -13.9028
  48   2.0000      -0.506355       -13.7786
  49   2.0000      -0.502623       -13.6771
  50   2.0000      -0.489448       -13.3186
  51   2.0000      -0.481895       -13.1130
  52   2.0000      -0.477855       -13.0031
  53   2.0000      -0.467581       -12.7235
  54   2.0000      -0.461785       -12.5658
  55   2.0000      -0.444946       -12.1076
  56   2.0000      -0.441044       -12.0014
  57   2.0000      -0.438108       -11.9215
  58   2.0000      -0.428534       -11.6610
  59   2.0000      -0.421380       -11.4663
  60   2.0000      -0.420903       -11.4534
  61   2.0000      -0.413820       -11.2606
  62   2.0000      -0.411340       -11.1931
  63   2.0000      -0.356483        -9.7004
  64   2.0000      -0.330283        -8.9875
  65   2.0000      -0.325996        -8.8708
  66   2.0000      -0.287264        -7.8169
  67   0.0000       0.018927         0.5150
  68   0.0000       0.066981         1.8226
  69   0.0000       0.108444         2.9509
  70   0.0000       0.111504         3.0342
  71   0.0000       0.130170         3.5421

MULLIKEN ATOMIC CHARGES
-----------------------
   0 S :    0.110332
   1 C :   -0.123275
   2 C :   -0.100965
   3 C :    0.019505
   4 C :   -0.166385
   5 H :    0.028319
   6 C :    0.076732
   7 H :    0.025719
   8 H :    0.019463
   9 C :   -0.046490
  10 H :    0.019760
  11 H :    0.029798
  12 C :   -0.038898
  13 H :    0.014613
  14 H :    0.042447
  15 H :    0.025845
  16 S :    0.085085
  17 C :   -0.082500
  18 C :   -0.028587
  19 C :   -0.061629
  20 C :   -0.142703
  21 H :    0.037615
  22 C :    0.055949
  23 H :    0.030791
  24 H :    0.000071
  25 C :   -0.025443
  26 H :    0.038106
  27 H :    0.018575
  28 C :   -0.070378
  29 H :    0.033244
  30 H :    0.038962
  31 H :    0.040571
  32 H :    0.046297
  33 H :    0.049454
Sum of atomic charges:   -0.0000000

LOEWDIN ATOMIC CHARGES
----------------------
   0 S :    0.409991
   1 C :   -0.208239
   2 C :   -0.060066
   3 C :   -0.076616
   4 C :   -0.187195
   5 H :    0.029899
   6 C :   -0.034626
   7 H :    0.033225
   8 H :    0.036600
   9 C :   -0.033734
  10 H :    0.022494
  11 H :    0.025310
  12 C :   -0.060735
  13 H :    0.009774
  14 H :    0.030401
  15 H :    0.028040
  16 S :    0.380589
  17 C :   -0.165092
  18 C :   -0.075263
  19 C :   -0.052511
  20 C :   -0.188199
  21 H :    0.038194
  22 C :   -0.037206
  23 H :    0.030733
  24 H :    0.028286
  25 C :   -0.035695
  26 H :    0.034520
  27 H :    0.016643
  28 C :   -0.070487
  29 H :    0.028137
  30 H :    0.030679
  31 H :    0.028320
  32 H :    0.024091
  33 H :    0.019737

  Mayer bond orders larger than 0.100000
B(  0-S ,  1-C ) :   1.1567 B(  0-S ,  4-C ) :   1.1331 B(  1-C ,  2-C ) :   1.5879
B(  1-C , 32-H ) :   0.9696 B(  2-C ,  3-C ) :   1.2335 B(  2-C ,  6-C ) :   1.0456
B(  3-C ,  4-C ) :   1.6079 B(  3-C ,  5-H ) :   0.9673 B(  4-C , 20-C ) :   1.0659
B(  6-C ,  7-H ) :   0.9340 B(  6-C ,  8-H ) :   0.9304 B(  6-C ,  9-C ) :   1.0803
B(  9-C , 10-H ) :   0.9531 B(  9-C , 11-H ) :   0.9585 B(  9-C , 12-C ) :   1.0578
B( 12-C , 13-H ) :   0.9778 B( 12-C , 14-H ) :   0.9767 B( 12-C , 15-H ) :   0.9744
B( 16-S , 17-C ) :   1.1542 B( 16-S , 20-C ) :   1.1289 B( 17-C , 18-C ) :   1.5710
B( 17-C , 20-C ) :   0.1066 B( 17-C , 33-H ) :   0.9822 B( 18-C , 19-C ) :   1.2686
B( 18-C , 21-H ) :   0.9793 B( 19-C , 20-C ) :   1.5659 B( 19-C , 22-C ) :   1.0202
B( 22-C , 23-H ) :   0.9396 B( 22-C , 24-H ) :   0.9292 B( 22-C , 25-C ) :   1.0655
B( 25-C , 26-H ) :   0.9503 B( 25-C , 27-H ) :   0.9539 B( 25-C , 28-C ) :   1.0867
B( 28-C , 29-H ) :   0.9716 B( 28-C , 30-H ) :   0.9733 B( 28-C , 31-H ) :   0.9739

Dispersion correction           -0.014336790
FINAL SINGLE POINT ENERGY     -1339.860538963085

DIPOLE MOMENT
-------------
                                X             Y             Z
Electronic contribution:     28.72353       0.60560       8.79428
Nuclear contribution   :    -29.24527      -0.55174      -8.84295
                        -----------------------------------------
Total Dipole Moment    :     -0.52174       0.05385      -0.04867
                        -----------------------------------------
Magnitude (a.u.)       :      0.52677
Magnitude (Debye)      :      1.33893

Rotational constants in cm-1:     0.017561     0.009457     0.006971
Rotational constants in MHz :   526.469481   283.523663   208.990394

                             ****ORCA TERMINATED NORMALLY****
TOTAL RUN TIME: 0 days 0 hours 0 minutes 20 seconds 716 msec
