                         Program Version 4.2.1 -  RELEASE  -
|  1> ! wB97X-D3 SP def2-SVP
|  2> %pal
|  3> nprocs 24
|  4> end
|  5>
|  6> * xyz 0 1
|  7> S 	 -76.7216 	 -3.41192 	 3.24378
|  8> C 	 -75.3326 	 -3.86988 	 2.41087
|  9> C 	 -74.6136 	 -4.92649 	 3.07861
| 10> C 	 -75.424 	 -5.45004 	 4.15419
| 11> C 	 -76.6625 	 -4.78824 	 4.27901
| 12> H 	 -75.1349 	 -6.20496 	 4.84373
| 13> C 	 -73.137 	 -5.34135 	 2.86507
| 14> H 	 -72.7108 	 -5.04238 	 1.91667
| 15> H 	 -72.9798 	 -6.44728 	 3.00014
| 16> C 	 -72.1104 	 -4.6843 	 3.83956
| 17> H 	 -71.1101 	 -5.02576 	 3.57011
| 18> H 	 -72.0487 	 -3.66732 	 3.6605
| 19> C 	 -72.2464 	 -4.84584 	 5.3747
| 20> H 	 -71.3907 	 -4.47184 	 5.86496
| 21> H 	 -72.9704 	 -4.10265 	 5.71935
| 22> H 	 -72.4932 	 -5.80618 	 5.76928
| 23> S 	 -78.2938 	 -3.97181 	 6.26232
| 24> C 	 -79.3128 	 -5.14922 	 7.0292
| 25> C 	 -79.1121 	 -6.43852 	 6.50013
| 26> C 	 -78.2657 	 -6.38957 	 5.36358
| 27> C 	 -77.6704 	 -5.19116 	 5.22933
| 28> H 	 -79.5837 	 -7.34674 	 6.88235
| 29> C 	 -77.9237 	 -7.65609 	 4.5145
| 30> H 	 -77.1248 	 -8.18908 	 4.97123
| 31> H 	 -77.6125 	 -7.42896 	 3.50128
| 32> C 	 -79.0022 	 -8.74186 	 4.58378
| 33> H 	 -79.9625 	 -8.26187 	 4.35628
| 34> H 	 -79.0256 	 -9.31657 	 5.46987
| 35> C 	 -78.7532 	 -9.6697 	 3.42648
| 36> H 	 -77.72 	 -10.0657 	 3.47049
| 37> H 	 -79.0172 	 -9.14535 	 2.49042
| 38> H 	 -79.2451 	 -10.6043 	 3.50931
| 39> H 	 -74.8765 	 -3.2178 	 1.67553
| 40> H 	 -80.0833 	 -4.92642 	 7.75355
| 41> *
| 42>
| 43>                          ****END OF INPUT****

CARTESIAN COORDINATES (ANGSTROEM)
---------------------------------
  S    -76.721600   -3.411920    3.243780
  C    -75.332600   -3.869880    2.410870
  C    -74.613600   -4.926490    3.078610
  C    -75.424000   -5.450040    4.154190
  C    -76.662500   -4.788240    4.279010
  H    -75.134900   -6.204960    4.843730
  C    -73.137000   -5.341350    2.865070
  H    -72.710800   -5.042380    1.916670
  H    -72.979800   -6.447280    3.000140
  C    -72.110400   -4.684300    3.839560
  H    -71.110100   -5.025760    3.570110
  H    -72.048700   -3.667320    3.660500
  C    -72.246400   -4.845840    5.374700
  H    -71.390700   -4.471840    5.864960
  H    -72.970400   -4.102650    5.719350
  H    -72.493200   -5.806180    5.769280
  S    -78.293800   -3.971810    6.262320
  C    -79.312800   -5.149220    7.029200
  C    -79.112100   -6.438520    6.500130
  C    -78.265700   -6.389570    5.363580
  C    -77.670400   -5.191160    5.229330
  H    -79.583700   -7.346740    6.882350
  C    -77.923700   -7.656090    4.514500
  H    -77.124800   -8.189080    4.971230
  H    -77.612500   -7.428960    3.501280
  C    -79.002200   -8.741860    4.583780
  H    -79.962500   -8.261870    4.356280
  H    -79.025600   -9.316570    5.469870
  C    -78.753200   -9.669700    3.426480
  H    -77.720000  -10.065700    3.470490
  H    -79.017200   -9.145350    2.490420
  H    -79.245100  -10.604300    3.509310
  H    -74.876500   -3.217800    1.675530
  H    -80.083300   -4.926420    7.753550

 Total Charge           Charge          ....    0
 Multiplicity           Mult            ....    1
 Number of Electrons    NEL             ....  134
 Basis Dimension        Dim             ....  322

ORBITAL ENERGIES
----------------

  NO   OCC          E(Eh)            E(eV)
   0   2.0000     -88.969809     -2420.9916
   1   2.0000     -88.964973     -2420.8600
   2   2.0000     -10.323114      -280.9062
   3   2.0000     -10.316244      -280.7193
   4   2.0000     -10.314424      -280.6698
   5   2.0000     -10.313492      -280.6444
   6   2.0000     -10.310826      -280.5718
   7   2.0000     -10.300822      -280.2996
   8   2.0000     -10.295668      -280.1594
   9   2.0000     -10.294695      -280.1329
  10   2.0000     -10.293692      -280.1056
  11   2.0000     -10.287264      -279.9307
  12   2.0000     -10.281416      -279.7715
  13   2.0000     -10.278855      -279.7019
  14   2.0000     -10.273054      -279.5440
  15   2.0000     -10.269067      -279.4355
  16   2.0000      -8.085771      -220.0250
  17   2.0000      -8.080700      -219.8870
  18   2.0000      -6.044028      -164.4664
  19   2.0000      -6.040033      -164.3577
  20   2.0000      -6.038998      -164.3295
  21   2.0000      -6.036820      -164.2702
  22   2.0000      -6.035162      -164.2251
  23   2.0000      -6.031552      -164.1269
  24   2.0000      -1.012875       -27.5617
  25   2.0000      -0.987489       -26.8709
  26   2.0000      -0.915438       -24.9103
  27   2.0000      -0.903813       -24.5940
  28   2.0000      -0.868585       -23.6354
  29   2.0000      -0.855107       -23.2686
  30   2.0000      -0.845786       -23.0150
  31   2.0000      -0.808592       -22.0029
  32   2.0000      -0.783832       -21.3292
  33   2.0000      -0.772276       -21.0147
  34   2.0000      -0.702867       -19.1260
  35   2.0000      -0.697455       -18.9787
  36   2.0000      -0.692816       -18.8525
  37   2.0000      -0.658594       -17.9213
  38   2.0000      -0.644355       -17.5338
  39   2.0000      -0.614303       -16.7160
  40   2.0000      -0.598727       -16.2922
  41   2.0000      -0.585688       -15.9374
  42   2.0000      -0.567507       -15.4427
  43   2.0000      -0.545458       -14.8427
  44   2.0000      -0.534727       -14.5507
  45   2.0000      -0.521666       -14.1952
  46   2.0000      -0.514557       -14.0018
  47   2.0000      -0.510348       -13.8873
  48   2.0000      -0.508257       -13.8304
  49   2.0000      -0.495902       -13.4942
  50   2.0000      -0.486871       -13.2484
  51   2.0000      -0.478364       -13.0169
  52   2.0000      -0.467600       -12.7240
  53   2.0000      -0.465144       -12.6572
  54   2.0000      -0.463006       -12.5990
  55   2.0000      -0.454552       -12.3690
  56   2.0000      -0.443530       -12.0691
  57   2.0000      -0.440360       -11.9828
  58   2.0000      -0.435177       -11.8418
  59   2.0000      -0.428896       -11.6708
  60   2.0000      -0.419208       -11.4072
  61   2.0000      -0.413221       -11.2443
  62   2.0000      -0.410803       -11.1785
  63   2.0000      -0.341558        -9.2943
  64   2.0000      -0.332885        -9.0583
  65   2.0000      -0.326687        -8.8896
  66   2.0000      -0.288531        -7.8513
  67   0.0000       0.032672         0.8891
  68   0.0000       0.069495         1.8911
  69   0.0000       0.108853         2.9621
  70   0.0000       0.123646         3.3646
  71   0.0000       0.134226         3.6525

MULLIKEN ATOMIC CHARGES
-----------------------
   0 S :    0.144895
   1 C :   -0.116618
   2 C :   -0.087500
   3 C :    0.033039
   4 C :   -0.174747
   5 H :    0.006599
   6 C :    0.063845
   7 H :    0.022348
   8 H :    0.039119
   9 C :   -0.066100
  10 H :    0.019842
  11 H :    0.004045
  12 C :   -0.033509
  13 H :    0.015962
  14 H :    0.031311
  15 H :    0.027995
  16 S :    0.116375
  17 C :   -0.090492
  18 C :   -0.043735
  19 C :   -0.031322
  20 C :   -0.163530
  21 H :    0.027769
  22 C :    0.071333
  23 H :    0.021416
  24 H :    0.039671
  25 C :   -0.088877
  26 H :    0.034148
  27 H :    0.027791
  28 C :   -0.037590
  29 H :    0.017456
  30 H :    0.047557
  31 H :    0.013426
  32 H :    0.052637
  33 H :    0.055442
Sum of atomic charges:   -0.0000000

LOEWDIN ATOMIC CHARGES
----------------------
   0 S :    0.454929
   1 C :   -0.226893
   2 C :   -0.059298
   3 C :   -0.051321
   4 C :   -0.214267
   5 H :    0.026407
   6 C :   -0.031501
   7 H :    0.031053
   8 H :    0.035578
   9 C :   -0.034251
  10 H :    0.022247
  11 H :    0.013281
  12 C :   -0.066844
  13 H :    0.023337
  14 H :    0.030518
  15 H :    0.017688
  16 S :    0.423163
  17 C :   -0.190937
  18 C :   -0.067593
  19 C :   -0.058893
  20 C :   -0.213262
  21 H :    0.033784
  22 C :   -0.022654
  23 H :    0.028387
  24 H :    0.032406
  25 C :   -0.041572
  26 H :    0.025567
  27 H :    0.017291
  28 C :   -0.063146
  29 H :    0.025048
  30 H :    0.031623
  31 H :    0.017534
  32 H :    0.025637
  33 H :    0.026954

  Mayer bond orders larger than 0.100000
B(  0-S ,  1-C ) :   1.1838 B(  0-S ,  4-C ) :   1.1774 B(  1-C ,  2-C ) :   1.5423
B(  1-C ,  4-C ) :   0.1056 B(  1-C , 32-H ) :   0.9674 B(  2-C ,  3-C ) :   1.2826
B(  2-C ,  6-C ) :   1.0315 B(  3-C ,  4-C ) :   1.5107 B(  3-C ,  5-H ) :   1.0000
B(  4-C , 20-C ) :   1.0476 B(  6-C ,  7-H ) :   0.9418 B(  6-C ,  8-H ) :   0.9462
B(  6-C ,  9-C ) :   1.0672 B(  9-C , 10-H ) :   0.9591 B(  9-C , 11-H ) :   0.9527
B(  9-C , 12-C ) :   1.0843 B( 12-C , 13-H ) :   0.9682 B( 12-C , 14-H ) :   0.9715
B( 12-C , 15-H ) :   0.9785 B( 16-S , 17-C ) :   1.1636 B( 16-S , 20-C ) :   1.1409
B( 17-C , 18-C ) :   1.5893 B( 17-C , 33-H ) :   0.9689 B( 18-C , 19-C ) :   1.2511
B( 18-C , 21-H ) :   0.9817 B( 19-C , 20-C ) :   1.6289 B( 19-C , 22-C ) :   1.0249
B( 22-C , 23-H ) :   0.9266 B( 22-C , 24-H ) :   0.9436 B( 22-C , 25-C ) :   1.0633
B( 25-C , 26-H ) :   0.9616 B( 25-C , 27-H ) :   0.9464 B( 25-C , 28-C ) :   1.0983
B( 28-C , 29-H ) :   0.9647 B( 28-C , 30-H ) :   0.9778 B( 28-C , 31-H ) :   0.9686

Dispersion correction           -0.014205946
FINAL SINGLE POINT ENERGY     -1339.863539966250

DIPOLE MOMENT
-------------
                                X             Y             Z
Electronic contribution:    -13.26766      20.16441       3.12472
Nuclear contribution   :     13.61070     -20.58294      -3.06309
                        -----------------------------------------
Total Dipole Moment    :      0.34304      -0.41854       0.06163
                        -----------------------------------------
Magnitude (a.u.)       :      0.54465
Magnitude (Debye)      :      1.38440

Rotational constants in cm-1:     0.017331     0.008707     0.007269
Rotational constants in MHz :   519.577500   261.037019   217.911598

                             ****ORCA TERMINATED NORMALLY****
TOTAL RUN TIME: 0 days 0 hours 0 minutes 21 seconds 468 msec
