                         Program Version 4.2.1 -  RELEASE  -
|  1> ! wB97X-D3 SP def2-SVP
|  2> %pal
|  3> nprocs 24
|  4> end
|  5>
|  6> * xyz 0 1
|  7> S 	 -60.3421 	 11.7001 	 -95.0473
|  8> C 	 -58.8282 	 12.5771 	 -94.911
|  9> C 	 -58.9078 	 13.8774 	 -95.4034
| 10> C 	 -60.2421 	 14.0793 	 -95.9051
| 11> C 	 -61.1164 	 13.0786 	 -95.8384
| 12> H 	 -60.5753 	 15.0423 	 -96.3475
| 13> C 	 -57.7838 	 14.8765 	 -95.1928
| 14> H 	 -57.91 	 15.809 	 -95.742
| 15> H 	 -56.9235 	 14.4452 	 -95.5035
| 16> C 	 -57.5046 	 15.2993 	 -93.6901
| 17> H 	 -57.1432 	 14.4124 	 -93.1873
| 18> H 	 -56.8554 	 16.1138 	 -93.6181
| 19> C 	 -58.7952 	 16.0381 	 -93.1091
| 20> H 	 -58.597 	 16.4427 	 -92.2033
| 21> H 	 -59.092 	 16.8259 	 -93.7551
| 22> H 	 -59.6956 	 15.3734 	 -93.0073
| 23> S 	 -62.8411 	 13.4355 	 -97.8975
| 24> C 	 -64.572 	 13.2529 	 -97.5975
| 25> C 	 -64.8246 	 12.8925 	 -96.2798
| 26> C 	 -63.7111 	 13.0965 	 -95.4544
| 27> C 	 -62.5414 	 13.1974 	 -96.1936
| 28> H 	 -65.8263 	 12.549 	 -96.0821
| 29> C 	 -63.8493 	 12.8856 	 -93.9619
| 30> H 	 -62.877 	 12.84 	 -93.469
| 31> H 	 -64.2995 	 11.8585 	 -93.8323
| 32> C 	 -64.6799 	 13.9722 	 -93.2662
| 33> H 	 -65.5791 	 14.213 	 -93.8634
| 34> H 	 -63.9972 	 14.8458 	 -93.2406
| 35> C 	 -64.999 	 13.7019 	 -91.8044
| 36> H 	 -64.2184 	 13.2199 	 -91.2868
| 37> H 	 -65.8966 	 13.1733 	 -91.6743
| 38> H 	 -65.0364 	 14.63 	 -91.2567
| 39> H 	 -57.9344 	 12.2541 	 -94.4654
| 40> H 	 -65.2975 	 13.3111 	 -98.4127
| 41> *
| 42>
| 43>                          ****END OF INPUT****

CARTESIAN COORDINATES (ANGSTROEM)
---------------------------------
  S    -60.342100   11.700100  -95.047300
  C    -58.828200   12.577100  -94.911000
  C    -58.907800   13.877400  -95.403400
  C    -60.242100   14.079300  -95.905100
  C    -61.116400   13.078600  -95.838400
  H    -60.575300   15.042300  -96.347500
  C    -57.783800   14.876500  -95.192800
  H    -57.910000   15.809000  -95.742000
  H    -56.923500   14.445200  -95.503500
  C    -57.504600   15.299300  -93.690100
  H    -57.143200   14.412400  -93.187300
  H    -56.855400   16.113800  -93.618100
  C    -58.795200   16.038100  -93.109100
  H    -58.597000   16.442700  -92.203300
  H    -59.092000   16.825900  -93.755100
  H    -59.695600   15.373400  -93.007300
  S    -62.841100   13.435500  -97.897500
  C    -64.572000   13.252900  -97.597500
  C    -64.824600   12.892500  -96.279800
  C    -63.711100   13.096500  -95.454400
  C    -62.541400   13.197400  -96.193600
  H    -65.826300   12.549000  -96.082100
  C    -63.849300   12.885600  -93.961900
  H    -62.877000   12.840000  -93.469000
  H    -64.299500   11.858500  -93.832300
  C    -64.679900   13.972200  -93.266200
  H    -65.579100   14.213000  -93.863400
  H    -63.997200   14.845800  -93.240600
  C    -64.999000   13.701900  -91.804400
  H    -64.218400   13.219900  -91.286800
  H    -65.896600   13.173300  -91.674300
  H    -65.036400   14.630000  -91.256700
  H    -57.934400   12.254100  -94.465400
  H    -65.297500   13.311100  -98.412700

 Total Charge           Charge          ....    0
 Multiplicity           Mult            ....    1
 Number of Electrons    NEL             ....  134
 Basis Dimension        Dim             ....  322

ORBITAL ENERGIES
----------------

  NO   OCC          E(Eh)            E(eV)
   0   2.0000     -88.967058     -2420.9167
   1   2.0000     -88.963947     -2420.8321
   2   2.0000     -10.326133      -280.9884
   3   2.0000     -10.323886      -280.9272
   4   2.0000     -10.317526      -280.7542
   5   2.0000     -10.312283      -280.6115
   6   2.0000     -10.302393      -280.3424
   7   2.0000     -10.301760      -280.3251
   8   2.0000     -10.292668      -280.0777
   9   2.0000     -10.291114      -280.0355
  10   2.0000     -10.290797      -280.0268
  11   2.0000     -10.289646      -279.9955
  12   2.0000     -10.288424      -279.9623
  13   2.0000     -10.285867      -279.8927
  14   2.0000     -10.270403      -279.4719
  15   2.0000     -10.265900      -279.3493
  16   2.0000      -8.081057      -219.8968
  17   2.0000      -8.078678      -219.8320
  18   2.0000      -6.039722      -164.3492
  19   2.0000      -6.037032      -164.2760
  20   2.0000      -6.035657      -164.2386
  21   2.0000      -6.033286      -164.1741
  22   2.0000      -6.031697      -164.1308
  23   2.0000      -6.029492      -164.0708
  24   2.0000      -1.006818       -27.3969
  25   2.0000      -0.984958       -26.8021
  26   2.0000      -0.908652       -24.7257
  27   2.0000      -0.906962       -24.6797
  28   2.0000      -0.868095       -23.6221
  29   2.0000      -0.853178       -23.2162
  30   2.0000      -0.842133       -22.9156
  31   2.0000      -0.816155       -22.2087
  32   2.0000      -0.786266       -21.3954
  33   2.0000      -0.773625       -21.0514
  34   2.0000      -0.708005       -19.2658
  35   2.0000      -0.702151       -19.1065
  36   2.0000      -0.691130       -18.8066
  37   2.0000      -0.663193       -18.0464
  38   2.0000      -0.636863       -17.3299
  39   2.0000      -0.616407       -16.7733
  40   2.0000      -0.596348       -16.2275
  41   2.0000      -0.577080       -15.7031
  42   2.0000      -0.565206       -15.3800
  43   2.0000      -0.553175       -15.0527
  44   2.0000      -0.546575       -14.8731
  45   2.0000      -0.524351       -14.2683
  46   2.0000      -0.517119       -14.0715
  47   2.0000      -0.510410       -13.8890
  48   2.0000      -0.503009       -13.6876
  49   2.0000      -0.496120       -13.5001
  50   2.0000      -0.493148       -13.4192
  51   2.0000      -0.477114       -12.9829
  52   2.0000      -0.469709       -12.7814
  53   2.0000      -0.462901       -12.5962
  54   2.0000      -0.460180       -12.5221
  55   2.0000      -0.448056       -12.1922
  56   2.0000      -0.445149       -12.1131
  57   2.0000      -0.434456       -11.8222
  58   2.0000      -0.431796       -11.7498
  59   2.0000      -0.429468       -11.6864
  60   2.0000      -0.420975       -11.4553
  61   2.0000      -0.415227       -11.2989
  62   2.0000      -0.414800       -11.2873
  63   2.0000      -0.339958        -9.2507
  64   2.0000      -0.332975        -9.0607
  65   2.0000      -0.323466        -8.8019
  66   2.0000      -0.298238        -8.1155
  67   0.0000       0.037552         1.0219
  68   0.0000       0.063407         1.7254
  69   0.0000       0.110979         3.0199
  70   0.0000       0.114925         3.1273
  71   0.0000       0.125910         3.4262

MULLIKEN ATOMIC CHARGES
-----------------------
   0 S :    0.117219
   1 C :   -0.109661
   2 C :   -0.079524
   3 C :    0.007210
   4 C :   -0.131786
   5 H :    0.018873
   6 C :    0.106601
   7 H :    0.019587
   8 H :    0.003777
   9 C :   -0.064986
  10 H :    0.031978
  11 H :    0.024228
  12 C :   -0.039375
  13 H :    0.010925
  14 H :    0.017235
  15 H :    0.045080
  16 S :    0.109986
  17 C :   -0.115108
  18 C :   -0.034262
  19 C :   -0.007980
  20 C :   -0.181086
  21 H :    0.025073
  22 C :    0.050533
  23 H :    0.018352
  24 H :    0.039441
  25 C :   -0.110067
  26 H :    0.037585
  27 H :    0.031178
  28 C :    0.014964
  29 H :    0.009584
  30 H :    0.026363
  31 H :    0.021430
  32 H :    0.025066
  33 H :    0.061566
Sum of atomic charges:   -0.0000000

LOEWDIN ATOMIC CHARGES
----------------------
   0 S :    0.395822
   1 C :   -0.180929
   2 C :   -0.060425
   3 C :   -0.064845
   4 C :   -0.201897
   5 H :    0.033761
   6 C :   -0.022009
   7 H :    0.030157
   8 H :    0.016594
   9 C :   -0.020430
  10 H :    0.019291
  11 H :    0.018509
  12 C :   -0.055525
  13 H :    0.007614
  14 H :    0.020527
  15 H :    0.031154
  16 S :    0.405146
  17 C :   -0.180436
  18 C :   -0.065221
  19 C :   -0.058242
  20 C :   -0.193127
  21 H :    0.033512
  22 C :   -0.035965
  23 H :    0.024153
  24 H :    0.035221
  25 C :   -0.041486
  26 H :    0.024991
  27 H :    0.030086
  28 C :   -0.059277
  29 H :    0.021102
  30 H :    0.018975
  31 H :    0.028877
  32 H :    0.016751
  33 H :    0.027570

  Mayer bond orders larger than 0.100000
B(  0-S ,  1-C ) :   1.1475 B(  0-S ,  4-C ) :   1.1066 B(  1-C ,  2-C ) :   1.6080
B(  1-C , 32-H ) :   0.9714 B(  2-C ,  3-C ) :   1.2307 B(  2-C ,  6-C ) :   1.0288
B(  3-C ,  4-C ) :   1.6258 B(  3-C ,  5-H ) :   0.9861 B(  4-C , 20-C ) :   1.0088
B(  6-C ,  7-H ) :   0.9441 B(  6-C ,  8-H ) :   0.9306 B(  6-C ,  9-C ) :   1.0797
B(  9-C , 10-H ) :   0.9603 B(  9-C , 11-H ) :   0.9602 B(  9-C , 12-C ) :   1.0592
B( 12-C , 13-H ) :   0.9789 B( 12-C , 14-H ) :   0.9760 B( 12-C , 15-H ) :   0.9770
B( 16-S , 17-C ) :   1.1542 B( 16-S , 20-C ) :   1.1548 B( 17-C , 18-C ) :   1.6142
B( 17-C , 20-C ) :   0.1077 B( 17-C , 33-H ) :   0.9673 B( 18-C , 19-C ) :   1.2163
B( 18-C , 21-H ) :   0.9915 B( 19-C , 20-C ) :   1.5936 B( 19-C , 22-C ) :   1.0455
B( 22-C , 23-H ) :   0.9293 B( 22-C , 24-H ) :   0.9434 B( 22-C , 25-C ) :   1.0558
B( 25-C , 26-H ) :   0.9640 B( 25-C , 27-H ) :   0.9544 B( 25-C , 28-C ) :   1.0853
B( 28-C , 29-H ) :   0.9663 B( 28-C , 30-H ) :   0.9755 B( 28-C , 31-H ) :   0.9731

Dispersion correction           -0.014371426
FINAL SINGLE POINT ENERGY     -1339.857169118347

DIPOLE MOMENT
-------------
                                X             Y             Z
Electronic contribution:     -0.81396     -13.13720     -21.48609
Nuclear contribution   :      0.83744      13.48212      21.89024
                        -----------------------------------------
Total Dipole Moment    :      0.02348       0.34492       0.40415
                        -----------------------------------------
Magnitude (a.u.)       :      0.53185
Magnitude (Debye)      :      1.35184

Rotational constants in cm-1:     0.017427     0.008773     0.007073
Rotational constants in MHz :   522.450640   263.015734   212.041135

                             ****ORCA TERMINATED NORMALLY****
TOTAL RUN TIME: 0 days 0 hours 0 minutes 21 seconds 498 msec
