                         Program Version 4.2.1 -  RELEASE  -
|  1> ! wB97X-D3 SP def2-SVP
|  2> %pal
|  3> nprocs 24
|  4> end
|  5>
|  6> * xyz 0 1
|  7> S 	 -58.2518 	 -0.492313 	 -30.7354
|  8> C 	 -58.3743 	 1.14559 	 -31.167
|  9> C 	 -58.1944 	 1.90776 	 -30.0577
| 10> C 	 -57.9915 	 1.10673 	 -28.8931
| 11> C 	 -58.0199 	 -0.222092 	 -29.0618
| 12> H 	 -57.886 	 1.54523 	 -27.9345
| 13> C 	 -58.177 	 3.39354 	 -30.0211
| 14> H 	 -57.1221 	 3.6865 	 -29.9406
| 15> H 	 -58.7549 	 3.68948 	 -29.1957
| 16> C 	 -58.7538 	 4.09704 	 -31.2237
| 17> H 	 -58.1657 	 3.97586 	 -32.1155
| 18> H 	 -59.7983 	 3.74234 	 -31.2377
| 19> C 	 -58.9124 	 5.66437 	 -31.0218
| 20> H 	 -58.0016 	 6.25813 	 -30.8646
| 21> H 	 -59.4306 	 5.98055 	 -31.9305
| 22> H 	 -59.5977 	 5.88073 	 -30.1533
| 23> S 	 -58.88 	 -2.62797 	 -27.9933
| 24> C 	 -57.8551 	 -3.38955 	 -26.7748
| 25> C 	 -56.7998 	 -2.62395 	 -26.4487
| 26> C 	 -56.6968 	 -1.38091 	 -27.0939
| 27> C 	 -57.6487 	 -1.31668 	 -28.1026
| 28> H 	 -56.1732 	 -3.09685 	 -25.7506
| 29> C 	 -55.6201 	 -0.307667 	 -26.8883
| 30> H 	 -56.012 	 0.50205 	 -26.2757
| 31> H 	 -55.577 	 0.257008 	 -27.8342
| 32> C 	 -54.2128 	 -0.904995 	 -26.5429
| 33> H 	 -54.1409 	 -1.82572 	 -27.0709
| 34> H 	 -54.236 	 -1.14883 	 -25.489
| 35> C 	 -53.0036 	 -0.0836808 	 -26.9152
| 36> H 	 -53.1968 	 0.975992 	 -26.7764
| 37> H 	 -52.7408 	 -0.333042 	 -27.9326
| 38> H 	 -52.1371 	 -0.262427 	 -26.2953
| 39> H 	 -58.6753 	 1.59868 	 -32.1322
| 40> H 	 -58.049 	 -4.32952 	 -26.3513
| 41> *
| 42>
| 43>                          ****END OF INPUT****

CARTESIAN COORDINATES (ANGSTROEM)
---------------------------------
  S    -58.251800   -0.492313  -30.735400
  C    -58.374300    1.145590  -31.167000
  C    -58.194400    1.907760  -30.057700
  C    -57.991500    1.106730  -28.893100
  C    -58.019900   -0.222092  -29.061800
  H    -57.886000    1.545230  -27.934500
  C    -58.177000    3.393540  -30.021100
  H    -57.122100    3.686500  -29.940600
  H    -58.754900    3.689480  -29.195700
  C    -58.753800    4.097040  -31.223700
  H    -58.165700    3.975860  -32.115500
  H    -59.798300    3.742340  -31.237700
  C    -58.912400    5.664370  -31.021800
  H    -58.001600    6.258130  -30.864600
  H    -59.430600    5.980550  -31.930500
  H    -59.597700    5.880730  -30.153300
  S    -58.880000   -2.627970  -27.993300
  C    -57.855100   -3.389550  -26.774800
  C    -56.799800   -2.623950  -26.448700
  C    -56.696800   -1.380910  -27.093900
  C    -57.648700   -1.316680  -28.102600
  H    -56.173200   -3.096850  -25.750600
  C    -55.620100   -0.307667  -26.888300
  H    -56.012000    0.502050  -26.275700
  H    -55.577000    0.257008  -27.834200
  C    -54.212800   -0.904995  -26.542900
  H    -54.140900   -1.825720  -27.070900
  H    -54.236000   -1.148830  -25.489000
  C    -53.003600   -0.083681  -26.915200
  H    -53.196800    0.975992  -26.776400
  H    -52.740800   -0.333042  -27.932600
  H    -52.137100   -0.262427  -26.295300
  H    -58.675300    1.598680  -32.132200
  H    -58.049000   -4.329520  -26.351300

 Total Charge           Charge          ....    0
 Multiplicity           Mult            ....    1
 Number of Electrons    NEL             ....  134
 Basis Dimension        Dim             ....  322

ORBITAL ENERGIES
----------------

  NO   OCC          E(Eh)            E(eV)
   0   2.0000     -88.962471     -2420.7919
   1   2.0000     -88.957203     -2420.6486
   2   2.0000     -10.332216      -281.1539
   3   2.0000     -10.322314      -280.8844
   4   2.0000     -10.309740      -280.5423
   5   2.0000     -10.307690      -280.4865
   6   2.0000     -10.306435      -280.4523
   7   2.0000     -10.296532      -280.1829
   8   2.0000     -10.290533      -280.0196
   9   2.0000     -10.290044      -280.0063
  10   2.0000     -10.287152      -279.9276
  11   2.0000     -10.285521      -279.8833
  12   2.0000     -10.284190      -279.8470
  13   2.0000     -10.283509      -279.8285
  14   2.0000     -10.282343      -279.7968
  15   2.0000     -10.275255      -279.6039
  16   2.0000      -8.076498      -219.7727
  17   2.0000      -8.073825      -219.7000
  18   2.0000      -6.034917      -164.2184
  19   2.0000      -6.032332      -164.1481
  20   2.0000      -6.031311      -164.1203
  21   2.0000      -6.027912      -164.0278
  22   2.0000      -6.027199      -164.0084
  23   2.0000      -6.024590      -163.9374
  24   2.0000      -1.014413       -27.6036
  25   2.0000      -0.989605       -26.9285
  26   2.0000      -0.918186       -24.9851
  27   2.0000      -0.906941       -24.6791
  28   2.0000      -0.868981       -23.6462
  29   2.0000      -0.854022       -23.2391
  30   2.0000      -0.845744       -23.0139
  31   2.0000      -0.820631       -22.3305
  32   2.0000      -0.784126       -21.3371
  33   2.0000      -0.773746       -21.0547
  34   2.0000      -0.709537       -19.3075
  35   2.0000      -0.707075       -19.2405
  36   2.0000      -0.693545       -18.8723
  37   2.0000      -0.654027       -17.7970
  38   2.0000      -0.638144       -17.3648
  39   2.0000      -0.617239       -16.7959
  40   2.0000      -0.599538       -16.3143
  41   2.0000      -0.588897       -16.0247
  42   2.0000      -0.574172       -15.6240
  43   2.0000      -0.568088       -15.4585
  44   2.0000      -0.529803       -14.4167
  45   2.0000      -0.522549       -14.2193
  46   2.0000      -0.517861       -14.0917
  47   2.0000      -0.512116       -13.9354
  48   2.0000      -0.509741       -13.8707
  49   2.0000      -0.498834       -13.5740
  50   2.0000      -0.491475       -13.3737
  51   2.0000      -0.480738       -13.0815
  52   2.0000      -0.476684       -12.9712
  53   2.0000      -0.468203       -12.7404
  54   2.0000      -0.457556       -12.4507
  55   2.0000      -0.447923       -12.1886
  56   2.0000      -0.439604       -11.9622
  57   2.0000      -0.437177       -11.8962
  58   2.0000      -0.433017       -11.7830
  59   2.0000      -0.428583       -11.6623
  60   2.0000      -0.425082       -11.5671
  61   2.0000      -0.413358       -11.2480
  62   2.0000      -0.408016       -11.1027
  63   2.0000      -0.348558        -9.4848
  64   2.0000      -0.332243        -9.0408
  65   2.0000      -0.324808        -8.8385
  66   2.0000      -0.298539        -8.1236
  67   0.0000       0.034836         0.9479
  68   0.0000       0.081298         2.2122
  69   0.0000       0.113339         3.0841
  70   0.0000       0.131488         3.5780
  71   0.0000       0.137407         3.7390

MULLIKEN ATOMIC CHARGES
-----------------------
   0 S :    0.104532
   1 C :   -0.123055
   2 C :   -0.130605
   3 C :   -0.007097
   4 C :   -0.085806
   5 H :   -0.012880
   6 C :    0.127770
   7 H :    0.038585
   8 H :    0.010947
   9 C :   -0.141884
  10 H :    0.041764
  11 H :    0.040818
  12 C :   -0.064081
  13 H :    0.041006
  14 H :    0.037929
  15 H :    0.034499
  16 S :    0.087157
  17 C :   -0.060064
  18 C :   -0.037449
  19 C :   -0.014659
  20 C :   -0.164878
  21 H :   -0.001886
  22 C :    0.057577
  23 H :    0.037781
  24 H :    0.028426
  25 C :   -0.067460
  26 H :    0.029111
  27 H :    0.031772
  28 C :   -0.025532
  29 H :    0.028964
  30 H :    0.037948
  31 H :    0.027281
  32 H :    0.060701
  33 H :    0.032769
Sum of atomic charges:    0.0000000

LOEWDIN ATOMIC CHARGES
----------------------
   0 S :    0.435599
   1 C :   -0.220948
   2 C :   -0.073628
   3 C :   -0.070778
   4 C :   -0.209756
   5 H :    0.021861
   6 C :   -0.032446
   7 H :    0.037214
   8 H :    0.025182
   9 C :   -0.041592
  10 H :    0.021722
  11 H :    0.031714
  12 C :   -0.068074
  13 H :    0.023652
  14 H :    0.027698
  15 H :    0.027704
  16 S :    0.371519
  17 C :   -0.162302
  18 C :   -0.072021
  19 C :   -0.047975
  20 C :   -0.171793
  21 H :    0.026983
  22 C :   -0.033667
  23 H :    0.032394
  24 H :    0.035095
  25 C :   -0.038659
  26 H :    0.024326
  27 H :    0.022291
  28 C :   -0.061853
  29 H :    0.025292
  30 H :    0.028442
  31 H :    0.027386
  32 H :    0.040361
  33 H :    0.019057

  Mayer bond orders larger than 0.100000
B(  0-S ,  1-C ) :   1.1437 B(  0-S ,  4-C ) :   1.1643 B(  1-C ,  2-C ) :   1.6078
B(  1-C , 32-H ) :   0.9550 B(  2-C ,  3-C ) :   1.2656 B(  2-C ,  6-C ) :   1.0148
B(  3-C ,  4-C ) :   1.5627 B(  3-C ,  5-H ) :   1.0172 B(  4-C , 20-C ) :   0.9809
B(  6-C ,  7-H ) :   0.9216 B(  6-C ,  8-H ) :   0.9373 B(  6-C ,  9-C ) :   1.0941
B(  9-C , 10-H ) :   0.9471 B(  9-C , 11-H ) :   0.9571 B(  9-C , 12-C ) :   1.0825
B( 12-C , 13-H ) :   0.9766 B( 12-C , 14-H ) :   0.9760 B( 12-C , 15-H ) :   0.9756
B( 16-S , 17-C ) :   1.1311 B( 16-S , 20-C ) :   1.1422 B( 17-C , 18-C ) :   1.6559
B( 17-C , 20-C ) :   0.1021 B( 17-C , 33-H ) :   0.9687 B( 18-C , 19-C ) :   1.1913
B( 18-C , 21-H ) :   1.0015 B( 19-C , 20-C ) :   1.6303 B( 19-C , 22-C ) :   1.0298
B( 22-C , 23-H ) :   0.9244 B( 22-C , 24-H ) :   0.9354 B( 22-C , 25-C ) :   1.0485
B( 25-C , 26-H ) :   0.9644 B( 25-C , 27-H ) :   0.9514 B( 25-C , 28-C ) :   1.0895
B( 28-C , 29-H ) :   0.9757 B( 28-C , 30-H ) :   0.9767 B( 28-C , 31-H ) :   0.9721

Dispersion correction           -0.013343907
FINAL SINGLE POINT ENERGY     -1339.870954316116

DIPOLE MOMENT
-------------
                                X             Y             Z
Electronic contribution:    -13.72838     -24.12722      -2.42814
Nuclear contribution   :     14.15090      24.67927       2.76837
                        -----------------------------------------
Total Dipole Moment    :      0.42252       0.55205       0.34023
                        -----------------------------------------
Magnitude (a.u.)       :      0.77397
Magnitude (Debye)      :      1.96728

Rotational constants in cm-1:     0.019232     0.007516     0.005920
Rotational constants in MHz :   576.561582   225.328793   177.465796

                             ****ORCA TERMINATED NORMALLY****
TOTAL RUN TIME: 0 days 0 hours 0 minutes 21 seconds 7 msec
