                         Program Version 4.2.1 -  RELEASE  -
|  1> ! wB97X-D3 SP def2-SVP
|  2> %pal
|  3> nprocs 24
|  4> end
|  5>
|  6> * xyz 0 1
|  7> S 	 -107.547 	 55.0462 	 -101.42
|  8> C 	 -109.14 	 54.6744 	 -100.803
|  9> C 	 -109.898 	 55.7859 	 -100.792
| 10> C 	 -109.26 	 56.9817 	 -101.18
| 11> C 	 -107.982 	 56.7137 	 -101.569
| 12> H 	 -109.562 	 57.9913 	 -101.031
| 13> C 	 -111.331 	 55.8604 	 -100.159
| 14> H 	 -111.137 	 56.0823 	 -99.0846
| 15> H 	 -111.846 	 54.9152 	 -100.111
| 16> C 	 -112.247 	 56.8694 	 -100.714
| 17> H 	 -113.186 	 56.6844 	 -100.223
| 18> H 	 -111.937 	 57.8861 	 -100.41
| 19> C 	 -112.614 	 56.7286 	 -102.173
| 20> H 	 -111.786 	 57.1103 	 -102.8
| 21> H 	 -112.918 	 55.7415 	 -102.531
| 22> H 	 -113.531 	 57.3399 	 -102.344
| 23> S 	 -105.646 	 57.6687 	 -100.397
| 24> C 	 -105.114 	 59.2401 	 -100.906
| 25> C 	 -105.68 	 59.6506 	 -102.07
| 26> C 	 -106.8 	 58.8053 	 -102.501
| 27> C 	 -106.94 	 57.7129 	 -101.623
| 28> H 	 -105.381 	 60.5013 	 -102.59
| 29> C 	 -107.723 	 59.0614 	 -103.741
| 30> H 	 -108.425 	 58.2472 	 -103.811
| 31> H 	 -107.103 	 58.7989 	 -104.618
| 32> C 	 -108.57 	 60.3371 	 -103.876
| 33> H 	 -109.238 	 60.2733 	 -104.648
| 34> H 	 -107.884 	 61.1293 	 -104.109
| 35> C 	 -109.339 	 60.646 	 -102.636
| 36> H 	 -110.162 	 60.0531 	 -102.506
| 37> H 	 -109.75 	 61.6695 	 -102.794
| 38> H 	 -108.672 	 60.6381 	 -101.753
| 39> H 	 -109.608 	 53.7982 	 -100.474
| 40> H 	 -104.224 	 59.7362 	 -100.42
| 41> *
| 42>
| 43>                          ****END OF INPUT****

CARTESIAN COORDINATES (ANGSTROEM)
---------------------------------
  S    -107.547000   55.046200  -101.420000
  C    -109.140000   54.674400  -100.803000
  C    -109.898000   55.785900  -100.792000
  C    -109.260000   56.981700  -101.180000
  C    -107.982000   56.713700  -101.569000
  H    -109.562000   57.991300  -101.031000
  C    -111.331000   55.860400  -100.159000
  H    -111.137000   56.082300  -99.084600
  H    -111.846000   54.915200  -100.111000
  C    -112.247000   56.869400  -100.714000
  H    -113.186000   56.684400  -100.223000
  H    -111.937000   57.886100  -100.410000
  C    -112.614000   56.728600  -102.173000
  H    -111.786000   57.110300  -102.800000
  H    -112.918000   55.741500  -102.531000
  H    -113.531000   57.339900  -102.344000
  S    -105.646000   57.668700  -100.397000
  C    -105.114000   59.240100  -100.906000
  C    -105.680000   59.650600  -102.070000
  C    -106.800000   58.805300  -102.501000
  C    -106.940000   57.712900  -101.623000
  H    -105.381000   60.501300  -102.590000
  C    -107.723000   59.061400  -103.741000
  H    -108.425000   58.247200  -103.811000
  H    -107.103000   58.798900  -104.618000
  C    -108.570000   60.337100  -103.876000
  H    -109.238000   60.273300  -104.648000
  H    -107.884000   61.129300  -104.109000
  C    -109.339000   60.646000  -102.636000
  H    -110.162000   60.053100  -102.506000
  H    -109.750000   61.669500  -102.794000
  H    -108.672000   60.638100  -101.753000
  H    -109.608000   53.798200  -100.474000
  H    -104.224000   59.736200  -100.420000

 Total Charge           Charge          ....    0
 Multiplicity           Mult            ....    1
 Number of Electrons    NEL             ....  134
 Basis Dimension        Dim             ....  322

ORBITAL ENERGIES
----------------

  NO   OCC          E(Eh)            E(eV)
   0   2.0000     -88.966381     -2420.8983
   1   2.0000     -88.963732     -2420.8262
   2   2.0000     -10.326236      -280.9912
   3   2.0000     -10.321648      -280.8663
   4   2.0000     -10.318162      -280.7715
   5   2.0000     -10.310672      -280.5676
   6   2.0000     -10.302555      -280.3468
   7   2.0000     -10.293979      -280.1134
   8   2.0000     -10.291568      -280.0478
   9   2.0000     -10.291000      -280.0323
  10   2.0000     -10.288407      -279.9618
  11   2.0000     -10.287055      -279.9250
  12   2.0000     -10.281235      -279.7666
  13   2.0000     -10.279215      -279.7116
  14   2.0000     -10.276267      -279.6314
  15   2.0000     -10.270382      -279.4713
  16   2.0000      -8.081386      -219.9057
  17   2.0000      -8.078401      -219.8245
  18   2.0000      -6.039905      -164.3542
  19   2.0000      -6.036935      -164.2734
  20   2.0000      -6.035922      -164.2458
  21   2.0000      -6.033041      -164.1674
  22   2.0000      -6.032044      -164.1403
  23   2.0000      -6.029012      -164.0578
  24   2.0000      -1.011137       -27.5144
  25   2.0000      -0.982331       -26.7306
  26   2.0000      -0.917584       -24.9687
  27   2.0000      -0.911587       -24.8055
  28   2.0000      -0.873457       -23.7680
  29   2.0000      -0.851092       -23.1594
  30   2.0000      -0.844442       -22.9784
  31   2.0000      -0.816269       -22.2118
  32   2.0000      -0.787358       -21.4251
  33   2.0000      -0.776304       -21.1243
  34   2.0000      -0.711409       -19.3584
  35   2.0000      -0.695538       -18.9266
  36   2.0000      -0.689319       -18.7573
  37   2.0000      -0.654430       -17.8080
  38   2.0000      -0.640004       -17.4154
  39   2.0000      -0.624975       -17.0064
  40   2.0000      -0.596486       -16.2312
  41   2.0000      -0.565939       -15.4000
  42   2.0000      -0.563199       -15.3254
  43   2.0000      -0.552761       -15.0414
  44   2.0000      -0.549115       -14.9422
  45   2.0000      -0.544045       -14.8042
  46   2.0000      -0.515407       -14.0249
  47   2.0000      -0.511865       -13.9286
  48   2.0000      -0.500593       -13.6218
  49   2.0000      -0.495094       -13.4722
  50   2.0000      -0.490842       -13.3565
  51   2.0000      -0.479429       -13.0459
  52   2.0000      -0.469615       -12.7789
  53   2.0000      -0.466778       -12.7017
  54   2.0000      -0.460035       -12.5182
  55   2.0000      -0.451153       -12.2765
  56   2.0000      -0.446178       -12.1411
  57   2.0000      -0.437803       -11.9132
  58   2.0000      -0.433613       -11.7992
  59   2.0000      -0.426543       -11.6068
  60   2.0000      -0.421086       -11.4583
  61   2.0000      -0.410224       -11.1628
  62   2.0000      -0.403282       -10.9739
  63   2.0000      -0.347131        -9.4459
  64   2.0000      -0.329879        -8.9765
  65   2.0000      -0.328304        -8.9336
  66   2.0000      -0.294749        -8.0205
  67   0.0000       0.035750         0.9728
  68   0.0000       0.066437         1.8078
  69   0.0000       0.116385         3.1670
  70   0.0000       0.124013         3.3746
  71   0.0000       0.129585         3.5262

MULLIKEN ATOMIC CHARGES
-----------------------
   0 S :    0.111036
   1 C :   -0.083253
   2 C :   -0.087522
   3 C :    0.041338
   4 C :   -0.153086
   5 H :    0.005265
   6 C :    0.060360
   7 H :    0.044404
   8 H :    0.007973
   9 C :   -0.072224
  10 H :    0.019690
  11 H :    0.031641
  12 C :   -0.058025
  13 H :    0.041353
  14 H :    0.030527
  15 H :    0.032639
  16 S :    0.111829
  17 C :   -0.112421
  18 C :    0.008633
  19 C :   -0.075133
  20 C :   -0.162788
  21 H :   -0.005783
  22 C :    0.056273
  23 H :    0.009791
  24 H :    0.037770
  25 C :   -0.006063
  26 H :    0.008441
  27 H :    0.019337
  28 C :   -0.046208
  29 H :    0.014680
  30 H :    0.029607
  31 H :    0.051512
  32 H :    0.010503
  33 H :    0.077903
Sum of atomic charges:    0.0000000

LOEWDIN ATOMIC CHARGES
----------------------
   0 S :    0.412394
   1 C :   -0.196598
   2 C :   -0.061248
   3 C :   -0.055998
   4 C :   -0.193856
   5 H :    0.030554
   6 C :   -0.033611
   7 H :    0.040111
   8 H :    0.022945
   9 C :   -0.053771
  10 H :    0.027847
  11 H :    0.025642
  12 C :   -0.067814
  13 H :    0.025726
  14 H :    0.026249
  15 H :    0.030800
  16 S :    0.391074
  17 C :   -0.193563
  18 C :   -0.067841
  19 C :   -0.049709
  20 C :   -0.191599
  21 H :    0.020290
  22 C :   -0.037160
  23 H :    0.026436
  24 H :    0.037680
  25 C :   -0.030913
  26 H :    0.016648
  27 H :    0.019922
  28 C :   -0.057321
  29 H :    0.009166
  30 H :    0.033476
  31 H :    0.031106
  32 H :    0.022045
  33 H :    0.040890

  Mayer bond orders larger than 0.100000
B(  0-S ,  1-C ) :   1.1061 B(  0-S ,  4-C ) :   1.1582 B(  1-C ,  2-C ) :   1.6670
B(  1-C , 32-H ) :   0.9705 B(  2-C ,  3-C ) :   1.2174 B(  2-C ,  6-C ) :   1.0015
B(  3-C ,  4-C ) :   1.5810 B(  3-C ,  5-H ) :   0.9938 B(  4-C , 20-C ) :   1.0277
B(  6-C ,  7-H ) :   0.9367 B(  6-C ,  8-H ) :   0.9417 B(  6-C ,  9-C ) :   1.1033
B(  9-C , 10-H ) :   0.9478 B(  9-C , 11-H ) :   0.9429 B(  9-C , 12-C ) :   1.0827
B( 12-C , 13-H ) :   0.9716 B( 12-C , 14-H ) :   0.9724 B( 12-C , 15-H ) :   0.9748
B( 16-S , 17-C ) :   1.1444 B( 16-S , 20-C ) :   1.1277 B( 17-C , 18-C ) :   1.6300
B( 17-C , 33-H ) :   0.9584 B( 18-C , 19-C ) :   1.2063 B( 18-C , 21-H ) :   1.0027
B( 19-C , 20-C ) :   1.6193 B( 19-C , 22-C ) :   1.0352 B( 22-C , 23-H ) :   0.9295
B( 22-C , 24-H ) :   0.9354 B( 22-C , 25-C ) :   1.0658 B( 25-C , 26-H ) :   0.9498
B( 25-C , 27-H ) :   0.9555 B( 25-C , 28-C ) :   1.0939 B( 28-C , 29-H ) :   0.9722
B( 28-C , 30-H ) :   0.9670 B( 28-C , 31-H ) :   0.9690

Dispersion correction           -0.015614800
FINAL SINGLE POINT ENERGY     -1339.863734629462

DIPOLE MOMENT
-------------
                                X             Y             Z
Electronic contribution:     25.15971     -13.14312       7.57702
Nuclear contribution   :    -25.70077      13.54083      -7.61991
                        -----------------------------------------
Total Dipole Moment    :     -0.54106       0.39771      -0.04290
                        -----------------------------------------
Magnitude (a.u.)       :      0.67287
Magnitude (Debye)      :      1.71031

Rotational constants in cm-1:     0.017677     0.010642     0.007570
Rotational constants in MHz :   529.943365   319.047786   226.947634

                             ****ORCA TERMINATED NORMALLY****
TOTAL RUN TIME: 0 days 0 hours 0 minutes 22 seconds 160 msec
