                         Program Version 4.2.1 -  RELEASE  -
|  1> ! wB97X-D3 SP def2-SVP
|  2> %pal
|  3> nprocs 24
|  4> end
|  5>
|  6> * xyz 0 1
|  7> S 	 46.5111 	 -15.3748 	 -109.951
|  8> C 	 46.9145 	 -15.6352 	 -111.583
|  9> C 	 47.5115 	 -14.5418 	 -112.199
| 10> C 	 47.5833 	 -13.4839 	 -111.227
| 11> C 	 47.2713 	 -13.7976 	 -109.976
| 12> H 	 47.9935 	 -12.497 	 -111.476
| 13> C 	 47.962 	 -14.4645 	 -113.68
| 14> H 	 47.2268 	 -14.0062 	 -114.322
| 15> H 	 47.9324 	 -15.4997 	 -114.008
| 16> C 	 49.3709 	 -13.869 	 -113.82
| 17> H 	 49.526 	 -12.9851 	 -113.317
| 18> H 	 50.0955 	 -14.5341 	 -113.327
| 19> C 	 49.7879 	 -13.8213 	 -115.236
| 20> H 	 49.0974 	 -13.2192 	 -115.762
| 21> H 	 50.7414 	 -13.2474 	 -115.28
| 22> H 	 49.8029 	 -14.7555 	 -115.793
| 23> S 	 46.0305 	 -12.9737 	 -107.751
| 24> C 	 46.6701 	 -11.6945 	 -106.744
| 25> C 	 47.8495 	 -11.2397 	 -107.251
| 26> C 	 48.2552 	 -11.9463 	 -108.475
| 27> C 	 47.395 	 -12.9596 	 -108.814
| 28> H 	 48.3918 	 -10.4464 	 -106.707
| 29> C 	 49.595 	 -11.7023 	 -109.164
| 30> H 	 49.8487 	 -12.4602 	 -109.86
| 31> H 	 50.4328 	 -11.7406 	 -108.527
| 32> C 	 49.6032 	 -10.4397 	 -110.029
| 33> H 	 48.8406 	 -10.661 	 -110.759
| 34> H 	 50.6197 	 -10.4266 	 -110.574
| 35> C 	 49.4231 	 -9.13191 	 -109.277
| 36> H 	 48.3625 	 -9.08519 	 -108.838
| 37> H 	 49.4838 	 -8.34804 	 -110.038
| 38> H 	 50.1698 	 -8.78958 	 -108.601
| 39> H 	 46.662 	 -16.5816 	 -112.038
| 40> H 	 46.3529 	 -11.4617 	 -105.717
| 41> *
| 42>
| 43>                          ****END OF INPUT****

CARTESIAN COORDINATES (ANGSTROEM)
---------------------------------
  S     46.511100  -15.374800  -109.951000
  C     46.914500  -15.635200  -111.583000
  C     47.511500  -14.541800  -112.199000
  C     47.583300  -13.483900  -111.227000
  C     47.271300  -13.797600  -109.976000
  H     47.993500  -12.497000  -111.476000
  C     47.962000  -14.464500  -113.680000
  H     47.226800  -14.006200  -114.322000
  H     47.932400  -15.499700  -114.008000
  C     49.370900  -13.869000  -113.820000
  H     49.526000  -12.985100  -113.317000
  H     50.095500  -14.534100  -113.327000
  C     49.787900  -13.821300  -115.236000
  H     49.097400  -13.219200  -115.762000
  H     50.741400  -13.247400  -115.280000
  H     49.802900  -14.755500  -115.793000
  S     46.030500  -12.973700  -107.751000
  C     46.670100  -11.694500  -106.744000
  C     47.849500  -11.239700  -107.251000
  C     48.255200  -11.946300  -108.475000
  C     47.395000  -12.959600  -108.814000
  H     48.391800  -10.446400  -106.707000
  C     49.595000  -11.702300  -109.164000
  H     49.848700  -12.460200  -109.860000
  H     50.432800  -11.740600  -108.527000
  C     49.603200  -10.439700  -110.029000
  H     48.840600  -10.661000  -110.759000
  H     50.619700  -10.426600  -110.574000
  C     49.423100   -9.131910  -109.277000
  H     48.362500   -9.085190  -108.838000
  H     49.483800   -8.348040  -110.038000
  H     50.169800   -8.789580  -108.601000
  H     46.662000  -16.581600  -112.038000
  H     46.352900  -11.461700  -105.717000

 Total Charge           Charge          ....    0
 Multiplicity           Mult            ....    1
 Number of Electrons    NEL             ....  134
 Basis Dimension        Dim             ....  322

ORBITAL ENERGIES
----------------

  NO   OCC          E(Eh)            E(eV)
   0   2.0000     -88.963588     -2420.8223
   1   2.0000     -88.959733     -2420.7174
   2   2.0000     -10.323879      -280.9270
   3   2.0000     -10.321829      -280.8712
   4   2.0000     -10.315907      -280.7101
   5   2.0000     -10.312606      -280.6203
   6   2.0000     -10.305600      -280.4296
   7   2.0000     -10.303529      -280.3733
   8   2.0000     -10.298374      -280.2330
   9   2.0000     -10.296240      -280.1749
  10   2.0000     -10.291201      -280.0378
  11   2.0000     -10.290365      -280.0151
  12   2.0000     -10.280035      -279.7340
  13   2.0000     -10.279902      -279.7304
  14   2.0000     -10.279178      -279.7106
  15   2.0000     -10.273785      -279.5639
  16   2.0000      -8.079684      -219.8594
  17   2.0000      -8.075356      -219.7416
  18   2.0000      -6.038095      -164.3049
  19   2.0000      -6.034132      -164.1971
  20   2.0000      -6.033974      -164.1928
  21   2.0000      -6.030328      -164.0936
  22   2.0000      -6.029675      -164.0758
  23   2.0000      -6.026005      -163.9759
  24   2.0000      -1.015767       -27.6404
  25   2.0000      -0.988975       -26.9114
  26   2.0000      -0.918766       -25.0009
  27   2.0000      -0.911104       -24.7924
  28   2.0000      -0.878938       -23.9171
  29   2.0000      -0.854941       -23.2641
  30   2.0000      -0.840178       -22.8624
  31   2.0000      -0.822560       -22.3830
  32   2.0000      -0.787007       -21.4156
  33   2.0000      -0.774952       -21.0875
  34   2.0000      -0.714252       -19.4358
  35   2.0000      -0.698839       -19.0164
  36   2.0000      -0.686694       -18.6859
  37   2.0000      -0.666140       -18.1266
  38   2.0000      -0.643290       -17.5048
  39   2.0000      -0.626073       -17.0363
  40   2.0000      -0.601097       -16.3567
  41   2.0000      -0.570188       -15.5156
  42   2.0000      -0.565749       -15.3948
  43   2.0000      -0.551308       -15.0018
  44   2.0000      -0.540074       -14.6962
  45   2.0000      -0.532904       -14.5011
  46   2.0000      -0.517850       -14.0914
  47   2.0000      -0.511528       -13.9194
  48   2.0000      -0.505787       -13.7632
  49   2.0000      -0.501010       -13.6332
  50   2.0000      -0.496687       -13.5155
  51   2.0000      -0.484274       -13.1778
  52   2.0000      -0.482198       -13.1213
  53   2.0000      -0.476176       -12.9574
  54   2.0000      -0.460707       -12.5365
  55   2.0000      -0.449595       -12.2341
  56   2.0000      -0.440931       -11.9983
  57   2.0000      -0.436727       -11.8839
  58   2.0000      -0.429698       -11.6927
  59   2.0000      -0.420362       -11.4386
  60   2.0000      -0.417157       -11.3514
  61   2.0000      -0.415311       -11.3012
  62   2.0000      -0.410099       -11.1594
  63   2.0000      -0.359505        -9.7826
  64   2.0000      -0.332543        -9.0489
  65   2.0000      -0.325712        -8.8631
  66   2.0000      -0.292620        -7.9626
  67   0.0000       0.029978         0.8157
  68   0.0000       0.082177         2.2361
  69   0.0000       0.109550         2.9810
  70   0.0000       0.120033         3.2663
  71   0.0000       0.130995         3.5646

MULLIKEN ATOMIC CHARGES
-----------------------
   0 S :    0.111772
   1 C :   -0.123098
   2 C :   -0.091781
   3 C :    0.001543
   4 C :   -0.116787
   5 H :   -0.002591
   6 C :    0.095767
   7 H :    0.035548
   8 H :    0.010191
   9 C :   -0.067125
  10 H :    0.010463
  11 H :    0.026664
  12 C :   -0.014481
  13 H :    0.005053
  14 H :    0.034030
  15 H :    0.033363
  16 S :    0.081911
  17 C :   -0.089462
  18 C :   -0.046659
  19 C :   -0.070037
  20 C :   -0.103588
  21 H :    0.035506
  22 C :    0.098172
  23 H :    0.005228
  24 H :    0.013161
  25 C :   -0.104485
  26 H :    0.025648
  27 H :    0.035103
  28 C :   -0.051303
  29 H :    0.055949
  30 H :    0.023239
  31 H :    0.029980
  32 H :    0.045217
  33 H :    0.067886
Sum of atomic charges:    0.0000000

LOEWDIN ATOMIC CHARGES
----------------------
   0 S :    0.416332
   1 C :   -0.200706
   2 C :   -0.062475
   3 C :   -0.061865
   4 C :   -0.197150
   5 H :    0.028692
   6 C :   -0.023647
   7 H :    0.029392
   8 H :    0.031684
   9 C :   -0.039578
  10 H :    0.012320
  11 H :    0.030958
  12 C :   -0.062286
  13 H :    0.015678
  14 H :    0.033630
  15 H :    0.026911
  16 S :    0.400682
  17 C :   -0.192261
  18 C :   -0.071181
  19 C :   -0.058011
  20 C :   -0.191275
  21 H :    0.037933
  22 C :   -0.031673
  23 H :    0.025326
  24 H :    0.021959
  25 C :   -0.040166
  26 H :    0.017792
  27 H :    0.030467
  28 C :   -0.077149
  29 H :    0.038607
  30 H :    0.027872
  31 H :    0.021397
  32 H :    0.023898
  33 H :    0.037892

  Mayer bond orders larger than 0.100000
B(  0-S ,  1-C ) :   1.1590 B(  0-S ,  4-C ) :   1.1291 B(  1-C ,  2-C ) :   1.6089
B(  1-C , 32-H ) :   0.9675 B(  2-C ,  3-C ) :   1.2392 B(  2-C ,  6-C ) :   1.0147
B(  3-C ,  4-C ) :   1.6048 B(  3-C ,  5-H ) :   0.9874 B(  4-C , 20-C ) :   1.0368
B(  6-C ,  7-H ) :   0.9409 B(  6-C ,  8-H ) :   0.9367 B(  6-C ,  9-C ) :   1.0567
B(  9-C , 10-H ) :   0.9572 B(  9-C , 11-H ) :   0.9493 B(  9-C , 12-C ) :   1.1022
B( 12-C , 13-H ) :   0.9688 B( 12-C , 14-H ) :   0.9683 B( 12-C , 15-H ) :   0.9719
B( 16-S , 17-C ) :   1.1387 B( 16-S , 20-C ) :   1.1343 B( 17-C , 18-C ) :   1.6447
B( 17-C , 33-H ) :   0.9603 B( 18-C , 19-C ) :   1.1976 B( 18-C , 21-H ) :   0.9845
B( 19-C , 20-C ) :   1.6381 B( 19-C , 22-C ) :   1.0350 B( 22-C , 23-H ) :   0.9335
B( 22-C , 24-H ) :   0.9412 B( 22-C , 25-C ) :   1.0679 B( 25-C , 26-H ) :   0.9481
B( 25-C , 27-H ) :   0.9524 B( 25-C , 28-C ) :   1.0951 B( 28-C , 29-H ) :   0.9637
B( 28-C , 30-H ) :   0.9678 B( 28-C , 31-H ) :   0.9739

Dispersion correction           -0.014518286
FINAL SINGLE POINT ENERGY     -1339.873949750634

DIPOLE MOMENT
-------------
                                X             Y             Z
Electronic contribution:    -19.74438     -13.73532      20.27652
Nuclear contribution   :     20.27722      14.02383     -20.69607
                        -----------------------------------------
Total Dipole Moment    :      0.53284       0.28851      -0.41955
                        -----------------------------------------
Magnitude (a.u.)       :      0.73701
Magnitude (Debye)      :      1.87333

Rotational constants in cm-1:     0.018139     0.009626     0.006535
Rotational constants in MHz :   543.792312   288.567382   195.906170

                             ****ORCA TERMINATED NORMALLY****
TOTAL RUN TIME: 0 days 0 hours 0 minutes 22 seconds 207 msec
