                         Program Version 4.2.1 -  RELEASE  -
|  1> ! wB97X-D3 SP def2-SVP
|  2> %pal
|  3> nprocs 24
|  4> end
|  5>
|  6> * xyz 0 1
|  7> S 	 -96.5135 	 46.5467 	 -94.2062
|  8> C 	 -96.6386 	 44.8576 	 -93.542
|  9> C 	 -97.2782 	 43.9789 	 -94.3911
| 10> C 	 -97.726 	 44.6486 	 -95.6232
| 11> C 	 -97.4292 	 46.0017 	 -95.6172
| 12> H 	 -98.2873 	 44.2796 	 -96.3976
| 13> C 	 -97.4969 	 42.5086 	 -94.1038
| 14> H 	 -98.4973 	 42.3127 	 -94.345
| 15> H 	 -97.4449 	 42.408 	 -93.0051
| 16> C 	 -96.5226 	 41.5017 	 -94.7763
| 17> H 	 -95.5248 	 41.5137 	 -94.3638
| 18> H 	 -96.9415 	 40.4468 	 -94.5973
| 19> C 	 -96.4773 	 41.4709 	 -96.3054
| 20> H 	 -95.9977 	 42.3648 	 -96.6418
| 21> H 	 -96.004 	 40.6057 	 -96.7551
| 22> H 	 -97.4877 	 41.4129 	 -96.5844
| 23> S 	 -96.5923 	 48.0325 	 -97.2941
| 24> C 	 -97.7336 	 48.6748 	 -98.5186
| 25> C 	 -98.8459 	 47.9218 	 -98.5438
| 26> C 	 -98.9461 	 46.9543 	 -97.5075
| 27> C 	 -97.7797 	 46.8385 	 -96.7328
| 28> H 	 -99.6148 	 48.2793 	 -99.1727
| 29> C 	 -100.218 	 46.2476 	 -97.2462
| 30> H 	 -100.087 	 45.1866 	 -97.3275
| 31> H 	 -101.061 	 46.4493 	 -97.9029
| 32> C 	 -100.88 	 46.6947 	 -95.9688
| 33> H 	 -101.068 	 47.8284 	 -95.9511
| 34> H 	 -100.149 	 46.5589 	 -95.1494
| 35> C 	 -102.129 	 45.9075 	 -95.5431
| 36> H 	 -101.855 	 44.8742 	 -95.3617
| 37> H 	 -102.928 	 46.0177 	 -96.2473
| 38> H 	 -102.517 	 46.3132 	 -94.6491
| 39> H 	 -96.2786 	 44.658 	 -92.5479
| 40> H 	 -97.3782 	 49.4192 	 -99.2079
| 41> *
| 42>
| 43>                          ****END OF INPUT****

CARTESIAN COORDINATES (ANGSTROEM)
---------------------------------
  S    -96.513500   46.546700  -94.206200
  C    -96.638600   44.857600  -93.542000
  C    -97.278200   43.978900  -94.391100
  C    -97.726000   44.648600  -95.623200
  C    -97.429200   46.001700  -95.617200
  H    -98.287300   44.279600  -96.397600
  C    -97.496900   42.508600  -94.103800
  H    -98.497300   42.312700  -94.345000
  H    -97.444900   42.408000  -93.005100
  C    -96.522600   41.501700  -94.776300
  H    -95.524800   41.513700  -94.363800
  H    -96.941500   40.446800  -94.597300
  C    -96.477300   41.470900  -96.305400
  H    -95.997700   42.364800  -96.641800
  H    -96.004000   40.605700  -96.755100
  H    -97.487700   41.412900  -96.584400
  S    -96.592300   48.032500  -97.294100
  C    -97.733600   48.674800  -98.518600
  C    -98.845900   47.921800  -98.543800
  C    -98.946100   46.954300  -97.507500
  C    -97.779700   46.838500  -96.732800
  H    -99.614800   48.279300  -99.172700
  C    -100.218000   46.247600  -97.246200
  H    -100.087000   45.186600  -97.327500
  H    -101.061000   46.449300  -97.902900
  C    -100.880000   46.694700  -95.968800
  H    -101.068000   47.828400  -95.951100
  H    -100.149000   46.558900  -95.149400
  C    -102.129000   45.907500  -95.543100
  H    -101.855000   44.874200  -95.361700
  H    -102.928000   46.017700  -96.247300
  H    -102.517000   46.313200  -94.649100
  H    -96.278600   44.658000  -92.547900
  H    -97.378200   49.419200  -99.207900

 Total Charge           Charge          ....    0
 Multiplicity           Mult            ....    1
 Number of Electrons    NEL             ....  134
 Basis Dimension        Dim             ....  322

ORBITAL ENERGIES
----------------

  NO   OCC          E(Eh)            E(eV)
   0   2.0000     -88.969559     -2420.9848
   1   2.0000     -88.959745     -2420.7177
   2   2.0000     -10.332015      -281.1484
   3   2.0000     -10.329112      -281.0694
   4   2.0000     -10.320049      -280.8228
   5   2.0000     -10.315611      -280.7021
   6   2.0000     -10.309483      -280.5353
   7   2.0000     -10.303533      -280.3734
   8   2.0000     -10.295797      -280.1629
   9   2.0000     -10.293704      -280.1059
  10   2.0000     -10.292630      -280.0767
  11   2.0000     -10.288211      -279.9565
  12   2.0000     -10.284593      -279.8580
  13   2.0000     -10.284164      -279.8463
  14   2.0000     -10.270603      -279.4773
  15   2.0000     -10.269486      -279.4469
  16   2.0000      -8.082954      -219.9484
  17   2.0000      -8.074015      -219.7051
  18   2.0000      -6.041611      -164.4006
  19   2.0000      -6.037869      -164.2988
  20   2.0000      -6.033417      -164.1776
  21   2.0000      -6.032572      -164.1546
  22   2.0000      -6.028563      -164.0455
  23   2.0000      -6.024787      -163.9428
  24   2.0000      -1.002228       -27.2720
  25   2.0000      -0.976678       -26.5768
  26   2.0000      -0.912956       -24.8428
  27   2.0000      -0.911397       -24.8004
  28   2.0000      -0.873027       -23.7563
  29   2.0000      -0.850649       -23.1473
  30   2.0000      -0.844611       -22.9830
  31   2.0000      -0.819920       -22.3112
  32   2.0000      -0.787066       -21.4172
  33   2.0000      -0.774164       -21.0661
  34   2.0000      -0.708038       -19.2667
  35   2.0000      -0.700281       -19.0556
  36   2.0000      -0.687116       -18.6974
  37   2.0000      -0.666840       -18.1456
  38   2.0000      -0.645132       -17.5549
  39   2.0000      -0.616247       -16.7689
  40   2.0000      -0.601392       -16.3647
  41   2.0000      -0.575770       -15.6675
  42   2.0000      -0.568399       -15.4669
  43   2.0000      -0.547145       -14.8886
  44   2.0000      -0.544790       -14.8245
  45   2.0000      -0.526260       -14.3203
  46   2.0000      -0.524298       -14.2669
  47   2.0000      -0.519635       -14.1400
  48   2.0000      -0.504454       -13.7269
  49   2.0000      -0.497759       -13.5447
  50   2.0000      -0.494843       -13.4654
  51   2.0000      -0.484914       -13.1952
  52   2.0000      -0.476207       -12.9582
  53   2.0000      -0.461770       -12.5654
  54   2.0000      -0.453330       -12.3357
  55   2.0000      -0.448962       -12.2169
  56   2.0000      -0.441680       -12.0187
  57   2.0000      -0.438940       -11.9442
  58   2.0000      -0.434493       -11.8232
  59   2.0000      -0.429461       -11.6862
  60   2.0000      -0.417942       -11.3728
  61   2.0000      -0.406116       -11.0510
  62   2.0000      -0.399953       -10.8833
  63   2.0000      -0.353614        -9.6223
  64   2.0000      -0.333235        -9.0678
  65   2.0000      -0.330020        -8.9803
  66   2.0000      -0.287832        -7.8323
  67   0.0000       0.021984         0.5982
  68   0.0000       0.073046         1.9877
  69   0.0000       0.098966         2.6930
  70   0.0000       0.114860         3.1255
  71   0.0000       0.136541         3.7155

MULLIKEN ATOMIC CHARGES
-----------------------
   0 S :    0.103251
   1 C :   -0.131511
   2 C :   -0.070266
   3 C :    0.040263
   4 C :   -0.125010
   5 H :   -0.027662
   6 C :    0.111310
   7 H :    0.012125
   8 H :    0.024328
   9 C :   -0.096144
  10 H :    0.033343
  11 H :    0.030806
  12 C :   -0.029221
  13 H :    0.042093
  14 H :    0.036182
  15 H :    0.009959
  16 S :    0.070088
  17 C :   -0.098797
  18 C :    0.003436
  19 C :   -0.022995
  20 C :   -0.148525
  21 H :    0.010971
  22 C :    0.079125
  23 H :    0.018007
  24 H :    0.008910
  25 C :   -0.142403
  26 H :    0.038635
  27 H :    0.035558
  28 C :    0.007628
  29 H :    0.028613
  30 H :    0.019624
  31 H :    0.020783
  32 H :    0.046464
  33 H :    0.061033
Sum of atomic charges:   -0.0000000

LOEWDIN ATOMIC CHARGES
----------------------
   0 S :    0.365763
   1 C :   -0.170871
   2 C :   -0.053080
   3 C :   -0.047753
   4 C :   -0.181776
   5 H :    0.015242
   6 C :   -0.027813
   7 H :    0.023668
   8 H :    0.037794
   9 C :   -0.038314
  10 H :    0.020244
  11 H :    0.032127
  12 C :   -0.060668
  13 H :    0.022158
  14 H :    0.028872
  15 H :    0.016548
  16 S :    0.366290
  17 C :   -0.160228
  18 C :   -0.067399
  19 C :   -0.055226
  20 C :   -0.181343
  21 H :    0.030115
  22 C :   -0.040736
  23 H :    0.023930
  24 H :    0.032099
  25 C :   -0.045291
  26 H :    0.031670
  27 H :    0.022065
  28 C :   -0.057282
  29 H :    0.025884
  30 H :    0.018354
  31 H :    0.023806
  32 H :    0.023557
  33 H :    0.027594

  Mayer bond orders larger than 0.100000
B(  0-S ,  1-C ) :   1.1013 B(  0-S ,  4-C ) :   1.1251 B(  1-C ,  2-C ) :   1.6564
B(  1-C , 32-H ) :   0.9696 B(  2-C ,  3-C ) :   1.1722 B(  2-C ,  6-C ) :   1.0192
B(  3-C ,  4-C ) :   1.5901 B(  3-C ,  5-H ) :   1.0088 B(  4-C , 20-C ) :   1.0857
B(  6-C ,  7-H ) :   0.9349 B(  6-C ,  8-H ) :   0.9372 B(  6-C ,  9-C ) :   1.0697
B(  9-C , 10-H ) :   0.9606 B(  9-C , 11-H ) :   0.9573 B(  9-C , 12-C ) :   1.0739
B( 12-C , 13-H ) :   0.9740 B( 12-C , 14-H ) :   0.9738 B( 12-C , 15-H ) :   0.9744
B( 16-S , 17-C ) :   1.1354 B( 16-S , 20-C ) :   1.1306 B( 17-C , 18-C ) :   1.6233
B( 17-C , 33-H ) :   0.9690 B( 18-C , 19-C ) :   1.2407 B( 18-C , 21-H ) :   0.9938
B( 19-C , 20-C ) :   1.5721 B( 19-C , 22-C ) :   1.0529 B( 22-C , 23-H ) :   0.9280
B( 22-C , 24-H ) :   0.9324 B( 22-C , 25-C ) :   1.0522 B( 25-C , 26-H ) :   0.9526
B( 25-C , 27-H ) :   0.9564 B( 25-C , 28-C ) :   1.0877 B( 28-C , 29-H ) :   0.9725
B( 28-C , 30-H ) :   0.9735 B( 28-C , 31-H ) :   0.9697

Dispersion correction           -0.014860069
FINAL SINGLE POINT ENERGY     -1339.870330550760

DIPOLE MOMENT
-------------
                                X             Y             Z
Electronic contribution:     15.65788      20.81423      -0.86164
Nuclear contribution   :    -16.17172     -21.29058       0.80792
                        -----------------------------------------
Total Dipole Moment    :     -0.51384      -0.47635      -0.05372
                        -----------------------------------------
Magnitude (a.u.)       :      0.70273
Magnitude (Debye)      :      1.78619

Rotational constants in cm-1:     0.017369     0.009177     0.007798
Rotational constants in MHz :   520.702808   275.110767   233.782616

                             ****ORCA TERMINATED NORMALLY****
TOTAL RUN TIME: 0 days 0 hours 0 minutes 21 seconds 63 msec
