                         Program Version 4.2.1 -  RELEASE  -
|  1> ! wB97X-D3 SP def2-SVP
|  2> %pal
|  3> nprocs 24
|  4> end
|  5>
|  6> * xyz 0 1
|  7> S 	 -3.5535 	 -21.5632 	 -105.501
|  8> C 	 -3.18692 	 -23.2581 	 -105.461
|  9> C 	 -4.27581 	 -24.0012 	 -104.967
| 10> C 	 -5.43326 	 -23.184 	 -104.642
| 11> C 	 -5.20595 	 -21.8172 	 -104.853
| 12> H 	 -6.39743 	 -23.5744 	 -104.367
| 13> C 	 -4.35484 	 -25.5447 	 -104.672
| 14> H 	 -4.86312 	 -26.0204 	 -105.496
| 15> H 	 -4.96345 	 -25.729 	 -103.767
| 16> C 	 -2.9493 	 -26.2661 	 -104.476
| 17> H 	 -2.45866 	 -26.0345 	 -105.428
| 18> H 	 -2.46233 	 -25.8116 	 -103.592
| 19> C 	 -2.98525 	 -27.7941 	 -104.239
| 20> H 	 -3.50708 	 -28.3192 	 -105.053
| 21> H 	 -1.98986 	 -28.1963 	 -104.195
| 22> H 	 -3.50162 	 -28.1922 	 -103.373
| 23> S 	 -6.20334 	 -19.7051 	 -106.144
| 24> C 	 -7.55788 	 -18.7934 	 -105.617
| 25> C 	 -8.01436 	 -19.3334 	 -104.45
| 26> C 	 -7.18371 	 -20.3207 	 -103.848
| 27> C 	 -6.19021 	 -20.7469 	 -104.77
| 28> H 	 -8.86545 	 -18.7815 	 -103.977
| 29> C 	 -7.48269 	 -20.8413 	 -102.473
| 30> H 	 -7.96632 	 -21.8597 	 -102.516
| 31> H 	 -8.33782 	 -20.3044 	 -102.055
| 32> C 	 -6.32786 	 -20.6616 	 -101.487
| 33> H 	 -5.45197 	 -21.174 	 -101.86
| 34> H 	 -6.58569 	 -21.2846 	 -100.519
| 35> C 	 -5.91123 	 -19.1603 	 -101.335
| 36> H 	 -5.28885 	 -18.967 	 -100.489
| 37> H 	 -6.7865 	 -18.5497 	 -101.241
| 38> H 	 -5.33304 	 -18.778 	 -102.134
| 39> H 	 -2.27732 	 -23.7088 	 -105.714
| 40> H 	 -7.93935 	 -18.0559 	 -106.261
| 41> *
| 42>
| 43>                          ****END OF INPUT****

CARTESIAN COORDINATES (ANGSTROEM)
---------------------------------
  S     -3.553500  -21.563200  -105.501000
  C     -3.186920  -23.258100  -105.461000
  C     -4.275810  -24.001200  -104.967000
  C     -5.433260  -23.184000  -104.642000
  C     -5.205950  -21.817200  -104.853000
  H     -6.397430  -23.574400  -104.367000
  C     -4.354840  -25.544700  -104.672000
  H     -4.863120  -26.020400  -105.496000
  H     -4.963450  -25.729000  -103.767000
  C     -2.949300  -26.266100  -104.476000
  H     -2.458660  -26.034500  -105.428000
  H     -2.462330  -25.811600  -103.592000
  C     -2.985250  -27.794100  -104.239000
  H     -3.507080  -28.319200  -105.053000
  H     -1.989860  -28.196300  -104.195000
  H     -3.501620  -28.192200  -103.373000
  S     -6.203340  -19.705100  -106.144000
  C     -7.557880  -18.793400  -105.617000
  C     -8.014360  -19.333400  -104.450000
  C     -7.183710  -20.320700  -103.848000
  C     -6.190210  -20.746900  -104.770000
  H     -8.865450  -18.781500  -103.977000
  C     -7.482690  -20.841300  -102.473000
  H     -7.966320  -21.859700  -102.516000
  H     -8.337820  -20.304400  -102.055000
  C     -6.327860  -20.661600  -101.487000
  H     -5.451970  -21.174000  -101.860000
  H     -6.585690  -21.284600  -100.519000
  C     -5.911230  -19.160300  -101.335000
  H     -5.288850  -18.967000  -100.489000
  H     -6.786500  -18.549700  -101.241000
  H     -5.333040  -18.778000  -102.134000
  H     -2.277320  -23.708800  -105.714000
  H     -7.939350  -18.055900  -106.261000

 Total Charge           Charge          ....    0
 Multiplicity           Mult            ....    1
 Number of Electrons    NEL             ....  134
 Basis Dimension        Dim             ....  322

ORBITAL ENERGIES
----------------

  NO   OCC          E(Eh)            E(eV)
   0   2.0000     -88.969701     -2420.9887
   1   2.0000     -88.960394     -2420.7354
   2   2.0000     -10.336589      -281.2729
   3   2.0000     -10.329395      -281.0771
   4   2.0000     -10.314970      -280.6846
   5   2.0000     -10.309850      -280.5453
   6   2.0000     -10.309659      -280.5401
   7   2.0000     -10.307269      -280.4751
   8   2.0000     -10.299244      -280.2567
   9   2.0000     -10.298437      -280.2347
  10   2.0000     -10.296321      -280.1771
  11   2.0000     -10.294432      -280.1257
  12   2.0000     -10.293470      -280.0995
  13   2.0000     -10.292331      -280.0686
  14   2.0000     -10.280068      -279.7349
  15   2.0000     -10.268149      -279.4105
  16   2.0000      -8.083626      -219.9667
  17   2.0000      -8.076666      -219.7773
  18   2.0000      -6.042303      -164.4194
  19   2.0000      -6.038186      -164.3074
  20   2.0000      -6.034960      -164.2196
  21   2.0000      -6.034312      -164.2020
  22   2.0000      -6.030697      -164.1036
  23   2.0000      -6.027805      -164.0249
  24   2.0000      -1.008525       -27.4434
  25   2.0000      -0.980905       -26.6918
  26   2.0000      -0.907425       -24.6923
  27   2.0000      -0.899182       -24.4680
  28   2.0000      -0.869738       -23.6668
  29   2.0000      -0.848395       -23.0860
  30   2.0000      -0.841488       -22.8980
  31   2.0000      -0.812021       -22.0962
  32   2.0000      -0.782652       -21.2970
  33   2.0000      -0.772620       -21.0241
  34   2.0000      -0.712956       -19.4005
  35   2.0000      -0.701352       -19.0847
  36   2.0000      -0.687339       -18.7035
  37   2.0000      -0.664634       -18.0856
  38   2.0000      -0.640636       -17.4326
  39   2.0000      -0.610601       -16.6153
  40   2.0000      -0.594602       -16.1799
  41   2.0000      -0.568095       -15.4586
  42   2.0000      -0.561171       -15.2702
  43   2.0000      -0.550774       -14.9873
  44   2.0000      -0.544905       -14.8276
  45   2.0000      -0.516712       -14.0604
  46   2.0000      -0.513160       -13.9638
  47   2.0000      -0.510885       -13.9019
  48   2.0000      -0.502909       -13.6849
  49   2.0000      -0.494639       -13.4598
  50   2.0000      -0.491026       -13.3615
  51   2.0000      -0.481849       -13.1118
  52   2.0000      -0.478364       -13.0170
  53   2.0000      -0.468117       -12.7381
  54   2.0000      -0.458972       -12.4893
  55   2.0000      -0.447224       -12.1696
  56   2.0000      -0.445637       -12.1264
  57   2.0000      -0.433196       -11.7879
  58   2.0000      -0.427115       -11.6224
  59   2.0000      -0.421016       -11.4564
  60   2.0000      -0.419192       -11.4068
  61   2.0000      -0.413826       -11.2608
  62   2.0000      -0.407884       -11.0991
  63   2.0000      -0.352936        -9.6039
  64   2.0000      -0.329815        -8.9747
  65   2.0000      -0.327079        -8.9003
  66   2.0000      -0.288619        -7.8537
  67   0.0000       0.025596         0.6965
  68   0.0000       0.073203         1.9919
  69   0.0000       0.112804         3.0696
  70   0.0000       0.119686         3.2568
  71   0.0000       0.134682         3.6649

MULLIKEN ATOMIC CHARGES
-----------------------
   0 S :    0.113898
   1 C :   -0.101331
   2 C :   -0.089229
   3 C :    0.033036
   4 C :   -0.136352
   5 H :    0.013964
   6 C :    0.039258
   7 H :    0.037658
   8 H :    0.035123
   9 C :   -0.113466
  10 H :    0.042405
  11 H :    0.048118
  12 C :   -0.038857
  13 H :    0.022370
  14 H :    0.033835
  15 H :    0.028968
  16 S :    0.094834
  17 C :   -0.085524
  18 C :   -0.045987
  19 C :   -0.044809
  20 C :   -0.157775
  21 H :    0.036456
  22 C :    0.057231
  23 H :    0.041780
  24 H :    0.009219
  25 C :   -0.096274
  26 H :    0.038253
  27 H :    0.042665
  28 C :   -0.016847
  29 H :    0.026138
  30 H :    0.017154
  31 H :    0.035797
  32 H :    0.029944
  33 H :    0.048347
Sum of atomic charges:   -0.0000000

LOEWDIN ATOMIC CHARGES
----------------------
   0 S :    0.398045
   1 C :   -0.201005
   2 C :   -0.057646
   3 C :   -0.055637
   4 C :   -0.186050
   5 H :    0.031065
   6 C :   -0.031632
   7 H :    0.028590
   8 H :    0.029675
   9 C :   -0.042069
  10 H :    0.025287
  11 H :    0.029431
  12 C :   -0.070884
  13 H :    0.025634
  14 H :    0.026960
  15 H :    0.024684
  16 S :    0.434024
  17 C :   -0.190366
  18 C :   -0.079420
  19 C :   -0.060301
  20 C :   -0.204567
  21 H :    0.038518
  22 C :   -0.043659
  23 H :    0.038172
  24 H :    0.028408
  25 C :   -0.044633
  26 H :    0.021953
  27 H :    0.035222
  28 C :   -0.058684
  29 H :    0.025519
  30 H :    0.019954
  31 H :    0.026662
  32 H :    0.018012
  33 H :    0.020739

  Mayer bond orders larger than 0.100000
B(  0-S ,  1-C ) :   1.1314 B(  0-S ,  4-C ) :   1.1397 B(  1-C ,  2-C ) :   1.6137
B(  1-C , 32-H ) :   0.9731 B(  2-C ,  3-C ) :   1.2474 B(  2-C ,  6-C ) :   1.0023
B(  3-C ,  4-C ) :   1.5666 B(  3-C ,  5-H ) :   0.9950 B(  4-C , 20-C ) :   1.0602
B(  6-C ,  7-H ) :   0.9397 B(  6-C ,  8-H ) :   0.9548 B(  6-C ,  9-C ) :   1.0601
B(  9-C , 10-H ) :   0.9515 B(  9-C , 11-H ) :   0.9636 B(  9-C , 12-C ) :   1.0836
B( 12-C , 13-H ) :   0.9728 B( 12-C , 14-H ) :   0.9740 B( 12-C , 15-H ) :   0.9760
B( 16-S , 17-C ) :   1.1729 B( 16-S , 20-C ) :   1.1782 B( 17-C , 18-C ) :   1.5713
B( 17-C , 20-C ) :   0.1052 B( 17-C , 33-H ) :   0.9798 B( 18-C , 19-C ) :   1.2732
B( 18-C , 21-H ) :   0.9797 B( 19-C , 20-C ) :   1.5211 B( 19-C , 22-C ) :   1.0420
B( 22-C , 23-H ) :   0.9332 B( 22-C , 24-H ) :   0.9339 B( 22-C , 25-C ) :   1.0632
B( 25-C , 26-H ) :   0.9604 B( 25-C , 27-H ) :   0.9584 B( 25-C , 28-C ) :   1.0554
B( 28-C , 29-H ) :   0.9742 B( 28-C , 30-H ) :   0.9803 B( 28-C , 31-H ) :   0.9709

Dispersion correction           -0.014222677
FINAL SINGLE POINT ENERGY     -1339.874948567175

DIPOLE MOMENT
-------------
                                X             Y             Z
Electronic contribution:     -1.08837      17.66148     -17.37992
Nuclear contribution   :      0.83611     -18.05394      17.67240
                        -----------------------------------------
Total Dipole Moment    :     -0.25226      -0.39246       0.29247
                        -----------------------------------------
Magnitude (a.u.)       :      0.55064
Magnitude (Debye)      :      1.39961

Rotational constants in cm-1:     0.023096     0.007196     0.006295
Rotational constants in MHz :   692.393154   215.734375   188.715152

                             ****ORCA TERMINATED NORMALLY****
TOTAL RUN TIME: 0 days 0 hours 0 minutes 21 seconds 147 msec
