                         Program Version 4.2.1 -  RELEASE  -
|  1> ! wB97X-D3 SP def2-SVP
|  2> %pal
|  3> nprocs 24
|  4> end
|  5>
|  6> * xyz 0 1
|  7> S 	 -59.395 	 19.4204 	 20.2787
|  8> C 	 -59.6784 	 17.8903 	 21.0897
|  9> C 	 -60.8553 	 17.8803 	 21.7045
| 10> C 	 -61.6435 	 18.9965 	 21.4906
| 11> C 	 -61.0065 	 20.0003 	 20.7994
| 12> H 	 -62.6274 	 19.1686 	 21.9393
| 13> C 	 -61.3854 	 16.6366 	 22.4646
| 14> H 	 -60.6481 	 15.8681 	 22.3143
| 15> H 	 -62.1919 	 16.1963 	 21.8489
| 16> C 	 -61.7524 	 16.7239 	 23.9736
| 17> H 	 -60.799 	 16.8166 	 24.5046
| 18> H 	 -62.3138 	 17.6205 	 24.1634
| 19> C 	 -62.5081 	 15.4317 	 24.3738
| 20> H 	 -61.8366 	 14.5463 	 24.5009
| 21> H 	 -63.0132 	 15.5054 	 25.3625
| 22> H 	 -63.3097 	 15.1589 	 23.7054
| 23> S 	 -61.8889 	 21.4681 	 18.6726
| 24> C 	 -62.7093 	 22.9651 	 18.9611
| 25> C 	 -63.0417 	 23.0722 	 20.2853
| 26> C 	 -62.4397 	 22.1185 	 21.1256
| 27> C 	 -61.689 	 21.2341 	 20.3608
| 28> H 	 -63.7844 	 23.7627 	 20.6011
| 29> C 	 -62.5707 	 22.0817 	 22.6598
| 30> H 	 -62.8413 	 21.0577 	 22.9271
| 31> H 	 -63.426 	 22.6426 	 23.0465
| 32> C 	 -61.2077 	 22.3987 	 23.3674
| 33> H 	 -60.8354 	 23.4369 	 23.2004
| 34> H 	 -60.4054 	 21.8476 	 22.8865
| 35> C 	 -61.2238 	 22.1525 	 24.944
| 36> H 	 -61.4251 	 23.0131 	 25.5467
| 37> H 	 -60.2182 	 21.8692 	 25.2903
| 38> H 	 -61.8889 	 21.3414 	 25.2492
| 39> H 	 -59.008 	 17.0086 	 21.1756
| 40> H 	 -63.2085 	 23.6418 	 18.2896
| 41> *
| 42>
| 43>                          ****END OF INPUT****

CARTESIAN COORDINATES (ANGSTROEM)
---------------------------------
  S    -59.395000   19.420400   20.278700
  C    -59.678400   17.890300   21.089700
  C    -60.855300   17.880300   21.704500
  C    -61.643500   18.996500   21.490600
  C    -61.006500   20.000300   20.799400
  H    -62.627400   19.168600   21.939300
  C    -61.385400   16.636600   22.464600
  H    -60.648100   15.868100   22.314300
  H    -62.191900   16.196300   21.848900
  C    -61.752400   16.723900   23.973600
  H    -60.799000   16.816600   24.504600
  H    -62.313800   17.620500   24.163400
  C    -62.508100   15.431700   24.373800
  H    -61.836600   14.546300   24.500900
  H    -63.013200   15.505400   25.362500
  H    -63.309700   15.158900   23.705400
  S    -61.888900   21.468100   18.672600
  C    -62.709300   22.965100   18.961100
  C    -63.041700   23.072200   20.285300
  C    -62.439700   22.118500   21.125600
  C    -61.689000   21.234100   20.360800
  H    -63.784400   23.762700   20.601100
  C    -62.570700   22.081700   22.659800
  H    -62.841300   21.057700   22.927100
  H    -63.426000   22.642600   23.046500
  C    -61.207700   22.398700   23.367400
  H    -60.835400   23.436900   23.200400
  H    -60.405400   21.847600   22.886500
  C    -61.223800   22.152500   24.944000
  H    -61.425100   23.013100   25.546700
  H    -60.218200   21.869200   25.290300
  H    -61.888900   21.341400   25.249200
  H    -59.008000   17.008600   21.175600
  H    -63.208500   23.641800   18.289600

 Total Charge           Charge          ....    0
 Multiplicity           Mult            ....    1
 Number of Electrons    NEL             ....  134
 Basis Dimension        Dim             ....  322

ORBITAL ENERGIES
----------------

  NO   OCC          E(Eh)            E(eV)
   0   2.0000     -88.968478     -2420.9554
   1   2.0000     -88.968080     -2420.9445
   2   2.0000     -10.331280      -281.1284
   3   2.0000     -10.323732      -280.9230
   4   2.0000     -10.311369      -280.5866
   5   2.0000     -10.309643      -280.5396
   6   2.0000     -10.300651      -280.2950
   7   2.0000     -10.298164      -280.2273
   8   2.0000     -10.293273      -280.0942
   9   2.0000     -10.292128      -280.0631
  10   2.0000     -10.291500      -280.0460
  11   2.0000     -10.290309      -280.0136
  12   2.0000     -10.289333      -279.9870
  13   2.0000     -10.285906      -279.8937
  14   2.0000     -10.285402      -279.8800
  15   2.0000     -10.277978      -279.6780
  16   2.0000      -8.083447      -219.9618
  17   2.0000      -8.082274      -219.9299
  18   2.0000      -6.041840      -164.4068
  19   2.0000      -6.040900      -164.3812
  20   2.0000      -6.037993      -164.3021
  21   2.0000      -6.036937      -164.2734
  22   2.0000      -6.034153      -164.1977
  23   2.0000      -6.032935      -164.1645
  24   2.0000      -1.012299       -27.5460
  25   2.0000      -0.991892       -26.9908
  26   2.0000      -0.905409       -24.6374
  27   2.0000      -0.898180       -24.4407
  28   2.0000      -0.871108       -23.7040
  29   2.0000      -0.848691       -23.0940
  30   2.0000      -0.844830       -22.9890
  31   2.0000      -0.815782       -22.1986
  32   2.0000      -0.780582       -21.2407
  33   2.0000      -0.770509       -20.9666
  34   2.0000      -0.713428       -19.4133
  35   2.0000      -0.703314       -19.1381
  36   2.0000      -0.695760       -18.9326
  37   2.0000      -0.661747       -18.0070
  38   2.0000      -0.635711       -17.2986
  39   2.0000      -0.623573       -16.9683
  40   2.0000      -0.594722       -16.1832
  41   2.0000      -0.568672       -15.4744
  42   2.0000      -0.559142       -15.2150
  43   2.0000      -0.548765       -14.9327
  44   2.0000      -0.521319       -14.1858
  45   2.0000      -0.515146       -14.0178
  46   2.0000      -0.513200       -13.9649
  47   2.0000      -0.506698       -13.7879
  48   2.0000      -0.501440       -13.6449
  49   2.0000      -0.495778       -13.4908
  50   2.0000      -0.491619       -13.3776
  51   2.0000      -0.487945       -13.2777
  52   2.0000      -0.468475       -12.7479
  53   2.0000      -0.465229       -12.6595
  54   2.0000      -0.461641       -12.5619
  55   2.0000      -0.451002       -12.2724
  56   2.0000      -0.443827       -12.0771
  57   2.0000      -0.440368       -11.9830
  58   2.0000      -0.437826       -11.9138
  59   2.0000      -0.430512       -11.7148
  60   2.0000      -0.424724       -11.5573
  61   2.0000      -0.416107       -11.3229
  62   2.0000      -0.408962       -11.1284
  63   2.0000      -0.345266        -9.3952
  64   2.0000      -0.333645        -9.0790
  65   2.0000      -0.331694        -9.0258
  66   2.0000      -0.296301        -8.0628
  67   0.0000       0.030377         0.8266
  68   0.0000       0.071796         1.9537
  69   0.0000       0.112045         3.0489
  70   0.0000       0.121279         3.3002
  71   0.0000       0.134073         3.6483

MULLIKEN ATOMIC CHARGES
-----------------------
   0 S :    0.109513
   1 C :   -0.135611
   2 C :   -0.055653
   3 C :    0.030811
   4 C :   -0.170370
   5 H :    0.024444
   6 C :    0.033875
   7 H :   -0.006081
   8 H :    0.033133
   9 C :   -0.029533
  10 H :    0.038044
  11 H :    0.027798
  12 C :   -0.077822
  13 H :    0.040603
  14 H :    0.034788
  15 H :    0.032301
  16 S :    0.132774
  17 C :   -0.070701
  18 C :   -0.056287
  19 C :   -0.032119
  20 C :   -0.172986
  21 H :    0.004597
  22 C :    0.113419
  23 H :    0.002750
  24 H :    0.023030
  25 C :   -0.085841
  26 H :    0.032486
  27 H :    0.039095
  28 C :   -0.049991
  29 H :    0.032105
  30 H :    0.027548
  31 H :    0.028717
  32 H :    0.053866
  33 H :    0.047297
Sum of atomic charges:   -0.0000000

LOEWDIN ATOMIC CHARGES
----------------------
   0 S :    0.384678
   1 C :   -0.196080
   2 C :   -0.077478
   3 C :   -0.058340
   4 C :   -0.184150
   5 H :    0.033992
   6 C :   -0.032722
   7 H :    0.021359
   8 H :    0.032546
   9 C :   -0.034993
  10 H :    0.030586
  11 H :    0.019492
  12 C :   -0.072110
  13 H :    0.031216
  14 H :    0.029585
  15 H :    0.022641
  16 S :    0.439229
  17 C :   -0.199718
  18 C :   -0.067627
  19 C :   -0.057573
  20 C :   -0.207906
  21 H :    0.025793
  22 C :   -0.027591
  23 H :    0.025184
  24 H :    0.030123
  25 C :   -0.038029
  26 H :    0.028897
  27 H :    0.025653
  28 C :   -0.070686
  29 H :    0.021494
  30 H :    0.029560
  31 H :    0.022737
  32 H :    0.039806
  33 H :    0.030432

  Mayer bond orders larger than 0.100000
B(  0-S ,  1-C ) :   1.1203 B(  0-S ,  4-C ) :   1.1357 B(  1-C ,  2-C ) :   1.6529
B(  1-C , 32-H ) :   0.9519 B(  2-C ,  3-C ) :   1.2528 B(  2-C ,  6-C ) :   1.0080
B(  3-C ,  4-C ) :   1.5782 B(  3-C ,  5-H ) :   0.9847 B(  4-C , 20-C ) :   1.0269
B(  6-C ,  7-H ) :   0.9395 B(  6-C ,  8-H ) :   0.9465 B(  6-C ,  9-C ) :   1.0452
B(  9-C , 10-H ) :   0.9548 B(  9-C , 11-H ) :   0.9636 B(  9-C , 12-C ) :   1.0713
B( 12-C , 13-H ) :   0.9769 B( 12-C , 14-H ) :   0.9744 B( 12-C , 15-H ) :   0.9781
B( 16-S , 17-C ) :   1.1506 B( 16-S , 20-C ) :   1.1798 B( 17-C , 18-C ) :   1.6015
B( 17-C , 33-H ) :   0.9653 B( 18-C , 19-C ) :   1.2828 B( 18-C , 21-H ) :   0.9904
B( 19-C , 20-C ) :   1.5610 B( 19-C , 22-C ) :   1.0381 B( 22-C , 23-H ) :   0.9263
B( 22-C , 24-H ) :   0.9391 B( 22-C , 25-C ) :   1.0514 B( 25-C , 26-H ) :   0.9571
B( 25-C , 27-H ) :   0.9629 B( 25-C , 28-C ) :   1.0618 B( 28-C , 29-H ) :   0.9800
B( 28-C , 30-H ) :   0.9764 B( 28-C , 31-H ) :   0.9793

Dispersion correction           -0.014391171
FINAL SINGLE POINT ENERGY     -1339.876882276918

DIPOLE MOMENT
-------------
                                X             Y             Z
Electronic contribution:      7.00414       9.61494     -28.66620
Nuclear contribution   :     -7.46078      -9.87011      29.23614
                        -----------------------------------------
Total Dipole Moment    :     -0.45663      -0.25516       0.56994
                        -----------------------------------------
Magnitude (a.u.)       :      0.77360
Magnitude (Debye)      :      1.96633

Rotational constants in cm-1:     0.017618     0.008836     0.007148
Rotational constants in MHz :   528.183522   264.893750   214.292179

                             ****ORCA TERMINATED NORMALLY****
TOTAL RUN TIME: 0 days 0 hours 0 minutes 21 seconds 898 msec
