                         Program Version 4.2.1 -  RELEASE  -
|  1> ! wB97X-D3 SP def2-SVP
|  2> %pal
|  3> nprocs 24
|  4> end
|  5>
|  6> * xyz 0 1
|  7> S 	 -67.1243 	 6.99257 	 -76.0238
|  8> C 	 -66.7039 	 5.25095 	 -76.3352
|  9> C 	 -67.2787 	 4.81638 	 -77.5005
| 10> C 	 -68.1873 	 5.75858 	 -78.0426
| 11> C 	 -68.2454 	 7.00598 	 -77.407
| 12> H 	 -68.7228 	 5.7096 	 -78.9494
| 13> C 	 -67.2451 	 3.34181 	 -78.005
| 14> H 	 -68.1993 	 3.1355 	 -78.4132
| 15> H 	 -67.1611 	 2.71903 	 -77.1052
| 16> C 	 -66.0253 	 3.1938 	 -78.9489
| 17> H 	 -66.0779 	 3.97031 	 -79.7801
| 18> H 	 -65.0925 	 3.39723 	 -78.3835
| 19> C 	 -65.882 	 1.82544 	 -79.6177
| 20> H 	 -66.8613 	 1.55294 	 -80.0602
| 21> H 	 -64.9934 	 1.78735 	 -80.2878
| 22> H 	 -65.8043 	 1.13161 	 -78.8398
| 23> S 	 -68.0377 	 9.67217 	 -78.0433
| 24> C 	 -69.4444 	 10.6261 	 -78.4319
| 25> C 	 -70.5088 	 9.80756 	 -78.6305
| 26> C 	 -70.2572 	 8.4015 	 -78.2457
| 27> C 	 -68.9612 	 8.21369 	 -77.7839
| 28> H 	 -71.4685 	 10.2438 	 -79.0483
| 29> C 	 -71.259 	 7.34487 	 -78.6525
| 30> H 	 -70.9248 	 6.30466 	 -78.6034
| 31> H 	 -71.3386 	 7.43458 	 -79.747
| 32> C 	 -72.6473 	 7.47414 	 -77.9229
| 33> H 	 -73.1181 	 8.41778 	 -78.2205
| 34> H 	 -72.5162 	 7.39256 	 -76.8655
| 35> C 	 -73.6576 	 6.32373 	 -78.2721
| 36> H 	 -73.3401 	 5.48648 	 -77.6259
| 37> H 	 -73.6823 	 6.06193 	 -79.3229
| 38> H 	 -74.7566 	 6.61558 	 -78.0031
| 39> H 	 -66.2085 	 4.56789 	 -75.6394
| 40> H 	 -69.4031 	 11.5936 	 -78.8407
| 41> *
| 42>
| 43>                          ****END OF INPUT****

CARTESIAN COORDINATES (ANGSTROEM)
---------------------------------
  S    -67.124300    6.992570  -76.023800
  C    -66.703900    5.250950  -76.335200
  C    -67.278700    4.816380  -77.500500
  C    -68.187300    5.758580  -78.042600
  C    -68.245400    7.005980  -77.407000
  H    -68.722800    5.709600  -78.949400
  C    -67.245100    3.341810  -78.005000
  H    -68.199300    3.135500  -78.413200
  H    -67.161100    2.719030  -77.105200
  C    -66.025300    3.193800  -78.948900
  H    -66.077900    3.970310  -79.780100
  H    -65.092500    3.397230  -78.383500
  C    -65.882000    1.825440  -79.617700
  H    -66.861300    1.552940  -80.060200
  H    -64.993400    1.787350  -80.287800
  H    -65.804300    1.131610  -78.839800
  S    -68.037700    9.672170  -78.043300
  C    -69.444400   10.626100  -78.431900
  C    -70.508800    9.807560  -78.630500
  C    -70.257200    8.401500  -78.245700
  C    -68.961200    8.213690  -77.783900
  H    -71.468500   10.243800  -79.048300
  C    -71.259000    7.344870  -78.652500
  H    -70.924800    6.304660  -78.603400
  H    -71.338600    7.434580  -79.747000
  C    -72.647300    7.474140  -77.922900
  H    -73.118100    8.417780  -78.220500
  H    -72.516200    7.392560  -76.865500
  C    -73.657600    6.323730  -78.272100
  H    -73.340100    5.486480  -77.625900
  H    -73.682300    6.061930  -79.322900
  H    -74.756600    6.615580  -78.003100
  H    -66.208500    4.567890  -75.639400
  H    -69.403100   11.593600  -78.840700

 Total Charge           Charge          ....    0
 Multiplicity           Mult            ....    1
 Number of Electrons    NEL             ....  134
 Basis Dimension        Dim             ....  322

ORBITAL ENERGIES
----------------

  NO   OCC          E(Eh)            E(eV)
   0   2.0000     -88.966491     -2420.9013
   1   2.0000     -88.962181     -2420.7840
   2   2.0000     -10.335510      -281.2435
   3   2.0000     -10.330020      -281.0941
   4   2.0000     -10.320168      -280.8261
   5   2.0000     -10.312588      -280.6198
   6   2.0000     -10.310254      -280.5563
   7   2.0000     -10.303613      -280.3756
   8   2.0000     -10.301662      -280.3225
   9   2.0000     -10.297913      -280.2205
  10   2.0000     -10.297221      -280.2016
  11   2.0000     -10.294248      -280.1207
  12   2.0000     -10.293742      -280.1070
  13   2.0000     -10.289125      -279.9813
  14   2.0000     -10.287779      -279.9447
  15   2.0000     -10.277757      -279.6720
  16   2.0000      -8.079641      -219.8582
  17   2.0000      -8.077448      -219.7985
  18   2.0000      -6.038315      -164.3109
  19   2.0000      -6.036144      -164.2518
  20   2.0000      -6.034335      -164.2026
  21   2.0000      -6.031977      -164.1384
  22   2.0000      -6.030330      -164.0936
  23   2.0000      -6.027853      -164.0262
  24   2.0000      -1.004454       -27.3326
  25   2.0000      -0.979904       -26.6645
  26   2.0000      -0.909300       -24.7433
  27   2.0000      -0.902348       -24.5541
  28   2.0000      -0.872118       -23.7315
  29   2.0000      -0.847340       -23.0573
  30   2.0000      -0.840179       -22.8624
  31   2.0000      -0.816651       -22.2222
  32   2.0000      -0.781940       -21.2777
  33   2.0000      -0.770323       -20.9616
  34   2.0000      -0.706501       -19.2249
  35   2.0000      -0.697551       -18.9813
  36   2.0000      -0.695481       -18.9250
  37   2.0000      -0.656927       -17.8759
  38   2.0000      -0.641986       -17.4693
  39   2.0000      -0.618267       -16.8239
  40   2.0000      -0.596784       -16.2393
  41   2.0000      -0.567874       -15.4526
  42   2.0000      -0.564325       -15.3561
  43   2.0000      -0.558034       -15.1849
  44   2.0000      -0.535166       -14.5626
  45   2.0000      -0.522996       -14.2314
  46   2.0000      -0.515643       -14.0314
  47   2.0000      -0.512122       -13.9355
  48   2.0000      -0.504921       -13.7396
  49   2.0000      -0.499215       -13.5843
  50   2.0000      -0.495785       -13.4910
  51   2.0000      -0.475873       -12.9492
  52   2.0000      -0.473127       -12.8744
  53   2.0000      -0.460085       -12.5195
  54   2.0000      -0.456275       -12.4159
  55   2.0000      -0.443059       -12.0562
  56   2.0000      -0.442338       -12.0366
  57   2.0000      -0.438958       -11.9447
  58   2.0000      -0.435892       -11.8612
  59   2.0000      -0.420493       -11.4422
  60   2.0000      -0.418845       -11.3973
  61   2.0000      -0.416742       -11.3401
  62   2.0000      -0.412596       -11.2273
  63   2.0000      -0.352161        -9.5828
  64   2.0000      -0.333806        -9.0833
  65   2.0000      -0.322885        -8.7862
  66   2.0000      -0.293982        -7.9997
  67   0.0000       0.026650         0.7252
  68   0.0000       0.066644         1.8135
  69   0.0000       0.102488         2.7888
  70   0.0000       0.110144         2.9972
  71   0.0000       0.135230         3.6798

MULLIKEN ATOMIC CHARGES
-----------------------
   0 S :    0.097184
   1 C :   -0.124771
   2 C :   -0.084042
   3 C :    0.046880
   4 C :   -0.161147
   5 H :   -0.001878
   6 C :    0.079084
   7 H :    0.016253
   8 H :    0.026458
   9 C :   -0.126350
  10 H :    0.040608
  11 H :    0.036178
  12 C :    0.000169
  13 H :    0.024699
  14 H :    0.053260
  15 H :    0.006201
  16 S :    0.094636
  17 C :   -0.063087
  18 C :   -0.069310
  19 C :   -0.020498
  20 C :   -0.136993
  21 H :    0.049624
  22 C :    0.025817
  23 H :    0.014361
  24 H :    0.037335
  25 C :   -0.072911
  26 H :    0.033443
  27 H :    0.039672
  28 C :   -0.091650
  29 H :    0.042838
  30 H :    0.033850
  31 H :    0.048560
  32 H :    0.056029
  33 H :    0.049498
Sum of atomic charges:   -0.0000000

LOEWDIN ATOMIC CHARGES
----------------------
   0 S :    0.369264
   1 C :   -0.178318
   2 C :   -0.059523
   3 C :   -0.061877
   4 C :   -0.177717
   5 H :    0.021900
   6 C :   -0.019751
   7 H :    0.022465
   8 H :    0.030878
   9 C :   -0.045545
  10 H :    0.028873
  11 H :    0.027255
  12 C :   -0.067533
  13 H :    0.027322
  14 H :    0.034474
  15 H :    0.013889
  16 S :    0.404310
  17 C :   -0.183888
  18 C :   -0.072521
  19 C :   -0.054650
  20 C :   -0.202835
  21 H :    0.042290
  22 C :   -0.038917
  23 H :    0.025942
  24 H :    0.036991
  25 C :   -0.034725
  26 H :    0.020648
  27 H :    0.025378
  28 C :   -0.075424
  29 H :    0.027549
  30 H :    0.018978
  31 H :    0.036884
  32 H :    0.033214
  33 H :    0.024721

  Mayer bond orders larger than 0.100000
B(  0-S ,  1-C ) :   1.1220 B(  0-S ,  4-C ) :   1.1374 B(  1-C ,  2-C ) :   1.6325
B(  1-C ,  4-C ) :   0.1057 B(  1-C , 32-H ) :   0.9630 B(  2-C ,  3-C ) :   1.2349
B(  2-C ,  6-C ) :   1.0066 B(  3-C ,  4-C ) :   1.5852 B(  3-C ,  5-H ) :   0.9908
B(  4-C , 20-C ) :   1.0438 B(  6-C ,  7-H ) :   0.9496 B(  6-C ,  8-H ) :   0.9458
B(  6-C ,  9-C ) :   1.0457 B(  9-C , 10-H ) :   0.9606 B(  9-C , 11-H ) :   0.9578
B(  9-C , 12-C ) :   1.0807 B( 12-C , 13-H ) :   0.9717 B( 12-C , 14-H ) :   0.9739
B( 12-C , 15-H ) :   0.9692 B( 16-S , 17-C ) :   1.1357 B( 16-S , 20-C ) :   1.1411
B( 17-C , 18-C ) :   1.6514 B( 17-C , 33-H ) :   0.9685 B( 18-C , 19-C ) :   1.2072
B( 18-C , 21-H ) :   0.9753 B( 19-C , 20-C ) :   1.6057 B( 19-C , 22-C ) :   1.0490
B( 22-C , 23-H ) :   0.9408 B( 22-C , 24-H ) :   0.9357 B( 22-C , 25-C ) :   1.0472
B( 25-C , 26-H ) :   0.9622 B( 25-C , 27-H ) :   0.9636 B( 25-C , 28-C ) :   1.0733
B( 28-C , 29-H ) :   0.9793 B( 28-C , 30-H ) :   0.9765 B( 28-C , 31-H ) :   0.9765

Dispersion correction           -0.013315473
FINAL SINGLE POINT ENERGY     -1339.866621556066

DIPOLE MOMENT
-------------
                                X             Y             Z
Electronic contribution:     12.22368      23.13491      10.74675
Nuclear contribution   :    -12.62783     -23.65202     -11.24496
                        -----------------------------------------
Total Dipole Moment    :     -0.40415      -0.51712      -0.49822
                        -----------------------------------------
Magnitude (a.u.)       :      0.82400
Magnitude (Debye)      :      2.09443

Rotational constants in cm-1:     0.017132     0.007770     0.006172
Rotational constants in MHz :   513.613270   232.942593   185.032676

                             ****ORCA TERMINATED NORMALLY****
TOTAL RUN TIME: 0 days 0 hours 0 minutes 20 seconds 663 msec
