                         Program Version 4.2.1 -  RELEASE  -
|  1> ! wB97X-D3 SP def2-SVP
|  2> %pal
|  3> nprocs 24
|  4> end
|  5>
|  6> * xyz 0 1
|  7> S 	 -99.7673 	 14.7284 	 -124.301
|  8> C 	 -101.06 	 15.927 	 -124.171
|  9> C 	 -102.347 	 15.3322 	 -123.976
| 10> C 	 -102.213 	 14.0039 	 -123.579
| 11> C 	 -100.931 	 13.5088 	 -123.693
| 12> H 	 -103.08 	 13.3915 	 -123.248
| 13> C 	 -103.607 	 16.0335 	 -123.842
| 14> H 	 -104.421 	 15.3999 	 -124.085
| 15> H 	 -103.667 	 16.7736 	 -124.656
| 16> C 	 -103.892 	 16.7666 	 -122.524
| 17> H 	 -103.122 	 17.4784 	 -122.215
| 18> H 	 -104.718 	 17.4957 	 -122.6
| 19> C 	 -104.004 	 15.9285 	 -121.253
| 20> H 	 -104.25 	 16.6743 	 -120.432
| 21> H 	 -104.846 	 15.2712 	 -121.322
| 22> H 	 -103.139 	 15.238 	 -121.059
| 23> S 	 -98.9388 	 12.2903 	 -122.339
| 24> C 	 -98.7565 	 10.5405 	 -122.348
| 25> C 	 -99.8264 	 9.93013 	 -123.014
| 26> C 	 -100.772 	 10.8818 	 -123.548
| 27> C 	 -100.44 	 12.2252 	 -123.241
| 28> H 	 -99.827 	 8.87868 	 -123.252
| 29> C 	 -101.996 	 10.4412 	 -124.397
| 30> H 	 -101.466 	 9.9226 	 -125.146
| 31> H 	 -102.567 	 11.233 	 -124.835
| 32> C 	 -103.011 	 9.55788 	 -123.696
| 33> H 	 -102.515 	 8.64223 	 -123.457
| 34> H 	 -103.885 	 9.42803 	 -124.309
| 35> C 	 -103.589 	 10.0555 	 -122.378
| 36> H 	 -104.085 	 10.98 	 -122.556
| 37> H 	 -102.782 	 10.1711 	 -121.664
| 38> H 	 -104.29 	 9.34785 	 -122.008
| 39> H 	 -100.926 	 16.9089 	 -124.529
| 40> H 	 -97.8716 	 9.96674 	 -121.918
| 41> *
| 42>
| 43>                          ****END OF INPUT****

CARTESIAN COORDINATES (ANGSTROEM)
---------------------------------
  S    -99.767300   14.728400  -124.301000
  C    -101.060000   15.927000  -124.171000
  C    -102.347000   15.332200  -123.976000
  C    -102.213000   14.003900  -123.579000
  C    -100.931000   13.508800  -123.693000
  H    -103.080000   13.391500  -123.248000
  C    -103.607000   16.033500  -123.842000
  H    -104.421000   15.399900  -124.085000
  H    -103.667000   16.773600  -124.656000
  C    -103.892000   16.766600  -122.524000
  H    -103.122000   17.478400  -122.215000
  H    -104.718000   17.495700  -122.600000
  C    -104.004000   15.928500  -121.253000
  H    -104.250000   16.674300  -120.432000
  H    -104.846000   15.271200  -121.322000
  H    -103.139000   15.238000  -121.059000
  S    -98.938800   12.290300  -122.339000
  C    -98.756500   10.540500  -122.348000
  C    -99.826400    9.930130  -123.014000
  C    -100.772000   10.881800  -123.548000
  C    -100.440000   12.225200  -123.241000
  H    -99.827000    8.878680  -123.252000
  C    -101.996000   10.441200  -124.397000
  H    -101.466000    9.922600  -125.146000
  H    -102.567000   11.233000  -124.835000
  C    -103.011000    9.557880  -123.696000
  H    -102.515000    8.642230  -123.457000
  H    -103.885000    9.428030  -124.309000
  C    -103.589000   10.055500  -122.378000
  H    -104.085000   10.980000  -122.556000
  H    -102.782000   10.171100  -121.664000
  H    -104.290000    9.347850  -122.008000
  H    -100.926000   16.908900  -124.529000
  H    -97.871600    9.966740  -121.918000

 Total Charge           Charge          ....    0
 Multiplicity           Mult            ....    1
 Number of Electrons    NEL             ....  134
 Basis Dimension        Dim             ....  322

ORBITAL ENERGIES
----------------

  NO   OCC          E(Eh)            E(eV)
   0   2.0000     -88.971875     -2421.0478
   1   2.0000     -88.965453     -2420.8731
   2   2.0000     -10.330685      -281.1122
   3   2.0000     -10.326385      -280.9952
   4   2.0000     -10.326086      -280.9871
   5   2.0000     -10.315137      -280.6892
   6   2.0000     -10.310044      -280.5506
   7   2.0000     -10.299252      -280.2569
   8   2.0000     -10.298854      -280.2461
   9   2.0000     -10.293962      -280.1129
  10   2.0000     -10.287362      -279.9333
  11   2.0000     -10.286793      -279.9179
  12   2.0000     -10.286064      -279.8980
  13   2.0000     -10.279675      -279.7242
  14   2.0000     -10.277782      -279.6727
  15   2.0000     -10.266927      -279.3773
  16   2.0000      -8.085389      -220.0146
  17   2.0000      -8.079859      -219.8641
  18   2.0000      -6.043811      -164.4605
  19   2.0000      -6.040159      -164.3611
  20   2.0000      -6.038379      -164.3126
  21   2.0000      -6.036213      -164.2537
  22   2.0000      -6.034277      -164.2010
  23   2.0000      -6.030732      -164.1046
  24   2.0000      -1.002668       -27.2840
  25   2.0000      -0.978532       -26.6272
  26   2.0000      -0.915930       -24.9237
  27   2.0000      -0.911347       -24.7990
  28   2.0000      -0.864938       -23.5361
  29   2.0000      -0.853432       -23.2231
  30   2.0000      -0.846181       -23.0258
  31   2.0000      -0.814629       -22.1672
  32   2.0000      -0.787058       -21.4169
  33   2.0000      -0.770044       -20.9540
  34   2.0000      -0.705583       -19.1999
  35   2.0000      -0.701316       -19.0838
  36   2.0000      -0.687385       -18.7047
  37   2.0000      -0.658466       -17.9178
  38   2.0000      -0.639731       -17.4080
  39   2.0000      -0.620316       -16.8796
  40   2.0000      -0.597659       -16.2631
  41   2.0000      -0.568396       -15.4669
  42   2.0000      -0.557564       -15.1721
  43   2.0000      -0.554147       -15.0791
  44   2.0000      -0.552216       -15.0266
  45   2.0000      -0.533943       -14.5293
  46   2.0000      -0.515258       -14.0209
  47   2.0000      -0.512870       -13.9559
  48   2.0000      -0.499262       -13.5856
  49   2.0000      -0.491717       -13.3803
  50   2.0000      -0.489488       -13.3197
  51   2.0000      -0.475635       -12.9427
  52   2.0000      -0.470951       -12.8152
  53   2.0000      -0.468410       -12.7461
  54   2.0000      -0.457040       -12.4367
  55   2.0000      -0.448961       -12.2168
  56   2.0000      -0.445950       -12.1349
  57   2.0000      -0.441459       -12.0127
  58   2.0000      -0.436356       -11.8738
  59   2.0000      -0.425614       -11.5815
  60   2.0000      -0.422353       -11.4928
  61   2.0000      -0.406561       -11.0631
  62   2.0000      -0.403751       -10.9866
  63   2.0000      -0.348691        -9.4884
  64   2.0000      -0.332006        -9.0343
  65   2.0000      -0.329519        -8.9667
  66   2.0000      -0.283780        -7.7220
  67   0.0000       0.021455         0.5838
  68   0.0000       0.063685         1.7329
  69   0.0000       0.099288         2.7018
  70   0.0000       0.120460         3.2779
  71   0.0000       0.127459         3.4683

MULLIKEN ATOMIC CHARGES
-----------------------
   0 S :    0.121349
   1 C :   -0.110013
   2 C :   -0.083787
   3 C :    0.008032
   4 C :   -0.139741
   5 H :    0.024902
   6 C :    0.093398
   7 H :    0.011604
   8 H :    0.019801
   9 C :   -0.069481
  10 H :    0.019652
  11 H :    0.024499
  12 C :   -0.075367
  13 H :    0.044115
  14 H :    0.012372
  15 H :    0.060616
  16 S :    0.101008
  17 C :   -0.125150
  18 C :   -0.034744
  19 C :   -0.068391
  20 C :   -0.160751
  21 H :    0.024498
  22 C :    0.121763
  23 H :    0.024193
  24 H :    0.013464
  25 C :   -0.081757
  26 H :    0.016829
  27 H :    0.027828
  28 C :   -0.029226
  29 H :    0.016217
  30 H :    0.040071
  31 H :    0.028254
  32 H :    0.036762
  33 H :    0.087182
Sum of atomic charges:   -0.0000000

LOEWDIN ATOMIC CHARGES
----------------------
   0 S :    0.393683
   1 C :   -0.183504
   2 C :   -0.061310
   3 C :   -0.062504
   4 C :   -0.181609
   5 H :    0.038412
   6 C :   -0.038453
   7 H :    0.027277
   8 H :    0.037376
   9 C :   -0.046560
  10 H :    0.025781
  11 H :    0.026841
  12 C :   -0.073101
  13 H :    0.037674
  14 H :    0.012191
  15 H :    0.035075
  16 S :    0.405402
  17 C :   -0.196771
  18 C :   -0.078638
  19 C :   -0.048725
  20 C :   -0.206153
  21 H :    0.030802
  22 C :   -0.023443
  23 H :    0.030615
  24 H :    0.025305
  25 C :   -0.037486
  26 H :    0.016697
  27 H :    0.024040
  28 C :   -0.054611
  29 H :    0.015414
  30 H :    0.026144
  31 H :    0.023726
  32 H :    0.013726
  33 H :    0.046684

  Mayer bond orders larger than 0.100000
B(  0-S ,  1-C ) :   1.1487 B(  0-S ,  4-C ) :   1.1481 B(  1-C ,  2-C ) :   1.5561
B(  1-C ,  4-C ) :   0.1076 B(  1-C , 32-H ) :   0.9697 B(  2-C ,  3-C ) :   1.2664
B(  2-C ,  6-C ) :   1.0609 B(  3-C ,  4-C ) :   1.5544 B(  3-C ,  5-H ) :   0.9847
B(  4-C , 20-C ) :   1.0638 B(  6-C ,  7-H ) :   0.9346 B(  6-C ,  8-H ) :   0.9196
B(  6-C ,  9-C ) :   1.0688 B(  9-C , 10-H ) :   0.9542 B(  9-C , 11-H ) :   0.9527
B(  9-C , 12-C ) :   1.0781 B( 12-C , 13-H ) :   0.9714 B( 12-C , 14-H ) :   0.9757
B( 12-C , 15-H ) :   0.9705 B( 16-S , 17-C ) :   1.1615 B( 16-S , 20-C ) :   1.1411
B( 17-C , 18-C ) :   1.5881 B( 17-C , 33-H ) :   0.9588 B( 18-C , 19-C ) :   1.2571
B( 18-C , 21-H ) :   0.9871 B( 19-C , 20-C ) :   1.5624 B( 19-C , 22-C ) :   1.0201
B( 22-C , 23-H ) :   0.9320 B( 22-C , 24-H ) :   0.9402 B( 22-C , 25-C ) :   1.0804
B( 25-C , 26-H ) :   0.9535 B( 25-C , 27-H ) :   0.9579 B( 25-C , 28-C ) :   1.0870
B( 28-C , 29-H ) :   0.9737 B( 28-C , 30-H ) :   0.9714 B( 28-C , 31-H ) :   0.9718

Dispersion correction           -0.015019723
FINAL SINGLE POINT ENERGY     -1339.867294642948

DIPOLE MOMENT
-------------
                                X             Y             Z
Electronic contribution:     25.74906       2.05901      -5.12923
Nuclear contribution   :    -26.26950      -2.21913       4.96894
                        -----------------------------------------
Total Dipole Moment    :     -0.52044      -0.16013      -0.16029
                        -----------------------------------------
Magnitude (a.u.)       :      0.56762
Magnitude (Debye)      :      1.44278

Rotational constants in cm-1:     0.018391     0.009427     0.007373
Rotational constants in MHz :   551.336378   282.604178   221.046239

                             ****ORCA TERMINATED NORMALLY****
TOTAL RUN TIME: 0 days 0 hours 0 minutes 21 seconds 46 msec
