                         Program Version 4.2.1 -  RELEASE  -
|  1> ! wB97X-D3 SP def2-SVP
|  2> %pal
|  3> nprocs 24
|  4> end
|  5>
|  6> * xyz 0 1
|  7> S 	 -110.883 	 68.2818 	 -10.3278
|  8> C 	 -110.246 	 69.9169 	 -9.91242
|  9> C 	 -109.087 	 70.194 	 -10.6815
| 10> C 	 -108.743 	 69.0776 	 -11.5002
| 11> C 	 -109.58 	 68.0205 	 -11.4914
| 12> H 	 -107.885 	 69.013 	 -12.1504
| 13> C 	 -108.201 	 71.4486 	 -10.5451
| 14> H 	 -108.667 	 72.1658 	 -9.84735
| 15> H 	 -108.396 	 72.0717 	 -11.4529
| 16> C 	 -106.659 	 71.2764 	 -10.568
| 17> H 	 -106.33 	 70.6299 	 -9.72021
| 18> H 	 -106.28 	 70.6391 	 -11.4733
| 19> C 	 -105.881 	 72.5604 	 -10.6123
| 20> H 	 -106.074 	 73.1313 	 -9.70614
| 21> H 	 -104.808 	 72.4155 	 -10.7815
| 22> H 	 -106.368 	 73.2468 	 -11.3309
| 23> S 	 -108.488 	 65.5445 	 -11.2635
| 24> C 	 -108.697 	 64.4209 	 -12.5301
| 25> C 	 -109.357 	 64.9179 	 -13.5963
| 26> C 	 -109.663 	 66.307 	 -13.4533
| 27> C 	 -109.317 	 66.7476 	 -12.197
| 28> H 	 -109.507 	 64.17 	 -14.3425
| 29> C 	 -110.276 	 67.1646 	 -14.475
| 30> H 	 -110.302 	 66.7508 	 -15.4674
| 31> H 	 -109.707 	 68.0889 	 -14.6097
| 32> C 	 -111.748 	 67.5882 	 -14.2986
| 33> H 	 -111.973 	 68.2576 	 -15.1194
| 34> H 	 -111.805 	 68.1073 	 -13.3421
| 35> C 	 -112.732 	 66.4656 	 -14.4315
| 36> H 	 -112.663 	 66.1164 	 -15.465
| 37> H 	 -113.774 	 66.8299 	 -14.3387
| 38> H 	 -112.692 	 65.596 	 -13.7595
| 39> H 	 -110.675 	 70.4973 	 -9.0742
| 40> H 	 -108.38 	 63.3906 	 -12.576
| 41> *
| 42>
| 43>                          ****END OF INPUT****

CARTESIAN COORDINATES (ANGSTROEM)
---------------------------------
  S    -110.883000   68.281800  -10.327800
  C    -110.246000   69.916900   -9.912420
  C    -109.087000   70.194000  -10.681500
  C    -108.743000   69.077600  -11.500200
  C    -109.580000   68.020500  -11.491400
  H    -107.885000   69.013000  -12.150400
  C    -108.201000   71.448600  -10.545100
  H    -108.667000   72.165800   -9.847350
  H    -108.396000   72.071700  -11.452900
  C    -106.659000   71.276400  -10.568000
  H    -106.330000   70.629900   -9.720210
  H    -106.280000   70.639100  -11.473300
  C    -105.881000   72.560400  -10.612300
  H    -106.074000   73.131300   -9.706140
  H    -104.808000   72.415500  -10.781500
  H    -106.368000   73.246800  -11.330900
  S    -108.488000   65.544500  -11.263500
  C    -108.697000   64.420900  -12.530100
  C    -109.357000   64.917900  -13.596300
  C    -109.663000   66.307000  -13.453300
  C    -109.317000   66.747600  -12.197000
  H    -109.507000   64.170000  -14.342500
  C    -110.276000   67.164600  -14.475000
  H    -110.302000   66.750800  -15.467400
  H    -109.707000   68.088900  -14.609700
  C    -111.748000   67.588200  -14.298600
  H    -111.973000   68.257600  -15.119400
  H    -111.805000   68.107300  -13.342100
  C    -112.732000   66.465600  -14.431500
  H    -112.663000   66.116400  -15.465000
  H    -113.774000   66.829900  -14.338700
  H    -112.692000   65.596000  -13.759500
  H    -110.675000   70.497300   -9.074200
  H    -108.380000   63.390600  -12.576000

 Total Charge           Charge          ....    0
 Multiplicity           Mult            ....    1
 Number of Electrons    NEL             ....  134
 Basis Dimension        Dim             ....  322

ORBITAL ENERGIES
----------------

  NO   OCC          E(Eh)            E(eV)
   0   2.0000     -88.966166     -2420.8925
   1   2.0000     -88.963578     -2420.8220
   2   2.0000     -10.326561      -281.0000
   3   2.0000     -10.325901      -280.9820
   4   2.0000     -10.321089      -280.8511
   5   2.0000     -10.311320      -280.5853
   6   2.0000     -10.305890      -280.4375
   7   2.0000     -10.303926      -280.3841
   8   2.0000     -10.301635      -280.3217
   9   2.0000     -10.300300      -280.2854
  10   2.0000     -10.289339      -279.9871
  11   2.0000     -10.285550      -279.8841
  12   2.0000     -10.281838      -279.7830
  13   2.0000     -10.281388      -279.7708
  14   2.0000     -10.277252      -279.6582
  15   2.0000     -10.271710      -279.5074
  16   2.0000      -8.079536      -219.8554
  17   2.0000      -8.079498      -219.8543
  18   2.0000      -6.038065      -164.3041
  19   2.0000      -6.037873      -164.2989
  20   2.0000      -6.034192      -164.1987
  21   2.0000      -6.033859      -164.1897
  22   2.0000      -6.030411      -164.0958
  23   2.0000      -6.030282      -164.0923
  24   2.0000      -1.010583       -27.4994
  25   2.0000      -0.982489       -26.7349
  26   2.0000      -0.913061       -24.8456
  27   2.0000      -0.908237       -24.7144
  28   2.0000      -0.870082       -23.6761
  29   2.0000      -0.851758       -23.1775
  30   2.0000      -0.846557       -23.0360
  31   2.0000      -0.818927       -22.2841
  32   2.0000      -0.783426       -21.3181
  33   2.0000      -0.771240       -20.9865
  34   2.0000      -0.708788       -19.2871
  35   2.0000      -0.694517       -18.8988
  36   2.0000      -0.684193       -18.6178
  37   2.0000      -0.657904       -17.9025
  38   2.0000      -0.644513       -17.5381
  39   2.0000      -0.620253       -16.8779
  40   2.0000      -0.597999       -16.2724
  41   2.0000      -0.571581       -15.5535
  42   2.0000      -0.554448       -15.0873
  43   2.0000      -0.550813       -14.9884
  44   2.0000      -0.544720       -14.8226
  45   2.0000      -0.533770       -14.5246
  46   2.0000      -0.513629       -13.9765
  47   2.0000      -0.508832       -13.8460
  48   2.0000      -0.499365       -13.5884
  49   2.0000      -0.492122       -13.3913
  50   2.0000      -0.486968       -13.2511
  51   2.0000      -0.481238       -13.0952
  52   2.0000      -0.471402       -12.8275
  53   2.0000      -0.466326       -12.6894
  54   2.0000      -0.455290       -12.3891
  55   2.0000      -0.449951       -12.2438
  56   2.0000      -0.443393       -12.0653
  57   2.0000      -0.439053       -11.9472
  58   2.0000      -0.432722       -11.7750
  59   2.0000      -0.423985       -11.5372
  60   2.0000      -0.421989       -11.4829
  61   2.0000      -0.410334       -11.1658
  62   2.0000      -0.403461       -10.9787
  63   2.0000      -0.337746        -9.1905
  64   2.0000      -0.328694        -8.9442
  65   2.0000      -0.318405        -8.6642
  66   2.0000      -0.312269        -8.4973
  67   0.0000       0.045444         1.2366
  68   0.0000       0.055629         1.5137
  69   0.0000       0.118308         3.2193
  70   0.0000       0.120329         3.2743
  71   0.0000       0.130563         3.5528

MULLIKEN ATOMIC CHARGES
-----------------------
   0 S :    0.102471
   1 C :   -0.160750
   2 C :   -0.040172
   3 C :    0.035323
   4 C :   -0.154594
   5 H :    0.008926
   6 C :    0.057643
   7 H :    0.017481
   8 H :    0.029994
   9 C :   -0.113984
  10 H :    0.042074
  11 H :    0.044861
  12 C :   -0.033939
  13 H :    0.023334
  14 H :    0.053557
  15 H :    0.021187
  16 S :    0.133737
  17 C :   -0.086061
  18 C :   -0.046385
  19 C :    0.033908
  20 C :   -0.213860
  21 H :    0.004617
  22 C :    0.076115
  23 H :   -0.001153
  24 H :    0.027484
  25 C :   -0.058837
  26 H :    0.024863
  27 H :    0.031815
  28 C :   -0.062103
  29 H :    0.014875
  30 H :    0.032057
  31 H :    0.042403
  32 H :    0.069124
  33 H :    0.043986
Sum of atomic charges:   -0.0000000

LOEWDIN ATOMIC CHARGES
----------------------
   0 S :    0.378055
   1 C :   -0.186156
   2 C :   -0.058375
   3 C :   -0.061911
   4 C :   -0.195309
   5 H :    0.030844
   6 C :   -0.044242
   7 H :    0.033266
   8 H :    0.038484
   9 C :   -0.052951
  10 H :    0.026114
  11 H :    0.034348
  12 C :   -0.070234
  13 H :    0.024893
  14 H :    0.033142
  15 H :    0.027092
  16 S :    0.433019
  17 C :   -0.196951
  18 C :   -0.073290
  19 C :   -0.049992
  20 C :   -0.203939
  21 H :    0.031354
  22 C :   -0.037241
  23 H :    0.025347
  24 H :    0.036075
  25 C :   -0.034745
  26 H :    0.026668
  27 H :    0.017169
  28 C :   -0.072917
  29 H :    0.022245
  30 H :    0.029799
  31 H :    0.025829
  32 H :    0.034865
  33 H :    0.029646

  Mayer bond orders larger than 0.100000
B(  0-S ,  1-C ) :   1.1378 B(  0-S ,  4-C ) :   1.1261 B(  1-C ,  2-C ) :   1.5958
B(  1-C , 32-H ) :   0.9668 B(  2-C ,  3-C ) :   1.2221 B(  2-C ,  6-C ) :   1.0303
B(  3-C ,  4-C ) :   1.6305 B(  3-C ,  5-H ) :   0.9873 B(  4-C , 20-C ) :   1.0003
B(  6-C ,  7-H ) :   0.9442 B(  6-C ,  8-H ) :   0.9260 B(  6-C ,  9-C ) :   1.0430
B(  9-C , 10-H ) :   0.9564 B(  9-C , 11-H ) :   0.9478 B(  9-C , 12-C ) :   1.0868
B( 12-C , 13-H ) :   0.9704 B( 12-C , 14-H ) :   0.9726 B( 12-C , 15-H ) :   0.9698
B( 16-S , 17-C ) :   1.1539 B( 16-S , 20-C ) :   1.1591 B( 17-C , 18-C ) :   1.6565
B( 17-C , 33-H ) :   0.9603 B( 18-C , 19-C ) :   1.1941 B( 18-C , 21-H ) :   0.9999
B( 19-C , 20-C ) :   1.6037 B( 19-C , 22-C ) :   1.0632 B( 22-C , 23-H ) :   0.9283
B( 22-C , 24-H ) :   0.9222 B( 22-C , 25-C ) :   1.0821 B( 25-C , 26-H ) :   0.9509
B( 25-C , 27-H ) :   0.9541 B( 25-C , 28-C ) :   1.0800 B( 28-C , 29-H ) :   0.9705
B( 28-C , 30-H ) :   0.9720 B( 28-C , 31-H ) :   0.9770

Dispersion correction           -0.014465092
FINAL SINGLE POINT ENERGY     -1339.876074771662

DIPOLE MOMENT
-------------
                                X             Y             Z
Electronic contribution:     -2.39632     -16.01063      10.55331
Nuclear contribution   :      2.64267      16.33184     -10.85728
                        -----------------------------------------
Total Dipole Moment    :      0.24635       0.32121      -0.30397
                        -----------------------------------------
Magnitude (a.u.)       :      0.50622
Magnitude (Debye)      :      1.28671

Rotational constants in cm-1:     0.020208     0.007820     0.007101
Rotational constants in MHz :   605.821308   234.444457   212.880206

                             ****ORCA TERMINATED NORMALLY****
TOTAL RUN TIME: 0 days 0 hours 0 minutes 20 seconds 323 msec
