                         Program Version 4.2.1 -  RELEASE  -
|  1> ! wB97X-D3 SP def2-SVP
|  2> %pal
|  3> nprocs 24
|  4> end
|  5>
|  6> * xyz 0 1
|  7> S 	 -41.5562 	 12.7307 	 -10.3138
|  8> C 	 -41.243 	 11.052 	 -10.739
|  9> C 	 -40.6672 	 10.4314 	 -9.63158
| 10> C 	 -40.5462 	 11.2403 	 -8.45664
| 11> C 	 -40.9567 	 12.5698 	 -8.7015
| 12> H 	 -40.246 	 10.8463 	 -7.52761
| 13> C 	 -40.5558 	 8.96645 	 -9.46462
| 14> H 	 -40.9325 	 8.46929 	 -10.4158
| 15> H 	 -41.3721 	 8.68135 	 -8.81845
| 16> C 	 -39.1968 	 8.34939 	 -9.22656
| 17> H 	 -38.4352 	 8.67166 	 -9.90673
| 18> H 	 -38.8147 	 8.69139 	 -8.20598
| 19> C 	 -39.1756 	 6.81154 	 -9.31754
| 20> H 	 -39.5546 	 6.37656 	 -10.252
| 21> H 	 -38.2076 	 6.38066 	 -9.00099
| 22> H 	 -39.9607 	 6.45582 	 -8.65435
| 23> S 	 -42.0751 	 14.9961 	 -8.03168
| 24> C 	 -41.4381 	 15.8996 	 -6.64681
| 25> C 	 -40.5865 	 15.1386 	 -5.96202
| 26> C 	 -40.3883 	 13.8215 	 -6.42351
| 27> C 	 -41.0049 	 13.6684 	 -7.67563
| 28> H 	 -40.1576 	 15.5442 	 -5.01201
| 29> C 	 -39.3752 	 12.8497 	 -5.8271
| 30> H 	 -39.7587 	 11.8427 	 -5.8714
| 31> H 	 -39.1746 	 13.1324 	 -4.75839
| 32> C 	 -37.9435 	 12.8595 	 -6.32972
| 33> H 	 -37.6361 	 13.8779 	 -6.62494
| 34> H 	 -37.9431 	 12.2636 	 -7.24164
| 35> C 	 -36.9749 	 12.2205 	 -5.26677
| 36> H 	 -37.0635 	 12.5934 	 -4.23993
| 37> H 	 -35.9788 	 12.4041 	 -5.59314
| 38> H 	 -37.0875 	 11.1224 	 -5.32801
| 39> H 	 -41.5356 	 10.6577 	 -11.7132
| 40> H 	 -41.7425 	 16.8691 	 -6.28868
| 41> *
| 42>
| 43>                          ****END OF INPUT****

CARTESIAN COORDINATES (ANGSTROEM)
---------------------------------
  S    -41.556200   12.730700  -10.313800
  C    -41.243000   11.052000  -10.739000
  C    -40.667200   10.431400   -9.631580
  C    -40.546200   11.240300   -8.456640
  C    -40.956700   12.569800   -8.701500
  H    -40.246000   10.846300   -7.527610
  C    -40.555800    8.966450   -9.464620
  H    -40.932500    8.469290  -10.415800
  H    -41.372100    8.681350   -8.818450
  C    -39.196800    8.349390   -9.226560
  H    -38.435200    8.671660   -9.906730
  H    -38.814700    8.691390   -8.205980
  C    -39.175600    6.811540   -9.317540
  H    -39.554600    6.376560  -10.252000
  H    -38.207600    6.380660   -9.000990
  H    -39.960700    6.455820   -8.654350
  S    -42.075100   14.996100   -8.031680
  C    -41.438100   15.899600   -6.646810
  C    -40.586500   15.138600   -5.962020
  C    -40.388300   13.821500   -6.423510
  C    -41.004900   13.668400   -7.675630
  H    -40.157600   15.544200   -5.012010
  C    -39.375200   12.849700   -5.827100
  H    -39.758700   11.842700   -5.871400
  H    -39.174600   13.132400   -4.758390
  C    -37.943500   12.859500   -6.329720
  H    -37.636100   13.877900   -6.624940
  H    -37.943100   12.263600   -7.241640
  C    -36.974900   12.220500   -5.266770
  H    -37.063500   12.593400   -4.239930
  H    -35.978800   12.404100   -5.593140
  H    -37.087500   11.122400   -5.328010
  H    -41.535600   10.657700  -11.713200
  H    -41.742500   16.869100   -6.288680

 Total Charge           Charge          ....    0
 Multiplicity           Mult            ....    1
 Number of Electrons    NEL             ....  134
 Basis Dimension        Dim             ....  322

ORBITAL ENERGIES
----------------

  NO   OCC          E(Eh)            E(eV)
   0   2.0000     -88.969140     -2420.9734
   1   2.0000     -88.966022     -2420.8885
   2   2.0000     -10.338931      -281.3366
   3   2.0000     -10.334484      -281.2156
   4   2.0000     -10.319427      -280.8059
   5   2.0000     -10.312272      -280.6112
   6   2.0000     -10.304624      -280.4031
   7   2.0000     -10.301853      -280.3277
   8   2.0000     -10.293831      -280.1094
   9   2.0000     -10.293114      -280.0899
  10   2.0000     -10.291519      -280.0465
  11   2.0000     -10.291371      -280.0424
  12   2.0000     -10.291233      -280.0387
  13   2.0000     -10.287065      -279.9253
  14   2.0000     -10.282116      -279.7906
  15   2.0000     -10.281816      -279.7824
  16   2.0000      -8.083844      -219.9726
  17   2.0000      -8.080652      -219.8857
  18   2.0000      -6.042434      -164.4230
  19   2.0000      -6.039251      -164.3364
  20   2.0000      -6.038151      -164.3065
  21   2.0000      -6.035213      -164.2265
  22   2.0000      -6.034727      -164.2133
  23   2.0000      -6.031289      -164.1197
  24   2.0000      -1.008397       -27.4399
  25   2.0000      -0.987771       -26.8786
  26   2.0000      -0.915656       -24.9163
  27   2.0000      -0.909329       -24.7441
  28   2.0000      -0.869805       -23.6686
  29   2.0000      -0.852648       -23.2017
  30   2.0000      -0.846383       -23.0312
  31   2.0000      -0.817403       -22.2427
  32   2.0000      -0.780650       -21.2426
  33   2.0000      -0.772277       -21.0147
  34   2.0000      -0.709423       -19.3044
  35   2.0000      -0.701420       -19.0866
  36   2.0000      -0.691563       -18.8184
  37   2.0000      -0.661651       -18.0044
  38   2.0000      -0.640372       -17.4254
  39   2.0000      -0.627829       -17.0841
  40   2.0000      -0.598975       -16.2989
  41   2.0000      -0.570450       -15.5227
  42   2.0000      -0.567973       -15.4553
  43   2.0000      -0.554161       -15.0795
  44   2.0000      -0.535070       -14.5600
  45   2.0000      -0.525498       -14.2995
  46   2.0000      -0.514889       -14.0108
  47   2.0000      -0.514780       -14.0079
  48   2.0000      -0.508059       -13.8250
  49   2.0000      -0.499055       -13.5800
  50   2.0000      -0.491144       -13.3647
  51   2.0000      -0.479011       -13.0345
  52   2.0000      -0.475167       -12.9300
  53   2.0000      -0.470727       -12.8091
  54   2.0000      -0.459698       -12.5090
  55   2.0000      -0.451845       -12.2953
  56   2.0000      -0.445678       -12.1275
  57   2.0000      -0.439350       -11.9553
  58   2.0000      -0.431032       -11.7290
  59   2.0000      -0.423194       -11.5157
  60   2.0000      -0.420849       -11.4519
  61   2.0000      -0.413510       -11.2522
  62   2.0000      -0.403129       -10.9697
  63   2.0000      -0.361289        -9.8312
  64   2.0000      -0.335975        -9.1423
  65   2.0000      -0.329120        -8.9558
  66   2.0000      -0.284767        -7.7489
  67   0.0000       0.017017         0.4630
  68   0.0000       0.085080         2.3151
  69   0.0000       0.103411         2.8139
  70   0.0000       0.121289         3.3004
  71   0.0000       0.123774         3.3681

MULLIKEN ATOMIC CHARGES
-----------------------
   0 S :    0.103428
   1 C :   -0.139875
   2 C :   -0.035148
   3 C :    0.004577
   4 C :   -0.085173
   5 H :   -0.013361
   6 C :    0.002790
   7 H :    0.008337
   8 H :    0.041104
   9 C :   -0.057559
  10 H :    0.030104
  11 H :    0.026387
  12 C :   -0.049602
  13 H :    0.030379
  14 H :    0.046941
  15 H :    0.015053
  16 S :    0.091929
  17 C :   -0.070813
  18 C :   -0.046803
  19 C :   -0.022264
  20 C :   -0.135015
  21 H :    0.028260
  22 C :    0.023054
  23 H :    0.028565
  24 H :    0.016214
  25 C :   -0.060778
  26 H :    0.033275
  27 H :    0.027242
  28 C :   -0.055293
  29 H :    0.042645
  30 H :    0.027611
  31 H :    0.035383
  32 H :    0.061964
  33 H :    0.046443
Sum of atomic charges:   -0.0000000

LOEWDIN ATOMIC CHARGES
----------------------
   0 S :    0.414484
   1 C :   -0.199414
   2 C :   -0.061246
   3 C :   -0.065013
   4 C :   -0.190042
   5 H :    0.019935
   6 C :   -0.044672
   7 H :    0.032300
   8 H :    0.035621
   9 C :   -0.042673
  10 H :    0.023775
  11 H :    0.025022
  12 C :   -0.070305
  13 H :    0.025841
  14 H :    0.031388
  15 H :    0.022633
  16 S :    0.392980
  17 C :   -0.179676
  18 C :   -0.074227
  19 C :   -0.063024
  20 C :   -0.183170
  21 H :    0.039392
  22 C :   -0.037672
  23 H :    0.023878
  24 H :    0.034002
  25 C :   -0.037091
  26 H :    0.025569
  27 H :    0.022815
  28 C :   -0.065074
  29 H :    0.025774
  30 H :    0.023428
  31 H :    0.029686
  32 H :    0.033448
  33 H :    0.031331

  Mayer bond orders larger than 0.100000
B(  0-S ,  1-C ) :   1.1292 B(  0-S ,  4-C ) :   1.1824 B(  1-C ,  2-C ) :   1.5646
B(  1-C , 32-H ) :   0.9748 B(  2-C ,  3-C ) :   1.2725 B(  2-C ,  6-C ) :   1.0381
B(  3-C ,  4-C ) :   1.5062 B(  3-C ,  5-H ) :   0.9998 B(  4-C , 20-C ) :   1.0604
B(  6-C ,  7-H ) :   0.9421 B(  6-C ,  8-H ) :   0.9408 B(  6-C ,  9-C ) :   1.0498
B(  9-C , 10-H ) :   0.9565 B(  9-C , 11-H ) :   0.9522 B(  9-C , 12-C ) :   1.0834
B( 12-C , 13-H ) :   0.9726 B( 12-C , 14-H ) :   0.9743 B( 12-C , 15-H ) :   0.9721
B( 16-S , 17-C ) :   1.1197 B( 16-S , 20-C ) :   1.1533 B( 17-C , 18-C ) :   1.6478
B( 17-C , 33-H ) :   0.9672 B( 18-C , 19-C ) :   1.2497 B( 18-C , 21-H ) :   0.9762
B( 19-C , 20-C ) :   1.5598 B( 19-C , 22-C ) :   1.0569 B( 22-C , 23-H ) :   0.9315
B( 22-C , 24-H ) :   0.9353 B( 22-C , 25-C ) :   1.0573 B( 25-C , 26-H ) :   0.9571
B( 25-C , 27-H ) :   0.9496 B( 25-C , 28-C ) :   1.0766 B( 28-C , 29-H ) :   0.9754
B( 28-C , 30-H ) :   0.9747 B( 28-C , 31-H ) :   0.9760

Dispersion correction           -0.013858496
FINAL SINGLE POINT ENERGY     -1339.874346674852

DIPOLE MOMENT
-------------
                                X             Y             Z
Electronic contribution:    -20.19804      24.36608     -10.31788
Nuclear contribution   :     20.50464     -24.80838      10.67924
                        -----------------------------------------
Total Dipole Moment    :      0.30659      -0.44229       0.36136
                        -----------------------------------------
Magnitude (a.u.)       :      0.64823
Magnitude (Debye)      :      1.64767

Rotational constants in cm-1:     0.017626     0.009120     0.006304
Rotational constants in MHz :   528.402779   273.411079   188.999706

                             ****ORCA TERMINATED NORMALLY****
TOTAL RUN TIME: 0 days 0 hours 0 minutes 20 seconds 269 msec
