                         Program Version 4.2.1 -  RELEASE  -
|  1> ! wB97X-D3 SP def2-SVP
|  2> %pal
|  3> nprocs 24
|  4> end
|  5>
|  6> * xyz 0 1
|  7> S 	 -38.4785 	 -48.171 	 -74.8248
|  8> C 	 -36.8841 	 -48.828 	 -75.0534
|  9> C 	 -35.9484 	 -47.9024 	 -75.54
| 10> C 	 -36.5779 	 -46.6285 	 -75.7863
| 11> C 	 -37.9298 	 -46.5979 	 -75.5112
| 12> H 	 -36.0668 	 -45.7512 	 -76.2062
| 13> C 	 -34.422 	 -48.0472 	 -75.7221
| 14> H 	 -34.2206 	 -47.7458 	 -76.7527
| 15> H 	 -34.1508 	 -49.1245 	 -75.5439
| 16> C 	 -33.6152 	 -47.1094 	 -74.877
| 17> H 	 -32.5743 	 -46.9144 	 -75.1102
| 18> H 	 -34.0495 	 -46.0319 	 -74.9524
| 19> C 	 -33.6006 	 -47.4373 	 -73.3393
| 20> H 	 -34.5968 	 -47.674 	 -73.0444
| 21> H 	 -32.963 	 -48.2805 	 -73.1533
| 22> H 	 -33.1733 	 -46.613 	 -72.7727
| 23> S 	 -39.1965 	 -44.6712 	 -74.0148
| 24> C 	 -39.6865 	 -43.267 	 -74.7897
| 25> C 	 -39.3766 	 -43.2597 	 -76.1046
| 26> C 	 -38.797 	 -44.4817 	 -76.5105
| 27> C 	 -38.6776 	 -45.3947 	 -75.5084
| 28> H 	 -39.6425 	 -42.3481 	 -76.6162
| 29> C 	 -38.4164 	 -44.7558 	 -77.9631
| 30> H 	 -37.5099 	 -45.3007 	 -78.0383
| 31> H 	 -38.2248 	 -43.8091 	 -78.4504
| 32> C 	 -39.4373 	 -45.5035 	 -78.7426
| 33> H 	 -40.3582 	 -44.9206 	 -78.531
| 34> H 	 -39.7131 	 -46.4153 	 -78.1828
| 35> C 	 -39.2175 	 -45.4854 	 -80.2722
| 36> H 	 -40.0621 	 -46.0787 	 -80.7383
| 37> H 	 -38.2611 	 -45.9478 	 -80.5091
| 38> H 	 -39.2809 	 -44.4601 	 -80.699
| 39> H 	 -36.6876 	 -49.825 	 -74.8599
| 40> H 	 -39.9973 	 -42.4469 	 -74.1658
| 41> *
| 42>
| 43>                          ****END OF INPUT****

CARTESIAN COORDINATES (ANGSTROEM)
---------------------------------
  S    -38.478500  -48.171000  -74.824800
  C    -36.884100  -48.828000  -75.053400
  C    -35.948400  -47.902400  -75.540000
  C    -36.577900  -46.628500  -75.786300
  C    -37.929800  -46.597900  -75.511200
  H    -36.066800  -45.751200  -76.206200
  C    -34.422000  -48.047200  -75.722100
  H    -34.220600  -47.745800  -76.752700
  H    -34.150800  -49.124500  -75.543900
  C    -33.615200  -47.109400  -74.877000
  H    -32.574300  -46.914400  -75.110200
  H    -34.049500  -46.031900  -74.952400
  C    -33.600600  -47.437300  -73.339300
  H    -34.596800  -47.674000  -73.044400
  H    -32.963000  -48.280500  -73.153300
  H    -33.173300  -46.613000  -72.772700
  S    -39.196500  -44.671200  -74.014800
  C    -39.686500  -43.267000  -74.789700
  C    -39.376600  -43.259700  -76.104600
  C    -38.797000  -44.481700  -76.510500
  C    -38.677600  -45.394700  -75.508400
  H    -39.642500  -42.348100  -76.616200
  C    -38.416400  -44.755800  -77.963100
  H    -37.509900  -45.300700  -78.038300
  H    -38.224800  -43.809100  -78.450400
  C    -39.437300  -45.503500  -78.742600
  H    -40.358200  -44.920600  -78.531000
  H    -39.713100  -46.415300  -78.182800
  C    -39.217500  -45.485400  -80.272200
  H    -40.062100  -46.078700  -80.738300
  H    -38.261100  -45.947800  -80.509100
  H    -39.280900  -44.460100  -80.699000
  H    -36.687600  -49.825000  -74.859900
  H    -39.997300  -42.446900  -74.165800

 Total Charge           Charge          ....    0
 Multiplicity           Mult            ....    1
 Number of Electrons    NEL             ....  134
 Basis Dimension        Dim             ....  322

ORBITAL ENERGIES
----------------

  NO   OCC          E(Eh)            E(eV)
   0   2.0000     -88.969145     -2420.9735
   1   2.0000     -88.959253     -2420.7043
   2   2.0000     -10.328612      -281.0558
   3   2.0000     -10.315750      -280.7058
   4   2.0000     -10.315137      -280.6892
   5   2.0000     -10.307898      -280.4922
   6   2.0000     -10.306777      -280.4617
   7   2.0000     -10.301676      -280.3229
   8   2.0000     -10.297733      -280.2156
   9   2.0000     -10.297137      -280.1993
  10   2.0000     -10.292120      -280.0628
  11   2.0000     -10.287631      -279.9407
  12   2.0000     -10.286111      -279.8993
  13   2.0000     -10.279468      -279.7185
  14   2.0000     -10.278321      -279.6873
  15   2.0000     -10.269825      -279.4561
  16   2.0000      -8.083207      -219.9552
  17   2.0000      -8.076327      -219.7680
  18   2.0000      -6.041778      -164.4052
  19   2.0000      -6.037855      -164.2984
  20   2.0000      -6.034516      -164.2075
  21   2.0000      -6.033914      -164.1911
  22   2.0000      -6.030506      -164.0984
  23   2.0000      -6.027275      -164.0105
  24   2.0000      -1.016811       -27.6688
  25   2.0000      -0.985376       -26.8134
  26   2.0000      -0.914276       -24.8787
  27   2.0000      -0.910418       -24.7737
  28   2.0000      -0.877161       -23.8688
  29   2.0000      -0.850291       -23.1376
  30   2.0000      -0.843329       -22.9481
  31   2.0000      -0.812523       -22.1099
  32   2.0000      -0.784410       -21.3449
  33   2.0000      -0.775153       -21.0930
  34   2.0000      -0.709332       -19.3019
  35   2.0000      -0.693690       -18.8763
  36   2.0000      -0.692480       -18.8433
  37   2.0000      -0.663482       -18.0543
  38   2.0000      -0.642137       -17.4734
  39   2.0000      -0.623187       -16.9578
  40   2.0000      -0.602832       -16.4039
  41   2.0000      -0.568244       -15.4627
  42   2.0000      -0.559196       -15.2165
  43   2.0000      -0.555237       -15.1088
  44   2.0000      -0.538734       -14.6597
  45   2.0000      -0.522178       -14.2092
  46   2.0000      -0.518029       -14.0963
  47   2.0000      -0.515249       -14.0206
  48   2.0000      -0.500553       -13.6207
  49   2.0000      -0.499745       -13.5988
  50   2.0000      -0.490694       -13.3525
  51   2.0000      -0.481905       -13.1133
  52   2.0000      -0.470832       -12.8120
  53   2.0000      -0.466943       -12.7062
  54   2.0000      -0.457305       -12.4439
  55   2.0000      -0.455023       -12.3818
  56   2.0000      -0.448069       -12.1926
  57   2.0000      -0.439114       -11.9489
  58   2.0000      -0.434350       -11.8193
  59   2.0000      -0.420551       -11.4438
  60   2.0000      -0.417942       -11.3728
  61   2.0000      -0.408800       -11.1240
  62   2.0000      -0.400629       -10.9017
  63   2.0000      -0.350104        -9.5268
  64   2.0000      -0.332611        -9.0508
  65   2.0000      -0.329081        -8.9548
  66   2.0000      -0.294314        -8.0087
  67   0.0000       0.034711         0.9445
  68   0.0000       0.066727         1.8157
  69   0.0000       0.115597         3.1456
  70   0.0000       0.119595         3.2543
  71   0.0000       0.129517         3.5243

MULLIKEN ATOMIC CHARGES
-----------------------
   0 S :    0.109074
   1 C :   -0.095951
   2 C :   -0.095034
   3 C :    0.016066
   4 C :   -0.176366
   5 H :    0.038478
   6 C :    0.110055
   7 H :    0.035039
   8 H :    0.032202
   9 C :   -0.129894
  10 H :    0.030168
  11 H :    0.034561
  12 C :   -0.038218
  13 H :    0.033781
  14 H :    0.020908
  15 H :    0.034537
  16 S :    0.110635
  17 C :   -0.098269
  18 C :   -0.033835
  19 C :   -0.055619
  20 C :   -0.135772
  21 H :    0.015134
  22 C :    0.122730
  23 H :   -0.002649
  24 H :    0.000536
  25 C :   -0.081998
  26 H :    0.010970
  27 H :    0.030889
  28 C :   -0.046054
  29 H :    0.047699
  30 H :    0.036532
  31 H :    0.041781
  32 H :    0.022225
  33 H :    0.055660
Sum of atomic charges:   -0.0000000

LOEWDIN ATOMIC CHARGES
----------------------
   0 S :    0.388703
   1 C :   -0.185627
   2 C :   -0.060369
   3 C :   -0.049659
   4 C :   -0.184766
   5 H :    0.036058
   6 C :   -0.031763
   7 H :    0.036776
   8 H :    0.034561
   9 C :   -0.051395
  10 H :    0.022118
  11 H :    0.031229
  12 C :   -0.060267
  13 H :    0.020366
  14 H :    0.018717
  15 H :    0.027091
  16 S :    0.436912
  17 C :   -0.198049
  18 C :   -0.078248
  19 C :   -0.051223
  20 C :   -0.211623
  21 H :    0.034860
  22 C :   -0.029991
  23 H :    0.017593
  24 H :    0.024706
  25 C :   -0.052000
  26 H :    0.024085
  27 H :    0.028783
  28 C :   -0.066009
  29 H :    0.036829
  30 H :    0.022724
  31 H :    0.031106
  32 H :    0.011290
  33 H :    0.026483

  Mayer bond orders larger than 0.100000
B(  0-S ,  1-C ) :   1.1419 B(  0-S ,  4-C ) :   1.1211 B(  1-C ,  2-C ) :   1.6113
B(  1-C , 32-H ) :   0.9757 B(  2-C ,  3-C ) :   1.2283 B(  2-C ,  6-C ) :   1.0207
B(  3-C ,  4-C ) :   1.6021 B(  3-C ,  5-H ) :   0.9764 B(  4-C , 20-C ) :   1.0555
B(  6-C ,  7-H ) :   0.9309 B(  6-C ,  8-H ) :   0.9470 B(  6-C ,  9-C ) :   1.0640
B(  9-C , 10-H ) :   0.9595 B(  9-C , 11-H ) :   0.9539 B(  9-C , 12-C ) :   1.0686
B( 12-C , 13-H ) :   0.9805 B( 12-C , 14-H ) :   0.9762 B( 12-C , 15-H ) :   0.9750
B( 16-S , 17-C ) :   1.1905 B( 16-S , 20-C ) :   1.1462 B( 17-C , 18-C ) :   1.5867
B( 17-C , 33-H ) :   0.9666 B( 18-C , 19-C ) :   1.2383 B( 18-C , 21-H ) :   1.0061
B( 19-C , 20-C ) :   1.5937 B( 19-C , 22-C ) :   1.0475 B( 22-C , 23-H ) :   0.9171
B( 22-C , 24-H ) :   0.9274 B( 22-C , 25-C ) :   1.0774 B( 25-C , 26-H ) :   0.9478
B( 25-C , 27-H ) :   0.9534 B( 25-C , 28-C ) :   1.0676 B( 28-C , 29-H ) :   0.9739
B( 28-C , 30-H ) :   0.9773 B( 28-C , 31-H ) :   0.9722

Dispersion correction           -0.014569640
FINAL SINGLE POINT ENERGY     -1339.878304178194

DIPOLE MOMENT
-------------
                                X             Y             Z
Electronic contribution:    -15.13752      -0.65333      14.20448
Nuclear contribution   :     15.61559       0.93385     -14.50076
                        -----------------------------------------
Total Dipole Moment    :      0.47807       0.28053      -0.29628
                        -----------------------------------------
Magnitude (a.u.)       :      0.62851
Magnitude (Debye)      :      1.59755

Rotational constants in cm-1:     0.017569     0.008881     0.007647
Rotational constants in MHz :   526.711329   266.252582   229.262637

                             ****ORCA TERMINATED NORMALLY****
TOTAL RUN TIME: 0 days 0 hours 0 minutes 22 seconds 168 msec
