                         Program Version 4.2.1 -  RELEASE  -
|  1> ! wB97X-D3 SP def2-SVP
|  2> %pal
|  3> nprocs 24
|  4> end
|  5>
|  6> * xyz 0 1
|  7> S 	 -137.236 	 2.80257 	 5.0088
|  8> C 	 -136.428 	 1.42151 	 4.25461
|  9> C 	 -135.293 	 1.77237 	 3.59275
| 10> C 	 -135.009 	 3.17057 	 3.73224
| 11> C 	 -135.891 	 3.86825 	 4.47914
| 12> H 	 -134.156 	 3.65763 	 3.32226
| 13> C 	 -134.405 	 0.856959 	 2.85838
| 14> H 	 -134.274 	 -0.0943513 	 3.37727
| 15> H 	 -133.392 	 1.34634 	 2.6722
| 16> C 	 -134.873 	 0.495223 	 1.46464
| 17> H 	 -133.942 	 0.0897719 	 1.01651
| 18> H 	 -135.675 	 -0.259331 	 1.47771
| 19> C 	 -135.305 	 1.62608 	 0.446288
| 20> H 	 -136.126 	 2.29052 	 0.768077
| 21> H 	 -134.452 	 2.21188 	 0.0536768
| 22> H 	 -135.719 	 1.23139 	 -0.491414
| 23> S 	 -136.024 	 6.37089 	 3.40028
| 24> C 	 -135.779 	 7.74719 	 4.38304
| 25> C 	 -135.474 	 7.41597 	 5.67895
| 26> C 	 -135.621 	 5.98976 	 5.9296
| 27> C 	 -135.873 	 5.29307 	 4.72382
| 28> H 	 -135.221 	 8.2138 	 6.35312
| 29> C 	 -135.449 	 5.37302 	 7.23656
| 30> H 	 -135.483 	 4.2303 	 7.25873
| 31> H 	 -136.12 	 5.8433 	 7.96432
| 32> C 	 -134.033 	 5.57213 	 7.85188
| 33> H 	 -133.975 	 5.3535 	 8.9132
| 34> H 	 -133.856 	 6.69389 	 7.73287
| 35> C 	 -132.913 	 4.89623 	 7.14198
| 36> H 	 -132.68 	 3.88693 	 7.57719
| 37> H 	 -131.945 	 5.42135 	 7.09084
| 38> H 	 -133.28 	 4.72265 	 6.16149
| 39> H 	 -136.732 	 0.434052 	 4.38441
| 40> H 	 -135.829 	 8.78218 	 3.97011
| 41> *
| 42>
| 43>                          ****END OF INPUT****

CARTESIAN COORDINATES (ANGSTROEM)
---------------------------------
  S    -137.236000    2.802570    5.008800
  C    -136.428000    1.421510    4.254610
  C    -135.293000    1.772370    3.592750
  C    -135.009000    3.170570    3.732240
  C    -135.891000    3.868250    4.479140
  H    -134.156000    3.657630    3.322260
  C    -134.405000    0.856959    2.858380
  H    -134.274000   -0.094351    3.377270
  H    -133.392000    1.346340    2.672200
  C    -134.873000    0.495223    1.464640
  H    -133.942000    0.089772    1.016510
  H    -135.675000   -0.259331    1.477710
  C    -135.305000    1.626080    0.446288
  H    -136.126000    2.290520    0.768077
  H    -134.452000    2.211880    0.053677
  H    -135.719000    1.231390   -0.491414
  S    -136.024000    6.370890    3.400280
  C    -135.779000    7.747190    4.383040
  C    -135.474000    7.415970    5.678950
  C    -135.621000    5.989760    5.929600
  C    -135.873000    5.293070    4.723820
  H    -135.221000    8.213800    6.353120
  C    -135.449000    5.373020    7.236560
  H    -135.483000    4.230300    7.258730
  H    -136.120000    5.843300    7.964320
  C    -134.033000    5.572130    7.851880
  H    -133.975000    5.353500    8.913200
  H    -133.856000    6.693890    7.732870
  C    -132.913000    4.896230    7.141980
  H    -132.680000    3.886930    7.577190
  H    -131.945000    5.421350    7.090840
  H    -133.280000    4.722650    6.161490
  H    -136.732000    0.434052    4.384410
  H    -135.829000    8.782180    3.970110

 Total Charge           Charge          ....    0
 Multiplicity           Mult            ....    1
 Number of Electrons    NEL             ....  134
 Basis Dimension        Dim             ....  322

ORBITAL ENERGIES
----------------

  NO   OCC          E(Eh)            E(eV)
   0   2.0000     -88.965891     -2420.8850
   1   2.0000     -88.963004     -2420.8064
   2   2.0000     -10.326849      -281.0078
   3   2.0000     -10.323705      -280.9223
   4   2.0000     -10.318142      -280.7709
   5   2.0000     -10.308319      -280.5036
   6   2.0000     -10.307572      -280.4833
   7   2.0000     -10.296331      -280.1774
   8   2.0000     -10.294649      -280.1317
   9   2.0000     -10.294296      -280.1220
  10   2.0000     -10.292362      -280.0694
  11   2.0000     -10.291920      -280.0574
  12   2.0000     -10.288670      -279.9689
  13   2.0000     -10.283179      -279.8195
  14   2.0000     -10.280627      -279.7501
  15   2.0000     -10.267903      -279.4038
  16   2.0000      -8.082001      -219.9224
  17   2.0000      -8.076826      -219.7816
  18   2.0000      -6.040339      -164.3660
  19   2.0000      -6.036195      -164.2532
  20   2.0000      -6.035479      -164.2337
  21   2.0000      -6.032979      -164.1657
  22   2.0000      -6.031586      -164.1278
  23   2.0000      -6.027363      -164.0129
  24   2.0000      -1.010198       -27.4889
  25   2.0000      -0.986398       -26.8413
  26   2.0000      -0.915090       -24.9009
  27   2.0000      -0.912689       -24.8355
  28   2.0000      -0.871331       -23.7101
  29   2.0000      -0.850186       -23.1347
  30   2.0000      -0.841107       -22.8877
  31   2.0000      -0.817687       -22.2504
  32   2.0000      -0.785011       -21.3612
  33   2.0000      -0.772024       -21.0079
  34   2.0000      -0.705973       -19.2105
  35   2.0000      -0.697497       -18.9799
  36   2.0000      -0.688502       -18.7351
  37   2.0000      -0.655440       -17.8354
  38   2.0000      -0.642111       -17.4727
  39   2.0000      -0.617060       -16.7911
  40   2.0000      -0.598969       -16.2988
  41   2.0000      -0.577563       -15.7163
  42   2.0000      -0.562615       -15.3095
  43   2.0000      -0.551372       -15.0036
  44   2.0000      -0.541913       -14.7462
  45   2.0000      -0.535349       -14.5676
  46   2.0000      -0.514010       -13.9869
  47   2.0000      -0.507972       -13.8226
  48   2.0000      -0.502945       -13.6858
  49   2.0000      -0.497500       -13.5377
  50   2.0000      -0.492342       -13.3973
  51   2.0000      -0.473295       -12.8790
  52   2.0000      -0.468519       -12.7490
  53   2.0000      -0.464683       -12.6447
  54   2.0000      -0.459558       -12.5052
  55   2.0000      -0.446105       -12.1391
  56   2.0000      -0.443845       -12.0776
  57   2.0000      -0.440275       -11.9805
  58   2.0000      -0.437809       -11.9134
  59   2.0000      -0.419166       -11.4061
  60   2.0000      -0.416156       -11.3242
  61   2.0000      -0.412776       -11.2322
  62   2.0000      -0.395225       -10.7546
  63   2.0000      -0.338997        -9.2246
  64   2.0000      -0.334337        -9.0978
  65   2.0000      -0.324165        -8.8210
  66   2.0000      -0.301443        -8.2027
  67   0.0000       0.039618         1.0780
  68   0.0000       0.065192         1.7740
  69   0.0000       0.106835         2.9071
  70   0.0000       0.119752         3.2586
  71   0.0000       0.122722         3.3394

MULLIKEN ATOMIC CHARGES
-----------------------
   0 S :    0.100491
   1 C :   -0.105205
   2 C :   -0.056853
   3 C :    0.036849
   4 C :   -0.156848
   5 H :    0.000750
   6 C :    0.071551
   7 H :    0.034422
   8 H :    0.028890
   9 C :   -0.092188
  10 H :    0.034316
  11 H :    0.035736
  12 C :   -0.081328
  13 H :    0.049788
  14 H :    0.030551
  15 H :    0.026313
  16 S :    0.132971
  17 C :   -0.113041
  18 C :   -0.034252
  19 C :   -0.008782
  20 C :   -0.171416
  21 H :    0.022464
  22 C :    0.051510
  23 H :    0.045089
  24 H :    0.038983
  25 C :   -0.120101
  26 H :    0.032740
  27 H :    0.022951
  28 C :   -0.032989
  29 H :    0.028292
  30 H :    0.039119
  31 H :    0.015855
  32 H :    0.019473
  33 H :    0.073900
Sum of atomic charges:    0.0000000

LOEWDIN ATOMIC CHARGES
----------------------
   0 S :    0.373734
   1 C :   -0.173934
   2 C :   -0.066088
   3 C :   -0.054444
   4 C :   -0.179460
   5 H :    0.027223
   6 C :   -0.038361
   7 H :    0.037104
   8 H :    0.038273
   9 C :   -0.040328
  10 H :    0.029923
  11 H :    0.022060
  12 C :   -0.081208
  13 H :    0.028835
  14 H :    0.025510
  15 H :    0.028505
  16 S :    0.444351
  17 C :   -0.201235
  18 C :   -0.072932
  19 C :   -0.051313
  20 C :   -0.219986
  21 H :    0.031334
  22 C :   -0.042371
  23 H :    0.039132
  24 H :    0.038914
  25 C :   -0.047611
  26 H :    0.021016
  27 H :    0.023338
  28 C :   -0.072278
  29 H :    0.028311
  30 H :    0.029936
  31 H :    0.020577
  32 H :    0.014569
  33 H :    0.038904

  Mayer bond orders larger than 0.100000
B(  0-S ,  1-C ) :   1.1229 B(  0-S ,  4-C ) :   1.1169 B(  1-C ,  2-C ) :   1.6354
B(  1-C , 32-H ) :   0.9749 B(  2-C ,  3-C ) :   1.2033 B(  2-C ,  6-C ) :   1.0341
B(  3-C ,  4-C ) :   1.6237 B(  3-C ,  5-H ) :   1.0002 B(  4-C , 20-C ) :   1.0275
B(  6-C ,  7-H ) :   0.9335 B(  6-C ,  8-H ) :   0.9405 B(  6-C ,  9-C ) :   1.0708
B(  9-C , 10-H ) :   0.9601 B(  9-C , 11-H ) :   0.9596 B(  9-C , 12-C ) :   1.0724
B( 12-C , 13-H ) :   0.9733 B( 12-C , 14-H ) :   0.9768 B( 12-C , 15-H ) :   0.9735
B( 16-S , 17-C ) :   1.1749 B( 16-S , 20-C ) :   1.1646 B( 17-C , 18-C ) :   1.6015
B( 17-C , 33-H ) :   0.9616 B( 18-C , 19-C ) :   1.2275 B( 18-C , 21-H ) :   0.9928
B( 19-C , 20-C ) :   1.5483 B( 19-C , 22-C ) :   1.0780 B( 22-C , 23-H ) :   0.9355
B( 22-C , 24-H ) :   0.9203 B( 22-C , 25-C ) :   1.0654 B( 25-C , 26-H ) :   0.9597
B( 25-C , 27-H ) :   0.9567 B( 25-C , 28-C ) :   1.0702 B( 28-C , 29-H ) :   0.9708
B( 28-C , 30-H ) :   0.9733 B( 28-C , 31-H ) :   0.9757

Dispersion correction           -0.015267167
FINAL SINGLE POINT ENERGY     -1339.881166397383

DIPOLE MOMENT
-------------
                                X             Y             Z
Electronic contribution:    -14.80156       9.02246       0.52481
Nuclear contribution   :     15.22951      -9.07225      -0.55075
                        -----------------------------------------
Total Dipole Moment    :      0.42795      -0.04978      -0.02593
                        -----------------------------------------
Magnitude (a.u.)       :      0.43161
Magnitude (Debye)      :      1.09707

Rotational constants in cm-1:     0.020965     0.008595     0.007584
Rotational constants in MHz :   628.522390   257.682391   227.368489

                             ****ORCA TERMINATED NORMALLY****
TOTAL RUN TIME: 0 days 0 hours 0 minutes 22 seconds 317 msec
