                         Program Version 4.2.1 -  RELEASE  -
|  1> ! wB97X-D3 SP def2-SVP
|  2> %pal
|  3> nprocs 24
|  4> end
|  5>
|  6> * xyz 0 1
|  7> S 	 -110.431 	 53.7242 	 -74.9236
|  8> C 	 -110.856 	 53.0115 	 -76.49
|  9> C 	 -111.496 	 53.9635 	 -77.2738
| 10> C 	 -111.3 	 55.2649 	 -76.7745
| 11> C 	 -110.953 	 55.3371 	 -75.4444
| 12> H 	 -111.465 	 56.1772 	 -77.3389
| 13> C 	 -111.978 	 53.6757 	 -78.7671
| 14> H 	 -112.961 	 53.3629 	 -78.6407
| 15> H 	 -111.561 	 52.7715 	 -79.1797
| 16> C 	 -111.848 	 54.7245 	 -79.8781
| 17> H 	 -112.278 	 54.3182 	 -80.8034
| 18> H 	 -112.524 	 55.5557 	 -79.6338
| 19> C 	 -110.482 	 55.3642 	 -80.0244
| 20> H 	 -110.172 	 55.8862 	 -79.1953
| 21> H 	 -109.683 	 54.6337 	 -80.1184
| 22> H 	 -110.515 	 56.0977 	 -80.8396
| 23> S 	 -109.422 	 56.441 	 -73.6103
| 24> C 	 -109.77 	 57.9942 	 -72.9457
| 25> C 	 -110.981 	 58.5008 	 -73.4868
| 26> C 	 -111.625 	 57.601 	 -74.3622
| 27> C 	 -110.868 	 56.5014 	 -74.5858
| 28> H 	 -111.41 	 59.485 	 -73.2552
| 29> C 	 -112.984 	 57.7626 	 -74.9173
| 30> H 	 -113.377 	 56.906 	 -75.5486
| 31> H 	 -112.806 	 58.5682 	 -75.6721
| 32> C 	 -114.183 	 58.2183 	 -74.022
| 33> H 	 -114.044 	 59.2252 	 -73.6941
| 34> H 	 -114.041 	 57.61 	 -73.1478
| 35> C 	 -115.621 	 58.1361 	 -74.675
| 36> H 	 -115.642 	 58.8693 	 -75.4724
| 37> H 	 -116.382 	 58.3555 	 -73.9803
| 38> H 	 -115.697 	 57.0844 	 -75.0462
| 39> H 	 -110.692 	 51.9596 	 -76.6137
| 40> H 	 -109.128 	 58.5206 	 -72.2495
| 41> *
| 42>
| 43>                          ****END OF INPUT****

CARTESIAN COORDINATES (ANGSTROEM)
---------------------------------
  S    -110.431000   53.724200  -74.923600
  C    -110.856000   53.011500  -76.490000
  C    -111.496000   53.963500  -77.273800
  C    -111.300000   55.264900  -76.774500
  C    -110.953000   55.337100  -75.444400
  H    -111.465000   56.177200  -77.338900
  C    -111.978000   53.675700  -78.767100
  H    -112.961000   53.362900  -78.640700
  H    -111.561000   52.771500  -79.179700
  C    -111.848000   54.724500  -79.878100
  H    -112.278000   54.318200  -80.803400
  H    -112.524000   55.555700  -79.633800
  C    -110.482000   55.364200  -80.024400
  H    -110.172000   55.886200  -79.195300
  H    -109.683000   54.633700  -80.118400
  H    -110.515000   56.097700  -80.839600
  S    -109.422000   56.441000  -73.610300
  C    -109.770000   57.994200  -72.945700
  C    -110.981000   58.500800  -73.486800
  C    -111.625000   57.601000  -74.362200
  C    -110.868000   56.501400  -74.585800
  H    -111.410000   59.485000  -73.255200
  C    -112.984000   57.762600  -74.917300
  H    -113.377000   56.906000  -75.548600
  H    -112.806000   58.568200  -75.672100
  C    -114.183000   58.218300  -74.022000
  H    -114.044000   59.225200  -73.694100
  H    -114.041000   57.610000  -73.147800
  C    -115.621000   58.136100  -74.675000
  H    -115.642000   58.869300  -75.472400
  H    -116.382000   58.355500  -73.980300
  H    -115.697000   57.084400  -75.046200
  H    -110.692000   51.959600  -76.613700
  H    -109.128000   58.520600  -72.249500

 Total Charge           Charge          ....    0
 Multiplicity           Mult            ....    1
 Number of Electrons    NEL             ....  134
 Basis Dimension        Dim             ....  322

ORBITAL ENERGIES
----------------

  NO   OCC          E(Eh)            E(eV)
   0   2.0000     -88.965059     -2420.8623
   1   2.0000     -88.962171     -2420.7837
   2   2.0000     -10.328409      -281.0503
   3   2.0000     -10.321903      -280.8732
   4   2.0000     -10.320765      -280.8423
   5   2.0000     -10.316426      -280.7242
   6   2.0000     -10.307374      -280.4779
   7   2.0000     -10.301387      -280.3150
   8   2.0000     -10.299352      -280.2596
   9   2.0000     -10.296572      -280.1840
  10   2.0000     -10.291235      -280.0388
  11   2.0000     -10.288792      -279.9723
  12   2.0000     -10.288635      -279.9680
  13   2.0000     -10.286382      -279.9067
  14   2.0000     -10.284054      -279.8433
  15   2.0000     -10.268915      -279.4314
  16   2.0000      -8.080534      -219.8825
  17   2.0000      -8.076459      -219.7716
  18   2.0000      -6.038897      -164.3267
  19   2.0000      -6.035030      -164.2215
  20   2.0000      -6.034866      -164.2170
  21   2.0000      -6.031456      -164.1243
  22   2.0000      -6.030994      -164.1117
  23   2.0000      -6.027222      -164.0091
  24   2.0000      -1.011849       -27.5338
  25   2.0000      -0.984298       -26.7841
  26   2.0000      -0.908790       -24.7294
  27   2.0000      -0.906342       -24.6628
  28   2.0000      -0.869387       -23.6572
  29   2.0000      -0.856978       -23.3195
  30   2.0000      -0.840489       -22.8709
  31   2.0000      -0.814459       -22.1625
  32   2.0000      -0.786913       -21.4130
  33   2.0000      -0.776554       -21.1311
  34   2.0000      -0.709005       -19.2930
  35   2.0000      -0.700552       -19.0630
  36   2.0000      -0.694663       -18.9027
  37   2.0000      -0.664005       -18.0685
  38   2.0000      -0.644534       -17.5387
  39   2.0000      -0.622975       -16.9520
  40   2.0000      -0.600683       -16.3454
  41   2.0000      -0.565606       -15.3909
  42   2.0000      -0.560318       -15.2470
  43   2.0000      -0.550291       -14.9742
  44   2.0000      -0.534319       -14.5396
  45   2.0000      -0.525109       -14.2889
  46   2.0000      -0.520254       -14.1568
  47   2.0000      -0.517815       -14.0905
  48   2.0000      -0.505762       -13.7625
  49   2.0000      -0.502249       -13.6669
  50   2.0000      -0.489504       -13.3201
  51   2.0000      -0.480630       -13.0786
  52   2.0000      -0.477020       -12.9804
  53   2.0000      -0.469650       -12.7798
  54   2.0000      -0.457931       -12.4609
  55   2.0000      -0.455931       -12.4065
  56   2.0000      -0.444613       -12.0985
  57   2.0000      -0.435485       -11.8501
  58   2.0000      -0.428466       -11.6592
  59   2.0000      -0.422672       -11.5015
  60   2.0000      -0.419711       -11.4209
  61   2.0000      -0.412811       -11.2332
  62   2.0000      -0.411462       -11.1965
  63   2.0000      -0.347624        -9.4593
  64   2.0000      -0.331220        -9.0130
  65   2.0000      -0.330572        -8.9953
  66   2.0000      -0.285105        -7.7581
  67   0.0000       0.025062         0.6820
  68   0.0000       0.073411         1.9976
  69   0.0000       0.104624         2.8470
  70   0.0000       0.121160         3.2969
  71   0.0000       0.136276         3.7082

MULLIKEN ATOMIC CHARGES
-----------------------
   0 S :    0.087332
   1 C :   -0.135599
   2 C :   -0.066134
   3 C :    0.005470
   4 C :   -0.122100
   5 H :    0.021520
   6 C :    0.083072
   7 H :    0.015380
   8 H :    0.012979
   9 C :   -0.081986
  10 H :    0.032732
  11 H :    0.019717
  12 C :   -0.004158
  13 H :    0.005185
  14 H :    0.025062
  15 H :    0.033856
  16 S :    0.107412
  17 C :   -0.084167
  18 C :   -0.052444
  19 C :    0.006260
  20 C :   -0.171455
  21 H :    0.022544
  22 C :   -0.001159
  23 H :    0.040006
  24 H :    0.032844
  25 C :   -0.078602
  26 H :    0.017520
  27 H :    0.032622
  28 C :   -0.036876
  29 H :    0.034500
  30 H :    0.037323
  31 H :    0.044283
  32 H :    0.055744
  33 H :    0.061315
Sum of atomic charges:   -0.0000000

LOEWDIN ATOMIC CHARGES
----------------------
   0 S :    0.376905
   1 C :   -0.181746
   2 C :   -0.058277
   3 C :   -0.072640
   4 C :   -0.186075
   5 H :    0.030904
   6 C :   -0.028400
   7 H :    0.025065
   8 H :    0.027137
   9 C :   -0.043970
  10 H :    0.030379
  11 H :    0.021865
  12 C :   -0.059462
  13 H :    0.014212
  14 H :    0.026298
  15 H :    0.030955
  16 S :    0.423096
  17 C :   -0.189299
  18 C :   -0.070095
  19 C :   -0.062643
  20 C :   -0.194829
  21 H :    0.033107
  22 C :   -0.043270
  23 H :    0.037409
  24 H :    0.035910
  25 C :   -0.038301
  26 H :    0.014570
  27 H :    0.021321
  28 C :   -0.054225
  29 H :    0.025610
  30 H :    0.022836
  31 H :    0.032296
  32 H :    0.024102
  33 H :    0.029255

  Mayer bond orders larger than 0.100000
B(  0-S ,  1-C ) :   1.1368 B(  0-S ,  4-C ) :   1.1418 B(  1-C ,  2-C ) :   1.5873
B(  1-C ,  4-C ) :   0.1092 B(  1-C , 32-H ) :   0.9771 B(  2-C ,  3-C ) :   1.2498
B(  2-C ,  6-C ) :   0.9897 B(  3-C ,  4-C ) :   1.5783 B(  3-C ,  5-H ) :   0.9812
B(  4-C , 20-C ) :   1.0458 B(  6-C ,  7-H ) :   0.9293 B(  6-C ,  8-H ) :   0.9496
B(  6-C ,  9-C ) :   1.0873 B(  9-C , 10-H ) :   0.9517 B(  9-C , 11-H ) :   0.9477
B(  9-C , 12-C ) :   1.0826 B( 12-C , 13-H ) :   0.9684 B( 12-C , 14-H ) :   0.9722
B( 12-C , 15-H ) :   0.9715 B( 16-S , 17-C ) :   1.1740 B( 16-S , 20-C ) :   1.1401
B( 17-C , 18-C ) :   1.5656 B( 17-C , 20-C ) :   0.1031 B( 17-C , 33-H ) :   0.9732
B( 18-C , 19-C ) :   1.2468 B( 18-C , 21-H ) :   0.9875 B( 19-C , 20-C ) :   1.5991
B( 19-C , 22-C ) :   1.0446 B( 22-C , 23-H ) :   0.9414 B( 22-C , 24-H ) :   0.9202
B( 22-C , 25-C ) :   1.0498 B( 25-C , 26-H ) :   0.9502 B( 25-C , 27-H ) :   0.9635
B( 25-C , 28-C ) :   1.0791 B( 28-C , 29-H ) :   0.9777 B( 28-C , 30-H ) :   0.9756
B( 28-C , 31-H ) :   0.9769

Dispersion correction           -0.013970170
FINAL SINGLE POINT ENERGY     -1339.861471868414

DIPOLE MOMENT
-------------
                                X             Y             Z
Electronic contribution:     18.37011      -8.42768      18.30415
Nuclear contribution   :    -18.81359       8.77672     -18.67244
                        -----------------------------------------
Total Dipole Moment    :     -0.44348       0.34904      -0.36829
                        -----------------------------------------
Magnitude (a.u.)       :      0.67390
Magnitude (Debye)      :      1.71293

Rotational constants in cm-1:     0.016051     0.009185     0.007090
Rotational constants in MHz :   481.191393   275.355195   212.546105

                             ****ORCA TERMINATED NORMALLY****
TOTAL RUN TIME: 0 days 0 hours 0 minutes 20 seconds 801 msec
