                         Program Version 4.2.1 -  RELEASE  -
|  1> ! wB97X-D3 SP def2-SVP
|  2> %pal
|  3> nprocs 24
|  4> end
|  5>
|  6> * xyz 0 1
|  7> S 	 -99.9635 	 9.13157 	 1.29719
|  8> C 	 -100.649 	 8.73555 	 -0.277603
|  9> C 	 -99.6859 	 8.60756 	 -1.24328
| 10> C 	 -98.3903 	 8.51138 	 -0.598106
| 11> C 	 -98.3697 	 8.66802 	 0.767852
| 12> H 	 -97.4191 	 8.37331 	 -1.07687
| 13> C 	 -99.8917 	 8.46381 	 -2.74755
| 14> H 	 -100.952 	 8.4469 	 -3.05993
| 15> H 	 -99.489 	 7.52609 	 -3.11872
| 16> C 	 -99.447 	 9.6215 	 -3.60903
| 17> H 	 -100.208 	 10.4413 	 -3.3814
| 18> H 	 -98.5217 	 10.0169 	 -3.20176
| 19> C 	 -99.356 	 9.41934 	 -5.10182
| 20> H 	 -100.23 	 8.959 	 -5.52202
| 21> H 	 -99.2068 	 10.38 	 -5.53856
| 22> H 	 -98.4021 	 8.88429 	 -5.37648
| 23> S 	 -97.0478 	 7.33126 	 2.75681
| 24> C 	 -95.4756 	 7.91039 	 3.30009
| 25> C 	 -95.112 	 9.05794 	 2.59503
| 26> C 	 -96.1113 	 9.45145 	 1.60616
| 27> C 	 -97.2256 	 8.60241 	 1.60681
| 28> H 	 -94.076 	 9.4576 	 2.70887
| 29> C 	 -95.9647 	 10.7139 	 0.826161
| 30> H 	 -96.6718 	 10.7047 	 0.0185395
| 31> H 	 -94.985 	 10.7403 	 0.468441
| 32> C 	 -96.0668 	 12.0357 	 1.61472
| 33> H 	 -96.3082 	 12.8252 	 0.880717
| 34> H 	 -95.1329 	 12.2719 	 2.05328
| 35> C 	 -97.1777 	 12.0171 	 2.61061
| 36> H 	 -97.3621 	 12.9861 	 3.01394
| 37> H 	 -97.0206 	 11.3472 	 3.42479
| 38> H 	 -98.0607 	 11.708 	 2.11022
| 39> H 	 -101.676 	 8.81204 	 -0.529963
| 40> H 	 -94.8716 	 7.33962 	 4.03659
| 41> *
| 42>
| 43>                          ****END OF INPUT****

CARTESIAN COORDINATES (ANGSTROEM)
---------------------------------
  S    -99.963500    9.131570    1.297190
  C    -100.649000    8.735550   -0.277603
  C    -99.685900    8.607560   -1.243280
  C    -98.390300    8.511380   -0.598106
  C    -98.369700    8.668020    0.767852
  H    -97.419100    8.373310   -1.076870
  C    -99.891700    8.463810   -2.747550
  H    -100.952000    8.446900   -3.059930
  H    -99.489000    7.526090   -3.118720
  C    -99.447000    9.621500   -3.609030
  H    -100.208000   10.441300   -3.381400
  H    -98.521700   10.016900   -3.201760
  C    -99.356000    9.419340   -5.101820
  H    -100.230000    8.959000   -5.522020
  H    -99.206800   10.380000   -5.538560
  H    -98.402100    8.884290   -5.376480
  S    -97.047800    7.331260    2.756810
  C    -95.475600    7.910390    3.300090
  C    -95.112000    9.057940    2.595030
  C    -96.111300    9.451450    1.606160
  C    -97.225600    8.602410    1.606810
  H    -94.076000    9.457600    2.708870
  C    -95.964700   10.713900    0.826161
  H    -96.671800   10.704700    0.018540
  H    -94.985000   10.740300    0.468441
  C    -96.066800   12.035700    1.614720
  H    -96.308200   12.825200    0.880717
  H    -95.132900   12.271900    2.053280
  C    -97.177700   12.017100    2.610610
  H    -97.362100   12.986100    3.013940
  H    -97.020600   11.347200    3.424790
  H    -98.060700   11.708000    2.110220
  H    -101.676000    8.812040   -0.529963
  H    -94.871600    7.339620    4.036590

 Total Charge           Charge          ....    0
 Multiplicity           Mult            ....    1
 Number of Electrons    NEL             ....  134
 Basis Dimension        Dim             ....  322

ORBITAL ENERGIES
----------------

  NO   OCC          E(Eh)            E(eV)
   0   2.0000     -88.965180     -2420.8656
   1   2.0000     -88.964968     -2420.8599
   2   2.0000     -10.325150      -280.9616
   3   2.0000     -10.324333      -280.9394
   4   2.0000     -10.322286      -280.8837
   5   2.0000     -10.313151      -280.6351
   6   2.0000     -10.305952      -280.4392
   7   2.0000     -10.305579      -280.4291
   8   2.0000     -10.302376      -280.3419
   9   2.0000     -10.295006      -280.1414
  10   2.0000     -10.293149      -280.0908
  11   2.0000     -10.287463      -279.9361
  12   2.0000     -10.280689      -279.7518
  13   2.0000     -10.278644      -279.6961
  14   2.0000     -10.277111      -279.6544
  15   2.0000     -10.256254      -279.0868
  16   2.0000      -8.080033      -219.8689
  17   2.0000      -8.079752      -219.8612
  18   2.0000      -6.038480      -164.3154
  19   2.0000      -6.038350      -164.3119
  20   2.0000      -6.034380      -164.2038
  21   2.0000      -6.034348      -164.2030
  22   2.0000      -6.030979      -164.1113
  23   2.0000      -6.030328      -164.0936
  24   2.0000      -1.008677       -27.4475
  25   2.0000      -0.983301       -26.7570
  26   2.0000      -0.916164       -24.9301
  27   2.0000      -0.914218       -24.8771
  28   2.0000      -0.875433       -23.8218
  29   2.0000      -0.849017       -23.1029
  30   2.0000      -0.844896       -22.9908
  31   2.0000      -0.814186       -22.1551
  32   2.0000      -0.788924       -21.4677
  33   2.0000      -0.777013       -21.1436
  34   2.0000      -0.708432       -19.2774
  35   2.0000      -0.692935       -18.8557
  36   2.0000      -0.691930       -18.8284
  37   2.0000      -0.656536       -17.8653
  38   2.0000      -0.646664       -17.5966
  39   2.0000      -0.618917       -16.8416
  40   2.0000      -0.594526       -16.1779
  41   2.0000      -0.569441       -15.4953
  42   2.0000      -0.563974       -15.3465
  43   2.0000      -0.561458       -15.2780
  44   2.0000      -0.546721       -14.8770
  45   2.0000      -0.524902       -14.2833
  46   2.0000      -0.521925       -14.2023
  47   2.0000      -0.512005       -13.9324
  48   2.0000      -0.504538       -13.7292
  49   2.0000      -0.501151       -13.6370
  50   2.0000      -0.494518       -13.4565
  51   2.0000      -0.483827       -13.1656
  52   2.0000      -0.469679       -12.7806
  53   2.0000      -0.464309       -12.6345
  54   2.0000      -0.461035       -12.5454
  55   2.0000      -0.452296       -12.3076
  56   2.0000      -0.443539       -12.0693
  57   2.0000      -0.429075       -11.6757
  58   2.0000      -0.428189       -11.6516
  59   2.0000      -0.424509       -11.5515
  60   2.0000      -0.424327       -11.5465
  61   2.0000      -0.415687       -11.3114
  62   2.0000      -0.407495       -11.0885
  63   2.0000      -0.337466        -9.1829
  64   2.0000      -0.330085        -8.9821
  65   2.0000      -0.325312        -8.8522
  66   2.0000      -0.303962        -8.2712
  67   0.0000       0.036373         0.9897
  68   0.0000       0.062420         1.6985
  69   0.0000       0.107202         2.9171
  70   0.0000       0.118079         3.2131
  71   0.0000       0.129903         3.5348

MULLIKEN ATOMIC CHARGES
-----------------------
   0 S :    0.115262
   1 C :   -0.102912
   2 C :   -0.068042
   3 C :    0.040830
   4 C :   -0.182200
   5 H :    0.015014
   6 C :    0.076207
   7 H :    0.013095
   8 H :    0.029823
   9 C :   -0.123749
  10 H :    0.028692
  11 H :    0.018613
  12 C :   -0.011175
  13 H :    0.032730
  14 H :    0.027967
  15 H :    0.037941
  16 S :    0.116906
  17 C :   -0.120609
  18 C :   -0.044176
  19 C :   -0.068474
  20 C :   -0.169778
  21 H :    0.041058
  22 C :    0.140214
  23 H :    0.014912
  24 H :    0.004176
  25 C :   -0.076254
  26 H :    0.029200
  27 H :    0.014250
  28 C :    0.007675
  29 H :    0.018989
  30 H :    0.030170
  31 H :    0.003424
  32 H :    0.033131
  33 H :    0.077088
Sum of atomic charges:    0.0000000

LOEWDIN ATOMIC CHARGES
----------------------
   0 S :    0.400822
   1 C :   -0.179481
   2 C :   -0.059543
   3 C :   -0.056002
   4 C :   -0.203526
   5 H :    0.031460
   6 C :   -0.036852
   7 H :    0.032034
   8 H :    0.027822
   9 C :   -0.048906
  10 H :    0.028276
  11 H :    0.016546
  12 C :   -0.062010
  13 H :    0.022995
  14 H :    0.027768
  15 H :    0.033818
  16 S :    0.418142
  17 C :   -0.185789
  18 C :   -0.078593
  19 C :   -0.046188
  20 C :   -0.221767
  21 H :    0.040043
  22 C :   -0.028332
  23 H :    0.026394
  24 H :    0.025992
  25 C :   -0.031296
  26 H :    0.030458
  27 H :    0.013247
  28 C :   -0.058066
  29 H :    0.021296
  30 H :    0.022799
  31 H :    0.017448
  32 H :    0.021413
  33 H :    0.037578

  Mayer bond orders larger than 0.100000
B(  0-S ,  1-C ) :   1.1360 B(  0-S ,  4-C ) :   1.1336 B(  1-C ,  2-C ) :   1.6359
B(  1-C , 32-H ) :   0.9693 B(  2-C ,  3-C ) :   1.2016 B(  2-C ,  6-C ) :   1.0303
B(  3-C ,  4-C ) :   1.6106 B(  3-C ,  5-H ) :   0.9924 B(  4-C , 20-C ) :   1.0480
B(  6-C ,  7-H ) :   0.9417 B(  6-C ,  8-H ) :   0.9462 B(  6-C ,  9-C ) :   1.0452
B(  9-C , 10-H ) :   0.9568 B(  9-C , 11-H ) :   0.9589 B(  9-C , 12-C ) :   1.0902
B( 12-C , 13-H ) :   0.9729 B( 12-C , 14-H ) :   0.9690 B( 12-C , 15-H ) :   0.9704
B( 16-S , 17-C ) :   1.1646 B( 16-S , 20-C ) :   1.1478 B( 17-C , 18-C ) :   1.5964
B( 17-C , 33-H ) :   0.9656 B( 18-C , 19-C ) :   1.2284 B( 18-C , 21-H ) :   0.9828
B( 19-C , 20-C ) :   1.5739 B( 19-C , 22-C ) :   1.0747 B( 22-C , 23-H ) :   0.9206
B( 22-C , 24-H ) :   0.9178 B( 22-C , 25-C ) :   1.0756 B( 25-C , 26-H ) :   0.9546
B( 25-C , 27-H ) :   0.9527 B( 25-C , 28-C ) :   1.0995 B( 28-C , 29-H ) :   0.9703
B( 28-C , 30-H ) :   0.9638 B( 28-C , 31-H ) :   0.9705

Dispersion correction           -0.015163837
FINAL SINGLE POINT ENERGY     -1339.882520370969

DIPOLE MOMENT
-------------
                                X             Y             Z
Electronic contribution:     -2.35476     -15.08575      19.91334
Nuclear contribution   :      2.68975      15.39190     -20.46562
                        -----------------------------------------
Total Dipole Moment    :      0.33499       0.30615      -0.55227
                        -----------------------------------------
Magnitude (a.u.)       :      0.71481
Magnitude (Debye)      :      1.81690

Rotational constants in cm-1:     0.020633     0.007993     0.007253
Rotational constants in MHz :   618.552577   239.609351   217.446591

                             ****ORCA TERMINATED NORMALLY****
TOTAL RUN TIME: 0 days 0 hours 0 minutes 21 seconds 78 msec
