                         Program Version 4.2.1 -  RELEASE  -
|  1> ! wB97X-D3 SP def2-SVP
|  2> %pal
|  3> nprocs 24
|  4> end
|  5>
|  6> * xyz 0 1
|  7> S 	 -74.6263 	 10.0472 	 -108.85
|  8> C 	 -76.0646 	 9.54496 	 -108.032
|  9> C 	 -76.8327 	 10.6585 	 -107.821
| 10> C 	 -76.3843 	 11.7678 	 -108.605
| 11> C 	 -75.2378 	 11.616 	 -109.335
| 12> H 	 -76.8717 	 12.773 	 -108.586
| 13> C 	 -78.1727 	 10.7994 	 -107.109
| 14> H 	 -78.1224 	 11.6003 	 -106.317
| 15> H 	 -78.3991 	 9.92669 	 -106.526
| 16> C 	 -79.3381 	 11.0528 	 -108.06
| 17> H 	 -80.2781 	 11.2054 	 -107.532
| 18> H 	 -79.2188 	 11.963 	 -108.604
| 19> C 	 -79.5338 	 9.92263 	 -109.096
| 20> H 	 -78.9812 	 9.06159 	 -108.754
| 21> H 	 -80.58 	 9.7357 	 -109.375
| 22> H 	 -79.0833 	 10.2501 	 -110.01
| 23> S 	 -72.9192 	 11.9844 	 -110.787
| 24> C 	 -72.6106 	 13.4481 	 -111.606
| 25> C 	 -73.5507 	 14.3845 	 -111.393
| 26> C 	 -74.6473 	 13.911 	 -110.585
| 27> C 	 -74.4676 	 12.5691 	 -110.163
| 28> H 	 -73.3471 	 15.4044 	 -111.707
| 29> C 	 -75.843 	 14.8334 	 -110.306
| 30> H 	 -75.5068 	 15.8601 	 -110.438
| 31> H 	 -76.2274 	 14.8612 	 -109.295
| 32> C 	 -77.0024 	 14.5738 	 -111.295
| 33> H 	 -77.9668 	 15.0099 	 -111.059
| 34> H 	 -77.185 	 13.5261 	 -111.35
| 35> C 	 -76.8341 	 15.0272 	 -112.778
| 36> H 	 -76.7485 	 16.1003 	 -112.909
| 37> H 	 -77.6927 	 14.7176 	 -113.405
| 38> H 	 -75.9665 	 14.5383 	 -113.162
| 39> H 	 -76.194 	 8.56984 	 -107.665
| 40> H 	 -71.7075 	 13.7557 	 -112.037
| 41> *
| 42>
| 43>                          ****END OF INPUT****

CARTESIAN COORDINATES (ANGSTROEM)
---------------------------------
  S    -74.626300   10.047200  -108.850000
  C    -76.064600    9.544960  -108.032000
  C    -76.832700   10.658500  -107.821000
  C    -76.384300   11.767800  -108.605000
  C    -75.237800   11.616000  -109.335000
  H    -76.871700   12.773000  -108.586000
  C    -78.172700   10.799400  -107.109000
  H    -78.122400   11.600300  -106.317000
  H    -78.399100    9.926690  -106.526000
  C    -79.338100   11.052800  -108.060000
  H    -80.278100   11.205400  -107.532000
  H    -79.218800   11.963000  -108.604000
  C    -79.533800    9.922630  -109.096000
  H    -78.981200    9.061590  -108.754000
  H    -80.580000    9.735700  -109.375000
  H    -79.083300   10.250100  -110.010000
  S    -72.919200   11.984400  -110.787000
  C    -72.610600   13.448100  -111.606000
  C    -73.550700   14.384500  -111.393000
  C    -74.647300   13.911000  -110.585000
  C    -74.467600   12.569100  -110.163000
  H    -73.347100   15.404400  -111.707000
  C    -75.843000   14.833400  -110.306000
  H    -75.506800   15.860100  -110.438000
  H    -76.227400   14.861200  -109.295000
  C    -77.002400   14.573800  -111.295000
  H    -77.966800   15.009900  -111.059000
  H    -77.185000   13.526100  -111.350000
  C    -76.834100   15.027200  -112.778000
  H    -76.748500   16.100300  -112.909000
  H    -77.692700   14.717600  -113.405000
  H    -75.966500   14.538300  -113.162000
  H    -76.194000    8.569840  -107.665000
  H    -71.707500   13.755700  -112.037000

 Total Charge           Charge          ....    0
 Multiplicity           Mult            ....    1
 Number of Electrons    NEL             ....  134
 Basis Dimension        Dim             ....  322

ORBITAL ENERGIES
----------------

  NO   OCC          E(Eh)            E(eV)
   0   2.0000     -88.968723     -2420.9620
   1   2.0000     -88.961308     -2420.7603
   2   2.0000     -10.340660      -281.3837
   3   2.0000     -10.335359      -281.2394
   4   2.0000     -10.315369      -280.6955
   5   2.0000     -10.314366      -280.6682
   6   2.0000     -10.309504      -280.5359
   7   2.0000     -10.302769      -280.3526
   8   2.0000     -10.298495      -280.2363
   9   2.0000     -10.295466      -280.1539
  10   2.0000     -10.293797      -280.1085
  11   2.0000     -10.293760      -280.1074
  12   2.0000     -10.283393      -279.8254
  13   2.0000     -10.280659      -279.7509
  14   2.0000     -10.273493      -279.5560
  15   2.0000     -10.269722      -279.4533
  16   2.0000      -8.083948      -219.9754
  17   2.0000      -8.076741      -219.7793
  18   2.0000      -6.042492      -164.4246
  19   2.0000      -6.038331      -164.3113
  20   2.0000      -6.035393      -164.2314
  21   2.0000      -6.034691      -164.2123
  22   2.0000      -6.031198      -164.1172
  23   2.0000      -6.027245      -164.0097
  24   2.0000      -1.012625       -27.5549
  25   2.0000      -0.993459       -27.0334
  26   2.0000      -0.912949       -24.8426
  27   2.0000      -0.907482       -24.6938
  28   2.0000      -0.875088       -23.8124
  29   2.0000      -0.848913       -23.1001
  30   2.0000      -0.838918       -22.8281
  31   2.0000      -0.821930       -22.3659
  32   2.0000      -0.785452       -21.3732
  33   2.0000      -0.777808       -21.1652
  34   2.0000      -0.713963       -19.4279
  35   2.0000      -0.699924       -19.0459
  36   2.0000      -0.692305       -18.8386
  37   2.0000      -0.663136       -18.0449
  38   2.0000      -0.644261       -17.5312
  39   2.0000      -0.627262       -17.0687
  40   2.0000      -0.601511       -16.3679
  41   2.0000      -0.572290       -15.5728
  42   2.0000      -0.555933       -15.1277
  43   2.0000      -0.553593       -15.0640
  44   2.0000      -0.542788       -14.7700
  45   2.0000      -0.534666       -14.5490
  46   2.0000      -0.519567       -14.1381
  47   2.0000      -0.515183       -14.0188
  48   2.0000      -0.506976       -13.7955
  49   2.0000      -0.497689       -13.5428
  50   2.0000      -0.490938       -13.3591
  51   2.0000      -0.480232       -13.0678
  52   2.0000      -0.473109       -12.8739
  53   2.0000      -0.469786       -12.7835
  54   2.0000      -0.459811       -12.5121
  55   2.0000      -0.450284       -12.2528
  56   2.0000      -0.446975       -12.1628
  57   2.0000      -0.440317       -11.9816
  58   2.0000      -0.429613       -11.6904
  59   2.0000      -0.422413       -11.4944
  60   2.0000      -0.415794       -11.3143
  61   2.0000      -0.413723       -11.2580
  62   2.0000      -0.404096       -10.9960
  63   2.0000      -0.370408       -10.0793
  64   2.0000      -0.337219        -9.1762
  65   2.0000      -0.324230        -8.8227
  66   2.0000      -0.288535        -7.8514
  67   0.0000       0.016639         0.4528
  68   0.0000       0.090293         2.4570
  69   0.0000       0.093739         2.5508
  70   0.0000       0.121960         3.3187
  71   0.0000       0.129687         3.5290

MULLIKEN ATOMIC CHARGES
-----------------------
   0 S :    0.076188
   1 C :   -0.099804
   2 C :   -0.059064
   3 C :   -0.056104
   4 C :   -0.062984
   5 H :    0.015686
   6 C :    0.055561
   7 H :    0.041039
   8 H :    0.013100
   9 C :   -0.074262
  10 H :    0.025177
  11 H :    0.016458
  12 C :   -0.028398
  13 H :    0.022007
  14 H :    0.036253
  15 H :    0.025232
  16 S :    0.102702
  17 C :   -0.040105
  18 C :   -0.049626
  19 C :   -0.068576
  20 C :   -0.124830
  21 H :    0.024042
  22 C :    0.078222
  23 H :    0.013253
  24 H :    0.036273
  25 C :   -0.061686
  26 H :    0.022194
  27 H :    0.023808
  28 C :   -0.071137
  29 H :    0.027040
  30 H :    0.036943
  31 H :    0.031780
  32 H :    0.038587
  33 H :    0.035030
Sum of atomic charges:    0.0000000

LOEWDIN ATOMIC CHARGES
----------------------
   0 S :    0.398337
   1 C :   -0.184425
   2 C :   -0.065921
   3 C :   -0.076868
   4 C :   -0.185714
   5 H :    0.033061
   6 C :   -0.033345
   7 H :    0.039405
   8 H :    0.023926
   9 C :   -0.041367
  10 H :    0.023044
  11 H :    0.016163
  12 C :   -0.062328
  13 H :    0.021388
  14 H :    0.028781
  15 H :    0.025449
  16 S :    0.418588
  17 C :   -0.188326
  18 C :   -0.073991
  19 C :   -0.049045
  20 C :   -0.184328
  21 H :    0.035678
  22 C :   -0.031111
  23 H :    0.030164
  24 H :    0.029713
  25 C :   -0.039221
  26 H :    0.021527
  27 H :    0.020984
  28 C :   -0.065532
  29 H :    0.019224
  30 H :    0.031145
  31 H :    0.019080
  32 H :    0.022180
  33 H :    0.023685

  Mayer bond orders larger than 0.100000
B(  0-S ,  1-C ) :   1.1439 B(  0-S ,  4-C ) :   1.1381 B(  1-C ,  2-C ) :   1.5815
B(  1-C , 32-H ) :   0.9815 B(  2-C ,  3-C ) :   1.2393 B(  2-C ,  6-C ) :   1.0330
B(  3-C ,  4-C ) :   1.5804 B(  3-C ,  5-H ) :   0.9869 B(  4-C , 20-C ) :   1.0787
B(  6-C ,  7-H ) :   0.9377 B(  6-C ,  8-H ) :   0.9433 B(  6-C ,  9-C ) :   1.0811
B(  9-C , 10-H ) :   0.9587 B(  9-C , 11-H ) :   0.9587 B(  9-C , 12-C ) :   1.0582
B( 12-C , 13-H ) :   0.9808 B( 12-C , 14-H ) :   0.9764 B( 12-C , 15-H ) :   0.9744
B( 16-S , 17-C ) :   1.1585 B( 16-S , 20-C ) :   1.1443 B( 17-C , 18-C ) :   1.6335
B( 17-C , 33-H ) :   0.9630 B( 18-C , 19-C ) :   1.2502 B( 18-C , 21-H ) :   0.9851
B( 19-C , 20-C ) :   1.5737 B( 19-C , 22-C ) :   1.0369 B( 22-C , 23-H ) :   0.9356
B( 22-C , 24-H ) :   0.9409 B( 22-C , 25-C ) :   1.0524 B( 25-C , 26-H ) :   0.9605
B( 25-C , 27-H ) :   0.9580 B( 25-C , 28-C ) :   1.0818 B( 28-C , 29-H ) :   0.9775
B( 28-C , 30-H ) :   0.9741 B( 28-C , 31-H ) :   0.9766

Dispersion correction           -0.014915178
FINAL SINGLE POINT ENERGY     -1339.876035922199

DIPOLE MOMENT
-------------
                                X             Y             Z
Electronic contribution:     26.47893     -10.03430       2.86881
Nuclear contribution   :    -26.90914      10.55986      -2.76830
                        -----------------------------------------
Total Dipole Moment    :     -0.43021       0.52556       0.10050
                        -----------------------------------------
Magnitude (a.u.)       :      0.68658
Magnitude (Debye)      :      1.74514

Rotational constants in cm-1:     0.018859     0.009727     0.007002
Rotational constants in MHz :   565.377955   291.598866   209.911350

                             ****ORCA TERMINATED NORMALLY****
TOTAL RUN TIME: 0 days 0 hours 0 minutes 22 seconds 243 msec
