                         Program Version 4.2.1 -  RELEASE  -
|  1> ! wB97X-D3 SP def2-SVP
|  2> %pal
|  3> nprocs 24
|  4> end
|  5>
|  6> * xyz 0 1
|  7> S 	 -65.2527 	 -59.0299 	 -83.4219
|  8> C 	 -65.3004 	 -60.6345 	 -82.6517
|  9> C 	 -64.2612 	 -60.8652 	 -81.8385
| 10> C 	 -63.4026 	 -59.7333 	 -81.7259
| 11> C 	 -63.8239 	 -58.6529 	 -82.438
| 12> H 	 -62.6481 	 -59.6356 	 -81.0046
| 13> C 	 -63.958 	 -62.0796 	 -81.0098
| 14> H 	 -63.2591 	 -61.8082 	 -80.2174
| 15> H 	 -63.4005 	 -62.7621 	 -81.6768
| 16> C 	 -65.1816 	 -62.7767 	 -80.4571
| 17> H 	 -65.9044 	 -63.088 	 -81.18
| 18> H 	 -64.7422 	 -63.6171 	 -79.9095
| 19> C 	 -66.0876 	 -61.8594 	 -79.5653
| 20> H 	 -66.5858 	 -61.1097 	 -80.2228
| 21> H 	 -66.9901 	 -62.3144 	 -79.1108
| 22> H 	 -65.5325 	 -61.2319 	 -78.8529
| 23> S 	 -62.2422 	 -56.8174 	 -83.5956
| 24> C 	 -62.1138 	 -55.2013 	 -83.0214
| 25> C 	 -62.7016 	 -55.0782 	 -81.8079
| 26> C 	 -63.3093 	 -56.3625 	 -81.3895
| 27> C 	 -63.2038 	 -57.342 	 -82.3577
| 28> H 	 -62.5978 	 -54.1864 	 -81.1697
| 29> C 	 -64.0636 	 -56.5096 	 -80.1341
| 30> H 	 -63.6972 	 -55.9076 	 -79.4065
| 31> H 	 -64.0413 	 -57.4492 	 -79.5686
| 32> C 	 -65.6157 	 -56.3065 	 -80.2003
| 33> H 	 -66.0743 	 -57.223 	 -80.7126
| 34> H 	 -65.8101 	 -55.3622 	 -80.7918
| 35> C 	 -66.3003 	 -56.2485 	 -78.8233
| 36> H 	 -65.9862 	 -57.1513 	 -78.2697
| 37> H 	 -67.3576 	 -56.1201 	 -78.7966
| 38> H 	 -65.9963 	 -55.4347 	 -78.2568
| 39> H 	 -66.1095 	 -61.3456 	 -82.7616
| 40> H 	 -61.3131 	 -54.5171 	 -83.1769
| 41> *
| 42>
| 43>                          ****END OF INPUT****

CARTESIAN COORDINATES (ANGSTROEM)
---------------------------------
  S    -65.252700  -59.029900  -83.421900
  C    -65.300400  -60.634500  -82.651700
  C    -64.261200  -60.865200  -81.838500
  C    -63.402600  -59.733300  -81.725900
  C    -63.823900  -58.652900  -82.438000
  H    -62.648100  -59.635600  -81.004600
  C    -63.958000  -62.079600  -81.009800
  H    -63.259100  -61.808200  -80.217400
  H    -63.400500  -62.762100  -81.676800
  C    -65.181600  -62.776700  -80.457100
  H    -65.904400  -63.088000  -81.180000
  H    -64.742200  -63.617100  -79.909500
  C    -66.087600  -61.859400  -79.565300
  H    -66.585800  -61.109700  -80.222800
  H    -66.990100  -62.314400  -79.110800
  H    -65.532500  -61.231900  -78.852900
  S    -62.242200  -56.817400  -83.595600
  C    -62.113800  -55.201300  -83.021400
  C    -62.701600  -55.078200  -81.807900
  C    -63.309300  -56.362500  -81.389500
  C    -63.203800  -57.342000  -82.357700
  H    -62.597800  -54.186400  -81.169700
  C    -64.063600  -56.509600  -80.134100
  H    -63.697200  -55.907600  -79.406500
  H    -64.041300  -57.449200  -79.568600
  C    -65.615700  -56.306500  -80.200300
  H    -66.074300  -57.223000  -80.712600
  H    -65.810100  -55.362200  -80.791800
  C    -66.300300  -56.248500  -78.823300
  H    -65.986200  -57.151300  -78.269700
  H    -67.357600  -56.120100  -78.796600
  H    -65.996300  -55.434700  -78.256800
  H    -66.109500  -61.345600  -82.761600
  H    -61.313100  -54.517100  -83.176900

 Total Charge           Charge          ....    0
 Multiplicity           Mult            ....    1
 Number of Electrons    NEL             ....  134
 Basis Dimension        Dim             ....  322

ORBITAL ENERGIES
----------------

  NO   OCC          E(Eh)            E(eV)
   0   2.0000     -88.968329     -2420.9513
   1   2.0000     -88.961345     -2420.7613
   2   2.0000     -10.328315      -281.0478
   3   2.0000     -10.317567      -280.7553
   4   2.0000     -10.311976      -280.6031
   5   2.0000     -10.306751      -280.4610
   6   2.0000     -10.301981      -280.3312
   7   2.0000     -10.297745      -280.2159
   8   2.0000     -10.295529      -280.1556
   9   2.0000     -10.293708      -280.1060
  10   2.0000     -10.291021      -280.0329
  11   2.0000     -10.290144      -280.0090
  12   2.0000     -10.287232      -279.9298
  13   2.0000     -10.283117      -279.8178
  14   2.0000     -10.277327      -279.6603
  15   2.0000     -10.269073      -279.4357
  16   2.0000      -8.082024      -219.9231
  17   2.0000      -8.078664      -219.8316
  18   2.0000      -6.040733      -164.3767
  19   2.0000      -6.037107      -164.2780
  20   2.0000      -6.036811      -164.2700
  21   2.0000      -6.032621      -164.1560
  22   2.0000      -6.032486      -164.1523
  23   2.0000      -6.029482      -164.0705
  24   2.0000      -1.017753       -27.6945
  25   2.0000      -0.991295       -26.9745
  26   2.0000      -0.917312       -24.9613
  27   2.0000      -0.906415       -24.6648
  28   2.0000      -0.874867       -23.8063
  29   2.0000      -0.849433       -23.1142
  30   2.0000      -0.846826       -23.0433
  31   2.0000      -0.820127       -22.3168
  32   2.0000      -0.786644       -21.4057
  33   2.0000      -0.774489       -21.0749
  34   2.0000      -0.712704       -19.3937
  35   2.0000      -0.703157       -19.1339
  36   2.0000      -0.688535       -18.7360
  37   2.0000      -0.662895       -18.0383
  38   2.0000      -0.643086       -17.4993
  39   2.0000      -0.616511       -16.7761
  40   2.0000      -0.602207       -16.3869
  41   2.0000      -0.584991       -15.9184
  42   2.0000      -0.559536       -15.2258
  43   2.0000      -0.557738       -15.1768
  44   2.0000      -0.540621       -14.7111
  45   2.0000      -0.521007       -14.1773
  46   2.0000      -0.516238       -14.0475
  47   2.0000      -0.515648       -14.0315
  48   2.0000      -0.505758       -13.7624
  49   2.0000      -0.496686       -13.5155
  50   2.0000      -0.491327       -13.3697
  51   2.0000      -0.482624       -13.1329
  52   2.0000      -0.470968       -12.8157
  53   2.0000      -0.465576       -12.6690
  54   2.0000      -0.455904       -12.4058
  55   2.0000      -0.451730       -12.2922
  56   2.0000      -0.448374       -12.2009
  57   2.0000      -0.437289       -11.8992
  58   2.0000      -0.427180       -11.6242
  59   2.0000      -0.425684       -11.5834
  60   2.0000      -0.417350       -11.3567
  61   2.0000      -0.414578       -11.2812
  62   2.0000      -0.408333       -11.1113
  63   2.0000      -0.341931        -9.3044
  64   2.0000      -0.332508        -9.0480
  65   2.0000      -0.325060        -8.8453
  66   2.0000      -0.306415        -8.3380
  67   0.0000       0.047692         1.2978
  68   0.0000       0.055764         1.5174
  69   0.0000       0.111240         3.0270
  70   0.0000       0.113689         3.0936
  71   0.0000       0.131705         3.5839

MULLIKEN ATOMIC CHARGES
-----------------------
   0 S :    0.118411
   1 C :   -0.134219
   2 C :   -0.082097
   3 C :    0.061187
   4 C :   -0.151732
   5 H :   -0.004237
   6 C :    0.087992
   7 H :    0.023886
   8 H :    0.049336
   9 C :   -0.065384
  10 H :    0.029522
  11 H :    0.037900
  12 C :   -0.082321
  13 H :    0.027922
  14 H :    0.042680
  15 H :    0.029814
  16 S :    0.119768
  17 C :   -0.061435
  18 C :   -0.064836
  19 C :   -0.026356
  20 C :   -0.174264
  21 H :    0.035423
  22 C :    0.098327
  23 H :   -0.021989
  24 H :    0.004317
  25 C :   -0.121858
  26 H :    0.047937
  27 H :    0.035817
  28 C :   -0.017554
  29 H :    0.024906
  30 H :    0.031210
  31 H :    0.005582
  32 H :    0.038787
  33 H :    0.057559
Sum of atomic charges:    0.0000000

LOEWDIN ATOMIC CHARGES
----------------------
   0 S :    0.383595
   1 C :   -0.184649
   2 C :   -0.065636
   3 C :   -0.048252
   4 C :   -0.180968
   5 H :    0.023835
   6 C :   -0.029212
   7 H :    0.031213
   8 H :    0.042640
   9 C :   -0.039522
  10 H :    0.022179
  11 H :    0.028778
  12 C :   -0.077621
  13 H :    0.028267
  14 H :    0.029925
  15 H :    0.021809
  16 S :    0.461560
  17 C :   -0.208402
  18 C :   -0.064316
  19 C :   -0.056395
  20 C :   -0.229751
  21 H :    0.036833
  22 C :   -0.041775
  23 H :    0.012936
  24 H :    0.031509
  25 C :   -0.038780
  26 H :    0.029501
  27 H :    0.023655
  28 C :   -0.066853
  29 H :    0.027314
  30 H :    0.025841
  31 H :    0.013091
  32 H :    0.025524
  33 H :    0.032129

  Mayer bond orders larger than 0.100000
B(  0-S ,  1-C ) :   1.1077 B(  0-S ,  4-C ) :   1.1253 B(  1-C ,  2-C ) :   1.6769
B(  1-C , 32-H ) :   0.9606 B(  2-C ,  3-C ) :   1.2014 B(  2-C ,  6-C ) :   1.0051
B(  3-C ,  4-C ) :   1.6355 B(  3-C ,  5-H ) :   0.9980 B(  4-C , 20-C ) :   1.0044
B(  6-C ,  7-H ) :   0.9436 B(  6-C ,  8-H ) :   0.9251 B(  6-C ,  9-C ) :   1.0826
B(  9-C , 10-H ) :   0.9542 B(  9-C , 11-H ) :   0.9555 B(  9-C , 12-C ) :   1.0657
B( 12-C , 13-H ) :   0.9693 B( 12-C , 14-H ) :   0.9761 B( 12-C , 15-H ) :   0.9782
B( 16-S , 17-C ) :   1.1599 B( 16-S , 20-C ) :   1.1826 B( 17-C , 18-C ) :   1.6096
B( 17-C , 33-H ) :   0.9588 B( 18-C , 19-C ) :   1.2541 B( 18-C , 21-H ) :   0.9823
B( 19-C , 20-C ) :   1.5735 B( 19-C , 22-C ) :   1.0775 B( 22-C , 23-H ) :   0.9200
B( 22-C , 24-H ) :   0.9264 B( 22-C , 25-C ) :   1.0462 B( 25-C , 26-H ) :   0.9576
B( 25-C , 27-H ) :   0.9577 B( 25-C , 28-C ) :   1.0772 B( 28-C , 29-H ) :   0.9716
B( 28-C , 30-H ) :   0.9727 B( 28-C , 31-H ) :   0.9718

Dispersion correction           -0.015251040
FINAL SINGLE POINT ENERGY     -1339.858035343726

DIPOLE MOMENT
-------------
                                X             Y             Z
Electronic contribution:     12.44839       8.09350     -24.21188
Nuclear contribution   :    -12.38734      -8.31513      24.95803
                        -----------------------------------------
Total Dipole Moment    :      0.06105      -0.22162       0.74615
                        -----------------------------------------
Magnitude (a.u.)       :      0.78076
Magnitude (Debye)      :      1.98453

Rotational constants in cm-1:     0.019520     0.009331     0.007373
Rotational constants in MHz :   585.184619   279.744994   221.027900

                             ****ORCA TERMINATED NORMALLY****
TOTAL RUN TIME: 0 days 0 hours 0 minutes 22 seconds 453 msec
