                         Program Version 4.2.1 -  RELEASE  -
|  1> ! wB97X-D3 SP def2-SVP
|  2> %pal
|  3> nprocs 24
|  4> end
|  5>
|  6> * xyz 0 1
|  7> S 	 -102.458 	 10.1902 	 -121.946
|  8> C 	 -103.603 	 9.15084 	 -122.684
|  9> C 	 -103.996 	 8.08737 	 -121.835
| 10> C 	 -103.284 	 8.15223 	 -120.607
| 11> C 	 -102.447 	 9.27321 	 -120.474
| 12> H 	 -103.257 	 7.44715 	 -119.789
| 13> C 	 -104.875 	 6.94861 	 -122.161
| 14> H 	 -105.041 	 6.33962 	 -121.234
| 15> H 	 -104.323 	 6.34544 	 -122.854
| 16> C 	 -106.211 	 7.28464 	 -122.825
| 17> H 	 -106.674 	 7.89353 	 -122.002
| 18> H 	 -106.231 	 7.91494 	 -123.728
| 19> C 	 -107.018 	 6.06719 	 -123.148
| 20> H 	 -107.912 	 6.25035 	 -123.695
| 21> H 	 -106.423 	 5.41357 	 -123.768
| 22> H 	 -107.318 	 5.5468 	 -122.272
| 23> S 	 -100.168 	 10.2261 	 -119.387
| 24> C 	 -100.009 	 10.2935 	 -117.624
| 25> C 	 -101.237 	 10.0386 	 -116.977
| 26> C 	 -102.291 	 9.79876 	 -117.94
| 27> C 	 -101.824 	 9.69543 	 -119.257
| 28> H 	 -101.295 	 10.1006 	 -115.922
| 29> C 	 -103.752 	 9.54634 	 -117.486
| 30> H 	 -103.698 	 8.71998 	 -116.801
| 31> H 	 -104.471 	 9.35707 	 -118.323
| 32> C 	 -104.45 	 10.7071 	 -116.746
| 33> H 	 -104.711 	 11.4729 	 -117.395
| 34> H 	 -103.762 	 11.2701 	 -116.028
| 35> C 	 -105.713 	 10.2186 	 -115.91
| 36> H 	 -105.377 	 9.47556 	 -115.163
| 37> H 	 -106.442 	 9.6584 	 -116.442
| 38> H 	 -106.272 	 11.0782 	 -115.418
| 39> H 	 -104.017 	 9.30468 	 -123.648
| 40> H 	 -99.0892 	 10.557 	 -117.161
| 41> *
| 42>
| 43>                          ****END OF INPUT****

CARTESIAN COORDINATES (ANGSTROEM)
---------------------------------
  S    -102.458000   10.190200  -121.946000
  C    -103.603000    9.150840  -122.684000
  C    -103.996000    8.087370  -121.835000
  C    -103.284000    8.152230  -120.607000
  C    -102.447000    9.273210  -120.474000
  H    -103.257000    7.447150  -119.789000
  C    -104.875000    6.948610  -122.161000
  H    -105.041000    6.339620  -121.234000
  H    -104.323000    6.345440  -122.854000
  C    -106.211000    7.284640  -122.825000
  H    -106.674000    7.893530  -122.002000
  H    -106.231000    7.914940  -123.728000
  C    -107.018000    6.067190  -123.148000
  H    -107.912000    6.250350  -123.695000
  H    -106.423000    5.413570  -123.768000
  H    -107.318000    5.546800  -122.272000
  S    -100.168000   10.226100  -119.387000
  C    -100.009000   10.293500  -117.624000
  C    -101.237000   10.038600  -116.977000
  C    -102.291000    9.798760  -117.940000
  C    -101.824000    9.695430  -119.257000
  H    -101.295000   10.100600  -115.922000
  C    -103.752000    9.546340  -117.486000
  H    -103.698000    8.719980  -116.801000
  H    -104.471000    9.357070  -118.323000
  C    -104.450000   10.707100  -116.746000
  H    -104.711000   11.472900  -117.395000
  H    -103.762000   11.270100  -116.028000
  C    -105.713000   10.218600  -115.910000
  H    -105.377000    9.475560  -115.163000
  H    -106.442000    9.658400  -116.442000
  H    -106.272000   11.078200  -115.418000
  H    -104.017000    9.304680  -123.648000
  H    -99.089200   10.557000  -117.161000

 Total Charge           Charge          ....    0
 Multiplicity           Mult            ....    1
 Number of Electrons    NEL             ....  134
 Basis Dimension        Dim             ....  322

ORBITAL ENERGIES
----------------

  NO   OCC          E(Eh)            E(eV)
   0   2.0000     -88.969041     -2420.9707
   1   2.0000     -88.964051     -2420.8349
   2   2.0000     -10.326095      -280.9873
   3   2.0000     -10.324333      -280.9394
   4   2.0000     -10.321875      -280.8725
   5   2.0000     -10.311594      -280.5927
   6   2.0000     -10.311488      -280.5899
   7   2.0000     -10.301299      -280.3126
   8   2.0000     -10.300734      -280.2972
   9   2.0000     -10.295812      -280.1633
  10   2.0000     -10.292242      -280.0661
  11   2.0000     -10.291781      -280.0536
  12   2.0000     -10.288890      -279.9749
  13   2.0000     -10.288559      -279.9659
  14   2.0000     -10.284861      -279.8653
  15   2.0000     -10.270259      -279.4680
  16   2.0000      -8.084298      -219.9849
  17   2.0000      -8.078902      -219.8381
  18   2.0000      -6.042635      -164.4285
  19   2.0000      -6.038599      -164.3186
  20   2.0000      -6.037363      -164.2850
  21   2.0000      -6.035361      -164.2305
  22   2.0000      -6.033435      -164.1781
  23   2.0000      -6.029679      -164.0759
  24   2.0000      -1.006996       -27.4018
  25   2.0000      -0.981163       -26.6988
  26   2.0000      -0.919635       -25.0245
  27   2.0000      -0.900173       -24.4950
  28   2.0000      -0.871383       -23.7115
  29   2.0000      -0.857236       -23.3266
  30   2.0000      -0.843157       -22.9435
  31   2.0000      -0.811769       -22.0894
  32   2.0000      -0.781670       -21.2703
  33   2.0000      -0.769134       -20.9292
  34   2.0000      -0.708092       -19.2682
  35   2.0000      -0.704151       -19.1609
  36   2.0000      -0.693110       -18.8605
  37   2.0000      -0.666603       -18.1392
  38   2.0000      -0.644722       -17.5438
  39   2.0000      -0.614427       -16.7194
  40   2.0000      -0.594744       -16.1838
  41   2.0000      -0.578473       -15.7411
  42   2.0000      -0.568618       -15.4729
  43   2.0000      -0.559263       -15.2183
  44   2.0000      -0.525683       -14.3046
  45   2.0000      -0.520695       -14.1688
  46   2.0000      -0.518120       -14.0988
  47   2.0000      -0.512965       -13.9585
  48   2.0000      -0.504721       -13.7342
  49   2.0000      -0.501053       -13.6344
  50   2.0000      -0.491222       -13.3668
  51   2.0000      -0.478784       -13.0284
  52   2.0000      -0.473780       -12.8922
  53   2.0000      -0.466826       -12.7030
  54   2.0000      -0.458597       -12.4791
  55   2.0000      -0.450650       -12.2628
  56   2.0000      -0.446737       -12.1563
  57   2.0000      -0.438663       -11.9366
  58   2.0000      -0.436336       -11.8733
  59   2.0000      -0.428324       -11.6553
  60   2.0000      -0.417456       -11.3595
  61   2.0000      -0.415149       -11.2968
  62   2.0000      -0.413425       -11.2499
  63   2.0000      -0.346577        -9.4308
  64   2.0000      -0.330903        -9.0043
  65   2.0000      -0.328235        -8.9317
  66   2.0000      -0.284384        -7.7385
  67   0.0000       0.026428         0.7191
  68   0.0000       0.067302         1.8314
  69   0.0000       0.108584         2.9547
  70   0.0000       0.118644         3.2285
  71   0.0000       0.134505         3.6601

MULLIKEN ATOMIC CHARGES
-----------------------
   0 S :    0.131483
   1 C :   -0.108370
   2 C :   -0.071295
   3 C :    0.005638
   4 C :   -0.144337
   5 H :    0.013831
   6 C :    0.065025
   7 H :    0.032288
   8 H :    0.031804
   9 C :   -0.123092
  10 H :    0.034006
  11 H :    0.036731
  12 C :    0.005826
  13 H :    0.024118
  14 H :    0.017603
  15 H :    0.017945
  16 S :    0.094428
  17 C :   -0.089015
  18 C :   -0.018947
  19 C :   -0.019879
  20 C :   -0.167510
  21 H :    0.015417
  22 C :    0.055640
  23 H :    0.024743
  24 H :    0.050535
  25 C :   -0.077717
  26 H :    0.020687
  27 H :    0.029479
  28 C :   -0.076833
  29 H :    0.030709
  30 H :    0.022187
  31 H :    0.050646
  32 H :    0.034332
  33 H :    0.051896
Sum of atomic charges:   -0.0000000

LOEWDIN ATOMIC CHARGES
----------------------
   0 S :    0.437321
   1 C :   -0.207863
   2 C :   -0.062184
   3 C :   -0.060571
   4 C :   -0.211049
   5 H :    0.030764
   6 C :   -0.034759
   7 H :    0.038426
   8 H :    0.030219
   9 C :   -0.047441
  10 H :    0.029178
  11 H :    0.025642
  12 C :   -0.058929
  13 H :    0.023859
  14 H :    0.023575
  15 H :    0.020868
  16 S :    0.396609
  17 C :   -0.168647
  18 C :   -0.061323
  19 C :   -0.050811
  20 C :   -0.202805
  21 H :    0.027633
  22 C :   -0.032269
  23 H :    0.026212
  24 H :    0.040299
  25 C :   -0.038267
  26 H :    0.013547
  27 H :    0.026426
  28 C :   -0.072427
  29 H :    0.026056
  30 H :    0.016261
  31 H :    0.035977
  32 H :    0.019562
  33 H :    0.020909

  Mayer bond orders larger than 0.100000
B(  0-S ,  1-C ) :   1.1654 B(  0-S ,  4-C ) :   1.1691 B(  1-C ,  2-C ) :   1.5460
B(  1-C ,  4-C ) :   0.1053 B(  1-C , 32-H ) :   0.9752 B(  2-C ,  3-C ) :   1.2733
B(  2-C ,  6-C ) :   1.0303 B(  3-C ,  4-C ) :   1.5287 B(  3-C ,  5-H ) :   1.0003
B(  4-C , 20-C ) :   1.0575 B(  6-C ,  7-H ) :   0.9449 B(  6-C ,  8-H ) :   0.9271
B(  6-C ,  9-C ) :   1.0499 B(  9-C , 10-H ) :   0.9588 B(  9-C , 11-H ) :   0.9563
B(  9-C , 12-C ) :   1.0926 B( 12-C , 13-H ) :   0.9717 B( 12-C , 14-H ) :   0.9701
B( 12-C , 15-H ) :   0.9708 B( 16-S , 17-C ) :   1.1571 B( 16-S , 20-C ) :   1.1341
B( 17-C , 18-C ) :   1.5995 B( 17-C , 20-C ) :   0.1028 B( 17-C , 33-H ) :   0.9746
B( 18-C , 19-C ) :   1.2210 B( 18-C , 21-H ) :   0.9977 B( 19-C , 20-C ) :   1.5879
B( 19-C , 22-C ) :   1.0334 B( 22-C , 23-H ) :   0.9430 B( 22-C , 24-H ) :   0.9402
B( 22-C , 25-C ) :   1.0477 B( 25-C , 26-H ) :   0.9589 B( 25-C , 27-H ) :   0.9605
B( 25-C , 28-C ) :   1.0633 B( 28-C , 29-H ) :   0.9767 B( 28-C , 30-H ) :   0.9780
B( 28-C , 31-H ) :   0.9757

Dispersion correction           -0.013457066
FINAL SINGLE POINT ENERGY     -1339.876267010867

DIPOLE MOMENT
-------------
                                X             Y             Z
Electronic contribution:     27.93911      11.20573      -6.46321
Nuclear contribution   :    -28.46307     -11.51718       6.69294
                        -----------------------------------------
Total Dipole Moment    :     -0.52396      -0.31146       0.22972
                        -----------------------------------------
Magnitude (a.u.)       :      0.65139
Magnitude (Debye)      :      1.65571

Rotational constants in cm-1:     0.017645     0.008112     0.006079
Rotational constants in MHz :   528.974527   243.190048   182.251251

                             ****ORCA TERMINATED NORMALLY****
TOTAL RUN TIME: 0 days 0 hours 0 minutes 21 seconds 92 msec
