                         Program Version 4.2.1 -  RELEASE  -
|  1> ! wB97X-D3 SP def2-SVP
|  2> %pal
|  3> nprocs 24
|  4> end
|  5>
|  6> * xyz 0 1
|  7> S 	 -52.2925 	 -48.4947 	 -80.1568
|  8> C 	 -51.2366 	 -49.8354 	 -79.862
|  9> C 	 -51.8528 	 -51.0647 	 -80.0786
| 10> C 	 -53.2266 	 -50.8836 	 -80.5521
| 11> C 	 -53.5923 	 -49.5451 	 -80.6695
| 12> H 	 -53.8961 	 -51.7969 	 -80.7649
| 13> C 	 -51.2006 	 -52.4288 	 -79.732
| 14> H 	 -50.1252 	 -52.2833 	 -79.764
| 15> H 	 -51.5321 	 -53.1067 	 -80.5088
| 16> C 	 -51.4933 	 -53.0841 	 -78.3208
| 17> H 	 -51.0576 	 -54.0691 	 -78.2555
| 18> H 	 -51.1471 	 -52.5446 	 -77.4547
| 19> C 	 -52.9703 	 -53.3163 	 -77.8832
| 20> H 	 -53.6049 	 -52.5259 	 -78.2239
| 21> H 	 -53.3782 	 -54.1999 	 -78.2395
| 22> H 	 -53.0506 	 -53.3701 	 -76.834
| 23> S 	 -55.8307 	 -47.925 	 -80.1938
| 24> C 	 -57.3474 	 -48.3466 	 -81.0088
| 25> C 	 -57.136 	 -49.2508 	 -82.0435
| 26> C 	 -55.8159 	 -49.7277 	 -82.0294
| 27> C 	 -54.93 	 -49.1239 	 -81.1128
| 28> H 	 -57.8903 	 -49.5076 	 -82.8004
| 29> C 	 -55.4448 	 -50.8139 	 -83.0494
| 30> H 	 -56.0771 	 -51.7034 	 -83.052
| 31> H 	 -54.4686 	 -51.3415 	 -82.6878
| 32> C 	 -55.3324 	 -50.1628 	 -84.4458
| 33> H 	 -54.4864 	 -49.5136 	 -84.5629
| 34> H 	 -56.3012 	 -49.5781 	 -84.564
| 35> C 	 -55.2485 	 -51.1548 	 -85.5543
| 36> H 	 -55.9573 	 -51.9187 	 -85.6172
| 37> H 	 -54.2516 	 -51.6662 	 -85.6127
| 38> H 	 -55.3101 	 -50.6193 	 -86.5035
| 39> H 	 -50.1756 	 -49.6999 	 -79.7848
| 40> H 	 -58.2904 	 -47.8106 	 -80.8151
| 41> *
| 42>
| 43>                          ****END OF INPUT****

CARTESIAN COORDINATES (ANGSTROEM)
---------------------------------
  S    -52.292500  -48.494700  -80.156800
  C    -51.236600  -49.835400  -79.862000
  C    -51.852800  -51.064700  -80.078600
  C    -53.226600  -50.883600  -80.552100
  C    -53.592300  -49.545100  -80.669500
  H    -53.896100  -51.796900  -80.764900
  C    -51.200600  -52.428800  -79.732000
  H    -50.125200  -52.283300  -79.764000
  H    -51.532100  -53.106700  -80.508800
  C    -51.493300  -53.084100  -78.320800
  H    -51.057600  -54.069100  -78.255500
  H    -51.147100  -52.544600  -77.454700
  C    -52.970300  -53.316300  -77.883200
  H    -53.604900  -52.525900  -78.223900
  H    -53.378200  -54.199900  -78.239500
  H    -53.050600  -53.370100  -76.834000
  S    -55.830700  -47.925000  -80.193800
  C    -57.347400  -48.346600  -81.008800
  C    -57.136000  -49.250800  -82.043500
  C    -55.815900  -49.727700  -82.029400
  C    -54.930000  -49.123900  -81.112800
  H    -57.890300  -49.507600  -82.800400
  C    -55.444800  -50.813900  -83.049400
  H    -56.077100  -51.703400  -83.052000
  H    -54.468600  -51.341500  -82.687800
  C    -55.332400  -50.162800  -84.445800
  H    -54.486400  -49.513600  -84.562900
  H    -56.301200  -49.578100  -84.564000
  C    -55.248500  -51.154800  -85.554300
  H    -55.957300  -51.918700  -85.617200
  H    -54.251600  -51.666200  -85.612700
  H    -55.310100  -50.619300  -86.503500
  H    -50.175600  -49.699900  -79.784800
  H    -58.290400  -47.810600  -80.815100

 Total Charge           Charge          ....    0
 Multiplicity           Mult            ....    1
 Number of Electrons    NEL             ....  134
 Basis Dimension        Dim             ....  322

ORBITAL ENERGIES
----------------

  NO   OCC          E(Eh)            E(eV)
   0   2.0000     -88.970159     -2421.0011
   1   2.0000     -88.966864     -2420.9115
   2   2.0000     -10.336064      -281.2586
   3   2.0000     -10.331612      -281.1375
   4   2.0000     -10.323749      -280.9235
   5   2.0000     -10.314016      -280.6586
   6   2.0000     -10.307955      -280.4937
   7   2.0000     -10.305683      -280.4319
   8   2.0000     -10.303670      -280.3771
   9   2.0000     -10.301436      -280.3163
  10   2.0000     -10.297084      -280.1979
  11   2.0000     -10.295178      -280.1460
  12   2.0000     -10.286913      -279.9211
  13   2.0000     -10.286822      -279.9187
  14   2.0000     -10.270407      -279.4720
  15   2.0000     -10.261367      -279.2260
  16   2.0000      -8.085135      -220.0077
  17   2.0000      -8.081090      -219.8976
  18   2.0000      -6.043708      -164.4577
  19   2.0000      -6.039657      -164.3474
  20   2.0000      -6.039571      -164.3451
  21   2.0000      -6.035857      -164.2440
  22   2.0000      -6.035600      -164.2370
  23   2.0000      -6.031892      -164.1361
  24   2.0000      -1.003963       -27.3192
  25   2.0000      -0.982606       -26.7381
  26   2.0000      -0.907538       -24.6954
  27   2.0000      -0.900934       -24.5157
  28   2.0000      -0.868602       -23.6359
  29   2.0000      -0.852337       -23.1933
  30   2.0000      -0.845404       -23.0046
  31   2.0000      -0.812655       -22.1135
  32   2.0000      -0.784017       -21.3342
  33   2.0000      -0.768516       -20.9124
  34   2.0000      -0.703114       -19.1327
  35   2.0000      -0.700053       -19.0494
  36   2.0000      -0.693144       -18.8614
  37   2.0000      -0.661759       -18.0074
  38   2.0000      -0.636358       -17.3162
  39   2.0000      -0.615969       -16.7614
  40   2.0000      -0.594622       -16.1805
  41   2.0000      -0.568261       -15.4632
  42   2.0000      -0.560722       -15.2580
  43   2.0000      -0.547715       -14.9041
  44   2.0000      -0.539674       -14.6853
  45   2.0000      -0.527026       -14.3411
  46   2.0000      -0.518214       -14.1013
  47   2.0000      -0.511821       -13.9273
  48   2.0000      -0.504384       -13.7250
  49   2.0000      -0.503512       -13.7013
  50   2.0000      -0.489175       -13.3111
  51   2.0000      -0.474331       -12.9072
  52   2.0000      -0.468738       -12.7550
  53   2.0000      -0.462268       -12.5790
  54   2.0000      -0.455332       -12.3902
  55   2.0000      -0.451636       -12.2896
  56   2.0000      -0.442016       -12.0279
  57   2.0000      -0.439588       -11.9618
  58   2.0000      -0.432995       -11.7824
  59   2.0000      -0.421462       -11.4686
  60   2.0000      -0.418327       -11.3832
  61   2.0000      -0.414219       -11.2715
  62   2.0000      -0.406195       -11.0531
  63   2.0000      -0.355609        -9.6766
  64   2.0000      -0.332575        -9.0498
  65   2.0000      -0.329066        -8.9544
  66   2.0000      -0.285887        -7.7794
  67   0.0000       0.025131         0.6839
  68   0.0000       0.068624         1.8674
  69   0.0000       0.109553         2.9811
  70   0.0000       0.114838         3.1249
  71   0.0000       0.130511         3.5514

MULLIKEN ATOMIC CHARGES
-----------------------
   0 S :    0.117808
   1 C :   -0.118168
   2 C :   -0.122361
   3 C :   -0.011124
   4 C :   -0.140896
   5 H :    0.058085
   6 C :    0.092731
   7 H :    0.027399
   8 H :    0.028289
   9 C :   -0.071343
  10 H :    0.029188
  11 H :    0.028502
  12 C :   -0.031650
  13 H :    0.029695
  14 H :    0.006924
  15 H :    0.018290
  16 S :    0.094896
  17 C :   -0.109970
  18 C :   -0.024387
  19 C :   -0.063324
  20 C :   -0.113164
  21 H :    0.038521
  22 C :    0.018837
  23 H :    0.026281
  24 H :    0.023809
  25 C :   -0.064999
  26 H :    0.037845
  27 H :    0.031543
  28 C :   -0.027240
  29 H :    0.013403
  30 H :    0.028404
  31 H :    0.024807
  32 H :    0.053759
  33 H :    0.069609
Sum of atomic charges:    0.0000000

LOEWDIN ATOMIC CHARGES
----------------------
   0 S :    0.415409
   1 C :   -0.203229
   2 C :   -0.063605
   3 C :   -0.073209
   4 C :   -0.196736
   5 H :    0.046150
   6 C :   -0.025000
   7 H :    0.033075
   8 H :    0.029774
   9 C :   -0.036544
  10 H :    0.024865
  11 H :    0.024861
  12 C :   -0.059124
  13 H :    0.023568
  14 H :    0.010925
  15 H :    0.022224
  16 S :    0.395629
  17 C :   -0.178169
  18 C :   -0.073485
  19 C :   -0.057002
  20 C :   -0.199877
  21 H :    0.039689
  22 C :   -0.044016
  23 H :    0.026391
  24 H :    0.034860
  25 C :   -0.037363
  26 H :    0.029293
  27 H :    0.029795
  28 C :   -0.068501
  29 H :    0.011932
  30 H :    0.029436
  31 H :    0.028048
  32 H :    0.026475
  33 H :    0.033460

  Mayer bond orders larger than 0.100000
B(  0-S ,  1-C ) :   1.1406 B(  0-S ,  4-C ) :   1.1547 B(  1-C ,  2-C ) :   1.6137
B(  1-C , 32-H ) :   0.9653 B(  2-C ,  3-C ) :   1.2504 B(  2-C ,  6-C ) :   1.0246
B(  3-C ,  4-C ) :   1.5648 B(  3-C ,  5-H ) :   0.9663 B(  4-C , 20-C ) :   1.0401
B(  6-C ,  7-H ) :   0.9412 B(  6-C ,  8-H ) :   0.9410 B(  6-C ,  9-C ) :   1.0618
B(  9-C , 10-H ) :   0.9588 B(  9-C , 11-H ) :   0.9653 B(  9-C , 12-C ) :   1.0735
B( 12-C , 13-H ) :   0.9741 B( 12-C , 14-H ) :   0.9773 B( 12-C , 15-H ) :   0.9763
B( 16-S , 17-C ) :   1.1695 B( 16-S , 20-C ) :   1.1294 B( 17-C , 18-C ) :   1.5716
B( 17-C , 20-C ) :   0.1051 B( 17-C , 33-H ) :   0.9638 B( 18-C , 19-C ) :   1.2746
B( 18-C , 21-H ) :   0.9838 B( 19-C , 20-C ) :   1.5818 B( 19-C , 22-C ) :   1.0362
B( 22-C , 23-H ) :   0.9455 B( 22-C , 24-H ) :   0.9298 B( 22-C , 25-C ) :   1.0500
B( 25-C , 26-H ) :   0.9522 B( 25-C , 27-H ) :   0.9587 B( 25-C , 28-C ) :   1.0929
B( 28-C , 29-H ) :   0.9742 B( 28-C , 30-H ) :   0.9701 B( 28-C , 31-H ) :   0.9698

Dispersion correction           -0.013993743
FINAL SINGLE POINT ENERGY     -1339.867109214933

DIPOLE MOMENT
-------------
                                X             Y             Z
Electronic contribution:     -1.84316      23.88908       8.44318
Nuclear contribution   :      1.80705     -24.48805      -8.71416
                        -----------------------------------------
Total Dipole Moment    :     -0.03611      -0.59897      -0.27097
                        -----------------------------------------
Magnitude (a.u.)       :      0.65840
Magnitude (Debye)      :      1.67353

Rotational constants in cm-1:     0.016921     0.008472     0.007224
Rotational constants in MHz :   507.280139   253.973535   216.572633

                             ****ORCA TERMINATED NORMALLY****
TOTAL RUN TIME: 0 days 0 hours 0 minutes 21 seconds 430 msec
