                         Program Version 4.2.1 -  RELEASE  -
|  1> ! wB97X-D3 SP def2-SVP
|  2> %pal
|  3> nprocs 24
|  4> end
|  5>
|  6> * xyz 0 1
|  7> S 	 -34.4369 	 -27.3216 	 -96.1879
|  8> C 	 -35.2682 	 -26.0422 	 -95.4289
|  9> C 	 -35.5587 	 -26.3623 	 -94.0814
| 10> C 	 -35.0334 	 -27.6701 	 -93.6716
| 11> C 	 -34.1923 	 -28.2351 	 -94.6814
| 12> H 	 -35.1565 	 -28.0342 	 -92.6661
| 13> C 	 -36.4172 	 -25.527 	 -93.1594
| 14> H 	 -36.5904 	 -24.5614 	 -93.6283
| 15> H 	 -35.8157 	 -25.3675 	 -92.2859
| 16> C 	 -37.8238 	 -26.0644 	 -92.8745
| 17> H 	 -37.7307 	 -26.96 	 -92.1642
| 18> H 	 -38.2387 	 -25.2204 	 -92.333
| 19> C 	 -38.5459 	 -26.3705 	 -94.1753
| 20> H 	 -39.5312 	 -26.7775 	 -93.9267
| 21> H 	 -38.6573 	 -25.4059 	 -94.743
| 22> H 	 -38.0912 	 -27.1041 	 -94.8246
| 23> S 	 -33.7036 	 -30.6116 	 -95.8556
| 24> C 	 -32.5834 	 -31.7699 	 -95.1012
| 25> C 	 -32.1085 	 -31.2691 	 -93.9249
| 26> C 	 -32.5996 	 -29.9403 	 -93.5897
| 27> C 	 -33.4343 	 -29.4503 	 -94.5747
| 28> H 	 -31.3441 	 -31.9087 	 -93.3852
| 29> C 	 -32.0881 	 -29.0747 	 -92.3931
| 30> H 	 -32.288 	 -28.0734 	 -92.6652
| 31> H 	 -31.1031 	 -29.3806 	 -92.3544
| 32> C 	 -32.8036 	 -29.4049 	 -91.0344
| 33> H 	 -32.485 	 -30.3285 	 -90.5418
| 34> H 	 -33.8299 	 -29.4071 	 -91.2084
| 35> C 	 -32.4595 	 -28.4214 	 -89.8883
| 36> H 	 -33.3087 	 -28.3499 	 -89.2129
| 37> H 	 -32.3947 	 -27.3685 	 -90.2667
| 38> H 	 -31.4898 	 -28.45 	 -89.3154
| 39> H 	 -35.7382 	 -25.1625 	 -95.8306
| 40> H 	 -32.35 	 -32.819 	 -95.4556
| 41> *
| 42>
| 43>                          ****END OF INPUT****

CARTESIAN COORDINATES (ANGSTROEM)
---------------------------------
  S    -34.436900  -27.321600  -96.187900
  C    -35.268200  -26.042200  -95.428900
  C    -35.558700  -26.362300  -94.081400
  C    -35.033400  -27.670100  -93.671600
  C    -34.192300  -28.235100  -94.681400
  H    -35.156500  -28.034200  -92.666100
  C    -36.417200  -25.527000  -93.159400
  H    -36.590400  -24.561400  -93.628300
  H    -35.815700  -25.367500  -92.285900
  C    -37.823800  -26.064400  -92.874500
  H    -37.730700  -26.960000  -92.164200
  H    -38.238700  -25.220400  -92.333000
  C    -38.545900  -26.370500  -94.175300
  H    -39.531200  -26.777500  -93.926700
  H    -38.657300  -25.405900  -94.743000
  H    -38.091200  -27.104100  -94.824600
  S    -33.703600  -30.611600  -95.855600
  C    -32.583400  -31.769900  -95.101200
  C    -32.108500  -31.269100  -93.924900
  C    -32.599600  -29.940300  -93.589700
  C    -33.434300  -29.450300  -94.574700
  H    -31.344100  -31.908700  -93.385200
  C    -32.088100  -29.074700  -92.393100
  H    -32.288000  -28.073400  -92.665200
  H    -31.103100  -29.380600  -92.354400
  C    -32.803600  -29.404900  -91.034400
  H    -32.485000  -30.328500  -90.541800
  H    -33.829900  -29.407100  -91.208400
  C    -32.459500  -28.421400  -89.888300
  H    -33.308700  -28.349900  -89.212900
  H    -32.394700  -27.368500  -90.266700
  H    -31.489800  -28.450000  -89.315400
  H    -35.738200  -25.162500  -95.830600
  H    -32.350000  -32.819000  -95.455600

 Total Charge           Charge          ....    0
 Multiplicity           Mult            ....    1
 Number of Electrons    NEL             ....  134
 Basis Dimension        Dim             ....  322

ORBITAL ENERGIES
----------------

  NO   OCC          E(Eh)            E(eV)
   0   2.0000     -88.970738     -2421.0169
   1   2.0000     -88.962799     -2420.8008
   2   2.0000     -10.337605      -281.3005
   3   2.0000     -10.326276      -280.9922
   4   2.0000     -10.322748      -280.8962
   5   2.0000     -10.313684      -280.6496
   6   2.0000     -10.308294      -280.5029
   7   2.0000     -10.303415      -280.3702
   8   2.0000     -10.302847      -280.3547
   9   2.0000     -10.301288      -280.3123
  10   2.0000     -10.292966      -280.0858
  11   2.0000     -10.289502      -279.9916
  12   2.0000     -10.288053      -279.9522
  13   2.0000     -10.287171      -279.9282
  14   2.0000     -10.283440      -279.8266
  15   2.0000     -10.279716      -279.7253
  16   2.0000      -8.085213      -220.0098
  17   2.0000      -8.077452      -219.7987
  18   2.0000      -6.043808      -164.4604
  19   2.0000      -6.039657      -164.3474
  20   2.0000      -6.036118      -164.2511
  21   2.0000      -6.035976      -164.2473
  22   2.0000      -6.031994      -164.1389
  23   2.0000      -6.028014      -164.0306
  24   2.0000      -1.003993       -27.3200
  25   2.0000      -0.979766       -26.6608
  26   2.0000      -0.915423       -24.9099
  27   2.0000      -0.903954       -24.5978
  28   2.0000      -0.871924       -23.7262
  29   2.0000      -0.848477       -23.0882
  30   2.0000      -0.841895       -22.9091
  31   2.0000      -0.812937       -22.1211
  32   2.0000      -0.781316       -21.2607
  33   2.0000      -0.772128       -21.0107
  34   2.0000      -0.710321       -19.3288
  35   2.0000      -0.700388       -19.0585
  36   2.0000      -0.692578       -18.8460
  37   2.0000      -0.657832       -17.9005
  38   2.0000      -0.632834       -17.2203
  39   2.0000      -0.620065       -16.8728
  40   2.0000      -0.585524       -15.9329
  41   2.0000      -0.574073       -15.6213
  42   2.0000      -0.562834       -15.3155
  43   2.0000      -0.558945       -15.2097
  44   2.0000      -0.542700       -14.7676
  45   2.0000      -0.521941       -14.2027
  46   2.0000      -0.519331       -14.1317
  47   2.0000      -0.509755       -13.8711
  48   2.0000      -0.504744       -13.7348
  49   2.0000      -0.497811       -13.5461
  50   2.0000      -0.494322       -13.4512
  51   2.0000      -0.482213       -13.1217
  52   2.0000      -0.469336       -12.7713
  53   2.0000      -0.466442       -12.6925
  54   2.0000      -0.459460       -12.5025
  55   2.0000      -0.445521       -12.1232
  56   2.0000      -0.443613       -12.0713
  57   2.0000      -0.434021       -11.8103
  58   2.0000      -0.432679       -11.7738
  59   2.0000      -0.421670       -11.4742
  60   2.0000      -0.418432       -11.3861
  61   2.0000      -0.415943       -11.3184
  62   2.0000      -0.412008       -11.2113
  63   2.0000      -0.353360        -9.6154
  64   2.0000      -0.329518        -8.9666
  65   2.0000      -0.325407        -8.8548
  66   2.0000      -0.289491        -7.8774
  67   0.0000       0.023799         0.6476
  68   0.0000       0.071916         1.9569
  69   0.0000       0.108107         2.9417
  70   0.0000       0.121038         3.2936
  71   0.0000       0.126381         3.4390

MULLIKEN ATOMIC CHARGES
-----------------------
   0 S :    0.126150
   1 C :   -0.080092
   2 C :   -0.166329
   3 C :    0.046175
   4 C :   -0.155461
   5 H :    0.009206
   6 C :    0.061554
   7 H :    0.005687
   8 H :    0.029755
   9 C :   -0.074405
  10 H :    0.039111
  11 H :    0.036721
  12 C :   -0.055857
  13 H :    0.035541
  14 H :    0.030384
  15 H :    0.053973
  16 S :    0.090979
  17 C :   -0.113541
  18 C :   -0.055721
  19 C :   -0.064007
  20 C :   -0.149478
  21 H :    0.041451
  22 C :    0.143592
  23 H :    0.026496
  24 H :    0.011590
  25 C :   -0.055334
  26 H :    0.036638
  27 H :    0.018439
  28 C :   -0.086447
  29 H :    0.032228
  30 H :    0.012992
  31 H :    0.048602
  32 H :    0.041075
  33 H :    0.078335
Sum of atomic charges:   -0.0000000

LOEWDIN ATOMIC CHARGES
----------------------
   0 S :    0.421526
   1 C :   -0.220598
   2 C :   -0.062113
   3 C :   -0.056592
   4 C :   -0.191111
   5 H :    0.026250
   6 C :   -0.037989
   7 H :    0.025022
   8 H :    0.027998
   9 C :   -0.041489
  10 H :    0.027104
  11 H :    0.027318
  12 C :   -0.066442
  13 H :    0.027693
  14 H :    0.030201
  15 H :    0.028385
  16 S :    0.384380
  17 C :   -0.187654
  18 C :   -0.082030
  19 C :   -0.052996
  20 C :   -0.198881
  21 H :    0.043186
  22 C :   -0.005805
  23 H :    0.027033
  24 H :    0.022708
  25 C :   -0.033044
  26 H :    0.030558
  27 H :    0.013406
  28 C :   -0.082708
  29 H :    0.026232
  30 H :    0.022361
  31 H :    0.032321
  32 H :    0.029943
  33 H :    0.045828

  Mayer bond orders larger than 0.100000
B(  0-S ,  1-C ) :   1.1436 B(  0-S ,  4-C ) :   1.1542 B(  1-C ,  2-C ) :   1.5853
B(  1-C , 32-H ) :   0.9639 B(  2-C ,  3-C ) :   1.2592 B(  2-C ,  6-C ) :   1.0374
B(  3-C ,  4-C ) :   1.5120 B(  3-C ,  5-H ) :   0.9913 B(  4-C , 20-C ) :   1.0751
B(  6-C ,  7-H ) :   0.9397 B(  6-C ,  8-H ) :   0.9364 B(  6-C ,  9-C ) :   1.0649
B(  9-C , 10-H ) :   0.9530 B(  9-C , 11-H ) :   0.9584 B(  9-C , 12-C ) :   1.0729
B( 12-C , 13-H ) :   0.9726 B( 12-C , 14-H ) :   0.9730 B( 12-C , 15-H ) :   0.9718
B( 16-S , 17-C ) :   1.1259 B( 16-S , 20-C ) :   1.1289 B( 17-C , 18-C ) :   1.6646
B( 17-C , 33-H ) :   0.9579 B( 18-C , 19-C ) :   1.2032 B( 18-C , 21-H ) :   0.9770
B( 19-C , 20-C ) :   1.6170 B( 19-C , 22-C ) :   1.0344 B( 22-C , 23-H ) :   0.9343
B( 22-C , 24-H ) :   0.9315 B( 22-C , 25-C ) :   1.0712 B( 25-C , 26-H ) :   0.9556
B( 25-C , 27-H ) :   0.9582 B( 25-C , 28-C ) :   1.0716 B( 28-C , 29-H ) :   0.9754
B( 28-C , 30-H ) :   0.9721 B( 28-C , 31-H ) :   0.9778

Dispersion correction           -0.014697625
FINAL SINGLE POINT ENERGY     -1339.863757419911

DIPOLE MOMENT
-------------
                                X             Y             Z
Electronic contribution:      7.93092      -9.91538     -24.11279
Nuclear contribution   :     -8.03536      10.01943      24.76673
                        -----------------------------------------
Total Dipole Moment    :     -0.10443       0.10405       0.65394
                        -----------------------------------------
Magnitude (a.u.)       :      0.67035
Magnitude (Debye)      :      1.70390

Rotational constants in cm-1:     0.017188     0.009522     0.006996
Rotational constants in MHz :   515.294710   285.464615   209.744329

                             ****ORCA TERMINATED NORMALLY****
TOTAL RUN TIME: 0 days 0 hours 0 minutes 21 seconds 772 msec
