                         Program Version 4.2.1 -  RELEASE  -
|  1> ! wB97X-D3 SP def2-SVP
|  2> %pal
|  3> nprocs 24
|  4> end
|  5>
|  6> * xyz 0 1
|  7> S 	 -95.9038 	 46.5154 	 -88.3913
|  8> C 	 -95.5202 	 45.2008 	 -87.3604
|  9> C 	 -96.4303 	 44.1584 	 -87.6402
| 10> C 	 -97.5202 	 44.6667 	 -88.4788
| 11> C 	 -97.4211 	 45.9537 	 -88.8881
| 12> H 	 -98.3764 	 44.0482 	 -88.9217
| 13> C 	 -96.4057 	 42.709 	 -87.1708
| 14> H 	 -97.0716 	 42.1112 	 -87.7825
| 15> H 	 -96.6994 	 42.699 	 -86.1662
| 16> C 	 -95.0817 	 41.9803 	 -87.1827
| 17> H 	 -94.409 	 42.5305 	 -86.5118
| 18> H 	 -95.1884 	 40.9129 	 -86.8475
| 19> C 	 -94.4097 	 41.7526 	 -88.615
| 20> H 	 -94.1432 	 40.6612 	 -88.694
| 21> H 	 -95.0139 	 42.0026 	 -89.4766
| 22> H 	 -93.5613 	 42.4694 	 -88.6741
| 23> S 	 -100.082 	 46.5087 	 -89.5527
| 24> C 	 -100.386 	 47.7003 	 -90.7913
| 25> C 	 -99.2233 	 48.0816 	 -91.4004
| 26> C 	 -98.0111 	 47.5036 	 -90.8791
| 27> C 	 -98.3431 	 46.6044 	 -89.8574
| 28> H 	 -99.2207 	 48.8812 	 -92.1533
| 29> C 	 -96.6588 	 47.9597 	 -91.4348
| 30> H 	 -95.8926 	 47.7265 	 -90.6729
| 31> H 	 -96.6915 	 49.0538 	 -91.3398
| 32> C 	 -96.5033 	 47.4459 	 -92.8751
| 33> H 	 -96.8518 	 48.2532 	 -93.6373
| 34> H 	 -97.027 	 46.5372 	 -92.9866
| 35> C 	 -94.9975 	 47.1214 	 -93.1866
| 36> H 	 -94.2949 	 47.9764 	 -93.2439
| 37> H 	 -95.0417 	 46.8132 	 -94.2273
| 38> H 	 -94.6405 	 46.2203 	 -92.5596
| 39> H 	 -94.5941 	 45.095 	 -86.8206
| 40> H 	 -101.354 	 48.1439 	 -90.9824
| 41> *
| 42>
| 43>                          ****END OF INPUT****

CARTESIAN COORDINATES (ANGSTROEM)
---------------------------------
  S    -95.903800   46.515400  -88.391300
  C    -95.520200   45.200800  -87.360400
  C    -96.430300   44.158400  -87.640200
  C    -97.520200   44.666700  -88.478800
  C    -97.421100   45.953700  -88.888100
  H    -98.376400   44.048200  -88.921700
  C    -96.405700   42.709000  -87.170800
  H    -97.071600   42.111200  -87.782500
  H    -96.699400   42.699000  -86.166200
  C    -95.081700   41.980300  -87.182700
  H    -94.409000   42.530500  -86.511800
  H    -95.188400   40.912900  -86.847500
  C    -94.409700   41.752600  -88.615000
  H    -94.143200   40.661200  -88.694000
  H    -95.013900   42.002600  -89.476600
  H    -93.561300   42.469400  -88.674100
  S    -100.082000   46.508700  -89.552700
  C    -100.386000   47.700300  -90.791300
  C    -99.223300   48.081600  -91.400400
  C    -98.011100   47.503600  -90.879100
  C    -98.343100   46.604400  -89.857400
  H    -99.220700   48.881200  -92.153300
  C    -96.658800   47.959700  -91.434800
  H    -95.892600   47.726500  -90.672900
  H    -96.691500   49.053800  -91.339800
  C    -96.503300   47.445900  -92.875100
  H    -96.851800   48.253200  -93.637300
  H    -97.027000   46.537200  -92.986600
  C    -94.997500   47.121400  -93.186600
  H    -94.294900   47.976400  -93.243900
  H    -95.041700   46.813200  -94.227300
  H    -94.640500   46.220300  -92.559600
  H    -94.594100   45.095000  -86.820600
  H    -101.354000   48.143900  -90.982400

 Total Charge           Charge          ....    0
 Multiplicity           Mult            ....    1
 Number of Electrons    NEL             ....  134
 Basis Dimension        Dim             ....  322

ORBITAL ENERGIES
----------------

  NO   OCC          E(Eh)            E(eV)
   0   2.0000     -88.967428     -2420.9268
   1   2.0000     -88.964243     -2420.8401
   2   2.0000     -10.331927      -281.1460
   3   2.0000     -10.323516      -280.9171
   4   2.0000     -10.316232      -280.7190
   5   2.0000     -10.315136      -280.6891
   6   2.0000     -10.308631      -280.5121
   7   2.0000     -10.304748      -280.4064
   8   2.0000     -10.296506      -280.1822
   9   2.0000     -10.295403      -280.1522
  10   2.0000     -10.293645      -280.1043
  11   2.0000     -10.293072      -280.0887
  12   2.0000     -10.291648      -280.0500
  13   2.0000     -10.286110      -279.8993
  14   2.0000     -10.286042      -279.8974
  15   2.0000     -10.281719      -279.7798
  16   2.0000      -8.081834      -219.9179
  17   2.0000      -8.080061      -219.8696
  18   2.0000      -6.040452      -164.3690
  19   2.0000      -6.038564      -164.3177
  20   2.0000      -6.036462      -164.2605
  21   2.0000      -6.034325      -164.2023
  22   2.0000      -6.032426      -164.1507
  23   2.0000      -6.030842      -164.1075
  24   2.0000      -1.011125       -27.5141
  25   2.0000      -0.986579       -26.8462
  26   2.0000      -0.909877       -24.7590
  27   2.0000      -0.906611       -24.6701
  28   2.0000      -0.866871       -23.5888
  29   2.0000      -0.847602       -23.0644
  30   2.0000      -0.837458       -22.7884
  31   2.0000      -0.811299       -22.0766
  32   2.0000      -0.782790       -21.3008
  33   2.0000      -0.773785       -21.0558
  34   2.0000      -0.702831       -19.1250
  35   2.0000      -0.695073       -18.9139
  36   2.0000      -0.691195       -18.8084
  37   2.0000      -0.659559       -17.9475
  38   2.0000      -0.634579       -17.2678
  39   2.0000      -0.607305       -16.5256
  40   2.0000      -0.592297       -16.1172
  41   2.0000      -0.576537       -15.6884
  42   2.0000      -0.562948       -15.3186
  43   2.0000      -0.553978       -15.0745
  44   2.0000      -0.544341       -14.8123
  45   2.0000      -0.523675       -14.2499
  46   2.0000      -0.516232       -14.0474
  47   2.0000      -0.511355       -13.9147
  48   2.0000      -0.501068       -13.6347
  49   2.0000      -0.493083       -13.4175
  50   2.0000      -0.490384       -13.3440
  51   2.0000      -0.478409       -13.0182
  52   2.0000      -0.470125       -12.7928
  53   2.0000      -0.464813       -12.6482
  54   2.0000      -0.459963       -12.5162
  55   2.0000      -0.446910       -12.1610
  56   2.0000      -0.440215       -11.9789
  57   2.0000      -0.436948       -11.8900
  58   2.0000      -0.428835       -11.6692
  59   2.0000      -0.424069       -11.5395
  60   2.0000      -0.415267       -11.3000
  61   2.0000      -0.413186       -11.2434
  62   2.0000      -0.403975       -10.9927
  63   2.0000      -0.356141        -9.6911
  64   2.0000      -0.330342        -8.9891
  65   2.0000      -0.321695        -8.7538
  66   2.0000      -0.290874        -7.9151
  67   0.0000       0.032097         0.8734
  68   0.0000       0.075080         2.0430
  69   0.0000       0.106001         2.8844
  70   0.0000       0.118896         3.2353
  71   0.0000       0.127969         3.4822

MULLIKEN ATOMIC CHARGES
-----------------------
   0 S :    0.090035
   1 C :   -0.114661
   2 C :   -0.101657
   3 C :   -0.057237
   4 C :   -0.079802
   5 H :    0.040190
   6 C :    0.122707
   7 H :    0.021311
   8 H :    0.031441
   9 C :   -0.132042
  10 H :    0.031353
  11 H :    0.041972
  12 C :   -0.079166
  13 H :    0.045464
  14 H :    0.034134
  15 H :    0.039702
  16 S :    0.107176
  17 C :   -0.090265
  18 C :   -0.030541
  19 C :   -0.105646
  20 C :   -0.157829
  21 H :    0.019947
  22 C :    0.093743
  23 H :    0.023841
  24 H :    0.035519
  25 C :   -0.080308
  26 H :    0.051639
  27 H :    0.045565
  28 C :   -0.087743
  29 H :    0.042133
  30 H :    0.024943
  31 H :    0.060287
  32 H :    0.054257
  33 H :    0.059537
Sum of atomic charges:    0.0000000

LOEWDIN ATOMIC CHARGES
----------------------
   0 S :    0.451142
   1 C :   -0.216449
   2 C :   -0.056106
   3 C :   -0.087915
   4 C :   -0.214020
   5 H :    0.039037
   6 C :   -0.030656
   7 H :    0.029869
   8 H :    0.031267
   9 C :   -0.045252
  10 H :    0.019341
  11 H :    0.031884
  12 C :   -0.077040
  13 H :    0.032141
  14 H :    0.022428
  15 H :    0.030477
  16 S :    0.401192
  17 C :   -0.187076
  18 C :   -0.070845
  19 C :   -0.057681
  20 C :   -0.190881
  21 H :    0.031170
  22 C :   -0.040151
  23 H :    0.018823
  24 H :    0.037348
  25 C :   -0.036368
  26 H :    0.038180
  27 H :    0.023986
  28 C :   -0.076599
  29 H :    0.027015
  30 H :    0.022952
  31 H :    0.038454
  32 H :    0.028595
  33 H :    0.031740

  Mayer bond orders larger than 0.100000
B(  0-S ,  1-C ) :   1.1583 B(  0-S ,  4-C ) :   1.1624 B(  1-C ,  2-C ) :   1.5611
B(  1-C , 32-H ) :   0.9757 B(  2-C ,  3-C ) :   1.2714 B(  2-C ,  6-C ) :   1.0153
B(  3-C ,  4-C ) :   1.5537 B(  3-C ,  5-H ) :   0.9814 B(  4-C , 20-C ) :   1.0289
B(  6-C ,  7-H ) :   0.9458 B(  6-C ,  8-H ) :   0.9299 B(  6-C ,  9-C ) :   1.0854
B(  9-C , 10-H ) :   0.9617 B(  9-C , 11-H ) :   0.9659 B(  9-C , 12-C ) :   1.0417
B( 12-C , 13-H ) :   0.9852 B( 12-C , 14-H ) :   0.9820 B( 12-C , 15-H ) :   0.9790
B( 16-S , 17-C ) :   1.1373 B( 16-S , 20-C ) :   1.1405 B( 17-C , 18-C ) :   1.6317
B( 17-C , 33-H ) :   0.9687 B( 18-C , 19-C ) :   1.2270 B( 18-C , 21-H ) :   0.9846
B( 19-C , 20-C ) :   1.6016 B( 19-C , 22-C ) :   1.0350 B( 22-C , 23-H ) :   0.9385
B( 22-C , 24-H ) :   0.9282 B( 22-C , 25-C ) :   1.0311 B( 25-C , 26-H ) :   0.9500
B( 25-C , 27-H ) :   0.9651 B( 25-C , 28-C ) :   1.0874 B( 28-C , 29-H ) :   0.9744
B( 28-C , 30-H ) :   0.9746 B( 28-C , 31-H ) :   0.9748

Dispersion correction           -0.014035354
FINAL SINGLE POINT ENERGY     -1339.860105682893

DIPOLE MOMENT
-------------
                                X             Y             Z
Electronic contribution:    -17.11707      11.78116       9.05408
Nuclear contribution   :     17.32210     -11.87856      -9.38938
                        -----------------------------------------
Total Dipole Moment    :      0.20503      -0.09740      -0.33529
                        -----------------------------------------
Magnitude (a.u.)       :      0.40490
Magnitude (Debye)      :      1.02918

Rotational constants in cm-1:     0.019219     0.008304     0.006708
Rotational constants in MHz :   576.170280   248.953750   201.098083

                             ****ORCA TERMINATED NORMALLY****
TOTAL RUN TIME: 0 days 0 hours 0 minutes 19 seconds 947 msec
