                         Program Version 4.2.1 -  RELEASE  -
|  1> ! wB97X-D3 SP def2-SVP
|  2> %pal
|  3> nprocs 24
|  4> end
|  5>
|  6> * xyz 0 1
|  7> S 	 -106.77 	 52.2186 	 -110.959
|  8> C 	 -106.475 	 53.8608 	 -111.302
|  9> C 	 -106.882 	 54.6345 	 -110.23
| 10> C 	 -107.658 	 53.8998 	 -109.257
| 11> C 	 -107.76 	 52.5542 	 -109.618
| 12> H 	 -108.079 	 54.2853 	 -108.358
| 13> C 	 -106.528 	 56.1072 	 -110.068
| 14> H 	 -107.299 	 56.7161 	 -109.546
| 15> H 	 -106.536 	 56.4605 	 -111.138
| 16> C 	 -105.168 	 56.3683 	 -109.404
| 17> H 	 -104.398 	 55.8374 	 -109.908
| 18> H 	 -104.938 	 57.4168 	 -109.393
| 19> C 	 -105.248 	 55.8943 	 -107.958
| 20> H 	 -104.365 	 56.2552 	 -107.453
| 21> H 	 -106.045 	 56.3636 	 -107.358
| 22> H 	 -105.376 	 54.8076 	 -107.896
| 23> S 	 -107.826 	 50.1721 	 -108.323
| 24> C 	 -109.373 	 49.527 	 -107.806
| 25> C 	 -110.431 	 50.4176 	 -108.058
| 26> C 	 -110.003 	 51.5409 	 -108.782
| 27> C 	 -108.628 	 51.5336 	 -109.031
| 28> H 	 -111.467 	 50.2396 	 -107.835
| 29> C 	 -110.991 	 52.7119 	 -109.086
| 30> H 	 -110.524 	 53.6364 	 -108.847
| 31> H 	 -111.841 	 52.6881 	 -108.43
| 32> C 	 -111.511 	 52.8914 	 -110.48
| 33> H 	 -111.865 	 51.92 	 -110.799
| 34> H 	 -110.821 	 53.2246 	 -111.244
| 35> C 	 -112.831 	 53.8088 	 -110.544
| 36> H 	 -112.485 	 54.744 	 -110.55
| 37> H 	 -113.548 	 53.6479 	 -109.67
| 38> H 	 -113.377 	 53.4172 	 -111.381
| 39> H 	 -105.627 	 54.2158 	 -111.875
| 40> H 	 -109.493 	 48.6889 	 -107.149
| 41> *
| 42>
| 43>                          ****END OF INPUT****

CARTESIAN COORDINATES (ANGSTROEM)
---------------------------------
  S    -106.770000   52.218600  -110.959000
  C    -106.475000   53.860800  -111.302000
  C    -106.882000   54.634500  -110.230000
  C    -107.658000   53.899800  -109.257000
  C    -107.760000   52.554200  -109.618000
  H    -108.079000   54.285300  -108.358000
  C    -106.528000   56.107200  -110.068000
  H    -107.299000   56.716100  -109.546000
  H    -106.536000   56.460500  -111.138000
  C    -105.168000   56.368300  -109.404000
  H    -104.398000   55.837400  -109.908000
  H    -104.938000   57.416800  -109.393000
  C    -105.248000   55.894300  -107.958000
  H    -104.365000   56.255200  -107.453000
  H    -106.045000   56.363600  -107.358000
  H    -105.376000   54.807600  -107.896000
  S    -107.826000   50.172100  -108.323000
  C    -109.373000   49.527000  -107.806000
  C    -110.431000   50.417600  -108.058000
  C    -110.003000   51.540900  -108.782000
  C    -108.628000   51.533600  -109.031000
  H    -111.467000   50.239600  -107.835000
  C    -110.991000   52.711900  -109.086000
  H    -110.524000   53.636400  -108.847000
  H    -111.841000   52.688100  -108.430000
  C    -111.511000   52.891400  -110.480000
  H    -111.865000   51.920000  -110.799000
  H    -110.821000   53.224600  -111.244000
  C    -112.831000   53.808800  -110.544000
  H    -112.485000   54.744000  -110.550000
  H    -113.548000   53.647900  -109.670000
  H    -113.377000   53.417200  -111.381000
  H    -105.627000   54.215800  -111.875000
  H    -109.493000   48.688900  -107.149000

 Total Charge           Charge          ....    0
 Multiplicity           Mult            ....    1
 Number of Electrons    NEL             ....  134
 Basis Dimension        Dim             ....  322

ORBITAL ENERGIES
----------------

  NO   OCC          E(Eh)            E(eV)
   0   2.0000     -88.971119     -2421.0272
   1   2.0000     -88.964508     -2420.8473
   2   2.0000     -10.327012      -281.0123
   3   2.0000     -10.325511      -280.9714
   4   2.0000     -10.318966      -280.7933
   5   2.0000     -10.307290      -280.4756
   6   2.0000     -10.304029      -280.3869
   7   2.0000     -10.302852      -280.3549
   8   2.0000     -10.295185      -280.1462
   9   2.0000     -10.294646      -280.1316
  10   2.0000     -10.293878      -280.1107
  11   2.0000     -10.285265      -279.8763
  12   2.0000     -10.282491      -279.8008
  13   2.0000     -10.279367      -279.7158
  14   2.0000     -10.273946      -279.5683
  15   2.0000     -10.273819      -279.5648
  16   2.0000      -8.085893      -220.0283
  17   2.0000      -8.081023      -219.8958
  18   2.0000      -6.044196      -164.4709
  19   2.0000      -6.040390      -164.3674
  20   2.0000      -6.039319      -164.3382
  21   2.0000      -6.036884      -164.2720
  22   2.0000      -6.035241      -164.2273
  23   2.0000      -6.031922      -164.1370
  24   2.0000      -1.013472       -27.5780
  25   2.0000      -0.989189       -26.9172
  26   2.0000      -0.914329       -24.8802
  27   2.0000      -0.905500       -24.6399
  28   2.0000      -0.870252       -23.6808
  29   2.0000      -0.850979       -23.1563
  30   2.0000      -0.845794       -23.0152
  31   2.0000      -0.812913       -22.1205
  32   2.0000      -0.783580       -21.3223
  33   2.0000      -0.770732       -20.9727
  34   2.0000      -0.703482       -19.1427
  35   2.0000      -0.701395       -19.0859
  36   2.0000      -0.690278       -18.7834
  37   2.0000      -0.667905       -18.1746
  38   2.0000      -0.642322       -17.4785
  39   2.0000      -0.614062       -16.7095
  40   2.0000      -0.597680       -16.2637
  41   2.0000      -0.579626       -15.7724
  42   2.0000      -0.569069       -15.4852
  43   2.0000      -0.553758       -15.0685
  44   2.0000      -0.540048       -14.6955
  45   2.0000      -0.525071       -14.2879
  46   2.0000      -0.517282       -14.0760
  47   2.0000      -0.508338       -13.8326
  48   2.0000      -0.503604       -13.7038
  49   2.0000      -0.496359       -13.5066
  50   2.0000      -0.491298       -13.3689
  51   2.0000      -0.478222       -13.0131
  52   2.0000      -0.470716       -12.8088
  53   2.0000      -0.466426       -12.6921
  54   2.0000      -0.463664       -12.6169
  55   2.0000      -0.450077       -12.2472
  56   2.0000      -0.445948       -12.1349
  57   2.0000      -0.440341       -11.9823
  58   2.0000      -0.431956       -11.7541
  59   2.0000      -0.423985       -11.5372
  60   2.0000      -0.418930       -11.3997
  61   2.0000      -0.414377       -11.2758
  62   2.0000      -0.405701       -11.0397
  63   2.0000      -0.343388        -9.3441
  64   2.0000      -0.334278        -9.0962
  65   2.0000      -0.328131        -8.9289
  66   2.0000      -0.296238        -8.0610
  67   0.0000       0.030524         0.8306
  68   0.0000       0.061593         1.6760
  69   0.0000       0.106048         2.8857
  70   0.0000       0.124914         3.3991
  71   0.0000       0.128649         3.5007

MULLIKEN ATOMIC CHARGES
-----------------------
   0 S :    0.126129
   1 C :   -0.088577
   2 C :   -0.152023
   3 C :    0.058396
   4 C :   -0.169068
   5 H :    0.006408
   6 C :    0.016158
   7 H :    0.031222
   8 H :    0.033850
   9 C :   -0.013738
  10 H :    0.018295
  11 H :    0.028024
  12 C :   -0.077215
  13 H :    0.026643
  14 H :    0.021269
  15 H :    0.055717
  16 S :    0.122635
  17 C :   -0.083277
  18 C :   -0.043496
  19 C :   -0.012258
  20 C :   -0.169537
  21 H :    0.018306
  22 C :    0.115839
  23 H :    0.002644
  24 H :    0.000720
  25 C :   -0.089662
  26 H :    0.012476
  27 H :    0.042654
  28 C :   -0.042026
  29 H :    0.023546
  30 H :    0.030163
  31 H :    0.038707
  32 H :    0.057148
  33 H :    0.053929
Sum of atomic charges:   -0.0000000

LOEWDIN ATOMIC CHARGES
----------------------
   0 S :    0.450211
   1 C :   -0.228728
   2 C :   -0.059559
   3 C :   -0.063277
   4 C :   -0.212897
   5 H :    0.026359
   6 C :   -0.039578
   7 H :    0.030697
   8 H :    0.034313
   9 C :   -0.031900
  10 H :    0.019232
  11 H :    0.023189
  12 C :   -0.068080
  13 H :    0.023597
  14 H :    0.023497
  15 H :    0.029033
  16 S :    0.426088
  17 C :   -0.185684
  18 C :   -0.064436
  19 C :   -0.050575
  20 C :   -0.210452
  21 H :    0.031413
  22 C :   -0.028730
  23 H :    0.023442
  24 H :    0.026261
  25 C :   -0.033362
  26 H :    0.016726
  27 H :    0.026082
  28 C :   -0.051432
  29 H :    0.004678
  30 H :    0.030379
  31 H :    0.028163
  32 H :    0.030905
  33 H :    0.024426

  Mayer bond orders larger than 0.100000
B(  0-S ,  1-C ) :   1.1504 B(  0-S ,  4-C ) :   1.2018 B(  1-C ,  2-C ) :   1.5989
B(  1-C ,  4-C ) :   0.1026 B(  1-C , 32-H ) :   0.9563 B(  2-C ,  3-C ) :   1.2596
B(  2-C ,  6-C ) :   1.0162 B(  3-C ,  4-C ) :   1.5244 B(  3-C ,  5-H ) :   1.0044
B(  4-C , 20-C ) :   0.9964 B(  6-C ,  7-H ) :   0.9492 B(  6-C ,  8-H ) :   0.9422
B(  6-C ,  9-C ) :   1.0728 B(  9-C , 10-H ) :   0.9530 B(  9-C , 11-H ) :   0.9551
B(  9-C , 12-C ) :   1.0808 B( 12-C , 13-H ) :   0.9717 B( 12-C , 14-H ) :   0.9735
B( 12-C , 15-H ) :   0.9728 B( 16-S , 17-C ) :   1.1688 B( 16-S , 20-C ) :   1.1712
B( 17-C , 18-C ) :   1.5678 B( 17-C , 20-C ) :   0.1120 B( 17-C , 33-H ) :   0.9697
B( 18-C , 19-C ) :   1.2915 B( 18-C , 21-H ) :   0.9881 B( 19-C , 20-C ) :   1.5756
B( 19-C , 22-C ) :   1.0299 B( 22-C , 23-H ) :   0.9291 B( 22-C , 24-H ) :   0.9348
B( 22-C , 25-C ) :   1.0677 B( 25-C , 26-H ) :   0.9602 B( 25-C , 27-H ) :   0.9572
B( 25-C , 28-C ) :   1.0665 B( 28-C , 29-H ) :   0.9845 B( 28-C , 30-H ) :   0.9759
B( 28-C , 31-H ) :   0.9801

Dispersion correction           -0.014570308
FINAL SINGLE POINT ENERGY     -1339.863782656971

DIPOLE MOMENT
-------------
                                X             Y             Z
Electronic contribution:      9.10341     -22.26728      -1.08122
Nuclear contribution   :     -9.28140      22.75427       1.39390
                        -----------------------------------------
Total Dipole Moment    :     -0.17799       0.48699       0.31268
                        -----------------------------------------
Magnitude (a.u.)       :      0.60548
Magnitude (Debye)      :      1.53901

Rotational constants in cm-1:     0.017464     0.009058     0.007295
Rotational constants in MHz :   523.543870   271.542061   218.692376

                             ****ORCA TERMINATED NORMALLY****
TOTAL RUN TIME: 0 days 0 hours 0 minutes 21 seconds 922 msec
