                         Program Version 4.2.1 -  RELEASE  -
|  1> ! wB97X-D3 SP def2-SVP
|  2> %pal
|  3> nprocs 24
|  4> end
|  5>
|  6> * xyz 0 1
|  7> S 	 -107.416 	 43.7168 	 -9.33156
|  8> C 	 -108.395 	 44.5815 	 -10.5485
|  9> C 	 -108.073 	 44.1691 	 -11.8198
| 10> C 	 -107.048 	 43.1736 	 -11.8144
| 11> C 	 -106.631 	 42.7936 	 -10.5816
| 12> H 	 -106.515 	 42.7634 	 -12.6664
| 13> C 	 -108.627 	 44.7181 	 -13.0523
| 14> H 	 -107.891 	 45.3379 	 -13.4816
| 15> H 	 -109.406 	 45.3984 	 -12.6057
| 16> C 	 -109.395 	 43.6745 	 -13.9812
| 17> H 	 -108.754 	 42.8628 	 -14.2036
| 18> H 	 -110.296 	 43.306 	 -13.5911
| 19> C 	 -109.667 	 44.2173 	 -15.4517
| 20> H 	 -110.138 	 43.4275 	 -16.0098
| 21> H 	 -110.352 	 45.0057 	 -15.3407
| 22> H 	 -108.778 	 44.3835 	 -16.004
| 23> S 	 -103.992 	 42.9602 	 -9.85597
| 24> C 	 -102.949 	 41.5935 	 -10.0108
| 25> C 	 -103.762 	 40.4623 	 -10.1217
| 26> C 	 -105.145 	 40.6809 	 -10.2288
| 27> C 	 -105.414 	 42.0275 	 -10.3117
| 28> H 	 -103.235 	 39.5233 	 -10.124
| 29> C 	 -106.152 	 39.5452 	 -10.3668
| 30> H 	 -107.023 	 39.6477 	 -9.77427
| 31> H 	 -105.706 	 38.7152 	 -9.76879
| 32> C 	 -106.544 	 39.1515 	 -11.8529
| 33> H 	 -105.676 	 39.1086 	 -12.4744
| 34> H 	 -107.253 	 39.8839 	 -12.313
| 35> C 	 -107.306 	 37.7743 	 -11.8798
| 36> H 	 -108.196 	 37.7755 	 -11.2533
| 37> H 	 -106.559 	 37.0687 	 -11.5146
| 38> H 	 -107.61 	 37.383 	 -12.837
| 39> H 	 -109.117 	 45.3376 	 -10.461
| 40> H 	 -101.919 	 41.5875 	 -9.82041
| 41> *
| 42>
| 43>                          ****END OF INPUT****

CARTESIAN COORDINATES (ANGSTROEM)
---------------------------------
  S    -107.416000   43.716800   -9.331560
  C    -108.395000   44.581500  -10.548500
  C    -108.073000   44.169100  -11.819800
  C    -107.048000   43.173600  -11.814400
  C    -106.631000   42.793600  -10.581600
  H    -106.515000   42.763400  -12.666400
  C    -108.627000   44.718100  -13.052300
  H    -107.891000   45.337900  -13.481600
  H    -109.406000   45.398400  -12.605700
  C    -109.395000   43.674500  -13.981200
  H    -108.754000   42.862800  -14.203600
  H    -110.296000   43.306000  -13.591100
  C    -109.667000   44.217300  -15.451700
  H    -110.138000   43.427500  -16.009800
  H    -110.352000   45.005700  -15.340700
  H    -108.778000   44.383500  -16.004000
  S    -103.992000   42.960200   -9.855970
  C    -102.949000   41.593500  -10.010800
  C    -103.762000   40.462300  -10.121700
  C    -105.145000   40.680900  -10.228800
  C    -105.414000   42.027500  -10.311700
  H    -103.235000   39.523300  -10.124000
  C    -106.152000   39.545200  -10.366800
  H    -107.023000   39.647700   -9.774270
  H    -105.706000   38.715200   -9.768790
  C    -106.544000   39.151500  -11.852900
  H    -105.676000   39.108600  -12.474400
  H    -107.253000   39.883900  -12.313000
  C    -107.306000   37.774300  -11.879800
  H    -108.196000   37.775500  -11.253300
  H    -106.559000   37.068700  -11.514600
  H    -107.610000   37.383000  -12.837000
  H    -109.117000   45.337600  -10.461000
  H    -101.919000   41.587500   -9.820410

 Total Charge           Charge          ....    0
 Multiplicity           Mult            ....    1
 Number of Electrons    NEL             ....  134
 Basis Dimension        Dim             ....  322

ORBITAL ENERGIES
----------------

  NO   OCC          E(Eh)            E(eV)
   0   2.0000     -88.965685     -2420.8794
   1   2.0000     -88.961634     -2420.7691
   2   2.0000     -10.323900      -280.9276
   3   2.0000     -10.323318      -280.9118
   4   2.0000     -10.312110      -280.6068
   5   2.0000     -10.310345      -280.5588
   6   2.0000     -10.302031      -280.3325
   7   2.0000     -10.294894      -280.1383
   8   2.0000     -10.294031      -280.1148
   9   2.0000     -10.293062      -280.0885
  10   2.0000     -10.292065      -280.0613
  11   2.0000     -10.290064      -280.0069
  12   2.0000     -10.287825      -279.9459
  13   2.0000     -10.287584      -279.9394
  14   2.0000     -10.277293      -279.6594
  15   2.0000     -10.272552      -279.5303
  16   2.0000      -8.079861      -219.8642
  17   2.0000      -8.076783      -219.7804
  18   2.0000      -6.038463      -164.3149
  19   2.0000      -6.035165      -164.2252
  20   2.0000      -6.034506      -164.2073
  21   2.0000      -6.031199      -164.1173
  22   2.0000      -6.030483      -164.0978
  23   2.0000      -6.027669      -164.0212
  24   2.0000      -1.008729       -27.4489
  25   2.0000      -0.986268       -26.8377
  26   2.0000      -0.910688       -24.7811
  27   2.0000      -0.899489       -24.4763
  28   2.0000      -0.868264       -23.6267
  29   2.0000      -0.849374       -23.1126
  30   2.0000      -0.846341       -23.0301
  31   2.0000      -0.816922       -22.2296
  32   2.0000      -0.781360       -21.2619
  33   2.0000      -0.772694       -21.0261
  34   2.0000      -0.714058       -19.4305
  35   2.0000      -0.705770       -19.2050
  36   2.0000      -0.698568       -19.0090
  37   2.0000      -0.661888       -18.0109
  38   2.0000      -0.641159       -17.4468
  39   2.0000      -0.617310       -16.7979
  40   2.0000      -0.598873       -16.2962
  41   2.0000      -0.571386       -15.5482
  42   2.0000      -0.564286       -15.3550
  43   2.0000      -0.554322       -15.0839
  44   2.0000      -0.527598       -14.3567
  45   2.0000      -0.524965       -14.2850
  46   2.0000      -0.521405       -14.1881
  47   2.0000      -0.515702       -14.0330
  48   2.0000      -0.511329       -13.9140
  49   2.0000      -0.497644       -13.5416
  50   2.0000      -0.494310       -13.4509
  51   2.0000      -0.476777       -12.9738
  52   2.0000      -0.468665       -12.7530
  53   2.0000      -0.463322       -12.6076
  54   2.0000      -0.458672       -12.4811
  55   2.0000      -0.446404       -12.1473
  56   2.0000      -0.443015       -12.0551
  57   2.0000      -0.440021       -11.9736
  58   2.0000      -0.435138       -11.8407
  59   2.0000      -0.427369       -11.6293
  60   2.0000      -0.419554       -11.4166
  61   2.0000      -0.413734       -11.2583
  62   2.0000      -0.410440       -11.1686
  63   2.0000      -0.336050        -9.1444
  64   2.0000      -0.328921        -8.9504
  65   2.0000      -0.323896        -8.8137
  66   2.0000      -0.305648        -8.3171
  67   0.0000       0.042491         1.1562
  68   0.0000       0.054204         1.4750
  69   0.0000       0.117719         3.2033
  70   0.0000       0.124692         3.3930
  71   0.0000       0.130505         3.5512

MULLIKEN ATOMIC CHARGES
-----------------------
   0 S :    0.108662
   1 C :   -0.085496
   2 C :   -0.118078
   3 C :    0.049224
   4 C :   -0.153612
   5 H :    0.015938
   6 C :    0.089068
   7 H :    0.036195
   8 H :    0.011332
   9 C :   -0.065345
  10 H :    0.021790
  11 H :    0.026300
  12 C :   -0.030930
  13 H :    0.022372
  14 H :    0.028422
  15 H :    0.029785
  16 S :    0.112463
  17 C :   -0.076170
  18 C :   -0.058612
  19 C :    0.014471
  20 C :   -0.199695
  21 H :    0.011147
  22 C :    0.073806
  23 H :    0.016260
  24 H :    0.017628
  25 C :   -0.064355
  26 H :    0.028082
  27 H :    0.044422
  28 C :   -0.057831
  29 H :    0.035625
  30 H :    0.027432
  31 H :    0.029986
  32 H :    0.017112
  33 H :    0.042603
Sum of atomic charges:   -0.0000000

LOEWDIN ATOMIC CHARGES
----------------------
   0 S :    0.392913
   1 C :   -0.183124
   2 C :   -0.066264
   3 C :   -0.055975
   4 C :   -0.200762
   5 H :    0.033041
   6 C :   -0.031154
   7 H :    0.030741
   8 H :    0.035613
   9 C :   -0.020474
  10 H :    0.016317
  11 H :    0.019804
  12 C :   -0.053890
  13 H :    0.025172
  14 H :    0.016920
  15 H :    0.020916
  16 S :    0.415434
  17 C :   -0.187635
  18 C :   -0.072863
  19 C :   -0.060393
  20 C :   -0.192610
  21 H :    0.027344
  22 C :   -0.030595
  23 H :    0.026765
  24 H :    0.035894
  25 C :   -0.031525
  26 H :    0.018921
  27 H :    0.028717
  28 C :   -0.067922
  29 H :    0.024820
  30 H :    0.024253
  31 H :    0.022159
  32 H :    0.018590
  33 H :    0.020850

  Mayer bond orders larger than 0.100000
B(  0-S ,  1-C ) :   1.1145 B(  0-S ,  4-C ) :   1.1421 B(  1-C ,  2-C ) :   1.6492
B(  1-C , 32-H ) :   0.9641 B(  2-C ,  3-C ) :   1.2045 B(  2-C ,  6-C ) :   1.0333
B(  3-C ,  4-C ) :   1.6234 B(  3-C ,  5-H ) :   0.9887 B(  4-C , 20-C ) :   1.0128
B(  6-C ,  7-H ) :   0.9389 B(  6-C ,  8-H ) :   0.9327 B(  6-C ,  9-C ) :   1.0438
B(  9-C , 10-H ) :   0.9670 B(  9-C , 11-H ) :   0.9610 B(  9-C , 12-C ) :   1.0804
B( 12-C , 13-H ) :   0.9744 B( 12-C , 14-H ) :   0.9798 B( 12-C , 15-H ) :   0.9796
B( 16-S , 17-C ) :   1.1646 B( 16-S , 20-C ) :   1.1635 B( 17-C , 18-C ) :   1.5834
B( 17-C , 20-C ) :   0.1101 B( 17-C , 33-H ) :   0.9768 B( 18-C , 19-C ) :   1.2557
B( 18-C , 21-H ) :   0.9931 B( 19-C , 20-C ) :   1.5752 B( 19-C , 22-C ) :   1.0440
B( 22-C , 23-H ) :   0.9303 B( 22-C , 24-H ) :   0.9379 B( 22-C , 25-C ) :   1.0453
B( 25-C , 26-H ) :   0.9629 B( 25-C , 27-H ) :   0.9564 B( 25-C , 28-C ) :   1.0714
B( 28-C , 29-H ) :   0.9770 B( 28-C , 30-H ) :   0.9792 B( 28-C , 31-H ) :   0.9765

Dispersion correction           -0.013815783
FINAL SINGLE POINT ENERGY     -1339.856846302783

DIPOLE MOMENT
-------------
                                X             Y             Z
Electronic contribution:     15.19372      12.52203      21.98874
Nuclear contribution   :    -15.32667     -12.81384     -22.50918
                        -----------------------------------------
Total Dipole Moment    :     -0.13295      -0.29181      -0.52043
                        -----------------------------------------
Magnitude (a.u.)       :      0.61129
Magnitude (Debye)      :      1.55379

Rotational constants in cm-1:     0.016214     0.008821     0.006810
Rotational constants in MHz :   486.071395   264.435194   204.157868

                             ****ORCA TERMINATED NORMALLY****
TOTAL RUN TIME: 0 days 0 hours 0 minutes 20 seconds 109 msec
