                         Program Version 4.2.1 -  RELEASE  -
|  1> ! wB97X-D3 SP def2-SVP
|  2> %pal
|  3> nprocs 24
|  4> end
|  5>
|  6> * xyz 0 1
|  7> S 	 -29.4324 	 8.72371 	 3.92921
|  8> C 	 -28.2605 	 9.93957 	 3.28794
|  9> C 	 -27.824 	 10.6812 	 4.35549
| 10> C 	 -28.2319 	 10.1773 	 5.64178
| 11> C 	 -29.0213 	 9.032 	 5.58769
| 12> H 	 -28.0087 	 10.5101 	 6.65655
| 13> C 	 -26.8413 	 11.8028 	 4.13507
| 14> H 	 -27.2779 	 12.6997 	 4.6771
| 15> H 	 -26.8208 	 12.0092 	 3.10446
| 16> C 	 -25.4636 	 11.611 	 4.72581
| 17> H 	 -25.652 	 11.4396 	 5.77872
| 18> H 	 -25.071 	 10.7031 	 4.37904
| 19> C 	 -24.4724 	 12.8107 	 4.56809
| 20> H 	 -23.433 	 12.6221 	 4.91026
| 21> H 	 -24.4203 	 13.1623 	 3.5308
| 22> H 	 -24.7736 	 13.7218 	 5.17372
| 23> S 	 -31.0319 	 7.52801 	 6.66644
| 24> C 	 -30.9077 	 6.80524 	 8.2771
| 25> C 	 -29.5975 	 6.8955 	 8.62671
| 26> C 	 -28.7034 	 7.51675 	 7.67522
| 27> C 	 -29.4286 	 8.12923 	 6.61927
| 28> H 	 -29.3236 	 6.53132 	 9.65367
| 29> C 	 -27.2285 	 7.67816 	 8.06878
| 30> H 	 -26.7688 	 8.30407 	 7.37075
| 31> H 	 -26.7759 	 6.69332 	 7.91231
| 32> C 	 -26.8633 	 8.30305 	 9.38647
| 33> H 	 -25.8785 	 7.96961 	 9.50917
| 34> H 	 -27.3234 	 7.82518 	 10.2047
| 35> C 	 -27.1261 	 9.79731 	 9.48753
| 36> H 	 -26.8831 	 10.2023 	 10.4924
| 37> H 	 -28.1995 	 9.8927 	 9.48388
| 38> H 	 -26.6813 	 10.3134 	 8.6211
| 39> H 	 -28.2426 	 10.2097 	 2.20835
| 40> H 	 -31.6084 	 6.45127 	 9.07463
| 41> *
| 42>
| 43>                          ****END OF INPUT****

CARTESIAN COORDINATES (ANGSTROEM)
---------------------------------
  S    -29.432400    8.723710    3.929210
  C    -28.260500    9.939570    3.287940
  C    -27.824000   10.681200    4.355490
  C    -28.231900   10.177300    5.641780
  C    -29.021300    9.032000    5.587690
  H    -28.008700   10.510100    6.656550
  C    -26.841300   11.802800    4.135070
  H    -27.277900   12.699700    4.677100
  H    -26.820800   12.009200    3.104460
  C    -25.463600   11.611000    4.725810
  H    -25.652000   11.439600    5.778720
  H    -25.071000   10.703100    4.379040
  C    -24.472400   12.810700    4.568090
  H    -23.433000   12.622100    4.910260
  H    -24.420300   13.162300    3.530800
  H    -24.773600   13.721800    5.173720
  S    -31.031900    7.528010    6.666440
  C    -30.907700    6.805240    8.277100
  C    -29.597500    6.895500    8.626710
  C    -28.703400    7.516750    7.675220
  C    -29.428600    8.129230    6.619270
  H    -29.323600    6.531320    9.653670
  C    -27.228500    7.678160    8.068780
  H    -26.768800    8.304070    7.370750
  H    -26.775900    6.693320    7.912310
  C    -26.863300    8.303050    9.386470
  H    -25.878500    7.969610    9.509170
  H    -27.323400    7.825180   10.204700
  C    -27.126100    9.797310    9.487530
  H    -26.883100   10.202300   10.492400
  H    -28.199500    9.892700    9.483880
  H    -26.681300   10.313400    8.621100
  H    -28.242600   10.209700    2.208350
  H    -31.608400    6.451270    9.074630

 Total Charge           Charge          ....    0
 Multiplicity           Mult            ....    1
 Number of Electrons    NEL             ....  134
 Basis Dimension        Dim             ....  322

ORBITAL ENERGIES
----------------

  NO   OCC          E(Eh)            E(eV)
   0   2.0000     -88.965974     -2420.8872
   1   2.0000     -88.959700     -2420.7165
   2   2.0000     -10.333377      -281.1855
   3   2.0000     -10.331786      -281.1422
   4   2.0000     -10.321904      -280.8733
   5   2.0000     -10.321229      -280.8549
   6   2.0000     -10.309418      -280.5335
   7   2.0000     -10.307473      -280.4806
   8   2.0000     -10.300469      -280.2900
   9   2.0000     -10.295712      -280.1606
  10   2.0000     -10.290789      -280.0266
  11   2.0000     -10.289918      -280.0029
  12   2.0000     -10.285808      -279.8911
  13   2.0000     -10.284454      -279.8542
  14   2.0000     -10.283089      -279.8171
  15   2.0000     -10.276809      -279.6462
  16   2.0000      -8.080951      -219.8939
  17   2.0000      -8.074543      -219.7195
  18   2.0000      -6.039650      -164.3472
  19   2.0000      -6.035338      -164.2299
  20   2.0000      -6.033171      -164.1709
  21   2.0000      -6.031513      -164.1258
  22   2.0000      -6.029011      -164.0577
  23   2.0000      -6.025167      -163.9531
  24   2.0000      -1.010441       -27.4955
  25   2.0000      -0.985144       -26.8071
  26   2.0000      -0.918915       -25.0049
  27   2.0000      -0.915769       -24.9193
  28   2.0000      -0.875278       -23.8175
  29   2.0000      -0.846631       -23.0380
  30   2.0000      -0.838996       -22.8302
  31   2.0000      -0.821813       -22.3627
  32   2.0000      -0.784432       -21.3455
  33   2.0000      -0.775778       -21.1100
  34   2.0000      -0.720209       -19.5979
  35   2.0000      -0.703982       -19.1563
  36   2.0000      -0.697657       -18.9842
  37   2.0000      -0.652583       -17.7577
  38   2.0000      -0.643030       -17.4977
  39   2.0000      -0.619911       -16.8686
  40   2.0000      -0.598378       -16.2827
  41   2.0000      -0.571298       -15.5458
  42   2.0000      -0.563995       -15.3471
  43   2.0000      -0.560204       -15.2439
  44   2.0000      -0.538455       -14.6521
  45   2.0000      -0.524626       -14.2758
  46   2.0000      -0.521628       -14.1942
  47   2.0000      -0.516690       -14.0598
  48   2.0000      -0.505243       -13.7484
  49   2.0000      -0.504121       -13.7178
  50   2.0000      -0.494952       -13.4683
  51   2.0000      -0.480405       -13.0725
  52   2.0000      -0.475086       -12.9277
  53   2.0000      -0.467962       -12.7339
  54   2.0000      -0.458402       -12.4737
  55   2.0000      -0.449741       -12.2381
  56   2.0000      -0.446652       -12.1540
  57   2.0000      -0.438441       -11.9306
  58   2.0000      -0.433860       -11.8059
  59   2.0000      -0.425158       -11.5691
  60   2.0000      -0.422348       -11.4927
  61   2.0000      -0.413109       -11.2413
  62   2.0000      -0.403553       -10.9812
  63   2.0000      -0.353806        -9.6276
  64   2.0000      -0.328720        -8.9449
  65   2.0000      -0.326432        -8.8827
  66   2.0000      -0.294684        -8.0187
  67   0.0000       0.022337         0.6078
  68   0.0000       0.066735         1.8160
  69   0.0000       0.100727         2.7409
  70   0.0000       0.121040         3.2937
  71   0.0000       0.125464         3.4140

MULLIKEN ATOMIC CHARGES
-----------------------
   0 S :    0.082014
   1 C :   -0.139412
   2 C :   -0.086495
   3 C :    0.033916
   4 C :   -0.141885
   5 H :   -0.001880
   6 C :    0.081147
   7 H :    0.032469
   8 H :   -0.000100
   9 C :   -0.039832
  10 H :    0.019996
  11 H :    0.016964
  12 C :   -0.073834
  13 H :    0.043489
  14 H :    0.034542
  15 H :    0.035639
  16 S :    0.105181
  17 C :   -0.089386
  18 C :   -0.084735
  19 C :   -0.043933
  20 C :   -0.146114
  21 H :    0.036925
  22 C :    0.077750
  23 H :   -0.008237
  24 H :    0.037823
  25 C :   -0.016106
  26 H :    0.008220
  27 H :   -0.000741
  28 C :   -0.048983
  29 H :    0.040177
  30 H :    0.034610
  31 H :    0.047323
  32 H :    0.077471
  33 H :    0.076017
Sum of atomic charges:   -0.0000000

LOEWDIN ATOMIC CHARGES
----------------------
   0 S :    0.378738
   1 C :   -0.185279
   2 C :   -0.060671
   3 C :   -0.069930
   4 C :   -0.185533
   5 H :    0.030744
   6 C :   -0.027847
   7 H :    0.038592
   8 H :    0.018059
   9 C :   -0.037634
  10 H :    0.022994
  11 H :    0.016934
  12 C :   -0.073342
  13 H :    0.030899
  14 H :    0.024435
  15 H :    0.031270
  16 S :    0.414504
  17 C :   -0.198842
  18 C :   -0.081318
  19 C :   -0.055776
  20 C :   -0.212945
  21 H :    0.036033
  22 C :   -0.028719
  23 H :    0.019306
  24 H :    0.039328
  25 C :   -0.037120
  26 H :    0.020417
  27 H :    0.014264
  28 C :   -0.063178
  29 H :    0.033905
  30 H :    0.028016
  31 H :    0.025247
  32 H :    0.040982
  33 H :    0.053468

  Mayer bond orders larger than 0.100000
B(  0-S ,  1-C ) :   1.1129 B(  0-S ,  4-C ) :   1.1543 B(  1-C ,  2-C ) :   1.6221
B(  1-C ,  4-C ) :   0.1007 B(  1-C , 32-H ) :   0.9638 B(  2-C ,  3-C ) :   1.1948
B(  2-C ,  6-C ) :   1.0438 B(  3-C ,  4-C ) :   1.5812 B(  3-C ,  5-H ) :   0.9985
B(  4-C , 20-C ) :   1.0619 B(  6-C ,  7-H ) :   0.9322 B(  6-C ,  8-H ) :   0.9381
B(  6-C ,  9-C ) :   1.0603 B(  9-C , 10-H ) :   0.9533 B(  9-C , 11-H ) :   0.9556
B(  9-C , 12-C ) :   1.0737 B( 12-C , 13-H ) :   0.9762 B( 12-C , 14-H ) :   0.9777
B( 12-C , 15-H ) :   0.9748 B( 16-S , 17-C ) :   1.1296 B( 16-S , 20-C ) :   1.1477
B( 17-C , 18-C ) :   1.6495 B( 17-C , 33-H ) :   0.9595 B( 18-C , 19-C ) :   1.2270
B( 18-C , 21-H ) :   0.9748 B( 19-C , 20-C ) :   1.5422 B( 19-C , 22-C ) :   1.0493
B( 22-C , 23-H ) :   0.9321 B( 22-C , 24-H ) :   0.9238 B( 22-C , 25-C ) :   1.0784
B( 25-C , 26-H ) :   0.9450 B( 25-C , 27-H ) :   0.9467 B( 25-C , 28-C ) :   1.0725
B( 28-C , 29-H ) :   0.9684 B( 28-C , 30-H ) :   0.9717 B( 28-C , 31-H ) :   0.9694

Dispersion correction           -0.014722447
FINAL SINGLE POINT ENERGY     -1339.857920754570

DIPOLE MOMENT
-------------
                                X             Y             Z
Electronic contribution:    -25.66479     -16.10401     -10.15639
Nuclear contribution   :     26.26459      16.40153      10.69732
                        -----------------------------------------
Total Dipole Moment    :      0.59980       0.29752       0.54093
                        -----------------------------------------
Magnitude (a.u.)       :      0.86074
Magnitude (Debye)      :      2.18783

Rotational constants in cm-1:     0.018885     0.009234     0.006567
Rotational constants in MHz :   566.145752   276.832670   196.867986

                             ****ORCA TERMINATED NORMALLY****
TOTAL RUN TIME: 0 days 0 hours 0 minutes 22 seconds 131 msec
