                         Program Version 4.2.1 -  RELEASE  -
|  1> ! wB97X-D3 SP def2-SVP
|  2> %pal
|  3> nprocs 24
|  4> end
|  5>
|  6> * xyz 0 1
|  7> S 	 34.4688 	 -28.4386 	 -112.173
|  8> C 	 34.6138 	 -27.9 	 -110.415
|  9> C 	 35.6665 	 -28.5821 	 -109.785
| 10> C 	 36.4037 	 -29.4676 	 -110.703
| 11> C 	 35.9614 	 -29.3766 	 -112.004
| 12> H 	 37.3463 	 -29.9572 	 -110.555
| 13> C 	 36.0016 	 -28.4366 	 -108.294
| 14> H 	 36.6031 	 -29.3727 	 -108.09
| 15> H 	 35.1381 	 -28.4884 	 -107.73
| 16> C 	 36.8417 	 -27.2176 	 -107.908
| 17> H 	 37.7684 	 -27.0874 	 -108.514
| 18> H 	 36.2563 	 -26.4067 	 -108.222
| 19> C 	 37.2929 	 -27.1969 	 -106.433
| 20> H 	 36.5612 	 -27.2721 	 -105.595
| 21> H 	 37.8687 	 -28.1195 	 -106.242
| 22> H 	 37.921 	 -26.2993 	 -106.291
| 23> S 	 35.4716 	 -31.2438 	 -113.886
| 24> C 	 36.7155 	 -31.5326 	 -115.036
| 25> C 	 37.9278 	 -30.8554 	 -114.771
| 26> C 	 37.7875 	 -29.9918 	 -113.665
| 27> C 	 36.474 	 -30.058 	 -113.154
| 28> H 	 38.7695 	 -31.0059 	 -115.473
| 29> C 	 38.9238 	 -29.2605 	 -113.071
| 30> H 	 39.3386 	 -30.111 	 -112.489
| 31> H 	 38.5027 	 -28.4886 	 -112.498
| 32> C 	 39.7937 	 -28.5107 	 -114
| 33> H 	 39.1821 	 -27.6852 	 -114.275
| 34> H 	 40.2348 	 -29.0626 	 -114.886
| 35> C 	 41.0218 	 -28.0089 	 -113.299
| 36> H 	 41.6002 	 -28.8703 	 -112.824
| 37> H 	 40.7147 	 -27.2028 	 -112.538
| 38> H 	 41.6988 	 -27.4879 	 -113.935
| 39> H 	 33.812 	 -27.2607 	 -110.017
| 40> H 	 36.7169 	 -32.2985 	 -115.785
| 41> *
| 42>
| 43>                          ****END OF INPUT****

CARTESIAN COORDINATES (ANGSTROEM)
---------------------------------
  S     34.468800  -28.438600  -112.173000
  C     34.613800  -27.900000  -110.415000
  C     35.666500  -28.582100  -109.785000
  C     36.403700  -29.467600  -110.703000
  C     35.961400  -29.376600  -112.004000
  H     37.346300  -29.957200  -110.555000
  C     36.001600  -28.436600  -108.294000
  H     36.603100  -29.372700  -108.090000
  H     35.138100  -28.488400  -107.730000
  C     36.841700  -27.217600  -107.908000
  H     37.768400  -27.087400  -108.514000
  H     36.256300  -26.406700  -108.222000
  C     37.292900  -27.196900  -106.433000
  H     36.561200  -27.272100  -105.595000
  H     37.868700  -28.119500  -106.242000
  H     37.921000  -26.299300  -106.291000
  S     35.471600  -31.243800  -113.886000
  C     36.715500  -31.532600  -115.036000
  C     37.927800  -30.855400  -114.771000
  C     37.787500  -29.991800  -113.665000
  C     36.474000  -30.058000  -113.154000
  H     38.769500  -31.005900  -115.473000
  C     38.923800  -29.260500  -113.071000
  H     39.338600  -30.111000  -112.489000
  H     38.502700  -28.488600  -112.498000
  C     39.793700  -28.510700  -114.000000
  H     39.182100  -27.685200  -114.275000
  H     40.234800  -29.062600  -114.886000
  C     41.021800  -28.008900  -113.299000
  H     41.600200  -28.870300  -112.824000
  H     40.714700  -27.202800  -112.538000
  H     41.698800  -27.487900  -113.935000
  H     33.812000  -27.260700  -110.017000
  H     36.716900  -32.298500  -115.785000

 Total Charge           Charge          ....    0
 Multiplicity           Mult            ....    1
 Number of Electrons    NEL             ....  134
 Basis Dimension        Dim             ....  322

ORBITAL ENERGIES
----------------

  NO   OCC          E(Eh)            E(eV)
   0   2.0000     -88.970646     -2421.0144
   1   2.0000     -88.960201     -2420.7301
   2   2.0000     -10.326195      -280.9900
   3   2.0000     -10.323804      -280.9250
   4   2.0000     -10.316434      -280.7244
   5   2.0000     -10.313016      -280.6314
   6   2.0000     -10.312922      -280.6289
   7   2.0000     -10.300160      -280.2816
   8   2.0000     -10.296076      -280.1705
   9   2.0000     -10.294363      -280.1239
  10   2.0000     -10.291268      -280.0396
  11   2.0000     -10.286741      -279.9165
  12   2.0000     -10.285900      -279.8936
  13   2.0000     -10.284185      -279.8469
  14   2.0000     -10.284003      -279.8419
  15   2.0000     -10.283540      -279.8293
  16   2.0000      -8.086097      -220.0339
  17   2.0000      -8.073759      -219.6981
  18   2.0000      -6.044279      -164.4732
  19   2.0000      -6.040592      -164.3729
  20   2.0000      -6.037083      -164.2774
  21   2.0000      -6.032315      -164.1476
  22   2.0000      -6.028584      -164.0461
  23   2.0000      -6.024393      -163.9321
  24   2.0000      -1.008051       -27.4305
  25   2.0000      -0.972025       -26.4501
  26   2.0000      -0.928831       -25.2748
  27   2.0000      -0.909199       -24.7406
  28   2.0000      -0.865243       -23.5445
  29   2.0000      -0.861054       -23.4305
  30   2.0000      -0.838561       -22.8184
  31   2.0000      -0.811335       -22.0776
  32   2.0000      -0.785009       -21.3612
  33   2.0000      -0.767200       -20.8766
  34   2.0000      -0.705841       -19.2069
  35   2.0000      -0.700594       -19.0641
  36   2.0000      -0.693996       -18.8846
  37   2.0000      -0.654791       -17.8178
  38   2.0000      -0.643875       -17.5207
  39   2.0000      -0.615337       -16.7442
  40   2.0000      -0.600803       -16.3487
  41   2.0000      -0.581874       -15.8336
  42   2.0000      -0.562633       -15.3100
  43   2.0000      -0.553936       -15.0734
  44   2.0000      -0.529471       -14.4076
  45   2.0000      -0.525289       -14.2938
  46   2.0000      -0.521806       -14.1991
  47   2.0000      -0.514626       -14.0037
  48   2.0000      -0.509848       -13.8737
  49   2.0000      -0.497537       -13.5387
  50   2.0000      -0.485535       -13.2121
  51   2.0000      -0.475553       -12.9405
  52   2.0000      -0.467441       -12.7197
  53   2.0000      -0.459950       -12.5159
  54   2.0000      -0.453955       -12.3527
  55   2.0000      -0.451628       -12.2894
  56   2.0000      -0.448800       -12.2125
  57   2.0000      -0.438347       -11.9280
  58   2.0000      -0.433288       -11.7904
  59   2.0000      -0.427253       -11.6261
  60   2.0000      -0.418323       -11.3831
  61   2.0000      -0.414447       -11.2777
  62   2.0000      -0.410704       -11.1758
  63   2.0000      -0.339600        -9.2410
  64   2.0000      -0.330574        -8.9954
  65   2.0000      -0.326859        -8.8943
  66   2.0000      -0.290954        -7.9172
  67   0.0000       0.032728         0.8906
  68   0.0000       0.063089         1.7167
  69   0.0000       0.103248         2.8095
  70   0.0000       0.117294         3.1917
  71   0.0000       0.129402         3.5212

MULLIKEN ATOMIC CHARGES
-----------------------
   0 S :    0.074844
   1 C :   -0.141423
   2 C :   -0.092808
   3 C :    0.064512
   4 C :   -0.191610
   5 H :    0.011925
   6 C :    0.076054
   7 H :    0.022777
   8 H :    0.017235
   9 C :   -0.046248
  10 H :    0.031145
  11 H :    0.011721
  12 C :   -0.065497
  13 H :    0.034130
  14 H :    0.028362
  15 H :    0.046458
  16 S :    0.148431
  17 C :   -0.082338
  18 C :   -0.074650
  19 C :   -0.033878
  20 C :   -0.173538
  21 H :    0.032270
  22 C :    0.097991
  23 H :    0.053818
  24 H :    0.017766
  25 C :   -0.082977
  26 H :    0.030338
  27 H :    0.038897
  28 C :   -0.058954
  29 H :    0.040139
  30 H :    0.031184
  31 H :    0.025832
  32 H :    0.066334
  33 H :    0.041756
Sum of atomic charges:   -0.0000000

LOEWDIN ATOMIC CHARGES
----------------------
   0 S :    0.346795
   1 C :   -0.176346
   2 C :   -0.051325
   3 C :   -0.065609
   4 C :   -0.181599
   5 H :    0.030401
   6 C :   -0.026937
   7 H :    0.033734
   8 H :    0.020597
   9 C :   -0.039429
  10 H :    0.032287
  11 H :    0.014682
  12 C :   -0.073948
  13 H :    0.026600
  14 H :    0.027387
  15 H :    0.031757
  16 S :    0.448149
  17 C :   -0.195739
  18 C :   -0.074373
  19 C :   -0.048449
  20 C :   -0.230763
  21 H :    0.037192
  22 C :   -0.034990
  23 H :    0.043419
  24 H :    0.030736
  25 C :   -0.044178
  26 H :    0.028514
  27 H :    0.028178
  28 C :   -0.068670
  29 H :    0.031840
  30 H :    0.030028
  31 H :    0.017765
  32 H :    0.031007
  33 H :    0.021288

  Mayer bond orders larger than 0.100000
B(  0-S ,  1-C ) :   1.1028 B(  0-S ,  4-C ) :   1.1363 B(  1-C ,  2-C ) :   1.6364
B(  1-C , 32-H ) :   0.9724 B(  2-C ,  3-C ) :   1.1930 B(  2-C ,  6-C ) :   1.0173
B(  3-C ,  4-C ) :   1.6192 B(  3-C ,  5-H ) :   0.9859 B(  4-C , 20-C ) :   1.0352
B(  6-C ,  7-H ) :   0.9422 B(  6-C ,  8-H ) :   0.9415 B(  6-C ,  9-C ) :   1.0622
B(  9-C , 10-H ) :   0.9534 B(  9-C , 11-H ) :   0.9551 B(  9-C , 12-C ) :   1.0702
B( 12-C , 13-H ) :   0.9764 B( 12-C , 14-H ) :   0.9737 B( 12-C , 15-H ) :   0.9756
B( 16-S , 17-C ) :   1.1756 B( 16-S , 20-C ) :   1.1695 B( 17-C , 18-C ) :   1.5895
B( 17-C , 20-C ) :   0.1038 B( 17-C , 33-H ) :   0.9662 B( 18-C , 19-C ) :   1.2632
B( 18-C , 21-H ) :   0.9867 B( 19-C , 20-C ) :   1.5488 B( 19-C , 22-C ) :   1.0385
B( 22-C , 23-H ) :   0.9292 B( 22-C , 24-H ) :   0.9177 B( 22-C , 25-C ) :   1.0661
B( 25-C , 26-H ) :   0.9535 B( 25-C , 27-H ) :   0.9527 B( 25-C , 28-C ) :   1.0979
B( 28-C , 29-H ) :   0.9732 B( 28-C , 30-H ) :   0.9683 B( 28-C , 31-H ) :   0.9733

Dispersion correction           -0.013636886
FINAL SINGLE POINT ENERGY     -1339.856227141096

DIPOLE MOMENT
-------------
                                X             Y             Z
Electronic contribution:    -22.92375     -12.23797     -17.23412
Nuclear contribution   :     23.53681      12.28198      17.53136
                        -----------------------------------------
Total Dipole Moment    :      0.61306       0.04400       0.29724
                        -----------------------------------------
Magnitude (a.u.)       :      0.68274
Magnitude (Debye)      :      1.73538

Rotational constants in cm-1:     0.017151     0.008498     0.006283
Rotational constants in MHz :   514.167281   254.752849   188.360531

                             ****ORCA TERMINATED NORMALLY****
TOTAL RUN TIME: 0 days 0 hours 0 minutes 20 seconds 83 msec
