                         Program Version 4.2.1 -  RELEASE  -
|  1> ! wB97X-D3 SP def2-SVP
|  2> %pal
|  3> nprocs 24
|  4> end
|  5>
|  6> * xyz 0 1
|  7> S 	 -84.3905 	 -13.4635 	 -58.2239
|  8> C 	 -83.9211 	 -12.0567 	 -59.1637
|  9> C 	 -83.1679 	 -11.0835 	 -58.4153
| 10> C 	 -83.0392 	 -11.6135 	 -57.1048
| 11> C 	 -83.6158 	 -12.8834 	 -56.8193
| 12> H 	 -82.5141 	 -11.1211 	 -56.3052
| 13> C 	 -82.3588 	 -10.0097 	 -59.079
| 14> H 	 -83.081 	 -9.3827 	 -59.5754
| 15> H 	 -81.7446 	 -10.3884 	 -59.9396
| 16> C 	 -81.3208 	 -9.19296 	 -58.2933
| 17> H 	 -81.8317 	 -8.51856 	 -57.5913
| 18> H 	 -80.7493 	 -9.86146 	 -57.625
| 19> C 	 -80.4115 	 -8.3354 	 -59.1918
| 20> H 	 -79.581 	 -7.90449 	 -58.6658
| 21> H 	 -79.8074 	 -8.94931 	 -59.8673
| 22> H 	 -81.0143 	 -7.60978 	 -59.7745
| 23> S 	 -82.1335 	 -14.6409 	 -55.5134
| 24> C 	 -82.6831 	 -15.2084 	 -53.9525
| 25> C 	 -83.8571 	 -14.6209 	 -53.5234
| 26> C 	 -84.4249 	 -13.735 	 -54.5187
| 27> C 	 -83.5187 	 -13.5789 	 -55.5646
| 28> H 	 -84.3527 	 -14.9402 	 -52.591
| 29> C 	 -85.7249 	 -12.9548 	 -54.4064
| 30> H 	 -85.7812 	 -12.3615 	 -55.291
| 31> H 	 -85.6371 	 -12.3749 	 -53.5177
| 32> C 	 -86.9309 	 -13.8492 	 -54.2985
| 33> H 	 -87.7951 	 -13.2495 	 -54.149
| 34> H 	 -86.7113 	 -14.4067 	 -53.3798
| 35> C 	 -87.2422 	 -14.8758 	 -55.323
| 36> H 	 -87.3254 	 -14.2966 	 -56.2164
| 37> H 	 -88.0809 	 -15.4612 	 -55.0942
| 38> H 	 -86.3646 	 -15.5126 	 -55.4527
| 39> H 	 -84.0353 	 -12.097 	 -60.2714
| 40> H 	 -82.07 	 -15.8272 	 -53.2544
| 41> *
| 42>
| 43>                          ****END OF INPUT****

CARTESIAN COORDINATES (ANGSTROEM)
---------------------------------
  S    -84.390500  -13.463500  -58.223900
  C    -83.921100  -12.056700  -59.163700
  C    -83.167900  -11.083500  -58.415300
  C    -83.039200  -11.613500  -57.104800
  C    -83.615800  -12.883400  -56.819300
  H    -82.514100  -11.121100  -56.305200
  C    -82.358800  -10.009700  -59.079000
  H    -83.081000   -9.382700  -59.575400
  H    -81.744600  -10.388400  -59.939600
  C    -81.320800   -9.192960  -58.293300
  H    -81.831700   -8.518560  -57.591300
  H    -80.749300   -9.861460  -57.625000
  C    -80.411500   -8.335400  -59.191800
  H    -79.581000   -7.904490  -58.665800
  H    -79.807400   -8.949310  -59.867300
  H    -81.014300   -7.609780  -59.774500
  S    -82.133500  -14.640900  -55.513400
  C    -82.683100  -15.208400  -53.952500
  C    -83.857100  -14.620900  -53.523400
  C    -84.424900  -13.735000  -54.518700
  C    -83.518700  -13.578900  -55.564600
  H    -84.352700  -14.940200  -52.591000
  C    -85.724900  -12.954800  -54.406400
  H    -85.781200  -12.361500  -55.291000
  H    -85.637100  -12.374900  -53.517700
  C    -86.930900  -13.849200  -54.298500
  H    -87.795100  -13.249500  -54.149000
  H    -86.711300  -14.406700  -53.379800
  C    -87.242200  -14.875800  -55.323000
  H    -87.325400  -14.296600  -56.216400
  H    -88.080900  -15.461200  -55.094200
  H    -86.364600  -15.512600  -55.452700
  H    -84.035300  -12.097000  -60.271400
  H    -82.070000  -15.827200  -53.254400

 Total Charge           Charge          ....    0
 Multiplicity           Mult            ....    1
 Number of Electrons    NEL             ....  134
 Basis Dimension        Dim             ....  322

ORBITAL ENERGIES
----------------

  NO   OCC          E(Eh)            E(eV)
   0   2.0000     -88.969940     -2420.9952
   1   2.0000     -88.965741     -2420.8809
   2   2.0000     -10.322209      -280.8816
   3   2.0000     -10.320596      -280.8377
   4   2.0000     -10.319433      -280.8060
   5   2.0000     -10.319261      -280.8014
   6   2.0000     -10.308415      -280.5062
   7   2.0000     -10.305159      -280.4176
   8   2.0000     -10.297750      -280.2160
   9   2.0000     -10.295785      -280.1625
  10   2.0000     -10.293330      -280.0957
  11   2.0000     -10.291733      -280.0523
  12   2.0000     -10.284303      -279.8501
  13   2.0000     -10.282882      -279.8114
  14   2.0000     -10.273130      -279.5461
  15   2.0000     -10.262007      -279.2434
  16   2.0000      -8.084655      -219.9947
  17   2.0000      -8.080672      -219.8863
  18   2.0000      -6.042884      -164.4352
  19   2.0000      -6.039086      -164.3319
  20   2.0000      -6.038921      -164.3274
  21   2.0000      -6.035973      -164.2472
  22   2.0000      -6.035206      -164.2263
  23   2.0000      -6.031457      -164.1243
  24   2.0000      -1.006055       -27.3761
  25   2.0000      -0.980371       -26.6773
  26   2.0000      -0.918552       -24.9951
  27   2.0000      -0.912310       -24.8252
  28   2.0000      -0.867943       -23.6179
  29   2.0000      -0.851781       -23.1781
  30   2.0000      -0.848208       -23.0809
  31   2.0000      -0.809241       -22.0206
  32   2.0000      -0.789616       -21.4865
  33   2.0000      -0.771528       -20.9943
  34   2.0000      -0.711054       -19.3488
  35   2.0000      -0.693695       -18.8764
  36   2.0000      -0.683681       -18.6039
  37   2.0000      -0.654787       -17.8177
  38   2.0000      -0.640086       -17.4176
  39   2.0000      -0.616203       -16.7677
  40   2.0000      -0.595663       -16.2088
  41   2.0000      -0.567351       -15.4384
  42   2.0000      -0.564941       -15.3728
  43   2.0000      -0.562598       -15.3091
  44   2.0000      -0.552813       -15.0428
  45   2.0000      -0.526425       -14.3247
  46   2.0000      -0.520041       -14.1510
  47   2.0000      -0.503121       -13.6906
  48   2.0000      -0.500108       -13.6086
  49   2.0000      -0.493418       -13.4266
  50   2.0000      -0.488707       -13.2984
  51   2.0000      -0.476714       -12.9720
  52   2.0000      -0.471291       -12.8245
  53   2.0000      -0.463811       -12.6209
  54   2.0000      -0.454860       -12.3774
  55   2.0000      -0.451460       -12.2849
  56   2.0000      -0.448108       -12.1936
  57   2.0000      -0.446092       -12.1388
  58   2.0000      -0.431696       -11.7470
  59   2.0000      -0.431202       -11.7336
  60   2.0000      -0.417397       -11.3579
  61   2.0000      -0.413980       -11.2650
  62   2.0000      -0.404309       -11.0018
  63   2.0000      -0.337239        -9.1768
  64   2.0000      -0.328898        -8.9498
  65   2.0000      -0.314397        -8.5552
  66   2.0000      -0.304923        -8.2974
  67   0.0000       0.043120         1.1734
  68   0.0000       0.050745         1.3809
  69   0.0000       0.114052         3.1035
  70   0.0000       0.116671         3.1748
  71   0.0000       0.123507         3.3608

MULLIKEN ATOMIC CHARGES
-----------------------
   0 S :    0.144920
   1 C :   -0.168449
   2 C :   -0.021442
   3 C :    0.013873
   4 C :   -0.192214
   5 H :    0.004979
   6 C :    0.026796
   7 H :    0.028649
   8 H :    0.041010
   9 C :   -0.083357
  10 H :    0.030352
  11 H :    0.034253
  12 C :   -0.041400
  13 H :    0.028263
  14 H :    0.021302
  15 H :    0.045548
  16 S :    0.122846
  17 C :   -0.100597
  18 C :   -0.049568
  19 C :   -0.057691
  20 C :   -0.205322
  21 H :    0.032499
  22 C :    0.153951
  23 H :    0.017434
  24 H :    0.029378
  25 C :   -0.104631
  26 H :    0.021230
  27 H :    0.007424
  28 C :    0.008174
  29 H :    0.014201
  30 H :    0.032138
  31 H :    0.030178
  32 H :    0.067223
  33 H :    0.068050
Sum of atomic charges:    0.0000000

LOEWDIN ATOMIC CHARGES
----------------------
   0 S :    0.441319
   1 C :   -0.205476
   2 C :   -0.061771
   3 C :   -0.061995
   4 C :   -0.238043
   5 H :    0.024810
   6 C :   -0.041253
   7 H :    0.032469
   8 H :    0.040901
   9 C :   -0.044831
  10 H :    0.023412
  11 H :    0.025950
  12 C :   -0.066431
  13 H :    0.027799
  14 H :    0.024793
  15 H :    0.031257
  16 S :    0.414138
  17 C :   -0.191429
  18 C :   -0.077627
  19 C :   -0.045008
  20 C :   -0.209242
  21 H :    0.035456
  22 C :   -0.017077
  23 H :    0.025175
  24 H :    0.035411
  25 C :   -0.042922
  26 H :    0.019261
  27 H :    0.018429
  28 C :   -0.054423
  29 H :    0.020842
  30 H :    0.022711
  31 H :    0.027421
  32 H :    0.030318
  33 H :    0.035656

  Mayer bond orders larger than 0.100000
B(  0-S ,  1-C ) :   1.1915 B(  0-S ,  4-C ) :   1.1730 B(  1-C ,  2-C ) :   1.5216
B(  1-C ,  4-C ) :   0.1154 B(  1-C , 32-H ) :   0.9649 B(  2-C ,  3-C ) :   1.3095
B(  2-C ,  6-C ) :   1.0131 B(  3-C ,  4-C ) :   1.5207 B(  3-C ,  5-H ) :   0.9900
B(  4-C , 20-C ) :   1.0221 B(  6-C ,  7-H ) :   0.9259 B(  6-C ,  8-H ) :   0.9504
B(  6-C ,  9-C ) :   1.0699 B(  9-C , 10-H ) :   0.9528 B(  9-C , 11-H ) :   0.9505
B(  9-C , 12-C ) :   1.0889 B( 12-C , 13-H ) :   0.9705 B( 12-C , 14-H ) :   0.9704
B( 12-C , 15-H ) :   0.9762 B( 16-S , 17-C ) :   1.1504 B( 16-S , 20-C ) :   1.1547
B( 17-C , 18-C ) :   1.6411 B( 17-C , 33-H ) :   0.9575 B( 18-C , 19-C ) :   1.2067
B( 18-C , 21-H ) :   0.9797 B( 19-C , 20-C ) :   1.6104 B( 19-C , 22-C ) :   1.0355
B( 22-C , 23-H ) :   0.9256 B( 22-C , 24-H ) :   0.9311 B( 22-C , 25-C ) :   1.0755
B( 25-C , 26-H ) :   0.9542 B( 25-C , 27-H ) :   0.9535 B( 25-C , 28-C ) :   1.0862
B( 28-C , 29-H ) :   0.9719 B( 28-C , 30-H ) :   0.9698 B( 28-C , 31-H ) :   0.9675

Dispersion correction           -0.014529411
FINAL SINGLE POINT ENERGY     -1339.871099056494

DIPOLE MOMENT
-------------
                                X             Y             Z
Electronic contribution:      3.28366     -15.00270       0.93175
Nuclear contribution   :     -3.21006      15.31556      -0.83568
                        -----------------------------------------
Total Dipole Moment    :      0.07360       0.31286       0.09607
                        -----------------------------------------
Magnitude (a.u.)       :      0.33545
Magnitude (Debye)      :      0.85265

Rotational constants in cm-1:     0.022476     0.007467     0.006664
Rotational constants in MHz :   673.819602   223.850258   199.779553

                             ****ORCA TERMINATED NORMALLY****
TOTAL RUN TIME: 0 days 0 hours 0 minutes 20 seconds 122 msec
