                         Program Version 4.2.1 -  RELEASE  -
|  1> ! wB97X-D3 SP def2-SVP
|  2> %pal
|  3> nprocs 24
|  4> end
|  5>
|  6> * xyz 0 1
|  7> S 	 -53.0426 	 -47.5038 	 -79.0772
|  8> C 	 -53.19 	 -45.7766 	 -79.1964
|  9> C 	 -51.9334 	 -45.2116 	 -79.3867
| 10> C 	 -50.8465 	 -46.1717 	 -79.2951
| 11> C 	 -51.2696 	 -47.4438 	 -79.2497
| 12> H 	 -49.8315 	 -46.0888 	 -79.4019
| 13> C 	 -51.6648 	 -43.7503 	 -79.7046
| 14> H 	 -51.0467 	 -43.792 	 -80.5183
| 15> H 	 -51.1542 	 -43.2553 	 -78.9838
| 16> C 	 -52.8042 	 -42.8534 	 -80.0442
| 17> H 	 -53.2913 	 -43.2282 	 -80.9034
| 18> H 	 -53.3729 	 -42.8288 	 -79.2072
| 19> C 	 -52.4286 	 -41.435 	 -80.4484
| 20> H 	 -52.1557 	 -41.4161 	 -81.5031
| 21> H 	 -53.2831 	 -40.804 	 -80.3968
| 22> H 	 -51.6675 	 -40.8783 	 -79.8669
| 23> S 	 -50.5157 	 -49.5695 	 -77.8363
| 24> C 	 -49.3488 	 -50.7347 	 -78.5159
| 25> C 	 -48.8026 	 -50.2088 	 -79.6863
| 26> C 	 -49.5089 	 -49.074 	 -80.1486
| 27> C 	 -50.4981 	 -48.6641 	 -79.3101
| 28> H 	 -47.991 	 -50.6808 	 -80.1799
| 29> C 	 -49.1969 	 -48.3736 	 -81.4619
| 30> H 	 -50.0953 	 -47.869 	 -81.8654
| 31> H 	 -48.8592 	 -49.1826 	 -82.147
| 32> C 	 -48.038 	 -47.4087 	 -81.4283
| 33> H 	 -48.2272 	 -46.4538 	 -80.9644
| 34> H 	 -47.8303 	 -47.2707 	 -82.4869
| 35> C 	 -46.7108 	 -47.9361 	 -80.8638
| 36> H 	 -46.3348 	 -48.8192 	 -81.3062
| 37> H 	 -46.7938 	 -48.2668 	 -79.7935
| 38> H 	 -45.9929 	 -47.141 	 -81.0038
| 39> H 	 -54.2052 	 -45.336 	 -79.3052
| 40> H 	 -48.9498 	 -51.6424 	 -78.0826
| 41> *
| 42>
| 43>                          ****END OF INPUT****

CARTESIAN COORDINATES (ANGSTROEM)
---------------------------------
  S    -53.042600  -47.503800  -79.077200
  C    -53.190000  -45.776600  -79.196400
  C    -51.933400  -45.211600  -79.386700
  C    -50.846500  -46.171700  -79.295100
  C    -51.269600  -47.443800  -79.249700
  H    -49.831500  -46.088800  -79.401900
  C    -51.664800  -43.750300  -79.704600
  H    -51.046700  -43.792000  -80.518300
  H    -51.154200  -43.255300  -78.983800
  C    -52.804200  -42.853400  -80.044200
  H    -53.291300  -43.228200  -80.903400
  H    -53.372900  -42.828800  -79.207200
  C    -52.428600  -41.435000  -80.448400
  H    -52.155700  -41.416100  -81.503100
  H    -53.283100  -40.804000  -80.396800
  H    -51.667500  -40.878300  -79.866900
  S    -50.515700  -49.569500  -77.836300
  C    -49.348800  -50.734700  -78.515900
  C    -48.802600  -50.208800  -79.686300
  C    -49.508900  -49.074000  -80.148600
  C    -50.498100  -48.664100  -79.310100
  H    -47.991000  -50.680800  -80.179900
  C    -49.196900  -48.373600  -81.461900
  H    -50.095300  -47.869000  -81.865400
  H    -48.859200  -49.182600  -82.147000
  C    -48.038000  -47.408700  -81.428300
  H    -48.227200  -46.453800  -80.964400
  H    -47.830300  -47.270700  -82.486900
  C    -46.710800  -47.936100  -80.863800
  H    -46.334800  -48.819200  -81.306200
  H    -46.793800  -48.266800  -79.793500
  H    -45.992900  -47.141000  -81.003800
  H    -54.205200  -45.336000  -79.305200
  H    -48.949800  -51.642400  -78.082600

 Total Charge           Charge          ....    0
 Multiplicity           Mult            ....    1
 Number of Electrons    NEL             ....  134
 Basis Dimension        Dim             ....  322

ORBITAL ENERGIES
----------------

  NO   OCC          E(Eh)            E(eV)
   0   2.0000     -88.964358     -2420.8433
   1   2.0000     -88.957685     -2420.6617
   2   2.0000     -10.324828      -280.9529
   3   2.0000     -10.320652      -280.8392
   4   2.0000     -10.318598      -280.7833
   5   2.0000     -10.317461      -280.7524
   6   2.0000     -10.307186      -280.4728
   7   2.0000     -10.298191      -280.2280
   8   2.0000     -10.293380      -280.0971
   9   2.0000     -10.293124      -280.0902
  10   2.0000     -10.288180      -279.9556
  11   2.0000     -10.284818      -279.8641
  12   2.0000     -10.276440      -279.6361
  13   2.0000     -10.276239      -279.6307
  14   2.0000     -10.271148      -279.4921
  15   2.0000     -10.270986      -279.4877
  16   2.0000      -8.079026      -219.8415
  17   2.0000      -8.072769      -219.6712
  18   2.0000      -6.037594      -164.2913
  19   2.0000      -6.033596      -164.1825
  20   2.0000      -6.031301      -164.1200
  21   2.0000      -6.029641      -164.0749
  22   2.0000      -6.027242      -164.0096
  23   2.0000      -6.023464      -163.9068
  24   2.0000      -1.010237       -27.4899
  25   2.0000      -0.984163       -26.7804
  26   2.0000      -0.923316       -25.1247
  27   2.0000      -0.913573       -24.8596
  28   2.0000      -0.874462       -23.7953
  29   2.0000      -0.852770       -23.2051
  30   2.0000      -0.846716       -23.0403
  31   2.0000      -0.821061       -22.3422
  32   2.0000      -0.786934       -21.4136
  33   2.0000      -0.775008       -21.0890
  34   2.0000      -0.714149       -19.4330
  35   2.0000      -0.702455       -19.1148
  36   2.0000      -0.688220       -18.7274
  37   2.0000      -0.671956       -18.2848
  38   2.0000      -0.653344       -17.7784
  39   2.0000      -0.611862       -16.6496
  40   2.0000      -0.593899       -16.1608
  41   2.0000      -0.592074       -16.1112
  42   2.0000      -0.569688       -15.5020
  43   2.0000      -0.558540       -15.1987
  44   2.0000      -0.547185       -14.8897
  45   2.0000      -0.528296       -14.3757
  46   2.0000      -0.525102       -14.2888
  47   2.0000      -0.510834       -13.9005
  48   2.0000      -0.506679       -13.7874
  49   2.0000      -0.503188       -13.6924
  50   2.0000      -0.490949       -13.3594
  51   2.0000      -0.486734       -13.2447
  52   2.0000      -0.473650       -12.8887
  53   2.0000      -0.465641       -12.6707
  54   2.0000      -0.459396       -12.5008
  55   2.0000      -0.446651       -12.1540
  56   2.0000      -0.441936       -12.0257
  57   2.0000      -0.438555       -11.9337
  58   2.0000      -0.435159       -11.8413
  59   2.0000      -0.429325       -11.6825
  60   2.0000      -0.426023       -11.5927
  61   2.0000      -0.414021       -11.2661
  62   2.0000      -0.408908       -11.1270
  63   2.0000      -0.346431        -9.4269
  64   2.0000      -0.328704        -8.9445
  65   2.0000      -0.324867        -8.8401
  66   2.0000      -0.300353        -8.1730
  67   0.0000       0.034870         0.9489
  68   0.0000       0.067559         1.8384
  69   0.0000       0.111420         3.0319
  70   0.0000       0.124623         3.3912
  71   0.0000       0.126736         3.4487

MULLIKEN ATOMIC CHARGES
-----------------------
   0 S :    0.092462
   1 C :   -0.140980
   2 C :   -0.096387
   3 C :    0.090980
   4 C :   -0.172789
   5 H :   -0.039365
   6 C :    0.151939
   7 H :   -0.006821
   8 H :    0.000726
   9 C :   -0.051833
  10 H :    0.019839
  11 H :    0.010398
  12 C :   -0.041874
  13 H :    0.027146
  14 H :    0.019331
  15 H :    0.030307
  16 S :    0.109896
  17 C :   -0.078292
  18 C :   -0.047145
  19 C :   -0.033489
  20 C :   -0.143796
  21 H :    0.006607
  22 C :    0.071392
  23 H :    0.046042
  24 H :    0.021174
  25 C :   -0.064645
  26 H :    0.029400
  27 H :    0.027145
  28 C :   -0.062585
  29 H :    0.011766
  30 H :    0.046161
  31 H :    0.037585
  32 H :    0.075859
  33 H :    0.053846
Sum of atomic charges:    0.0000000

LOEWDIN ATOMIC CHARGES
----------------------
   0 S :    0.383375
   1 C :   -0.207077
   2 C :   -0.052169
   3 C :   -0.050018
   4 C :   -0.179792
   5 H :    0.018245
   6 C :   -0.020600
   7 H :    0.020457
   8 H :    0.018970
   9 C :   -0.028396
  10 H :    0.023351
  11 H :    0.010135
  12 C :   -0.061152
  13 H :    0.025908
  14 H :    0.024098
  15 H :    0.025640
  16 S :    0.408383
  17 C :   -0.173253
  18 C :   -0.065696
  19 C :   -0.061658
  20 C :   -0.207195
  21 H :    0.025343
  22 C :   -0.032236
  23 H :    0.038762
  24 H :    0.034763
  25 C :   -0.039846
  26 H :    0.017875
  27 H :    0.028639
  28 C :   -0.067003
  29 H :    0.014166
  30 H :    0.030958
  31 H :    0.028174
  32 H :    0.038745
  33 H :    0.030104

  Mayer bond orders larger than 0.100000
B(  0-S ,  1-C ) :   1.1283 B(  0-S ,  4-C ) :   1.1337 B(  1-C ,  2-C ) :   1.6332
B(  1-C , 32-H ) :   0.9611 B(  2-C ,  3-C ) :   1.1847 B(  2-C ,  6-C ) :   1.0063
B(  3-C ,  4-C ) :   1.6349 B(  3-C ,  5-H ) :   1.0116 B(  4-C , 20-C ) :   0.9974
B(  6-C ,  7-H ) :   0.9296 B(  6-C ,  8-H ) :   0.9252 B(  6-C ,  9-C ) :   1.0938
B(  9-C , 10-H ) :   0.9522 B(  9-C , 11-H ) :   0.9476 B(  9-C , 12-C ) :   1.0946
B( 12-C , 13-H ) :   0.9756 B( 12-C , 14-H ) :   0.9702 B( 12-C , 15-H ) :   0.9746
B( 16-S , 17-C ) :   1.1469 B( 16-S , 20-C ) :   1.1509 B( 17-C , 18-C ) :   1.6058
B( 17-C , 20-C ) :   0.1024 B( 17-C , 33-H ) :   0.9693 B( 18-C , 19-C ) :   1.2346
B( 18-C , 21-H ) :   0.9945 B( 19-C , 20-C ) :   1.6187 B( 19-C , 22-C ) :   1.0406
B( 22-C , 23-H ) :   0.9352 B( 22-C , 24-H ) :   0.9287 B( 22-C , 25-C ) :   1.0834
B( 25-C , 26-H ) :   0.9507 B( 25-C , 27-H ) :   0.9506 B( 25-C , 28-C ) :   1.0865
B( 28-C , 29-H ) :   0.9727 B( 28-C , 30-H ) :   0.9667 B( 28-C , 31-H ) :   0.9729

Dispersion correction           -0.014592458
FINAL SINGLE POINT ENERGY     -1339.857310768001

DIPOLE MOMENT
-------------
                                X             Y             Z
Electronic contribution:    -11.36779     -22.19521      14.15499
Nuclear contribution   :     11.86538      22.64262     -14.64716
                        -----------------------------------------
Total Dipole Moment    :      0.49759       0.44741      -0.49217
                        -----------------------------------------
Magnitude (a.u.)       :      0.83066
Magnitude (Debye)      :      2.11138

Rotational constants in cm-1:     0.021561     0.008072     0.006293
Rotational constants in MHz :   646.393952   241.981056   188.659531

                             ****ORCA TERMINATED NORMALLY****
TOTAL RUN TIME: 0 days 0 hours 0 minutes 20 seconds 782 msec
