                         Program Version 4.2.1 -  RELEASE  -
|  1> ! wB97X-D3 SP def2-SVP
|  2> %pal
|  3> nprocs 24
|  4> end
|  5>
|  6> * xyz 0 1
|  7> S 	 -145.126 	 29.2627 	 -12.6714
|  8> C 	 -145.492 	 29.0072 	 -14.3997
|  9> C 	 -146.494 	 29.7903 	 -14.8698
| 10> C 	 -146.897 	 30.7372 	 -13.9081
| 11> C 	 -146.242 	 30.585 	 -12.6858
| 12> H 	 -147.781 	 31.4152 	 -13.9339
| 13> C 	 -147.186 	 29.4027 	 -16.0969
| 14> H 	 -146.397 	 29.138 	 -16.7602
| 15> H 	 -147.704 	 30.2223 	 -16.544
| 16> C 	 -148.062 	 28.0901 	 -16.0972
| 17> H 	 -147.586 	 27.2356 	 -15.6139
| 18> H 	 -148.872 	 28.222 	 -15.3522
| 19> C 	 -148.685 	 27.8291 	 -17.4402
| 20> H 	 -147.945 	 27.6832 	 -18.1872
| 21> H 	 -149.382 	 26.8927 	 -17.4439
| 22> H 	 -149.25 	 28.6725 	 -17.6977
| 23> S 	 -146.651 	 30.9712 	 -9.98377
| 24> C 	 -146.956 	 32.5549 	 -9.41844
| 25> C 	 -146.548 	 33.5075 	 -10.3445
| 26> C 	 -146.215 	 32.9317 	 -11.6249
| 27> C 	 -146.325 	 31.5504 	 -11.5884
| 28> H 	 -146.472 	 34.5947 	 -10.0865
| 29> C 	 -145.894 	 33.7593 	 -12.8005
| 30> H 	 -146.101 	 34.7167 	 -12.4741
| 31> H 	 -146.678 	 33.6975 	 -13.5128
| 32> C 	 -144.479 	 33.7296 	 -13.4738
| 33> H 	 -144.524 	 34.3379 	 -14.3913
| 34> H 	 -144.016 	 32.7581 	 -13.6697
| 35> C 	 -143.415 	 34.2859 	 -12.4817
| 36> H 	 -142.444 	 34.2562 	 -12.8424
| 37> H 	 -143.46 	 33.8439 	 -11.4147
| 38> H 	 -143.61 	 35.3976 	 -12.3202
| 39> H 	 -145.247 	 28.0615 	 -14.8197
| 40> H 	 -147.081 	 32.8152 	 -8.40963
| 41> *
| 42>
| 43>                          ****END OF INPUT****

CARTESIAN COORDINATES (ANGSTROEM)
---------------------------------
  S    -145.126000   29.262700  -12.671400
  C    -145.492000   29.007200  -14.399700
  C    -146.494000   29.790300  -14.869800
  C    -146.897000   30.737200  -13.908100
  C    -146.242000   30.585000  -12.685800
  H    -147.781000   31.415200  -13.933900
  C    -147.186000   29.402700  -16.096900
  H    -146.397000   29.138000  -16.760200
  H    -147.704000   30.222300  -16.544000
  C    -148.062000   28.090100  -16.097200
  H    -147.586000   27.235600  -15.613900
  H    -148.872000   28.222000  -15.352200
  C    -148.685000   27.829100  -17.440200
  H    -147.945000   27.683200  -18.187200
  H    -149.382000   26.892700  -17.443900
  H    -149.250000   28.672500  -17.697700
  S    -146.651000   30.971200   -9.983770
  C    -146.956000   32.554900   -9.418440
  C    -146.548000   33.507500  -10.344500
  C    -146.215000   32.931700  -11.624900
  C    -146.325000   31.550400  -11.588400
  H    -146.472000   34.594700  -10.086500
  C    -145.894000   33.759300  -12.800500
  H    -146.101000   34.716700  -12.474100
  H    -146.678000   33.697500  -13.512800
  C    -144.479000   33.729600  -13.473800
  H    -144.524000   34.337900  -14.391300
  H    -144.016000   32.758100  -13.669700
  C    -143.415000   34.285900  -12.481700
  H    -142.444000   34.256200  -12.842400
  H    -143.460000   33.843900  -11.414700
  H    -143.610000   35.397600  -12.320200
  H    -145.247000   28.061500  -14.819700
  H    -147.081000   32.815200   -8.409630

 Total Charge           Charge          ....    0
 Multiplicity           Mult            ....    1
 Number of Electrons    NEL             ....  134
 Basis Dimension        Dim             ....  322

ORBITAL ENERGIES
----------------

  NO   OCC          E(Eh)            E(eV)
   0   2.0000     -88.966183     -2420.8929
   1   2.0000     -88.965018     -2420.8612
   2   2.0000     -10.327227      -281.0181
   3   2.0000     -10.321459      -280.8612
   4   2.0000     -10.310940      -280.5749
   5   2.0000     -10.306253      -280.4474
   6   2.0000     -10.300525      -280.2915
   7   2.0000     -10.298051      -280.2242
   8   2.0000     -10.295595      -280.1574
   9   2.0000     -10.294352      -280.1236
  10   2.0000     -10.289983      -280.0047
  11   2.0000     -10.289492      -279.9913
  12   2.0000     -10.286822      -279.9187
  13   2.0000     -10.280188      -279.7381
  14   2.0000     -10.279970      -279.7322
  15   2.0000     -10.277047      -279.6527
  16   2.0000      -8.080933      -219.8934
  17   2.0000      -8.080814      -219.8901
  18   2.0000      -6.039268      -164.3368
  19   2.0000      -6.039165      -164.3340
  20   2.0000      -6.035603      -164.2371
  21   2.0000      -6.035204      -164.2263
  22   2.0000      -6.031728      -164.1317
  23   2.0000      -6.031669      -164.1301
  24   2.0000      -1.010113       -27.4866
  25   2.0000      -0.988731       -26.9047
  26   2.0000      -0.916960       -24.9518
  27   2.0000      -0.908428       -24.7196
  28   2.0000      -0.871058       -23.7027
  29   2.0000      -0.851676       -23.1753
  30   2.0000      -0.846392       -23.0315
  31   2.0000      -0.814968       -22.1764
  32   2.0000      -0.785137       -21.3647
  33   2.0000      -0.771814       -21.0021
  34   2.0000      -0.708317       -19.2743
  35   2.0000      -0.707329       -19.2474
  36   2.0000      -0.690926       -18.8011
  37   2.0000      -0.663055       -18.0426
  38   2.0000      -0.640966       -17.4416
  39   2.0000      -0.616678       -16.7807
  40   2.0000      -0.595444       -16.2028
  41   2.0000      -0.574768       -15.6402
  42   2.0000      -0.556787       -15.1510
  43   2.0000      -0.548782       -14.9331
  44   2.0000      -0.538866       -14.6633
  45   2.0000      -0.523922       -14.2567
  46   2.0000      -0.518564       -14.1108
  47   2.0000      -0.511606       -13.9215
  48   2.0000      -0.507027       -13.7969
  49   2.0000      -0.500537       -13.6203
  50   2.0000      -0.482104       -13.1187
  51   2.0000      -0.477133       -12.9835
  52   2.0000      -0.472386       -12.8543
  53   2.0000      -0.463854       -12.6221
  54   2.0000      -0.457907       -12.4603
  55   2.0000      -0.453139       -12.3305
  56   2.0000      -0.443869       -12.0783
  57   2.0000      -0.437791       -11.9129
  58   2.0000      -0.435301       -11.8451
  59   2.0000      -0.430387       -11.7114
  60   2.0000      -0.426391       -11.6027
  61   2.0000      -0.411967       -11.2102
  62   2.0000      -0.405085       -11.0229
  63   2.0000      -0.341587        -9.2950
  64   2.0000      -0.332758        -9.0548
  65   2.0000      -0.328964        -8.9516
  66   2.0000      -0.291893        -7.9428
  67   0.0000       0.027209         0.7404
  68   0.0000       0.066625         1.8130
  69   0.0000       0.107002         2.9117
  70   0.0000       0.121239         3.2991
  71   0.0000       0.135010         3.6738

MULLIKEN ATOMIC CHARGES
-----------------------
   0 S :    0.102323
   1 C :   -0.123611
   2 C :   -0.052582
   3 C :    0.001368
   4 C :   -0.145504
   5 H :    0.033107
   6 C :    0.072299
   7 H :    0.018412
   8 H :    0.012071
   9 C :   -0.068463
  10 H :    0.021032
  11 H :    0.020848
  12 C :   -0.031219
  13 H :    0.022835
  14 H :    0.050947
  15 H :    0.022595
  16 S :    0.115495
  17 C :   -0.064055
  18 C :   -0.067311
  19 C :   -0.072424
  20 C :   -0.167151
  21 H :    0.038616
  22 C :    0.151404
  23 H :   -0.029084
  24 H :    0.009110
  25 C :   -0.039062
  26 H :    0.036713
  27 H :    0.049000
  28 C :   -0.100692
  29 H :    0.024415
  30 H :    0.056812
  31 H :    0.018656
  32 H :    0.040904
  33 H :    0.042199
Sum of atomic charges:    0.0000000

LOEWDIN ATOMIC CHARGES
----------------------
   0 S :    0.396820
   1 C :   -0.179744
   2 C :   -0.063417
   3 C :   -0.067075
   4 C :   -0.194343
   5 H :    0.040030
   6 C :   -0.029175
   7 H :    0.032250
   8 H :    0.025597
   9 C :   -0.041223
  10 H :    0.021865
  11 H :    0.024441
  12 C :   -0.061975
  13 H :    0.018212
  14 H :    0.041511
  15 H :    0.019388
  16 S :    0.427860
  17 C :   -0.195490
  18 C :   -0.073654
  19 C :   -0.055211
  20 C :   -0.206245
  21 H :    0.038953
  22 C :   -0.032312
  23 H :    0.022099
  24 H :    0.029393
  25 C :   -0.030310
  26 H :    0.029235
  27 H :    0.030410
  28 C :   -0.075241
  29 H :    0.011387
  30 H :    0.037618
  31 H :    0.022393
  32 H :    0.016124
  33 H :    0.019829

  Mayer bond orders larger than 0.100000
B(  0-S ,  1-C ) :   1.1257 B(  0-S ,  4-C ) :   1.1667 B(  1-C ,  2-C ) :   1.6097
B(  1-C ,  4-C ) :   0.1025 B(  1-C , 32-H ) :   0.9685 B(  2-C ,  3-C ) :   1.2434
B(  2-C ,  6-C ) :   1.0397 B(  3-C ,  4-C ) :   1.5722 B(  3-C ,  5-H ) :   0.9904
B(  4-C , 20-C ) :   1.0165 B(  6-C ,  7-H ) :   0.9286 B(  6-C ,  8-H ) :   0.9390
B(  6-C ,  9-C ) :   1.0487 B(  9-C , 10-H ) :   0.9547 B(  9-C , 11-H ) :   0.9524
B(  9-C , 12-C ) :   1.0775 B( 12-C , 13-H ) :   0.9766 B( 12-C , 14-H ) :   0.9713
B( 12-C , 15-H ) :   0.9729 B( 16-S , 17-C ) :   1.1736 B( 16-S , 20-C ) :   1.1483
B( 17-C , 18-C ) :   1.5935 B( 17-C , 33-H ) :   0.9692 B( 18-C , 19-C ) :   1.2584
B( 18-C , 21-H ) :   0.9787 B( 19-C , 20-C ) :   1.5720 B( 19-C , 22-C ) :   1.0497
B( 22-C , 23-H ) :   0.9082 B( 22-C , 24-H ) :   0.9156 B( 22-C , 25-C ) :   1.0533
B( 25-C , 26-H ) :   0.9548 B( 25-C , 27-H ) :   0.9651 B( 25-C , 28-C ) :   1.0616
B( 28-C , 29-H ) :   0.9776 B( 28-C , 30-H ) :   0.9760 B( 28-C , 31-H ) :   0.9747

Dispersion correction           -0.014705597
FINAL SINGLE POINT ENERGY     -1339.857893804517

DIPOLE MOMENT
-------------
                                X             Y             Z
Electronic contribution:      2.00608      -5.75484      21.35421
Nuclear contribution   :     -2.24108       6.00904     -21.77369
                        -----------------------------------------
Total Dipole Moment    :     -0.23500       0.25420      -0.41948
                        -----------------------------------------
Magnitude (a.u.)       :      0.54388
Magnitude (Debye)      :      1.38243

Rotational constants in cm-1:     0.021864     0.007694     0.006833
Rotational constants in MHz :   655.471052   230.646489   204.841900

                             ****ORCA TERMINATED NORMALLY****
TOTAL RUN TIME: 0 days 0 hours 0 minutes 23 seconds 187 msec
