                         Program Version 4.2.1 -  RELEASE  -
|  1> ! wB97X-D3 SP def2-SVP
|  2> %pal
|  3> nprocs 24
|  4> end
|  5>
|  6> * xyz 0 1
|  7> S 	 -126.379 	 24.1164 	 -110.642
|  8> C 	 -124.617 	 23.9813 	 -110.42
|  9> C 	 -123.967 	 24.9603 	 -111.163
| 10> C 	 -124.958 	 25.7671 	 -111.849
| 11> C 	 -126.294 	 25.5969 	 -111.467
| 12> H 	 -124.622 	 26.5273 	 -112.527
| 13> C 	 -122.457 	 25.171 	 -111.249
| 14> H 	 -122.275 	 25.7568 	 -112.103
| 15> H 	 -121.948 	 24.3299 	 -111.602
| 16> C 	 -121.828 	 25.8336 	 -109.993
| 17> H 	 -121.814 	 24.9923 	 -109.278
| 18> H 	 -120.801 	 26.1248 	 -110.273
| 19> C 	 -122.519 	 27.0583 	 -109.437
| 20> H 	 -121.999 	 27.368 	 -108.524
| 21> H 	 -122.719 	 27.8001 	 -110.197
| 22> H 	 -123.469 	 26.772 	 -108.98
| 23> S 	 -128.818 	 25.2239 	 -112.514
| 24> C 	 -129.644 	 26.6135 	 -113.229
| 25> C 	 -128.849 	 27.7268 	 -113.261
| 26> C 	 -127.612 	 27.5382 	 -112.52
| 27> C 	 -127.457 	 26.2506 	 -112.034
| 28> H 	 -129.222 	 28.6438 	 -113.751
| 29> C 	 -126.493 	 28.5954 	 -112.355
| 30> H 	 -125.886 	 28.2916 	 -111.497
| 31> H 	 -126.902 	 29.5396 	 -111.99
| 32> C 	 -125.591 	 28.9259 	 -113.568
| 33> H 	 -126.179 	 29.4117 	 -114.375
| 34> H 	 -125.134 	 28.0816 	 -114.012
| 35> C 	 -124.248 	 29.7102 	 -113.121
| 36> H 	 -123.666 	 30.1743 	 -113.921
| 37> H 	 -123.552 	 29.1565 	 -112.479
| 38> H 	 -124.562 	 30.499 	 -112.519
| 39> H 	 -124.119 	 23.1644 	 -109.923
| 40> H 	 -130.563 	 26.5838 	 -113.822
| 41> *
| 42>
| 43>                          ****END OF INPUT****

CARTESIAN COORDINATES (ANGSTROEM)
---------------------------------
  S    -126.379000   24.116400  -110.642000
  C    -124.617000   23.981300  -110.420000
  C    -123.967000   24.960300  -111.163000
  C    -124.958000   25.767100  -111.849000
  C    -126.294000   25.596900  -111.467000
  H    -124.622000   26.527300  -112.527000
  C    -122.457000   25.171000  -111.249000
  H    -122.275000   25.756800  -112.103000
  H    -121.948000   24.329900  -111.602000
  C    -121.828000   25.833600  -109.993000
  H    -121.814000   24.992300  -109.278000
  H    -120.801000   26.124800  -110.273000
  C    -122.519000   27.058300  -109.437000
  H    -121.999000   27.368000  -108.524000
  H    -122.719000   27.800100  -110.197000
  H    -123.469000   26.772000  -108.980000
  S    -128.818000   25.223900  -112.514000
  C    -129.644000   26.613500  -113.229000
  C    -128.849000   27.726800  -113.261000
  C    -127.612000   27.538200  -112.520000
  C    -127.457000   26.250600  -112.034000
  H    -129.222000   28.643800  -113.751000
  C    -126.493000   28.595400  -112.355000
  H    -125.886000   28.291600  -111.497000
  H    -126.902000   29.539600  -111.990000
  C    -125.591000   28.925900  -113.568000
  H    -126.179000   29.411700  -114.375000
  H    -125.134000   28.081600  -114.012000
  C    -124.248000   29.710200  -113.121000
  H    -123.666000   30.174300  -113.921000
  H    -123.552000   29.156500  -112.479000
  H    -124.562000   30.499000  -112.519000
  H    -124.119000   23.164400  -109.923000
  H    -130.563000   26.583800  -113.822000

 Total Charge           Charge          ....    0
 Multiplicity           Mult            ....    1
 Number of Electrons    NEL             ....  134
 Basis Dimension        Dim             ....  322

ORBITAL ENERGIES
----------------

  NO   OCC          E(Eh)            E(eV)
   0   2.0000     -88.966479     -2420.9010
   1   2.0000     -88.965204     -2420.8663
   2   2.0000     -10.330614      -281.1103
   3   2.0000     -10.329872      -281.0901
   4   2.0000     -10.320207      -280.8271
   5   2.0000     -10.317132      -280.7434
   6   2.0000     -10.309777      -280.5433
   7   2.0000     -10.305156      -280.4175
   8   2.0000     -10.300341      -280.2865
   9   2.0000     -10.295593      -280.1573
  10   2.0000     -10.294922      -280.1391
  11   2.0000     -10.294685      -280.1326
  12   2.0000     -10.291721      -280.0520
  13   2.0000     -10.286864      -279.9198
  14   2.0000     -10.281632      -279.7774
  15   2.0000     -10.276376      -279.6344
  16   2.0000      -8.080811      -219.8900
  17   2.0000      -8.080488      -219.8812
  18   2.0000      -6.039507      -164.3433
  19   2.0000      -6.039010      -164.3298
  20   2.0000      -6.035491      -164.2341
  21   2.0000      -6.034962      -164.2197
  22   2.0000      -6.031260      -164.1189
  23   2.0000      -6.031139      -164.1156
  24   2.0000      -1.008685       -27.4477
  25   2.0000      -0.981884       -26.7184
  26   2.0000      -0.914574       -24.8868
  27   2.0000      -0.900502       -24.5039
  28   2.0000      -0.871032       -23.7020
  29   2.0000      -0.847667       -23.0662
  30   2.0000      -0.840542       -22.8723
  31   2.0000      -0.813423       -22.1344
  32   2.0000      -0.791430       -21.5359
  33   2.0000      -0.776021       -21.1166
  34   2.0000      -0.710563       -19.3354
  35   2.0000      -0.702484       -19.1156
  36   2.0000      -0.698948       -19.0194
  37   2.0000      -0.661096       -17.9893
  38   2.0000      -0.636349       -17.3159
  39   2.0000      -0.618487       -16.8299
  40   2.0000      -0.593028       -16.1371
  41   2.0000      -0.576926       -15.6990
  42   2.0000      -0.560455       -15.2508
  43   2.0000      -0.556812       -15.1516
  44   2.0000      -0.544364       -14.8129
  45   2.0000      -0.522234       -14.2107
  46   2.0000      -0.512536       -13.9468
  47   2.0000      -0.508325       -13.8322
  48   2.0000      -0.506791       -13.7905
  49   2.0000      -0.503929       -13.7126
  50   2.0000      -0.489364       -13.3163
  51   2.0000      -0.478298       -13.0152
  52   2.0000      -0.469934       -12.7875
  53   2.0000      -0.467623       -12.7247
  54   2.0000      -0.458066       -12.4646
  55   2.0000      -0.454315       -12.3625
  56   2.0000      -0.447235       -12.1699
  57   2.0000      -0.441761       -12.0209
  58   2.0000      -0.431048       -11.7294
  59   2.0000      -0.427032       -11.6201
  60   2.0000      -0.418238       -11.3808
  61   2.0000      -0.412375       -11.2213
  62   2.0000      -0.409257       -11.1364
  63   2.0000      -0.357009        -9.7147
  64   2.0000      -0.332518        -9.0483
  65   2.0000      -0.327038        -8.8992
  66   2.0000      -0.288867        -7.8605
  67   0.0000       0.020328         0.5532
  68   0.0000       0.077284         2.1030
  69   0.0000       0.096088         2.6147
  70   0.0000       0.121959         3.3187
  71   0.0000       0.124404         3.3852

MULLIKEN ATOMIC CHARGES
-----------------------
   0 S :    0.092445
   1 C :   -0.118824
   2 C :   -0.122877
   3 C :    0.027452
   4 C :   -0.116486
   5 H :   -0.021065
   6 C :    0.130587
   7 H :   -0.012625
   8 H :    0.013797
   9 C :   -0.090900
  10 H :    0.031908
  11 H :    0.034254
  12 C :   -0.029632
  13 H :    0.035452
  14 H :    0.039157
  15 H :    0.032353
  16 S :    0.091329
  17 C :   -0.089108
  18 C :   -0.041989
  19 C :   -0.050009
  20 C :   -0.105231
  21 H :    0.033721
  22 C :    0.040932
  23 H :    0.026491
  24 H :    0.023945
  25 C :   -0.060927
  26 H :    0.037930
  27 H :    0.030510
  28 C :   -0.059425
  29 H :    0.039511
  30 H :    0.033228
  31 H :    0.011692
  32 H :    0.047949
  33 H :    0.064458
Sum of atomic charges:   -0.0000000

LOEWDIN ATOMIC CHARGES
----------------------
   0 S :    0.415196
   1 C :   -0.187025
   2 C :   -0.057280
   3 C :   -0.061063
   4 C :   -0.211318
   5 H :    0.021257
   6 C :   -0.032312
   7 H :    0.022050
   8 H :    0.027053
   9 C :   -0.036038
  10 H :    0.025049
  11 H :    0.025771
  12 C :   -0.068108
  13 H :    0.033254
  14 H :    0.023943
  15 H :    0.029830
  16 S :    0.382795
  17 C :   -0.180033
  18 C :   -0.072508
  19 C :   -0.053507
  20 C :   -0.184362
  21 H :    0.038978
  22 C :   -0.036689
  23 H :    0.031503
  24 H :    0.029712
  25 C :   -0.034818
  26 H :    0.028984
  27 H :    0.014246
  28 C :   -0.064655
  29 H :    0.029293
  30 H :    0.024820
  31 H :    0.013238
  32 H :    0.027212
  33 H :    0.035532

  Mayer bond orders larger than 0.100000
B(  0-S ,  1-C ) :   1.1429 B(  0-S ,  4-C ) :   1.1601 B(  1-C ,  2-C ) :   1.5805
B(  1-C , 32-H ) :   0.9736 B(  2-C ,  3-C ) :   1.2804 B(  2-C ,  6-C ) :   1.0170
B(  3-C ,  4-C ) :   1.5085 B(  3-C ,  5-H ) :   0.9895 B(  4-C , 20-C ) :   1.0704
B(  6-C ,  7-H ) :   0.9239 B(  6-C ,  8-H ) :   0.9360 B(  6-C ,  9-C ) :   1.0599
B(  9-C , 10-H ) :   0.9588 B(  9-C , 11-H ) :   0.9564 B(  9-C , 12-C ) :   1.0899
B( 12-C , 13-H ) :   0.9670 B( 12-C , 14-H ) :   0.9751 B( 12-C , 15-H ) :   0.9624
B( 16-S , 17-C ) :   1.1352 B( 16-S , 20-C ) :   1.1190 B( 17-C , 18-C ) :   1.6521
B( 17-C , 33-H ) :   0.9616 B( 18-C , 19-C ) :   1.2113 B( 18-C , 21-H ) :   0.9862
B( 19-C , 20-C ) :   1.6291 B( 19-C , 22-C ) :   1.0460 B( 22-C , 23-H ) :   0.9368
B( 22-C , 24-H ) :   0.9318 B( 22-C , 25-C ) :   1.0511 B( 25-C , 26-H ) :   0.9550
B( 25-C , 27-H ) :   0.9604 B( 25-C , 28-C ) :   1.0570 B( 28-C , 29-H ) :   0.9749
B( 28-C , 30-H ) :   0.9777 B( 28-C , 31-H ) :   0.9766

Dispersion correction           -0.015453003
FINAL SINGLE POINT ENERGY     -1339.865710268032

DIPOLE MOMENT
-------------
                                X             Y             Z
Electronic contribution:    -25.24760     -19.45159      -0.25536
Nuclear contribution   :     25.82079      19.90442      -0.04757
                        -----------------------------------------
Total Dipole Moment    :      0.57318       0.45283      -0.30294
                        -----------------------------------------
Magnitude (a.u.)       :      0.79080
Magnitude (Debye)      :      2.01006

Rotational constants in cm-1:     0.018347     0.010289     0.007037
Rotational constants in MHz :   550.016549   308.460444   210.963528

                             ****ORCA TERMINATED NORMALLY****
TOTAL RUN TIME: 0 days 0 hours 0 minutes 22 seconds 613 msec
