                         Program Version 4.2.1 -  RELEASE  -
|  1> ! wB97X-D3 SP def2-SVP
|  2> %pal
|  3> nprocs 24
|  4> end
|  5>
|  6> * xyz 0 1
|  7> S 	 -138.52 	 7.43856 	 7.46799
|  8> C 	 -139.623 	 7.54039 	 6.15445
|  9> C 	 -140.899 	 8.05012 	 6.5771
| 10> C 	 -140.955 	 8.12208 	 7.98996
| 11> C 	 -139.756 	 7.90074 	 8.60395
| 12> H 	 -141.738 	 8.57747 	 8.56068
| 13> C 	 -141.982 	 8.30764 	 5.66853
| 14> H 	 -141.835 	 7.6514 	 4.84941
| 15> H 	 -141.791 	 9.26406 	 5.20254
| 16> C 	 -143.415 	 8.37591 	 6.10804
| 17> H 	 -143.413 	 9.26365 	 6.777
| 18> H 	 -143.942 	 8.65391 	 5.17497
| 19> C 	 -143.918 	 7.09544 	 6.78514
| 20> H 	 -143.334 	 6.77523 	 7.60586
| 21> H 	 -144.954 	 7.10308 	 7.17673
| 22> H 	 -144.069 	 6.34466 	 6.04682
| 23> S 	 -138.387 	 8.97482 	 10.6279
| 24> C 	 -138.863 	 8.69821 	 12.3564
| 25> C 	 -139.874 	 7.77282 	 12.3493
| 26> C 	 -140.362 	 7.42927 	 11.0658
| 27> C 	 -139.656 	 7.98859 	 10.0621
| 28> H 	 -140.428 	 7.53617 	 13.2598
| 29> C 	 -141.624 	 6.57641 	 10.842
| 30> H 	 -141.414 	 5.66145 	 11.3442
| 31> H 	 -141.844 	 6.24183 	 9.8629
| 32> C 	 -142.909 	 7.25745 	 11.3356
| 33> H 	 -143.328 	 7.8226 	 10.4953
| 34> H 	 -142.629 	 7.98088 	 12.0798
| 35> C 	 -143.994 	 6.29654 	 11.8562
| 36> H 	 -144.925 	 6.85204 	 11.9509
| 37> H 	 -143.764 	 5.79942 	 12.7296
| 38> H 	 -144.291 	 5.72052 	 10.9795
| 39> H 	 -139.384 	 7.5578 	 5.07924
| 40> H 	 -138.386 	 9.17955 	 13.1809
| 41> *
| 42>
| 43>                          ****END OF INPUT****

CARTESIAN COORDINATES (ANGSTROEM)
---------------------------------
  S    -138.520000    7.438560    7.467990
  C    -139.623000    7.540390    6.154450
  C    -140.899000    8.050120    6.577100
  C    -140.955000    8.122080    7.989960
  C    -139.756000    7.900740    8.603950
  H    -141.738000    8.577470    8.560680
  C    -141.982000    8.307640    5.668530
  H    -141.835000    7.651400    4.849410
  H    -141.791000    9.264060    5.202540
  C    -143.415000    8.375910    6.108040
  H    -143.413000    9.263650    6.777000
  H    -143.942000    8.653910    5.174970
  C    -143.918000    7.095440    6.785140
  H    -143.334000    6.775230    7.605860
  H    -144.954000    7.103080    7.176730
  H    -144.069000    6.344660    6.046820
  S    -138.387000    8.974820   10.627900
  C    -138.863000    8.698210   12.356400
  C    -139.874000    7.772820   12.349300
  C    -140.362000    7.429270   11.065800
  C    -139.656000    7.988590   10.062100
  H    -140.428000    7.536170   13.259800
  C    -141.624000    6.576410   10.842000
  H    -141.414000    5.661450   11.344200
  H    -141.844000    6.241830    9.862900
  C    -142.909000    7.257450   11.335600
  H    -143.328000    7.822600   10.495300
  H    -142.629000    7.980880   12.079800
  C    -143.994000    6.296540   11.856200
  H    -144.925000    6.852040   11.950900
  H    -143.764000    5.799420   12.729600
  H    -144.291000    5.720520   10.979500
  H    -139.384000    7.557800    5.079240
  H    -138.386000    9.179550   13.180900

 Total Charge           Charge          ....    0
 Multiplicity           Mult            ....    1
 Number of Electrons    NEL             ....  134
 Basis Dimension        Dim             ....  322

ORBITAL ENERGIES
----------------

  NO   OCC          E(Eh)            E(eV)
   0   2.0000     -88.971560     -2421.0392
   1   2.0000     -88.959138     -2420.7012
   2   2.0000     -10.323813      -280.9252
   3   2.0000     -10.320693      -280.8403
   4   2.0000     -10.318249      -280.7738
   5   2.0000     -10.312606      -280.6203
   6   2.0000     -10.298427      -280.2344
   7   2.0000     -10.297054      -280.1971
   8   2.0000     -10.295667      -280.1593
   9   2.0000     -10.293565      -280.1021
  10   2.0000     -10.285782      -279.8903
  11   2.0000     -10.283317      -279.8233
  12   2.0000     -10.282241      -279.7940
  13   2.0000     -10.278648      -279.6962
  14   2.0000     -10.275850      -279.6201
  15   2.0000     -10.273450      -279.5548
  16   2.0000      -8.086199      -220.0367
  17   2.0000      -8.074314      -219.7133
  18   2.0000      -6.044688      -164.4843
  19   2.0000      -6.040591      -164.3728
  20   2.0000      -6.037131      -164.2787
  21   2.0000      -6.032882      -164.1631
  22   2.0000      -6.028704      -164.0494
  23   2.0000      -6.025032      -163.9495
  24   2.0000      -1.011963       -27.5369
  25   2.0000      -0.987877       -26.8815
  26   2.0000      -0.924852       -25.1665
  27   2.0000      -0.907965       -24.7070
  28   2.0000      -0.872671       -23.7466
  29   2.0000      -0.853064       -23.2131
  30   2.0000      -0.846971       -23.0473
  31   2.0000      -0.822084       -22.3700
  32   2.0000      -0.787286       -21.4231
  33   2.0000      -0.776470       -21.1288
  34   2.0000      -0.713605       -19.4182
  35   2.0000      -0.700083       -19.0502
  36   2.0000      -0.694242       -18.8913
  37   2.0000      -0.665952       -18.1215
  38   2.0000      -0.637032       -17.3345
  39   2.0000      -0.627309       -17.0699
  40   2.0000      -0.605346       -16.4723
  41   2.0000      -0.566298       -15.4098
  42   2.0000      -0.565971       -15.4008
  43   2.0000      -0.559921       -15.2362
  44   2.0000      -0.544440       -14.8150
  45   2.0000      -0.528449       -14.3798
  46   2.0000      -0.518699       -14.1145
  47   2.0000      -0.512181       -13.9371
  48   2.0000      -0.505627       -13.7588
  49   2.0000      -0.504990       -13.7415
  50   2.0000      -0.496244       -13.5035
  51   2.0000      -0.481424       -13.1002
  52   2.0000      -0.476601       -12.9690
  53   2.0000      -0.470155       -12.7936
  54   2.0000      -0.460635       -12.5345
  55   2.0000      -0.446711       -12.1556
  56   2.0000      -0.446093       -12.1388
  57   2.0000      -0.437416       -11.9027
  58   2.0000      -0.432905       -11.7799
  59   2.0000      -0.429282       -11.6814
  60   2.0000      -0.419666       -11.4197
  61   2.0000      -0.414296       -11.2736
  62   2.0000      -0.408491       -11.1156
  63   2.0000      -0.349543        -9.5116
  64   2.0000      -0.331749        -9.0274
  65   2.0000      -0.324732        -8.8364
  66   2.0000      -0.290499        -7.9049
  67   0.0000       0.035149         0.9565
  68   0.0000       0.068678         1.8688
  69   0.0000       0.110812         3.0153
  70   0.0000       0.121073         3.2946
  71   0.0000       0.129561         3.5255

MULLIKEN ATOMIC CHARGES
-----------------------
   0 S :    0.141889
   1 C :   -0.131049
   2 C :   -0.101027
   3 C :   -0.011906
   4 C :   -0.111661
   5 H :    0.012413
   6 C :    0.076203
   7 H :    0.005218
   8 H :    0.029341
   9 C :   -0.063372
  10 H :    0.030653
  11 H :    0.036461
  12 C :   -0.020088
  13 H :    0.028006
  14 H :    0.024536
  15 H :    0.020542
  16 S :    0.082062
  17 C :   -0.096663
  18 C :   -0.015493
  19 C :   -0.057248
  20 C :   -0.172397
  21 H :    0.025889
  22 C :    0.109466
  23 H :    0.014882
  24 H :    0.010570
  25 C :   -0.100091
  26 H :    0.024708
  27 H :    0.023209
  28 C :   -0.004599
  29 H :    0.020149
  30 H :    0.034642
  31 H :    0.021463
  32 H :    0.057362
  33 H :    0.055928
Sum of atomic charges:   -0.0000000

LOEWDIN ATOMIC CHARGES
----------------------
   0 S :    0.435336
   1 C :   -0.227969
   2 C :   -0.053036
   3 C :   -0.069124
   4 C :   -0.200150
   5 H :    0.029367
   6 C :   -0.046965
   7 H :    0.027127
   8 H :    0.040390
   9 C :   -0.038143
  10 H :    0.025810
  11 H :    0.034513
  12 C :   -0.067634
  13 H :    0.019846
  14 H :    0.030903
  15 H :    0.025336
  16 S :    0.391587
  17 C :   -0.159388
  18 C :   -0.067245
  19 C :   -0.064958
  20 C :   -0.201588
  21 H :    0.034007
  22 C :   -0.025717
  23 H :    0.026998
  24 H :    0.023312
  25 C :   -0.037463
  26 H :    0.023062
  27 H :    0.016398
  28 C :   -0.057521
  29 H :    0.029352
  30 H :    0.014574
  31 H :    0.029300
  32 H :    0.033143
  33 H :    0.026540

  Mayer bond orders larger than 0.100000
B(  0-S ,  1-C ) :   1.1532 B(  0-S ,  4-C ) :   1.1684 B(  1-C ,  2-C ) :   1.5600
B(  1-C ,  4-C ) :   0.1040 B(  1-C , 32-H ) :   0.9615 B(  2-C ,  3-C ) :   1.2747
B(  2-C ,  6-C ) :   1.0399 B(  3-C ,  4-C ) :   1.5480 B(  3-C ,  5-H ) :   0.9909
B(  4-C , 20-C ) :   1.0067 B(  6-C ,  7-H ) :   0.9242 B(  6-C ,  8-H ) :   0.9070
B(  6-C ,  9-C ) :   1.0912 B(  9-C , 10-H ) :   0.9480 B(  9-C , 11-H ) :   0.9499
B(  9-C , 12-C ) :   1.0754 B( 12-C , 13-H ) :   0.9763 B( 12-C , 14-H ) :   0.9698
B( 12-C , 15-H ) :   0.9700 B( 16-S , 17-C ) :   1.1357 B( 16-S , 20-C ) :   1.1450
B( 17-C , 18-C ) :   1.6102 B( 17-C , 33-H ) :   0.9783 B( 18-C , 19-C ) :   1.2380
B( 18-C , 21-H ) :   0.9801 B( 19-C , 20-C ) :   1.6391 B( 19-C , 22-C ) :   1.0354
B( 22-C , 23-H ) :   0.9337 B( 22-C , 24-H ) :   0.9333 B( 22-C , 25-C ) :   1.0444
B( 25-C , 26-H ) :   0.9520 B( 25-C , 27-H ) :   0.9652 B( 25-C , 28-C ) :   1.0879
B( 28-C , 29-H ) :   0.9683 B( 28-C , 30-H ) :   0.9797 B( 28-C , 31-H ) :   0.9699

Dispersion correction           -0.015341020
FINAL SINGLE POINT ENERGY     -1339.862237844141

DIPOLE MOMENT
-------------
                                X             Y             Z
Electronic contribution:     31.18112       5.96232       1.24738
Nuclear contribution   :    -31.93913      -5.91567      -1.31566
                        -----------------------------------------
Total Dipole Moment    :     -0.75801       0.04666      -0.06828
                        -----------------------------------------
Magnitude (a.u.)       :      0.76250
Magnitude (Debye)      :      1.93813

Rotational constants in cm-1:     0.015947     0.011254     0.007196
Rotational constants in MHz :   478.080549   337.399689   215.731522

                             ****ORCA TERMINATED NORMALLY****
TOTAL RUN TIME: 0 days 0 hours 0 minutes 21 seconds 832 msec
