                         Program Version 4.2.1 -  RELEASE  -
|  1> ! wB97X-D3 SP def2-SVP
|  2> %pal
|  3> nprocs 24
|  4> end
|  5>
|  6> * xyz 0 1
|  7> S 	 -50.6029 	 12.9944 	 25.8778
|  8> C 	 -50.8612 	 11.4173 	 25.0987
|  9> C 	 -49.8026 	 11.0406 	 24.2788
| 10> C 	 -48.7553 	 11.984 	 24.4024
| 11> C 	 -49.0002 	 13.165 	 25.0945
| 12> H 	 -47.7523 	 11.9436 	 23.9648
| 13> C 	 -49.7927 	 9.76741 	 23.5042
| 14> H 	 -49.723 	 9.01616 	 24.2239
| 15> H 	 -48.8049 	 9.75 	 22.9276
| 16> C 	 -51.0067 	 9.49548 	 22.5858
| 17> H 	 -51.8727 	 9.47582 	 23.2358
| 18> H 	 -51.0122 	 10.4122 	 21.8762
| 19> C 	 -50.9229 	 8.15677 	 21.9432
| 20> H 	 -51.7967 	 7.79347 	 21.4837
| 21> H 	 -50.1843 	 8.14474 	 21.1531
| 22> H 	 -50.5416 	 7.46351 	 22.6635
| 23> S 	 -48.2011 	 15.2165 	 26.6169
| 24> C 	 -47.3911 	 16.6276 	 25.8679
| 25> C 	 -47.1095 	 16.3873 	 24.5045
| 26> C 	 -47.5597 	 15.0818 	 24.1121
| 27> C 	 -48.18 	 14.3497 	 25.1337
| 28> H 	 -46.7181 	 17.2442 	 23.9164
| 29> C 	 -47.6146 	 14.709 	 22.6447
| 30> H 	 -47.9088 	 15.5228 	 21.9619
| 31> H 	 -48.4448 	 13.9648 	 22.6492
| 32> C 	 -46.3767 	 14.0171 	 21.9953
| 33> H 	 -45.8929 	 13.3451 	 22.676
| 34> H 	 -45.6914 	 14.7596 	 21.7722
| 35> C 	 -46.8162 	 13.4132 	 20.5829
| 36> H 	 -47.5837 	 12.7207 	 20.5513
| 37> H 	 -46.0372 	 12.8289 	 20.1399
| 38> H 	 -47.1835 	 14.0287 	 19.8416
| 39> H 	 -51.7512 	 10.7536 	 25.1773
| 40> H 	 -47.2576 	 17.568 	 26.343
| 41> *
| 42>
| 43>                          ****END OF INPUT****

CARTESIAN COORDINATES (ANGSTROEM)
---------------------------------
  S    -50.602900   12.994400   25.877800
  C    -50.861200   11.417300   25.098700
  C    -49.802600   11.040600   24.278800
  C    -48.755300   11.984000   24.402400
  C    -49.000200   13.165000   25.094500
  H    -47.752300   11.943600   23.964800
  C    -49.792700    9.767410   23.504200
  H    -49.723000    9.016160   24.223900
  H    -48.804900    9.750000   22.927600
  C    -51.006700    9.495480   22.585800
  H    -51.872700    9.475820   23.235800
  H    -51.012200   10.412200   21.876200
  C    -50.922900    8.156770   21.943200
  H    -51.796700    7.793470   21.483700
  H    -50.184300    8.144740   21.153100
  H    -50.541600    7.463510   22.663500
  S    -48.201100   15.216500   26.616900
  C    -47.391100   16.627600   25.867900
  C    -47.109500   16.387300   24.504500
  C    -47.559700   15.081800   24.112100
  C    -48.180000   14.349700   25.133700
  H    -46.718100   17.244200   23.916400
  C    -47.614600   14.709000   22.644700
  H    -47.908800   15.522800   21.961900
  H    -48.444800   13.964800   22.649200
  C    -46.376700   14.017100   21.995300
  H    -45.892900   13.345100   22.676000
  H    -45.691400   14.759600   21.772200
  C    -46.816200   13.413200   20.582900
  H    -47.583700   12.720700   20.551300
  H    -46.037200   12.828900   20.139900
  H    -47.183500   14.028700   19.841600
  H    -51.751200   10.753600   25.177300
  H    -47.257600   17.568000   26.343000

 Total Charge           Charge          ....    0
 Multiplicity           Mult            ....    1
 Number of Electrons    NEL             ....  134
 Basis Dimension        Dim             ....  322

ORBITAL ENERGIES
----------------

  NO   OCC          E(Eh)            E(eV)
   0   2.0000     -88.968288     -2420.9502
   1   2.0000     -88.967578     -2420.9309
   2   2.0000     -10.331786      -281.1422
   3   2.0000     -10.328297      -281.0472
   4   2.0000     -10.322189      -280.8810
   5   2.0000     -10.318790      -280.7885
   6   2.0000     -10.308456      -280.5073
   7   2.0000     -10.303570      -280.3744
   8   2.0000     -10.300780      -280.2985
   9   2.0000     -10.294988      -280.1409
  10   2.0000     -10.294954      -280.1399
  11   2.0000     -10.292724      -280.0793
  12   2.0000     -10.290678      -280.0236
  13   2.0000     -10.287190      -279.9287
  14   2.0000     -10.272404      -279.5263
  15   2.0000     -10.266858      -279.3754
  16   2.0000      -8.082284      -219.9301
  17   2.0000      -8.081590      -219.9112
  18   2.0000      -6.040757      -164.3773
  19   2.0000      -6.040270      -164.3641
  20   2.0000      -6.036756      -164.2685
  21   2.0000      -6.036303      -164.2562
  22   2.0000      -6.033108      -164.1692
  23   2.0000      -6.032222      -164.1451
  24   2.0000      -1.004758       -27.3408
  25   2.0000      -0.979405       -26.6510
  26   2.0000      -0.918825       -25.0025
  27   2.0000      -0.901824       -24.5399
  28   2.0000      -0.873412       -23.7668
  29   2.0000      -0.850940       -23.1552
  30   2.0000      -0.847999       -23.0752
  31   2.0000      -0.815820       -22.1996
  32   2.0000      -0.783927       -21.3317
  33   2.0000      -0.772384       -21.0176
  34   2.0000      -0.715995       -19.4832
  35   2.0000      -0.707855       -19.2617
  36   2.0000      -0.697422       -18.9778
  37   2.0000      -0.665259       -18.1026
  38   2.0000      -0.636455       -17.3188
  39   2.0000      -0.613686       -16.6992
  40   2.0000      -0.590941       -16.0803
  41   2.0000      -0.574557       -15.6345
  42   2.0000      -0.570709       -15.5298
  43   2.0000      -0.561050       -15.2669
  44   2.0000      -0.530063       -14.4238
  45   2.0000      -0.523980       -14.2582
  46   2.0000      -0.519189       -14.1279
  47   2.0000      -0.507128       -13.7997
  48   2.0000      -0.503967       -13.7136
  49   2.0000      -0.500305       -13.6140
  50   2.0000      -0.495218       -13.4756
  51   2.0000      -0.482468       -13.1286
  52   2.0000      -0.470032       -12.7902
  53   2.0000      -0.465052       -12.6547
  54   2.0000      -0.460019       -12.5177
  55   2.0000      -0.449244       -12.2246
  56   2.0000      -0.444602       -12.0982
  57   2.0000      -0.439268       -11.9531
  58   2.0000      -0.431154       -11.7323
  59   2.0000      -0.428666       -11.6646
  60   2.0000      -0.424341       -11.5469
  61   2.0000      -0.416488       -11.3332
  62   2.0000      -0.413598       -11.2546
  63   2.0000      -0.349209        -9.5024
  64   2.0000      -0.331734        -9.0269
  65   2.0000      -0.331302        -9.0152
  66   2.0000      -0.285855        -7.7785
  67   0.0000       0.019041         0.5181
  68   0.0000       0.070944         1.9305
  69   0.0000       0.105630         2.8743
  70   0.0000       0.115354         3.1389
  71   0.0000       0.129634         3.5275

MULLIKEN ATOMIC CHARGES
-----------------------
   0 S :    0.112829
   1 C :   -0.135786
   2 C :   -0.072683
   3 C :    0.006350
   4 C :   -0.139234
   5 H :    0.010621
   6 C :    0.052836
   7 H :    0.022731
   8 H :    0.030398
   9 C :   -0.100599
  10 H :    0.024541
  11 H :    0.053255
  12 C :    0.015252
  13 H :    0.028198
  14 H :    0.016457
  15 H :    0.016089
  16 S :    0.098872
  17 C :   -0.100009
  18 C :   -0.040261
  19 C :   -0.008521
  20 C :   -0.148899
  21 H :    0.043739
  22 C :   -0.017180
  23 H :    0.033963
  24 H :    0.037108
  25 C :   -0.004459
  26 H :    0.028060
  27 H :    0.015313
  28 C :   -0.012729
  29 H :   -0.004181
  30 H :    0.018673
  31 H :    0.008486
  32 H :    0.059813
  33 H :    0.050957
Sum of atomic charges:   -0.0000000

LOEWDIN ATOMIC CHARGES
----------------------
   0 S :    0.379694
   1 C :   -0.191856
   2 C :   -0.068505
   3 C :   -0.065617
   4 C :   -0.187936
   5 H :    0.032285
   6 C :   -0.033710
   7 H :    0.023525
   8 H :    0.036457
   9 C :   -0.039415
  10 H :    0.020331
  11 H :    0.037328
  12 C :   -0.059941
  13 H :    0.022066
  14 H :    0.025434
  15 H :    0.025562
  16 S :    0.407968
  17 C :   -0.169947
  18 C :   -0.068777
  19 C :   -0.056233
  20 C :   -0.209557
  21 H :    0.043442
  22 C :   -0.038374
  23 H :    0.032434
  24 H :    0.032942
  25 C :   -0.019765
  26 H :    0.020604
  27 H :    0.015549
  28 C :   -0.064183
  29 H :    0.016182
  30 H :    0.025907
  31 H :    0.019019
  32 H :    0.035378
  33 H :    0.021710

  Mayer bond orders larger than 0.100000
B(  0-S ,  1-C ) :   1.1356 B(  0-S ,  4-C ) :   1.1216 B(  1-C ,  2-C ) :   1.5992
B(  1-C ,  4-C ) :   0.1005 B(  1-C , 32-H ) :   0.9607 B(  2-C ,  3-C ) :   1.2449
B(  2-C ,  6-C ) :   1.0123 B(  3-C ,  4-C ) :   1.5617 B(  3-C ,  5-H ) :   0.9946
B(  4-C , 20-C ) :   1.0833 B(  6-C ,  7-H ) :   0.9258 B(  6-C ,  8-H ) :   0.9459
B(  6-C ,  9-C ) :   1.0645 B(  9-C , 10-H ) :   0.9503 B(  9-C , 11-H ) :   0.9580
B(  9-C , 12-C ) :   1.0893 B( 12-C , 13-H ) :   0.9723 B( 12-C , 14-H ) :   0.9691
B( 12-C , 15-H ) :   0.9661 B( 16-S , 17-C ) :   1.1555 B( 16-S , 20-C ) :   1.1381
B( 17-C , 18-C ) :   1.6022 B( 17-C , 33-H ) :   0.9721 B( 18-C , 19-C ) :   1.2426
B( 18-C , 21-H ) :   0.9871 B( 19-C , 20-C ) :   1.5568 B( 19-C , 22-C ) :   1.0370
B( 22-C , 23-H ) :   0.9460 B( 22-C , 24-H ) :   0.9413 B( 22-C , 25-C ) :   1.0539
B( 25-C , 26-H ) :   0.9595 B( 25-C , 27-H ) :   0.9541 B( 25-C , 28-C ) :   1.0622
B( 28-C , 29-H ) :   0.9730 B( 28-C , 30-H ) :   0.9740 B( 28-C , 31-H ) :   0.9739

Dispersion correction           -0.013958110
FINAL SINGLE POINT ENERGY     -1339.853460666535

DIPOLE MOMENT
-------------
                                X             Y             Z
Electronic contribution:     -2.88668      17.70356      27.84446
Nuclear contribution   :      2.95850     -17.92746     -28.52880
                        -----------------------------------------
Total Dipole Moment    :      0.07182      -0.22390      -0.68434
                        -----------------------------------------
Magnitude (a.u.)       :      0.72361
Magnitude (Debye)      :      1.83928

Rotational constants in cm-1:     0.018958     0.008646     0.006189
Rotational constants in MHz :   568.339624   259.207224   185.548082

                             ****ORCA TERMINATED NORMALLY****
TOTAL RUN TIME: 0 days 0 hours 0 minutes 21 seconds 574 msec
