                         Program Version 4.2.1 -  RELEASE  -
|  1> ! wB97X-D3 SP def2-SVP
|  2> %pal
|  3> nprocs 24
|  4> end
|  5>
|  6> * xyz 0 1
|  7> S 	 -105.243 	 43.2356 	 -93.9672
|  8> C 	 -105.249 	 42.2258 	 -92.529
|  9> C 	 -104.158 	 41.4323 	 -92.3935
| 10> C 	 -103.276 	 41.5775 	 -93.5202
| 11> C 	 -103.703 	 42.4904 	 -94.4069
| 12> H 	 -102.356 	 41.0843 	 -93.727
| 13> C 	 -104.084 	 40.3318 	 -91.3104
| 14> H 	 -105.092 	 40.1109 	 -91.0066
| 15> H 	 -103.599 	 40.8066 	 -90.4781
| 16> C 	 -103.554 	 38.9719 	 -91.7757
| 17> H 	 -104.334 	 38.4578 	 -92.3588
| 18> H 	 -102.831 	 39.1762 	 -92.5449
| 19> C 	 -102.977 	 38.0553 	 -90.6881
| 20> H 	 -102.259 	 37.3462 	 -91.0551
| 21> H 	 -102.409 	 38.6472 	 -89.8806
| 22> H 	 -103.804 	 37.5193 	 -90.1913
| 23> S 	 -103.203 	 41.5467 	 -96.9087
| 24> C 	 -102.36 	 42.5616 	 -98.0077
| 25> C 	 -101.95 	 43.724 	 -97.4123
| 26> C 	 -102.412 	 43.9522 	 -96.0963
| 27> C 	 -103.08 	 42.8258 	 -95.6526
| 28> H 	 -101.383 	 44.366 	 -98.1424
| 29> C 	 -102.276 	 45.2787 	 -95.4059
| 30> H 	 -102.189 	 45.135 	 -94.3267
| 31> H 	 -103.224 	 45.8595 	 -95.4238
| 32> C 	 -101.043 	 46.1246 	 -95.8573
| 33> H 	 -101.192 	 46.5701 	 -96.9033
| 34> H 	 -100.189 	 45.4403 	 -95.949
| 35> C 	 -100.652 	 47.3453 	 -95.0506
| 36> H 	 -99.937 	 47.9269 	 -95.6188
| 37> H 	 -100.273 	 47.0235 	 -94.0548
| 38> H 	 -101.463 	 48.0947 	 -94.8857
| 39> H 	 -106.122 	 42.1094 	 -91.8333
| 40> H 	 -101.962 	 42.3001 	 -98.9885
| 41> *
| 42>
| 43>                          ****END OF INPUT****

CARTESIAN COORDINATES (ANGSTROEM)
---------------------------------
  S    -105.243000   43.235600  -93.967200
  C    -105.249000   42.225800  -92.529000
  C    -104.158000   41.432300  -92.393500
  C    -103.276000   41.577500  -93.520200
  C    -103.703000   42.490400  -94.406900
  H    -102.356000   41.084300  -93.727000
  C    -104.084000   40.331800  -91.310400
  H    -105.092000   40.110900  -91.006600
  H    -103.599000   40.806600  -90.478100
  C    -103.554000   38.971900  -91.775700
  H    -104.334000   38.457800  -92.358800
  H    -102.831000   39.176200  -92.544900
  C    -102.977000   38.055300  -90.688100
  H    -102.259000   37.346200  -91.055100
  H    -102.409000   38.647200  -89.880600
  H    -103.804000   37.519300  -90.191300
  S    -103.203000   41.546700  -96.908700
  C    -102.360000   42.561600  -98.007700
  C    -101.950000   43.724000  -97.412300
  C    -102.412000   43.952200  -96.096300
  C    -103.080000   42.825800  -95.652600
  H    -101.383000   44.366000  -98.142400
  C    -102.276000   45.278700  -95.405900
  H    -102.189000   45.135000  -94.326700
  H    -103.224000   45.859500  -95.423800
  C    -101.043000   46.124600  -95.857300
  H    -101.192000   46.570100  -96.903300
  H    -100.189000   45.440300  -95.949000
  C    -100.652000   47.345300  -95.050600
  H    -99.937000   47.926900  -95.618800
  H    -100.273000   47.023500  -94.054800
  H    -101.463000   48.094700  -94.885700
  H    -106.122000   42.109400  -91.833300
  H    -101.962000   42.300100  -98.988500

 Total Charge           Charge          ....    0
 Multiplicity           Mult            ....    1
 Number of Electrons    NEL             ....  134
 Basis Dimension        Dim             ....  322

ORBITAL ENERGIES
----------------

  NO   OCC          E(Eh)            E(eV)
   0   2.0000     -88.964025     -2420.8342
   1   2.0000     -88.963851     -2420.8295
   2   2.0000     -10.322988      -280.9028
   3   2.0000     -10.320641      -280.8389
   4   2.0000     -10.312137      -280.6075
   5   2.0000     -10.309962      -280.5483
   6   2.0000     -10.304679      -280.4046
   7   2.0000     -10.298688      -280.2415
   8   2.0000     -10.295795      -280.1628
   9   2.0000     -10.293503      -280.1005
  10   2.0000     -10.289998      -280.0051
  11   2.0000     -10.289863      -280.0014
  12   2.0000     -10.289566      -279.9933
  13   2.0000     -10.286065      -279.8981
  14   2.0000     -10.285477      -279.8821
  15   2.0000     -10.282173      -279.7922
  16   2.0000      -8.078693      -219.8324
  17   2.0000      -8.078435      -219.8254
  18   2.0000      -6.037155      -164.2793
  19   2.0000      -6.036899      -164.2724
  20   2.0000      -6.033197      -164.1716
  21   2.0000      -6.033177      -164.1711
  22   2.0000      -6.029523      -164.0717
  23   2.0000      -6.029047      -164.0587
  24   2.0000      -1.008264       -27.4363
  25   2.0000      -0.984749       -26.7964
  26   2.0000      -0.909472       -24.7480
  27   2.0000      -0.906077       -24.6556
  28   2.0000      -0.871603       -23.7175
  29   2.0000      -0.853408       -23.2224
  30   2.0000      -0.845933       -23.0190
  31   2.0000      -0.814846       -22.1731
  32   2.0000      -0.786002       -21.3882
  33   2.0000      -0.771194       -20.9853
  34   2.0000      -0.711283       -19.3550
  35   2.0000      -0.696579       -18.9549
  36   2.0000      -0.688601       -18.7378
  37   2.0000      -0.650410       -17.6986
  38   2.0000      -0.636907       -17.3311
  39   2.0000      -0.620217       -16.8770
  40   2.0000      -0.599587       -16.3156
  41   2.0000      -0.563435       -15.3318
  42   2.0000      -0.560528       -15.2527
  43   2.0000      -0.559900       -15.2357
  44   2.0000      -0.525559       -14.3012
  45   2.0000      -0.521131       -14.1807
  46   2.0000      -0.518018       -14.0960
  47   2.0000      -0.506124       -13.7723
  48   2.0000      -0.504391       -13.7252
  49   2.0000      -0.497573       -13.5397
  50   2.0000      -0.487138       -13.2557
  51   2.0000      -0.483437       -13.1550
  52   2.0000      -0.469861       -12.7856
  53   2.0000      -0.465551       -12.6683
  54   2.0000      -0.460725       -12.5370
  55   2.0000      -0.453133       -12.3304
  56   2.0000      -0.449499       -12.2315
  57   2.0000      -0.435570       -11.8525
  58   2.0000      -0.426520       -11.6062
  59   2.0000      -0.423865       -11.5340
  60   2.0000      -0.420051       -11.4302
  61   2.0000      -0.411924       -11.2090
  62   2.0000      -0.410213       -11.1625
  63   2.0000      -0.338194        -9.2027
  64   2.0000      -0.331605        -9.0234
  65   2.0000      -0.326803        -8.8928
  66   2.0000      -0.302899        -8.2423
  67   0.0000       0.043489         1.1834
  68   0.0000       0.059560         1.6207
  69   0.0000       0.112122         3.0510
  70   0.0000       0.118272         3.2184
  71   0.0000       0.129632         3.5275

MULLIKEN ATOMIC CHARGES
-----------------------
   0 S :    0.111679
   1 C :   -0.144938
   2 C :   -0.076762
   3 C :    0.026308
   4 C :   -0.168620
   5 H :    0.007756
   6 C :    0.100118
   7 H :    0.015950
   8 H :    0.035417
   9 C :   -0.088959
  10 H :    0.034780
  11 H :    0.018530
  12 C :   -0.062579
  13 H :    0.037144
  14 H :    0.038123
  15 H :    0.041066
  16 S :    0.117310
  17 C :   -0.084587
  18 C :   -0.090069
  19 C :    0.026058
  20 C :   -0.204619
  21 H :    0.033753
  22 C :    0.092906
  23 H :    0.021626
  24 H :    0.044818
  25 C :   -0.138336
  26 H :    0.037065
  27 H :    0.038397
  28 C :   -0.035236
  29 H :    0.031674
  30 H :    0.038972
  31 H :    0.032439
  32 H :    0.059132
  33 H :    0.053683
Sum of atomic charges:   -0.0000000

LOEWDIN ATOMIC CHARGES
----------------------
   0 S :    0.386140
   1 C :   -0.197341
   2 C :   -0.064515
   3 C :   -0.057869
   4 C :   -0.191689
   5 H :    0.029751
   6 C :   -0.024411
   7 H :    0.027953
   8 H :    0.030028
   9 C :   -0.046488
  10 H :    0.030787
  11 H :    0.017519
  12 C :   -0.068662
  13 H :    0.024944
  14 H :    0.033289
  15 H :    0.028226
  16 S :    0.403878
  17 C :   -0.201353
  18 C :   -0.084407
  19 C :   -0.053242
  20 C :   -0.186470
  21 H :    0.040131
  22 C :   -0.037044
  23 H :    0.032891
  24 H :    0.040584
  25 C :   -0.050291
  26 H :    0.029091
  27 H :    0.026698
  28 C :   -0.069435
  29 H :    0.027750
  30 H :    0.026493
  31 H :    0.028720
  32 H :    0.036104
  33 H :    0.032237

  Mayer bond orders larger than 0.100000
B(  0-S ,  1-C ) :   1.1250 B(  0-S ,  4-C ) :   1.1194 B(  1-C ,  2-C ) :   1.6804
B(  1-C , 32-H ) :   0.9559 B(  2-C ,  3-C ) :   1.1845 B(  2-C ,  6-C ) :   1.0042
B(  3-C ,  4-C ) :   1.6477 B(  3-C ,  5-H ) :   0.9971 B(  4-C , 20-C ) :   1.0245
B(  6-C ,  7-H ) :   0.9501 B(  6-C ,  8-H ) :   0.9355 B(  6-C ,  9-C ) :   1.0529
B(  9-C , 10-H ) :   0.9556 B(  9-C , 11-H ) :   0.9623 B(  9-C , 12-C ) :   1.0723
B( 12-C , 13-H ) :   0.9757 B( 12-C , 14-H ) :   0.9782 B( 12-C , 15-H ) :   0.9773
B( 16-S , 17-C ) :   1.1483 B( 16-S , 20-C ) :   1.1452 B( 17-C , 18-C ) :   1.6492
B( 17-C , 33-H ) :   0.9563 B( 18-C , 19-C ) :   1.2134 B( 18-C , 21-H ) :   0.9782
B( 19-C , 20-C ) :   1.5993 B( 19-C , 22-C ) :   1.0499 B( 22-C , 23-H ) :   0.9245
B( 22-C , 24-H ) :   0.9247 B( 22-C , 25-C ) :   1.0623 B( 25-C , 26-H ) :   0.9475
B( 25-C , 27-H ) :   0.9595 B( 25-C , 28-C ) :   1.0904 B( 28-C , 29-H ) :   0.9722
B( 28-C , 30-H ) :   0.9725 B( 28-C , 31-H ) :   0.9713

Dispersion correction           -0.013516602
FINAL SINGLE POINT ENERGY     -1339.878141980195

DIPOLE MOMENT
-------------
                                X             Y             Z
Electronic contribution:    -12.21388      -1.54327     -13.44586
Nuclear contribution   :     12.51771       1.53261      13.62562
                        -----------------------------------------
Total Dipole Moment    :      0.30383      -0.01065       0.17976
                        -----------------------------------------
Magnitude (a.u.)       :      0.35319
Magnitude (Debye)      :      0.89773

Rotational constants in cm-1:     0.019737     0.007102     0.006374
Rotational constants in MHz :   591.696036   212.901109   191.074741

                             ****ORCA TERMINATED NORMALLY****
TOTAL RUN TIME: 0 days 0 hours 0 minutes 19 seconds 623 msec
