                         Program Version 4.2.1 -  RELEASE  -
|  1> ! wB97X-D3 SP def2-SVP
|  2> %pal
|  3> nprocs 24
|  4> end
|  5>
|  6> * xyz 0 1
|  7> S 	 -121.379 	 51.6098 	 -29.0445
|  8> C 	 -121.964 	 50.0849 	 -29.46
|  9> C 	 -122.116 	 49.9149 	 -30.8042
| 10> C 	 -121.635 	 51.0034 	 -31.5775
| 11> C 	 -121.263 	 52.1113 	 -30.7834
| 12> H 	 -121.555 	 51.0441 	 -32.683
| 13> C 	 -122.67 	 48.758 	 -31.5165
| 14> H 	 -122.748 	 47.9694 	 -30.7502
| 15> H 	 -121.892 	 48.5006 	 -32.1714
| 16> C 	 -123.939 	 48.9344 	 -32.3026
| 17> H 	 -123.858 	 49.7179 	 -33.0523
| 18> H 	 -124.135 	 48.0188 	 -32.898
| 19> C 	 -125.129 	 49.1697 	 -31.4312
| 20> H 	 -126.018 	 49.0008 	 -32.041
| 21> H 	 -125.227 	 48.3774 	 -30.6846
| 22> H 	 -125.165 	 50.1342 	 -31.0292
| 23> S 	 -119.018 	 53.3418 	 -31.7835
| 24> C 	 -118.723 	 54.9529 	 -31.5149
| 25> C 	 -119.855 	 55.5977 	 -31.1152
| 26> C 	 -120.956 	 54.6808 	 -30.7811
| 27> C 	 -120.647 	 53.3565 	 -31.1134
| 28> H 	 -119.855 	 56.6587 	 -30.9091
| 29> C 	 -122.181 	 55.1579 	 -30.0353
| 30> H 	 -121.917 	 56.1839 	 -29.6281
| 31> H 	 -122.212 	 54.5229 	 -29.0958
| 32> C 	 -123.512 	 55.1476 	 -30.9207
| 33> H 	 -123.288 	 55.4834 	 -31.9087
| 34> H 	 -124.158 	 55.9249 	 -30.4744
| 35> C 	 -124.21 	 53.8125 	 -31.0734
| 36> H 	 -124.559 	 53.47 	 -30.087
| 37> H 	 -123.57 	 53.0153 	 -31.3669
| 38> H 	 -125.018 	 54.0495 	 -31.7672
| 39> H 	 -122.319 	 49.3327 	 -28.7185
| 40> H 	 -117.838 	 55.5352 	 -31.7904
| 41> *
| 42>
| 43>                          ****END OF INPUT****

CARTESIAN COORDINATES (ANGSTROEM)
---------------------------------
  S    -121.379000   51.609800  -29.044500
  C    -121.964000   50.084900  -29.460000
  C    -122.116000   49.914900  -30.804200
  C    -121.635000   51.003400  -31.577500
  C    -121.263000   52.111300  -30.783400
  H    -121.555000   51.044100  -32.683000
  C    -122.670000   48.758000  -31.516500
  H    -122.748000   47.969400  -30.750200
  H    -121.892000   48.500600  -32.171400
  C    -123.939000   48.934400  -32.302600
  H    -123.858000   49.717900  -33.052300
  H    -124.135000   48.018800  -32.898000
  C    -125.129000   49.169700  -31.431200
  H    -126.018000   49.000800  -32.041000
  H    -125.227000   48.377400  -30.684600
  H    -125.165000   50.134200  -31.029200
  S    -119.018000   53.341800  -31.783500
  C    -118.723000   54.952900  -31.514900
  C    -119.855000   55.597700  -31.115200
  C    -120.956000   54.680800  -30.781100
  C    -120.647000   53.356500  -31.113400
  H    -119.855000   56.658700  -30.909100
  C    -122.181000   55.157900  -30.035300
  H    -121.917000   56.183900  -29.628100
  H    -122.212000   54.522900  -29.095800
  C    -123.512000   55.147600  -30.920700
  H    -123.288000   55.483400  -31.908700
  H    -124.158000   55.924900  -30.474400
  C    -124.210000   53.812500  -31.073400
  H    -124.559000   53.470000  -30.087000
  H    -123.570000   53.015300  -31.366900
  H    -125.018000   54.049500  -31.767200
  H    -122.319000   49.332700  -28.718500
  H    -117.838000   55.535200  -31.790400

 Total Charge           Charge          ....    0
 Multiplicity           Mult            ....    1
 Number of Electrons    NEL             ....  134
 Basis Dimension        Dim             ....  322

ORBITAL ENERGIES
----------------

  NO   OCC          E(Eh)            E(eV)
   0   2.0000     -88.964974     -2420.8600
   1   2.0000     -88.960475     -2420.7376
   2   2.0000     -10.334230      -281.2087
   3   2.0000     -10.322165      -280.8804
   4   2.0000     -10.311602      -280.5930
   5   2.0000     -10.311232      -280.5829
   6   2.0000     -10.306848      -280.4636
   7   2.0000     -10.300513      -280.2912
   8   2.0000     -10.299463      -280.2626
   9   2.0000     -10.292517      -280.0736
  10   2.0000     -10.290535      -280.0197
  11   2.0000     -10.284905      -279.8665
  12   2.0000     -10.283485      -279.8279
  13   2.0000     -10.280543      -279.7478
  14   2.0000     -10.267614      -279.3960
  15   2.0000     -10.267083      -279.3815
  16   2.0000      -8.079811      -219.8628
  17   2.0000      -8.076994      -219.7862
  18   2.0000      -6.038280      -164.3100
  19   2.0000      -6.035416      -164.2320
  20   2.0000      -6.034239      -164.2000
  21   2.0000      -6.031093      -164.1144
  22   2.0000      -6.030672      -164.1029
  23   2.0000      -6.027861      -164.0264
  24   2.0000      -1.009493       -27.4697
  25   2.0000      -0.990759       -26.9599
  26   2.0000      -0.921826       -25.0842
  27   2.0000      -0.901359       -24.5272
  28   2.0000      -0.874273       -23.7902
  29   2.0000      -0.854745       -23.2588
  30   2.0000      -0.848101       -23.0780
  31   2.0000      -0.814319       -22.1588
  32   2.0000      -0.782901       -21.3038
  33   2.0000      -0.768923       -20.9235
  34   2.0000      -0.711342       -19.3566
  35   2.0000      -0.696973       -18.9656
  36   2.0000      -0.689173       -18.7534
  37   2.0000      -0.658255       -17.9120
  38   2.0000      -0.637508       -17.3475
  39   2.0000      -0.619353       -16.8534
  40   2.0000      -0.589745       -16.0478
  41   2.0000      -0.572465       -15.5776
  42   2.0000      -0.559306       -15.2195
  43   2.0000      -0.550028       -14.9670
  44   2.0000      -0.544181       -14.8079
  45   2.0000      -0.532027       -14.4772
  46   2.0000      -0.521299       -14.1853
  47   2.0000      -0.517703       -14.0874
  48   2.0000      -0.501492       -13.6463
  49   2.0000      -0.498856       -13.5746
  50   2.0000      -0.492073       -13.3900
  51   2.0000      -0.480421       -13.0729
  52   2.0000      -0.473781       -12.8922
  53   2.0000      -0.463853       -12.6221
  54   2.0000      -0.458160       -12.4672
  55   2.0000      -0.444704       -12.1010
  56   2.0000      -0.443143       -12.0585
  57   2.0000      -0.430637       -11.7182
  58   2.0000      -0.430201       -11.7064
  59   2.0000      -0.428640       -11.6639
  60   2.0000      -0.416405       -11.3309
  61   2.0000      -0.415374       -11.3029
  62   2.0000      -0.406549       -11.0628
  63   2.0000      -0.340883        -9.2759
  64   2.0000      -0.329865        -8.9761
  65   2.0000      -0.323191        -8.7945
  66   2.0000      -0.295891        -8.0516
  67   0.0000       0.035731         0.9723
  68   0.0000       0.058522         1.5925
  69   0.0000       0.113451         3.0872
  70   0.0000       0.116373         3.1667
  71   0.0000       0.128395         3.4938

MULLIKEN ATOMIC CHARGES
-----------------------
   0 S :    0.112988
   1 C :   -0.126739
   2 C :   -0.106902
   3 C :    0.014132
   4 C :   -0.177415
   5 H :    0.032099
   6 C :    0.106791
   7 H :    0.007515
   8 H :    0.016454
   9 C :   -0.068439
  10 H :    0.022390
  11 H :    0.027801
  12 C :   -0.021388
  13 H :    0.021605
  14 H :    0.017738
  15 H :    0.039109
  16 S :    0.121973
  17 C :   -0.080417
  18 C :   -0.048924
  19 C :   -0.060780
  20 C :   -0.157429
  21 H :    0.017290
  22 C :    0.023566
  23 H :    0.025428
  24 H :    0.041761
  25 C :   -0.057198
  26 H :    0.021768
  27 H :    0.031947
  28 C :   -0.014702
  29 H :    0.021561
  30 H :    0.033437
  31 H :    0.037900
  32 H :    0.059537
  33 H :    0.065543
Sum of atomic charges:   -0.0000000

LOEWDIN ATOMIC CHARGES
----------------------
   0 S :    0.412131
   1 C :   -0.221404
   2 C :   -0.075709
   3 C :   -0.056245
   4 C :   -0.179080
   5 H :    0.038970
   6 C :   -0.032543
   7 H :    0.029025
   8 H :    0.029080
   9 C :   -0.040729
  10 H :    0.022338
  11 H :    0.029432
  12 C :   -0.058618
  13 H :    0.028312
  14 H :    0.024313
  15 H :    0.019851
  16 S :    0.439897
  17 C :   -0.211613
  18 C :   -0.083485
  19 C :   -0.046604
  20 C :   -0.223190
  21 H :    0.027825
  22 C :   -0.044552
  23 H :    0.033955
  24 H :    0.034218
  25 C :   -0.033634
  26 H :    0.019848
  27 H :    0.025742
  28 C :   -0.062594
  29 H :    0.025118
  30 H :    0.021253
  31 H :    0.030208
  32 H :    0.038680
  33 H :    0.039807

  Mayer bond orders larger than 0.100000
B(  0-S ,  1-C ) :   1.1521 B(  0-S ,  4-C ) :   1.1399 B(  1-C ,  2-C ) :   1.6102
B(  1-C , 32-H ) :   0.9538 B(  2-C ,  3-C ) :   1.2342 B(  2-C ,  6-C ) :   1.0232
B(  3-C ,  4-C ) :   1.5544 B(  3-C ,  5-H ) :   0.9919 B(  4-C , 20-C ) :   1.0734
B(  6-C ,  7-H ) :   0.9367 B(  6-C ,  8-H ) :   0.9222 B(  6-C ,  9-C ) :   1.0898
B(  9-C , 10-H ) :   0.9489 B(  9-C , 11-H ) :   0.9508 B(  9-C , 12-C ) :   1.0857
B( 12-C , 13-H ) :   0.9692 B( 12-C , 14-H ) :   0.9716 B( 12-C , 15-H ) :   0.9762
B( 16-S , 17-C ) :   1.1893 B( 16-S , 20-C ) :   1.1309 B( 17-C , 18-C ) :   1.5973
B( 17-C , 33-H ) :   0.9596 B( 18-C , 19-C ) :   1.2560 B( 18-C , 21-H ) :   0.9867
B( 19-C , 20-C ) :   1.5555 B( 19-C , 22-C ) :   1.0427 B( 22-C , 23-H ) :   0.9383
B( 22-C , 24-H ) :   0.9372 B( 22-C , 25-C ) :   1.0422 B( 25-C , 26-H ) :   0.9593
B( 25-C , 27-H ) :   0.9578 B( 25-C , 28-C ) :   1.0785 B( 28-C , 29-H ) :   0.9720
B( 28-C , 30-H ) :   0.9705 B( 28-C , 31-H ) :   0.9704

Dispersion correction           -0.016144940
FINAL SINGLE POINT ENERGY     -1339.878934258695

DIPOLE MOMENT
-------------
                                X             Y             Z
Electronic contribution:     23.76066       5.05122       4.71723
Nuclear contribution   :    -24.04874      -5.03960      -4.87236
                        -----------------------------------------
Total Dipole Moment    :     -0.28809       0.01162      -0.15513
                        -----------------------------------------
Magnitude (a.u.)       :      0.32741
Magnitude (Debye)      :      0.83220

Rotational constants in cm-1:     0.021879     0.009101     0.007862
Rotational constants in MHz :   655.901150   272.826704   235.686907

                             ****ORCA TERMINATED NORMALLY****
TOTAL RUN TIME: 0 days 0 hours 0 minutes 21 seconds 843 msec
