                         Program Version 4.2.1 -  RELEASE  -
|  1> ! wB97X-D3 SP def2-SVP
|  2> %pal
|  3> nprocs 24
|  4> end
|  5>
|  6> * xyz 0 1
|  7> S 	 -96.005 	 11.0612 	 -113.258
|  8> C 	 -96.4547 	 12.7396 	 -112.993
|  9> C 	 -95.7511 	 13.5603 	 -113.844
| 10> C 	 -94.9588 	 12.8209 	 -114.835
| 11> C 	 -95.1229 	 11.4514 	 -114.762
| 12> H 	 -94.4603 	 13.2235 	 -115.684
| 13> C 	 -95.6841 	 15.116 	 -113.76
| 14> H 	 -96.6767 	 15.4367 	 -114.195
| 15> H 	 -94.9646 	 15.5675 	 -114.464
| 16> C 	 -95.5905 	 15.6762 	 -112.305
| 17> H 	 -95.769 	 16.7853 	 -112.352
| 18> H 	 -96.363 	 15.3568 	 -111.566
| 19> C 	 -94.2037 	 15.5398 	 -111.71
| 20> H 	 -93.3302 	 15.7631 	 -112.294
| 21> H 	 -94.1549 	 16.2101 	 -110.832
| 22> H 	 -94.0413 	 14.4523 	 -111.447
| 23> S 	 -94.2074 	 8.89016 	 -114.73
| 24> C 	 -93.7494 	 8.124 	 -116.26
| 25> C 	 -93.6483 	 9.03446 	 -117.282
| 26> C 	 -94.1949 	 10.3139 	 -116.932
| 27> C 	 -94.5688 	 10.429 	 -115.609
| 28> H 	 -93.3077 	 8.80243 	 -118.27
| 29> C 	 -94.2762 	 11.3953 	 -118.073
| 30> H 	 -93.5411 	 11.167 	 -118.858
| 31> H 	 -93.8697 	 12.3803 	 -117.702
| 32> C 	 -95.6866 	 11.5527 	 -118.656
| 33> H 	 -96.286 	 12.1 	 -117.902
| 34> H 	 -96.1634 	 10.5292 	 -118.749
| 35> C 	 -95.6304 	 12.321 	 -119.981
| 36> H 	 -95.3032 	 13.3675 	 -119.707
| 37> H 	 -96.5607 	 12.332 	 -120.521
| 38> H 	 -94.8524 	 11.8932 	 -120.592
| 39> H 	 -97.2189 	 13.065 	 -112.272
| 40> H 	 -93.5261 	 7.04961 	 -116.423
| 41> *
| 42>
| 43>                          ****END OF INPUT****

CARTESIAN COORDINATES (ANGSTROEM)
---------------------------------
  S    -96.005000   11.061200  -113.258000
  C    -96.454700   12.739600  -112.993000
  C    -95.751100   13.560300  -113.844000
  C    -94.958800   12.820900  -114.835000
  C    -95.122900   11.451400  -114.762000
  H    -94.460300   13.223500  -115.684000
  C    -95.684100   15.116000  -113.760000
  H    -96.676700   15.436700  -114.195000
  H    -94.964600   15.567500  -114.464000
  C    -95.590500   15.676200  -112.305000
  H    -95.769000   16.785300  -112.352000
  H    -96.363000   15.356800  -111.566000
  C    -94.203700   15.539800  -111.710000
  H    -93.330200   15.763100  -112.294000
  H    -94.154900   16.210100  -110.832000
  H    -94.041300   14.452300  -111.447000
  S    -94.207400    8.890160  -114.730000
  C    -93.749400    8.124000  -116.260000
  C    -93.648300    9.034460  -117.282000
  C    -94.194900   10.313900  -116.932000
  C    -94.568800   10.429000  -115.609000
  H    -93.307700    8.802430  -118.270000
  C    -94.276200   11.395300  -118.073000
  H    -93.541100   11.167000  -118.858000
  H    -93.869700   12.380300  -117.702000
  C    -95.686600   11.552700  -118.656000
  H    -96.286000   12.100000  -117.902000
  H    -96.163400   10.529200  -118.749000
  C    -95.630400   12.321000  -119.981000
  H    -95.303200   13.367500  -119.707000
  H    -96.560700   12.332000  -120.521000
  H    -94.852400   11.893200  -120.592000
  H    -97.218900   13.065000  -112.272000
  H    -93.526100    7.049610  -116.423000

 Total Charge           Charge          ....    0
 Multiplicity           Mult            ....    1
 Number of Electrons    NEL             ....  134
 Basis Dimension        Dim             ....  322

ORBITAL ENERGIES
----------------

  NO   OCC          E(Eh)            E(eV)
   0   2.0000     -88.965321     -2420.8695
   1   2.0000     -88.963334     -2420.8154
   2   2.0000     -10.333176      -281.1800
   3   2.0000     -10.332395      -281.1588
   4   2.0000     -10.322572      -280.8915
   5   2.0000     -10.317341      -280.7491
   6   2.0000     -10.309089      -280.5246
   7   2.0000     -10.309042      -280.5233
   8   2.0000     -10.304699      -280.4051
   9   2.0000     -10.302769      -280.3526
  10   2.0000     -10.296270      -280.1758
  11   2.0000     -10.295800      -280.1630
  12   2.0000     -10.294162      -280.1184
  13   2.0000     -10.291469      -280.0451
  14   2.0000     -10.281696      -279.7792
  15   2.0000     -10.276132      -279.6278
  16   2.0000      -8.079127      -219.8442
  17   2.0000      -8.077571      -219.8019
  18   2.0000      -6.037882      -164.2991
  19   2.0000      -6.036309      -164.2563
  20   2.0000      -6.033926      -164.1915
  21   2.0000      -6.032266      -164.1463
  22   2.0000      -6.029529      -164.0718
  23   2.0000      -6.027983      -164.0297
  24   2.0000      -1.001530       -27.2530
  25   2.0000      -0.977373       -26.5957
  26   2.0000      -0.906420       -24.6650
  27   2.0000      -0.903796       -24.5935
  28   2.0000      -0.870330       -23.6829
  29   2.0000      -0.850001       -23.1297
  30   2.0000      -0.839446       -22.8425
  31   2.0000      -0.812730       -22.1155
  32   2.0000      -0.778276       -21.1780
  33   2.0000      -0.770015       -20.9532
  34   2.0000      -0.706619       -19.2281
  35   2.0000      -0.697918       -18.9913
  36   2.0000      -0.689437       -18.7605
  37   2.0000      -0.667086       -18.1523
  38   2.0000      -0.639062       -17.3898
  39   2.0000      -0.609769       -16.5927
  40   2.0000      -0.592656       -16.1270
  41   2.0000      -0.568349       -15.4656
  42   2.0000      -0.560844       -15.2614
  43   2.0000      -0.548211       -14.9176
  44   2.0000      -0.533745       -14.5239
  45   2.0000      -0.525017       -14.2864
  46   2.0000      -0.516315       -14.0497
  47   2.0000      -0.510708       -13.8971
  48   2.0000      -0.505646       -13.7593
  49   2.0000      -0.498783       -13.5726
  50   2.0000      -0.492897       -13.4124
  51   2.0000      -0.482963       -13.1421
  52   2.0000      -0.473016       -12.8714
  53   2.0000      -0.460300       -12.5254
  54   2.0000      -0.455597       -12.3974
  55   2.0000      -0.450659       -12.2630
  56   2.0000      -0.439999       -11.9730
  57   2.0000      -0.435446       -11.8491
  58   2.0000      -0.434749       -11.8301
  59   2.0000      -0.425472       -11.5777
  60   2.0000      -0.412985       -11.2379
  61   2.0000      -0.412122       -11.2144
  62   2.0000      -0.403487       -10.9794
  63   2.0000      -0.359149        -9.7729
  64   2.0000      -0.334517        -9.1027
  65   2.0000      -0.324017        -8.8170
  66   2.0000      -0.283933        -7.7262
  67   0.0000       0.016694         0.4543
  68   0.0000       0.071848         1.9551
  69   0.0000       0.089962         2.4480
  70   0.0000       0.121663         3.3106
  71   0.0000       0.134529         3.6607

MULLIKEN ATOMIC CHARGES
-----------------------
   0 S :    0.090831
   1 C :   -0.131984
   2 C :   -0.083100
   3 C :    0.032261
   4 C :   -0.122215
   5 H :   -0.008075
   6 C :    0.052285
   7 H :    0.043283
   8 H :    0.032948
   9 C :   -0.096726
  10 H :    0.028993
  11 H :    0.040580
  12 C :   -0.060896
  13 H :    0.026096
  14 H :    0.036248
  15 H :    0.044648
  16 S :    0.080107
  17 C :   -0.090360
  18 C :   -0.015593
  19 C :   -0.056507
  20 C :   -0.117166
  21 H :    0.012283
  22 C :    0.009565
  23 H :    0.017081
  24 H :    0.031243
  25 C :   -0.083608
  26 H :    0.041260
  27 H :    0.043686
  28 C :   -0.031663
  29 H :    0.032124
  30 H :    0.043338
  31 H :    0.024973
  32 H :    0.063618
  33 H :    0.070442
Sum of atomic charges:    0.0000000

LOEWDIN ATOMIC CHARGES
----------------------
   0 S :    0.376363
   1 C :   -0.198517
   2 C :   -0.059900
   3 C :   -0.063214
   4 C :   -0.176755
   5 H :    0.023273
   6 C :   -0.036518
   7 H :    0.039814
   8 H :    0.033333
   9 C :   -0.050678
  10 H :    0.027130
  11 H :    0.030262
  12 C :   -0.074362
  13 H :    0.020907
  14 H :    0.028695
  15 H :    0.032797
  16 S :    0.366739
  17 C :   -0.175746
  18 C :   -0.069138
  19 C :   -0.054340
  20 C :   -0.171486
  21 H :    0.028827
  22 C :   -0.032777
  23 H :    0.026309
  24 H :    0.028159
  25 C :   -0.046720
  26 H :    0.028092
  27 H :    0.030156
  28 C :   -0.064135
  29 H :    0.032138
  30 H :    0.025377
  31 H :    0.020756
  32 H :    0.036329
  33 H :    0.038830

  Mayer bond orders larger than 0.100000
B(  0-S ,  1-C ) :   1.1170 B(  0-S ,  4-C ) :   1.1262 B(  1-C ,  2-C ) :   1.6370
B(  1-C , 32-H ) :   0.9679 B(  2-C ,  3-C ) :   1.2091 B(  2-C ,  6-C ) :   1.0042
B(  3-C ,  4-C ) :   1.5886 B(  3-C ,  5-H ) :   0.9949 B(  4-C , 20-C ) :   1.0928
B(  6-C ,  7-H ) :   0.9358 B(  6-C ,  8-H ) :   0.9524 B(  6-C ,  9-C ) :   1.0709
B(  9-C , 10-H ) :   0.9566 B(  9-C , 11-H ) :   0.9536 B(  9-C , 12-C ) :   1.0721
B( 12-C , 13-H ) :   0.9765 B( 12-C , 14-H ) :   0.9746 B( 12-C , 15-H ) :   0.9744
B( 16-S , 17-C ) :   1.1387 B( 16-S , 20-C ) :   1.1024 B( 17-C , 18-C ) :   1.6300
B( 17-C , 33-H ) :   0.9613 B( 18-C , 19-C ) :   1.2304 B( 18-C , 21-H ) :   0.9885
B( 19-C , 20-C ) :   1.6350 B( 19-C , 22-C ) :   1.0240 B( 22-C , 23-H ) :   0.9437
B( 22-C , 24-H ) :   0.9385 B( 22-C , 25-C ) :   1.0488 B( 25-C , 26-H ) :   0.9539
B( 25-C , 27-H ) :   0.9576 B( 25-C , 28-C ) :   1.0752 B( 28-C , 29-H ) :   0.9720
B( 28-C , 30-H ) :   0.9751 B( 28-C , 31-H ) :   0.9767

Dispersion correction           -0.013955480
FINAL SINGLE POINT ENERGY     -1339.875260381303

DIPOLE MOMENT
-------------
                                X             Y             Z
Electronic contribution:      0.28410     -23.57539      10.24280
Nuclear contribution   :     -0.26212      24.12316     -10.77938
                        -----------------------------------------
Total Dipole Moment    :      0.02198       0.54776      -0.53658
                        -----------------------------------------
Magnitude (a.u.)       :      0.76710
Magnitude (Debye)      :      1.94982

Rotational constants in cm-1:     0.018728     0.008278     0.006376
Rotational constants in MHz :   561.450039   248.161773   191.153393

                             ****ORCA TERMINATED NORMALLY****
TOTAL RUN TIME: 0 days 0 hours 0 minutes 21 seconds 246 msec
