                         Program Version 4.2.1 -  RELEASE  -
|  1> ! wB97X-D3 SP def2-SVP
|  2> %pal
|  3> nprocs 24
|  4> end
|  5>
|  6> * xyz 0 1
|  7> S 	 -137.909 	 9.59029 	 -3.50169
|  8> C 	 -139.27 	 10.6752 	 -3.39055
|  9> C 	 -140.49 	 10.0514 	 -3.38543
| 10> C 	 -140.278 	 8.65196 	 -3.27273
| 11> C 	 -138.935 	 8.22038 	 -3.26942
| 12> H 	 -141.036 	 7.95384 	 -3.34208
| 13> C 	 -141.901 	 10.6344 	 -3.33875
| 14> H 	 -141.705 	 11.6813 	 -2.9983
| 15> H 	 -142.466 	 10.1299 	 -2.54617
| 16> C 	 -142.614 	 10.7806 	 -4.78322
| 17> H 	 -141.868 	 10.7355 	 -5.53917
| 18> H 	 -143.222 	 9.91858 	 -4.8923
| 19> C 	 -143.579 	 11.9722 	 -4.77833
| 20> H 	 -143.049 	 12.8961 	 -4.76163
| 21> H 	 -144.183 	 11.9828 	 -5.65439
| 22> H 	 -144.191 	 11.8549 	 -3.90334
| 23> S 	 -136.867 	 6.6902 	 -4.07657
| 24> C 	 -136.7 	 5.09347 	 -3.36517
| 25> C 	 -137.874 	 4.57416 	 -2.80882
| 26> C 	 -138.874 	 5.5881 	 -2.76902
| 27> C 	 -138.453 	 6.82963 	 -3.33435
| 28> H 	 -137.942 	 3.53108 	 -2.5395
| 29> C 	 -140.201 	 5.36757 	 -1.96681
| 30> H 	 -140.365 	 4.28003 	 -1.79445
| 31> H 	 -141.037 	 5.75581 	 -2.55636
| 32> C 	 -140.112 	 5.90604 	 -0.563881
| 33> H 	 -139.686 	 6.89802 	 -0.687264
| 34> H 	 -139.38 	 5.35248 	 -0.017417
| 35> C 	 -141.47 	 6.02027 	 0.144096
| 36> H 	 -142.273 	 6.25114 	 -0.581597
| 37> H 	 -141.429 	 6.80341 	 0.867207
| 38> H 	 -141.743 	 5.22559 	 0.81069
| 39> H 	 -139.106 	 11.7294 	 -3.3402
| 40> H 	 -135.756 	 4.55883 	 -3.32036
| 41> *
| 42>
| 43>                          ****END OF INPUT****

CARTESIAN COORDINATES (ANGSTROEM)
---------------------------------
  S    -137.909000    9.590290   -3.501690
  C    -139.270000   10.675200   -3.390550
  C    -140.490000   10.051400   -3.385430
  C    -140.278000    8.651960   -3.272730
  C    -138.935000    8.220380   -3.269420
  H    -141.036000    7.953840   -3.342080
  C    -141.901000   10.634400   -3.338750
  H    -141.705000   11.681300   -2.998300
  H    -142.466000   10.129900   -2.546170
  C    -142.614000   10.780600   -4.783220
  H    -141.868000   10.735500   -5.539170
  H    -143.222000    9.918580   -4.892300
  C    -143.579000   11.972200   -4.778330
  H    -143.049000   12.896100   -4.761630
  H    -144.183000   11.982800   -5.654390
  H    -144.191000   11.854900   -3.903340
  S    -136.867000    6.690200   -4.076570
  C    -136.700000    5.093470   -3.365170
  C    -137.874000    4.574160   -2.808820
  C    -138.874000    5.588100   -2.769020
  C    -138.453000    6.829630   -3.334350
  H    -137.942000    3.531080   -2.539500
  C    -140.201000    5.367570   -1.966810
  H    -140.365000    4.280030   -1.794450
  H    -141.037000    5.755810   -2.556360
  C    -140.112000    5.906040   -0.563881
  H    -139.686000    6.898020   -0.687264
  H    -139.380000    5.352480   -0.017417
  C    -141.470000    6.020270    0.144096
  H    -142.273000    6.251140   -0.581597
  H    -141.429000    6.803410    0.867207
  H    -141.743000    5.225590    0.810690
  H    -139.106000   11.729400   -3.340200
  H    -135.756000    4.558830   -3.320360

 Total Charge           Charge          ....    0
 Multiplicity           Mult            ....    1
 Number of Electrons    NEL             ....  134
 Basis Dimension        Dim             ....  322

ORBITAL ENERGIES
----------------

  NO   OCC          E(Eh)            E(eV)
   0   2.0000     -88.968122     -2420.9457
   1   2.0000     -88.967779     -2420.9364
   2   2.0000     -10.331667      -281.1389
   3   2.0000     -10.330527      -281.1079
   4   2.0000     -10.318330      -280.7760
   5   2.0000     -10.310719      -280.5689
   6   2.0000     -10.310263      -280.5565
   7   2.0000     -10.301365      -280.3144
   8   2.0000     -10.299708      -280.2693
   9   2.0000     -10.297632      -280.2128
  10   2.0000     -10.292940      -280.0851
  11   2.0000     -10.287404      -279.9345
  12   2.0000     -10.284893      -279.8662
  13   2.0000     -10.276583      -279.6400
  14   2.0000     -10.274492      -279.5831
  15   2.0000     -10.273321      -279.5513
  16   2.0000      -8.082848      -219.9455
  17   2.0000      -8.082780      -219.9436
  18   2.0000      -6.041363      -164.3939
  19   2.0000      -6.041185      -164.3890
  20   2.0000      -6.037437      -164.2870
  21   2.0000      -6.037318      -164.2838
  22   2.0000      -6.033569      -164.1818
  23   2.0000      -6.033536      -164.1809
  24   2.0000      -1.006131       -27.3782
  25   2.0000      -0.981690       -26.7131
  26   2.0000      -0.909285       -24.7429
  27   2.0000      -0.905527       -24.6406
  28   2.0000      -0.869953       -23.6726
  29   2.0000      -0.849987       -23.1293
  30   2.0000      -0.846502       -23.0345
  31   2.0000      -0.809564       -22.0294
  32   2.0000      -0.781787       -21.2735
  33   2.0000      -0.771182       -20.9849
  34   2.0000      -0.709396       -19.3036
  35   2.0000      -0.702747       -19.1227
  36   2.0000      -0.687808       -18.7162
  37   2.0000      -0.665888       -18.1197
  38   2.0000      -0.641416       -17.4538
  39   2.0000      -0.620166       -16.8756
  40   2.0000      -0.591830       -16.1045
  41   2.0000      -0.574691       -15.6381
  42   2.0000      -0.567687       -15.4475
  43   2.0000      -0.554228       -15.0813
  44   2.0000      -0.532211       -14.4822
  45   2.0000      -0.520556       -14.1650
  46   2.0000      -0.515263       -14.0210
  47   2.0000      -0.507062       -13.7979
  48   2.0000      -0.500026       -13.6064
  49   2.0000      -0.498078       -13.5534
  50   2.0000      -0.492355       -13.3977
  51   2.0000      -0.482062       -13.1176
  52   2.0000      -0.471758       -12.8372
  53   2.0000      -0.465544       -12.6681
  54   2.0000      -0.458842       -12.4857
  55   2.0000      -0.456012       -12.4087
  56   2.0000      -0.444672       -12.1001
  57   2.0000      -0.442263       -12.0346
  58   2.0000      -0.436448       -11.8763
  59   2.0000      -0.426048       -11.5934
  60   2.0000      -0.424751       -11.5581
  61   2.0000      -0.416317       -11.3286
  62   2.0000      -0.402881       -10.9629
  63   2.0000      -0.351844        -9.5742
  64   2.0000      -0.335495        -9.1293
  65   2.0000      -0.331103        -9.0098
  66   2.0000      -0.275982        -7.5099
  67   0.0000       0.017006         0.4628
  68   0.0000       0.076608         2.0846
  69   0.0000       0.093625         2.5477
  70   0.0000       0.118697         3.2299
  71   0.0000       0.144221         3.9244

MULLIKEN ATOMIC CHARGES
-----------------------
   0 S :    0.107803
   1 C :   -0.131408
   2 C :   -0.062746
   3 C :    0.023144
   4 C :   -0.103382
   5 H :   -0.033498
   6 C :    0.017410
   7 H :    0.022770
   8 H :    0.045609
   9 C :   -0.033592
  10 H :    0.032316
  11 H :    0.021069
  12 C :   -0.029785
  13 H :    0.030199
  14 H :    0.028674
  15 H :    0.032343
  16 S :    0.096192
  17 C :   -0.107155
  18 C :   -0.024154
  19 C :   -0.057718
  20 C :   -0.138343
  21 H :    0.027452
  22 C :    0.031135
  23 H :    0.020819
  24 H :    0.033743
  25 C :   -0.052880
  26 H :    0.031260
  27 H :    0.018506
  28 C :   -0.014586
  29 H :    0.030533
  30 H :    0.017048
  31 H :    0.025661
  32 H :    0.036595
  33 H :    0.058965
Sum of atomic charges:    0.0000000

LOEWDIN ATOMIC CHARGES
----------------------
   0 S :    0.415679
   1 C :   -0.194390
   2 C :   -0.064057
   3 C :   -0.060527
   4 C :   -0.203307
   5 H :    0.011299
   6 C :   -0.030693
   7 H :    0.032074
   8 H :    0.033234
   9 C :   -0.025097
  10 H :    0.020350
  11 H :    0.019424
  12 C :   -0.054479
  13 H :    0.020800
  14 H :    0.023180
  15 H :    0.026851
  16 S :    0.399482
  17 C :   -0.180722
  18 C :   -0.069147
  19 C :   -0.052992
  20 C :   -0.192550
  21 H :    0.036270
  22 C :   -0.031455
  23 H :    0.031276
  24 H :    0.024158
  25 C :   -0.040588
  26 H :    0.025393
  27 H :    0.022102
  28 C :   -0.065359
  29 H :    0.028431
  30 H :    0.025402
  31 H :    0.023460
  32 H :    0.020002
  33 H :    0.026493

  Mayer bond orders larger than 0.100000
B(  0-S ,  1-C ) :   1.1451 B(  0-S ,  4-C ) :   1.1552 B(  1-C ,  2-C ) :   1.5855
B(  1-C , 32-H ) :   0.9699 B(  2-C ,  3-C ) :   1.2729 B(  2-C ,  6-C ) :   1.0169
B(  3-C ,  4-C ) :   1.5223 B(  3-C ,  5-H ) :   1.0059 B(  4-C , 20-C ) :   1.0826
B(  6-C ,  7-H ) :   0.9502 B(  6-C ,  8-H ) :   0.9463 B(  6-C ,  9-C ) :   1.0289
B(  9-C , 10-H ) :   0.9653 B(  9-C , 11-H ) :   0.9557 B(  9-C , 12-C ) :   1.0821
B( 12-C , 13-H ) :   0.9785 B( 12-C , 14-H ) :   0.9746 B( 12-C , 15-H ) :   0.9747
B( 16-S , 17-C ) :   1.1621 B( 16-S , 20-C ) :   1.1331 B( 17-C , 18-C ) :   1.5953
B( 17-C , 33-H ) :   0.9657 B( 18-C , 19-C ) :   1.2626 B( 18-C , 21-H ) :   0.9916
B( 19-C , 20-C ) :   1.5616 B( 19-C , 22-C ) :   1.0402 B( 22-C , 23-H ) :   0.9379
B( 22-C , 24-H ) :   0.9403 B( 22-C , 25-C ) :   1.0655 B( 25-C , 26-H ) :   0.9598
B( 25-C , 27-H ) :   0.9513 B( 25-C , 28-C ) :   1.0716 B( 28-C , 29-H ) :   0.9757
B( 28-C , 30-H ) :   0.9714 B( 28-C , 31-H ) :   0.9740

Dispersion correction           -0.013928203
FINAL SINGLE POINT ENERGY     -1339.863509838984

DIPOLE MOMENT
-------------
                                X             Y             Z
Electronic contribution:     28.03683      -3.82963      -8.58911
Nuclear contribution   :    -28.58963       3.78721       8.81411
                        -----------------------------------------
Total Dipole Moment    :     -0.55281      -0.04242       0.22499
                        -----------------------------------------
Magnitude (a.u.)       :      0.59834
Magnitude (Debye)      :      1.52087

Rotational constants in cm-1:     0.018783     0.008317     0.006431
Rotational constants in MHz :   563.108105   249.338104   192.811221

                             ****ORCA TERMINATED NORMALLY****
TOTAL RUN TIME: 0 days 0 hours 0 minutes 21 seconds 368 msec
