                         Program Version 4.2.1 -  RELEASE  -
|  1> ! wB97X-D3 SP def2-SVP
|  2> %pal
|  3> nprocs 24
|  4> end
|  5>
|  6> * xyz 0 1
|  7> S 	 -112.408 	 64.2446 	 -75.718
|  8> C 	 -111.247 	 63.1944 	 -76.4207
|  9> C 	 -111.512 	 61.8589 	 -76.2313
| 10> C 	 -112.802 	 61.6846 	 -75.6167
| 11> C 	 -113.366 	 62.8957 	 -75.2982
| 12> H 	 -113.332 	 60.759 	 -75.3845
| 13> C 	 -110.634 	 60.7343 	 -76.5684
| 14> H 	 -109.906 	 61.0766 	 -77.3007
| 15> H 	 -111.124 	 59.9877 	 -77.1824
| 16> C 	 -109.811 	 60.231 	 -75.3938
| 17> H 	 -109.014 	 59.6354 	 -75.8128
| 18> H 	 -109.244 	 61.1293 	 -75.0376
| 19> C 	 -110.52 	 59.413 	 -74.311
| 20> H 	 -110.988 	 58.4988 	 -74.6922
| 21> H 	 -109.946 	 59.0865 	 -73.4417
| 22> H 	 -111.309 	 60.009 	 -73.8738
| 23> S 	 -114.544 	 63.5778 	 -72.8742
| 24> C 	 -116.228 	 63.7913 	 -72.7902
| 25> C 	 -116.877 	 63.4837 	 -73.9682
| 26> C 	 -115.964 	 63.1794 	 -75.0532
| 27> C 	 -114.626 	 63.065 	 -74.5536
| 28> H 	 -117.935 	 63.4545 	 -73.9398
| 29> C 	 -116.464 	 62.9756 	 -76.4966
| 30> H 	 -117.443 	 62.4552 	 -76.4318
| 31> H 	 -115.74 	 62.3216 	 -77.0305
| 32> C 	 -116.791 	 64.2728 	 -77.1939
| 33> H 	 -117.366 	 64.7422 	 -76.4181
| 34> H 	 -117.374 	 64.1313 	 -78.1165
| 35> C 	 -115.609 	 65.2031 	 -77.4418
| 36> H 	 -114.985 	 65.4445 	 -76.6487
| 37> H 	 -115.942 	 66.153 	 -77.6946
| 38> H 	 -114.975 	 64.9336 	 -78.304
| 39> H 	 -110.342 	 63.5768 	 -76.852
| 40> H 	 -116.74 	 63.9647 	 -71.8804
| 41> *
| 42>
| 43>                          ****END OF INPUT****

CARTESIAN COORDINATES (ANGSTROEM)
---------------------------------
  S    -112.408000   64.244600  -75.718000
  C    -111.247000   63.194400  -76.420700
  C    -111.512000   61.858900  -76.231300
  C    -112.802000   61.684600  -75.616700
  C    -113.366000   62.895700  -75.298200
  H    -113.332000   60.759000  -75.384500
  C    -110.634000   60.734300  -76.568400
  H    -109.906000   61.076600  -77.300700
  H    -111.124000   59.987700  -77.182400
  C    -109.811000   60.231000  -75.393800
  H    -109.014000   59.635400  -75.812800
  H    -109.244000   61.129300  -75.037600
  C    -110.520000   59.413000  -74.311000
  H    -110.988000   58.498800  -74.692200
  H    -109.946000   59.086500  -73.441700
  H    -111.309000   60.009000  -73.873800
  S    -114.544000   63.577800  -72.874200
  C    -116.228000   63.791300  -72.790200
  C    -116.877000   63.483700  -73.968200
  C    -115.964000   63.179400  -75.053200
  C    -114.626000   63.065000  -74.553600
  H    -117.935000   63.454500  -73.939800
  C    -116.464000   62.975600  -76.496600
  H    -117.443000   62.455200  -76.431800
  H    -115.740000   62.321600  -77.030500
  C    -116.791000   64.272800  -77.193900
  H    -117.366000   64.742200  -76.418100
  H    -117.374000   64.131300  -78.116500
  C    -115.609000   65.203100  -77.441800
  H    -114.985000   65.444500  -76.648700
  H    -115.942000   66.153000  -77.694600
  H    -114.975000   64.933600  -78.304000
  H    -110.342000   63.576800  -76.852000
  H    -116.740000   63.964700  -71.880400

 Total Charge           Charge          ....    0
 Multiplicity           Mult            ....    1
 Number of Electrons    NEL             ....  134
 Basis Dimension        Dim             ....  322

ORBITAL ENERGIES
----------------

  NO   OCC          E(Eh)            E(eV)
   0   2.0000     -88.966152     -2420.8921
   1   2.0000     -88.964740     -2420.8536
   2   2.0000     -10.326419      -280.9961
   3   2.0000     -10.320400      -280.8324
   4   2.0000     -10.310245      -280.5560
   5   2.0000     -10.309754      -280.5427
   6   2.0000     -10.307239      -280.4742
   7   2.0000     -10.296058      -280.1700
   8   2.0000     -10.292388      -280.0701
   9   2.0000     -10.291271      -280.0397
  10   2.0000     -10.291062      -280.0340
  11   2.0000     -10.287706      -279.9427
  12   2.0000     -10.285653      -279.8869
  13   2.0000     -10.280941      -279.7586
  14   2.0000     -10.275259      -279.6040
  15   2.0000     -10.256638      -279.0973
  16   2.0000      -8.081975      -219.9217
  17   2.0000      -8.080238      -219.8745
  18   2.0000      -6.040246      -164.3635
  19   2.0000      -6.038584      -164.3182
  20   2.0000      -6.036378      -164.2582
  21   2.0000      -6.034565      -164.2089
  22   2.0000      -6.032876      -164.1629
  23   2.0000      -6.031218      -164.1178
  24   2.0000      -1.009807       -27.4782
  25   2.0000      -0.986479       -26.8435
  26   2.0000      -0.917016       -24.9533
  27   2.0000      -0.910092       -24.7649
  28   2.0000      -0.865516       -23.5519
  29   2.0000      -0.848693       -23.0941
  30   2.0000      -0.844087       -22.9688
  31   2.0000      -0.814588       -22.1661
  32   2.0000      -0.789763       -21.4905
  33   2.0000      -0.774607       -21.0781
  34   2.0000      -0.704769       -19.1777
  35   2.0000      -0.701037       -19.0762
  36   2.0000      -0.688409       -18.7326
  37   2.0000      -0.652410       -17.7530
  38   2.0000      -0.647148       -17.6098
  39   2.0000      -0.617597       -16.8057
  40   2.0000      -0.596224       -16.2241
  41   2.0000      -0.573794       -15.6137
  42   2.0000      -0.553098       -15.0506
  43   2.0000      -0.545464       -14.8428
  44   2.0000      -0.542694       -14.7675
  45   2.0000      -0.539165       -14.6714
  46   2.0000      -0.512111       -13.9353
  47   2.0000      -0.507856       -13.8195
  48   2.0000      -0.500284       -13.6134
  49   2.0000      -0.493798       -13.4369
  50   2.0000      -0.492811       -13.4101
  51   2.0000      -0.484061       -13.1720
  52   2.0000      -0.466865       -12.7040
  53   2.0000      -0.465082       -12.6555
  54   2.0000      -0.458405       -12.4738
  55   2.0000      -0.450733       -12.2651
  56   2.0000      -0.444693       -12.1007
  57   2.0000      -0.434104       -11.8126
  58   2.0000      -0.427982       -11.6460
  59   2.0000      -0.422351       -11.4927
  60   2.0000      -0.420514       -11.4428
  61   2.0000      -0.414891       -11.2898
  62   2.0000      -0.411928       -11.2091
  63   2.0000      -0.335586        -9.1318
  64   2.0000      -0.328440        -8.9373
  65   2.0000      -0.323151        -8.7934
  66   2.0000      -0.305214        -8.3053
  67   0.0000       0.049503         1.3471
  68   0.0000       0.057131         1.5546
  69   0.0000       0.120792         3.2869
  70   0.0000       0.124640         3.3916
  71   0.0000       0.127216         3.4617

MULLIKEN ATOMIC CHARGES
-----------------------
   0 S :    0.136609
   1 C :   -0.116943
   2 C :   -0.081389
   3 C :    0.036618
   4 C :   -0.168802
   5 H :    0.020957
   6 C :    0.072372
   7 H :    0.004348
   8 H :    0.025171
   9 C :   -0.055493
  10 H :    0.021342
  11 H :    0.027821
  12 C :   -0.038383
  13 H :    0.026203
  14 H :    0.034506
  15 H :    0.029069
  16 S :    0.118858
  17 C :   -0.083397
  18 C :   -0.027078
  19 C :   -0.053271
  20 C :   -0.191137
  21 H :    0.008406
  22 C :    0.085120
  23 H :    0.026618
  24 H :    0.031601
  25 C :   -0.057005
  26 H :    0.014492
  27 H :    0.039613
  28 C :    0.001831
  29 H :    0.007401
  30 H :   -0.001512
  31 H :    0.025536
  32 H :    0.034561
  33 H :    0.045359
Sum of atomic charges:    0.0000000

LOEWDIN ATOMIC CHARGES
----------------------
   0 S :    0.447714
   1 C :   -0.204176
   2 C :   -0.062539
   3 C :   -0.056850
   4 C :   -0.215766
   5 H :    0.036437
   6 C :   -0.038887
   7 H :    0.033568
   8 H :    0.030217
   9 C :   -0.038812
  10 H :    0.021444
  11 H :    0.031433
  12 C :   -0.071716
  13 H :    0.026245
  14 H :    0.029613
  15 H :    0.024111
  16 S :    0.426067
  17 C :   -0.195083
  18 C :   -0.073907
  19 C :   -0.044782
  20 C :   -0.211317
  21 H :    0.025407
  22 C :   -0.032644
  23 H :    0.035457
  24 H :    0.028977
  25 C :   -0.037806
  26 H :    0.023967
  27 H :    0.029274
  28 C :   -0.064400
  29 H :    0.010222
  30 H :    0.018204
  31 H :    0.027424
  32 H :    0.021077
  33 H :    0.021826

  Mayer bond orders larger than 0.100000
B(  0-S ,  1-C ) :   1.1491 B(  0-S ,  4-C ) :   1.1759 B(  1-C ,  2-C ) :   1.6169
B(  1-C , 32-H ) :   0.9679 B(  2-C ,  3-C ) :   1.2207 B(  2-C ,  6-C ) :   1.0431
B(  3-C ,  4-C ) :   1.5909 B(  3-C ,  5-H ) :   0.9939 B(  4-C , 20-C ) :   1.0021
B(  6-C ,  7-H ) :   0.9239 B(  6-C ,  8-H ) :   0.9353 B(  6-C ,  9-C ) :   1.0758
B(  9-C , 10-H ) :   0.9543 B(  9-C , 11-H ) :   0.9501 B(  9-C , 12-C ) :   1.0753
B( 12-C , 13-H ) :   0.9732 B( 12-C , 14-H ) :   0.9723 B( 12-C , 15-H ) :   0.9718
B( 16-S , 17-C ) :   1.1753 B( 16-S , 20-C ) :   1.1604 B( 17-C , 18-C ) :   1.6069
B( 17-C , 33-H ) :   0.9664 B( 18-C , 19-C ) :   1.2372 B( 18-C , 21-H ) :   0.9919
B( 19-C , 20-C ) :   1.5772 B( 19-C , 22-C ) :   1.0385 B( 22-C , 23-H ) :   0.9340
B( 22-C , 24-H ) :   0.9368 B( 22-C , 25-C ) :   1.0679 B( 25-C , 26-H ) :   0.9511
B( 25-C , 27-H ) :   0.9555 B( 25-C , 28-C ) :   1.0890 B( 28-C , 29-H ) :   0.9678
B( 28-C , 30-H ) :   0.9635 B( 28-C , 31-H ) :   0.9732

Dispersion correction           -0.015565896
FINAL SINGLE POINT ENERGY     -1339.884310496014

DIPOLE MOMENT
-------------
                                X             Y             Z
Electronic contribution:     -2.12374       9.85442      10.91714
Nuclear contribution   :      2.06717     -10.12476     -11.11469
                        -----------------------------------------
Total Dipole Moment    :     -0.05657      -0.27034      -0.19754
                        -----------------------------------------
Magnitude (a.u.)       :      0.33957
Magnitude (Debye)      :      0.86311

Rotational constants in cm-1:     0.021384     0.008821     0.007570
Rotational constants in MHz :   641.085565   264.460284   226.951191

                             ****ORCA TERMINATED NORMALLY****
TOTAL RUN TIME: 0 days 0 hours 0 minutes 22 seconds 300 msec
