                         Program Version 4.2.1 -  RELEASE  -
|  1> ! wB97X-D3 SP def2-SVP
|  2> %pal
|  3> nprocs 24
|  4> end
|  5>
|  6> * xyz 0 1
|  7> S 	 -125.784 	 58.8876 	 -55.7438
|  8> C 	 -126.491 	 57.6743 	 -56.7557
|  9> C 	 -127.081 	 58.2468 	 -57.9228
| 10> C 	 -126.979 	 59.6987 	 -57.9488
| 11> C 	 -126.209 	 60.1712 	 -56.8354
| 12> H 	 -127.418 	 60.4717 	 -58.6028
| 13> C 	 -127.871 	 57.3566 	 -58.903
| 14> H 	 -127.204 	 56.6082 	 -59.287
| 15> H 	 -128.124 	 58.0578 	 -59.76
| 16> C 	 -129.14 	 56.6997 	 -58.3208
| 17> H 	 -128.895 	 56.3603 	 -57.3142
| 18> H 	 -129.947 	 57.4502 	 -58.2044
| 19> C 	 -129.797 	 55.6589 	 -59.2533
| 20> H 	 -130.81 	 55.3974 	 -58.8421
| 21> H 	 -130.048 	 56.1534 	 -60.1893
| 22> H 	 -129.147 	 54.855 	 -59.2357
| 23> S 	 -125.546 	 62.7228 	 -57.97
| 24> C 	 -125.636 	 64.0884 	 -56.9244
| 25> C 	 -126.159 	 63.8098 	 -55.6331
| 26> C 	 -126.263 	 62.3831 	 -55.4549
| 27> C 	 -126.049 	 61.6309 	 -56.5972
| 28> H 	 -126.392 	 64.6631 	 -54.9676
| 29> C 	 -126.835 	 61.8245 	 -54.2351
| 30> H 	 -127.501 	 60.9502 	 -54.4249
| 31> H 	 -127.499 	 62.5786 	 -53.8128
| 32> C 	 -125.938 	 61.4212 	 -53.1309
| 33> H 	 -125.087 	 62.1037 	 -53.1642
| 34> H 	 -125.506 	 60.438 	 -53.3739
| 35> C 	 -126.508 	 61.519 	 -51.721
| 36> H 	 -125.707 	 61.2838 	 -51.0111
| 37> H 	 -127.316 	 60.7264 	 -51.6363
| 38> H 	 -126.982 	 62.4866 	 -51.4931
| 39> H 	 -126.4 	 56.5907 	 -56.695
| 40> H 	 -125.324 	 65.0571 	 -57.1739
| 41> *
| 42>
| 43>                          ****END OF INPUT****

CARTESIAN COORDINATES (ANGSTROEM)
---------------------------------
  S    -125.784000   58.887600  -55.743800
  C    -126.491000   57.674300  -56.755700
  C    -127.081000   58.246800  -57.922800
  C    -126.979000   59.698700  -57.948800
  C    -126.209000   60.171200  -56.835400
  H    -127.418000   60.471700  -58.602800
  C    -127.871000   57.356600  -58.903000
  H    -127.204000   56.608200  -59.287000
  H    -128.124000   58.057800  -59.760000
  C    -129.140000   56.699700  -58.320800
  H    -128.895000   56.360300  -57.314200
  H    -129.947000   57.450200  -58.204400
  C    -129.797000   55.658900  -59.253300
  H    -130.810000   55.397400  -58.842100
  H    -130.048000   56.153400  -60.189300
  H    -129.147000   54.855000  -59.235700
  S    -125.546000   62.722800  -57.970000
  C    -125.636000   64.088400  -56.924400
  C    -126.159000   63.809800  -55.633100
  C    -126.263000   62.383100  -55.454900
  C    -126.049000   61.630900  -56.597200
  H    -126.392000   64.663100  -54.967600
  C    -126.835000   61.824500  -54.235100
  H    -127.501000   60.950200  -54.424900
  H    -127.499000   62.578600  -53.812800
  C    -125.938000   61.421200  -53.130900
  H    -125.087000   62.103700  -53.164200
  H    -125.506000   60.438000  -53.373900
  C    -126.508000   61.519000  -51.721000
  H    -125.707000   61.283800  -51.011100
  H    -127.316000   60.726400  -51.636300
  H    -126.982000   62.486600  -51.493100
  H    -126.400000   56.590700  -56.695000
  H    -125.324000   65.057100  -57.173900

 Total Charge           Charge          ....    0
 Multiplicity           Mult            ....    1
 Number of Electrons    NEL             ....  134
 Basis Dimension        Dim             ....  322

ORBITAL ENERGIES
----------------

  NO   OCC          E(Eh)            E(eV)
   0   2.0000     -88.977740     -2421.2074
   1   2.0000     -88.970067     -2420.9986
   2   2.0000     -10.336885      -281.2809
   3   2.0000     -10.333242      -281.1818
   4   2.0000     -10.317925      -280.7650
   5   2.0000     -10.316987      -280.7395
   6   2.0000     -10.311116      -280.5797
   7   2.0000     -10.304847      -280.4092
   8   2.0000     -10.302732      -280.3516
   9   2.0000     -10.302321      -280.3404
  10   2.0000     -10.296493      -280.1818
  11   2.0000     -10.287111      -279.9265
  12   2.0000     -10.282744      -279.8077
  13   2.0000     -10.279037      -279.7068
  14   2.0000     -10.278584      -279.6945
  15   2.0000     -10.276513      -279.6381
  16   2.0000      -8.091422      -220.1788
  17   2.0000      -8.083863      -219.9731
  18   2.0000      -6.049995      -164.6287
  19   2.0000      -6.045831      -164.5154
  20   2.0000      -6.042443      -164.4232
  21   2.0000      -6.042407      -164.4222
  22   2.0000      -6.038553      -164.3174
  23   2.0000      -6.034609      -164.2101
  24   2.0000      -1.000149       -27.2154
  25   2.0000      -0.979437       -26.6518
  26   2.0000      -0.917658       -24.9708
  27   2.0000      -0.907422       -24.6922
  28   2.0000      -0.863858       -23.5068
  29   2.0000      -0.852849       -23.2072
  30   2.0000      -0.849074       -23.1045
  31   2.0000      -0.808205       -21.9924
  32   2.0000      -0.781447       -21.2643
  33   2.0000      -0.768610       -20.9149
  34   2.0000      -0.701207       -19.0808
  35   2.0000      -0.697248       -18.9731
  36   2.0000      -0.687444       -18.7063
  37   2.0000      -0.665667       -18.1137
  38   2.0000      -0.637016       -17.3341
  39   2.0000      -0.610239       -16.6054
  40   2.0000      -0.596411       -16.2292
  41   2.0000      -0.574287       -15.6272
  42   2.0000      -0.565356       -15.3841
  43   2.0000      -0.563174       -15.3248
  44   2.0000      -0.522500       -14.2180
  45   2.0000      -0.518136       -14.0992
  46   2.0000      -0.514765       -14.0075
  47   2.0000      -0.513351       -13.9690
  48   2.0000      -0.509443       -13.8626
  49   2.0000      -0.504783       -13.7358
  50   2.0000      -0.492630       -13.4051
  51   2.0000      -0.475930       -12.9507
  52   2.0000      -0.472922       -12.8689
  53   2.0000      -0.464867       -12.6497
  54   2.0000      -0.458978       -12.4894
  55   2.0000      -0.453003       -12.3268
  56   2.0000      -0.444550       -12.0968
  57   2.0000      -0.436772       -11.8852
  58   2.0000      -0.430163       -11.7053
  59   2.0000      -0.419381       -11.4119
  60   2.0000      -0.417354       -11.3568
  61   2.0000      -0.413440       -11.2503
  62   2.0000      -0.402944       -10.9647
  63   2.0000      -0.350436        -9.5358
  64   2.0000      -0.332264        -9.0414
  65   2.0000      -0.330254        -8.9867
  66   2.0000      -0.284283        -7.7357
  67   0.0000       0.024764         0.6739
  68   0.0000       0.063494         1.7278
  69   0.0000       0.099823         2.7163
  70   0.0000       0.115056         3.1308
  71   0.0000       0.126590         3.4447

MULLIKEN ATOMIC CHARGES
-----------------------
   0 S :    0.134024
   1 C :   -0.122974
   2 C :   -0.096123
   3 C :   -0.004904
   4 C :   -0.144502
   5 H :    0.036236
   6 C :    0.052286
   7 H :    0.028599
   8 H :    0.029747
   9 C :   -0.098077
  10 H :    0.025927
  11 H :    0.027558
  12 C :   -0.019286
  13 H :    0.036996
  14 H :    0.035635
  15 H :    0.027593
  16 S :    0.108640
  17 C :   -0.078065
  18 C :   -0.054386
  19 C :   -0.010454
  20 C :   -0.151644
  21 H :    0.040410
  22 C :    0.025247
  23 H :    0.036308
  24 H :    0.006416
  25 C :   -0.060736
  26 H :    0.014893
  27 H :    0.023308
  28 C :   -0.061321
  29 H :    0.044160
  30 H :    0.034105
  31 H :    0.037766
  32 H :    0.057791
  33 H :    0.038826
Sum of atomic charges:    0.0000000

LOEWDIN ATOMIC CHARGES
----------------------
   0 S :    0.448832
   1 C :   -0.222705
   2 C :   -0.055342
   3 C :   -0.069888
   4 C :   -0.199454
   5 H :    0.036145
   6 C :   -0.037262
   7 H :    0.026590
   8 H :    0.035307
   9 C :   -0.043067
  10 H :    0.018813
  11 H :    0.026227
  12 C :   -0.056603
  13 H :    0.033848
  14 H :    0.028682
  15 H :    0.013319
  16 S :    0.393162
  17 C :   -0.181619
  18 C :   -0.071667
  19 C :   -0.056355
  20 C :   -0.175294
  21 H :    0.041092
  22 C :   -0.047721
  23 H :    0.030932
  24 H :    0.029919
  25 C :   -0.049119
  26 H :    0.020045
  27 H :    0.014202
  28 C :   -0.065564
  29 H :    0.030287
  30 H :    0.029099
  31 H :    0.025288
  32 H :    0.032484
  33 H :    0.017388

  Mayer bond orders larger than 0.100000
B(  0-S ,  1-C ) :   1.1499 B(  0-S ,  4-C ) :   1.1740 B(  1-C ,  2-C ) :   1.5669
B(  1-C , 32-H ) :   0.9645 B(  2-C ,  3-C ) :   1.2781 B(  2-C ,  6-C ) :   1.0233
B(  3-C ,  4-C ) :   1.5162 B(  3-C ,  5-H ) :   0.9833 B(  4-C , 20-C ) :   1.0477
B(  6-C ,  7-H ) :   0.9407 B(  6-C ,  8-H ) :   0.9436 B(  6-C ,  9-C ) :   1.0557
B(  9-C , 10-H ) :   0.9607 B(  9-C , 11-H ) :   0.9570 B(  9-C , 12-C ) :   1.0741
B( 12-C , 13-H ) :   0.9749 B( 12-C , 14-H ) :   0.9730 B( 12-C , 15-H ) :   0.9801
B( 16-S , 17-C ) :   1.1707 B( 16-S , 20-C ) :   1.1094 B( 17-C , 18-C ) :   1.6043
B( 17-C , 33-H ) :   0.9705 B( 18-C , 19-C ) :   1.2206 B( 18-C , 21-H ) :   0.9873
B( 19-C , 20-C ) :   1.5958 B( 19-C , 22-C ) :   1.0637 B( 22-C , 23-H ) :   0.9256
B( 22-C , 24-H ) :   0.9311 B( 22-C , 25-C ) :   1.0613 B( 25-C , 26-H ) :   0.9538
B( 25-C , 27-H ) :   0.9400 B( 25-C , 28-C ) :   1.0893 B( 28-C , 29-H ) :   0.9732
B( 28-C , 30-H ) :   0.9744 B( 28-C , 31-H ) :   0.9726

Dispersion correction           -0.013841747
FINAL SINGLE POINT ENERGY     -1339.867442653195

DIPOLE MOMENT
-------------
                                X             Y             Z
Electronic contribution:     14.39150      12.00874      -7.17741
Nuclear contribution   :    -14.77388     -12.03991       7.25748
                        -----------------------------------------
Total Dipole Moment    :     -0.38238      -0.03117       0.08007
                        -----------------------------------------
Magnitude (a.u.)       :      0.39192
Magnitude (Debye)      :      0.99617

Rotational constants in cm-1:     0.020063     0.007549     0.006074
Rotational constants in MHz :   601.473787   226.318923   182.079211

                             ****ORCA TERMINATED NORMALLY****
TOTAL RUN TIME: 0 days 0 hours 0 minutes 22 seconds 115 msec
