                         Program Version 4.2.1 -  RELEASE  -
|  1> ! wB97X-D3 SP def2-SVP
|  2> %pal
|  3> nprocs 24
|  4> end
|  5>
|  6> * xyz 0 1
|  7> S 	 -98.0928 	 47.8607 	 -94.4758
|  8> C 	 -98.822 	 46.4035 	 -94.064
|  9> C 	 -98.8653 	 45.5287 	 -95.1499
| 10> C 	 -98.5395 	 46.1779 	 -96.3819
| 11> C 	 -98.1237 	 47.468 	 -96.1499
| 12> H 	 -98.803 	 45.7052 	 -97.3249
| 13> C 	 -99.4783 	 44.145 	 -95.0857
| 14> H 	 -99.7049 	 43.8217 	 -96.1467
| 15> H 	 -100.405 	 44.2667 	 -94.486
| 16> C 	 -98.4882 	 43.0238 	 -94.6668
| 17> H 	 -97.504 	 43.2049 	 -95.1296
| 18> H 	 -98.4334 	 43.1293 	 -93.6044
| 19> C 	 -98.8847 	 41.5894 	 -95.0439
| 20> H 	 -99.9589 	 41.4521 	 -94.7514
| 21> H 	 -98.7864 	 41.4052 	 -96.1207
| 22> H 	 -98.4306 	 40.7862 	 -94.5506
| 23> S 	 -95.9538 	 49.0705 	 -96.9001
| 24> C 	 -96.0876 	 49.8931 	 -98.5108
| 25> C 	 -97.3073 	 49.5797 	 -99.0611
| 26> C 	 -98.2284 	 48.9369 	 -98.2423
| 27> C 	 -97.6581 	 48.4817 	 -97.069
| 28> H 	 -97.5163 	 49.7539 	 -100.08
| 29> C 	 -99.5349 	 48.4109 	 -98.8354
| 30> H 	 -100.164 	 49.2816 	 -99.0786
| 31> H 	 -100.049 	 47.9184 	 -97.9994
| 32> C 	 -99.4212 	 47.4334 	 -99.973
| 33> H 	 -98.9598 	 46.4567 	 -99.5492
| 34> H 	 -98.8667 	 47.7702 	 -100.829
| 35> C 	 -100.758 	 46.9575 	 -100.366
| 36> H 	 -100.768 	 46.1986 	 -101.159
| 37> H 	 -101.427 	 47.8189 	 -100.675
| 38> H 	 -101.298 	 46.4169 	 -99.6012
| 39> H 	 -99.2271 	 46.2173 	 -93.0735
| 40> H 	 -95.271 	 50.4427 	 -98.9527
| 41> *
| 42>
| 43>                          ****END OF INPUT****

CARTESIAN COORDINATES (ANGSTROEM)
---------------------------------
  S    -98.092800   47.860700  -94.475800
  C    -98.822000   46.403500  -94.064000
  C    -98.865300   45.528700  -95.149900
  C    -98.539500   46.177900  -96.381900
  C    -98.123700   47.468000  -96.149900
  H    -98.803000   45.705200  -97.324900
  C    -99.478300   44.145000  -95.085700
  H    -99.704900   43.821700  -96.146700
  H    -100.405000   44.266700  -94.486000
  C    -98.488200   43.023800  -94.666800
  H    -97.504000   43.204900  -95.129600
  H    -98.433400   43.129300  -93.604400
  C    -98.884700   41.589400  -95.043900
  H    -99.958900   41.452100  -94.751400
  H    -98.786400   41.405200  -96.120700
  H    -98.430600   40.786200  -94.550600
  S    -95.953800   49.070500  -96.900100
  C    -96.087600   49.893100  -98.510800
  C    -97.307300   49.579700  -99.061100
  C    -98.228400   48.936900  -98.242300
  C    -97.658100   48.481700  -97.069000
  H    -97.516300   49.753900  -100.080000
  C    -99.534900   48.410900  -98.835400
  H    -100.164000   49.281600  -99.078600
  H    -100.049000   47.918400  -97.999400
  C    -99.421200   47.433400  -99.973000
  H    -98.959800   46.456700  -99.549200
  H    -98.866700   47.770200  -100.829000
  C    -100.758000   46.957500  -100.366000
  H    -100.768000   46.198600  -101.159000
  H    -101.427000   47.818900  -100.675000
  H    -101.298000   46.416900  -99.601200
  H    -99.227100   46.217300  -93.073500
  H    -95.271000   50.442700  -98.952700

 Total Charge           Charge          ....    0
 Multiplicity           Mult            ....    1
 Number of Electrons    NEL             ....  134
 Basis Dimension        Dim             ....  322

ORBITAL ENERGIES
----------------

  NO   OCC          E(Eh)            E(eV)
   0   2.0000     -88.966346     -2420.8973
   1   2.0000     -88.962637     -2420.7964
   2   2.0000     -10.327455      -281.0243
   3   2.0000     -10.325558      -280.9727
   4   2.0000     -10.319785      -280.8156
   5   2.0000     -10.310559      -280.5646
   6   2.0000     -10.300613      -280.2939
   7   2.0000     -10.298675      -280.2412
   8   2.0000     -10.297893      -280.2199
   9   2.0000     -10.295028      -280.1420
  10   2.0000     -10.291294      -280.0404
  11   2.0000     -10.291077      -280.0344
  12   2.0000     -10.287070      -279.9254
  13   2.0000     -10.286358      -279.9060
  14   2.0000     -10.279043      -279.7070
  15   2.0000     -10.277993      -279.6784
  16   2.0000      -8.083050      -219.9510
  17   2.0000      -8.075730      -219.7518
  18   2.0000      -6.041245      -164.3906
  19   2.0000      -6.037203      -164.2807
  20   2.0000      -6.034362      -164.2033
  21   2.0000      -6.034093      -164.1960
  22   2.0000      -6.030629      -164.1018
  23   2.0000      -6.026296      -163.9839
  24   2.0000      -1.013927       -27.5903
  25   2.0000      -0.982725       -26.7413
  26   2.0000      -0.918017       -24.9805
  27   2.0000      -0.910023       -24.7630
  28   2.0000      -0.869993       -23.6737
  29   2.0000      -0.857412       -23.3314
  30   2.0000      -0.850441       -23.1417
  31   2.0000      -0.814023       -22.1507
  32   2.0000      -0.781390       -21.2627
  33   2.0000      -0.768343       -20.9077
  34   2.0000      -0.703459       -19.1421
  35   2.0000      -0.698844       -19.0165
  36   2.0000      -0.697339       -18.9756
  37   2.0000      -0.664846       -18.0914
  38   2.0000      -0.644502       -17.5378
  39   2.0000      -0.620565       -16.8864
  40   2.0000      -0.599285       -16.3074
  41   2.0000      -0.575236       -15.6530
  42   2.0000      -0.571271       -15.5451
  43   2.0000      -0.558593       -15.2001
  44   2.0000      -0.532135       -14.4801
  45   2.0000      -0.527158       -14.3447
  46   2.0000      -0.521339       -14.1863
  47   2.0000      -0.512048       -13.9335
  48   2.0000      -0.505784       -13.7631
  49   2.0000      -0.504396       -13.7253
  50   2.0000      -0.494024       -13.4431
  51   2.0000      -0.477261       -12.9869
  52   2.0000      -0.473905       -12.8956
  53   2.0000      -0.463661       -12.6169
  54   2.0000      -0.460794       -12.5389
  55   2.0000      -0.453047       -12.3280
  56   2.0000      -0.441924       -12.0254
  57   2.0000      -0.435165       -11.8414
  58   2.0000      -0.431670       -11.7463
  59   2.0000      -0.423092       -11.5129
  60   2.0000      -0.420950       -11.4546
  61   2.0000      -0.412313       -11.2196
  62   2.0000      -0.410575       -11.1723
  63   2.0000      -0.344575        -9.3764
  64   2.0000      -0.330994        -9.0068
  65   2.0000      -0.330447        -8.9919
  66   2.0000      -0.290696        -7.9102
  67   0.0000       0.032714         0.8902
  68   0.0000       0.059947         1.6312
  69   0.0000       0.106984         2.9112
  70   0.0000       0.112884         3.0717
  71   0.0000       0.130843         3.5604

MULLIKEN ATOMIC CHARGES
-----------------------
   0 S :    0.136828
   1 C :   -0.121074
   2 C :   -0.107732
   3 C :    0.052868
   4 C :   -0.174391
   5 H :    0.009601
   6 C :    0.019229
   7 H :    0.015641
   8 H :    0.048119
   9 C :   -0.057501
  10 H :    0.040438
  11 H :    0.021959
  12 C :   -0.045364
  13 H :    0.024016
  14 H :    0.035443
  15 H :    0.025867
  16 S :    0.080591
  17 C :   -0.095485
  18 C :   -0.019452
  19 C :    0.000780
  20 C :   -0.137064
  21 H :    0.003577
  22 C :    0.032921
  23 H :    0.030886
  24 H :    0.024798
  25 C :   -0.053836
  26 H :    0.035303
  27 H :    0.033382
  28 C :   -0.054691
  29 H :    0.029742
  30 H :    0.030299
  31 H :    0.021340
  32 H :    0.051650
  33 H :    0.061311
Sum of atomic charges:    0.0000000

LOEWDIN ATOMIC CHARGES
----------------------
   0 S :    0.457733
   1 C :   -0.219083
   2 C :   -0.065677
   3 C :   -0.057574
   4 C :   -0.205839
   5 H :    0.032297
   6 C :   -0.036824
   7 H :    0.029547
   8 H :    0.036279
   9 C :   -0.040033
  10 H :    0.029709
  11 H :    0.018429
  12 C :   -0.069135
  13 H :    0.029286
  14 H :    0.025940
  15 H :    0.019963
  16 S :    0.349142
  17 C :   -0.162553
  18 C :   -0.062880
  19 C :   -0.063601
  20 C :   -0.176163
  21 H :    0.023593
  22 C :   -0.032743
  23 H :    0.031998
  24 H :    0.032639
  25 C :   -0.044150
  26 H :    0.035408
  27 H :    0.022209
  28 C :   -0.070730
  29 H :    0.026143
  30 H :    0.027284
  31 H :    0.022163
  32 H :    0.027978
  33 H :    0.029246

  Mayer bond orders larger than 0.100000
B(  0-S ,  1-C ) :   1.1703 B(  0-S ,  4-C ) :   1.1869 B(  1-C ,  2-C ) :   1.5674
B(  1-C , 32-H ) :   0.9727 B(  2-C ,  3-C ) :   1.2781 B(  2-C ,  6-C ) :   1.0256
B(  3-C ,  4-C ) :   1.5330 B(  3-C ,  5-H ) :   0.9939 B(  4-C , 20-C ) :   1.0210
B(  6-C ,  7-H ) :   0.9466 B(  6-C ,  8-H ) :   0.9449 B(  6-C ,  9-C ) :   1.0435
B(  9-C , 10-H ) :   0.9593 B(  9-C , 11-H ) :   0.9566 B(  9-C , 12-C ) :   1.0845
B( 12-C , 13-H ) :   0.9720 B( 12-C , 14-H ) :   0.9750 B( 12-C , 15-H ) :   0.9752
B( 16-S , 17-C ) :   1.1242 B( 16-S , 20-C ) :   1.1317 B( 17-C , 18-C ) :   1.6119
B( 17-C , 20-C ) :   0.1094 B( 17-C , 33-H ) :   0.9730 B( 18-C , 19-C ) :   1.2367
B( 18-C , 21-H ) :   0.9919 B( 19-C , 20-C ) :   1.6043 B( 19-C , 22-C ) :   1.0528
B( 22-C , 23-H ) :   0.9272 B( 22-C , 24-H ) :   0.9327 B( 22-C , 25-C ) :   1.0710
B( 25-C , 26-H ) :   0.9454 B( 25-C , 27-H ) :   0.9498 B( 25-C , 28-C ) :   1.0920
B( 28-C , 29-H ) :   0.9707 B( 28-C , 30-H ) :   0.9682 B( 28-C , 31-H ) :   0.9717

Dispersion correction           -0.014045757
FINAL SINGLE POINT ENERGY     -1339.868323978215

DIPOLE MOMENT
-------------
                                X             Y             Z
Electronic contribution:     15.98654      23.51263      11.08596
Nuclear contribution   :    -16.42653     -24.04534     -11.43617
                        -----------------------------------------
Total Dipole Moment    :     -0.43998      -0.53271      -0.35021
                        -----------------------------------------
Magnitude (a.u.)       :      0.77461
Magnitude (Debye)      :      1.96890

Rotational constants in cm-1:     0.017738     0.008535     0.006577
Rotational constants in MHz :   531.760384   255.868952   197.182507

                             ****ORCA TERMINATED NORMALLY****
TOTAL RUN TIME: 0 days 0 hours 0 minutes 20 seconds 397 msec
