                         Program Version 4.2.1 -  RELEASE  -
|  1> ! wB97X-D3 SP def2-SVP
|  2> %pal
|  3> nprocs 24
|  4> end
|  5>
|  6> * xyz 0 1
|  7> S 	 -59.8476 	 -3.0294 	 -28.7934
|  8> C 	 -61.1667 	 -2.50981 	 -29.9346
|  9> C 	 -62.4354 	 -2.69649 	 -29.4127
| 10> C 	 -62.3232 	 -3.04947 	 -27.9934
| 11> C 	 -61.0161 	 -2.98984 	 -27.4321
| 12> H 	 -63.1445 	 -3.16559 	 -27.328
| 13> C 	 -63.733 	 -2.51793 	 -30.1958
| 14> H 	 -64.0075 	 -1.47884 	 -30.2025
| 15> H 	 -64.4914 	 -2.99633 	 -29.4372
| 16> C 	 -63.8949 	 -3.32419 	 -31.5176
| 17> H 	 -63.213 	 -2.73021 	 -32.1497
| 18> H 	 -63.605 	 -4.3354 	 -31.3179
| 19> C 	 -65.3193 	 -3.33198 	 -32.1962
| 20> H 	 -65.542 	 -2.30725 	 -32.6257
| 21> H 	 -65.2563 	 -4.04425 	 -32.9662
| 22> H 	 -66.1478 	 -3.65134 	 -31.435
| 23> S 	 -59.3807 	 -4.46349 	 -25.8243
| 24> C 	 -59.3838 	 -4.18879 	 -24.1205
| 25> C 	 -60.3949 	 -3.34283 	 -23.7732
| 26> C 	 -61.0936 	 -2.77615 	 -24.8687
| 27> C 	 -60.5554 	 -3.25377 	 -26.0745
| 28> H 	 -60.4963 	 -3.1074 	 -22.6986
| 29> C 	 -62.0887 	 -1.66723 	 -24.6919
| 30> H 	 -62.2596 	 -1.62638 	 -23.5954
| 31> H 	 -63.0006 	 -1.96572 	 -25.1031
| 32> C 	 -61.6443 	 -0.278674 	 -25.1873
| 33> H 	 -62.3012 	 0.444144 	 -24.7902
| 34> H 	 -61.6815 	 -0.283686 	 -26.3123
| 35> C 	 -60.1204 	 0.0805303 	 -24.7171
| 36> H 	 -60.0546 	 -0.209871 	 -23.6752
| 37> H 	 -59.9371 	 1.16187 	 -24.7412
| 38> H 	 -59.2822 	 -0.431178 	 -25.2688
| 39> H 	 -60.8442 	 -2.27694 	 -30.9474
| 40> H 	 -58.6168 	 -4.68285 	 -23.4449
| 41> *
| 42>
| 43>                          ****END OF INPUT****

CARTESIAN COORDINATES (ANGSTROEM)
---------------------------------
  S    -59.847600   -3.029400  -28.793400
  C    -61.166700   -2.509810  -29.934600
  C    -62.435400   -2.696490  -29.412700
  C    -62.323200   -3.049470  -27.993400
  C    -61.016100   -2.989840  -27.432100
  H    -63.144500   -3.165590  -27.328000
  C    -63.733000   -2.517930  -30.195800
  H    -64.007500   -1.478840  -30.202500
  H    -64.491400   -2.996330  -29.437200
  C    -63.894900   -3.324190  -31.517600
  H    -63.213000   -2.730210  -32.149700
  H    -63.605000   -4.335400  -31.317900
  C    -65.319300   -3.331980  -32.196200
  H    -65.542000   -2.307250  -32.625700
  H    -65.256300   -4.044250  -32.966200
  H    -66.147800   -3.651340  -31.435000
  S    -59.380700   -4.463490  -25.824300
  C    -59.383800   -4.188790  -24.120500
  C    -60.394900   -3.342830  -23.773200
  C    -61.093600   -2.776150  -24.868700
  C    -60.555400   -3.253770  -26.074500
  H    -60.496300   -3.107400  -22.698600
  C    -62.088700   -1.667230  -24.691900
  H    -62.259600   -1.626380  -23.595400
  H    -63.000600   -1.965720  -25.103100
  C    -61.644300   -0.278674  -25.187300
  H    -62.301200    0.444144  -24.790200
  H    -61.681500   -0.283686  -26.312300
  C    -60.120400    0.080530  -24.717100
  H    -60.054600   -0.209871  -23.675200
  H    -59.937100    1.161870  -24.741200
  H    -59.282200   -0.431178  -25.268800
  H    -60.844200   -2.276940  -30.947400
  H    -58.616800   -4.682850  -23.444900

 Total Charge           Charge          ....    0
 Multiplicity           Mult            ....    1
 Number of Electrons    NEL             ....  134
 Basis Dimension        Dim             ....  322

ORBITAL ENERGIES
----------------

  NO   OCC          E(Eh)            E(eV)
   0   2.0000     -88.964972     -2420.8600
   1   2.0000     -88.960938     -2420.7502
   2   2.0000     -10.336959      -281.2830
   3   2.0000     -10.323485      -280.9163
   4   2.0000     -10.320408      -280.8326
   5   2.0000     -10.316863      -280.7361
   6   2.0000     -10.311661      -280.5946
   7   2.0000     -10.303054      -280.3604
   8   2.0000     -10.302276      -280.3392
   9   2.0000     -10.300995      -280.3043
  10   2.0000     -10.295329      -280.1501
  11   2.0000     -10.293843      -280.1097
  12   2.0000     -10.292712      -280.0789
  13   2.0000     -10.290577      -280.0208
  14   2.0000     -10.287564      -279.9389
  15   2.0000     -10.279769      -279.7267
  16   2.0000      -8.081117      -219.8984
  17   2.0000      -8.074436      -219.7166
  18   2.0000      -6.039421      -164.3410
  19   2.0000      -6.035411      -164.2319
  20   2.0000      -6.033063      -164.1680
  21   2.0000      -6.032027      -164.1398
  22   2.0000      -6.029397      -164.0682
  23   2.0000      -6.024882      -163.9454
  24   2.0000      -1.009474       -27.4692
  25   2.0000      -0.974038       -26.5049
  26   2.0000      -0.905649       -24.6440
  27   2.0000      -0.904869       -24.6227
  28   2.0000      -0.866715       -23.5845
  29   2.0000      -0.839722       -22.8500
  30   2.0000      -0.838529       -22.8175
  31   2.0000      -0.807973       -21.9861
  32   2.0000      -0.781492       -21.2655
  33   2.0000      -0.770553       -20.9678
  34   2.0000      -0.708526       -19.2800
  35   2.0000      -0.700696       -19.0669
  36   2.0000      -0.685882       -18.6638
  37   2.0000      -0.660896       -17.9839
  38   2.0000      -0.637179       -17.3385
  39   2.0000      -0.611967       -16.6525
  40   2.0000      -0.588886       -16.0244
  41   2.0000      -0.568401       -15.4670
  42   2.0000      -0.559376       -15.2214
  43   2.0000      -0.551647       -15.0111
  44   2.0000      -0.542594       -14.7647
  45   2.0000      -0.524508       -14.2726
  46   2.0000      -0.513327       -13.9683
  47   2.0000      -0.503601       -13.7037
  48   2.0000      -0.499690       -13.5972
  49   2.0000      -0.494906       -13.4671
  50   2.0000      -0.481382       -13.0991
  51   2.0000      -0.476277       -12.9601
  52   2.0000      -0.471322       -12.8253
  53   2.0000      -0.459553       -12.5051
  54   2.0000      -0.455182       -12.3861
  55   2.0000      -0.448172       -12.1954
  56   2.0000      -0.442711       -12.0468
  57   2.0000      -0.438918       -11.9436
  58   2.0000      -0.436663       -11.8822
  59   2.0000      -0.426014       -11.5924
  60   2.0000      -0.419681       -11.4201
  61   2.0000      -0.410433       -11.1684
  62   2.0000      -0.402010       -10.9392
  63   2.0000      -0.349477        -9.5097
  64   2.0000      -0.331801        -9.0288
  65   2.0000      -0.326707        -8.8902
  66   2.0000      -0.286113        -7.7855
  67   0.0000       0.018959         0.5159
  68   0.0000       0.068850         1.8735
  69   0.0000       0.097647         2.6571
  70   0.0000       0.125243         3.4080
  71   0.0000       0.135691         3.6923

MULLIKEN ATOMIC CHARGES
-----------------------
   0 S :    0.063072
   1 C :   -0.131877
   2 C :   -0.069079
   3 C :    0.049457
   4 C :   -0.159602
   5 H :    0.002535
   6 C :    0.021462
   7 H :    0.048783
   8 H :    0.023647
   9 C :   -0.080141
  10 H :    0.037373
  11 H :    0.040906
  12 C :   -0.063883
  13 H :    0.045214
  14 H :    0.036388
  15 H :    0.049027
  16 S :    0.117737
  17 C :   -0.129598
  18 C :   -0.045724
  19 C :   -0.056553
  20 C :   -0.148855
  21 H :    0.028149
  22 C :    0.106288
  23 H :    0.013925
  24 H :    0.011314
  25 C :   -0.064552
  26 H :    0.028698
  27 H :    0.054307
  28 C :   -0.080321
  29 H :    0.019276
  30 H :    0.036596
  31 H :    0.058944
  32 H :    0.056090
  33 H :    0.080998
Sum of atomic charges:   -0.0000000

LOEWDIN ATOMIC CHARGES
----------------------
   0 S :    0.344125
   1 C :   -0.166147
   2 C :   -0.063178
   3 C :   -0.055713
   4 C :   -0.173009
   5 H :    0.021368
   6 C :   -0.040322
   7 H :    0.030799
   8 H :    0.035057
   9 C :   -0.037616
  10 H :    0.026536
  11 H :    0.025765
  12 C :   -0.067425
  13 H :    0.032171
  14 H :    0.019595
  15 H :    0.036240
  16 S :    0.435576
  17 C :   -0.205516
  18 C :   -0.077971
  19 C :   -0.056738
  20 C :   -0.218799
  21 H :    0.036704
  22 C :   -0.031147
  23 H :    0.032737
  24 H :    0.021006
  25 C :   -0.028794
  26 H :    0.018488
  27 H :    0.031653
  28 C :   -0.072171
  29 H :    0.018973
  30 H :    0.024714
  31 H :    0.036048
  32 H :    0.023464
  33 H :    0.043528

  Mayer bond orders larger than 0.100000
B(  0-S ,  1-C ) :   1.1230 B(  0-S ,  4-C ) :   1.1285 B(  1-C ,  2-C ) :   1.6163
B(  1-C ,  4-C ) :   0.1004 B(  1-C , 32-H ) :   0.9742 B(  2-C ,  3-C ) :   1.2230
B(  2-C ,  6-C ) :   1.0060 B(  3-C ,  4-C ) :   1.5749 B(  3-C ,  5-H ) :   0.9897
B(  4-C , 20-C ) :   1.0661 B(  6-C ,  7-H ) :   0.9430 B(  6-C ,  8-H ) :   0.9419
B(  6-C ,  9-C ) :   1.0473 B(  9-C , 10-H ) :   0.9571 B(  9-C , 11-H ) :   0.9614
B(  9-C , 12-C ) :   1.0796 B( 12-C , 13-H ) :   0.9754 B( 12-C , 14-H ) :   0.9767
B( 12-C , 15-H ) :   0.9738 B( 16-S , 17-C ) :   1.1620 B( 16-S , 20-C ) :   1.1721
B( 17-C , 18-C ) :   1.5919 B( 17-C , 33-H ) :   0.9602 B( 18-C , 19-C ) :   1.2688
B( 18-C , 21-H ) :   0.9846 B( 19-C , 20-C ) :   1.5448 B( 19-C , 22-C ) :   1.0489
B( 22-C , 23-H ) :   0.9295 B( 22-C , 24-H ) :   0.9206 B( 22-C , 25-C ) :   1.0769
B( 25-C , 26-H ) :   0.9587 B( 25-C , 27-H ) :   0.9551 B( 25-C , 28-C ) :   1.0619
B( 28-C , 29-H ) :   0.9792 B( 28-C , 30-H ) :   0.9788 B( 28-C , 31-H ) :   0.9739

Dispersion correction           -0.014784142
FINAL SINGLE POINT ENERGY     -1339.858667485839

DIPOLE MOMENT
-------------
                                X             Y             Z
Electronic contribution:     19.00039     -12.29765       5.85651
Nuclear contribution   :    -19.56419      12.49199      -5.80855
                        -----------------------------------------
Total Dipole Moment    :     -0.56379       0.19434       0.04796
                        -----------------------------------------
Magnitude (a.u.)       :      0.59827
Magnitude (Debye)      :      1.52068

Rotational constants in cm-1:     0.023559     0.007228     0.006465
Rotational constants in MHz :   706.275784   216.694477   193.810661

                             ****ORCA TERMINATED NORMALLY****
TOTAL RUN TIME: 0 days 0 hours 0 minutes 21 seconds 653 msec
