                         Program Version 4.2.1 -  RELEASE  -
|  1> ! wB97X-D3 SP def2-SVP
|  2> %pal
|  3> nprocs 24
|  4> end
|  5>
|  6> * xyz 0 1
|  7> S 	 -116.046 	 33.0575 	 -21.8597
|  8> C 	 -117.012 	 32.0099 	 -22.9252
|  9> C 	 -117.453 	 30.8775 	 -22.2457
| 10> C 	 -117.006 	 30.9113 	 -20.8924
| 11> C 	 -116.237 	 31.978 	 -20.4399
| 12> H 	 -117.301 	 30.1514 	 -20.1374
| 13> C 	 -118.302 	 29.7623 	 -22.8668
| 14> H 	 -118.634 	 29.0871 	 -22.121
| 15> H 	 -117.662 	 29.2366 	 -23.5909
| 16> C 	 -119.585 	 30.3002 	 -23.5706
| 17> H 	 -120.127 	 31.0992 	 -22.9991
| 18> H 	 -119.316 	 30.8346 	 -24.4788
| 19> C 	 -120.618 	 29.1763 	 -23.9409
| 20> H 	 -120.121 	 28.3843 	 -24.4506
| 21> H 	 -120.913 	 28.5996 	 -23.1355
| 22> H 	 -121.503 	 29.3935 	 -24.5333
| 23> S 	 -116.204 	 33.4695 	 -18.1076
| 24> C 	 -115.324 	 32.7581 	 -16.7474
| 25> C 	 -114.492 	 31.7642 	 -17.0567
| 26> C 	 -114.739 	 31.3254 	 -18.451
| 27> C 	 -115.642 	 32.1635 	 -19.1432
| 28> H 	 -113.762 	 31.4109 	 -16.411
| 29> C 	 -113.893 	 30.3134 	 -19.2235
| 30> H 	 -114.583 	 29.7014 	 -19.827
| 31> H 	 -113.425 	 29.6872 	 -18.4565
| 32> C 	 -112.864 	 31.0503 	 -19.9765
| 33> H 	 -112.468 	 31.8649 	 -19.3945
| 34> H 	 -113.377 	 31.5623 	 -20.8315
| 35> C 	 -111.692 	 30.2121 	 -20.5322
| 36> H 	 -111.215 	 29.7975 	 -19.7201
| 37> H 	 -111.054 	 30.7957 	 -21.0475
| 38> H 	 -112 	 29.3641 	 -21.1419
| 39> H 	 -117.181 	 32.2763 	 -24.0129
| 40> H 	 -115.356 	 33.3351 	 -15.8348
| 41> *
| 42>
| 43>                          ****END OF INPUT****

CARTESIAN COORDINATES (ANGSTROEM)
---------------------------------
  S    -116.046000   33.057500  -21.859700
  C    -117.012000   32.009900  -22.925200
  C    -117.453000   30.877500  -22.245700
  C    -117.006000   30.911300  -20.892400
  C    -116.237000   31.978000  -20.439900
  H    -117.301000   30.151400  -20.137400
  C    -118.302000   29.762300  -22.866800
  H    -118.634000   29.087100  -22.121000
  H    -117.662000   29.236600  -23.590900
  C    -119.585000   30.300200  -23.570600
  H    -120.127000   31.099200  -22.999100
  H    -119.316000   30.834600  -24.478800
  C    -120.618000   29.176300  -23.940900
  H    -120.121000   28.384300  -24.450600
  H    -120.913000   28.599600  -23.135500
  H    -121.503000   29.393500  -24.533300
  S    -116.204000   33.469500  -18.107600
  C    -115.324000   32.758100  -16.747400
  C    -114.492000   31.764200  -17.056700
  C    -114.739000   31.325400  -18.451000
  C    -115.642000   32.163500  -19.143200
  H    -113.762000   31.410900  -16.411000
  C    -113.893000   30.313400  -19.223500
  H    -114.583000   29.701400  -19.827000
  H    -113.425000   29.687200  -18.456500
  C    -112.864000   31.050300  -19.976500
  H    -112.468000   31.864900  -19.394500
  H    -113.377000   31.562300  -20.831500
  C    -111.692000   30.212100  -20.532200
  H    -111.215000   29.797500  -19.720100
  H    -111.054000   30.795700  -21.047500
  H    -112.000000   29.364100  -21.141900
  H    -117.181000   32.276300  -24.012900
  H    -115.356000   33.335100  -15.834800

 Total Charge           Charge          ....    0
 Multiplicity           Mult            ....    1
 Number of Electrons    NEL             ....  134
 Basis Dimension        Dim             ....  322

ORBITAL ENERGIES
----------------

  NO   OCC          E(Eh)            E(eV)
   0   2.0000     -88.964821     -2420.8559
   1   2.0000     -88.962016     -2420.7795
   2   2.0000     -10.332212      -281.1538
   3   2.0000     -10.326342      -280.9940
   4   2.0000     -10.324445      -280.9424
   5   2.0000     -10.317353      -280.7494
   6   2.0000     -10.311014      -280.5770
   7   2.0000     -10.306199      -280.4459
   8   2.0000     -10.299079      -280.2522
   9   2.0000     -10.297623      -280.2126
  10   2.0000     -10.295684      -280.1598
  11   2.0000     -10.295388      -280.1518
  12   2.0000     -10.287481      -279.9366
  13   2.0000     -10.276704      -279.6433
  14   2.0000     -10.271625      -279.5051
  15   2.0000     -10.258684      -279.1530
  16   2.0000      -8.078221      -219.8196
  17   2.0000      -8.076947      -219.7849
  18   2.0000      -6.036855      -164.2712
  19   2.0000      -6.035505      -164.2345
  20   2.0000      -6.032743      -164.1593
  21   2.0000      -6.031603      -164.1283
  22   2.0000      -6.029078      -164.0595
  23   2.0000      -6.027472      -164.0159
  24   2.0000      -1.000441       -27.2234
  25   2.0000      -0.978489       -26.6260
  26   2.0000      -0.913712       -24.8634
  27   2.0000      -0.906543       -24.6683
  28   2.0000      -0.871484       -23.7143
  29   2.0000      -0.846462       -23.0334
  30   2.0000      -0.842800       -22.9338
  31   2.0000      -0.816787       -22.2259
  32   2.0000      -0.786336       -21.3973
  33   2.0000      -0.770679       -20.9712
  34   2.0000      -0.711687       -19.3660
  35   2.0000      -0.704662       -19.1748
  36   2.0000      -0.689731       -18.7685
  37   2.0000      -0.665183       -18.1005
  38   2.0000      -0.637652       -17.3514
  39   2.0000      -0.613200       -16.6860
  40   2.0000      -0.598131       -16.2760
  41   2.0000      -0.572922       -15.5900
  42   2.0000      -0.567085       -15.4312
  43   2.0000      -0.555448       -15.1145
  44   2.0000      -0.533413       -14.5149
  45   2.0000      -0.520017       -14.1504
  46   2.0000      -0.519108       -14.1256
  47   2.0000      -0.513730       -13.9793
  48   2.0000      -0.502718       -13.6797
  49   2.0000      -0.498442       -13.5633
  50   2.0000      -0.492095       -13.3906
  51   2.0000      -0.477317       -12.9885
  52   2.0000      -0.474301       -12.9064
  53   2.0000      -0.461001       -12.5445
  54   2.0000      -0.455346       -12.3906
  55   2.0000      -0.450333       -12.2542
  56   2.0000      -0.446565       -12.1517
  57   2.0000      -0.443365       -12.0646
  58   2.0000      -0.440402       -11.9839
  59   2.0000      -0.419825       -11.4240
  60   2.0000      -0.415980       -11.3194
  61   2.0000      -0.414269       -11.2728
  62   2.0000      -0.409093       -11.1320
  63   2.0000      -0.345052        -9.3893
  64   2.0000      -0.330072        -8.9817
  65   2.0000      -0.324508        -8.8303
  66   2.0000      -0.297485        -8.0950
  67   0.0000       0.031812         0.8656
  68   0.0000       0.059394         1.6162
  69   0.0000       0.108895         2.9632
  70   0.0000       0.121955         3.3186
  71   0.0000       0.130013         3.5378

MULLIKEN ATOMIC CHARGES
-----------------------
   0 S :    0.093733
   1 C :   -0.163795
   2 C :   -0.083128
   3 C :    0.027795
   4 C :   -0.163192
   5 H :    0.023522
   6 C :    0.103240
   7 H :    0.013241
   8 H :    0.049830
   9 C :   -0.107291
  10 H :    0.046204
  11 H :    0.025778
  12 C :   -0.012554
  13 H :    0.001876
  14 H :    0.003878
  15 H :    0.041103
  16 S :    0.095492
  17 C :   -0.084662
  18 C :    0.021732
  19 C :   -0.092465
  20 C :   -0.160757
  21 H :    0.002189
  22 C :    0.103896
  23 H :    0.033196
  24 H :    0.008790
  25 C :   -0.101030
  26 H :    0.023749
  27 H :    0.031026
  28 C :    0.048741
  29 H :    0.000415
  30 H :    0.009306
  31 H :    0.022271
  32 H :    0.079956
  33 H :    0.057916
Sum of atomic charges:   -0.0000000

LOEWDIN ATOMIC CHARGES
----------------------
   0 S :    0.376112
   1 C :   -0.192323
   2 C :   -0.069102
   3 C :   -0.064922
   4 C :   -0.190793
   5 H :    0.035067
   6 C :   -0.021538
   7 H :    0.024190
   8 H :    0.039686
   9 C :   -0.038982
  10 H :    0.030830
  11 H :    0.019306
  12 C :   -0.070628
  13 H :    0.021995
  14 H :    0.015416
  15 H :    0.030434
  16 S :    0.386867
  17 C :   -0.160215
  18 C :   -0.062614
  19 C :   -0.033712
  20 C :   -0.208555
  21 H :    0.025477
  22 C :   -0.033432
  23 H :    0.034461
  24 H :    0.024661
  25 C :   -0.041039
  26 H :    0.023346
  27 H :    0.026862
  28 C :   -0.046088
  29 H :    0.013142
  30 H :    0.012206
  31 H :    0.027355
  32 H :    0.041853
  33 H :    0.024677

  Mayer bond orders larger than 0.100000
B(  0-S ,  1-C ) :   1.1494 B(  0-S ,  4-C ) :   1.1244 B(  1-C ,  2-C ) :   1.5805
B(  1-C ,  4-C ) :   0.1054 B(  1-C , 32-H ) :   0.9628 B(  2-C ,  3-C ) :   1.2660
B(  2-C ,  6-C ) :   1.0153 B(  3-C ,  4-C ) :   1.5862 B(  3-C ,  5-H ) :   0.9832
B(  4-C , 20-C ) :   1.0510 B(  6-C ,  7-H ) :   0.9485 B(  6-C ,  8-H ) :   0.9332
B(  6-C ,  9-C ) :   1.0513 B(  9-C , 10-H ) :   0.9657 B(  9-C , 11-H ) :   0.9551
B(  9-C , 12-C ) :   1.0738 B( 12-C , 13-H ) :   0.9665 B( 12-C , 14-H ) :   0.9718
B( 12-C , 15-H ) :   0.9774 B( 16-S , 17-C ) :   1.1511 B( 16-S , 20-C ) :   1.1221
B( 17-C , 18-C ) :   1.6375 B( 17-C , 33-H ) :   0.9644 B( 18-C , 19-C ) :   1.1972
B( 18-C , 21-H ) :   1.0037 B( 19-C , 20-C ) :   1.6027 B( 19-C , 22-C ) :   1.0536
B( 22-C , 23-H ) :   0.9205 B( 22-C , 24-H ) :   0.9304 B( 22-C , 25-C ) :   1.0744
B( 25-C , 26-H ) :   0.9538 B( 25-C , 27-H ) :   0.9452 B( 25-C , 28-C ) :   1.0867
B( 28-C , 29-H ) :   0.9712 B( 28-C , 30-H ) :   0.9707 B( 28-C , 31-H ) :   0.9717

Dispersion correction           -0.014370984
FINAL SINGLE POINT ENERGY     -1339.865346159416

DIPOLE MOMENT
-------------
                                X             Y             Z
Electronic contribution:      0.61204      19.73002      12.83136
Nuclear contribution   :     -0.49986     -20.31007     -12.86189
                        -----------------------------------------
Total Dipole Moment    :      0.11218      -0.58005      -0.03053
                        -----------------------------------------
Magnitude (a.u.)       :      0.59158
Magnitude (Debye)      :      1.50368

Rotational constants in cm-1:     0.020240     0.007393     0.006514
Rotational constants in MHz :   606.783295   221.625629   195.284341

                             ****ORCA TERMINATED NORMALLY****
TOTAL RUN TIME: 0 days 0 hours 0 minutes 21 seconds 263 msec
