                         Program Version 4.2.1 -  RELEASE  -
|  1> ! wB97X-D3 SP def2-SVP
|  2> %pal
|  3> nprocs 24
|  4> end
|  5>
|  6> * xyz 0 1
|  7> S 	 -46.0321 	 -2.22416 	 -23.623
|  8> C 	 -47.0875 	 -2.96518 	 -24.7956
|  9> C 	 -46.4114 	 -3.77129 	 -25.713
| 10> C 	 -45.0001 	 -3.64066 	 -25.4843
| 11> C 	 -44.5746 	 -2.82079 	 -24.4493
| 12> H 	 -44.2804 	 -4.2217 	 -26.097
| 13> C 	 -46.9803 	 -4.52493 	 -26.9716
| 14> H 	 -46.5031 	 -5.5381 	 -26.8877
| 15> H 	 -46.5848 	 -4.17925 	 -27.8415
| 16> C 	 -48.5279 	 -4.68405 	 -26.9174
| 17> H 	 -48.921 	 -5.63232 	 -27.3898
| 18> H 	 -48.7121 	 -4.78637 	 -25.8301
| 19> C 	 -49.3316 	 -3.62239 	 -27.5277
| 20> H 	 -49.1278 	 -2.67284 	 -26.9444
| 21> H 	 -48.9366 	 -3.40645 	 -28.4946
| 22> H 	 -50.4341 	 -3.91782 	 -27.6083
| 23> S 	 -42.7277 	 -0.833637 	 -23.9494
| 24> C 	 -41.0788 	 -1.31968 	 -23.4772
| 25> C 	 -40.8677 	 -2.66496 	 -23.5589
| 26> C 	 -42.0599 	 -3.34397 	 -23.8678
| 27> C 	 -43.1807 	 -2.46147 	 -24.0609
| 28> H 	 -39.8924 	 -2.98997 	 -23.3931
| 29> C 	 -42.0793 	 -4.86773 	 -23.9761
| 30> H 	 -42.1212 	 -5.06836 	 -25.0309
| 31> H 	 -43.1028 	 -5.11195 	 -23.6557
| 32> C 	 -40.9324 	 -5.59344 	 -23.3036
| 33> H 	 -41.0012 	 -5.31255 	 -22.2439
| 34> H 	 -40.0007 	 -5.27421 	 -23.7262
| 35> C 	 -40.7167 	 -7.16299 	 -23.3019
| 36> H 	 -41.59 	 -7.7431 	 -23.1468
| 37> H 	 -40.0149 	 -7.47118 	 -22.5306
| 38> H 	 -40.2401 	 -7.44938 	 -24.2345
| 39> H 	 -48.1808 	 -2.91029 	 -24.7482
| 40> H 	 -40.3364 	 -0.538124 	 -23.125
| 41> *
| 42>
| 43>                          ****END OF INPUT****

CARTESIAN COORDINATES (ANGSTROEM)
---------------------------------
  S    -46.032100   -2.224160  -23.623000
  C    -47.087500   -2.965180  -24.795600
  C    -46.411400   -3.771290  -25.713000
  C    -45.000100   -3.640660  -25.484300
  C    -44.574600   -2.820790  -24.449300
  H    -44.280400   -4.221700  -26.097000
  C    -46.980300   -4.524930  -26.971600
  H    -46.503100   -5.538100  -26.887700
  H    -46.584800   -4.179250  -27.841500
  C    -48.527900   -4.684050  -26.917400
  H    -48.921000   -5.632320  -27.389800
  H    -48.712100   -4.786370  -25.830100
  C    -49.331600   -3.622390  -27.527700
  H    -49.127800   -2.672840  -26.944400
  H    -48.936600   -3.406450  -28.494600
  H    -50.434100   -3.917820  -27.608300
  S    -42.727700   -0.833637  -23.949400
  C    -41.078800   -1.319680  -23.477200
  C    -40.867700   -2.664960  -23.558900
  C    -42.059900   -3.343970  -23.867800
  C    -43.180700   -2.461470  -24.060900
  H    -39.892400   -2.989970  -23.393100
  C    -42.079300   -4.867730  -23.976100
  H    -42.121200   -5.068360  -25.030900
  H    -43.102800   -5.111950  -23.655700
  C    -40.932400   -5.593440  -23.303600
  H    -41.001200   -5.312550  -22.243900
  H    -40.000700   -5.274210  -23.726200
  C    -40.716700   -7.162990  -23.301900
  H    -41.590000   -7.743100  -23.146800
  H    -40.014900   -7.471180  -22.530600
  H    -40.240100   -7.449380  -24.234500
  H    -48.180800   -2.910290  -24.748200
  H    -40.336400   -0.538124  -23.125000

 Total Charge           Charge          ....    0
 Multiplicity           Mult            ....    1
 Number of Electrons    NEL             ....  134
 Basis Dimension        Dim             ....  322

ORBITAL ENERGIES
----------------

  NO   OCC          E(Eh)            E(eV)
   0   2.0000     -88.968007     -2420.9425
   1   2.0000     -88.967017     -2420.9156
   2   2.0000     -10.334754      -281.2230
   3   2.0000     -10.328795      -281.0608
   4   2.0000     -10.320284      -280.8292
   5   2.0000     -10.318427      -280.7787
   6   2.0000     -10.307327      -280.4766
   7   2.0000     -10.307159      -280.4720
   8   2.0000     -10.298744      -280.2431
   9   2.0000     -10.297727      -280.2154
  10   2.0000     -10.290102      -280.0079
  11   2.0000     -10.289941      -280.0035
  12   2.0000     -10.289560      -279.9932
  13   2.0000     -10.288095      -279.9533
  14   2.0000     -10.281715      -279.7797
  15   2.0000     -10.279204      -279.7114
  16   2.0000      -8.083099      -219.9523
  17   2.0000      -8.081283      -219.9029
  18   2.0000      -6.041397      -164.3948
  19   2.0000      -6.039886      -164.3537
  20   2.0000      -6.037561      -164.2904
  21   2.0000      -6.035812      -164.2428
  22   2.0000      -6.034062      -164.1952
  23   2.0000      -6.032008      -164.1393
  24   2.0000      -1.004165       -27.3247
  25   2.0000      -0.983318       -26.7574
  26   2.0000      -0.913446       -24.8561
  27   2.0000      -0.906867       -24.6771
  28   2.0000      -0.869072       -23.6487
  29   2.0000      -0.849601       -23.1188
  30   2.0000      -0.848250       -23.0821
  31   2.0000      -0.815128       -22.1808
  32   2.0000      -0.786465       -21.4008
  33   2.0000      -0.772146       -21.0112
  34   2.0000      -0.708072       -19.2676
  35   2.0000      -0.701168       -19.0797
  36   2.0000      -0.687708       -18.7135
  37   2.0000      -0.653042       -17.7702
  38   2.0000      -0.636093       -17.3090
  39   2.0000      -0.616957       -16.7883
  40   2.0000      -0.592784       -16.1305
  41   2.0000      -0.581377       -15.8201
  42   2.0000      -0.571639       -15.5551
  43   2.0000      -0.550182       -14.9712
  44   2.0000      -0.539714       -14.6864
  45   2.0000      -0.522864       -14.2279
  46   2.0000      -0.521385       -14.1876
  47   2.0000      -0.510747       -13.8981
  48   2.0000      -0.505530       -13.7562
  49   2.0000      -0.492168       -13.3926
  50   2.0000      -0.487237       -13.2584
  51   2.0000      -0.477565       -12.9952
  52   2.0000      -0.475814       -12.9476
  53   2.0000      -0.463953       -12.6248
  54   2.0000      -0.462444       -12.5837
  55   2.0000      -0.455702       -12.4003
  56   2.0000      -0.444133       -12.0855
  57   2.0000      -0.439050       -11.9471
  58   2.0000      -0.430228       -11.7071
  59   2.0000      -0.425238       -11.5713
  60   2.0000      -0.424944       -11.5633
  61   2.0000      -0.410915       -11.1816
  62   2.0000      -0.407645       -11.0926
  63   2.0000      -0.350545        -9.5388
  64   2.0000      -0.330787        -9.0012
  65   2.0000      -0.326987        -8.8978
  66   2.0000      -0.289642        -7.8816
  67   0.0000       0.028547         0.7768
  68   0.0000       0.072111         1.9622
  69   0.0000       0.115378         3.1396
  70   0.0000       0.117974         3.2102
  71   0.0000       0.134462         3.6589

MULLIKEN ATOMIC CHARGES
-----------------------
   0 S :    0.115046
   1 C :   -0.146778
   2 C :   -0.102663
   3 C :    0.011111
   4 C :   -0.156939
   5 H :    0.015936
   6 C :    0.098706
   7 H :    0.036304
   8 H :    0.014075
   9 C :   -0.112595
  10 H :    0.033049
  11 H :    0.030887
  12 C :   -0.035999
  13 H :    0.027554
  14 H :    0.019721
  15 H :    0.057165
  16 S :    0.122055
  17 C :   -0.130960
  18 C :   -0.014596
  19 C :   -0.061900
  20 C :   -0.152494
  21 H :   -0.001068
  22 C :    0.119116
  23 H :    0.025092
  24 H :    0.029969
  25 C :   -0.116029
  26 H :    0.039045
  27 H :    0.032180
  28 C :   -0.016724
  29 H :    0.026331
  30 H :    0.031237
  31 H :    0.025726
  32 H :    0.061778
  33 H :    0.076662
Sum of atomic charges:   -0.0000000

LOEWDIN ATOMIC CHARGES
----------------------
   0 S :    0.398657
   1 C :   -0.204208
   2 C :   -0.065566
   3 C :   -0.065443
   4 C :   -0.193504
   5 H :    0.031618
   6 C :   -0.017629
   7 H :    0.043762
   8 H :    0.014601
   9 C :   -0.055102
  10 H :    0.029803
  11 H :    0.024906
  12 C :   -0.072258
  13 H :    0.028070
  14 H :    0.019852
  15 H :    0.039122
  16 S :    0.426265
  17 C :   -0.181115
  18 C :   -0.069771
  19 C :   -0.046448
  20 C :   -0.229463
  21 H :    0.027125
  22 C :   -0.036427
  23 H :    0.027387
  24 H :    0.035569
  25 C :   -0.043019
  26 H :    0.029274
  27 H :    0.022599
  28 C :   -0.058279
  29 H :    0.018275
  30 H :    0.030273
  31 H :    0.022941
  32 H :    0.029299
  33 H :    0.038837

  Mayer bond orders larger than 0.100000
B(  0-S ,  1-C ) :   1.1509 B(  0-S ,  4-C ) :   1.1377 B(  1-C ,  2-C ) :   1.6079
B(  1-C , 32-H ) :   0.9540 B(  2-C ,  3-C ) :   1.2663 B(  2-C ,  6-C ) :   0.9949
B(  3-C ,  4-C ) :   1.5791 B(  3-C ,  5-H ) :   0.9863 B(  4-C , 20-C ) :   1.0318
B(  6-C ,  7-H ) :   0.9337 B(  6-C ,  8-H ) :   0.9530 B(  6-C ,  9-C ) :   1.0592
B(  9-C , 10-H ) :   0.9563 B(  9-C , 11-H ) :   0.9537 B(  9-C , 12-C ) :   1.0858
B( 12-C , 13-H ) :   0.9685 B( 12-C , 14-H ) :   0.9684 B( 12-C , 15-H ) :   0.9707
B( 16-S , 17-C ) :   1.1661 B( 16-S , 20-C ) :   1.1748 B( 17-C , 18-C ) :   1.5798
B( 17-C , 20-C ) :   0.1048 B( 17-C , 33-H ) :   0.9561 B( 18-C , 19-C ) :   1.2662
B( 18-C , 21-H ) :   1.0047 B( 19-C , 20-C ) :   1.5408 B( 19-C , 22-C ) :   1.0223
B( 22-C , 23-H ) :   0.9214 B( 22-C , 24-H ) :   0.9248 B( 22-C , 25-C ) :   1.0775
B( 25-C , 26-H ) :   0.9620 B( 25-C , 27-H ) :   0.9449 B( 25-C , 28-C ) :   1.0783
B( 28-C , 29-H ) :   0.9773 B( 28-C , 30-H ) :   0.9738 B( 28-C , 31-H ) :   0.9782

Dispersion correction           -0.013444556
FINAL SINGLE POINT ENERGY     -1339.859618669900

DIPOLE MOMENT
-------------
                                X             Y             Z
Electronic contribution:      3.24596      22.89943       9.59947
Nuclear contribution   :     -3.00389     -23.49519      -9.94407
                        -----------------------------------------
Total Dipole Moment    :      0.24207      -0.59576      -0.34460
                        -----------------------------------------
Magnitude (a.u.)       :      0.72957
Magnitude (Debye)      :      1.85443

Rotational constants in cm-1:     0.019831     0.007235     0.005742
Rotational constants in MHz :   594.507616   216.910903   172.126050

                             ****ORCA TERMINATED NORMALLY****
TOTAL RUN TIME: 0 days 0 hours 0 minutes 20 seconds 667 msec
