                         Program Version 4.2.1 -  RELEASE  -
|  1> ! wB97X-D3 SP def2-SVP
|  2> %pal
|  3> nprocs 24
|  4> end
|  5>
|  6> * xyz 0 1
|  7> S 	 -33.6329 	 16.1277 	 14.2883
|  8> C 	 -34.0009 	 17.7488 	 14.853
|  9> C 	 -34.3028 	 18.6087 	 13.8432
| 10> C 	 -34.1291 	 18.0681 	 12.5616
| 11> C 	 -33.763 	 16.7266 	 12.5904
| 12> H 	 -34.417 	 18.5499 	 11.6044
| 13> C 	 -34.7338 	 20.0515 	 14.1107
| 14> H 	 -34.568 	 20.5852 	 13.2116
| 15> H 	 -34.0162 	 20.4019 	 14.8365
| 16> C 	 -36.1381 	 20.3466 	 14.5678
| 17> H 	 -36.777 	 19.8003 	 13.8343
| 18> H 	 -36.2026 	 19.803 	 15.4996
| 19> C 	 -36.449 	 21.8628 	 14.7548
| 20> H 	 -36.745 	 22.2522 	 13.78
| 21> H 	 -37.2685 	 22.0877 	 15.4411
| 22> H 	 -35.7628 	 22.5761 	 15.1102
| 23> S 	 -32.5815 	 14.4428 	 11.6245
| 24> C 	 -32.7376 	 14.0524 	 9.93575
| 25> C 	 -33.5752 	 14.9074 	 9.34884
| 26> C 	 -34.1444 	 15.9096 	 10.1624
| 27> C 	 -33.5975 	 15.8507 	 11.4574
| 28> H 	 -33.7952 	 14.6833 	 8.27354
| 29> C 	 -35.0423 	 17.04 	 9.62681
| 30> H 	 -34.4377 	 17.983 	 9.39948
| 31> H 	 -35.7628 	 17.2808 	 10.3571
| 32> C 	 -35.7891 	 16.6704 	 8.27821
| 33> H 	 -36.1875 	 15.674 	 8.34309
| 34> H 	 -35.0088 	 16.6165 	 7.47444
| 35> C 	 -36.7806 	 17.7494 	 7.86952
| 36> H 	 -37.2315 	 17.7353 	 6.90054
| 37> H 	 -36.3056 	 18.7268 	 8.05152
| 38> H 	 -37.605 	 17.6294 	 8.50656
| 39> H 	 -34.1696 	 18.1319 	 15.8838
| 40> H 	 -32.1816 	 13.2903 	 9.36059
| 41> *
| 42>
| 43>                          ****END OF INPUT****

CARTESIAN COORDINATES (ANGSTROEM)
---------------------------------
  S    -33.632900   16.127700   14.288300
  C    -34.000900   17.748800   14.853000
  C    -34.302800   18.608700   13.843200
  C    -34.129100   18.068100   12.561600
  C    -33.763000   16.726600   12.590400
  H    -34.417000   18.549900   11.604400
  C    -34.733800   20.051500   14.110700
  H    -34.568000   20.585200   13.211600
  H    -34.016200   20.401900   14.836500
  C    -36.138100   20.346600   14.567800
  H    -36.777000   19.800300   13.834300
  H    -36.202600   19.803000   15.499600
  C    -36.449000   21.862800   14.754800
  H    -36.745000   22.252200   13.780000
  H    -37.268500   22.087700   15.441100
  H    -35.762800   22.576100   15.110200
  S    -32.581500   14.442800   11.624500
  C    -32.737600   14.052400    9.935750
  C    -33.575200   14.907400    9.348840
  C    -34.144400   15.909600   10.162400
  C    -33.597500   15.850700   11.457400
  H    -33.795200   14.683300    8.273540
  C    -35.042300   17.040000    9.626810
  H    -34.437700   17.983000    9.399480
  H    -35.762800   17.280800   10.357100
  C    -35.789100   16.670400    8.278210
  H    -36.187500   15.674000    8.343090
  H    -35.008800   16.616500    7.474440
  C    -36.780600   17.749400    7.869520
  H    -37.231500   17.735300    6.900540
  H    -36.305600   18.726800    8.051520
  H    -37.605000   17.629400    8.506560
  H    -34.169600   18.131900   15.883800
  H    -32.181600   13.290300    9.360590

 Total Charge           Charge          ....    0
 Multiplicity           Mult            ....    1
 Number of Electrons    NEL             ....  134
 Basis Dimension        Dim             ....  322

ORBITAL ENERGIES
----------------

  NO   OCC          E(Eh)            E(eV)
   0   2.0000     -88.970976     -2421.0233
   1   2.0000     -88.964652     -2420.8513
   2   2.0000     -10.334636      -281.2197
   3   2.0000     -10.328720      -281.0588
   4   2.0000     -10.312911      -280.6286
   5   2.0000     -10.312853      -280.6270
   6   2.0000     -10.306321      -280.4493
   7   2.0000     -10.302520      -280.3458
   8   2.0000     -10.295683      -280.1598
   9   2.0000     -10.294391      -280.1246
  10   2.0000     -10.292094      -280.0621
  11   2.0000     -10.291765      -280.0532
  12   2.0000     -10.290082      -280.0074
  13   2.0000     -10.282866      -279.8110
  14   2.0000     -10.280077      -279.7351
  15   2.0000     -10.275317      -279.6056
  16   2.0000      -8.084457      -219.9893
  17   2.0000      -8.079868      -219.8644
  18   2.0000      -6.043162      -164.4428
  19   2.0000      -6.039303      -164.3378
  20   2.0000      -6.038386      -164.3128
  21   2.0000      -6.034924      -164.2186
  22   2.0000      -6.034304      -164.2018
  23   2.0000      -6.030591      -164.1007
  24   2.0000      -1.009723       -27.4760
  25   2.0000      -0.986773       -26.8514
  26   2.0000      -0.913296       -24.8521
  27   2.0000      -0.907763       -24.7015
  28   2.0000      -0.873774       -23.7766
  29   2.0000      -0.855696       -23.2847
  30   2.0000      -0.845445       -23.0057
  31   2.0000      -0.817583       -22.2476
  32   2.0000      -0.786532       -21.4026
  33   2.0000      -0.774347       -21.0710
  34   2.0000      -0.711645       -19.3648
  35   2.0000      -0.707630       -19.2556
  36   2.0000      -0.704113       -19.1599
  37   2.0000      -0.649009       -17.6604
  38   2.0000      -0.628865       -17.1123
  39   2.0000      -0.620664       -16.8891
  40   2.0000      -0.598881       -16.2964
  41   2.0000      -0.574308       -15.6277
  42   2.0000      -0.572090       -15.5673
  43   2.0000      -0.558987       -15.2108
  44   2.0000      -0.527578       -14.3561
  45   2.0000      -0.523357       -14.2413
  46   2.0000      -0.514527       -14.0010
  47   2.0000      -0.512161       -13.9366
  48   2.0000      -0.507322       -13.8049
  49   2.0000      -0.499715       -13.5979
  50   2.0000      -0.486748       -13.2451
  51   2.0000      -0.481420       -13.1001
  52   2.0000      -0.480122       -13.0648
  53   2.0000      -0.466850       -12.7036
  54   2.0000      -0.466287       -12.6883
  55   2.0000      -0.456022       -12.4090
  56   2.0000      -0.448067       -12.1925
  57   2.0000      -0.432686       -11.7740
  58   2.0000      -0.431785       -11.7495
  59   2.0000      -0.426989       -11.6190
  60   2.0000      -0.420945       -11.4545
  61   2.0000      -0.416329       -11.3289
  62   2.0000      -0.414247       -11.2722
  63   2.0000      -0.361928        -9.8486
  64   2.0000      -0.338197        -9.2028
  65   2.0000      -0.331774        -9.0280
  66   2.0000      -0.281401        -7.6573
  67   0.0000       0.018125         0.4932
  68   0.0000       0.081047         2.2054
  69   0.0000       0.099427         2.7055
  70   0.0000       0.128202         3.4886
  71   0.0000       0.131711         3.5840

MULLIKEN ATOMIC CHARGES
-----------------------
   0 S :    0.112002
   1 C :   -0.115040
   2 C :   -0.102783
   3 C :   -0.013259
   4 C :   -0.122715
   5 H :    0.018042
   6 C :    0.070414
   7 H :   -0.000273
   8 H :    0.024770
   9 C :   -0.041924
  10 H :    0.037180
  11 H :    0.015824
  12 C :   -0.033175
  13 H :    0.027764
  14 H :    0.030390
  15 H :    0.020931
  16 S :    0.099072
  17 C :   -0.086300
  18 C :   -0.068216
  19 C :   -0.025493
  20 C :   -0.140549
  21 H :    0.033882
  22 C :    0.002275
  23 H :    0.066984
  24 H :    0.029225
  25 C :   -0.098209
  26 H :    0.032303
  27 H :    0.033330
  28 C :    0.002820
  29 H :    0.031549
  30 H :    0.027195
  31 H :    0.015950
  32 H :    0.052924
  33 H :    0.063108
Sum of atomic charges:   -0.0000000

LOEWDIN ATOMIC CHARGES
----------------------
   0 S :    0.381767
   1 C :   -0.201486
   2 C :   -0.068686
   3 C :   -0.068471
   4 C :   -0.167368
   5 H :    0.038568
   6 C :   -0.030132
   7 H :    0.019202
   8 H :    0.029261
   9 C :   -0.036780
  10 H :    0.032162
  11 H :    0.018590
  12 C :   -0.070379
  13 H :    0.028641
  14 H :    0.031044
  15 H :    0.022228
  16 S :    0.406442
  17 C :   -0.194404
  18 C :   -0.083654
  19 C :   -0.060926
  20 C :   -0.192921
  21 H :    0.040920
  22 C :   -0.030971
  23 H :    0.040542
  24 H :    0.021804
  25 C :   -0.040035
  26 H :    0.019671
  27 H :    0.023662
  28 C :   -0.061579
  29 H :    0.025514
  30 H :    0.028800
  31 H :    0.019756
  32 H :    0.038173
  33 H :    0.041044

  Mayer bond orders larger than 0.100000
B(  0-S ,  1-C ) :   1.1193 B(  0-S ,  4-C ) :   1.1289 B(  1-C ,  2-C ) :   1.6424
B(  1-C , 32-H ) :   0.9543 B(  2-C ,  3-C ) :   1.2500 B(  2-C ,  6-C ) :   1.0110
B(  3-C ,  4-C ) :   1.5644 B(  3-C ,  5-H ) :   0.9795 B(  4-C , 20-C ) :   1.1070
B(  6-C ,  7-H ) :   0.9392 B(  6-C ,  8-H ) :   0.9383 B(  6-C ,  9-C ) :   1.0640
B(  9-C , 10-H ) :   0.9574 B(  9-C , 11-H ) :   0.9572 B(  9-C , 12-C ) :   1.0593
B( 12-C , 13-H ) :   0.9760 B( 12-C , 14-H ) :   0.9758 B( 12-C , 15-H ) :   0.9784
B( 16-S , 17-C ) :   1.1370 B( 16-S , 20-C ) :   1.1469 B( 17-C , 18-C ) :   1.6377
B( 17-C , 33-H ) :   0.9584 B( 18-C , 19-C ) :   1.2500 B( 18-C , 21-H ) :   0.9763
B( 19-C , 20-C ) :   1.5577 B( 19-C , 22-C ) :   1.0415 B( 22-C , 23-H ) :   0.9266
B( 22-C , 24-H ) :   0.9306 B( 22-C , 25-C ) :   1.0650 B( 25-C , 26-H ) :   0.9621
B( 25-C , 27-H ) :   0.9476 B( 25-C , 28-C ) :   1.0745 B( 28-C , 29-H ) :   0.9732
B( 28-C , 30-H ) :   0.9708 B( 28-C , 31-H ) :   0.9738

Dispersion correction           -0.013224688
FINAL SINGLE POINT ENERGY     -1339.870307564581

DIPOLE MOMENT
-------------
                                X             Y             Z
Electronic contribution:     19.07086     -25.02471       9.30553
Nuclear contribution   :    -19.50248      25.56407      -9.73486
                        -----------------------------------------
Total Dipole Moment    :     -0.43162       0.53936      -0.42933
                        -----------------------------------------
Magnitude (a.u.)       :      0.81335
Magnitude (Debye)      :      2.06736

Rotational constants in cm-1:     0.016957     0.008494     0.005826
Rotational constants in MHz :   508.349107   254.655275   174.662049

                             ****ORCA TERMINATED NORMALLY****
TOTAL RUN TIME: 0 days 0 hours 0 minutes 21 seconds 14 msec
