                         Program Version 4.2.1 -  RELEASE  -
|  1> ! wB97X-D3 SP def2-SVP
|  2> %pal
|  3> nprocs 24
|  4> end
|  5>
|  6> * xyz 0 1
|  7> S 	 -86.9607 	 -4.21224 	 -61.4685
|  8> C 	 -87.9509 	 -3.35375 	 -62.664
|  9> C 	 -87.3697 	 -2.17005 	 -62.9801
| 10> C 	 -86.1488 	 -1.90473 	 -62.2437
| 11> C 	 -85.74 	 -2.92293 	 -61.4417
| 12> H 	 -85.5229 	 -0.988038 	 -62.3267
| 13> C 	 -87.8281 	 -1.1438 	 -64.0289
| 14> H 	 -87.536 	 -0.161654 	 -63.6625
| 15> H 	 -88.8999 	 -1.23509 	 -64.0924
| 16> C 	 -87.1638 	 -1.14325 	 -65.4359
| 17> H 	 -87.6052 	 -0.409007 	 -66.0131
| 18> H 	 -86.1301 	 -0.847388 	 -65.3399
| 19> C 	 -87.4755 	 -2.51085 	 -66.1447
| 20> H 	 -87.3125 	 -2.4038 	 -67.2488
| 21> H 	 -86.8379 	 -3.24902 	 -65.7042
| 22> H 	 -88.5441 	 -2.78007 	 -66.0181
| 23> S 	 -84.6669 	 -3.20996 	 -58.9578
| 24> C 	 -82.9357 	 -3.20447 	 -58.8734
| 25> C 	 -82.289 	 -3.09501 	 -60.1063
| 26> C 	 -83.2358 	 -2.74961 	 -61.0997
| 27> C 	 -84.5364 	 -2.93465 	 -60.6607
| 28> H 	 -81.2307 	 -3.07415 	 -60.1457
| 29> C 	 -82.7461 	 -2.57286 	 -62.5477
| 30> H 	 -83.5936 	 -2.27878 	 -63.1648
| 31> H 	 -82.5027 	 -3.56089 	 -62.9766
| 32> C 	 -81.6402 	 -1.50728 	 -62.7743
| 33> H 	 -80.7735 	 -1.752 	 -62.2136
| 34> H 	 -81.9944 	 -0.552441 	 -62.6671
| 35> C 	 -81.105 	 -1.36321 	 -64.1769
| 36> H 	 -80.4088 	 -2.10371 	 -64.5222
| 37> H 	 -80.6184 	 -0.400822 	 -64.1324
| 38> H 	 -81.7456 	 -1.37627 	 -65.0831
| 39> H 	 -88.8363 	 -3.69903 	 -63.0949
| 40> H 	 -82.3135 	 -3.23633 	 -57.9232
| 41> *
| 42>
| 43>                          ****END OF INPUT****

CARTESIAN COORDINATES (ANGSTROEM)
---------------------------------
  S    -86.960700   -4.212240  -61.468500
  C    -87.950900   -3.353750  -62.664000
  C    -87.369700   -2.170050  -62.980100
  C    -86.148800   -1.904730  -62.243700
  C    -85.740000   -2.922930  -61.441700
  H    -85.522900   -0.988038  -62.326700
  C    -87.828100   -1.143800  -64.028900
  H    -87.536000   -0.161654  -63.662500
  H    -88.899900   -1.235090  -64.092400
  C    -87.163800   -1.143250  -65.435900
  H    -87.605200   -0.409007  -66.013100
  H    -86.130100   -0.847388  -65.339900
  C    -87.475500   -2.510850  -66.144700
  H    -87.312500   -2.403800  -67.248800
  H    -86.837900   -3.249020  -65.704200
  H    -88.544100   -2.780070  -66.018100
  S    -84.666900   -3.209960  -58.957800
  C    -82.935700   -3.204470  -58.873400
  C    -82.289000   -3.095010  -60.106300
  C    -83.235800   -2.749610  -61.099700
  C    -84.536400   -2.934650  -60.660700
  H    -81.230700   -3.074150  -60.145700
  C    -82.746100   -2.572860  -62.547700
  H    -83.593600   -2.278780  -63.164800
  H    -82.502700   -3.560890  -62.976600
  C    -81.640200   -1.507280  -62.774300
  H    -80.773500   -1.752000  -62.213600
  H    -81.994400   -0.552441  -62.667100
  C    -81.105000   -1.363210  -64.176900
  H    -80.408800   -2.103710  -64.522200
  H    -80.618400   -0.400822  -64.132400
  H    -81.745600   -1.376270  -65.083100
  H    -88.836300   -3.699030  -63.094900
  H    -82.313500   -3.236330  -57.923200

 Total Charge           Charge          ....    0
 Multiplicity           Mult            ....    1
 Number of Electrons    NEL             ....  134
 Basis Dimension        Dim             ....  322

ORBITAL ENERGIES
----------------

  NO   OCC          E(Eh)            E(eV)
   0   2.0000     -88.971210     -2421.0297
   1   2.0000     -88.962592     -2420.7952
   2   2.0000     -10.325349      -280.9670
   3   2.0000     -10.322273      -280.8833
   4   2.0000     -10.321649      -280.8664
   5   2.0000     -10.310119      -280.5526
   6   2.0000     -10.304202      -280.3916
   7   2.0000     -10.299301      -280.2582
   8   2.0000     -10.292384      -280.0700
   9   2.0000     -10.291828      -280.0549
  10   2.0000     -10.291189      -280.0375
  11   2.0000     -10.290418      -280.0165
  12   2.0000     -10.283127      -279.8181
  13   2.0000     -10.280856      -279.7563
  14   2.0000     -10.280222      -279.7391
  15   2.0000     -10.274797      -279.5914
  16   2.0000      -8.086455      -220.0436
  17   2.0000      -8.076697      -219.7781
  18   2.0000      -6.044804      -164.4875
  19   2.0000      -6.041004      -164.3841
  20   2.0000      -6.037243      -164.2817
  21   2.0000      -6.035471      -164.2335
  22   2.0000      -6.031281      -164.1195
  23   2.0000      -6.027223      -164.0091
  24   2.0000      -1.010006       -27.4837
  25   2.0000      -0.983559       -26.7640
  26   2.0000      -0.912072       -24.8187
  27   2.0000      -0.906340       -24.6628
  28   2.0000      -0.871536       -23.7157
  29   2.0000      -0.861729       -23.4488
  30   2.0000      -0.838510       -22.8170
  31   2.0000      -0.812868       -22.1193
  32   2.0000      -0.782079       -21.2815
  33   2.0000      -0.773421       -21.0459
  34   2.0000      -0.709938       -19.3184
  35   2.0000      -0.701828       -19.0977
  36   2.0000      -0.697238       -18.9728
  37   2.0000      -0.661974       -18.0132
  38   2.0000      -0.639148       -17.3921
  39   2.0000      -0.617151       -16.7935
  40   2.0000      -0.593644       -16.1539
  41   2.0000      -0.577536       -15.7155
  42   2.0000      -0.565858       -15.3978
  43   2.0000      -0.548961       -14.9380
  44   2.0000      -0.541837       -14.7441
  45   2.0000      -0.536245       -14.5920
  46   2.0000      -0.515424       -14.0254
  47   2.0000      -0.513552       -13.9745
  48   2.0000      -0.503226       -13.6935
  49   2.0000      -0.496980       -13.5235
  50   2.0000      -0.485152       -13.2017
  51   2.0000      -0.481077       -13.0908
  52   2.0000      -0.467554       -12.7228
  53   2.0000      -0.464799       -12.6478
  54   2.0000      -0.462211       -12.5774
  55   2.0000      -0.450606       -12.2616
  56   2.0000      -0.444252       -12.0887
  57   2.0000      -0.435831       -11.8596
  58   2.0000      -0.434399       -11.8206
  59   2.0000      -0.427096       -11.6219
  60   2.0000      -0.419682       -11.4201
  61   2.0000      -0.417395       -11.3579
  62   2.0000      -0.407575       -11.0907
  63   2.0000      -0.346634        -9.4324
  64   2.0000      -0.337337        -9.1794
  65   2.0000      -0.325350        -8.8532
  66   2.0000      -0.292478        -7.9587
  67   0.0000       0.034211         0.9309
  68   0.0000       0.069860         1.9010
  69   0.0000       0.115202         3.1348
  70   0.0000       0.118278         3.2185
  71   0.0000       0.126342         3.4379

MULLIKEN ATOMIC CHARGES
-----------------------
   0 S :    0.093804
   1 C :   -0.102081
   2 C :   -0.076110
   3 C :    0.008972
   4 C :   -0.148939
   5 H :    0.027539
   6 C :    0.051531
   7 H :    0.018824
   8 H :    0.021452
   9 C :   -0.026125
  10 H :    0.013382
  11 H :    0.024135
  12 C :   -0.079432
  13 H :    0.040388
  14 H :    0.050299
  15 H :    0.030547
  16 S :    0.140906
  17 C :   -0.119879
  18 C :   -0.020997
  19 C :   -0.019929
  20 C :   -0.166939
  21 H :    0.012066
  22 C :    0.060395
  23 H :    0.004884
  24 H :    0.042294
  25 C :   -0.017463
  26 H :    0.026848
  27 H :    0.016106
  28 C :   -0.075502
  29 H :    0.020269
  30 H :    0.029343
  31 H :    0.025280
  32 H :    0.020232
  33 H :    0.073901
Sum of atomic charges:   -0.0000000

LOEWDIN ATOMIC CHARGES
----------------------
   0 S :    0.373468
   1 C :   -0.179932
   2 C :   -0.062943
   3 C :   -0.069686
   4 C :   -0.184496
   5 H :    0.036408
   6 C :   -0.026864
   7 H :    0.029132
   8 H :    0.024329
   9 C :   -0.029038
  10 H :    0.014381
  11 H :    0.021442
  12 C :   -0.066386
  13 H :    0.028692
  14 H :    0.024075
  15 H :    0.025811
  16 S :    0.431210
  17 C :   -0.195739
  18 C :   -0.065458
  19 C :   -0.049261
  20 C :   -0.211450
  21 H :    0.026540
  22 C :   -0.032969
  23 H :    0.025380
  24 H :    0.036929
  25 C :   -0.028703
  26 H :    0.023642
  27 H :    0.018926
  28 C :   -0.069373
  29 H :    0.018218
  30 H :    0.028537
  31 H :    0.026295
  32 H :    0.018568
  33 H :    0.040317

  Mayer bond orders larger than 0.100000
B(  0-S ,  1-C ) :   1.1087 B(  0-S ,  4-C ) :   1.1216 B(  1-C ,  2-C ) :   1.6486
B(  1-C , 32-H ) :   0.9786 B(  2-C ,  3-C ) :   1.2002 B(  2-C ,  6-C ) :   1.0227
B(  3-C ,  4-C ) :   1.6187 B(  3-C ,  5-H ) :   0.9861 B(  4-C , 20-C ) :   1.0497
B(  6-C ,  7-H ) :   0.9393 B(  6-C ,  8-H ) :   0.9444 B(  6-C ,  9-C ) :   1.0794
B(  9-C , 10-H ) :   0.9542 B(  9-C , 11-H ) :   0.9565 B(  9-C , 12-C ) :   1.0638
B( 12-C , 13-H ) :   0.9771 B( 12-C , 14-H ) :   0.9792 B( 12-C , 15-H ) :   0.9761
B( 16-S , 17-C ) :   1.1648 B( 16-S , 20-C ) :   1.1480 B( 17-C , 18-C ) :   1.6115
B( 17-C , 33-H ) :   0.9567 B( 18-C , 19-C ) :   1.2419 B( 18-C , 21-H ) :   0.9905
B( 19-C , 20-C ) :   1.5839 B( 19-C , 22-C ) :   1.0448 B( 22-C , 23-H ) :   0.9266
B( 22-C , 24-H ) :   0.9423 B( 22-C , 25-C ) :   1.0646 B( 25-C , 26-H ) :   0.9540
B( 25-C , 27-H ) :   0.9628 B( 25-C , 28-C ) :   1.0730 B( 28-C , 29-H ) :   0.9746
B( 28-C , 30-H ) :   0.9802 B( 28-C , 31-H ) :   0.9723

Dispersion correction           -0.014272144
FINAL SINGLE POINT ENERGY     -1339.860532923610

DIPOLE MOMENT
-------------
                                X             Y             Z
Electronic contribution:     -8.29085     -12.36639      27.90854
Nuclear contribution   :      8.68270      12.81302     -28.40889
                        -----------------------------------------
Total Dipole Moment    :      0.39185       0.44662      -0.50035
                        -----------------------------------------
Magnitude (a.u.)       :      0.77677
Magnitude (Debye)      :      1.97439

Rotational constants in cm-1:     0.016475     0.009816     0.006656
Rotational constants in MHz :   493.901669   294.262587   199.553332

                             ****ORCA TERMINATED NORMALLY****
TOTAL RUN TIME: 0 days 0 hours 0 minutes 21 seconds 806 msec
