                         Program Version 4.2.1 -  RELEASE  -
|  1> ! wB97X-D3 SP def2-SVP
|  2> %pal
|  3> nprocs 24
|  4> end
|  5>
|  6> * xyz 0 1
|  7> S 	 -56.7423 	 -2.63118 	 -29.0099
|  8> C 	 -56.0897 	 -3.31808 	 -27.5044
|  9> C 	 -55.0653 	 -2.49016 	 -27.0643
| 10> C 	 -54.8736 	 -1.31113 	 -27.8711
| 11> C 	 -55.747 	 -1.21414 	 -28.9249
| 12> H 	 -54.1607 	 -0.529717 	 -27.8154
| 13> C 	 -54.1744 	 -2.69077 	 -25.9187
| 14> H 	 -54.8197 	 -2.99561 	 -25.1206
| 15> H 	 -53.8003 	 -1.71719 	 -25.5357
| 16> C 	 -52.9814 	 -3.57688 	 -26.222
| 17> H 	 -53.2152 	 -4.51871 	 -26.7119
| 18> H 	 -52.5501 	 -3.11004 	 -27.0316
| 19> C 	 -52.0164 	 -3.84248 	 -25.1052
| 20> H 	 -51.3721 	 -4.68707 	 -25.2922
| 21> H 	 -51.3735 	 -2.9901 	 -24.8882
| 22> H 	 -52.5599 	 -4.12534 	 -24.2037
| 23> S 	 -55.8183 	 -0.846312 	 -31.605
| 24> C 	 -55.5941 	 0.756737 	 -32.2652
| 25> C 	 -55.4144 	 1.69094 	 -31.2636
| 26> C 	 -55.3773 	 1.13097 	 -29.9524
| 27> C 	 -55.7198 	 -0.228885 	 -29.9663
| 28> H 	 -55.1738 	 2.70819 	 -31.5229
| 29> C 	 -55.3702 	 2.08763 	 -28.7438
| 30> H 	 -55.1845 	 3.1432 	 -29.0401
| 31> H 	 -54.473 	 1.88766 	 -28.2115
| 32> C 	 -56.5304 	 1.98997 	 -27.7034
| 33> H 	 -56.3352 	 2.60658 	 -26.8741
| 34> H 	 -56.4713 	 1.11773 	 -27.1734
| 35> C 	 -57.9725 	 2.11955 	 -28.2535
| 36> H 	 -58.1409 	 3.09471 	 -28.787
| 37> H 	 -58.8259 	 2.26873 	 -27.4698
| 38> H 	 -58.2757 	 1.17183 	 -28.7969
| 39> H 	 -56.4254 	 -4.19205 	 -27.1029
| 40> H 	 -55.6356 	 0.962934 	 -33.3552
| 41> *
| 42>
| 43>                          ****END OF INPUT****

CARTESIAN COORDINATES (ANGSTROEM)
---------------------------------
  S    -56.742300   -2.631180  -29.009900
  C    -56.089700   -3.318080  -27.504400
  C    -55.065300   -2.490160  -27.064300
  C    -54.873600   -1.311130  -27.871100
  C    -55.747000   -1.214140  -28.924900
  H    -54.160700   -0.529717  -27.815400
  C    -54.174400   -2.690770  -25.918700
  H    -54.819700   -2.995610  -25.120600
  H    -53.800300   -1.717190  -25.535700
  C    -52.981400   -3.576880  -26.222000
  H    -53.215200   -4.518710  -26.711900
  H    -52.550100   -3.110040  -27.031600
  C    -52.016400   -3.842480  -25.105200
  H    -51.372100   -4.687070  -25.292200
  H    -51.373500   -2.990100  -24.888200
  H    -52.559900   -4.125340  -24.203700
  S    -55.818300   -0.846312  -31.605000
  C    -55.594100    0.756737  -32.265200
  C    -55.414400    1.690940  -31.263600
  C    -55.377300    1.130970  -29.952400
  C    -55.719800   -0.228885  -29.966300
  H    -55.173800    2.708190  -31.522900
  C    -55.370200    2.087630  -28.743800
  H    -55.184500    3.143200  -29.040100
  H    -54.473000    1.887660  -28.211500
  C    -56.530400    1.989970  -27.703400
  H    -56.335200    2.606580  -26.874100
  H    -56.471300    1.117730  -27.173400
  C    -57.972500    2.119550  -28.253500
  H    -58.140900    3.094710  -28.787000
  H    -58.825900    2.268730  -27.469800
  H    -58.275700    1.171830  -28.796900
  H    -56.425400   -4.192050  -27.102900
  H    -55.635600    0.962934  -33.355200

 Total Charge           Charge          ....    0
 Multiplicity           Mult            ....    1
 Number of Electrons    NEL             ....  134
 Basis Dimension        Dim             ....  322

ORBITAL ENERGIES
----------------

  NO   OCC          E(Eh)            E(eV)
   0   2.0000     -88.966865     -2420.9115
   1   2.0000     -88.964411     -2420.8447
   2   2.0000     -10.328612      -281.0558
   3   2.0000     -10.326003      -280.9848
   4   2.0000     -10.319222      -280.8003
   5   2.0000     -10.313242      -280.6376
   6   2.0000     -10.307270      -280.4751
   7   2.0000     -10.302775      -280.3528
   8   2.0000     -10.296784      -280.1897
   9   2.0000     -10.293300      -280.0949
  10   2.0000     -10.288661      -279.9687
  11   2.0000     -10.286780      -279.9175
  12   2.0000     -10.285720      -279.8887
  13   2.0000     -10.276572      -279.6397
  14   2.0000     -10.275086      -279.5993
  15   2.0000     -10.274524      -279.5840
  16   2.0000      -8.081674      -219.9135
  17   2.0000      -8.079088      -219.8432
  18   2.0000      -6.040197      -164.3621
  19   2.0000      -6.037693      -164.2940
  20   2.0000      -6.036120      -164.2512
  21   2.0000      -6.033502      -164.1799
  22   2.0000      -6.032463      -164.1517
  23   2.0000      -6.029852      -164.0806
  24   2.0000      -1.009621       -27.4732
  25   2.0000      -0.983730       -26.7687
  26   2.0000      -0.920736       -25.0545
  27   2.0000      -0.901841       -24.5403
  28   2.0000      -0.874385       -23.7932
  29   2.0000      -0.851788       -23.1783
  30   2.0000      -0.845041       -22.9947
  31   2.0000      -0.814838       -22.1729
  32   2.0000      -0.782380       -21.2896
  33   2.0000      -0.773723       -21.0541
  34   2.0000      -0.713268       -19.4090
  35   2.0000      -0.711809       -19.3693
  36   2.0000      -0.693867       -18.8811
  37   2.0000      -0.666995       -18.1499
  38   2.0000      -0.649171       -17.6648
  39   2.0000      -0.617570       -16.8049
  40   2.0000      -0.591675       -16.1003
  41   2.0000      -0.571993       -15.5647
  42   2.0000      -0.560317       -15.2470
  43   2.0000      -0.545194       -14.8355
  44   2.0000      -0.543964       -14.8020
  45   2.0000      -0.527978       -14.3670
  46   2.0000      -0.524499       -14.2724
  47   2.0000      -0.515787       -14.0353
  48   2.0000      -0.505064       -13.7435
  49   2.0000      -0.501149       -13.6370
  50   2.0000      -0.491588       -13.3768
  51   2.0000      -0.480158       -13.0658
  52   2.0000      -0.469807       -12.7841
  53   2.0000      -0.463145       -12.6028
  54   2.0000      -0.458956       -12.4888
  55   2.0000      -0.446828       -12.1588
  56   2.0000      -0.440015       -11.9734
  57   2.0000      -0.436415       -11.8755
  58   2.0000      -0.432885       -11.7794
  59   2.0000      -0.421997       -11.4831
  60   2.0000      -0.416336       -11.3291
  61   2.0000      -0.413846       -11.2613
  62   2.0000      -0.408100       -11.1050
  63   2.0000      -0.355056        -9.6616
  64   2.0000      -0.333210        -9.0671
  65   2.0000      -0.328731        -8.9452
  66   2.0000      -0.286664        -7.8005
  67   0.0000       0.021840         0.5943
  68   0.0000       0.075320         2.0496
  69   0.0000       0.106600         2.9007
  70   0.0000       0.120283         3.2731
  71   0.0000       0.138230         3.7614

MULLIKEN ATOMIC CHARGES
-----------------------
   0 S :    0.087426
   1 C :   -0.079077
   2 C :   -0.088263
   3 C :    0.028703
   4 C :   -0.128302
   5 H :   -0.007645
   6 C :    0.081857
   7 H :    0.013716
   8 H :    0.014883
   9 C :   -0.029579
  10 H :    0.014140
  11 H :   -0.005645
  12 C :   -0.012703
  13 H :    0.027766
  14 H :    0.030849
  15 H :    0.023926
  16 S :    0.104693
  17 C :   -0.107137
  18 C :   -0.027864
  19 C :   -0.034578
  20 C :   -0.147331
  21 H :    0.017388
  22 C :    0.061165
  23 H :    0.023080
  24 H :    0.012318
  25 C :    0.017902
  26 H :    0.003341
  27 H :   -0.001457
  28 C :   -0.111961
  29 H :    0.037645
  30 H :    0.034611
  31 H :    0.064161
  32 H :    0.009846
  33 H :    0.072126
Sum of atomic charges:    0.0000000

LOEWDIN ATOMIC CHARGES
----------------------
   0 S :    0.395550
   1 C :   -0.171547
   2 C :   -0.052321
   3 C :   -0.063572
   4 C :   -0.194644
   5 H :    0.025327
   6 C :   -0.033681
   7 H :    0.025580
   8 H :    0.032625
   9 C :   -0.041632
  10 H :    0.026322
  11 H :    0.016621
  12 C :   -0.062470
  13 H :    0.027594
  14 H :    0.025107
  15 H :    0.026137
  16 S :    0.409401
  17 C :   -0.190735
  18 C :   -0.068726
  19 C :   -0.058170
  20 C :   -0.194422
  21 H :    0.030720
  22 C :   -0.027214
  23 H :    0.033698
  24 H :    0.026040
  25 C :   -0.040197
  26 H :    0.022890
  27 H :    0.015312
  28 C :   -0.084692
  29 H :    0.027315
  30 H :    0.034220
  31 H :    0.037194
  32 H :    0.009441
  33 H :    0.036930

  Mayer bond orders larger than 0.100000
B(  0-S ,  1-C ) :   1.1194 B(  0-S ,  4-C ) :   1.1512 B(  1-C ,  2-C ) :   1.5895
B(  1-C , 32-H ) :   0.9949 B(  2-C ,  3-C ) :   1.2250 B(  2-C ,  6-C ) :   1.0371
B(  3-C ,  4-C ) :   1.5691 B(  3-C ,  5-H ) :   0.9992 B(  4-C , 20-C ) :   1.0608
B(  6-C ,  7-H ) :   0.9288 B(  6-C ,  8-H ) :   0.9379 B(  6-C ,  9-C ) :   1.0554
B(  9-C , 10-H ) :   0.9528 B(  9-C , 11-H ) :   0.9438 B(  9-C , 12-C ) :   1.0893
B( 12-C , 13-H ) :   0.9718 B( 12-C , 14-H ) :   0.9735 B( 12-C , 15-H ) :   0.9729
B( 16-S , 17-C ) :   1.1538 B( 16-S , 20-C ) :   1.1493 B( 17-C , 18-C ) :   1.5999
B( 17-C , 20-C ) :   0.1029 B( 17-C , 33-H ) :   0.9640 B( 18-C , 19-C ) :   1.2514
B( 18-C , 21-H ) :   0.9903 B( 19-C , 20-C ) :   1.5687 B( 19-C , 22-C ) :   1.0354
B( 22-C , 23-H ) :   0.9442 B( 22-C , 24-H ) :   0.9208 B( 22-C , 25-C ) :   1.0800
B( 25-C , 26-H ) :   0.9435 B( 25-C , 27-H ) :   0.9401 B( 25-C , 28-C ) :   1.0686
B( 28-C , 29-H ) :   0.9773 B( 28-C , 30-H ) :   0.9735 B( 28-C , 31-H ) :   0.9724

Dispersion correction           -0.014891805
FINAL SINGLE POINT ENERGY     -1339.862986481039

DIPOLE MOMENT
-------------
                                X             Y             Z
Electronic contribution:     -8.57844      -5.88696     -21.40202
Nuclear contribution   :      9.00420       6.15362      21.81021
                        -----------------------------------------
Total Dipole Moment    :      0.42576       0.26666       0.40819
                        -----------------------------------------
Magnitude (a.u.)       :      0.64730
Magnitude (Debye)      :      1.64531

Rotational constants in cm-1:     0.020498     0.008104     0.007301
Rotational constants in MHz :   614.519606   242.949201   218.869546

                             ****ORCA TERMINATED NORMALLY****
TOTAL RUN TIME: 0 days 0 hours 0 minutes 21 seconds 4 msec
