                         Program Version 4.2.1 -  RELEASE  -
|  1> ! wB97X-D3 SP def2-SVP
|  2> %pal
|  3> nprocs 24
|  4> end
|  5>
|  6> * xyz 0 1
|  7> S 	 -124.805 	 18.1361 	 -22.5341
|  8> C 	 -123.596 	 18.6566 	 -21.4551
|  9> C 	 -122.524 	 19.2522 	 -22.1053
| 10> C 	 -122.834 	 19.4698 	 -23.5087
| 11> C 	 -124.047 	 18.9297 	 -23.8733
| 12> H 	 -122.34 	 20.0362 	 -24.2913
| 13> C 	 -121.272 	 19.702 	 -21.4223
| 14> H 	 -120.977 	 18.902 	 -20.8054
| 15> H 	 -121.479 	 20.5564 	 -20.7866
| 16> C 	 -120.196 	 20.0499 	 -22.4013
| 17> H 	 -120.208 	 19.2159 	 -23.1238
| 18> H 	 -120.495 	 20.8335 	 -23.0574
| 19> C 	 -118.786 	 20.2732 	 -21.8734
| 20> H 	 -118.82 	 21.1129 	 -21.1197
| 21> H 	 -118.398 	 19.4573 	 -21.2688
| 22> H 	 -118.039 	 20.4552 	 -22.5994
| 23> S 	 -126.006 	 19.7624 	 -25.6021
| 24> C 	 -125.833 	 19.3156 	 -27.3662
| 25> C 	 -124.765 	 18.4971 	 -27.6219
| 26> C 	 -124.075 	 18.2274 	 -26.3815
| 27> C 	 -124.585 	 18.7736 	 -25.2452
| 28> H 	 -124.544 	 18.1478 	 -28.6071
| 29> C 	 -122.793 	 17.4001 	 -26.3258
| 30> H 	 -122.925 	 16.651 	 -25.5679
| 31> H 	 -122.002 	 18.0368 	 -25.927
| 32> C 	 -122.295 	 16.7258 	 -27.654
| 33> H 	 -121.277 	 16.4776 	 -27.3893
| 34> H 	 -122.152 	 17.4681 	 -28.4377
| 35> C 	 -122.968 	 15.3929 	 -28.0518
| 36> H 	 -122.254 	 14.5116 	 -27.7915
| 37> H 	 -123.204 	 15.2076 	 -29.1076
| 38> H 	 -123.742 	 15.249 	 -27.3352
| 39> H 	 -123.714 	 18.4781 	 -20.3962
| 40> H 	 -126.403 	 19.6833 	 -28.2164
| 41> *
| 42>
| 43>                          ****END OF INPUT****

CARTESIAN COORDINATES (ANGSTROEM)
---------------------------------
  S    -124.805000   18.136100  -22.534100
  C    -123.596000   18.656600  -21.455100
  C    -122.524000   19.252200  -22.105300
  C    -122.834000   19.469800  -23.508700
  C    -124.047000   18.929700  -23.873300
  H    -122.340000   20.036200  -24.291300
  C    -121.272000   19.702000  -21.422300
  H    -120.977000   18.902000  -20.805400
  H    -121.479000   20.556400  -20.786600
  C    -120.196000   20.049900  -22.401300
  H    -120.208000   19.215900  -23.123800
  H    -120.495000   20.833500  -23.057400
  C    -118.786000   20.273200  -21.873400
  H    -118.820000   21.112900  -21.119700
  H    -118.398000   19.457300  -21.268800
  H    -118.039000   20.455200  -22.599400
  S    -126.006000   19.762400  -25.602100
  C    -125.833000   19.315600  -27.366200
  C    -124.765000   18.497100  -27.621900
  C    -124.075000   18.227400  -26.381500
  C    -124.585000   18.773600  -25.245200
  H    -124.544000   18.147800  -28.607100
  C    -122.793000   17.400100  -26.325800
  H    -122.925000   16.651000  -25.567900
  H    -122.002000   18.036800  -25.927000
  C    -122.295000   16.725800  -27.654000
  H    -121.277000   16.477600  -27.389300
  H    -122.152000   17.468100  -28.437700
  C    -122.968000   15.392900  -28.051800
  H    -122.254000   14.511600  -27.791500
  H    -123.204000   15.207600  -29.107600
  H    -123.742000   15.249000  -27.335200
  H    -123.714000   18.478100  -20.396200
  H    -126.403000   19.683300  -28.216400

 Total Charge           Charge          ....    0
 Multiplicity           Mult            ....    1
 Number of Electrons    NEL             ....  134
 Basis Dimension        Dim             ....  322

ORBITAL ENERGIES
----------------

  NO   OCC          E(Eh)            E(eV)
   0   2.0000     -88.963391     -2420.8169
   1   2.0000     -88.962931     -2420.8044
   2   2.0000     -10.325597      -280.9738
   3   2.0000     -10.321680      -280.8672
   4   2.0000     -10.321450      -280.8609
   5   2.0000     -10.310634      -280.5666
   6   2.0000     -10.304790      -280.4076
   7   2.0000     -10.301640      -280.3219
   8   2.0000     -10.296944      -280.1941
   9   2.0000     -10.294947      -280.1397
  10   2.0000     -10.288760      -279.9714
  11   2.0000     -10.287894      -279.9478
  12   2.0000     -10.285075      -279.8711
  13   2.0000     -10.284590      -279.8579
  14   2.0000     -10.282128      -279.7909
  15   2.0000     -10.279998      -279.7330
  16   2.0000      -8.079540      -219.8555
  17   2.0000      -8.076343      -219.7685
  18   2.0000      -6.037809      -164.2971
  19   2.0000      -6.035115      -164.2238
  20   2.0000      -6.033797      -164.1880
  21   2.0000      -6.031102      -164.1146
  22   2.0000      -6.030528      -164.0990
  23   2.0000      -6.026834      -163.9985
  24   2.0000      -1.007215       -27.4077
  25   2.0000      -0.981399       -26.7052
  26   2.0000      -0.921045       -25.0629
  27   2.0000      -0.900312       -24.4987
  28   2.0000      -0.871404       -23.7121
  29   2.0000      -0.849360       -23.1123
  30   2.0000      -0.841088       -22.8872
  31   2.0000      -0.822187       -22.3729
  32   2.0000      -0.784012       -21.3341
  33   2.0000      -0.769558       -20.9407
  34   2.0000      -0.716299       -19.4915
  35   2.0000      -0.699525       -19.0350
  36   2.0000      -0.686615       -18.6837
  37   2.0000      -0.656144       -17.8546
  38   2.0000      -0.652604       -17.7582
  39   2.0000      -0.616986       -16.7890
  40   2.0000      -0.590494       -16.0682
  41   2.0000      -0.574456       -15.6317
  42   2.0000      -0.570761       -15.5312
  43   2.0000      -0.555427       -15.1139
  44   2.0000      -0.533170       -14.5083
  45   2.0000      -0.524561       -14.2740
  46   2.0000      -0.516013       -14.0414
  47   2.0000      -0.515278       -14.0214
  48   2.0000      -0.504543       -13.7293
  49   2.0000      -0.495623       -13.4866
  50   2.0000      -0.490286       -13.3414
  51   2.0000      -0.481310       -13.0971
  52   2.0000      -0.475613       -12.9421
  53   2.0000      -0.464515       -12.6401
  54   2.0000      -0.457434       -12.4474
  55   2.0000      -0.453914       -12.3516
  56   2.0000      -0.439499       -11.9594
  57   2.0000      -0.438029       -11.9194
  58   2.0000      -0.434553       -11.8248
  59   2.0000      -0.431381       -11.7385
  60   2.0000      -0.425026       -11.5655
  61   2.0000      -0.412326       -11.2200
  62   2.0000      -0.398589       -10.8462
  63   2.0000      -0.341887        -9.3032
  64   2.0000      -0.330620        -8.9966
  65   2.0000      -0.321948        -8.7606
  66   2.0000      -0.302388        -8.2284
  67   0.0000       0.039131         1.0648
  68   0.0000       0.062515         1.7011
  69   0.0000       0.108639         2.9562
  70   0.0000       0.118923         3.2361
  71   0.0000       0.135458         3.6860

MULLIKEN ATOMIC CHARGES
-----------------------
   0 S :    0.122138
   1 C :   -0.120260
   2 C :   -0.117526
   3 C :    0.015211
   4 C :   -0.168236
   5 H :    0.024600
   6 C :    0.139679
   7 H :    0.014787
   8 H :    0.036615
   9 C :   -0.117539
  10 H :    0.016508
  11 H :    0.024465
  12 C :    0.000058
  13 H :    0.025867
  14 H :    0.021497
  15 H :    0.030938
  16 S :    0.091169
  17 C :   -0.074790
  18 C :   -0.028750
  19 C :   -0.041733
  20 C :   -0.156017
  21 H :    0.019280
  22 C :    0.047925
  23 H :    0.028569
  24 H :    0.028348
  25 C :   -0.076133
  26 H :    0.022497
  27 H :    0.028871
  28 C :   -0.050197
  29 H :    0.033010
  30 H :    0.048628
  31 H :    0.031577
  32 H :    0.047510
  33 H :    0.051435
Sum of atomic charges:    0.0000000

LOEWDIN ATOMIC CHARGES
----------------------
   0 S :    0.435283
   1 C :   -0.207893
   2 C :   -0.058951
   3 C :   -0.065927
   4 C :   -0.207599
   5 H :    0.036035
   6 C :   -0.027324
   7 H :    0.027968
   8 H :    0.034093
   9 C :   -0.048213
  10 H :    0.024169
  11 H :    0.020291
  12 C :   -0.062285
  13 H :    0.029838
  14 H :    0.024399
  15 H :    0.022942
  16 S :    0.365868
  17 C :   -0.154631
  18 C :   -0.068034
  19 C :   -0.053589
  20 C :   -0.204708
  21 H :    0.033291
  22 C :   -0.030503
  23 H :    0.030175
  24 H :    0.033144
  25 C :   -0.050205
  26 H :    0.027862
  27 H :    0.021573
  28 C :   -0.074837
  29 H :    0.037586
  30 H :    0.029154
  31 H :    0.023564
  32 H :    0.026690
  33 H :    0.030775

  Mayer bond orders larger than 0.100000
B(  0-S ,  1-C ) :   1.1635 B(  0-S ,  4-C ) :   1.1753 B(  1-C ,  2-C ) :   1.5939
B(  1-C , 32-H ) :   0.9766 B(  2-C ,  3-C ) :   1.2291 B(  2-C ,  6-C ) :   1.0125
B(  3-C ,  4-C ) :   1.5841 B(  3-C ,  5-H ) :   0.9933 B(  4-C , 20-C ) :   0.9791
B(  6-C ,  7-H ) :   0.9308 B(  6-C ,  8-H ) :   0.9228 B(  6-C ,  9-C ) :   1.1013
B(  9-C , 10-H ) :   0.9504 B(  9-C , 11-H ) :   0.9400 B(  9-C , 12-C ) :   1.0829
B( 12-C , 13-H ) :   0.9705 B( 12-C , 14-H ) :   0.9725 B( 12-C , 15-H ) :   0.9722
B( 16-S , 17-C ) :   1.1384 B( 16-S , 20-C ) :   1.1085 B( 17-C , 18-C ) :   1.6532
B( 17-C , 33-H ) :   0.9567 B( 18-C , 19-C ) :   1.2040 B( 18-C , 21-H ) :   0.9916
B( 19-C , 20-C ) :   1.6753 B( 19-C , 22-C ) :   1.0203 B( 22-C , 23-H ) :   0.9331
B( 22-C , 24-H ) :   0.9300 B( 22-C , 25-C ) :   1.0960 B( 25-C , 26-H ) :   0.9560
B( 25-C , 27-H ) :   0.9543 B( 25-C , 28-C ) :   1.0484 B( 28-C , 29-H ) :   0.9778
B( 28-C , 30-H ) :   0.9779 B( 28-C , 31-H ) :   0.9805

Dispersion correction           -0.014083584
FINAL SINGLE POINT ENERGY     -1339.867973653360

DIPOLE MOMENT
-------------
                                X             Y             Z
Electronic contribution:    -26.89255       5.41224       4.11009
Nuclear contribution   :     27.65250      -5.49985      -4.24376
                        -----------------------------------------
Total Dipole Moment    :      0.75995      -0.08761      -0.13368
                        -----------------------------------------
Magnitude (a.u.)       :      0.77657
Magnitude (Debye)      :      1.97389

Rotational constants in cm-1:     0.017400     0.008300     0.006720
Rotational constants in MHz :   521.648979   248.836130   201.455556

                             ****ORCA TERMINATED NORMALLY****
TOTAL RUN TIME: 0 days 0 hours 0 minutes 21 seconds 451 msec
