                         Program Version 4.2.1 -  RELEASE  -
|  1> ! wB97X-D3 SP def2-SVP
|  2> %pal
|  3> nprocs 24
|  4> end
|  5>
|  6> * xyz 0 1
|  7> S 	 -91.3128 	 -32.1345 	 -73.551
|  8> C 	 -90.5575 	 -32.7134 	 -75.0156
|  9> C 	 -89.5847 	 -31.8815 	 -75.5324
| 10> C 	 -89.5138 	 -30.6904 	 -74.7718
| 11> C 	 -90.2478 	 -30.7329 	 -73.616
| 12> H 	 -89.0043 	 -29.7529 	 -74.8944
| 13> C 	 -89.023 	 -32.0783 	 -76.9688
| 14> H 	 -88.9232 	 -33.156 	 -77.1745
| 15> H 	 -88.0474 	 -31.642 	 -77.1802
| 16> C 	 -89.9642 	 -31.4638 	 -78.0057
| 17> H 	 -89.4334 	 -31.7113 	 -78.9439
| 18> H 	 -90.9245 	 -31.929 	 -77.9763
| 19> C 	 -90.3255 	 -29.9614 	 -77.9786
| 20> H 	 -90.9036 	 -29.7058 	 -78.8719
| 21> H 	 -90.941 	 -29.7878 	 -77.1543
| 22> H 	 -89.2834 	 -29.5623 	 -77.8459
| 23> S 	 -89.7611 	 -29.489 	 -71.1345
| 24> C 	 -90.5542 	 -27.9553 	 -70.7069
| 25> C 	 -91.0967 	 -27.4002 	 -71.851
| 26> C 	 -91.2137 	 -28.3213 	 -72.9349
| 27> C 	 -90.4701 	 -29.5646 	 -72.7665
| 28> H 	 -91.7002 	 -26.5316 	 -71.8609
| 29> C 	 -91.8904 	 -27.9852 	 -74.2468
| 30> H 	 -92.769 	 -27.3702 	 -73.9387
| 31> H 	 -92.1494 	 -28.8107 	 -74.8581
| 32> C 	 -91.0894 	 -27.0066 	 -75.1108
| 33> H 	 -90.054 	 -27.2884 	 -75.2301
| 34> H 	 -91.0116 	 -26.0536 	 -74.6234
| 35> C 	 -91.8526 	 -26.6605 	 -76.3248
| 36> H 	 -91.9346 	 -27.4282 	 -77.1065
| 37> H 	 -91.3967 	 -25.81 	 -76.8651
| 38> H 	 -92.8861 	 -26.3085 	 -76.0929
| 39> H 	 -90.8413 	 -33.696 	 -75.4487
| 40> H 	 -90.6055 	 -27.5283 	 -69.7704
| 41> *
| 42>
| 43>                          ****END OF INPUT****

CARTESIAN COORDINATES (ANGSTROEM)
---------------------------------
  S    -91.312800  -32.134500  -73.551000
  C    -90.557500  -32.713400  -75.015600
  C    -89.584700  -31.881500  -75.532400
  C    -89.513800  -30.690400  -74.771800
  C    -90.247800  -30.732900  -73.616000
  H    -89.004300  -29.752900  -74.894400
  C    -89.023000  -32.078300  -76.968800
  H    -88.923200  -33.156000  -77.174500
  H    -88.047400  -31.642000  -77.180200
  C    -89.964200  -31.463800  -78.005700
  H    -89.433400  -31.711300  -78.943900
  H    -90.924500  -31.929000  -77.976300
  C    -90.325500  -29.961400  -77.978600
  H    -90.903600  -29.705800  -78.871900
  H    -90.941000  -29.787800  -77.154300
  H    -89.283400  -29.562300  -77.845900
  S    -89.761100  -29.489000  -71.134500
  C    -90.554200  -27.955300  -70.706900
  C    -91.096700  -27.400200  -71.851000
  C    -91.213700  -28.321300  -72.934900
  C    -90.470100  -29.564600  -72.766500
  H    -91.700200  -26.531600  -71.860900
  C    -91.890400  -27.985200  -74.246800
  H    -92.769000  -27.370200  -73.938700
  H    -92.149400  -28.810700  -74.858100
  C    -91.089400  -27.006600  -75.110800
  H    -90.054000  -27.288400  -75.230100
  H    -91.011600  -26.053600  -74.623400
  C    -91.852600  -26.660500  -76.324800
  H    -91.934600  -27.428200  -77.106500
  H    -91.396700  -25.810000  -76.865100
  H    -92.886100  -26.308500  -76.092900
  H    -90.841300  -33.696000  -75.448700
  H    -90.605500  -27.528300  -69.770400

 Total Charge           Charge          ....    0
 Multiplicity           Mult            ....    1
 Number of Electrons    NEL             ....  134
 Basis Dimension        Dim             ....  322

ORBITAL ENERGIES
----------------

  NO   OCC          E(Eh)            E(eV)
   0   2.0000     -88.969566     -2420.9850
   1   2.0000     -88.961860     -2420.7753
   2   2.0000     -10.329988      -281.0933
   3   2.0000     -10.326436      -280.9966
   4   2.0000     -10.320240      -280.8280
   5   2.0000     -10.318486      -280.7803
   6   2.0000     -10.308222      -280.5010
   7   2.0000     -10.306429      -280.4522
   8   2.0000     -10.300411      -280.2884
   9   2.0000     -10.295791      -280.1627
  10   2.0000     -10.292666      -280.0777
  11   2.0000     -10.288239      -279.9572
  12   2.0000     -10.283253      -279.8215
  13   2.0000     -10.279793      -279.7274
  14   2.0000     -10.278049      -279.6799
  15   2.0000     -10.277842      -279.6743
  16   2.0000      -8.084184      -219.9818
  17   2.0000      -8.075565      -219.7473
  18   2.0000      -6.042489      -164.4245
  19   2.0000      -6.038845      -164.3253
  20   2.0000      -6.035011      -164.2210
  21   2.0000      -6.034092      -164.1960
  22   2.0000      -6.030015      -164.0851
  23   2.0000      -6.026564      -163.9911
  24   2.0000      -1.004152       -27.3244
  25   2.0000      -0.978207       -26.6184
  26   2.0000      -0.915873       -24.9222
  27   2.0000      -0.913035       -24.8449
  28   2.0000      -0.869198       -23.6521
  29   2.0000      -0.850736       -23.1497
  30   2.0000      -0.847175       -23.0528
  31   2.0000      -0.817561       -22.2470
  32   2.0000      -0.787463       -21.4280
  33   2.0000      -0.765445       -20.8288
  34   2.0000      -0.702084       -19.1047
  35   2.0000      -0.697465       -18.9790
  36   2.0000      -0.690472       -18.7887
  37   2.0000      -0.659218       -17.9382
  38   2.0000      -0.650408       -17.6985
  39   2.0000      -0.613517       -16.6946
  40   2.0000      -0.601028       -16.3548
  41   2.0000      -0.584901       -15.9160
  42   2.0000      -0.571626       -15.5547
  43   2.0000      -0.553718       -15.0674
  44   2.0000      -0.540851       -14.7173
  45   2.0000      -0.521875       -14.2010
  46   2.0000      -0.517417       -14.0796
  47   2.0000      -0.513314       -13.9680
  48   2.0000      -0.507129       -13.7997
  49   2.0000      -0.497130       -13.5276
  50   2.0000      -0.488364       -13.2891
  51   2.0000      -0.480049       -13.0628
  52   2.0000      -0.471397       -12.8274
  53   2.0000      -0.466700       -12.6995
  54   2.0000      -0.460730       -12.5371
  55   2.0000      -0.452203       -12.3051
  56   2.0000      -0.450928       -12.2704
  57   2.0000      -0.444015       -12.0822
  58   2.0000      -0.430644       -11.7184
  59   2.0000      -0.420969       -11.4551
  60   2.0000      -0.416742       -11.3401
  61   2.0000      -0.408001       -11.1023
  62   2.0000      -0.404871       -11.0171
  63   2.0000      -0.339645        -9.2422
  64   2.0000      -0.331369        -9.0170
  65   2.0000      -0.319158        -8.6847
  66   2.0000      -0.302753        -8.2383
  67   0.0000       0.034427         0.9368
  68   0.0000       0.051631         1.4050
  69   0.0000       0.109865         2.9896
  70   0.0000       0.121899         3.3170
  71   0.0000       0.123571         3.3625

MULLIKEN ATOMIC CHARGES
-----------------------
   0 S :    0.127696
   1 C :   -0.146851
   2 C :   -0.031588
   3 C :    0.016092
   4 C :   -0.151265
   5 H :    0.014432
   6 C :    0.062234
   7 H :    0.032956
   8 H :    0.025856
   9 C :   -0.094129
  10 H :    0.030779
  11 H :    0.013208
  12 C :   -0.042576
  13 H :    0.048800
  14 H :    0.032968
  15 H :    0.034945
  16 S :    0.090935
  17 C :   -0.064518
  18 C :    0.001855
  19 C :   -0.050086
  20 C :   -0.188401
  21 H :    0.011729
  22 C :    0.061438
  23 H :    0.019871
  24 H :    0.026505
  25 C :   -0.044665
  26 H :    0.022509
  27 H :    0.011838
  28 C :   -0.054151
  29 H :    0.026663
  30 H :    0.028843
  31 H :    0.026738
  32 H :    0.063036
  33 H :    0.036302
Sum of atomic charges:    0.0000000

LOEWDIN ATOMIC CHARGES
----------------------
   0 S :    0.409549
   1 C :   -0.190642
   2 C :   -0.067694
   3 C :   -0.048639
   4 C :   -0.204175
   5 H :    0.034057
   6 C :   -0.028094
   7 H :    0.036467
   8 H :    0.027603
   9 C :   -0.041300
  10 H :    0.024140
  11 H :    0.014341
  12 C :   -0.060846
  13 H :    0.033452
  14 H :    0.013653
  15 H :    0.031667
  16 S :    0.385698
  17 C :   -0.156286
  18 C :   -0.072891
  19 C :   -0.046719
  20 C :   -0.208475
  21 H :    0.025242
  22 C :   -0.027481
  23 H :    0.035027
  24 H :    0.023935
  25 C :   -0.043275
  26 H :    0.020291
  27 H :    0.023802
  28 C :   -0.069174
  29 H :    0.020585
  30 H :    0.028662
  31 H :    0.028614
  32 H :    0.032227
  33 H :    0.016677

  Mayer bond orders larger than 0.100000
B(  0-S ,  1-C ) :   1.1620 B(  0-S ,  4-C ) :   1.1386 B(  1-C ,  2-C ) :   1.5974
B(  1-C , 32-H ) :   0.9602 B(  2-C ,  3-C ) :   1.2054 B(  2-C ,  6-C ) :   1.0319
B(  3-C ,  4-C ) :   1.6027 B(  3-C ,  5-H ) :   1.0015 B(  4-C , 20-C ) :   1.0359
B(  6-C ,  7-H ) :   0.9383 B(  6-C ,  8-H ) :   0.9430 B(  6-C ,  9-C ) :   1.0694
B(  9-C , 10-H ) :   0.9576 B(  9-C , 11-H ) :   0.9531 B(  9-C , 12-C ) :   1.0762
B( 12-C , 13-H ) :   0.9699 B( 12-C , 14-H ) :   0.9709 B( 12-C , 15-H ) :   0.9758
B( 16-S , 17-C ) :   1.1717 B( 16-S , 20-C ) :   1.1328 B( 17-C , 18-C ) :   1.5687
B( 17-C , 20-C ) :   0.1118 B( 17-C , 33-H ) :   0.9804 B( 18-C , 19-C ) :   1.2844
B( 18-C , 21-H ) :   0.9796 B( 19-C , 20-C ) :   1.5410 B( 19-C , 22-C ) :   1.0587
B( 22-C , 23-H ) :   0.9225 B( 22-C , 24-H ) :   0.9467 B( 22-C , 25-C ) :   1.0664
B( 25-C , 26-H ) :   0.9523 B( 25-C , 27-H ) :   0.9449 B( 25-C , 28-C ) :   1.0888
B( 28-C , 29-H ) :   0.9722 B( 28-C , 30-H ) :   0.9699 B( 28-C , 31-H ) :   0.9663

Dispersion correction           -0.016388728
FINAL SINGLE POINT ENERGY     -1339.857370156760

DIPOLE MOMENT
-------------
                                X             Y             Z
Electronic contribution:      2.64700     -12.59959      28.07954
Nuclear contribution   :     -2.84465      12.90085     -28.75428
                        -----------------------------------------
Total Dipole Moment    :     -0.19765       0.30126      -0.67474
                        -----------------------------------------
Magnitude (a.u.)       :      0.76492
Magnitude (Debye)      :      1.94427

Rotational constants in cm-1:     0.017810     0.010638     0.007483
Rotational constants in MHz :   533.915513   318.912669   224.348699

                             ****ORCA TERMINATED NORMALLY****
TOTAL RUN TIME: 0 days 0 hours 0 minutes 23 seconds 229 msec
