                         Program Version 4.2.1 -  RELEASE  -
|  1> ! wB97X-D3 SP def2-SVP
|  2> %pal
|  3> nprocs 24
|  4> end
|  5>
|  6> * xyz 0 1
|  7> S 	 -93.5092 	 45.0569 	 -92.8167
|  8> C 	 -92.9272 	 44.1006 	 -91.4427
|  9> C 	 -93.8256 	 44.1588 	 -90.3841
| 10> C 	 -94.9774 	 44.8892 	 -90.7284
| 11> C 	 -94.954 	 45.4709 	 -91.9651
| 12> H 	 -95.8453 	 44.9615 	 -90.052
| 13> C 	 -93.573 	 43.5388 	 -88.9929
| 14> H 	 -94.518 	 43.2516 	 -88.515
| 15> H 	 -93.1583 	 44.2642 	 -88.2837
| 16> C 	 -92.9013 	 42.1312 	 -88.952
| 17> H 	 -91.9477 	 42.2175 	 -89.5724
| 18> H 	 -92.5807 	 41.8529 	 -87.8757
| 19> C 	 -93.8688 	 41.1019 	 -89.6356
| 20> H 	 -94.7495 	 40.8303 	 -89.029
| 21> H 	 -94.2655 	 41.5759 	 -90.5192
| 22> H 	 -93.382 	 40.2356 	 -90.0812
| 23> S 	 -95.5352 	 48.1538 	 -91.9477
| 24> C 	 -96.942 	 48.8355 	 -92.7754
| 25> C 	 -97.6474 	 47.7484 	 -93.2418
| 26> C 	 -97.118 	 46.4546 	 -92.9805
| 27> C 	 -95.9289 	 46.549 	 -92.3666
| 28> H 	 -98.6191 	 47.8473 	 -93.7086
| 29> C 	 -97.8722 	 45.2291 	 -93.4077
| 30> H 	 -97.2944 	 44.2714 	 -93.7933
| 31> H 	 -98.465 	 45.5341 	 -94.2872
| 32> C 	 -98.8958 	 44.753 	 -92.3617
| 33> H 	 -99.8497 	 45.3056 	 -92.4936
| 34> H 	 -98.5726 	 45.0461 	 -91.326
| 35> C 	 -99.1478 	 43.2201 	 -92.3182
| 36> H 	 -99.6105 	 42.9727 	 -91.338
| 37> H 	 -98.2548 	 42.5955 	 -92.4945
| 38> H 	 -99.7846 	 43.0484 	 -93.1615
| 39> H 	 -91.991 	 43.6027 	 -91.4343
| 40> H 	 -97.216 	 49.8192 	 -92.8888
| 41> *
| 42>
| 43>                          ****END OF INPUT****

CARTESIAN COORDINATES (ANGSTROEM)
---------------------------------
  S    -93.509200   45.056900  -92.816700
  C    -92.927200   44.100600  -91.442700
  C    -93.825600   44.158800  -90.384100
  C    -94.977400   44.889200  -90.728400
  C    -94.954000   45.470900  -91.965100
  H    -95.845300   44.961500  -90.052000
  C    -93.573000   43.538800  -88.992900
  H    -94.518000   43.251600  -88.515000
  H    -93.158300   44.264200  -88.283700
  C    -92.901300   42.131200  -88.952000
  H    -91.947700   42.217500  -89.572400
  H    -92.580700   41.852900  -87.875700
  C    -93.868800   41.101900  -89.635600
  H    -94.749500   40.830300  -89.029000
  H    -94.265500   41.575900  -90.519200
  H    -93.382000   40.235600  -90.081200
  S    -95.535200   48.153800  -91.947700
  C    -96.942000   48.835500  -92.775400
  C    -97.647400   47.748400  -93.241800
  C    -97.118000   46.454600  -92.980500
  C    -95.928900   46.549000  -92.366600
  H    -98.619100   47.847300  -93.708600
  C    -97.872200   45.229100  -93.407700
  H    -97.294400   44.271400  -93.793300
  H    -98.465000   45.534100  -94.287200
  C    -98.895800   44.753000  -92.361700
  H    -99.849700   45.305600  -92.493600
  H    -98.572600   45.046100  -91.326000
  C    -99.147800   43.220100  -92.318200
  H    -99.610500   42.972700  -91.338000
  H    -98.254800   42.595500  -92.494500
  H    -99.784600   43.048400  -93.161500
  H    -91.991000   43.602700  -91.434300
  H    -97.216000   49.819200  -92.888800

 Total Charge           Charge          ....    0
 Multiplicity           Mult            ....    1
 Number of Electrons    NEL             ....  134
 Basis Dimension        Dim             ....  322

ORBITAL ENERGIES
----------------

  NO   OCC          E(Eh)            E(eV)
   0   2.0000     -88.970111     -2420.9998
   1   2.0000     -88.962447     -2420.7913
   2   2.0000     -10.328081      -281.0414
   3   2.0000     -10.322194      -280.8812
   4   2.0000     -10.315728      -280.7052
   5   2.0000     -10.313921      -280.6561
   6   2.0000     -10.305032      -280.4142
   7   2.0000     -10.303945      -280.3846
   8   2.0000     -10.299322      -280.2588
   9   2.0000     -10.297281      -280.2033
  10   2.0000     -10.295408      -280.1523
  11   2.0000     -10.292360      -280.0694
  12   2.0000     -10.290774      -280.0262
  13   2.0000     -10.289251      -279.9848
  14   2.0000     -10.279882      -279.7298
  15   2.0000     -10.278221      -279.6846
  16   2.0000      -8.084540      -219.9915
  17   2.0000      -8.077812      -219.8084
  18   2.0000      -6.042981      -164.4379
  19   2.0000      -6.039034      -164.3305
  20   2.0000      -6.036400      -164.2588
  21   2.0000      -6.035449      -164.2329
  22   2.0000      -6.032092      -164.1416
  23   2.0000      -6.028566      -164.0456
  24   2.0000      -1.012324       -27.5467
  25   2.0000      -0.990303       -26.9475
  26   2.0000      -0.906384       -24.6640
  27   2.0000      -0.905285       -24.6340
  28   2.0000      -0.864404       -23.5216
  29   2.0000      -0.848789       -23.0967
  30   2.0000      -0.846284       -23.0286
  31   2.0000      -0.812925       -22.1208
  32   2.0000      -0.780288       -21.2327
  33   2.0000      -0.773993       -21.0614
  34   2.0000      -0.705126       -19.1875
  35   2.0000      -0.694807       -18.9067
  36   2.0000      -0.688668       -18.7396
  37   2.0000      -0.667594       -18.1662
  38   2.0000      -0.641952       -17.4684
  39   2.0000      -0.611940       -16.6517
  40   2.0000      -0.600086       -16.3292
  41   2.0000      -0.578282       -15.7359
  42   2.0000      -0.556863       -15.1530
  43   2.0000      -0.553202       -15.0534
  44   2.0000      -0.537532       -14.6270
  45   2.0000      -0.522896       -14.2287
  46   2.0000      -0.516440       -14.0530
  47   2.0000      -0.515459       -14.0264
  48   2.0000      -0.502767       -13.6810
  49   2.0000      -0.489636       -13.3237
  50   2.0000      -0.484811       -13.1924
  51   2.0000      -0.483420       -13.1545
  52   2.0000      -0.471568       -12.8320
  53   2.0000      -0.465407       -12.6644
  54   2.0000      -0.461763       -12.5652
  55   2.0000      -0.442383       -12.0379
  56   2.0000      -0.437927       -11.9166
  57   2.0000      -0.436491       -11.8775
  58   2.0000      -0.427753       -11.6397
  59   2.0000      -0.426514       -11.6060
  60   2.0000      -0.422377       -11.4935
  61   2.0000      -0.411266       -11.1911
  62   2.0000      -0.405225       -11.0267
  63   2.0000      -0.339793        -9.2462
  64   2.0000      -0.328250        -8.9321
  65   2.0000      -0.322606        -8.7786
  66   2.0000      -0.317331        -8.6350
  67   0.0000       0.046016         1.2521
  68   0.0000       0.056464         1.5365
  69   0.0000       0.118920         3.2360
  70   0.0000       0.124449         3.3864
  71   0.0000       0.127494         3.4693

MULLIKEN ATOMIC CHARGES
-----------------------
   0 S :    0.123851
   1 C :   -0.130818
   2 C :   -0.071619
   3 C :    0.025550
   4 C :   -0.149361
   5 H :    0.022991
   6 C :    0.049743
   7 H :    0.017383
   8 H :    0.052179
   9 C :   -0.116498
  10 H :    0.035136
  11 H :    0.051850
  12 C :   -0.057166
  13 H :    0.041354
  14 H :    0.030005
  15 H :    0.034486
  16 S :    0.112372
  17 C :   -0.056929
  18 C :   -0.030276
  19 C :   -0.003391
  20 C :   -0.189724
  21 H :    0.010320
  22 C :    0.034097
  23 H :    0.053360
  24 H :    0.023376
  25 C :   -0.104334
  26 H :    0.032634
  27 H :    0.033271
  28 C :   -0.058830
  29 H :    0.046642
  30 H :    0.041516
  31 H :    0.029341
  32 H :    0.040314
  33 H :    0.027176
Sum of atomic charges:    0.0000000

LOEWDIN ATOMIC CHARGES
----------------------
   0 S :    0.416905
   1 C :   -0.184278
   2 C :   -0.065090
   3 C :   -0.063744
   4 C :   -0.205993
   5 H :    0.036614
   6 C :   -0.038482
   7 H :    0.029303
   8 H :    0.035039
   9 C :   -0.047168
  10 H :    0.022789
  11 H :    0.034255
  12 C :   -0.074049
  13 H :    0.028473
  14 H :    0.026610
  15 H :    0.027382
  16 S :    0.420916
  17 C :   -0.170650
  18 C :   -0.064566
  19 C :   -0.069410
  20 C :   -0.204790
  21 H :    0.026399
  22 C :   -0.042204
  23 H :    0.044249
  24 H :    0.031764
  25 C :   -0.047994
  26 H :    0.025174
  27 H :    0.021925
  28 C :   -0.067917
  29 H :    0.032852
  30 H :    0.027273
  31 H :    0.021516
  32 H :    0.019856
  33 H :    0.017041

  Mayer bond orders larger than 0.100000
B(  0-S ,  1-C ) :   1.1503 B(  0-S ,  4-C ) :   1.1657 B(  1-C ,  2-C ) :   1.5808
B(  1-C , 32-H ) :   0.9753 B(  2-C ,  3-C ) :   1.2755 B(  2-C ,  6-C ) :   1.0017
B(  3-C ,  4-C ) :   1.5785 B(  3-C ,  5-H ) :   0.9892 B(  4-C , 20-C ) :   0.9688
B(  6-C ,  7-H ) :   0.9501 B(  6-C ,  8-H ) :   0.9411 B(  6-C ,  9-C ) :   1.0551
B(  9-C , 10-H ) :   0.9570 B(  9-C , 11-H ) :   0.9577 B(  9-C , 12-C ) :   1.0581
B( 12-C , 13-H ) :   0.9745 B( 12-C , 14-H ) :   0.9738 B( 12-C , 15-H ) :   0.9753
B( 16-S , 17-C ) :   1.1417 B( 16-S , 20-C ) :   1.1628 B( 17-C , 18-C ) :   1.5974
B( 17-C , 33-H ) :   0.9856 B( 18-C , 19-C ) :   1.2611 B( 18-C , 21-H ) :   0.9802
B( 19-C , 20-C ) :   1.6285 B( 19-C , 22-C ) :   1.0490 B( 22-C , 23-H ) :   0.9468
B( 22-C , 24-H ) :   0.9293 B( 22-C , 25-C ) :   1.0336 B( 25-C , 26-H ) :   0.9540
B( 25-C , 27-H ) :   0.9690 B( 25-C , 28-C ) :   1.0735 B( 28-C , 29-H ) :   0.9766
B( 28-C , 30-H ) :   0.9778 B( 28-C , 31-H ) :   0.9772

Dispersion correction           -0.014438021
FINAL SINGLE POINT ENERGY     -1339.870409165651

DIPOLE MOMENT
-------------
                                X             Y             Z
Electronic contribution:     10.66737      23.34047      -9.42796
Nuclear contribution   :    -11.04675     -23.61920       9.64845
                        -----------------------------------------
Total Dipole Moment    :     -0.37938      -0.27873       0.22049
                        -----------------------------------------
Magnitude (a.u.)       :      0.51984
Magnitude (Debye)      :      1.32133

Rotational constants in cm-1:     0.019161     0.008669     0.006881
Rotational constants in MHz :   574.427747   259.882353   206.293577

                             ****ORCA TERMINATED NORMALLY****
TOTAL RUN TIME: 0 days 0 hours 0 minutes 20 seconds 514 msec
