                         Program Version 4.2.1 -  RELEASE  -
|  1> ! wB97X-D3 SP def2-SVP
|  2> %pal
|  3> nprocs 24
|  4> end
|  5>
|  6> * xyz 0 1
|  7> S 	 -54.1023 	 -49.1934 	 -81.419
|  8> C 	 -54.4891 	 -49.2983 	 -83.1284
|  9> C 	 -55.2464 	 -48.2203 	 -83.5588
| 10> C 	 -55.6429 	 -47.4342 	 -82.4601
| 11> C 	 -55.1216 	 -47.8026 	 -81.2518
| 12> H 	 -56.1928 	 -46.5199 	 -82.6137
| 13> C 	 -55.7297 	 -47.7955 	 -84.9842
| 14> H 	 -55.0987 	 -48.0785 	 -85.7977
| 15> H 	 -55.6423 	 -46.6715 	 -85.0422
| 16> C 	 -57.1905 	 -48.0951 	 -85.218
| 17> H 	 -57.7471 	 -47.7824 	 -84.2711
| 18> H 	 -57.4754 	 -47.409 	 -85.984
| 19> C 	 -57.5851 	 -49.5029 	 -85.5961
| 20> H 	 -58.6948 	 -49.6535 	 -85.7373
| 21> H 	 -57.0814 	 -49.6497 	 -86.6329
| 22> H 	 -57.2778 	 -50.2551 	 -84.8853
| 23> S 	 -54.608 	 -46.6581 	 -78.7474
| 24> C 	 -56.0515 	 -46.1943 	 -77.7504
| 25> C 	 -57.2307 	 -46.4548 	 -78.4259
| 26> C 	 -57.0531 	 -47.1639 	 -79.7003
| 27> C 	 -55.6962 	 -47.3883 	 -79.984
| 28> H 	 -58.2119 	 -46.1632 	 -78.0053
| 29> C 	 -58.2333 	 -47.3818 	 -80.6219
| 30> H 	 -59.0681 	 -47.7892 	 -79.9722
| 31> H 	 -58.0902 	 -48.0818 	 -81.4784
| 32> C 	 -58.9463 	 -46.0554 	 -80.9691
| 33> H 	 -58.1824 	 -45.331 	 -81.358
| 34> H 	 -59.3845 	 -45.5826 	 -80.123
| 35> C 	 -60.1171 	 -46.1827 	 -82.0702
| 36> H 	 -60.5012 	 -45.2274 	 -82.3699
| 37> H 	 -61.0551 	 -46.7119 	 -81.6688
| 38> H 	 -59.8289 	 -46.8237 	 -82.9261
| 39> H 	 -54.1932 	 -50.118 	 -83.7686
| 40> H 	 -56.0098 	 -45.5829 	 -76.8223
| 41> *
| 42>
| 43>                          ****END OF INPUT****

CARTESIAN COORDINATES (ANGSTROEM)
---------------------------------
  S    -54.102300  -49.193400  -81.419000
  C    -54.489100  -49.298300  -83.128400
  C    -55.246400  -48.220300  -83.558800
  C    -55.642900  -47.434200  -82.460100
  C    -55.121600  -47.802600  -81.251800
  H    -56.192800  -46.519900  -82.613700
  C    -55.729700  -47.795500  -84.984200
  H    -55.098700  -48.078500  -85.797700
  H    -55.642300  -46.671500  -85.042200
  C    -57.190500  -48.095100  -85.218000
  H    -57.747100  -47.782400  -84.271100
  H    -57.475400  -47.409000  -85.984000
  C    -57.585100  -49.502900  -85.596100
  H    -58.694800  -49.653500  -85.737300
  H    -57.081400  -49.649700  -86.632900
  H    -57.277800  -50.255100  -84.885300
  S    -54.608000  -46.658100  -78.747400
  C    -56.051500  -46.194300  -77.750400
  C    -57.230700  -46.454800  -78.425900
  C    -57.053100  -47.163900  -79.700300
  C    -55.696200  -47.388300  -79.984000
  H    -58.211900  -46.163200  -78.005300
  C    -58.233300  -47.381800  -80.621900
  H    -59.068100  -47.789200  -79.972200
  H    -58.090200  -48.081800  -81.478400
  C    -58.946300  -46.055400  -80.969100
  H    -58.182400  -45.331000  -81.358000
  H    -59.384500  -45.582600  -80.123000
  C    -60.117100  -46.182700  -82.070200
  H    -60.501200  -45.227400  -82.369900
  H    -61.055100  -46.711900  -81.668800
  H    -59.828900  -46.823700  -82.926100
  H    -54.193200  -50.118000  -83.768600
  H    -56.009800  -45.582900  -76.822300

 Total Charge           Charge          ....    0
 Multiplicity           Mult            ....    1
 Number of Electrons    NEL             ....  134
 Basis Dimension        Dim             ....  322

ORBITAL ENERGIES
----------------

  NO   OCC          E(Eh)            E(eV)
   0   2.0000     -88.967410     -2420.9263
   1   2.0000     -88.964549     -2420.8484
   2   2.0000     -10.331386      -281.1313
   3   2.0000     -10.327499      -281.0255
   4   2.0000     -10.323107      -280.9060
   5   2.0000     -10.317503      -280.7535
   6   2.0000     -10.312068      -280.6056
   7   2.0000     -10.303522      -280.3731
   8   2.0000     -10.302492      -280.3451
   9   2.0000     -10.301855      -280.3277
  10   2.0000     -10.300112      -280.2803
  11   2.0000     -10.297108      -280.1985
  12   2.0000     -10.291650      -280.0500
  13   2.0000     -10.289552      -279.9929
  14   2.0000     -10.288598      -279.9670
  15   2.0000     -10.288340      -279.9600
  16   2.0000      -8.082494      -219.9359
  17   2.0000      -8.077671      -219.8046
  18   2.0000      -6.040939      -164.3823
  19   2.0000      -6.036971      -164.2743
  20   2.0000      -6.036409      -164.2590
  21   2.0000      -6.033275      -164.1738
  22   2.0000      -6.032589      -164.1551
  23   2.0000      -6.028103      -164.0330
  24   2.0000      -1.006077       -27.3768
  25   2.0000      -0.974101       -26.5066
  26   2.0000      -0.915621       -24.9153
  27   2.0000      -0.902259       -24.5517
  28   2.0000      -0.867829       -23.6148
  29   2.0000      -0.850782       -23.1509
  30   2.0000      -0.837885       -22.8000
  31   2.0000      -0.808640       -22.0042
  32   2.0000      -0.786550       -21.4031
  33   2.0000      -0.771600       -20.9963
  34   2.0000      -0.705522       -19.1982
  35   2.0000      -0.693827       -18.8800
  36   2.0000      -0.692132       -18.8339
  37   2.0000      -0.655971       -17.8499
  38   2.0000      -0.641074       -17.4445
  39   2.0000      -0.627436       -17.0734
  40   2.0000      -0.594036       -16.1645
  41   2.0000      -0.569480       -15.4963
  42   2.0000      -0.559599       -15.2275
  43   2.0000      -0.546080       -14.8596
  44   2.0000      -0.541887       -14.7455
  45   2.0000      -0.525015       -14.2864
  46   2.0000      -0.514322       -13.9954
  47   2.0000      -0.513002       -13.9595
  48   2.0000      -0.500758       -13.6263
  49   2.0000      -0.491165       -13.3653
  50   2.0000      -0.484658       -13.1882
  51   2.0000      -0.480655       -13.0793
  52   2.0000      -0.469449       -12.7744
  53   2.0000      -0.464013       -12.6264
  54   2.0000      -0.457285       -12.4434
  55   2.0000      -0.451904       -12.2969
  56   2.0000      -0.447008       -12.1637
  57   2.0000      -0.440794       -11.9946
  58   2.0000      -0.436012       -11.8645
  59   2.0000      -0.420952       -11.4547
  60   2.0000      -0.418510       -11.3882
  61   2.0000      -0.416503       -11.3336
  62   2.0000      -0.410313       -11.1652
  63   2.0000      -0.345210        -9.3936
  64   2.0000      -0.335137        -9.1195
  65   2.0000      -0.324958        -8.8426
  66   2.0000      -0.292945        -7.9714
  67   0.0000       0.029170         0.7937
  68   0.0000       0.063034         1.7152
  69   0.0000       0.100508         2.7350
  70   0.0000       0.114872         3.1258
  71   0.0000       0.118036         3.2119

MULLIKEN ATOMIC CHARGES
-----------------------
   0 S :    0.118100
   1 C :   -0.142679
   2 C :   -0.062137
   3 C :   -0.018251
   4 C :   -0.106000
   5 H :    0.013471
   6 C :    0.060499
   7 H :    0.015678
   8 H :    0.035281
   9 C :   -0.081184
  10 H :    0.029227
  11 H :    0.024180
  12 C :   -0.063858
  13 H :    0.046582
  14 H :    0.035094
  15 H :    0.039420
  16 S :    0.080038
  17 C :   -0.103946
  18 C :   -0.046098
  19 C :   -0.020657
  20 C :   -0.137333
  21 H :    0.034416
  22 C :    0.030630
  23 H :    0.032531
  24 H :    0.058185
  25 C :   -0.098195
  26 H :    0.037802
  27 H :    0.029355
  28 C :   -0.073665
  29 H :    0.037199
  30 H :    0.032240
  31 H :    0.040325
  32 H :    0.047429
  33 H :    0.076320
Sum of atomic charges:   -0.0000000

LOEWDIN ATOMIC CHARGES
----------------------
   0 S :    0.416031
   1 C :   -0.191273
   2 C :   -0.065768
   3 C :   -0.056695
   4 C :   -0.209340
   5 H :    0.030748
   6 C :   -0.027104
   7 H :    0.023190
   8 H :    0.041296
   9 C :   -0.050675
  10 H :    0.026167
  11 H :    0.021549
  12 C :   -0.072920
  13 H :    0.033457
  14 H :    0.033747
  15 H :    0.022566
  16 S :    0.350311
  17 C :   -0.170878
  18 C :   -0.069586
  19 C :   -0.048472
  20 C :   -0.182942
  21 H :    0.035868
  22 C :   -0.042903
  23 H :    0.041198
  24 H :    0.037107
  25 C :   -0.037527
  26 H :    0.022401
  27 H :    0.017923
  28 C :   -0.072870
  29 H :    0.022857
  30 H :    0.030620
  31 H :    0.025000
  32 H :    0.027139
  33 H :    0.039778

  Mayer bond orders larger than 0.100000
B(  0-S ,  1-C ) :   1.1550 B(  0-S ,  4-C ) :   1.1491 B(  1-C ,  2-C ) :   1.5973
B(  1-C , 32-H ) :   0.9705 B(  2-C ,  3-C ) :   1.2590 B(  2-C ,  6-C ) :   1.0111
B(  3-C ,  4-C ) :   1.5632 B(  3-C ,  5-H ) :   0.9955 B(  4-C , 20-C ) :   1.0131
B(  6-C ,  7-H ) :   0.9450 B(  6-C ,  8-H ) :   0.9429 B(  6-C ,  9-C ) :   1.0720
B(  9-C , 10-H ) :   0.9462 B(  9-C , 11-H ) :   0.9525 B(  9-C , 12-C ) :   1.0797
B( 12-C , 13-H ) :   0.9727 B( 12-C , 14-H ) :   0.9714 B( 12-C , 15-H ) :   0.9754
B( 16-S , 17-C ) :   1.1233 B( 16-S , 20-C ) :   1.1096 B( 17-C , 18-C ) :   1.6614
B( 17-C , 33-H ) :   0.9614 B( 18-C , 19-C ) :   1.1906 B( 18-C , 21-H ) :   0.9791
B( 19-C , 20-C ) :   1.6342 B( 19-C , 22-C ) :   1.0579 B( 22-C , 23-H ) :   0.9251
B( 22-C , 24-H ) :   0.9434 B( 22-C , 25-C ) :   1.0426 B( 25-C , 26-H ) :   0.9583
B( 25-C , 27-H ) :   0.9539 B( 25-C , 28-C ) :   1.0692 B( 28-C , 29-H ) :   0.9760
B( 28-C , 30-H ) :   0.9745 B( 28-C , 31-H ) :   0.9777

Dispersion correction           -0.015509144
FINAL SINGLE POINT ENERGY     -1339.867268726245

DIPOLE MOMENT
-------------
                                X             Y             Z
Electronic contribution:     25.71337      -2.91001      21.40329
Nuclear contribution   :    -26.46575       3.20059     -21.92510
                        -----------------------------------------
Total Dipole Moment    :     -0.75238       0.29058      -0.52181
                        -----------------------------------------
Magnitude (a.u.)       :      0.96063
Magnitude (Debye)      :      2.44172

Rotational constants in cm-1:     0.017444     0.010387     0.007018
Rotational constants in MHz :   522.970336   311.408041   210.385741

                             ****ORCA TERMINATED NORMALLY****
TOTAL RUN TIME: 0 days 0 hours 0 minutes 22 seconds 793 msec
