                         Program Version 4.2.1 -  RELEASE  -
|  1> ! wB97X-D3 SP def2-SVP
|  2> %pal
|  3> nprocs 24
|  4> end
|  5>
|  6> * xyz 0 1
|  7> S 	 -105.756 	 52.1949 	 -81.2184
|  8> C 	 -104.401 	 52.1145 	 -82.3832
|  9> C 	 -104.67 	 51.1208 	 -83.3449
| 10> C 	 -105.979 	 50.5819 	 -83.2176
| 11> C 	 -106.674 	 50.9465 	 -82.0745
| 12> H 	 -106.329 	 49.8878 	 -83.9385
| 13> C 	 -103.641 	 50.442 	 -84.3285
| 14> H 	 -103.005 	 51.21 	 -84.884
| 15> H 	 -104.165 	 49.9018 	 -85.1058
| 16> C 	 -102.676 	 49.5293 	 -83.5134
| 17> H 	 -102.055 	 50.1772 	 -82.783
| 18> H 	 -103.284 	 48.8887 	 -82.9177
| 19> C 	 -101.852 	 48.675 	 -84.3478
| 20> H 	 -101.215 	 47.9901 	 -83.8512
| 21> H 	 -102.555 	 48.1006 	 -85.0041
| 22> H 	 -101.233 	 49.3784 	 -84.9607
| 23> S 	 -109.183 	 51.7241 	 -81.312
| 24> C 	 -110.365 	 50.5907 	 -80.8221
| 25> C 	 -109.937 	 49.2928 	 -81.0028
| 26> C 	 -108.577 	 49.2424 	 -81.482
| 27> C 	 -107.975 	 50.5053 	 -81.5612
| 28> H 	 -110.638 	 48.5428 	 -80.6782
| 29> C 	 -107.848 	 47.9025 	 -81.5707
| 30> H 	 -106.84 	 48.1194 	 -81.1178
| 31> H 	 -107.637 	 47.7587 	 -82.6504
| 32> C 	 -108.386 	 46.7621 	 -80.7358
| 33> H 	 -107.855 	 45.8501 	 -81.0913
| 34> H 	 -109.412 	 46.5106 	 -81.0041
| 35> C 	 -108.237 	 47.0438 	 -79.2309
| 36> H 	 -108.907 	 47.8231 	 -78.9993
| 37> H 	 -107.175 	 47.2759 	 -79.0323
| 38> H 	 -108.366 	 46.0424 	 -78.6692
| 39> H 	 -103.411 	 52.4732 	 -82.2284
| 40> H 	 -111.329 	 50.8731 	 -80.3783
| 41> *
| 42>
| 43>                          ****END OF INPUT****

CARTESIAN COORDINATES (ANGSTROEM)
---------------------------------
  S    -105.756000   52.194900  -81.218400
  C    -104.401000   52.114500  -82.383200
  C    -104.670000   51.120800  -83.344900
  C    -105.979000   50.581900  -83.217600
  C    -106.674000   50.946500  -82.074500
  H    -106.329000   49.887800  -83.938500
  C    -103.641000   50.442000  -84.328500
  H    -103.005000   51.210000  -84.884000
  H    -104.165000   49.901800  -85.105800
  C    -102.676000   49.529300  -83.513400
  H    -102.055000   50.177200  -82.783000
  H    -103.284000   48.888700  -82.917700
  C    -101.852000   48.675000  -84.347800
  H    -101.215000   47.990100  -83.851200
  H    -102.555000   48.100600  -85.004100
  H    -101.233000   49.378400  -84.960700
  S    -109.183000   51.724100  -81.312000
  C    -110.365000   50.590700  -80.822100
  C    -109.937000   49.292800  -81.002800
  C    -108.577000   49.242400  -81.482000
  C    -107.975000   50.505300  -81.561200
  H    -110.638000   48.542800  -80.678200
  C    -107.848000   47.902500  -81.570700
  H    -106.840000   48.119400  -81.117800
  H    -107.637000   47.758700  -82.650400
  C    -108.386000   46.762100  -80.735800
  H    -107.855000   45.850100  -81.091300
  H    -109.412000   46.510600  -81.004100
  C    -108.237000   47.043800  -79.230900
  H    -108.907000   47.823100  -78.999300
  H    -107.175000   47.275900  -79.032300
  H    -108.366000   46.042400  -78.669200
  H    -103.411000   52.473200  -82.228400
  H    -111.329000   50.873100  -80.378300

 Total Charge           Charge          ....    0
 Multiplicity           Mult            ....    1
 Number of Electrons    NEL             ....  134
 Basis Dimension        Dim             ....  322

ORBITAL ENERGIES
----------------

  NO   OCC          E(Eh)            E(eV)
   0   2.0000     -88.968257     -2420.9494
   1   2.0000     -88.962905     -2420.8037
   2   2.0000     -10.335931      -281.2550
   3   2.0000     -10.326929      -281.0100
   4   2.0000     -10.317923      -280.7650
   5   2.0000     -10.315618      -280.7022
   6   2.0000     -10.308559      -280.5102
   7   2.0000     -10.307360      -280.4775
   8   2.0000     -10.305347      -280.4227
   9   2.0000     -10.294024      -280.1146
  10   2.0000     -10.293600      -280.1031
  11   2.0000     -10.293501      -280.1004
  12   2.0000     -10.288440      -279.9627
  13   2.0000     -10.287542      -279.9382
  14   2.0000     -10.282848      -279.8105
  15   2.0000     -10.278337      -279.6878
  16   2.0000      -8.081814      -219.9173
  17   2.0000      -8.078877      -219.8374
  18   2.0000      -6.040459      -164.3692
  19   2.0000      -6.037297      -164.2832
  20   2.0000      -6.036345      -164.2573
  21   2.0000      -6.033060      -164.1679
  22   2.0000      -6.032623      -164.1560
  23   2.0000      -6.029791      -164.0790
  24   2.0000      -1.006986       -27.4015
  25   2.0000      -0.981549       -26.7093
  26   2.0000      -0.915960       -24.9245
  27   2.0000      -0.912529       -24.8312
  28   2.0000      -0.871461       -23.7137
  29   2.0000      -0.849880       -23.1264
  30   2.0000      -0.842787       -22.9334
  31   2.0000      -0.814895       -22.1744
  32   2.0000      -0.781032       -21.2530
  33   2.0000      -0.770192       -20.9580
  34   2.0000      -0.707073       -19.2404
  35   2.0000      -0.697149       -18.9704
  36   2.0000      -0.690556       -18.7910
  37   2.0000      -0.653852       -17.7922
  38   2.0000      -0.639305       -17.3964
  39   2.0000      -0.624584       -16.9958
  40   2.0000      -0.597840       -16.2680
  41   2.0000      -0.572232       -15.5712
  42   2.0000      -0.568902       -15.4806
  43   2.0000      -0.556942       -15.1552
  44   2.0000      -0.539189       -14.6721
  45   2.0000      -0.533600       -14.5200
  46   2.0000      -0.521723       -14.1968
  47   2.0000      -0.509822       -13.8730
  48   2.0000      -0.505541       -13.7565
  49   2.0000      -0.499335       -13.5876
  50   2.0000      -0.485786       -13.2189
  51   2.0000      -0.481737       -13.1087
  52   2.0000      -0.465004       -12.6534
  53   2.0000      -0.460326       -12.5261
  54   2.0000      -0.457673       -12.4539
  55   2.0000      -0.450614       -12.2618
  56   2.0000      -0.444472       -12.0947
  57   2.0000      -0.435412       -11.8482
  58   2.0000      -0.428800       -11.6683
  59   2.0000      -0.424088       -11.5400
  60   2.0000      -0.419819       -11.4239
  61   2.0000      -0.416614       -11.3367
  62   2.0000      -0.411000       -11.1839
  63   2.0000      -0.346520        -9.4293
  64   2.0000      -0.331491        -9.0203
  65   2.0000      -0.327707        -8.9174
  66   2.0000      -0.293655        -7.9908
  67   0.0000       0.024924         0.6782
  68   0.0000       0.067582         1.8390
  69   0.0000       0.111420         3.0319
  70   0.0000       0.120273         3.2728
  71   0.0000       0.134777         3.6675

MULLIKEN ATOMIC CHARGES
-----------------------
   0 S :    0.102278
   1 C :   -0.096715
   2 C :   -0.109393
   3 C :    0.055642
   4 C :   -0.150536
   5 H :   -0.003659
   6 C :    0.023620
   7 H :    0.040325
   8 H :    0.020157
   9 C :   -0.078668
  10 H :    0.035598
  11 H :    0.017425
  12 C :   -0.015680
  13 H :    0.033164
  14 H :    0.027927
  15 H :    0.025198
  16 S :    0.115004
  17 C :   -0.102459
  18 C :   -0.054103
  19 C :   -0.044635
  20 C :   -0.139023
  21 H :    0.023049
  22 C :    0.032062
  23 H :    0.036412
  24 H :    0.042037
  25 C :   -0.074704
  26 H :    0.027854
  27 H :    0.023343
  28 C :   -0.046093
  29 H :    0.044514
  30 H :    0.034387
  31 H :    0.047550
  32 H :    0.044505
  33 H :    0.063612
Sum of atomic charges:   -0.0000000

LOEWDIN ATOMIC CHARGES
----------------------
   0 S :    0.390768
   1 C :   -0.188846
   2 C :   -0.055150
   3 C :   -0.062293
   4 C :   -0.186331
   5 H :    0.024472
   6 C :   -0.026837
   7 H :    0.034946
   8 H :    0.023688
   9 C :   -0.047030
  10 H :    0.029555
  11 H :    0.017465
  12 C :   -0.063711
  13 H :    0.021365
  14 H :    0.029907
  15 H :    0.027842
  16 S :    0.431909
  17 C :   -0.196426
  18 C :   -0.082482
  19 C :   -0.052817
  20 C :   -0.215921
  21 H :    0.033112
  22 C :   -0.043547
  23 H :    0.038788
  24 H :    0.034378
  25 C :   -0.049988
  26 H :    0.030112
  27 H :    0.018017
  28 C :   -0.060517
  29 H :    0.020757
  30 H :    0.028936
  31 H :    0.038849
  32 H :    0.023462
  33 H :    0.033570

  Mayer bond orders larger than 0.100000
B(  0-S ,  1-C ) :   1.1322 B(  0-S ,  4-C ) :   1.1569 B(  1-C ,  2-C ) :   1.6062
B(  1-C ,  4-C ) :   0.1076 B(  1-C , 32-H ) :   0.9687 B(  2-C ,  3-C ) :   1.2649
B(  2-C ,  6-C ) :   1.0193 B(  3-C ,  4-C ) :   1.5539 B(  3-C ,  5-H ) :   0.9991
B(  4-C , 20-C ) :   1.0235 B(  6-C ,  7-H ) :   0.9434 B(  6-C ,  8-H ) :   0.9489
B(  6-C ,  9-C ) :   1.0500 B(  9-C , 10-H ) :   0.9509 B(  9-C , 11-H ) :   0.9541
B(  9-C , 12-C ) :   1.0951 B( 12-C , 13-H ) :   0.9718 B( 12-C , 14-H ) :   0.9696
B( 12-C , 15-H ) :   0.9702 B( 16-S , 17-C ) :   1.1817 B( 16-S , 20-C ) :   1.1546
B( 17-C , 18-C ) :   1.5919 B( 17-C , 20-C ) :   0.1003 B( 17-C , 33-H ) :   0.9624
B( 18-C , 19-C ) :   1.2369 B( 18-C , 21-H ) :   0.9914 B( 19-C , 20-C ) :   1.5825
B( 19-C , 22-C ) :   1.0202 B( 22-C , 23-H ) :   0.9444 B( 22-C , 24-H ) :   0.9270
B( 22-C , 25-C ) :   1.0790 B( 25-C , 26-H ) :   0.9500 B( 25-C , 27-H ) :   0.9459
B( 25-C , 28-C ) :   1.0674 B( 28-C , 29-H ) :   0.9744 B( 28-C , 30-H ) :   0.9732
B( 28-C , 31-H ) :   0.9730

Dispersion correction           -0.014107454
FINAL SINGLE POINT ENERGY     -1339.869866094971

DIPOLE MOMENT
-------------
                                X             Y             Z
Electronic contribution:    -14.29419      23.74943       4.63728
Nuclear contribution   :     14.49730     -24.50984      -4.77245
                        -----------------------------------------
Total Dipole Moment    :      0.20311      -0.76041      -0.13517
                        -----------------------------------------
Magnitude (a.u.)       :      0.79859
Magnitude (Debye)      :      2.02987

Rotational constants in cm-1:     0.019363     0.008276     0.006431
Rotational constants in MHz :   580.481563   248.121477   192.782213

                             ****ORCA TERMINATED NORMALLY****
TOTAL RUN TIME: 0 days 0 hours 0 minutes 21 seconds 320 msec
