                         Program Version 4.2.1 -  RELEASE  -
|  1> ! wB97X-D3 SP def2-SVP
|  2> %pal
|  3> nprocs 24
|  4> end
|  5>
|  6> * xyz 0 1
|  7> S 	 -75.521 	 9.33827 	 -105.485
|  8> C 	 -76.6702 	 10.4915 	 -106.126
|  9> C 	 -77.2526 	 10.0245 	 -107.342
| 10> C 	 -76.6686 	 8.75641 	 -107.689
| 11> C 	 -75.6754 	 8.29207 	 -106.85
| 12> H 	 -77.1482 	 8.05641 	 -108.323
| 13> C 	 -78.4345 	 10.5856 	 -108.138
| 14> H 	 -78.7892 	 11.4986 	 -107.682
| 15> H 	 -79.2163 	 9.86454 	 -108.051
| 16> C 	 -78.1486 	 10.8245 	 -109.639
| 17> H 	 -77.2499 	 11.3728 	 -109.91
| 18> H 	 -78.067 	 9.91256 	 -110.15
| 19> C 	 -79.2841 	 11.592 	 -110.244
| 20> H 	 -79.4031 	 12.5466 	 -109.663
| 21> H 	 -79.023 	 11.791 	 -111.282
| 22> H 	 -80.2504 	 11.0131 	 -110.24
| 23> S 	 -74.8747 	 6.18519 	 -105.237
| 24> C 	 -74.562 	 4.60469 	 -105.973
| 25> C 	 -74.4218 	 4.68397 	 -107.319
| 26> C 	 -74.918 	 5.97361 	 -107.81
| 27> C 	 -75.2062 	 6.88989 	 -106.845
| 28> H 	 -74.2123 	 3.8065 	 -107.955
| 29> C 	 -74.8168 	 6.30694 	 -109.311
| 30> H 	 -73.7904 	 6.101 	 -109.695
| 31> H 	 -75.0327 	 7.39187 	 -109.382
| 32> C 	 -75.7929 	 5.57763 	 -110.197
| 33> H 	 -76.8076 	 5.52807 	 -109.733
| 34> H 	 -75.4294 	 4.59774 	 -110.464
| 35> C 	 -75.8804 	 6.37059 	 -111.493
| 36> H 	 -76.5297 	 7.30979 	 -111.437
| 37> H 	 -76.3514 	 5.84687 	 -112.227
| 38> H 	 -75.014 	 6.73025 	 -111.978
| 39> H 	 -77.0276 	 11.2677 	 -105.516
| 40> H 	 -74.3647 	 3.73281 	 -105.387
| 41> *
| 42>
| 43>                          ****END OF INPUT****

CARTESIAN COORDINATES (ANGSTROEM)
---------------------------------
  S    -75.521000    9.338270  -105.485000
  C    -76.670200   10.491500  -106.126000
  C    -77.252600   10.024500  -107.342000
  C    -76.668600    8.756410  -107.689000
  C    -75.675400    8.292070  -106.850000
  H    -77.148200    8.056410  -108.323000
  C    -78.434500   10.585600  -108.138000
  H    -78.789200   11.498600  -107.682000
  H    -79.216300    9.864540  -108.051000
  C    -78.148600   10.824500  -109.639000
  H    -77.249900   11.372800  -109.910000
  H    -78.067000    9.912560  -110.150000
  C    -79.284100   11.592000  -110.244000
  H    -79.403100   12.546600  -109.663000
  H    -79.023000   11.791000  -111.282000
  H    -80.250400   11.013100  -110.240000
  S    -74.874700    6.185190  -105.237000
  C    -74.562000    4.604690  -105.973000
  C    -74.421800    4.683970  -107.319000
  C    -74.918000    5.973610  -107.810000
  C    -75.206200    6.889890  -106.845000
  H    -74.212300    3.806500  -107.955000
  C    -74.816800    6.306940  -109.311000
  H    -73.790400    6.101000  -109.695000
  H    -75.032700    7.391870  -109.382000
  C    -75.792900    5.577630  -110.197000
  H    -76.807600    5.528070  -109.733000
  H    -75.429400    4.597740  -110.464000
  C    -75.880400    6.370590  -111.493000
  H    -76.529700    7.309790  -111.437000
  H    -76.351400    5.846870  -112.227000
  H    -75.014000    6.730250  -111.978000
  H    -77.027600   11.267700  -105.516000
  H    -74.364700    3.732810  -105.387000

 Total Charge           Charge          ....    0
 Multiplicity           Mult            ....    1
 Number of Electrons    NEL             ....  134
 Basis Dimension        Dim             ....  322

ORBITAL ENERGIES
----------------

  NO   OCC          E(Eh)            E(eV)
   0   2.0000     -88.968732     -2420.9623
   1   2.0000     -88.959653     -2420.7152
   2   2.0000     -10.330507      -281.1074
   3   2.0000     -10.329755      -281.0869
   4   2.0000     -10.317400      -280.7507
   5   2.0000     -10.317185      -280.7449
   6   2.0000     -10.310447      -280.5615
   7   2.0000     -10.302126      -280.3351
   8   2.0000     -10.297168      -280.2002
   9   2.0000     -10.295615      -280.1579
  10   2.0000     -10.290774      -280.0262
  11   2.0000     -10.290632      -280.0223
  12   2.0000     -10.287188      -279.9286
  13   2.0000     -10.282820      -279.8097
  14   2.0000     -10.281108      -279.7632
  15   2.0000     -10.269254      -279.4406
  16   2.0000      -8.083700      -219.9687
  17   2.0000      -8.074181      -219.7096
  18   2.0000      -6.042193      -164.4164
  19   2.0000      -6.038179      -164.3072
  20   2.0000      -6.034467      -164.2062
  21   2.0000      -6.032928      -164.1643
  22   2.0000      -6.028941      -164.0558
  23   2.0000      -6.024485      -163.9346
  24   2.0000      -1.005507       -27.3612
  25   2.0000      -0.980974       -26.6937
  26   2.0000      -0.917315       -24.9614
  27   2.0000      -0.912262       -24.8239
  28   2.0000      -0.870853       -23.6971
  29   2.0000      -0.855155       -23.2700
  30   2.0000      -0.843104       -22.9420
  31   2.0000      -0.816242       -22.2111
  32   2.0000      -0.779668       -21.2158
  33   2.0000      -0.772771       -21.0282
  34   2.0000      -0.705748       -19.2044
  35   2.0000      -0.698464       -19.0062
  36   2.0000      -0.694290       -18.8926
  37   2.0000      -0.662168       -18.0185
  38   2.0000      -0.646101       -17.5813
  39   2.0000      -0.622227       -16.9317
  40   2.0000      -0.595460       -16.2033
  41   2.0000      -0.575049       -15.6479
  42   2.0000      -0.571562       -15.5530
  43   2.0000      -0.563488       -15.3333
  44   2.0000      -0.531808       -14.4712
  45   2.0000      -0.524685       -14.2774
  46   2.0000      -0.518804       -14.1174
  47   2.0000      -0.509680       -13.8691
  48   2.0000      -0.504793       -13.7361
  49   2.0000      -0.494885       -13.4665
  50   2.0000      -0.491283       -13.3685
  51   2.0000      -0.486572       -13.2403
  52   2.0000      -0.466021       -12.6811
  53   2.0000      -0.462369       -12.5817
  54   2.0000      -0.460722       -12.5369
  55   2.0000      -0.450856       -12.2684
  56   2.0000      -0.442579       -12.0432
  57   2.0000      -0.439268       -11.9531
  58   2.0000      -0.438166       -11.9231
  59   2.0000      -0.427539       -11.6339
  60   2.0000      -0.422117       -11.4864
  61   2.0000      -0.418901       -11.3989
  62   2.0000      -0.407602       -11.0914
  63   2.0000      -0.358805        -9.7636
  64   2.0000      -0.331771        -9.0280
  65   2.0000      -0.324494        -8.8299
  66   2.0000      -0.287561        -7.8249
  67   0.0000       0.024684         0.6717
  68   0.0000       0.072650         1.9769
  69   0.0000       0.104041         2.8311
  70   0.0000       0.108957         2.9649
  71   0.0000       0.125276         3.4089

MULLIKEN ATOMIC CHARGES
-----------------------
   0 S :    0.098225
   1 C :   -0.109615
   2 C :   -0.081073
   3 C :   -0.007008
   4 C :   -0.090755
   5 H :    0.011808
   6 C :    0.085088
   7 H :    0.010076
   8 H :    0.031891
   9 C :   -0.058742
  10 H :    0.034195
  11 H :    0.016222
  12 C :   -0.075240
  13 H :    0.038585
  14 H :    0.034968
  15 H :    0.036055
  16 S :    0.066010
  17 C :   -0.079611
  18 C :   -0.006833
  19 C :   -0.081050
  20 C :   -0.114036
  21 H :    0.035973
  22 C :    0.012041
  23 H :    0.042977
  24 H :    0.030943
  25 C :   -0.051457
  26 H :    0.041250
  27 H :    0.026987
  28 C :   -0.030780
  29 H :    0.025898
  30 H :   -0.001858
  31 H :    0.017533
  32 H :    0.039315
  33 H :    0.052020
Sum of atomic charges:   -0.0000000

LOEWDIN ATOMIC CHARGES
----------------------
   0 S :    0.418074
   1 C :   -0.194902
   2 C :   -0.049211
   3 C :   -0.067487
   4 C :   -0.198382
   5 H :    0.024542
   6 C :   -0.022406
   7 H :    0.026127
   8 H :    0.033343
   9 C :   -0.040029
  10 H :    0.028552
  11 H :    0.015757
  12 C :   -0.066801
  13 H :    0.028252
  14 H :    0.025566
  15 H :    0.027335
  16 S :    0.358882
  17 C :   -0.160904
  18 C :   -0.071341
  19 C :   -0.063249
  20 C :   -0.175109
  21 H :    0.038175
  22 C :   -0.034180
  23 H :    0.036972
  24 H :    0.030463
  25 C :   -0.038570
  26 H :    0.031248
  27 H :    0.021495
  28 C :   -0.065197
  29 H :    0.031003
  30 H :    0.009690
  31 H :    0.020388
  32 H :    0.016992
  33 H :    0.024910

  Mayer bond orders larger than 0.100000
B(  0-S ,  1-C ) :   1.1481 B(  0-S ,  4-C ) :   1.1593 B(  1-C ,  2-C ) :   1.5789
B(  1-C , 32-H ) :   0.9773 B(  2-C ,  3-C ) :   1.2684 B(  2-C ,  6-C ) :   1.0288
B(  3-C ,  4-C ) :   1.5514 B(  3-C ,  5-H ) :   0.9877 B(  4-C , 20-C ) :   1.0500
B(  6-C ,  7-H ) :   0.9469 B(  6-C ,  8-H ) :   0.9347 B(  6-C ,  9-C ) :   1.0587
B(  9-C , 10-H ) :   0.9592 B(  9-C , 11-H ) :   0.9461 B(  9-C , 12-C ) :   1.0990
B( 12-C , 13-H ) :   0.9747 B( 12-C , 14-H ) :   0.9730 B( 12-C , 15-H ) :   0.9724
B( 16-S , 17-C ) :   1.1354 B( 16-S , 20-C ) :   1.0931 B( 17-C , 18-C ) :   1.6558
B( 17-C , 33-H ) :   0.9697 B( 18-C , 19-C ) :   1.1890 B( 18-C , 21-H ) :   0.9832
B( 19-C , 20-C ) :   1.6696 B( 19-C , 22-C ) :   1.0402 B( 22-C , 23-H ) :   0.9381
B( 22-C , 24-H ) :   0.9455 B( 22-C , 25-C ) :   1.0605 B( 25-C , 26-H ) :   0.9550
B( 25-C , 27-H ) :   0.9516 B( 25-C , 28-C ) :   1.0884 B( 28-C , 29-H ) :   0.9705
B( 28-C , 30-H ) :   0.9688 B( 28-C , 31-H ) :   0.9707

Dispersion correction           -0.013848180
FINAL SINGLE POINT ENERGY     -1339.867457780497

DIPOLE MOMENT
-------------
                                X             Y             Z
Electronic contribution:     13.72399      -5.83407      30.31125
Nuclear contribution   :    -14.16233       5.67104     -30.94861
                        -----------------------------------------
Total Dipole Moment    :     -0.43834      -0.16302      -0.63736
                        -----------------------------------------
Magnitude (a.u.)       :      0.79053
Magnitude (Debye)      :      2.00937

Rotational constants in cm-1:     0.017079     0.009478     0.006354
Rotational constants in MHz :   512.021229   284.155867   190.490622

                             ****ORCA TERMINATED NORMALLY****
TOTAL RUN TIME: 0 days 0 hours 0 minutes 22 seconds 740 msec
