                         Program Version 4.2.1 -  RELEASE  -
|  1> ! wB97X-D3 SP def2-SVP
|  2> %pal
|  3> nprocs 24
|  4> end
|  5>
|  6> * xyz 0 1
|  7> S 	 -30.1792 	 13.6836 	 5.25956
|  8> C 	 -31.7216 	 12.7647 	 5.07368
|  9> C 	 -32.6532 	 13.1114 	 6.03075
| 10> C 	 -32.1884 	 14.1615 	 6.84068
| 11> C 	 -30.8985 	 14.6156 	 6.55497
| 12> H 	 -32.7049 	 14.798 	 7.53281
| 13> C 	 -34.0141 	 12.4786 	 5.99414
| 14> H 	 -33.9033 	 11.3799 	 5.931
| 15> H 	 -34.5067 	 12.7239 	 5.05656
| 16> C 	 -35.1069 	 12.7912 	 7.07509
| 17> H 	 -34.5378 	 12.6459 	 8.01287
| 18> H 	 -35.3945 	 13.8039 	 6.90274
| 19> C 	 -36.2738 	 11.8661 	 7.02167
| 20> H 	 -37.1817 	 12.1998 	 7.54206
| 21> H 	 -36.6147 	 11.5812 	 5.97975
| 22> H 	 -36.0528 	 10.9215 	 7.42916
| 23> S 	 -29.752 	 16.9509 	 5.84571
| 24> C 	 -29.0074 	 17.9554 	 7.00345
| 25> C 	 -29.2439 	 17.5528 	 8.27204
| 26> C 	 -29.7982 	 16.2817 	 8.34967
| 27> C 	 -30.2086 	 15.7981 	 7.06995
| 28> H 	 -28.8628 	 18.1894 	 9.02325
| 29> C 	 -30.0191 	 15.5263 	 9.66721
| 30> H 	 -30.7619 	 14.7836 	 9.39559
| 31> H 	 -30.3356 	 16.1828 	 10.478
| 32> C 	 -28.7748 	 14.6666 	 10.0065
| 33> H 	 -27.9703 	 15.2974 	 10.199
| 34> H 	 -28.4739 	 14.0437 	 9.1698
| 35> C 	 -29.0583 	 13.7877 	 11.2759
| 36> H 	 -28.1963 	 13.4099 	 11.8659
| 37> H 	 -29.5671 	 12.8574 	 11.1941
| 38> H 	 -29.3235 	 14.5066 	 12.0272
| 39> H 	 -31.9669 	 12.0071 	 4.35795
| 40> H 	 -28.4362 	 18.8405 	 6.66155
| 41> *
| 42>
| 43>                          ****END OF INPUT****

CARTESIAN COORDINATES (ANGSTROEM)
---------------------------------
  S    -30.179200   13.683600    5.259560
  C    -31.721600   12.764700    5.073680
  C    -32.653200   13.111400    6.030750
  C    -32.188400   14.161500    6.840680
  C    -30.898500   14.615600    6.554970
  H    -32.704900   14.798000    7.532810
  C    -34.014100   12.478600    5.994140
  H    -33.903300   11.379900    5.931000
  H    -34.506700   12.723900    5.056560
  C    -35.106900   12.791200    7.075090
  H    -34.537800   12.645900    8.012870
  H    -35.394500   13.803900    6.902740
  C    -36.273800   11.866100    7.021670
  H    -37.181700   12.199800    7.542060
  H    -36.614700   11.581200    5.979750
  H    -36.052800   10.921500    7.429160
  S    -29.752000   16.950900    5.845710
  C    -29.007400   17.955400    7.003450
  C    -29.243900   17.552800    8.272040
  C    -29.798200   16.281700    8.349670
  C    -30.208600   15.798100    7.069950
  H    -28.862800   18.189400    9.023250
  C    -30.019100   15.526300    9.667210
  H    -30.761900   14.783600    9.395590
  H    -30.335600   16.182800   10.478000
  C    -28.774800   14.666600   10.006500
  H    -27.970300   15.297400   10.199000
  H    -28.473900   14.043700    9.169800
  C    -29.058300   13.787700   11.275900
  H    -28.196300   13.409900   11.865900
  H    -29.567100   12.857400   11.194100
  H    -29.323500   14.506600   12.027200
  H    -31.966900   12.007100    4.357950
  H    -28.436200   18.840500    6.661550

 Total Charge           Charge          ....    0
 Multiplicity           Mult            ....    1
 Number of Electrons    NEL             ....  134
 Basis Dimension        Dim             ....  322

ORBITAL ENERGIES
----------------

  NO   OCC          E(Eh)            E(eV)
   0   2.0000     -88.968775     -2420.9634
   1   2.0000     -88.962477     -2420.7921
   2   2.0000     -10.330123      -281.0969
   3   2.0000     -10.326177      -280.9896
   4   2.0000     -10.312972      -280.6302
   5   2.0000     -10.311343      -280.5859
   6   2.0000     -10.305560      -280.4285
   7   2.0000     -10.301726      -280.3242
   8   2.0000     -10.293220      -280.0928
   9   2.0000     -10.293186      -280.0918
  10   2.0000     -10.290256      -280.0121
  11   2.0000     -10.287965      -279.9497
  12   2.0000     -10.284240      -279.8484
  13   2.0000     -10.281666      -279.7783
  14   2.0000     -10.279324      -279.7146
  15   2.0000     -10.273186      -279.5476
  16   2.0000      -8.082328      -219.9313
  17   2.0000      -8.078465      -219.8262
  18   2.0000      -6.040844      -164.3797
  19   2.0000      -6.036950      -164.2738
  20   2.0000      -6.036625      -164.2649
  21   2.0000      -6.033186      -164.1713
  22   2.0000      -6.032698      -164.1581
  23   2.0000      -6.029603      -164.0738
  24   2.0000      -1.009374       -27.4665
  25   2.0000      -0.985248       -26.8100
  26   2.0000      -0.913841       -24.8669
  27   2.0000      -0.905475       -24.6392
  28   2.0000      -0.874618       -23.7996
  29   2.0000      -0.848977       -23.1018
  30   2.0000      -0.845644       -23.0111
  31   2.0000      -0.817062       -22.2334
  32   2.0000      -0.783889       -21.3307
  33   2.0000      -0.770412       -20.9640
  34   2.0000      -0.714624       -19.4459
  35   2.0000      -0.701352       -19.0848
  36   2.0000      -0.689088       -18.7510
  37   2.0000      -0.658726       -17.9249
  38   2.0000      -0.643561       -17.5122
  39   2.0000      -0.617305       -16.7977
  40   2.0000      -0.596640       -16.2354
  41   2.0000      -0.577130       -15.7045
  42   2.0000      -0.575124       -15.6499
  43   2.0000      -0.564588       -15.3632
  44   2.0000      -0.526055       -14.3147
  45   2.0000      -0.517062       -14.0700
  46   2.0000      -0.510393       -13.8885
  47   2.0000      -0.508567       -13.8388
  48   2.0000      -0.504098       -13.7172
  49   2.0000      -0.500247       -13.6124
  50   2.0000      -0.491499       -13.3744
  51   2.0000      -0.483080       -13.1453
  52   2.0000      -0.478980       -13.0337
  53   2.0000      -0.469757       -12.7827
  54   2.0000      -0.454532       -12.3685
  55   2.0000      -0.451547       -12.2872
  56   2.0000      -0.444304       -12.0901
  57   2.0000      -0.433520       -11.7967
  58   2.0000      -0.431416       -11.7394
  59   2.0000      -0.429359       -11.6834
  60   2.0000      -0.420671       -11.4470
  61   2.0000      -0.409925       -11.1546
  62   2.0000      -0.409108       -11.1324
  63   2.0000      -0.342481        -9.3194
  64   2.0000      -0.331746        -9.0273
  65   2.0000      -0.329810        -8.9746
  66   2.0000      -0.290147        -7.8953
  67   0.0000       0.027942         0.7603
  68   0.0000       0.067485         1.8364
  69   0.0000       0.113692         3.0937
  70   0.0000       0.121782         3.3139
  71   0.0000       0.135681         3.6921

MULLIKEN ATOMIC CHARGES
-----------------------
   0 S :    0.117725
   1 C :   -0.119824
   2 C :   -0.026434
   3 C :    0.043735
   4 C :   -0.180175
   5 H :    0.009788
   6 C :   -0.017791
   7 H :    0.031665
   8 H :    0.034281
   9 C :   -0.041401
  10 H :    0.038693
  11 H :    0.033187
  12 C :   -0.040005
  13 H :    0.038315
  14 H :    0.024300
  15 H :    0.016598
  16 S :    0.114900
  17 C :   -0.115432
  18 C :   -0.022511
  19 C :   -0.025018
  20 C :   -0.184716
  21 H :    0.002204
  22 C :    0.087197
  23 H :    0.016933
  24 H :    0.034033
  25 C :   -0.042001
  26 H :    0.009615
  27 H :    0.034353
  28 C :   -0.047369
  29 H :    0.012312
  30 H :    0.042979
  31 H :    0.017829
  32 H :    0.033741
  33 H :    0.068295
Sum of atomic charges:   -0.0000000

LOEWDIN ATOMIC CHARGES
----------------------
   0 S :    0.391519
   1 C :   -0.177797
   2 C :   -0.063428
   3 C :   -0.065037
   4 C :   -0.199142
   5 H :    0.030587
   6 C :   -0.038306
   7 H :    0.032619
   8 H :    0.031783
   9 C :   -0.039332
  10 H :    0.029839
  11 H :    0.021511
  12 C :   -0.068263
  13 H :    0.031067
  14 H :    0.029669
  15 H :    0.019497
  16 S :    0.434284
  17 C :   -0.196746
  18 C :   -0.078892
  19 C :   -0.048488
  20 C :   -0.213817
  21 H :    0.028672
  22 C :   -0.025588
  23 H :    0.031109
  24 H :    0.030537
  25 C :   -0.026341
  26 H :    0.013358
  27 H :    0.026937
  28 C :   -0.080910
  29 H :    0.030726
  30 H :    0.024569
  31 H :    0.025610
  32 H :    0.024356
  33 H :    0.033836

  Mayer bond orders larger than 0.100000
B(  0-S ,  1-C ) :   1.1268 B(  0-S ,  4-C ) :   1.1541 B(  1-C ,  2-C ) :   1.6176
B(  1-C ,  4-C ) :   0.1065 B(  1-C , 32-H ) :   0.9731 B(  2-C ,  3-C ) :   1.2378
B(  2-C ,  6-C ) :   1.0031 B(  3-C ,  4-C ) :   1.5706 B(  3-C ,  5-H ) :   0.9931
B(  4-C , 20-C ) :   1.0301 B(  6-C ,  7-H ) :   0.9455 B(  6-C ,  8-H ) :   0.9380
B(  6-C ,  9-C ) :   1.0667 B(  9-C , 10-H ) :   0.9568 B(  9-C , 11-H ) :   0.9530
B(  9-C , 12-C ) :   1.0900 B( 12-C , 13-H ) :   0.9721 B( 12-C , 14-H ) :   0.9716
B( 12-C , 15-H ) :   0.9707 B( 16-S , 17-C ) :   1.1871 B( 16-S , 20-C ) :   1.1717
B( 17-C , 18-C ) :   1.5702 B( 17-C , 20-C ) :   0.1085 B( 17-C , 33-H ) :   0.9629
B( 18-C , 19-C ) :   1.2653 B( 18-C , 21-H ) :   1.0049 B( 19-C , 20-C ) :   1.5399
B( 19-C , 22-C ) :   1.0402 B( 22-C , 23-H ) :   0.9291 B( 22-C , 24-H ) :   0.9417
B( 22-C , 25-C ) :   1.0618 B( 25-C , 26-H ) :   0.9576 B( 25-C , 27-H ) :   0.9583
B( 25-C , 28-C ) :   1.0748 B( 28-C , 29-H ) :   0.9687 B( 28-C , 30-H ) :   0.9799
B( 28-C , 31-H ) :   0.9690

Dispersion correction           -0.013406340
FINAL SINGLE POINT ENERGY     -1339.858255037000

DIPOLE MOMENT
-------------
                                X             Y             Z
Electronic contribution:     14.81285      13.24679     -19.11191
Nuclear contribution   :    -15.12348     -13.28234      19.48337
                        -----------------------------------------
Total Dipole Moment    :     -0.31063      -0.03555       0.37146
                        -----------------------------------------
Magnitude (a.u.)       :      0.48553
Magnitude (Debye)      :      1.23411

Rotational constants in cm-1:     0.017348     0.007953     0.006559
Rotational constants in MHz :   520.085892   238.432131   196.631193

                             ****ORCA TERMINATED NORMALLY****
TOTAL RUN TIME: 0 days 0 hours 0 minutes 20 seconds 956 msec
