                         Program Version 4.2.1 -  RELEASE  -
|  1> ! wB97X-D3 SP def2-SVP
|  2> %pal
|  3> nprocs 24
|  4> end
|  5>
|  6> * xyz 0 1
|  7> S 	 -108.865 	 57.7953 	 -96.2088
|  8> C 	 -107.244 	 58.0411 	 -95.6396
|  9> C 	 -106.383 	 57.0343 	 -96.1983
| 10> C 	 -107.113 	 56.0774 	 -96.9525
| 11> C 	 -108.489 	 56.2352 	 -96.9012
| 12> H 	 -106.72 	 55.2057 	 -97.3887
| 13> C 	 -104.894 	 56.9618 	 -95.9052
| 14> H 	 -104.587 	 55.9527 	 -96.0372
| 15> H 	 -104.69 	 57.1374 	 -94.8265
| 16> C 	 -104.004 	 57.7702 	 -96.8398
| 17> H 	 -102.984 	 57.4479 	 -96.695
| 18> H 	 -104.182 	 57.3991 	 -97.8998
| 19> C 	 -104.142 	 59.3028 	 -96.6287
| 20> H 	 -103.283 	 59.7632 	 -97.0502
| 21> H 	 -104.926 	 59.6681 	 -97.2154
| 22> H 	 -104.116 	 59.4818 	 -95.5604
| 23> S 	 -110.83 	 56.2811 	 -98.3831
| 24> C 	 -111.444 	 54.7718 	 -98.9625
| 25> C 	 -110.778 	 53.6875 	 -98.4467
| 26> C 	 -109.637 	 54.0455 	 -97.6655
| 27> C 	 -109.555 	 55.4212 	 -97.4807
| 28> H 	 -111.188 	 52.6739 	 -98.7408
| 29> C 	 -108.672 	 53.0054 	 -97.0426
| 30> H 	 -107.693 	 53.111 	 -97.5406
| 31> H 	 -108.995 	 52.0216 	 -97.3381
| 32> C 	 -108.545 	 52.9222 	 -95.5122
| 33> H 	 -109.609 	 52.6683 	 -95.1604
| 34> H 	 -108.232 	 53.9151 	 -95.2169
| 35> C 	 -107.456 	 51.9131 	 -95.0458
| 36> H 	 -106.469 	 52.1701 	 -95.1285
| 37> H 	 -107.354 	 50.8817 	 -95.5373
| 38> H 	 -107.626 	 51.6924 	 -94.0088
| 39> H 	 -106.815 	 58.8807 	 -94.9816
| 40> H 	 -112.184 	 54.6482 	 -99.6807
| 41> *
| 42>
| 43>                          ****END OF INPUT****

CARTESIAN COORDINATES (ANGSTROEM)
---------------------------------
  S    -108.865000   57.795300  -96.208800
  C    -107.244000   58.041100  -95.639600
  C    -106.383000   57.034300  -96.198300
  C    -107.113000   56.077400  -96.952500
  C    -108.489000   56.235200  -96.901200
  H    -106.720000   55.205700  -97.388700
  C    -104.894000   56.961800  -95.905200
  H    -104.587000   55.952700  -96.037200
  H    -104.690000   57.137400  -94.826500
  C    -104.004000   57.770200  -96.839800
  H    -102.984000   57.447900  -96.695000
  H    -104.182000   57.399100  -97.899800
  C    -104.142000   59.302800  -96.628700
  H    -103.283000   59.763200  -97.050200
  H    -104.926000   59.668100  -97.215400
  H    -104.116000   59.481800  -95.560400
  S    -110.830000   56.281100  -98.383100
  C    -111.444000   54.771800  -98.962500
  C    -110.778000   53.687500  -98.446700
  C    -109.637000   54.045500  -97.665500
  C    -109.555000   55.421200  -97.480700
  H    -111.188000   52.673900  -98.740800
  C    -108.672000   53.005400  -97.042600
  H    -107.693000   53.111000  -97.540600
  H    -108.995000   52.021600  -97.338100
  C    -108.545000   52.922200  -95.512200
  H    -109.609000   52.668300  -95.160400
  H    -108.232000   53.915100  -95.216900
  C    -107.456000   51.913100  -95.045800
  H    -106.469000   52.170100  -95.128500
  H    -107.354000   50.881700  -95.537300
  H    -107.626000   51.692400  -94.008800
  H    -106.815000   58.880700  -94.981600
  H    -112.184000   54.648200  -99.680700

 Total Charge           Charge          ....    0
 Multiplicity           Mult            ....    1
 Number of Electrons    NEL             ....  134
 Basis Dimension        Dim             ....  322

ORBITAL ENERGIES
----------------

  NO   OCC          E(Eh)            E(eV)
   0   2.0000     -88.967847     -2420.9382
   1   2.0000     -88.967244     -2420.9218
   2   2.0000     -10.330461      -281.1061
   3   2.0000     -10.330249      -281.1004
   4   2.0000     -10.321899      -280.8731
   5   2.0000     -10.311674      -280.5949
   6   2.0000     -10.308771      -280.5159
   7   2.0000     -10.304282      -280.3938
   8   2.0000     -10.298544      -280.2376
   9   2.0000     -10.294478      -280.1270
  10   2.0000     -10.293010      -280.0870
  11   2.0000     -10.291426      -280.0439
  12   2.0000     -10.289169      -279.9825
  13   2.0000     -10.288115      -279.9538
  14   2.0000     -10.276990      -279.6511
  15   2.0000     -10.270180      -279.4658
  16   2.0000      -8.082498      -219.9360
  17   2.0000      -8.081961      -219.9213
  18   2.0000      -6.040990      -164.3837
  19   2.0000      -6.040419      -164.3682
  20   2.0000      -6.037070      -164.2770
  21   2.0000      -6.036397      -164.2587
  22   2.0000      -6.033238      -164.1727
  23   2.0000      -6.032865      -164.1626
  24   2.0000      -1.006344       -27.3840
  25   2.0000      -0.982921       -26.7467
  26   2.0000      -0.910979       -24.7890
  27   2.0000      -0.904365       -24.6090
  28   2.0000      -0.865344       -23.5472
  29   2.0000      -0.852344       -23.1935
  30   2.0000      -0.845020       -22.9942
  31   2.0000      -0.812832       -22.1183
  32   2.0000      -0.787703       -21.4345
  33   2.0000      -0.776146       -21.1200
  34   2.0000      -0.710845       -19.3431
  35   2.0000      -0.697365       -18.9763
  36   2.0000      -0.689344       -18.7580
  37   2.0000      -0.659924       -17.9574
  38   2.0000      -0.636010       -17.3067
  39   2.0000      -0.620417       -16.8824
  40   2.0000      -0.591772       -16.1029
  41   2.0000      -0.567901       -15.4534
  42   2.0000      -0.563547       -15.3349
  43   2.0000      -0.552112       -15.0237
  44   2.0000      -0.541050       -14.7227
  45   2.0000      -0.524513       -14.2727
  46   2.0000      -0.514731       -14.0065
  47   2.0000      -0.511958       -13.9311
  48   2.0000      -0.501255       -13.6398
  49   2.0000      -0.497864       -13.5476
  50   2.0000      -0.494475       -13.4554
  51   2.0000      -0.478716       -13.0265
  52   2.0000      -0.473293       -12.8790
  53   2.0000      -0.465404       -12.6643
  54   2.0000      -0.456948       -12.4342
  55   2.0000      -0.448776       -12.2118
  56   2.0000      -0.440279       -11.9806
  57   2.0000      -0.436593       -11.8803
  58   2.0000      -0.431836       -11.7509
  59   2.0000      -0.426269       -11.5994
  60   2.0000      -0.419445       -11.4137
  61   2.0000      -0.415008       -11.2929
  62   2.0000      -0.410651       -11.1744
  63   2.0000      -0.353282        -9.6133
  64   2.0000      -0.336146        -9.1470
  65   2.0000      -0.329415        -8.9638
  66   2.0000      -0.281675        -7.6648
  67   0.0000       0.023383         0.6363
  68   0.0000       0.067022         1.8238
  69   0.0000       0.104360         2.8398
  70   0.0000       0.118850         3.2341
  71   0.0000       0.138321         3.7639

MULLIKEN ATOMIC CHARGES
-----------------------
   0 S :    0.108898
   1 C :   -0.130645
   2 C :   -0.113294
   3 C :    0.059243
   4 C :   -0.159116
   5 H :   -0.018693
   6 C :    0.056829
   7 H :    0.002301
   8 H :    0.035929
   9 C :   -0.094985
  10 H :    0.019887
  11 H :    0.029530
  12 C :    0.005796
  13 H :    0.017071
  14 H :    0.037474
  15 H :    0.027243
  16 S :    0.104489
  17 C :   -0.063205
  18 C :   -0.060146
  19 C :   -0.039135
  20 C :   -0.122144
  21 H :    0.039423
  22 C :    0.047354
  23 H :    0.032578
  24 H :    0.001368
  25 C :   -0.053220
  26 H :    0.050003
  27 H :    0.044541
  28 C :   -0.042290
  29 H :    0.009374
  30 H :    0.024545
  31 H :    0.032801
  32 H :    0.080030
  33 H :    0.030166
Sum of atomic charges:   -0.0000000

LOEWDIN ATOMIC CHARGES
----------------------
   0 S :    0.415576
   1 C :   -0.222720
   2 C :   -0.061274
   3 C :   -0.063144
   4 C :   -0.190972
   5 H :    0.021147
   6 C :   -0.037602
   7 H :    0.024335
   8 H :    0.033775
   9 C :   -0.040534
  10 H :    0.018171
  11 H :    0.029693
  12 C :   -0.057140
  13 H :    0.023922
  14 H :    0.023410
  15 H :    0.025376
  16 S :    0.399741
  17 C :   -0.179620
  18 C :   -0.077480
  19 C :   -0.055238
  20 C :   -0.187939
  21 H :    0.043924
  22 C :   -0.035576
  23 H :    0.028387
  24 H :    0.023227
  25 C :   -0.033822
  26 H :    0.037749
  27 H :    0.026167
  28 C :   -0.071443
  29 H :    0.012807
  30 H :    0.032889
  31 H :    0.027989
  32 H :    0.048969
  33 H :    0.017248

  Mayer bond orders larger than 0.100000
B(  0-S ,  1-C ) :   1.1537 B(  0-S ,  4-C ) :   1.1613 B(  1-C ,  2-C ) :   1.5653
B(  1-C ,  4-C ) :   0.1103 B(  1-C , 32-H ) :   0.9582 B(  2-C ,  3-C ) :   1.2789
B(  2-C ,  6-C ) :   1.0186 B(  3-C ,  4-C ) :   1.5345 B(  3-C ,  5-H ) :   0.9980
B(  4-C , 20-C ) :   1.0544 B(  6-C ,  7-H ) :   0.9343 B(  6-C ,  8-H ) :   0.9475
B(  6-C ,  9-C ) :   1.0848 B(  9-C , 10-H ) :   0.9576 B(  9-C , 11-H ) :   0.9526
B(  9-C , 12-C ) :   1.0685 B( 12-C , 13-H ) :   0.9710 B( 12-C , 14-H ) :   0.9746
B( 12-C , 15-H ) :   0.9749 B( 16-S , 17-C ) :   1.1544 B( 16-S , 20-C ) :   1.1304
B( 17-C , 18-C ) :   1.6302 B( 17-C , 33-H ) :   0.9707 B( 18-C , 19-C ) :   1.2363
B( 18-C , 21-H ) :   0.9803 B( 19-C , 20-C ) :   1.6031 B( 19-C , 22-C ) :   1.0284
B( 22-C , 23-H ) :   0.9336 B( 22-C , 24-H ) :   0.9327 B( 22-C , 25-C ) :   1.0607
B( 25-C , 26-H ) :   0.9580 B( 25-C , 27-H ) :   0.9534 B( 25-C , 28-C ) :   1.0665
B( 28-C , 29-H ) :   0.9745 B( 28-C , 30-H ) :   0.9740 B( 28-C , 31-H ) :   0.9755

Dispersion correction           -0.014580852
FINAL SINGLE POINT ENERGY     -1339.863016391610

DIPOLE MOMENT
-------------
                                X             Y             Z
Electronic contribution:    -24.01078      10.13262      -7.78266
Nuclear contribution   :     24.57832     -10.59680       7.74781
                        -----------------------------------------
Total Dipole Moment    :      0.56755      -0.46418      -0.03485
                        -----------------------------------------
Magnitude (a.u.)       :      0.73402
Magnitude (Debye)      :      1.86573

Rotational constants in cm-1:     0.018712     0.008835     0.006748
Rotational constants in MHz :   560.968447   264.879212   202.289895

                             ****ORCA TERMINATED NORMALLY****
TOTAL RUN TIME: 0 days 0 hours 0 minutes 21 seconds 694 msec
