                         Program Version 4.2.1 -  RELEASE  -
|  1> ! wB97X-D3 SP def2-SVP
|  2> %pal
|  3> nprocs 24
|  4> end
|  5>
|  6> * xyz 0 1
|  7> S 	 -107.892 	 71.8904 	 -8.2166
|  8> C 	 -107.6 	 73.3128 	 -9.11783
|  9> C 	 -108.148 	 73.3573 	 -10.352
| 10> C 	 -108.88 	 72.1566 	 -10.6239
| 11> C 	 -108.662 	 71.2206 	 -9.65358
| 12> H 	 -109.378 	 71.9915 	 -11.5881
| 13> C 	 -107.981 	 74.3918 	 -11.3475
| 14> H 	 -108.041 	 75.2969 	 -10.7914
| 15> H 	 -108.838 	 74.3052 	 -12.0865
| 16> C 	 -106.559 	 74.4436 	 -11.9528
| 17> H 	 -105.866 	 74.4298 	 -11.0888
| 18> H 	 -106.371 	 73.597 	 -12.5985
| 19> C 	 -106.176 	 75.6264 	 -12.867
| 20> H 	 -106.136 	 76.6091 	 -12.2927
| 21> H 	 -105.19 	 75.4805 	 -13.2096
| 22> H 	 -106.879 	 75.7891 	 -13.7051
| 23> S 	 -110.714 	 69.5423 	 -8.94606
| 24> C 	 -110.664 	 67.8645 	 -9.31418
| 25> C 	 -109.631 	 67.6346 	 -10.2159
| 26> C 	 -108.889 	 68.8106 	 -10.537
| 27> C 	 -109.216 	 69.9039 	 -9.7151
| 28> H 	 -109.528 	 66.7209 	 -10.6045
| 29> C 	 -107.628 	 68.8167 	 -11.364
| 30> H 	 -107.073 	 67.9646 	 -11.1552
| 31> H 	 -106.906 	 69.6234 	 -11.1164
| 32> C 	 -107.801 	 68.9956 	 -12.89
| 33> H 	 -106.831 	 68.8885 	 -13.406
| 34> H 	 -108.155 	 69.9719 	 -13.051
| 35> C 	 -108.763 	 67.9086 	 -13.3595
| 36> H 	 -108.444 	 66.846 	 -13.1176
| 37> H 	 -108.84 	 67.9605 	 -14.455
| 38> H 	 -109.747 	 68.1179 	 -12.9518
| 39> H 	 -106.908 	 74.0692 	 -8.66238
| 40> H 	 -111.406 	 67.0929 	 -9.03342
| 41> *
| 42>
| 43>                          ****END OF INPUT****

CARTESIAN COORDINATES (ANGSTROEM)
---------------------------------
  S    -107.892000   71.890400   -8.216600
  C    -107.600000   73.312800   -9.117830
  C    -108.148000   73.357300  -10.352000
  C    -108.880000   72.156600  -10.623900
  C    -108.662000   71.220600   -9.653580
  H    -109.378000   71.991500  -11.588100
  C    -107.981000   74.391800  -11.347500
  H    -108.041000   75.296900  -10.791400
  H    -108.838000   74.305200  -12.086500
  C    -106.559000   74.443600  -11.952800
  H    -105.866000   74.429800  -11.088800
  H    -106.371000   73.597000  -12.598500
  C    -106.176000   75.626400  -12.867000
  H    -106.136000   76.609100  -12.292700
  H    -105.190000   75.480500  -13.209600
  H    -106.879000   75.789100  -13.705100
  S    -110.714000   69.542300   -8.946060
  C    -110.664000   67.864500   -9.314180
  C    -109.631000   67.634600  -10.215900
  C    -108.889000   68.810600  -10.537000
  C    -109.216000   69.903900   -9.715100
  H    -109.528000   66.720900  -10.604500
  C    -107.628000   68.816700  -11.364000
  H    -107.073000   67.964600  -11.155200
  H    -106.906000   69.623400  -11.116400
  C    -107.801000   68.995600  -12.890000
  H    -106.831000   68.888500  -13.406000
  H    -108.155000   69.971900  -13.051000
  C    -108.763000   67.908600  -13.359500
  H    -108.444000   66.846000  -13.117600
  H    -108.840000   67.960500  -14.455000
  H    -109.747000   68.117900  -12.951800
  H    -106.908000   74.069200   -8.662380
  H    -111.406000   67.092900   -9.033420

 Total Charge           Charge          ....    0
 Multiplicity           Mult            ....    1
 Number of Electrons    NEL             ....  134
 Basis Dimension        Dim             ....  322

ORBITAL ENERGIES
----------------

  NO   OCC          E(Eh)            E(eV)
   0   2.0000     -88.967980     -2420.9418
   1   2.0000     -88.960042     -2420.7258
   2   2.0000     -10.324630      -280.9475
   3   2.0000     -10.318286      -280.7748
   4   2.0000     -10.314535      -280.6728
   5   2.0000     -10.310243      -280.5560
   6   2.0000     -10.300108      -280.2802
   7   2.0000     -10.294986      -280.1408
   8   2.0000     -10.291734      -280.0523
   9   2.0000     -10.291437      -280.0442
  10   2.0000     -10.290697      -280.0241
  11   2.0000     -10.283409      -279.8258
  12   2.0000     -10.283025      -279.8153
  13   2.0000     -10.279581      -279.7216
  14   2.0000     -10.277703      -279.6705
  15   2.0000     -10.276112      -279.6272
  16   2.0000      -8.083491      -219.9630
  17   2.0000      -8.075818      -219.7542
  18   2.0000      -6.041870      -164.4076
  19   2.0000      -6.038097      -164.3050
  20   2.0000      -6.034159      -164.1978
  21   2.0000      -6.034139      -164.1973
  22   2.0000      -6.030075      -164.0867
  23   2.0000      -6.026794      -163.9974
  24   2.0000      -1.013904       -27.5897
  25   2.0000      -0.991207       -26.9721
  26   2.0000      -0.918244       -24.9867
  27   2.0000      -0.908704       -24.7271
  28   2.0000      -0.873434       -23.7673
  29   2.0000      -0.857397       -23.3309
  30   2.0000      -0.842228       -22.9182
  31   2.0000      -0.816800       -22.2262
  32   2.0000      -0.782816       -21.3015
  33   2.0000      -0.768089       -20.9008
  34   2.0000      -0.706738       -19.2313
  35   2.0000      -0.701354       -19.0848
  36   2.0000      -0.689128       -18.7521
  37   2.0000      -0.662594       -18.0301
  38   2.0000      -0.644327       -17.5330
  39   2.0000      -0.622661       -16.9435
  40   2.0000      -0.594123       -16.1669
  41   2.0000      -0.574575       -15.6350
  42   2.0000      -0.562698       -15.3118
  43   2.0000      -0.551241       -15.0000
  44   2.0000      -0.541988       -14.7482
  45   2.0000      -0.528160       -14.3720
  46   2.0000      -0.523700       -14.2506
  47   2.0000      -0.513071       -13.9614
  48   2.0000      -0.507230       -13.8024
  49   2.0000      -0.491303       -13.3690
  50   2.0000      -0.487623       -13.2689
  51   2.0000      -0.483273       -13.1505
  52   2.0000      -0.474724       -12.9179
  53   2.0000      -0.467897       -12.7321
  54   2.0000      -0.459935       -12.5155
  55   2.0000      -0.450861       -12.2686
  56   2.0000      -0.440480       -11.9861
  57   2.0000      -0.435748       -11.8573
  58   2.0000      -0.433801       -11.8043
  59   2.0000      -0.429666       -11.6918
  60   2.0000      -0.419870       -11.4253
  61   2.0000      -0.418280       -11.3820
  62   2.0000      -0.402703       -10.9581
  63   2.0000      -0.340954        -9.2778
  64   2.0000      -0.324655        -8.8343
  65   2.0000      -0.321109        -8.7378
  66   2.0000      -0.303662        -8.2631
  67   0.0000       0.038812         1.0561
  68   0.0000       0.059238         1.6120
  69   0.0000       0.112885         3.0718
  70   0.0000       0.117778         3.2049
  71   0.0000       0.134176         3.6511

MULLIKEN ATOMIC CHARGES
-----------------------
   0 S :    0.131718
   1 C :   -0.158024
   2 C :   -0.072831
   3 C :    0.034018
   4 C :   -0.176539
   5 H :    0.026993
   6 C :    0.098511
   7 H :    0.012422
   8 H :    0.033788
   9 C :   -0.091397
  10 H :    0.030043
  11 H :    0.026754
  12 C :   -0.046395
  13 H :    0.028896
  14 H :    0.030470
  15 H :    0.038885
  16 S :    0.117381
  17 C :   -0.103998
  18 C :    0.007165
  19 C :   -0.007729
  20 C :   -0.169795
  21 H :   -0.037061
  22 C :    0.043978
  23 H :    0.009060
  24 H :    0.029976
  25 C :   -0.038666
  26 H :    0.030379
  27 H :    0.010885
  28 C :   -0.083843
  29 H :    0.038200
  30 H :    0.028981
  31 H :    0.047731
  32 H :    0.060244
  33 H :    0.069802
Sum of atomic charges:    0.0000000

LOEWDIN ATOMIC CHARGES
----------------------
   0 S :    0.420146
   1 C :   -0.209904
   2 C :   -0.072353
   3 C :   -0.045436
   4 C :   -0.196448
   5 H :    0.036731
   6 C :   -0.036291
   7 H :    0.030553
   8 H :    0.037098
   9 C :   -0.036566
  10 H :    0.027759
  11 H :    0.021976
  12 C :   -0.067636
  13 H :    0.027205
  14 H :    0.021488
  15 H :    0.027202
  16 S :    0.431333
  17 C :   -0.202202
  18 C :   -0.059188
  19 C :   -0.055112
  20 C :   -0.211217
  21 H :    0.007138
  22 C :   -0.032788
  23 H :    0.018033
  24 H :    0.034553
  25 C :   -0.031842
  26 H :    0.026068
  27 H :    0.013396
  28 C :   -0.072092
  29 H :    0.028975
  30 H :    0.022531
  31 H :    0.025651
  32 H :    0.031792
  33 H :    0.039447

  Mayer bond orders larger than 0.100000
B(  0-S ,  1-C ) :   1.1436 B(  0-S ,  4-C ) :   1.1446 B(  1-C ,  2-C ) :   1.6223
B(  1-C , 32-H ) :   0.9563 B(  2-C ,  3-C ) :   1.2340 B(  2-C ,  6-C ) :   1.0388
B(  3-C ,  4-C ) :   1.5919 B(  3-C ,  5-H ) :   0.9897 B(  4-C , 20-C ) :   1.0325
B(  6-C ,  7-H ) :   0.9205 B(  6-C ,  8-H ) :   0.9364 B(  6-C ,  9-C ) :   1.0605
B(  9-C , 10-H ) :   0.9545 B(  9-C , 11-H ) :   0.9574 B(  9-C , 12-C ) :   1.0872
B( 12-C , 13-H ) :   0.9738 B( 12-C , 14-H ) :   0.9734 B( 12-C , 15-H ) :   0.9747
B( 16-S , 17-C ) :   1.1714 B( 16-S , 20-C ) :   1.1721 B( 17-C , 18-C ) :   1.5706
B( 17-C , 20-C ) :   0.1069 B( 17-C , 33-H ) :   0.9659 B( 18-C , 19-C ) :   1.2513
B( 18-C , 21-H ) :   1.0140 B( 19-C , 20-C ) :   1.5541 B( 19-C , 22-C ) :   1.0347
B( 22-C , 23-H ) :   0.9477 B( 22-C , 24-H ) :   0.9394 B( 22-C , 25-C ) :   1.0723
B( 25-C , 26-H ) :   0.9549 B( 25-C , 27-H ) :   0.9519 B( 25-C , 28-C ) :   1.0859
B( 28-C , 29-H ) :   0.9743 B( 28-C , 30-H ) :   0.9727 B( 28-C , 31-H ) :   0.9675

Dispersion correction           -0.014826929
FINAL SINGLE POINT ENERGY     -1339.866334507193

DIPOLE MOMENT
-------------
                                X             Y             Z
Electronic contribution:    -12.11356      -6.59976      25.27610
Nuclear contribution   :     12.41609       6.76034     -25.84175
                        -----------------------------------------
Total Dipole Moment    :      0.30253       0.16059      -0.56565
                        -----------------------------------------
Magnitude (a.u.)       :      0.66126
Magnitude (Debye)      :      1.68080

Rotational constants in cm-1:     0.020098     0.008693     0.006708
Rotational constants in MHz :   602.511836   260.622363   201.085988

                             ****ORCA TERMINATED NORMALLY****
TOTAL RUN TIME: 0 days 0 hours 0 minutes 21 seconds 81 msec
