                         Program Version 4.2.1 -  RELEASE  -
|  1> ! wB97X-D3 SP def2-SVP
|  2> %pal
|  3> nprocs 24
|  4> end
|  5>
|  6> * xyz 0 1
|  7> S 	 -109.741 	 40.7972 	 -11.6346
|  8> C 	 -110.06 	 42.4835 	 -11.7884
|  9> C 	 -110.476 	 43.0429 	 -10.6364
| 10> C 	 -110.376 	 42.1081 	 -9.55911
| 11> C 	 -109.888 	 40.8955 	 -9.92389
| 12> H 	 -110.639 	 42.1937 	 -8.51506
| 13> C 	 -110.879 	 44.4736 	 -10.4055
| 14> H 	 -110.213 	 45.0025 	 -11.1098
| 15> H 	 -110.725 	 44.7581 	 -9.37706
| 16> C 	 -112.406 	 44.8835 	 -10.698
| 17> H 	 -112.603 	 45.8203 	 -10.2349
| 18> H 	 -112.593 	 45.103 	 -11.7464
| 19> C 	 -113.309 	 43.7563 	 -10.1366
| 20> H 	 -112.959 	 43.4272 	 -9.1527
| 21> H 	 -114.326 	 44.0718 	 -10.2534
| 22> H 	 -113.272 	 42.816 	 -10.7636
| 23> S 	 -110.278 	 38.1974 	 -9.83242
| 24> C 	 -110.216 	 37.4196 	 -8.20413
| 25> C 	 -109.627 	 38.218 	 -7.28951
| 26> C 	 -109.465 	 39.5736 	 -7.72758
| 27> C 	 -109.935 	 39.7835 	 -9.04805
| 28> H 	 -109.281 	 37.7455 	 -6.39761
| 29> C 	 -108.736 	 40.5864 	 -6.8742
| 30> H 	 -108.698 	 41.5314 	 -7.45365
| 31> H 	 -107.744 	 40.2271 	 -6.88321
| 32> C 	 -109.302 	 40.7914 	 -5.4674
| 33> H 	 -108.683 	 41.5189 	 -4.95988
| 34> H 	 -109.387 	 39.7962 	 -4.90264
| 35> C 	 -110.678 	 41.3983 	 -5.56604
| 36> H 	 -111.304 	 41.2337 	 -4.70092
| 37> H 	 -111.359 	 40.9924 	 -6.29286
| 38> H 	 -110.537 	 42.5172 	 -5.68942
| 39> H 	 -109.771 	 43.0634 	 -12.6744
| 40> H 	 -110.465 	 36.4447 	 -8.03225
| 41> *
| 42>
| 43>                          ****END OF INPUT****

CARTESIAN COORDINATES (ANGSTROEM)
---------------------------------
  S    -109.741000   40.797200  -11.634600
  C    -110.060000   42.483500  -11.788400
  C    -110.476000   43.042900  -10.636400
  C    -110.376000   42.108100   -9.559110
  C    -109.888000   40.895500   -9.923890
  H    -110.639000   42.193700   -8.515060
  C    -110.879000   44.473600  -10.405500
  H    -110.213000   45.002500  -11.109800
  H    -110.725000   44.758100   -9.377060
  C    -112.406000   44.883500  -10.698000
  H    -112.603000   45.820300  -10.234900
  H    -112.593000   45.103000  -11.746400
  C    -113.309000   43.756300  -10.136600
  H    -112.959000   43.427200   -9.152700
  H    -114.326000   44.071800  -10.253400
  H    -113.272000   42.816000  -10.763600
  S    -110.278000   38.197400   -9.832420
  C    -110.216000   37.419600   -8.204130
  C    -109.627000   38.218000   -7.289510
  C    -109.465000   39.573600   -7.727580
  C    -109.935000   39.783500   -9.048050
  H    -109.281000   37.745500   -6.397610
  C    -108.736000   40.586400   -6.874200
  H    -108.698000   41.531400   -7.453650
  H    -107.744000   40.227100   -6.883210
  C    -109.302000   40.791400   -5.467400
  H    -108.683000   41.518900   -4.959880
  H    -109.387000   39.796200   -4.902640
  C    -110.678000   41.398300   -5.566040
  H    -111.304000   41.233700   -4.700920
  H    -111.359000   40.992400   -6.292860
  H    -110.537000   42.517200   -5.689420
  H    -109.771000   43.063400  -12.674400
  H    -110.465000   36.444700   -8.032250

 Total Charge           Charge          ....    0
 Multiplicity           Mult            ....    1
 Number of Electrons    NEL             ....  134
 Basis Dimension        Dim             ....  322

ORBITAL ENERGIES
----------------

  NO   OCC          E(Eh)            E(eV)
   0   2.0000     -88.964484     -2420.8467
   1   2.0000     -88.960821     -2420.7470
   2   2.0000     -10.329645      -281.0839
   3   2.0000     -10.319155      -280.7985
   4   2.0000     -10.311460      -280.5891
   5   2.0000     -10.309241      -280.5287
   6   2.0000     -10.306371      -280.4506
   7   2.0000     -10.297330      -280.2046
   8   2.0000     -10.293774      -280.1078
   9   2.0000     -10.293202      -280.0923
  10   2.0000     -10.291037      -280.0334
  11   2.0000     -10.288619      -279.9675
  12   2.0000     -10.287735      -279.9435
  13   2.0000     -10.286181      -279.9012
  14   2.0000     -10.277352      -279.6610
  15   2.0000     -10.276473      -279.6371
  16   2.0000      -8.080558      -219.8832
  17   2.0000      -8.074476      -219.7177
  18   2.0000      -6.039093      -164.3321
  19   2.0000      -6.035083      -164.2230
  20   2.0000      -6.033170      -164.1709
  21   2.0000      -6.031002      -164.1119
  22   2.0000      -6.029572      -164.0730
  23   2.0000      -6.024681      -163.9399
  24   2.0000      -1.015467       -27.6323
  25   2.0000      -0.981466       -26.7070
  26   2.0000      -0.913518       -24.8581
  27   2.0000      -0.907682       -24.6993
  28   2.0000      -0.876705       -23.8564
  29   2.0000      -0.851056       -23.1584
  30   2.0000      -0.841606       -22.9013
  31   2.0000      -0.818883       -22.2829
  32   2.0000      -0.780440       -21.2369
  33   2.0000      -0.771834       -21.0027
  34   2.0000      -0.710671       -19.3383
  35   2.0000      -0.706764       -19.2320
  36   2.0000      -0.696915       -18.9640
  37   2.0000      -0.661549       -18.0017
  38   2.0000      -0.641766       -17.4633
  39   2.0000      -0.611727       -16.6459
  40   2.0000      -0.596798       -16.2397
  41   2.0000      -0.572426       -15.5765
  42   2.0000      -0.557954       -15.1827
  43   2.0000      -0.553684       -15.0665
  44   2.0000      -0.546525       -14.8717
  45   2.0000      -0.541925       -14.7465
  46   2.0000      -0.522734       -14.2243
  47   2.0000      -0.511970       -13.9314
  48   2.0000      -0.504721       -13.7342
  49   2.0000      -0.492003       -13.3881
  50   2.0000      -0.490524       -13.3478
  51   2.0000      -0.475536       -12.9400
  52   2.0000      -0.470298       -12.7975
  53   2.0000      -0.464857       -12.6494
  54   2.0000      -0.457949       -12.4614
  55   2.0000      -0.449655       -12.2357
  56   2.0000      -0.442300       -12.0356
  57   2.0000      -0.433619       -11.7994
  58   2.0000      -0.429763       -11.6944
  59   2.0000      -0.423866       -11.5340
  60   2.0000      -0.420178       -11.4336
  61   2.0000      -0.417041       -11.3482
  62   2.0000      -0.411144       -11.1878
  63   2.0000      -0.361956        -9.8493
  64   2.0000      -0.333154        -9.0656
  65   2.0000      -0.323914        -8.8142
  66   2.0000      -0.279959        -7.6181
  67   0.0000       0.023332         0.6349
  68   0.0000       0.066950         1.8218
  69   0.0000       0.098132         2.6703
  70   0.0000       0.119845         3.2612
  71   0.0000       0.130826         3.5600

MULLIKEN ATOMIC CHARGES
-----------------------
   0 S :    0.101633
   1 C :   -0.132697
   2 C :   -0.057865
   3 C :   -0.019618
   4 C :   -0.106720
   5 H :   -0.000666
   6 C :    0.052720
   7 H :    0.028876
   8 H :    0.026110
   9 C :   -0.047860
  10 H :    0.023831
  11 H :    0.024048
  12 C :   -0.062593
  13 H :    0.032777
  14 H :    0.033594
  15 H :    0.048467
  16 S :    0.060594
  17 C :   -0.048448
  18 C :   -0.018682
  19 C :   -0.081931
  20 C :   -0.133737
  21 H :    0.015832
  22 C :    0.088863
  23 H :    0.020693
  24 H :    0.029743
  25 C :   -0.060977
  26 H :    0.035229
  27 H :    0.045127
  28 C :   -0.076720
  29 H :    0.024324
  30 H :    0.042503
  31 H :    0.039069
  32 H :    0.055488
  33 H :    0.018995
Sum of atomic charges:   -0.0000000

LOEWDIN ATOMIC CHARGES
----------------------
   0 S :    0.417369
   1 C :   -0.203345
   2 C :   -0.065456
   3 C :   -0.064375
   4 C :   -0.203568
   5 H :    0.027460
   6 C :   -0.028954
   7 H :    0.033737
   8 H :    0.027745
   9 C :   -0.031509
  10 H :    0.018252
  11 H :    0.020868
  12 C :   -0.068872
  13 H :    0.024592
  14 H :    0.022233
  15 H :    0.036276
  16 S :    0.343206
  17 C :   -0.142653
  18 C :   -0.066118
  19 C :   -0.054849
  20 C :   -0.168481
  21 H :    0.031553
  22 C :   -0.032627
  23 H :    0.033057
  24 H :    0.029944
  25 C :   -0.041381
  26 H :    0.027257
  27 H :    0.031320
  28 C :   -0.076552
  29 H :    0.025489
  30 H :    0.023696
  31 H :    0.031890
  32 H :    0.033835
  33 H :    0.008958

  Mayer bond orders larger than 0.100000
B(  0-S ,  1-C ) :   1.1323 B(  0-S ,  4-C ) :   1.1367 B(  1-C ,  2-C ) :   1.6204
B(  1-C , 32-H ) :   0.9622 B(  2-C ,  3-C ) :   1.2187 B(  2-C ,  6-C ) :   1.0218
B(  3-C ,  4-C ) :   1.5664 B(  3-C ,  5-H ) :   0.9975 B(  4-C , 20-C ) :   1.0995
B(  6-C ,  7-H ) :   0.9422 B(  6-C ,  8-H ) :   0.9460 B(  6-C ,  9-C ) :   1.0613
B(  9-C , 10-H ) :   0.9621 B(  9-C , 11-H ) :   0.9564 B(  9-C , 12-C ) :   1.0792
B( 12-C , 13-H ) :   0.9771 B( 12-C , 14-H ) :   0.9744 B( 12-C , 15-H ) :   0.9658
B( 16-S , 17-C ) :   1.1202 B( 16-S , 20-C ) :   1.1055 B( 17-C , 18-C ) :   1.6586
B( 17-C , 33-H ) :   0.9781 B( 18-C , 19-C ) :   1.1981 B( 18-C , 21-H ) :   0.9937
B( 19-C , 20-C ) :   1.5875 B( 19-C , 22-C ) :   1.0387 B( 22-C , 23-H ) :   0.9306
B( 22-C , 24-H ) :   0.9272 B( 22-C , 25-C ) :   1.0679 B( 25-C , 26-H ) :   0.9554
B( 25-C , 27-H ) :   0.9560 B( 25-C , 28-C ) :   1.0770 B( 28-C , 29-H ) :   0.9694
B( 28-C , 30-H ) :   0.9677 B( 28-C , 31-H ) :   0.9721

Dispersion correction           -0.015261660
FINAL SINGLE POINT ENERGY     -1339.856810019141

DIPOLE MOMENT
-------------
                                X             Y             Z
Electronic contribution:      8.35305     -19.41546     -16.09253
Nuclear contribution   :     -8.31024      19.82976      16.60494
                        -----------------------------------------
Total Dipole Moment    :      0.04280       0.41430       0.51241
                        -----------------------------------------
Magnitude (a.u.)       :      0.66033
Magnitude (Debye)      :      1.67844

Rotational constants in cm-1:     0.018761     0.009727     0.007429
Rotational constants in MHz :   562.449725   291.594590   222.712465

                             ****ORCA TERMINATED NORMALLY****
TOTAL RUN TIME: 0 days 0 hours 0 minutes 22 seconds 923 msec
