                         Program Version 4.2.1 -  RELEASE  -
|  1> ! wB97X-D3 SP def2-SVP
|  2> %pal
|  3> nprocs 24
|  4> end
|  5>
|  6> * xyz 0 1
|  7> S 	 -88.509 	 -26.3866 	 -60.2197
|  8> C 	 -88.1893 	 -24.9674 	 -59.263
|  9> C 	 -88.2905 	 -25.1674 	 -57.8797
| 10> C 	 -88.6167 	 -26.5285 	 -57.5505
| 11> C 	 -88.8956 	 -27.2188 	 -58.7218
| 12> H 	 -88.7435 	 -26.9839 	 -56.5941
| 13> C 	 -87.9896 	 -24.0833 	 -56.8464
| 14> H 	 -87.4521 	 -23.2896 	 -57.4124
| 15> H 	 -87.3342 	 -24.5173 	 -56.2487
| 16> C 	 -89.2947 	 -23.4531 	 -56.3083
| 17> H 	 -89.0185 	 -22.4913 	 -55.869
| 18> H 	 -89.9693 	 -23.2697 	 -57.16
| 19> C 	 -89.8842 	 -24.3314 	 -55.2185
| 20> H 	 -90.0821 	 -25.3873 	 -55.5384
| 21> H 	 -89.2048 	 -24.3956 	 -54.4022
| 22> H 	 -90.7425 	 -23.8746 	 -54.8526
| 23> S 	 -88.5338 	 -29.7822 	 -59.5829
| 24> C 	 -89.6101 	 -30.9751 	 -58.9725
| 25> C 	 -90.7068 	 -30.4996 	 -58.3696
| 26> C 	 -90.5989 	 -29.0782 	 -58.1475
| 27> C 	 -89.4371 	 -28.5503 	 -58.6798
| 28> H 	 -91.5598 	 -31.1104 	 -58.0856
| 29> C 	 -91.6979 	 -28.3125 	 -57.4711
| 30> H 	 -92.1619 	 -27.7027 	 -58.2793
| 31> H 	 -91.2456 	 -27.7414 	 -56.6588
| 32> C 	 -92.9278 	 -29.1116 	 -56.762
| 33> H 	 -93.2666 	 -28.4845 	 -55.9032
| 34> H 	 -92.6102 	 -29.9528 	 -56.1666
| 35> C 	 -94.0696 	 -29.4998 	 -57.6529
| 36> H 	 -94.3743 	 -28.6367 	 -58.1399
| 37> H 	 -95.0039 	 -29.7091 	 -57.0755
| 38> H 	 -93.701 	 -30.2643 	 -58.3588
| 39> H 	 -87.9485 	 -24.0269 	 -59.7118
| 40> H 	 -89.482 	 -32.0104 	 -59.1565
| 41> *
| 42>
| 43>                          ****END OF INPUT****

CARTESIAN COORDINATES (ANGSTROEM)
---------------------------------
  S    -88.509000  -26.386600  -60.219700
  C    -88.189300  -24.967400  -59.263000
  C    -88.290500  -25.167400  -57.879700
  C    -88.616700  -26.528500  -57.550500
  C    -88.895600  -27.218800  -58.721800
  H    -88.743500  -26.983900  -56.594100
  C    -87.989600  -24.083300  -56.846400
  H    -87.452100  -23.289600  -57.412400
  H    -87.334200  -24.517300  -56.248700
  C    -89.294700  -23.453100  -56.308300
  H    -89.018500  -22.491300  -55.869000
  H    -89.969300  -23.269700  -57.160000
  C    -89.884200  -24.331400  -55.218500
  H    -90.082100  -25.387300  -55.538400
  H    -89.204800  -24.395600  -54.402200
  H    -90.742500  -23.874600  -54.852600
  S    -88.533800  -29.782200  -59.582900
  C    -89.610100  -30.975100  -58.972500
  C    -90.706800  -30.499600  -58.369600
  C    -90.598900  -29.078200  -58.147500
  C    -89.437100  -28.550300  -58.679800
  H    -91.559800  -31.110400  -58.085600
  C    -91.697900  -28.312500  -57.471100
  H    -92.161900  -27.702700  -58.279300
  H    -91.245600  -27.741400  -56.658800
  C    -92.927800  -29.111600  -56.762000
  H    -93.266600  -28.484500  -55.903200
  H    -92.610200  -29.952800  -56.166600
  C    -94.069600  -29.499800  -57.652900
  H    -94.374300  -28.636700  -58.139900
  H    -95.003900  -29.709100  -57.075500
  H    -93.701000  -30.264300  -58.358800
  H    -87.948500  -24.026900  -59.711800
  H    -89.482000  -32.010400  -59.156500

 Total Charge           Charge          ....    0
 Multiplicity           Mult            ....    1
 Number of Electrons    NEL             ....  134
 Basis Dimension        Dim             ....  322

ORBITAL ENERGIES
----------------

  NO   OCC          E(Eh)            E(eV)
   0   2.0000     -88.968918     -2420.9673
   1   2.0000     -88.959350     -2420.7070
   2   2.0000     -10.324278      -280.9379
   3   2.0000     -10.318431      -280.7788
   4   2.0000     -10.308627      -280.5120
   5   2.0000     -10.306041      -280.4416
   6   2.0000     -10.301149      -280.3085
   7   2.0000     -10.300492      -280.2906
   8   2.0000     -10.298403      -280.2338
   9   2.0000     -10.292075      -280.0616
  10   2.0000     -10.290762      -280.0259
  11   2.0000     -10.288332      -279.9597
  12   2.0000     -10.287317      -279.9321
  13   2.0000     -10.281718      -279.7798
  14   2.0000     -10.277116      -279.6545
  15   2.0000     -10.271903      -279.5127
  16   2.0000      -8.083583      -219.9655
  17   2.0000      -8.074924      -219.7298
  18   2.0000      -6.041976      -164.4105
  19   2.0000      -6.038327      -164.3112
  20   2.0000      -6.034274      -164.2009
  21   2.0000      -6.033429      -164.1779
  22   2.0000      -6.029511      -164.0713
  23   2.0000      -6.025466      -163.9613
  24   2.0000      -1.006363       -27.3845
  25   2.0000      -0.982659       -26.7395
  26   2.0000      -0.914144       -24.8751
  27   2.0000      -0.903564       -24.5872
  28   2.0000      -0.870467       -23.6866
  29   2.0000      -0.854943       -23.2642
  30   2.0000      -0.848311       -23.0837
  31   2.0000      -0.816631       -22.2217
  32   2.0000      -0.784929       -21.3590
  33   2.0000      -0.767649       -20.8888
  34   2.0000      -0.706553       -19.2263
  35   2.0000      -0.705414       -19.1953
  36   2.0000      -0.694244       -18.8913
  37   2.0000      -0.658534       -17.9196
  38   2.0000      -0.643441       -17.5089
  39   2.0000      -0.613236       -16.6870
  40   2.0000      -0.596959       -16.2441
  41   2.0000      -0.570141       -15.5143
  42   2.0000      -0.555370       -15.1124
  43   2.0000      -0.548313       -14.9204
  44   2.0000      -0.541154       -14.7255
  45   2.0000      -0.534985       -14.5577
  46   2.0000      -0.527240       -14.3469
  47   2.0000      -0.517782       -14.0896
  48   2.0000      -0.501506       -13.6467
  49   2.0000      -0.494506       -13.4562
  50   2.0000      -0.489699       -13.3254
  51   2.0000      -0.483860       -13.1665
  52   2.0000      -0.468568       -12.7504
  53   2.0000      -0.463382       -12.6093
  54   2.0000      -0.462499       -12.5852
  55   2.0000      -0.449487       -12.2312
  56   2.0000      -0.447435       -12.1753
  57   2.0000      -0.445538       -12.1237
  58   2.0000      -0.439650       -11.9635
  59   2.0000      -0.420868       -11.4524
  60   2.0000      -0.418173       -11.3791
  61   2.0000      -0.413873       -11.2621
  62   2.0000      -0.406818       -11.0701
  63   2.0000      -0.343034        -9.3344
  64   2.0000      -0.331961        -9.0331
  65   2.0000      -0.326776        -8.8920
  66   2.0000      -0.285996        -7.7823
  67   0.0000       0.035143         0.9563
  68   0.0000       0.066879         1.8199
  69   0.0000       0.109119         2.9693
  70   0.0000       0.125155         3.4056
  71   0.0000       0.129124         3.5136

MULLIKEN ATOMIC CHARGES
-----------------------
   0 S :    0.126099
   1 C :   -0.113214
   2 C :   -0.120937
   3 C :    0.026386
   4 C :   -0.149184
   5 H :    0.015175
   6 C :    0.119202
   7 H :    0.013714
   8 H :   -0.005513
   9 C :   -0.056910
  10 H :    0.029209
  11 H :    0.037951
  12 C :   -0.016586
  13 H :    0.032745
  14 H :    0.015468
  15 H :    0.019170
  16 S :    0.095944
  17 C :   -0.047731
  18 C :   -0.040624
  19 C :   -0.037354
  20 C :   -0.188610
  21 H :    0.020124
  22 C :    0.054645
  23 H :    0.054393
  24 H :    0.040085
  25 C :   -0.119146
  26 H :    0.023457
  27 H :    0.020300
  28 C :   -0.006565
  29 H :    0.008074
  30 H :    0.039396
  31 H :    0.042420
  32 H :    0.034072
  33 H :    0.034345
Sum of atomic charges:   -0.0000000

LOEWDIN ATOMIC CHARGES
----------------------
   0 S :    0.404924
   1 C :   -0.206288
   2 C :   -0.049763
   3 C :   -0.058567
   4 C :   -0.189874
   5 H :    0.029249
   6 C :   -0.017868
   7 H :    0.033503
   8 H :    0.008191
   9 C :   -0.031446
  10 H :    0.023952
  11 H :    0.029224
  12 C :   -0.059602
  13 H :    0.027749
  14 H :    0.021185
  15 H :    0.016904
  16 S :    0.394868
  17 C :   -0.177933
  18 C :   -0.076661
  19 C :   -0.054511
  20 C :   -0.196896
  21 H :    0.033295
  22 C :   -0.030214
  23 H :    0.043487
  24 H :    0.033951
  25 C :   -0.051440
  26 H :    0.028884
  27 H :    0.017622
  28 C :   -0.067213
  29 H :    0.015710
  30 H :    0.037437
  31 H :    0.029054
  32 H :    0.018822
  33 H :    0.020264

  Mayer bond orders larger than 0.100000
B(  0-S ,  1-C ) :   1.1237 B(  0-S ,  4-C ) :   1.1558 B(  1-C ,  2-C ) :   1.6284
B(  1-C , 32-H ) :   0.9673 B(  2-C ,  3-C ) :   1.2156 B(  2-C ,  6-C ) :   1.0139
B(  3-C ,  4-C ) :   1.5706 B(  3-C ,  5-H ) :   0.9952 B(  4-C , 20-C ) :   1.0555
B(  6-C ,  7-H ) :   0.9377 B(  6-C ,  8-H ) :   0.9418 B(  6-C ,  9-C ) :   1.0593
B(  9-C , 10-H ) :   0.9549 B(  9-C , 11-H ) :   0.9541 B(  9-C , 12-C ) :   1.0844
B( 12-C , 13-H ) :   0.9717 B( 12-C , 14-H ) :   0.9716 B( 12-C , 15-H ) :   0.9697
B( 16-S , 17-C ) :   1.1548 B( 16-S , 20-C ) :   1.1173 B( 17-C , 18-C ) :   1.6347
B( 17-C , 33-H ) :   0.9630 B( 18-C , 19-C ) :   1.2225 B( 18-C , 21-H ) :   0.9836
B( 19-C , 20-C ) :   1.6331 B( 19-C , 22-C ) :   1.0264 B( 22-C , 23-H ) :   0.9354
B( 22-C , 24-H ) :   0.9336 B( 22-C , 25-C ) :   1.0679 B( 25-C , 26-H ) :   0.9554
B( 25-C , 27-H ) :   0.9524 B( 25-C , 28-C ) :   1.0831 B( 28-C , 29-H ) :   0.9678
B( 28-C , 30-H ) :   0.9667 B( 28-C , 31-H ) :   0.9748

Dispersion correction           -0.014640251
FINAL SINGLE POINT ENERGY     -1339.857037841411

DIPOLE MOMENT
-------------
                                X             Y             Z
Electronic contribution:     17.95899      -9.40913     -20.39446
Nuclear contribution   :    -18.38833       9.65717      20.95240
                        -----------------------------------------
Total Dipole Moment    :     -0.42934       0.24803       0.55793
                        -----------------------------------------
Magnitude (a.u.)       :      0.74642
Magnitude (Debye)      :      1.89726

Rotational constants in cm-1:     0.017223     0.009528     0.006857
Rotational constants in MHz :   516.320048   285.627592   205.581586

                             ****ORCA TERMINATED NORMALLY****
TOTAL RUN TIME: 0 days 0 hours 0 minutes 22 seconds 153 msec
