                         Program Version 4.2.1 -  RELEASE  -
|  1> ! wB97X-D3 SP def2-SVP
|  2> %pal
|  3> nprocs 24
|  4> end
|  5>
|  6> * xyz 0 1
|  7> S 	 11.9124 	 -14.7605 	 -118.1
|  8> C 	 10.2634 	 -14.6207 	 -118.648
|  9> C 	 9.5569 	 -15.634 	 -118.116
| 10> C 	 10.2681 	 -16.4812 	 -117.227
| 11> C 	 11.6033 	 -16.2309 	 -117.209
| 12> H 	 9.88079 	 -17.2504 	 -116.614
| 13> C 	 8.07306 	 -15.8007 	 -118.347
| 14> H 	 7.86065 	 -16.8498 	 -118.384
| 15> H 	 8.00824 	 -15.4548 	 -119.344
| 16> C 	 7.26201 	 -15.0123 	 -117.377
| 17> H 	 7.7692 	 -15.1661 	 -116.389
| 18> H 	 7.34237 	 -13.8943 	 -117.459
| 19> C 	 5.67057 	 -15.1929 	 -117.328
| 20> H 	 5.1419 	 -14.7136 	 -118.191
| 21> H 	 5.50908 	 -16.2364 	 -117.492
| 22> H 	 5.21282 	 -14.93 	 -116.349
| 23> S 	 13.0992 	 -16.0563 	 -114.892
| 24> C 	 14.3371 	 -17.2814 	 -114.569
| 25> C 	 14.3762 	 -18.2252 	 -115.566
| 26> C 	 13.4626 	 -17.9786 	 -116.587
| 27> C 	 12.7058 	 -16.7958 	 -116.451
| 28> H 	 15.077 	 -19.0026 	 -115.466
| 29> C 	 13.2703 	 -18.9061 	 -117.805
| 30> H 	 12.1838 	 -19.0055 	 -118.028
| 31> H 	 13.6623 	 -19.8907 	 -117.663
| 32> C 	 13.8768 	 -18.2632 	 -119.118
| 33> H 	 14.9305 	 -18.1785 	 -119.159
| 34> H 	 13.4969 	 -17.2593 	 -119.204
| 35> C 	 13.4434 	 -19.1197 	 -120.336
| 36> H 	 13.903 	 -18.6263 	 -121.162
| 37> H 	 12.3425 	 -18.984 	 -120.373
| 38> H 	 13.8527 	 -20.1777 	 -120.289
| 39> H 	 9.82946 	 -13.8371 	 -119.244
| 40> H 	 14.8813 	 -17.4266 	 -113.702
| 41> *
| 42>
| 43>                          ****END OF INPUT****

CARTESIAN COORDINATES (ANGSTROEM)
---------------------------------
  S     11.912400  -14.760500  -118.100000
  C     10.263400  -14.620700  -118.648000
  C      9.556900  -15.634000  -118.116000
  C     10.268100  -16.481200  -117.227000
  C     11.603300  -16.230900  -117.209000
  H      9.880790  -17.250400  -116.614000
  C      8.073060  -15.800700  -118.347000
  H      7.860650  -16.849800  -118.384000
  H      8.008240  -15.454800  -119.344000
  C      7.262010  -15.012300  -117.377000
  H      7.769200  -15.166100  -116.389000
  H      7.342370  -13.894300  -117.459000
  C      5.670570  -15.192900  -117.328000
  H      5.141900  -14.713600  -118.191000
  H      5.509080  -16.236400  -117.492000
  H      5.212820  -14.930000  -116.349000
  S     13.099200  -16.056300  -114.892000
  C     14.337100  -17.281400  -114.569000
  C     14.376200  -18.225200  -115.566000
  C     13.462600  -17.978600  -116.587000
  C     12.705800  -16.795800  -116.451000
  H     15.077000  -19.002600  -115.466000
  C     13.270300  -18.906100  -117.805000
  H     12.183800  -19.005500  -118.028000
  H     13.662300  -19.890700  -117.663000
  C     13.876800  -18.263200  -119.118000
  H     14.930500  -18.178500  -119.159000
  H     13.496900  -17.259300  -119.204000
  C     13.443400  -19.119700  -120.336000
  H     13.903000  -18.626300  -121.162000
  H     12.342500  -18.984000  -120.373000
  H     13.852700  -20.177700  -120.289000
  H      9.829460  -13.837100  -119.244000
  H     14.881300  -17.426600  -113.702000

 Total Charge           Charge          ....    0
 Multiplicity           Mult            ....    1
 Number of Electrons    NEL             ....  134
 Basis Dimension        Dim             ....  322

ORBITAL ENERGIES
----------------

  NO   OCC          E(Eh)            E(eV)
   0   2.0000     -88.966588     -2420.9039
   1   2.0000     -88.962277     -2420.7866
   2   2.0000     -10.328404      -281.0501
   3   2.0000     -10.326962      -281.0109
   4   2.0000     -10.313996      -280.6581
   5   2.0000     -10.310978      -280.5760
   6   2.0000     -10.305068      -280.4151
   7   2.0000     -10.294750      -280.1344
   8   2.0000     -10.294085      -280.1163
   9   2.0000     -10.291417      -280.0437
  10   2.0000     -10.291116      -280.0355
  11   2.0000     -10.287836      -279.9463
  12   2.0000     -10.285816      -279.8913
  13   2.0000     -10.284445      -279.8540
  14   2.0000     -10.277115      -279.6545
  15   2.0000     -10.276625      -279.6412
  16   2.0000      -8.080485      -219.8812
  17   2.0000      -8.077250      -219.7931
  18   2.0000      -6.038946      -164.3281
  19   2.0000      -6.035738      -164.2408
  20   2.0000      -6.035035      -164.2217
  21   2.0000      -6.031627      -164.1289
  22   2.0000      -6.031411      -164.1230
  23   2.0000      -6.028077      -164.0323
  24   2.0000      -1.011670       -27.5289
  25   2.0000      -0.987304       -26.8659
  26   2.0000      -0.915585       -24.9143
  27   2.0000      -0.898790       -24.4573
  28   2.0000      -0.872233       -23.7347
  29   2.0000      -0.846411       -23.0320
  30   2.0000      -0.843632       -22.9564
  31   2.0000      -0.822475       -22.3807
  32   2.0000      -0.783058       -21.3081
  33   2.0000      -0.764964       -20.8157
  34   2.0000      -0.712032       -19.3754
  35   2.0000      -0.701256       -19.0822
  36   2.0000      -0.689700       -18.7677
  37   2.0000      -0.663780       -18.0624
  38   2.0000      -0.650377       -17.6977
  39   2.0000      -0.623729       -16.9725
  40   2.0000      -0.593718       -16.1559
  41   2.0000      -0.576215       -15.6796
  42   2.0000      -0.565883       -15.3985
  43   2.0000      -0.554912       -15.0999
  44   2.0000      -0.529355       -14.4045
  45   2.0000      -0.520937       -14.1754
  46   2.0000      -0.517025       -14.0690
  47   2.0000      -0.516078       -14.0432
  48   2.0000      -0.511759       -13.9257
  49   2.0000      -0.498929       -13.5766
  50   2.0000      -0.492730       -13.4079
  51   2.0000      -0.480574       -13.0771
  52   2.0000      -0.470924       -12.8145
  53   2.0000      -0.466801       -12.7023
  54   2.0000      -0.459891       -12.5143
  55   2.0000      -0.452676       -12.3179
  56   2.0000      -0.441739       -12.0203
  57   2.0000      -0.435697       -11.8559
  58   2.0000      -0.431424       -11.7396
  59   2.0000      -0.424065       -11.5394
  60   2.0000      -0.413068       -11.2402
  61   2.0000      -0.409133       -11.1331
  62   2.0000      -0.405596       -11.0368
  63   2.0000      -0.341437        -9.2910
  64   2.0000      -0.329601        -8.9689
  65   2.0000      -0.325022        -8.8443
  66   2.0000      -0.307907        -8.3786
  67   0.0000       0.040162         1.0929
  68   0.0000       0.051261         1.3949
  69   0.0000       0.119838         3.2610
  70   0.0000       0.127447         3.4680
  71   0.0000       0.131382         3.5751

MULLIKEN ATOMIC CHARGES
-----------------------
   0 S :    0.103712
   1 C :   -0.104642
   2 C :   -0.148242
   3 C :    0.077550
   4 C :   -0.181222
   5 H :   -0.000667
   6 C :    0.149560
   7 H :    0.015640
   8 H :    0.004474
   9 C :   -0.113377
  10 H :    0.031626
  11 H :    0.032504
  12 C :   -0.046359
  13 H :    0.042489
  14 H :    0.014954
  15 H :    0.051073
  16 S :    0.114361
  17 C :   -0.059522
  18 C :   -0.035410
  19 C :    0.017913
  20 C :   -0.173119
  21 H :   -0.000093
  22 C :    0.074981
  23 H :    0.026580
  24 H :    0.010856
  25 C :   -0.080761
  26 H :    0.018913
  27 H :    0.023008
  28 C :   -0.054312
  29 H :    0.026102
  30 H :    0.042307
  31 H :    0.046202
  32 H :    0.044189
  33 H :    0.028733
Sum of atomic charges:   -0.0000000

LOEWDIN ATOMIC CHARGES
----------------------
   0 S :    0.410881
   1 C :   -0.191373
   2 C :   -0.066959
   3 C :   -0.054588
   4 C :   -0.194692
   5 H :    0.029145
   6 C :   -0.029754
   7 H :    0.027909
   8 H :    0.024725
   9 C :   -0.051865
  10 H :    0.029292
  11 H :    0.029103
  12 C :   -0.072414
  13 H :    0.030918
  14 H :    0.016264
  15 H :    0.033953
  16 S :    0.401053
  17 C :   -0.162838
  18 C :   -0.068491
  19 C :   -0.045947
  20 C :   -0.211322
  21 H :    0.027323
  22 C :   -0.026961
  23 H :    0.033364
  24 H :    0.021220
  25 C :   -0.032123
  26 H :    0.014247
  27 H :    0.016914
  28 C :   -0.067585
  29 H :    0.020650
  30 H :    0.029433
  31 H :    0.031773
  32 H :    0.032017
  33 H :    0.016727

  Mayer bond orders larger than 0.100000
B(  0-S ,  1-C ) :   1.1330 B(  0-S ,  4-C ) :   1.1561 B(  1-C ,  2-C ) :   1.6311
B(  1-C , 32-H ) :   0.9719 B(  2-C ,  3-C ) :   1.2174 B(  2-C ,  6-C ) :   1.0147
B(  3-C ,  4-C ) :   1.6029 B(  3-C ,  5-H ) :   1.0087 B(  4-C , 20-C ) :   0.9927
B(  6-C ,  7-H ) :   0.9327 B(  6-C ,  8-H ) :   0.9284 B(  6-C ,  9-C ) :   1.0621
B(  9-C , 10-H ) :   0.9587 B(  9-C , 11-H ) :   0.9571 B(  9-C , 12-C ) :   1.0587
B( 12-C , 13-H ) :   0.9768 B( 12-C , 14-H ) :   0.9781 B( 12-C , 15-H ) :   0.9765
B( 16-S , 17-C ) :   1.1641 B( 16-S , 20-C ) :   1.1476 B( 17-C , 18-C ) :   1.5963
B( 17-C , 20-C ) :   0.1137 B( 17-C , 33-H ) :   0.9710 B( 18-C , 19-C ) :   1.2665
B( 18-C , 21-H ) :   1.0022 B( 19-C , 20-C ) :   1.5655 B( 19-C , 22-C ) :   1.0435
B( 22-C , 23-H ) :   0.9355 B( 22-C , 24-H ) :   0.9403 B( 22-C , 25-C ) :   1.0556
B( 25-C , 26-H ) :   0.9579 B( 25-C , 27-H ) :   0.9558 B( 25-C , 28-C ) :   1.0826
B( 28-C , 29-H ) :   0.9740 B( 28-C , 30-H ) :   0.9768 B( 28-C , 31-H ) :   0.9737

Dispersion correction           -0.014286504
FINAL SINGLE POINT ENERGY     -1339.867199264810

DIPOLE MOMENT
-------------
                                X             Y             Z
Electronic contribution:     15.85178       9.31644      12.84225
Nuclear contribution   :    -16.13513      -9.70335     -12.91918
                        -----------------------------------------
Total Dipole Moment    :     -0.28335      -0.38691      -0.07693
                        -----------------------------------------
Magnitude (a.u.)       :      0.48570
Magnitude (Debye)      :      1.23454

Rotational constants in cm-1:     0.019490     0.007976     0.006744
Rotational constants in MHz :   584.288968   239.118397   202.182782

                             ****ORCA TERMINATED NORMALLY****
TOTAL RUN TIME: 0 days 0 hours 0 minutes 21 seconds 413 msec
