                         Program Version 4.2.1 -  RELEASE  -
|  1> ! wB97X-D3 SP def2-SVP
|  2> %pal
|  3> nprocs 24
|  4> end
|  5>
|  6> * xyz 0 1
|  7> S 	 -38.5388 	 -51.3352 	 -73.4334
|  8> C 	 -38.0857 	 -50.171 	 -74.6829
|  9> C 	 -37.6759 	 -48.9646 	 -74.1846
| 10> C 	 -37.534 	 -49.0291 	 -72.7774
| 11> C 	 -38.0621 	 -50.1649 	 -72.1803
| 12> H 	 -36.9848 	 -48.2579 	 -72.2272
| 13> C 	 -37.3238 	 -47.7133 	 -74.971
| 14> H 	 -36.7388 	 -48.0671 	 -75.7907
| 15> H 	 -36.5757 	 -47.1507 	 -74.3853
| 16> C 	 -38.3852 	 -46.8534 	 -75.4138
| 17> H 	 -37.9101 	 -46.174 	 -76.1653
| 18> H 	 -39.053 	 -47.3923 	 -76.0958
| 19> C 	 -39.0671 	 -45.9215 	 -74.4296
| 20> H 	 -39.433 	 -46.4414 	 -73.5414
| 21> H 	 -38.332 	 -45.251 	 -74.0122
| 22> H 	 -39.8452 	 -45.3738 	 -74.8966
| 23> S 	 -37.4736 	 -52.1653 	 -70.2783
| 24> C 	 -37.709 	 -51.8309 	 -68.6299
| 25> C 	 -38.1041 	 -50.502 	 -68.4681
| 26> C 	 -38.149 	 -49.7377 	 -69.6618
| 27> C 	 -38.006 	 -50.5137 	 -70.7862
| 28> H 	 -38.3938 	 -50.1248 	 -67.53
| 29> C 	 -38.6482 	 -48.3062 	 -69.5446
| 30> H 	 -37.8778 	 -47.587 	 -69.8121
| 31> H 	 -38.5906 	 -47.9465 	 -68.5116
| 32> C 	 -40.0915 	 -48.0823 	 -70.0477
| 33> H 	 -40.8434 	 -48.8101 	 -69.7773
| 34> H 	 -40.0669 	 -48.3093 	 -71.145
| 35> C 	 -40.7138 	 -46.6957 	 -69.7545
| 36> H 	 -40.1819 	 -45.8101 	 -70.1464
| 37> H 	 -40.9116 	 -46.4006 	 -68.7657
| 38> H 	 -41.6611 	 -46.6288 	 -70.3342
| 39> H 	 -38.2481 	 -50.2187 	 -75.7348
| 40> H 	 -37.7546 	 -52.6267 	 -67.8423
| 41> *
| 42>
| 43>                          ****END OF INPUT****

CARTESIAN COORDINATES (ANGSTROEM)
---------------------------------
  S    -38.538800  -51.335200  -73.433400
  C    -38.085700  -50.171000  -74.682900
  C    -37.675900  -48.964600  -74.184600
  C    -37.534000  -49.029100  -72.777400
  C    -38.062100  -50.164900  -72.180300
  H    -36.984800  -48.257900  -72.227200
  C    -37.323800  -47.713300  -74.971000
  H    -36.738800  -48.067100  -75.790700
  H    -36.575700  -47.150700  -74.385300
  C    -38.385200  -46.853400  -75.413800
  H    -37.910100  -46.174000  -76.165300
  H    -39.053000  -47.392300  -76.095800
  C    -39.067100  -45.921500  -74.429600
  H    -39.433000  -46.441400  -73.541400
  H    -38.332000  -45.251000  -74.012200
  H    -39.845200  -45.373800  -74.896600
  S    -37.473600  -52.165300  -70.278300
  C    -37.709000  -51.830900  -68.629900
  C    -38.104100  -50.502000  -68.468100
  C    -38.149000  -49.737700  -69.661800
  C    -38.006000  -50.513700  -70.786200
  H    -38.393800  -50.124800  -67.530000
  C    -38.648200  -48.306200  -69.544600
  H    -37.877800  -47.587000  -69.812100
  H    -38.590600  -47.946500  -68.511600
  C    -40.091500  -48.082300  -70.047700
  H    -40.843400  -48.810100  -69.777300
  H    -40.066900  -48.309300  -71.145000
  C    -40.713800  -46.695700  -69.754500
  H    -40.181900  -45.810100  -70.146400
  H    -40.911600  -46.400600  -68.765700
  H    -41.661100  -46.628800  -70.334200
  H    -38.248100  -50.218700  -75.734800
  H    -37.754600  -52.626700  -67.842300

 Total Charge           Charge          ....    0
 Multiplicity           Mult            ....    1
 Number of Electrons    NEL             ....  134
 Basis Dimension        Dim             ....  322

ORBITAL ENERGIES
----------------

  NO   OCC          E(Eh)            E(eV)
   0   2.0000     -88.970566     -2421.0122
   1   2.0000     -88.963417     -2420.8176
   2   2.0000     -10.331065      -281.1226
   3   2.0000     -10.328289      -281.0470
   4   2.0000     -10.317645      -280.7574
   5   2.0000     -10.311376      -280.5868
   6   2.0000     -10.301143      -280.3084
   7   2.0000     -10.294985      -280.1408
   8   2.0000     -10.293343      -280.0961
   9   2.0000     -10.293271      -280.0941
  10   2.0000     -10.290440      -280.0171
  11   2.0000     -10.287717      -279.9430
  12   2.0000     -10.287656      -279.9413
  13   2.0000     -10.284091      -279.8444
  14   2.0000     -10.277395      -279.6621
  15   2.0000     -10.274204      -279.5753
  16   2.0000      -8.084210      -219.9825
  17   2.0000      -8.078340      -219.8228
  18   2.0000      -6.042943      -164.4368
  19   2.0000      -6.038928      -164.3276
  20   2.0000      -6.036871      -164.2716
  21   2.0000      -6.034733      -164.2134
  22   2.0000      -6.032731      -164.1590
  23   2.0000      -6.029151      -164.0615
  24   2.0000      -1.005600       -27.3638
  25   2.0000      -0.984578       -26.7917
  26   2.0000      -0.924682       -25.1619
  27   2.0000      -0.904387       -24.6096
  28   2.0000      -0.871042       -23.7023
  29   2.0000      -0.852941       -23.2097
  30   2.0000      -0.844935       -22.9919
  31   2.0000      -0.811446       -22.0806
  32   2.0000      -0.789938       -21.4953
  33   2.0000      -0.779892       -21.2219
  34   2.0000      -0.713461       -19.4143
  35   2.0000      -0.705182       -19.1890
  36   2.0000      -0.697696       -18.9853
  37   2.0000      -0.662863       -18.0374
  38   2.0000      -0.632694       -17.2165
  39   2.0000      -0.617229       -16.7957
  40   2.0000      -0.599618       -16.3164
  41   2.0000      -0.575496       -15.6600
  42   2.0000      -0.565317       -15.3831
  43   2.0000      -0.547399       -14.8955
  44   2.0000      -0.538553       -14.6548
  45   2.0000      -0.531478       -14.4622
  46   2.0000      -0.512980       -13.9589
  47   2.0000      -0.510732       -13.8977
  48   2.0000      -0.501487       -13.6462
  49   2.0000      -0.500074       -13.6077
  50   2.0000      -0.496460       -13.5094
  51   2.0000      -0.477689       -12.9986
  52   2.0000      -0.473910       -12.8957
  53   2.0000      -0.469788       -12.7836
  54   2.0000      -0.459129       -12.4935
  55   2.0000      -0.452584       -12.3154
  56   2.0000      -0.450599       -12.2614
  57   2.0000      -0.441389       -12.0108
  58   2.0000      -0.432725       -11.7750
  59   2.0000      -0.426421       -11.6035
  60   2.0000      -0.419307       -11.4099
  61   2.0000      -0.402832       -10.9616
  62   2.0000      -0.393796       -10.7157
  63   2.0000      -0.352303        -9.5866
  64   2.0000      -0.333967        -9.0877
  65   2.0000      -0.330729        -8.9996
  66   2.0000      -0.285521        -7.7694
  67   0.0000       0.019658         0.5349
  68   0.0000       0.076183         2.0731
  69   0.0000       0.105548         2.8721
  70   0.0000       0.122166         3.3243
  71   0.0000       0.124675         3.3926

MULLIKEN ATOMIC CHARGES
-----------------------
   0 S :    0.110361
   1 C :   -0.091856
   2 C :   -0.113140
   3 C :    0.009598
   4 C :   -0.146732
   5 H :    0.017634
   6 C :    0.087337
   7 H :    0.017004
   8 H :    0.011769
   9 C :   -0.062328
  10 H :    0.021723
  11 H :    0.016471
  12 C :   -0.007673
  13 H :    0.032115
  14 H :    0.016671
  15 H :    0.033756
  16 S :    0.100934
  17 C :   -0.100981
  18 C :   -0.024842
  19 C :   -0.021535
  20 C :   -0.145632
  21 H :   -0.001639
  22 C :    0.076203
  23 H :    0.018060
  24 H :   -0.003522
  25 C :   -0.057123
  26 H :    0.031261
  27 H :    0.040753
  28 C :   -0.051955
  29 H :    0.020989
  30 H :    0.026323
  31 H :    0.032020
  32 H :    0.027747
  33 H :    0.080229
Sum of atomic charges:    0.0000000

LOEWDIN ATOMIC CHARGES
----------------------
   0 S :    0.390576
   1 C :   -0.186390
   2 C :   -0.064399
   3 C :   -0.057734
   4 C :   -0.186683
   5 H :    0.032552
   6 C :   -0.033731
   7 H :    0.033235
   8 H :    0.031586
   9 C :   -0.049998
  10 H :    0.031914
  11 H :    0.023361
  12 C :   -0.057631
  13 H :    0.026219
  14 H :    0.024295
  15 H :    0.025340
  16 S :    0.401701
  17 C :   -0.208603
  18 C :   -0.066752
  19 C :   -0.055798
  20 C :   -0.182153
  21 H :    0.020916
  22 C :   -0.041672
  23 H :    0.032594
  24 H :    0.029557
  25 C :   -0.042168
  26 H :    0.029613
  27 H :    0.032028
  28 C :   -0.072753
  29 H :    0.024888
  30 H :    0.016152
  31 H :    0.034598
  32 H :    0.023033
  33 H :    0.042310

  Mayer bond orders larger than 0.100000
B(  0-S ,  1-C ) :   1.1258 B(  0-S ,  4-C ) :   1.1283 B(  1-C ,  2-C ) :   1.6458
B(  1-C , 32-H ) :   0.9592 B(  2-C ,  3-C ) :   1.2493 B(  2-C ,  6-C ) :   1.0051
B(  3-C ,  4-C ) :   1.5626 B(  3-C ,  5-H ) :   0.9857 B(  4-C , 20-C ) :   1.0924
B(  6-C ,  7-H ) :   0.9255 B(  6-C ,  8-H ) :   0.9360 B(  6-C ,  9-C ) :   1.1041
B(  9-C , 10-H ) :   0.9416 B(  9-C , 11-H ) :   0.9467 B(  9-C , 12-C ) :   1.0782
B( 12-C , 13-H ) :   0.9763 B( 12-C , 14-H ) :   0.9687 B( 12-C , 15-H ) :   0.9714
B( 16-S , 17-C ) :   1.1690 B( 16-S , 20-C ) :   1.1270 B( 17-C , 18-C ) :   1.5757
B( 17-C , 20-C ) :   0.1010 B( 17-C , 33-H ) :   0.9601 B( 18-C , 19-C ) :   1.2636
B( 18-C , 21-H ) :   0.9969 B( 19-C , 20-C ) :   1.5778 B( 19-C , 22-C ) :   1.0540
B( 22-C , 23-H ) :   0.9210 B( 22-C , 24-H ) :   0.9280 B( 22-C , 25-C ) :   1.0437
B( 25-C , 26-H ) :   0.9554 B( 25-C , 27-H ) :   0.9516 B( 25-C , 28-C ) :   1.0790
B( 28-C , 29-H ) :   0.9741 B( 28-C , 30-H ) :   0.9784 B( 28-C , 31-H ) :   0.9721

Dispersion correction           -0.014873446
FINAL SINGLE POINT ENERGY     -1339.865104780965

DIPOLE MOMENT
-------------
                                X             Y             Z
Electronic contribution:      8.80814     -30.43169       3.22245
Nuclear contribution   :     -8.89540      31.18225      -3.24275
                        -----------------------------------------
Total Dipole Moment    :     -0.08726       0.75056      -0.02030
                        -----------------------------------------
Magnitude (a.u.)       :      0.75589
Magnitude (Debye)      :      1.92131

Rotational constants in cm-1:     0.017933     0.009945     0.006998
Rotational constants in MHz :   537.603016   298.141391   209.804517

                             ****ORCA TERMINATED NORMALLY****
TOTAL RUN TIME: 0 days 0 hours 0 minutes 21 seconds 116 msec
