                         Program Version 4.2.1 -  RELEASE  -
|  1> ! wB97X-D3 SP def2-SVP
|  2> %pal
|  3> nprocs 24
|  4> end
|  5>
|  6> * xyz 0 1
|  7> S 	 -47.7476 	 9.22465 	 -23.8024
|  8> C 	 -48.4627 	 8.51969 	 -22.3349
|  9> C 	 -48.9837 	 9.513 	 -21.4802
| 10> C 	 -48.9309 	 10.8188 	 -22.091
| 11> C 	 -48.335 	 10.8357 	 -23.301
| 12> H 	 -49.2443 	 11.7722 	 -21.5749
| 13> C 	 -49.5342 	 9.29612 	 -20.1082
| 14> H 	 -49.3199 	 8.30626 	 -19.8101
| 15> H 	 -50.5776 	 9.15228 	 -20.2555
| 16> C 	 -49.1027 	 10.2568 	 -18.9508
| 17> H 	 -49.3671 	 11.3045 	 -19.0511
| 18> H 	 -49.6875 	 9.9239 	 -18.1186
| 19> C 	 -47.6601 	 10.1903 	 -18.6501
| 20> H 	 -47.4806 	 9.15643 	 -18.2581
| 21> H 	 -47.0002 	 10.3289 	 -19.5059
| 22> H 	 -47.2678 	 10.8872 	 -17.8968
| 23> S 	 -49.695 	 12.7556 	 -24.7506
| 24> C 	 -48.6796 	 14.0852 	 -25.3939
| 25> C 	 -47.3095 	 13.8582 	 -25.2825
| 26> C 	 -47.0107 	 12.7296 	 -24.4487
| 27> C 	 -48.1992 	 11.9984 	 -24.132
| 28> H 	 -46.7664 	 14.6181 	 -25.7749
| 29> C 	 -45.5837 	 12.275 	 -24.1463
| 30> H 	 -45.0019 	 12.7108 	 -24.9822
| 31> H 	 -45.678 	 11.2307 	 -24.1452
| 32> C 	 -45.0008 	 12.8755 	 -22.8683
| 33> H 	 -45.6827 	 12.6461 	 -22.0807
| 34> H 	 -44.8966 	 13.9705 	 -22.8222
| 35> C 	 -43.792 	 12.1751 	 -22.2818
| 36> H 	 -43.6458 	 12.5156 	 -21.2463
| 37> H 	 -42.8848 	 12.5786 	 -22.8188
| 38> H 	 -43.7878 	 11.0413 	 -22.3388
| 39> H 	 -48.5481 	 7.50119 	 -22.0817
| 40> H 	 -48.9934 	 14.8603 	 -26.0735
| 41> *
| 42>
| 43>                          ****END OF INPUT****

CARTESIAN COORDINATES (ANGSTROEM)
---------------------------------
  S    -47.747600    9.224650  -23.802400
  C    -48.462700    8.519690  -22.334900
  C    -48.983700    9.513000  -21.480200
  C    -48.930900   10.818800  -22.091000
  C    -48.335000   10.835700  -23.301000
  H    -49.244300   11.772200  -21.574900
  C    -49.534200    9.296120  -20.108200
  H    -49.319900    8.306260  -19.810100
  H    -50.577600    9.152280  -20.255500
  C    -49.102700   10.256800  -18.950800
  H    -49.367100   11.304500  -19.051100
  H    -49.687500    9.923900  -18.118600
  C    -47.660100   10.190300  -18.650100
  H    -47.480600    9.156430  -18.258100
  H    -47.000200   10.328900  -19.505900
  H    -47.267800   10.887200  -17.896800
  S    -49.695000   12.755600  -24.750600
  C    -48.679600   14.085200  -25.393900
  C    -47.309500   13.858200  -25.282500
  C    -47.010700   12.729600  -24.448700
  C    -48.199200   11.998400  -24.132000
  H    -46.766400   14.618100  -25.774900
  C    -45.583700   12.275000  -24.146300
  H    -45.001900   12.710800  -24.982200
  H    -45.678000   11.230700  -24.145200
  C    -45.000800   12.875500  -22.868300
  H    -45.682700   12.646100  -22.080700
  H    -44.896600   13.970500  -22.822200
  C    -43.792000   12.175100  -22.281800
  H    -43.645800   12.515600  -21.246300
  H    -42.884800   12.578600  -22.818800
  H    -43.787800   11.041300  -22.338800
  H    -48.548100    7.501190  -22.081700
  H    -48.993400   14.860300  -26.073500

 Total Charge           Charge          ....    0
 Multiplicity           Mult            ....    1
 Number of Electrons    NEL             ....  134
 Basis Dimension        Dim             ....  322

ORBITAL ENERGIES
----------------

  NO   OCC          E(Eh)            E(eV)
   0   2.0000     -88.969734     -2420.9895
   1   2.0000     -88.968464     -2420.9550
   2   2.0000     -10.327779      -281.0332
   3   2.0000     -10.325655      -280.9754
   4   2.0000     -10.316361      -280.7225
   5   2.0000     -10.315121      -280.6887
   6   2.0000     -10.309342      -280.5315
   7   2.0000     -10.303382      -280.3693
   8   2.0000     -10.294914      -280.1388
   9   2.0000     -10.292706      -280.0788
  10   2.0000     -10.289585      -279.9938
  11   2.0000     -10.288516      -279.9647
  12   2.0000     -10.287255      -279.9304
  13   2.0000     -10.281961      -279.7864
  14   2.0000     -10.279350      -279.7153
  15   2.0000     -10.276402      -279.6351
  16   2.0000      -8.082787      -219.9438
  17   2.0000      -8.081749      -219.9156
  18   2.0000      -6.041311      -164.3924
  19   2.0000      -6.040454      -164.3691
  20   2.0000      -6.037667      -164.2933
  21   2.0000      -6.036541      -164.2626
  22   2.0000      -6.033500      -164.1799
  23   2.0000      -6.032312      -164.1476
  24   2.0000      -0.998289       -27.1648
  25   2.0000      -0.972498       -26.4630
  26   2.0000      -0.915808       -24.9204
  27   2.0000      -0.907940       -24.7063
  28   2.0000      -0.870598       -23.6902
  29   2.0000      -0.851361       -23.1667
  30   2.0000      -0.846041       -23.0219
  31   2.0000      -0.817052       -22.2331
  32   2.0000      -0.785117       -21.3641
  33   2.0000      -0.766130       -20.8475
  34   2.0000      -0.710640       -19.3375
  35   2.0000      -0.699763       -19.0415
  36   2.0000      -0.687659       -18.7121
  37   2.0000      -0.659654       -17.9501
  38   2.0000      -0.635122       -17.2825
  39   2.0000      -0.621002       -16.8983
  40   2.0000      -0.585872       -15.9424
  41   2.0000      -0.572131       -15.5685
  42   2.0000      -0.562189       -15.2980
  43   2.0000      -0.560117       -15.2416
  44   2.0000      -0.538570       -14.6552
  45   2.0000      -0.525106       -14.2889
  46   2.0000      -0.516896       -14.0654
  47   2.0000      -0.513751       -13.9799
  48   2.0000      -0.500577       -13.6214
  49   2.0000      -0.494090       -13.4449
  50   2.0000      -0.483660       -13.1610
  51   2.0000      -0.479913       -13.0591
  52   2.0000      -0.471553       -12.8316
  53   2.0000      -0.463642       -12.6163
  54   2.0000      -0.455927       -12.4064
  55   2.0000      -0.447379       -12.1738
  56   2.0000      -0.444386       -12.0924
  57   2.0000      -0.438931       -11.9439
  58   2.0000      -0.437809       -11.9134
  59   2.0000      -0.426271       -11.5994
  60   2.0000      -0.420925       -11.4539
  61   2.0000      -0.415867       -11.3163
  62   2.0000      -0.396263       -10.7829
  63   2.0000      -0.338536        -9.2120
  64   2.0000      -0.334152        -9.0927
  65   2.0000      -0.323694        -8.8082
  66   2.0000      -0.292677        -7.9641
  67   0.0000       0.033606         0.9145
  68   0.0000       0.055756         1.5172
  69   0.0000       0.101511         2.7623
  70   0.0000       0.104766         2.8508
  71   0.0000       0.128316         3.4917

MULLIKEN ATOMIC CHARGES
-----------------------
   0 S :    0.107160
   1 C :   -0.099132
   2 C :   -0.129972
   3 C :    0.013128
   4 C :   -0.159562
   5 H :    0.041902
   6 C :    0.112489
   7 H :   -0.014744
   8 H :    0.030606
   9 C :   -0.037129
  10 H :    0.028022
  11 H :    0.023235
  12 C :   -0.063071
  13 H :    0.022996
  14 H :    0.041508
  15 H :    0.037112
  16 S :    0.118274
  17 C :   -0.103420
  18 C :   -0.033047
  19 C :   -0.038132
  20 C :   -0.176601
  21 H :    0.009432
  22 C :    0.154596
  23 H :    0.029328
  24 H :   -0.000206
  25 C :   -0.079348
  26 H :    0.016108
  27 H :    0.033992
  28 C :   -0.073185
  29 H :    0.033380
  30 H :    0.025019
  31 H :    0.051590
  32 H :    0.027028
  33 H :    0.050642
Sum of atomic charges:   -0.0000000

LOEWDIN ATOMIC CHARGES
----------------------
   0 S :    0.379220
   1 C :   -0.188575
   2 C :   -0.056672
   3 C :   -0.064496
   4 C :   -0.189610
   5 H :    0.045029
   6 C :   -0.031703
   7 H :    0.024678
   8 H :    0.035878
   9 C :   -0.038111
  10 H :    0.021736
  11 H :    0.026668
  12 C :   -0.069478
  13 H :    0.028184
  14 H :    0.027077
  15 H :    0.028484
  16 S :    0.383919
  17 C :   -0.176552
  18 C :   -0.067755
  19 C :   -0.041806
  20 C :   -0.195327
  21 H :    0.029025
  22 C :   -0.021192
  23 H :    0.036765
  24 H :    0.017469
  25 C :   -0.050320
  26 H :    0.022027
  27 H :    0.029429
  28 C :   -0.071529
  29 H :    0.026812
  30 H :    0.022493
  31 H :    0.033943
  32 H :    0.018623
  33 H :    0.025664

  Mayer bond orders larger than 0.100000
B(  0-S ,  1-C ) :   1.1203 B(  0-S ,  4-C ) :   1.1184 B(  1-C ,  2-C ) :   1.6315
B(  1-C , 32-H ) :   0.9701 B(  2-C ,  3-C ) :   1.2069 B(  2-C ,  6-C ) :   1.0258
B(  3-C ,  4-C ) :   1.6233 B(  3-C ,  5-H ) :   0.9828 B(  4-C , 20-C ) :   1.0442
B(  6-C ,  7-H ) :   0.9260 B(  6-C ,  8-H ) :   0.9239 B(  6-C ,  9-C ) :   1.0621
B(  9-C , 10-H ) :   0.9563 B(  9-C , 11-H ) :   0.9511 B(  9-C , 12-C ) :   1.0793
B( 12-C , 13-H ) :   0.9722 B( 12-C , 14-H ) :   0.9745 B( 12-C , 15-H ) :   0.9730
B( 16-S , 17-C ) :   1.1368 B( 16-S , 20-C ) :   1.1368 B( 17-C , 18-C ) :   1.6594
B( 17-C , 20-C ) :   0.1039 B( 17-C , 33-H ) :   0.9597 B( 18-C , 19-C ) :   1.2112
B( 18-C , 21-H ) :   0.9904 B( 19-C , 20-C ) :   1.5778 B( 19-C , 22-C ) :   1.0321
B( 22-C , 23-H ) :   0.9338 B( 22-C , 24-H ) :   0.9214 B( 22-C , 25-C ) :   1.0682
B( 25-C , 26-H ) :   0.9569 B( 25-C , 27-H ) :   0.9527 B( 25-C , 28-C ) :   1.0833
B( 28-C , 29-H ) :   0.9750 B( 28-C , 30-H ) :   0.9742 B( 28-C , 31-H ) :   0.9729

Dispersion correction           -0.014776638
FINAL SINGLE POINT ENERGY     -1339.856414323664

DIPOLE MOMENT
-------------
                                X             Y             Z
Electronic contribution:    -14.48485      -1.17511     -21.71071
Nuclear contribution   :     14.59419       1.32419      22.20754
                        -----------------------------------------
Total Dipole Moment    :      0.10934       0.14908       0.49683
                        -----------------------------------------
Magnitude (a.u.)       :      0.53011
Magnitude (Debye)      :      1.34743

Rotational constants in cm-1:     0.016668     0.009526     0.007884
Rotational constants in MHz :   499.702679   285.571255   236.347538

                             ****ORCA TERMINATED NORMALLY****
TOTAL RUN TIME: 0 days 0 hours 0 minutes 20 seconds 846 msec
