                         Program Version 4.2.1 -  RELEASE  -
|  1> ! wB97X-D3 SP def2-SVP
|  2> %pal
|  3> nprocs 24
|  4> end
|  5>
|  6> * xyz 0 1
|  7> S 	 -115.188 	 51.5499 	 -96.8684
|  8> C 	 -115.294 	 53.0298 	 -97.8519
|  9> C 	 -115.435 	 54.1726 	 -97.0697
| 10> C 	 -115.443 	 53.9044 	 -95.6826
| 11> C 	 -115.255 	 52.5387 	 -95.3772
| 12> H 	 -115.456 	 54.4457 	 -94.7787
| 13> C 	 -115.695 	 55.4609 	 -97.7579
| 14> H 	 -116.331 	 55.2709 	 -98.6185
| 15> H 	 -114.768 	 55.8877 	 -98.0609
| 16> C 	 -116.225 	 56.503 	 -96.8203
| 17> H 	 -117.067 	 56.1726 	 -96.2439
| 18> H 	 -115.499 	 56.7465 	 -96.0284
| 19> C 	 -116.494 	 57.8243 	 -97.6053
| 20> H 	 -117.025 	 57.6207 	 -98.5947
| 21> H 	 -117.132 	 58.4934 	 -97.1387
| 22> H 	 -115.524 	 58.3371 	 -97.9251
| 23> S 	 -113.915 	 50.6894 	 -93.9046
| 24> C 	 -114.14 	 50.5172 	 -92.2257
| 25> C 	 -115.026 	 51.4978 	 -91.7981
| 26> C 	 -115.533 	 52.3222 	 -92.8148
| 27> C 	 -114.938 	 52.0595 	 -94.0529
| 28> H 	 -115.416 	 51.4781 	 -90.7489
| 29> C 	 -116.618 	 53.3488 	 -92.5175
| 30> H 	 -117.231 	 52.8252 	 -91.7659
| 31> H 	 -117.222 	 53.6303 	 -93.4572
| 32> C 	 -116.101 	 54.7001 	 -91.8604
| 33> H 	 -115.473 	 55.1092 	 -92.6335
| 34> H 	 -115.441 	 54.3978 	 -91.0419
| 35> C 	 -117.227 	 55.7212 	 -91.3991
| 36> H 	 -117.868 	 56.1717 	 -92.2295
| 37> H 	 -116.701 	 56.5584 	 -90.8836
| 38> H 	 -117.838 	 55.2194 	 -90.7224
| 39> H 	 -115.218 	 53.0218 	 -98.9487
| 40> H 	 -113.77 	 49.725 	 -91.5652
| 41> *
| 42>
| 43>                          ****END OF INPUT****

CARTESIAN COORDINATES (ANGSTROEM)
---------------------------------
  S    -115.188000   51.549900  -96.868400
  C    -115.294000   53.029800  -97.851900
  C    -115.435000   54.172600  -97.069700
  C    -115.443000   53.904400  -95.682600
  C    -115.255000   52.538700  -95.377200
  H    -115.456000   54.445700  -94.778700
  C    -115.695000   55.460900  -97.757900
  H    -116.331000   55.270900  -98.618500
  H    -114.768000   55.887700  -98.060900
  C    -116.225000   56.503000  -96.820300
  H    -117.067000   56.172600  -96.243900
  H    -115.499000   56.746500  -96.028400
  C    -116.494000   57.824300  -97.605300
  H    -117.025000   57.620700  -98.594700
  H    -117.132000   58.493400  -97.138700
  H    -115.524000   58.337100  -97.925100
  S    -113.915000   50.689400  -93.904600
  C    -114.140000   50.517200  -92.225700
  C    -115.026000   51.497800  -91.798100
  C    -115.533000   52.322200  -92.814800
  C    -114.938000   52.059500  -94.052900
  H    -115.416000   51.478100  -90.748900
  C    -116.618000   53.348800  -92.517500
  H    -117.231000   52.825200  -91.765900
  H    -117.222000   53.630300  -93.457200
  C    -116.101000   54.700100  -91.860400
  H    -115.473000   55.109200  -92.633500
  H    -115.441000   54.397800  -91.041900
  C    -117.227000   55.721200  -91.399100
  H    -117.868000   56.171700  -92.229500
  H    -116.701000   56.558400  -90.883600
  H    -117.838000   55.219400  -90.722400
  H    -115.218000   53.021800  -98.948700
  H    -113.770000   49.725000  -91.565200

 Total Charge           Charge          ....    0
 Multiplicity           Mult            ....    1
 Number of Electrons    NEL             ....  134
 Basis Dimension        Dim             ....  322

ORBITAL ENERGIES
----------------

  NO   OCC          E(Eh)            E(eV)
   0   2.0000     -88.969286     -2420.9773
   1   2.0000     -88.966544     -2420.9027
   2   2.0000     -10.333033      -281.1761
   3   2.0000     -10.324917      -280.9553
   4   2.0000     -10.316531      -280.7271
   5   2.0000     -10.316306      -280.7210
   6   2.0000     -10.302416      -280.3430
   7   2.0000     -10.302049      -280.3330
   8   2.0000     -10.301021      -280.3050
   9   2.0000     -10.294764      -280.1348
  10   2.0000     -10.294226      -280.1201
  11   2.0000     -10.294039      -280.1151
  12   2.0000     -10.288719      -279.9703
  13   2.0000     -10.285913      -279.8939
  14   2.0000     -10.285004      -279.8692
  15   2.0000     -10.284298      -279.8500
  16   2.0000      -8.082550      -219.9374
  17   2.0000      -8.082512      -219.9363
  18   2.0000      -6.041088      -164.3864
  19   2.0000      -6.040874      -164.3805
  20   2.0000      -6.037282      -164.2828
  21   2.0000      -6.036642      -164.2654
  22   2.0000      -6.033574      -164.1819
  23   2.0000      -6.033329      -164.1752
  24   2.0000      -1.012884       -27.5620
  25   2.0000      -0.983696       -26.7677
  26   2.0000      -0.919189       -25.0124
  27   2.0000      -0.901848       -24.5405
  28   2.0000      -0.871606       -23.7176
  29   2.0000      -0.851079       -23.1590
  30   2.0000      -0.843483       -22.9523
  31   2.0000      -0.815975       -22.2038
  32   2.0000      -0.780174       -21.2296
  33   2.0000      -0.769550       -20.9405
  34   2.0000      -0.716328       -19.4923
  35   2.0000      -0.699022       -19.0214
  36   2.0000      -0.689828       -18.7712
  37   2.0000      -0.663881       -18.0651
  38   2.0000      -0.644453       -17.5365
  39   2.0000      -0.615596       -16.7512
  40   2.0000      -0.592677       -16.1276
  41   2.0000      -0.580297       -15.7907
  42   2.0000      -0.564292       -15.3552
  43   2.0000      -0.560406       -15.2494
  44   2.0000      -0.526525       -14.3275
  45   2.0000      -0.517764       -14.0891
  46   2.0000      -0.512140       -13.9360
  47   2.0000      -0.511011       -13.9053
  48   2.0000      -0.508611       -13.8400
  49   2.0000      -0.498196       -13.5566
  50   2.0000      -0.492129       -13.3915
  51   2.0000      -0.482314       -13.1244
  52   2.0000      -0.474295       -12.9062
  53   2.0000      -0.470133       -12.7930
  54   2.0000      -0.459054       -12.4915
  55   2.0000      -0.447128       -12.1670
  56   2.0000      -0.442888       -12.0516
  57   2.0000      -0.438840       -11.9414
  58   2.0000      -0.434240       -11.8163
  59   2.0000      -0.427649       -11.6369
  60   2.0000      -0.422499       -11.4968
  61   2.0000      -0.420372       -11.4389
  62   2.0000      -0.413062       -11.2400
  63   2.0000      -0.354091        -9.6353
  64   2.0000      -0.333269        -9.0687
  65   2.0000      -0.331694        -9.0259
  66   2.0000      -0.280999        -7.6464
  67   0.0000       0.019053         0.5185
  68   0.0000       0.077803         2.1171
  69   0.0000       0.110818         3.0155
  70   0.0000       0.120874         3.2892
  71   0.0000       0.128505         3.4968

MULLIKEN ATOMIC CHARGES
-----------------------
   0 S :    0.107627
   1 C :   -0.145162
   2 C :   -0.045634
   3 C :    0.027760
   4 C :   -0.135225
   5 H :   -0.033595
   6 C :    0.105187
   7 H :    0.036792
   8 H :    0.024945
   9 C :   -0.102262
  10 H :    0.023612
  11 H :    0.034610
  12 C :   -0.046738
  13 H :    0.027259
  14 H :    0.021673
  15 H :    0.041891
  16 S :    0.115793
  17 C :   -0.100684
  18 C :   -0.058153
  19 C :   -0.042601
  20 C :   -0.150044
  21 H :    0.032952
  22 C :    0.001895
  23 H :    0.026588
  24 H :    0.048461
  25 C :   -0.074034
  26 H :    0.025707
  27 H :    0.029390
  28 C :   -0.042322
  29 H :    0.048514
  30 H :    0.046586
  31 H :    0.024399
  32 H :    0.057021
  33 H :    0.067795
Sum of atomic charges:    0.0000000

LOEWDIN ATOMIC CHARGES
----------------------
   0 S :    0.377802
   1 C :   -0.191250
   2 C :   -0.059739
   3 C :   -0.062899
   4 C :   -0.173392
   5 H :    0.024123
   6 C :   -0.029178
   7 H :    0.034133
   8 H :    0.033904
   9 C :   -0.041894
  10 H :    0.018073
  11 H :    0.028259
  12 C :   -0.067074
  13 H :    0.029483
  14 H :    0.012977
  15 H :    0.033244
  16 S :    0.448352
  17 C :   -0.210130
  18 C :   -0.082131
  19 C :   -0.065098
  20 C :   -0.213283
  21 H :    0.037406
  22 C :   -0.040852
  23 H :    0.029314
  24 H :    0.036940
  25 C :   -0.037785
  26 H :    0.014964
  27 H :    0.024866
  28 C :   -0.064701
  29 H :    0.035342
  30 H :    0.034274
  31 H :    0.014468
  32 H :    0.032404
  33 H :    0.039079

  Mayer bond orders larger than 0.100000
B(  0-S ,  1-C ) :   1.1284 B(  0-S ,  4-C ) :   1.1414 B(  1-C ,  2-C ) :   1.5982
B(  1-C ,  4-C ) :   0.1009 B(  1-C , 32-H ) :   0.9698 B(  2-C ,  3-C ) :   1.2223
B(  2-C ,  6-C ) :   1.0112 B(  3-C ,  4-C ) :   1.5364 B(  3-C ,  5-H ) :   1.0048
B(  4-C , 20-C ) :   1.0919 B(  6-C ,  7-H ) :   0.9487 B(  6-C ,  8-H ) :   0.9173
B(  6-C ,  9-C ) :   1.0946 B(  9-C , 10-H ) :   0.9564 B(  9-C , 11-H ) :   0.9425
B(  9-C , 12-C ) :   1.0762 B( 12-C , 13-H ) :   0.9751 B( 12-C , 14-H ) :   0.9747
B( 12-C , 15-H ) :   0.9742 B( 16-S , 17-C ) :   1.1826 B( 16-S , 20-C ) :   1.1552
B( 17-C , 18-C ) :   1.5563 B( 17-C , 33-H ) :   0.9677 B( 18-C , 19-C ) :   1.3112
B( 18-C , 21-H ) :   0.9782 B( 19-C , 20-C ) :   1.5151 B( 19-C , 22-C ) :   1.0447
B( 22-C , 23-H ) :   0.9316 B( 22-C , 24-H ) :   0.9332 B( 22-C , 25-C ) :   1.0562
B( 25-C , 26-H ) :   0.9564 B( 25-C , 27-H ) :   0.9533 B( 25-C , 28-C ) :   1.0658
B( 28-C , 29-H ) :   0.9761 B( 28-C , 30-H ) :   0.9753 B( 28-C , 31-H ) :   0.9779

Dispersion correction           -0.013936947
FINAL SINGLE POINT ENERGY     -1339.870981310675

DIPOLE MOMENT
-------------
                                X             Y             Z
Electronic contribution:     12.37100     -30.64278      -4.77289
Nuclear contribution   :    -12.61332      31.15085       5.01559
                        -----------------------------------------
Total Dipole Moment    :     -0.24232       0.50806       0.24271
                        -----------------------------------------
Magnitude (a.u.)       :      0.61299
Magnitude (Debye)      :      1.55809

Rotational constants in cm-1:     0.016330     0.009786     0.006373
Rotational constants in MHz :   489.571492   293.374882   191.070430

                             ****ORCA TERMINATED NORMALLY****
TOTAL RUN TIME: 0 days 0 hours 0 minutes 20 seconds 547 msec
