                         Program Version 4.2.1 -  RELEASE  -
|  1> ! wB97X-D3 SP def2-SVP
|  2> %pal
|  3> nprocs 24
|  4> end
|  5>
|  6> * xyz 0 1
|  7> S 	 -41.9006 	 18.901 	 -93.2282
|  8> C 	 -40.2319 	 19.0106 	 -93.5726
|  9> C 	 -39.7529 	 17.8132 	 -94.1428
| 10> C 	 -40.7241 	 16.8768 	 -94.4871
| 11> C 	 -41.9578 	 17.3787 	 -94.1377
| 12> H 	 -40.62 	 15.9706 	 -95.0208
| 13> C 	 -38.3443 	 17.5251 	 -94.4979
| 14> H 	 -38.276 	 16.4172 	 -94.6392
| 15> H 	 -37.6811 	 17.676 	 -93.6293
| 16> C 	 -37.7986 	 18.2573 	 -95.7528
| 17> H 	 -38.2 	 19.2524 	 -95.8731
| 18> H 	 -36.7353 	 18.4956 	 -95.6459
| 19> C 	 -37.9777 	 17.4771 	 -97.0013
| 20> H 	 -39.0253 	 17.3544 	 -97.2363
| 21> H 	 -37.4419 	 17.9576 	 -97.8057
| 22> H 	 -37.7137 	 16.4151 	 -96.8386
| 23> S 	 -43.8669 	 15.9297 	 -92.759
| 24> C 	 -45.1442 	 15.1922 	 -93.7211
| 25> C 	 -45.0528 	 15.4723 	 -95.0673
| 26> C 	 -43.9874 	 16.3218 	 -95.3874
| 27> C 	 -43.2313 	 16.6743 	 -94.2771
| 28> H 	 -45.782 	 14.986 	 -95.7223
| 29> C 	 -43.533 	 16.6648 	 -96.8593
| 30> H 	 -42.5781 	 17.0158 	 -96.917
| 31> H 	 -44.176 	 17.52 	 -97.2461
| 32> C 	 -43.5773 	 15.5063 	 -97.7964
| 33> H 	 -44.6202 	 15.12 	 -97.7397
| 34> H 	 -42.9249 	 14.6678 	 -97.4008
| 35> C 	 -43.1038 	 15.88 	 -99.2285
| 36> H 	 -43.4882 	 16.7622 	 -99.5809
| 37> H 	 -43.478 	 15.0708 	 -99.8616
| 38> H 	 -42.0373 	 15.9222 	 -99.253
| 39> H 	 -39.6452 	 19.908 	 -93.2441
| 40> H 	 -45.9718 	 14.6048 	 -93.2822
| 41> *
| 42>
| 43>                          ****END OF INPUT****

CARTESIAN COORDINATES (ANGSTROEM)
---------------------------------
  S    -41.900600   18.901000  -93.228200
  C    -40.231900   19.010600  -93.572600
  C    -39.752900   17.813200  -94.142800
  C    -40.724100   16.876800  -94.487100
  C    -41.957800   17.378700  -94.137700
  H    -40.620000   15.970600  -95.020800
  C    -38.344300   17.525100  -94.497900
  H    -38.276000   16.417200  -94.639200
  H    -37.681100   17.676000  -93.629300
  C    -37.798600   18.257300  -95.752800
  H    -38.200000   19.252400  -95.873100
  H    -36.735300   18.495600  -95.645900
  C    -37.977700   17.477100  -97.001300
  H    -39.025300   17.354400  -97.236300
  H    -37.441900   17.957600  -97.805700
  H    -37.713700   16.415100  -96.838600
  S    -43.866900   15.929700  -92.759000
  C    -45.144200   15.192200  -93.721100
  C    -45.052800   15.472300  -95.067300
  C    -43.987400   16.321800  -95.387400
  C    -43.231300   16.674300  -94.277100
  H    -45.782000   14.986000  -95.722300
  C    -43.533000   16.664800  -96.859300
  H    -42.578100   17.015800  -96.917000
  H    -44.176000   17.520000  -97.246100
  C    -43.577300   15.506300  -97.796400
  H    -44.620200   15.120000  -97.739700
  H    -42.924900   14.667800  -97.400800
  C    -43.103800   15.880000  -99.228500
  H    -43.488200   16.762200  -99.580900
  H    -43.478000   15.070800  -99.861600
  H    -42.037300   15.922200  -99.253000
  H    -39.645200   19.908000  -93.244100
  H    -45.971800   14.604800  -93.282200

 Total Charge           Charge          ....    0
 Multiplicity           Mult            ....    1
 Number of Electrons    NEL             ....  134
 Basis Dimension        Dim             ....  322

ORBITAL ENERGIES
----------------

  NO   OCC          E(Eh)            E(eV)
   0   2.0000     -88.968344     -2420.9517
   1   2.0000     -88.963785     -2420.8277
   2   2.0000     -10.325845      -280.9805
   3   2.0000     -10.324665      -280.9484
   4   2.0000     -10.317470      -280.7526
   5   2.0000     -10.315298      -280.6935
   6   2.0000     -10.304624      -280.4031
   7   2.0000     -10.296481      -280.1815
   8   2.0000     -10.292017      -280.0600
   9   2.0000     -10.289872      -280.0017
  10   2.0000     -10.289693      -279.9968
  11   2.0000     -10.289326      -279.9868
  12   2.0000     -10.286866      -279.9199
  13   2.0000     -10.280928      -279.7583
  14   2.0000     -10.272992      -279.5423
  15   2.0000     -10.272898      -279.5398
  16   2.0000      -8.083422      -219.9611
  17   2.0000      -8.077669      -219.8045
  18   2.0000      -6.041616      -164.4007
  19   2.0000      -6.037944      -164.3008
  20   2.0000      -6.036066      -164.2497
  21   2.0000      -6.034433      -164.2053
  22   2.0000      -6.032435      -164.1509
  23   2.0000      -6.028459      -164.0427
  24   2.0000      -1.005909       -27.3722
  25   2.0000      -0.981848       -26.7174
  26   2.0000      -0.913927       -24.8692
  27   2.0000      -0.909683       -24.7537
  28   2.0000      -0.865897       -23.5623
  29   2.0000      -0.860964       -23.4280
  30   2.0000      -0.846702       -23.0399
  31   2.0000      -0.811951       -22.0943
  32   2.0000      -0.785220       -21.3669
  33   2.0000      -0.764611       -20.8061
  34   2.0000      -0.705144       -19.1879
  35   2.0000      -0.696983       -18.9659
  36   2.0000      -0.693558       -18.8727
  37   2.0000      -0.654664       -17.8143
  38   2.0000      -0.645072       -17.5533
  39   2.0000      -0.616367       -16.7722
  40   2.0000      -0.598362       -16.2822
  41   2.0000      -0.567078       -15.4310
  42   2.0000      -0.565619       -15.3913
  43   2.0000      -0.559332       -15.2202
  44   2.0000      -0.531956       -14.4752
  45   2.0000      -0.523293       -14.2395
  46   2.0000      -0.519674       -14.1410
  47   2.0000      -0.507962       -13.8224
  48   2.0000      -0.506580       -13.7847
  49   2.0000      -0.492015       -13.3884
  50   2.0000      -0.487910       -13.2767
  51   2.0000      -0.483979       -13.1697
  52   2.0000      -0.475917       -12.9504
  53   2.0000      -0.471315       -12.8251
  54   2.0000      -0.458200       -12.4682
  55   2.0000      -0.448125       -12.1941
  56   2.0000      -0.443844       -12.0776
  57   2.0000      -0.437883       -11.9154
  58   2.0000      -0.436591       -11.8803
  59   2.0000      -0.425664       -11.5829
  60   2.0000      -0.423416       -11.5217
  61   2.0000      -0.407975       -11.1016
  62   2.0000      -0.406690       -11.0666
  63   2.0000      -0.344925        -9.3859
  64   2.0000      -0.333624        -9.0784
  65   2.0000      -0.320615        -8.7244
  66   2.0000      -0.294435        -8.0120
  67   0.0000       0.037341         1.0161
  68   0.0000       0.053839         1.4650
  69   0.0000       0.113137         3.0786
  70   0.0000       0.116211         3.1623
  71   0.0000       0.121427         3.3042

MULLIKEN ATOMIC CHARGES
-----------------------
   0 S :    0.128967
   1 C :   -0.137232
   2 C :   -0.071960
   3 C :    0.066757
   4 C :   -0.187043
   5 H :    0.005521
   6 C :    0.028120
   7 H :    0.020367
   8 H :    0.031211
   9 C :   -0.039224
  10 H :    0.021036
  11 H :    0.018899
  12 C :   -0.031852
  13 H :    0.018668
  14 H :    0.039173
  15 H :    0.018405
  16 S :    0.101190
  17 C :   -0.106830
  18 C :   -0.062530
  19 C :    0.018110
  20 C :   -0.191451
  21 H :    0.027796
  22 C :    0.117512
  23 H :   -0.010159
  24 H :    0.038469
  25 C :   -0.154711
  26 H :    0.030319
  27 H :    0.039702
  28 C :    0.013616
  29 H :    0.010817
  30 H :    0.035440
  31 H :    0.030928
  32 H :    0.067793
  33 H :    0.064175
Sum of atomic charges:   -0.0000000

LOEWDIN ATOMIC CHARGES
----------------------
   0 S :    0.425304
   1 C :   -0.220269
   2 C :   -0.068016
   3 C :   -0.049550
   4 C :   -0.188483
   5 H :    0.032183
   6 C :   -0.037282
   7 H :    0.031505
   8 H :    0.033182
   9 C :   -0.042291
  10 H :    0.023328
  11 H :    0.023396
  12 C :   -0.064525
  13 H :    0.021127
  14 H :    0.027107
  15 H :    0.025014
  16 S :    0.375781
  17 C :   -0.181629
  18 C :   -0.081173
  19 C :   -0.051747
  20 C :   -0.186681
  21 H :    0.036063
  22 C :   -0.024813
  23 H :    0.010757
  24 H :    0.038435
  25 C :   -0.046510
  26 H :    0.019957
  27 H :    0.030092
  28 C :   -0.050542
  29 H :    0.012041
  30 H :    0.033450
  31 H :    0.024679
  32 H :    0.036809
  33 H :    0.033299

  Mayer bond orders larger than 0.100000
B(  0-S ,  1-C ) :   1.1586 B(  0-S ,  4-C ) :   1.1785 B(  1-C ,  2-C ) :   1.5610
B(  1-C ,  4-C ) :   0.1076 B(  1-C , 32-H ) :   0.9673 B(  2-C ,  3-C ) :   1.2623
B(  2-C ,  6-C ) :   1.0393 B(  3-C ,  4-C ) :   1.5462 B(  3-C ,  5-H ) :   1.0038
B(  4-C , 20-C ) :   1.0161 B(  6-C ,  7-H ) :   0.9489 B(  6-C ,  8-H ) :   0.9338
B(  6-C ,  9-C ) :   1.0503 B(  9-C , 10-H ) :   0.9540 B(  9-C , 11-H ) :   0.9538
B(  9-C , 12-C ) :   1.0946 B( 12-C , 13-H ) :   0.9720 B( 12-C , 14-H ) :   0.9705
B( 12-C , 15-H ) :   0.9714 B( 16-S , 17-C ) :   1.1497 B( 16-S , 20-C ) :   1.1365
B( 17-C , 18-C ) :   1.6331 B( 17-C , 20-C ) :   0.1060 B( 17-C , 33-H ) :   0.9598
B( 18-C , 19-C ) :   1.2227 B( 18-C , 21-H ) :   0.9863 B( 19-C , 20-C ) :   1.6261
B( 19-C , 22-C ) :   1.0204 B( 22-C , 23-H ) :   0.9386 B( 22-C , 24-H ) :   0.9294
B( 22-C , 25-C ) :   1.0669 B( 25-C , 26-H ) :   0.9535 B( 25-C , 27-H ) :   0.9559
B( 25-C , 28-C ) :   1.0763 B( 28-C , 29-H ) :   0.9751 B( 28-C , 30-H ) :   0.9735
B( 28-C , 31-H ) :   0.9748

Dispersion correction           -0.014336409
FINAL SINGLE POINT ENERGY     -1339.869396154082

DIPOLE MOMENT
-------------
                                X             Y             Z
Electronic contribution:    -14.26249       4.34894      26.89809
Nuclear contribution   :     14.55042      -4.49100     -27.42251
                        -----------------------------------------
Total Dipole Moment    :      0.28793      -0.14206      -0.52442
                        -----------------------------------------
Magnitude (a.u.)       :      0.61489
Magnitude (Debye)      :      1.56294

Rotational constants in cm-1:     0.016209     0.009962     0.006875
Rotational constants in MHz :   485.936680   298.648735   206.116114

                             ****ORCA TERMINATED NORMALLY****
TOTAL RUN TIME: 0 days 0 hours 0 minutes 20 seconds 675 msec
