                         Program Version 4.2.1 -  RELEASE  -
|  1> ! wB97X-D3 SP def2-SVP
|  2> %pal
|  3> nprocs 24
|  4> end
|  5>
|  6> * xyz 0 1
|  7> S 	 32.6211 	 -31.564 	 -131.465
|  8> C 	 33.133 	 -30.0745 	 -132.301
|  9> C 	 34.5134 	 -30.0342 	 -132.358
| 10> C 	 35.1739 	 -31.1249 	 -131.656
| 11> C 	 34.2908 	 -31.9756 	 -131.02
| 12> H 	 36.2308 	 -31.1508 	 -131.494
| 13> C 	 35.3608 	 -28.872 	 -132.93
| 14> H 	 35.2173 	 -28.7136 	 -133.968
| 15> H 	 36.403 	 -29.1011 	 -132.715
| 16> C 	 35.122 	 -27.5415 	 -132.187
| 17> H 	 34.0085 	 -27.3214 	 -132.178
| 18> H 	 35.3946 	 -27.6868 	 -131.153
| 19> C 	 35.9218 	 -26.3708 	 -132.669
| 20> H 	 36.9728 	 -26.5897 	 -132.453
| 21> H 	 35.7454 	 -26.2026 	 -133.692
| 22> H 	 35.7657 	 -25.394 	 -132.11
| 23> S 	 33.5653 	 -34.6704 	 -130.433
| 24> C 	 34.5429 	 -35.5751 	 -129.349
| 25> C 	 35.5541 	 -34.7856 	 -128.792
| 26> C 	 35.5772 	 -33.501 	 -129.369
| 27> C 	 34.5729 	 -33.216 	 -130.276
| 28> H 	 36.283 	 -35.2478 	 -128.107
| 29> C 	 36.7718 	 -32.6949 	 -129.018
| 30> H 	 36.8097 	 -32.6538 	 -127.905
| 31> H 	 36.4853 	 -31.6663 	 -129.285
| 32> C 	 38.0832 	 -33.0995 	 -129.613
| 33> H 	 38.194 	 -32.8331 	 -130.673
| 34> H 	 38.0161 	 -34.2183 	 -129.622
| 35> C 	 39.2564 	 -32.6029 	 -128.782
| 36> H 	 40.1947 	 -32.806 	 -129.356
| 37> H 	 39.4224 	 -33.1262 	 -127.821
| 38> H 	 39.2403 	 -31.5752 	 -128.491
| 39> H 	 32.4071 	 -29.3364 	 -132.644
| 40> H 	 34.4158 	 -36.6212 	 -129.163
| 41> *
| 42>
| 43>                          ****END OF INPUT****

CARTESIAN COORDINATES (ANGSTROEM)
---------------------------------
  S     32.621100  -31.564000  -131.465000
  C     33.133000  -30.074500  -132.301000
  C     34.513400  -30.034200  -132.358000
  C     35.173900  -31.124900  -131.656000
  C     34.290800  -31.975600  -131.020000
  H     36.230800  -31.150800  -131.494000
  C     35.360800  -28.872000  -132.930000
  H     35.217300  -28.713600  -133.968000
  H     36.403000  -29.101100  -132.715000
  C     35.122000  -27.541500  -132.187000
  H     34.008500  -27.321400  -132.178000
  H     35.394600  -27.686800  -131.153000
  C     35.921800  -26.370800  -132.669000
  H     36.972800  -26.589700  -132.453000
  H     35.745400  -26.202600  -133.692000
  H     35.765700  -25.394000  -132.110000
  S     33.565300  -34.670400  -130.433000
  C     34.542900  -35.575100  -129.349000
  C     35.554100  -34.785600  -128.792000
  C     35.577200  -33.501000  -129.369000
  C     34.572900  -33.216000  -130.276000
  H     36.283000  -35.247800  -128.107000
  C     36.771800  -32.694900  -129.018000
  H     36.809700  -32.653800  -127.905000
  H     36.485300  -31.666300  -129.285000
  C     38.083200  -33.099500  -129.613000
  H     38.194000  -32.833100  -130.673000
  H     38.016100  -34.218300  -129.622000
  C     39.256400  -32.602900  -128.782000
  H     40.194700  -32.806000  -129.356000
  H     39.422400  -33.126200  -127.821000
  H     39.240300  -31.575200  -128.491000
  H     32.407100  -29.336400  -132.644000
  H     34.415800  -36.621200  -129.163000

 Total Charge           Charge          ....    0
 Multiplicity           Mult            ....    1
 Number of Electrons    NEL             ....  134
 Basis Dimension        Dim             ....  322

ORBITAL ENERGIES
----------------

  NO   OCC          E(Eh)            E(eV)
   0   2.0000     -88.967609     -2420.9317
   1   2.0000     -88.965008     -2420.8609
   2   2.0000     -10.338101      -281.3140
   3   2.0000     -10.331168      -281.1254
   4   2.0000     -10.320285      -280.8292
   5   2.0000     -10.318637      -280.7844
   6   2.0000     -10.307911      -280.4925
   7   2.0000     -10.297814      -280.2178
   8   2.0000     -10.297568      -280.2111
   9   2.0000     -10.294526      -280.1283
  10   2.0000     -10.292467      -280.0723
  11   2.0000     -10.291200      -280.0378
  12   2.0000     -10.286492      -279.9097
  13   2.0000     -10.285821      -279.8914
  14   2.0000     -10.281955      -279.7862
  15   2.0000     -10.278263      -279.6857
  16   2.0000      -8.082417      -219.9337
  17   2.0000      -8.079039      -219.8418
  18   2.0000      -6.040925      -164.3819
  19   2.0000      -6.037743      -164.2953
  20   2.0000      -6.036799      -164.2697
  21   2.0000      -6.033644      -164.1838
  22   2.0000      -6.033286      -164.1741
  23   2.0000      -6.029637      -164.0748
  24   2.0000      -1.005936       -27.3729
  25   2.0000      -0.982365       -26.7315
  26   2.0000      -0.918218       -24.9860
  27   2.0000      -0.912144       -24.8207
  28   2.0000      -0.869053       -23.6481
  29   2.0000      -0.855768       -23.2866
  30   2.0000      -0.844715       -22.9859
  31   2.0000      -0.814588       -22.1661
  32   2.0000      -0.782807       -21.3013
  33   2.0000      -0.772628       -21.0243
  34   2.0000      -0.708108       -19.2686
  35   2.0000      -0.700577       -19.0637
  36   2.0000      -0.692679       -18.8488
  37   2.0000      -0.665313       -18.1041
  38   2.0000      -0.641786       -17.4639
  39   2.0000      -0.622592       -16.9416
  40   2.0000      -0.598665       -16.2905
  41   2.0000      -0.573169       -15.5967
  42   2.0000      -0.566416       -15.4130
  43   2.0000      -0.559526       -15.2255
  44   2.0000      -0.530979       -14.4487
  45   2.0000      -0.522059       -14.2059
  46   2.0000      -0.520192       -14.1551
  47   2.0000      -0.517677       -14.0867
  48   2.0000      -0.512867       -13.9558
  49   2.0000      -0.501850       -13.6560
  50   2.0000      -0.495784       -13.4910
  51   2.0000      -0.483083       -13.1454
  52   2.0000      -0.472176       -12.8486
  53   2.0000      -0.465033       -12.6542
  54   2.0000      -0.455950       -12.4070
  55   2.0000      -0.450944       -12.2708
  56   2.0000      -0.446558       -12.1515
  57   2.0000      -0.442651       -12.0451
  58   2.0000      -0.429635       -11.6910
  59   2.0000      -0.421322       -11.4648
  60   2.0000      -0.417876       -11.3710
  61   2.0000      -0.411307       -11.1922
  62   2.0000      -0.408635       -11.1195
  63   2.0000      -0.356756        -9.7078
  64   2.0000      -0.333345        -9.0708
  65   2.0000      -0.329863        -8.9760
  66   2.0000      -0.288148        -7.8409
  67   0.0000       0.024887         0.6772
  68   0.0000       0.069988         1.9045
  69   0.0000       0.105165         2.8617
  70   0.0000       0.120362         3.2752
  71   0.0000       0.131129         3.5682

MULLIKEN ATOMIC CHARGES
-----------------------
   0 S :    0.085362
   1 C :   -0.138772
   2 C :   -0.073011
   3 C :    0.028861
   4 C :   -0.137317
   5 H :    0.006861
   6 C :    0.087587
   7 H :    0.029783
   8 H :    0.012990
   9 C :   -0.110915
  10 H :    0.030554
  11 H :    0.023394
  12 C :   -0.033979
  13 H :    0.025460
  14 H :    0.024404
  15 H :    0.043676
  16 S :    0.109041
  17 C :   -0.092109
  18 C :   -0.042436
  19 C :   -0.065806
  20 C :   -0.112791
  21 H :    0.035369
  22 C :    0.036264
  23 H :    0.031082
  24 H :    0.012827
  25 C :   -0.041667
  26 H :    0.035312
  27 H :    0.026715
  28 C :   -0.054657
  29 H :    0.035780
  30 H :    0.031543
  31 H :    0.030913
  32 H :    0.063762
  33 H :    0.055921
Sum of atomic charges:   -0.0000000

LOEWDIN ATOMIC CHARGES
----------------------
   0 S :    0.376307
   1 C :   -0.185925
   2 C :   -0.055635
   3 C :   -0.066154
   4 C :   -0.169195
   5 H :    0.026650
   6 C :   -0.023267
   7 H :    0.024394
   8 H :    0.027193
   9 C :   -0.046495
  10 H :    0.022887
  11 H :    0.022087
  12 C :   -0.067262
  13 H :    0.025989
  14 H :    0.015947
  15 H :    0.037061
  16 S :    0.411240
  17 C :   -0.184652
  18 C :   -0.076082
  19 C :   -0.061725
  20 C :   -0.197098
  21 H :    0.038201
  22 C :   -0.042548
  23 H :    0.036944
  24 H :    0.024720
  25 C :   -0.043400
  26 H :    0.027015
  27 H :    0.030008
  28 C :   -0.068840
  29 H :    0.031973
  30 H :    0.028391
  31 H :    0.021537
  32 H :    0.032711
  33 H :    0.027021

  Mayer bond orders larger than 0.100000
B(  0-S ,  1-C ) :   1.1198 B(  0-S ,  4-C ) :   1.1430 B(  1-C ,  2-C ) :   1.6163
B(  1-C , 32-H ) :   0.9734 B(  2-C ,  3-C ) :   1.2360 B(  2-C ,  6-C ) :   1.0195
B(  3-C ,  4-C ) :   1.5747 B(  3-C ,  5-H ) :   0.9884 B(  4-C , 20-C ) :   1.0531
B(  6-C ,  7-H ) :   0.9403 B(  6-C ,  8-H ) :   0.9454 B(  6-C ,  9-C ) :   1.0595
B(  9-C , 10-H ) :   0.9565 B(  9-C , 11-H ) :   0.9560 B(  9-C , 12-C ) :   1.0870
B( 12-C , 13-H ) :   0.9719 B( 12-C , 14-H ) :   0.9749 B( 12-C , 15-H ) :   0.9711
B( 16-S , 17-C ) :   1.1832 B( 16-S , 20-C ) :   1.1218 B( 17-C , 18-C ) :   1.5702
B( 17-C , 33-H ) :   0.9695 B( 18-C , 19-C ) :   1.2579 B( 18-C , 21-H ) :   0.9891
B( 19-C , 20-C ) :   1.5867 B( 19-C , 22-C ) :   1.0568 B( 22-C , 23-H ) :   0.9359
B( 22-C , 24-H ) :   0.9138 B( 22-C , 25-C ) :   1.0589 B( 25-C , 26-H ) :   0.9498
B( 25-C , 27-H ) :   0.9534 B( 25-C , 28-C ) :   1.0758 B( 28-C , 29-H ) :   0.9734
B( 28-C , 30-H ) :   0.9735 B( 28-C , 31-H ) :   0.9763

Dispersion correction           -0.013619544
FINAL SINGLE POINT ENERGY     -1339.884790882944

DIPOLE MOMENT
-------------
                                X             Y             Z
Electronic contribution:    -24.95422     -20.03199      -1.18474
Nuclear contribution   :     25.65256      20.28445       1.30694
                        -----------------------------------------
Total Dipole Moment    :      0.69834       0.25247       0.12221
                        -----------------------------------------
Magnitude (a.u.)       :      0.75257
Magnitude (Debye)      :      1.91287

Rotational constants in cm-1:     0.017989     0.008453     0.005953
Rotational constants in MHz :   539.295943   253.409617   178.475570

                             ****ORCA TERMINATED NORMALLY****
TOTAL RUN TIME: 0 days 0 hours 0 minutes 21 seconds 785 msec
