                         Program Version 4.2.1 -  RELEASE  -
|  1> ! wB97X-D3 SP def2-SVP
|  2> %pal
|  3> nprocs 24
|  4> end
|  5>
|  6> * xyz 0 1
|  7> S 	 -134.333 	 65.8761 	 -61.7511
|  8> C 	 -133.384 	 67.3459 	 -62.1349
|  9> C 	 -134.092 	 68.1487 	 -62.9384
| 10> C 	 -135.429 	 67.689 	 -63.2675
| 11> C 	 -135.733 	 66.4671 	 -62.6236
| 12> H 	 -136.142 	 68.1392 	 -63.9165
| 13> C 	 -133.383 	 69.2522 	 -63.6579
| 14> H 	 -132.35 	 69.3111 	 -63.3948
| 15> H 	 -133.88 	 70.1652 	 -63.384
| 16> C 	 -133.371 	 69.1419 	 -65.1256
| 17> H 	 -134.355 	 69.0792 	 -65.5607
| 18> H 	 -132.891 	 70.0448 	 -65.5023
| 19> C 	 -132.489 	 68.0102 	 -65.5935
| 20> H 	 -132.642 	 67.8823 	 -66.6344
| 21> H 	 -131.449 	 68.1318 	 -65.2464
| 22> H 	 -132.791 	 67.073 	 -65.2048
| 23> S 	 -137.334 	 64.966 	 -64.2825
| 24> C 	 -138.451 	 63.8769 	 -63.6147
| 25> C 	 -138.508 	 63.9754 	 -62.1949
| 26> C 	 -137.747 	 65.0458 	 -61.6483
| 27> C 	 -136.981 	 65.6452 	 -62.6431
| 28> H 	 -139.084 	 63.2949 	 -61.61
| 29> C 	 -137.691 	 65.2576 	 -60.1139
| 30> H 	 -138.653 	 65.5083 	 -59.7025
| 31> H 	 -137.039 	 66.1747 	 -59.9145
| 32> C 	 -137.347 	 64.0559 	 -59.2541
| 33> H 	 -138.101 	 63.2794 	 -59.4071
| 34> H 	 -137.477 	 64.2649 	 -58.1745
| 35> C 	 -135.948 	 63.3929 	 -59.5416
| 36> H 	 -135.158 	 64.0469 	 -59.1361
| 37> H 	 -135.84 	 63.2922 	 -60.6228
| 38> H 	 -135.881 	 62.4526 	 -58.9833
| 39> H 	 -132.333 	 67.475 	 -61.7929
| 40> H 	 -139.066 	 63.1454 	 -64.1507
| 41> *
| 42>
| 43>                          ****END OF INPUT****

CARTESIAN COORDINATES (ANGSTROEM)
---------------------------------
  S    -134.333000   65.876100  -61.751100
  C    -133.384000   67.345900  -62.134900
  C    -134.092000   68.148700  -62.938400
  C    -135.429000   67.689000  -63.267500
  C    -135.733000   66.467100  -62.623600
  H    -136.142000   68.139200  -63.916500
  C    -133.383000   69.252200  -63.657900
  H    -132.350000   69.311100  -63.394800
  H    -133.880000   70.165200  -63.384000
  C    -133.371000   69.141900  -65.125600
  H    -134.355000   69.079200  -65.560700
  H    -132.891000   70.044800  -65.502300
  C    -132.489000   68.010200  -65.593500
  H    -132.642000   67.882300  -66.634400
  H    -131.449000   68.131800  -65.246400
  H    -132.791000   67.073000  -65.204800
  S    -137.334000   64.966000  -64.282500
  C    -138.451000   63.876900  -63.614700
  C    -138.508000   63.975400  -62.194900
  C    -137.747000   65.045800  -61.648300
  C    -136.981000   65.645200  -62.643100
  H    -139.084000   63.294900  -61.610000
  C    -137.691000   65.257600  -60.113900
  H    -138.653000   65.508300  -59.702500
  H    -137.039000   66.174700  -59.914500
  C    -137.347000   64.055900  -59.254100
  H    -138.101000   63.279400  -59.407100
  H    -137.477000   64.264900  -58.174500
  C    -135.948000   63.392900  -59.541600
  H    -135.158000   64.046900  -59.136100
  H    -135.840000   63.292200  -60.622800
  H    -135.881000   62.452600  -58.983300
  H    -132.333000   67.475000  -61.792900
  H    -139.066000   63.145400  -64.150700

 Total Charge           Charge          ....    0
 Multiplicity           Mult            ....    1
 Number of Electrons    NEL             ....  134
 Basis Dimension        Dim             ....  322

ORBITAL ENERGIES
----------------

  NO   OCC          E(Eh)            E(eV)
   0   2.0000     -88.970728     -2421.0166
   1   2.0000     -88.961845     -2420.7749
   2   2.0000     -10.337061      -281.2857
   3   2.0000     -10.334813      -281.2245
   4   2.0000     -10.322127      -280.8794
   5   2.0000     -10.313777      -280.6521
   6   2.0000     -10.311806      -280.5985
   7   2.0000     -10.298749      -280.2432
   8   2.0000     -10.297881      -280.2196
   9   2.0000     -10.296364      -280.1783
  10   2.0000     -10.295079      -280.1433
  11   2.0000     -10.288723      -279.9704
  12   2.0000     -10.278705      -279.6978
  13   2.0000     -10.275925      -279.6221
  14   2.0000     -10.274061      -279.5714
  15   2.0000     -10.264609      -279.3142
  16   2.0000      -8.085295      -220.0121
  17   2.0000      -8.075821      -219.7543
  18   2.0000      -6.043672      -164.4567
  19   2.0000      -6.039765      -164.3504
  20   2.0000      -6.036257      -164.2549
  21   2.0000      -6.034396      -164.2043
  22   2.0000      -6.030386      -164.0951
  23   2.0000      -6.026591      -163.9919
  24   2.0000      -1.001226       -27.2447
  25   2.0000      -0.982242       -26.7282
  26   2.0000      -0.923521       -25.1303
  27   2.0000      -0.906406       -24.6646
  28   2.0000      -0.865699       -23.5569
  29   2.0000      -0.847228       -23.0542
  30   2.0000      -0.838755       -22.8237
  31   2.0000      -0.809319       -22.0227
  32   2.0000      -0.786539       -21.4028
  33   2.0000      -0.776453       -21.1283
  34   2.0000      -0.707362       -19.2483
  35   2.0000      -0.694118       -18.8879
  36   2.0000      -0.682503       -18.5719
  37   2.0000      -0.661916       -18.0116
  38   2.0000      -0.638734       -17.3808
  39   2.0000      -0.619952       -16.8698
  40   2.0000      -0.596640       -16.2354
  41   2.0000      -0.567438       -15.4408
  42   2.0000      -0.562437       -15.3047
  43   2.0000      -0.549751       -14.9595
  44   2.0000      -0.541236       -14.7278
  45   2.0000      -0.537461       -14.6251
  46   2.0000      -0.518924       -14.1206
  47   2.0000      -0.512838       -13.9550
  48   2.0000      -0.500239       -13.6122
  49   2.0000      -0.494217       -13.4483
  50   2.0000      -0.490704       -13.3527
  51   2.0000      -0.480986       -13.0883
  52   2.0000      -0.463603       -12.6153
  53   2.0000      -0.462967       -12.5980
  54   2.0000      -0.458367       -12.4728
  55   2.0000      -0.449894       -12.2422
  56   2.0000      -0.442409       -12.0386
  57   2.0000      -0.434949       -11.8356
  58   2.0000      -0.431777       -11.7493
  59   2.0000      -0.428539       -11.6612
  60   2.0000      -0.419233       -11.4079
  61   2.0000      -0.410046       -11.1579
  62   2.0000      -0.403529       -10.9806
  63   2.0000      -0.338093        -9.2000
  64   2.0000      -0.333781        -9.0826
  65   2.0000      -0.326387        -8.8815
  66   2.0000      -0.298835        -8.1317
  67   0.0000       0.031635         0.8608
  68   0.0000       0.061611         1.6765
  69   0.0000       0.106703         2.9035
  70   0.0000       0.114336         3.1112
  71   0.0000       0.123795         3.3686

MULLIKEN ATOMIC CHARGES
-----------------------
   0 S :    0.095005
   1 C :   -0.156527
   2 C :   -0.065313
   3 C :    0.042376
   4 C :   -0.150682
   5 H :    0.004844
   6 C :    0.106628
   7 H :   -0.000386
   8 H :    0.021156
   9 C :   -0.072766
  10 H :    0.024005
  11 H :    0.023969
  12 C :   -0.025484
  13 H :    0.024538
  14 H :    0.026768
  15 H :    0.020195
  16 S :    0.123191
  17 C :   -0.087818
  18 C :   -0.059520
  19 C :   -0.014305
  20 C :   -0.182922
  21 H :    0.010919
  22 C :    0.082654
  23 H :    0.026184
  24 H :    0.042856
  25 C :   -0.114048
  26 H :    0.020740
  27 H :    0.034363
  28 C :   -0.052506
  29 H :    0.035760
  30 H :    0.048153
  31 H :    0.034995
  32 H :    0.067347
  33 H :    0.065631
Sum of atomic charges:    0.0000000

LOEWDIN ATOMIC CHARGES
----------------------
   0 S :    0.390927
   1 C :   -0.188747
   2 C :   -0.065689
   3 C :   -0.064062
   4 C :   -0.188343
   5 H :    0.026311
   6 C :   -0.026627
   7 H :    0.024738
   8 H :    0.028396
   9 C :   -0.038500
  10 H :    0.019624
  11 H :    0.027037
  12 C :   -0.059563
  13 H :    0.023618
  14 H :    0.027035
  15 H :    0.020061
  16 S :    0.418979
  17 C :   -0.202538
  18 C :   -0.071343
  19 C :   -0.050793
  20 C :   -0.190523
  21 H :    0.023107
  22 C :   -0.033686
  23 H :    0.034041
  24 H :    0.037548
  25 C :   -0.046212
  26 H :    0.018879
  27 H :    0.028768
  28 C :   -0.068754
  29 H :    0.023974
  30 H :    0.023377
  31 H :    0.026190
  32 H :    0.038450
  33 H :    0.034320

  Mayer bond orders larger than 0.100000
B(  0-S ,  1-C ) :   1.1089 B(  0-S ,  4-C ) :   1.1614 B(  1-C ,  2-C ) :   1.6420
B(  1-C , 32-H ) :   0.9661 B(  2-C ,  3-C ) :   1.1999 B(  2-C ,  6-C ) :   1.0300
B(  3-C ,  4-C ) :   1.5777 B(  3-C ,  5-H ) :   1.0017 B(  4-C , 20-C ) :   1.0050
B(  6-C ,  7-H ) :   0.9442 B(  6-C ,  8-H ) :   0.9207 B(  6-C ,  9-C ) :   1.0942
B(  9-C , 10-H ) :   0.9502 B(  9-C , 11-H ) :   0.9491 B(  9-C , 12-C ) :   1.0821
B( 12-C , 13-H ) :   0.9705 B( 12-C , 14-H ) :   0.9712 B( 12-C , 15-H ) :   0.9738
B( 16-S , 17-C ) :   1.1785 B( 16-S , 20-C ) :   1.1472 B( 17-C , 18-C ) :   1.5818
B( 17-C , 20-C ) :   0.1021 B( 17-C , 33-H ) :   0.9651 B( 18-C , 19-C ) :   1.2472
B( 18-C , 21-H ) :   0.9928 B( 19-C , 20-C ) :   1.5828 B( 19-C , 22-C ) :   1.0376
B( 22-C , 23-H ) :   0.9284 B( 22-C , 24-H ) :   0.9403 B( 22-C , 25-C ) :   1.0730
B( 25-C , 26-H ) :   0.9513 B( 25-C , 27-H ) :   0.9533 B( 25-C , 28-C ) :   1.0702
B( 28-C , 29-H ) :   0.9760 B( 28-C , 30-H ) :   0.9750 B( 28-C , 31-H ) :   0.9743

Dispersion correction           -0.015529838
FINAL SINGLE POINT ENERGY     -1339.878025417101

DIPOLE MOMENT
-------------
                                X             Y             Z
Electronic contribution:     -7.73206      -3.96404      -3.98606
Nuclear contribution   :      7.69203       4.00482       4.05067
                        -----------------------------------------
Total Dipole Moment    :     -0.04003       0.04078       0.06461
                        -----------------------------------------
Magnitude (a.u.)       :      0.08626
Magnitude (Debye)      :      0.21925

Rotational constants in cm-1:     0.023787     0.008512     0.006954
Rotational constants in MHz :   713.104504   255.176842   208.469792

                             ****ORCA TERMINATED NORMALLY****
TOTAL RUN TIME: 0 days 0 hours 0 minutes 21 seconds 992 msec
