                         Program Version 4.2.1 -  RELEASE  -
|  1> ! wB97X-D3 SP def2-SVP
|  2> %pal
|  3> nprocs 24
|  4> end
|  5>
|  6> * xyz 0 1
|  7> S 	 35.5552 	 -28.2426 	 -122.474
|  8> C 	 37.0185 	 -28.6597 	 -121.584
|  9> C 	 37.0775 	 -30.0308 	 -121.289
| 10> C 	 35.9846 	 -30.7577 	 -121.906
| 11> C 	 35.0969 	 -29.9308 	 -122.618
| 12> H 	 35.8008 	 -31.7919 	 -121.837
| 13> C 	 38.1132 	 -30.6677 	 -120.304
| 14> H 	 38.9177 	 -29.9213 	 -120.055
| 15> H 	 38.6962 	 -31.5097 	 -120.734
| 16> C 	 37.5008 	 -31.2339 	 -119.072
| 17> H 	 36.8343 	 -32.0625 	 -119.273
| 18> H 	 38.2322 	 -31.6273 	 -118.416
| 19> C 	 36.6709 	 -30.1483 	 -118.292
| 20> H 	 35.7857 	 -29.7576 	 -118.808
| 21> H 	 36.2627 	 -30.4358 	 -117.294
| 22> H 	 37.4245 	 -29.3313 	 -118.141
| 23> S 	 33.9164 	 -31.1411 	 -124.809
| 24> C 	 32.2004 	 -31.54 	 -124.811
| 25> C 	 31.6287 	 -31.2606 	 -123.577
| 26> C 	 32.5531 	 -30.571 	 -122.684
| 27> C 	 33.8361 	 -30.454 	 -123.201
| 28> H 	 30.6553 	 -31.5043 	 -123.334
| 29> C 	 32.0237 	 -30.0633 	 -121.372
| 30> H 	 31.223 	 -29.2757 	 -121.497
| 31> H 	 32.8622 	 -29.5472 	 -120.871
| 32> C 	 31.6112 	 -31.1233 	 -120.311
| 33> H 	 32.3567 	 -31.9246 	 -120.297
| 34> H 	 30.6536 	 -31.4621 	 -120.581
| 35> C 	 31.6161 	 -30.495 	 -118.932
| 36> H 	 31.5474 	 -31.3878 	 -118.198
| 37> H 	 30.7557 	 -29.9776 	 -118.618
| 38> H 	 32.4185 	 -29.9281 	 -118.667
| 39> H 	 37.723 	 -27.9262 	 -121.303
| 40> H 	 31.6001 	 -32.0171 	 -125.625
| 41> *
| 42>
| 43>                          ****END OF INPUT****

CARTESIAN COORDINATES (ANGSTROEM)
---------------------------------
  S     35.555200  -28.242600  -122.474000
  C     37.018500  -28.659700  -121.584000
  C     37.077500  -30.030800  -121.289000
  C     35.984600  -30.757700  -121.906000
  C     35.096900  -29.930800  -122.618000
  H     35.800800  -31.791900  -121.837000
  C     38.113200  -30.667700  -120.304000
  H     38.917700  -29.921300  -120.055000
  H     38.696200  -31.509700  -120.734000
  C     37.500800  -31.233900  -119.072000
  H     36.834300  -32.062500  -119.273000
  H     38.232200  -31.627300  -118.416000
  C     36.670900  -30.148300  -118.292000
  H     35.785700  -29.757600  -118.808000
  H     36.262700  -30.435800  -117.294000
  H     37.424500  -29.331300  -118.141000
  S     33.916400  -31.141100  -124.809000
  C     32.200400  -31.540000  -124.811000
  C     31.628700  -31.260600  -123.577000
  C     32.553100  -30.571000  -122.684000
  C     33.836100  -30.454000  -123.201000
  H     30.655300  -31.504300  -123.334000
  C     32.023700  -30.063300  -121.372000
  H     31.223000  -29.275700  -121.497000
  H     32.862200  -29.547200  -120.871000
  C     31.611200  -31.123300  -120.311000
  H     32.356700  -31.924600  -120.297000
  H     30.653600  -31.462100  -120.581000
  C     31.616100  -30.495000  -118.932000
  H     31.547400  -31.387800  -118.198000
  H     30.755700  -29.977600  -118.618000
  H     32.418500  -29.928100  -118.667000
  H     37.723000  -27.926200  -121.303000
  H     31.600100  -32.017100  -125.625000

 Total Charge           Charge          ....    0
 Multiplicity           Mult            ....    1
 Number of Electrons    NEL             ....  134
 Basis Dimension        Dim             ....  322

ORBITAL ENERGIES
----------------

  NO   OCC          E(Eh)            E(eV)
   0   2.0000     -88.970846     -2421.0198
   1   2.0000     -88.964749     -2420.8539
   2   2.0000     -10.334476      -281.2154
   3   2.0000     -10.328142      -281.0430
   4   2.0000     -10.322321      -280.8846
   5   2.0000     -10.318391      -280.7777
   6   2.0000     -10.311701      -280.5957
   7   2.0000     -10.303766      -280.3797
   8   2.0000     -10.301615      -280.3212
   9   2.0000     -10.298246      -280.2295
  10   2.0000     -10.290757      -280.0257
  11   2.0000     -10.290017      -280.0056
  12   2.0000     -10.284547      -279.8568
  13   2.0000     -10.284223      -279.8479
  14   2.0000     -10.280730      -279.7529
  15   2.0000     -10.270991      -279.4879
  16   2.0000      -8.084796      -219.9985
  17   2.0000      -8.079204      -219.8463
  18   2.0000      -6.043280      -164.4460
  19   2.0000      -6.039346      -164.3390
  20   2.0000      -6.037849      -164.2982
  21   2.0000      -6.035697      -164.2397
  22   2.0000      -6.033696      -164.1852
  23   2.0000      -6.029884      -164.0815
  24   2.0000      -0.999459       -27.1967
  25   2.0000      -0.978280       -26.6203
  26   2.0000      -0.911924       -24.8147
  27   2.0000      -0.908652       -24.7257
  28   2.0000      -0.865030       -23.5387
  29   2.0000      -0.849704       -23.1216
  30   2.0000      -0.841001       -22.8848
  31   2.0000      -0.811095       -22.0710
  32   2.0000      -0.779600       -21.2140
  33   2.0000      -0.769819       -20.9479
  34   2.0000      -0.707830       -19.2610
  35   2.0000      -0.699086       -19.0231
  36   2.0000      -0.689996       -18.7757
  37   2.0000      -0.661937       -18.0122
  38   2.0000      -0.646260       -17.5856
  39   2.0000      -0.617930       -16.8147
  40   2.0000      -0.592621       -16.1260
  41   2.0000      -0.574608       -15.6359
  42   2.0000      -0.566719       -15.4212
  43   2.0000      -0.552724       -15.0404
  44   2.0000      -0.544303       -14.8112
  45   2.0000      -0.520012       -14.1503
  46   2.0000      -0.517614       -14.0850
  47   2.0000      -0.511614       -13.9217
  48   2.0000      -0.503488       -13.7006
  49   2.0000      -0.495872       -13.4934
  50   2.0000      -0.484977       -13.1969
  51   2.0000      -0.478355       -13.0167
  52   2.0000      -0.466593       -12.6966
  53   2.0000      -0.466212       -12.6863
  54   2.0000      -0.457346       -12.4450
  55   2.0000      -0.448002       -12.1908
  56   2.0000      -0.444156       -12.0861
  57   2.0000      -0.441000       -12.0002
  58   2.0000      -0.424767       -11.5585
  59   2.0000      -0.422540       -11.4979
  60   2.0000      -0.420029       -11.4296
  61   2.0000      -0.415072       -11.2947
  62   2.0000      -0.412285       -11.2189
  63   2.0000      -0.334899        -9.1131
  64   2.0000      -0.330094        -8.9823
  65   2.0000      -0.321637        -8.7522
  66   2.0000      -0.309693        -8.4272
  67   0.0000       0.044483         1.2105
  68   0.0000       0.053184         1.4472
  69   0.0000       0.110512         3.0072
  70   0.0000       0.121081         3.2948
  71   0.0000       0.126575         3.4443

MULLIKEN ATOMIC CHARGES
-----------------------
   0 S :    0.124068
   1 C :   -0.119349
   2 C :   -0.064484
   3 C :    0.055615
   4 C :   -0.168010
   5 H :    0.004224
   6 C :    0.048549
   7 H :    0.028239
   8 H :    0.038722
   9 C :   -0.051309
  10 H :    0.027234
  11 H :    0.025556
  12 C :   -0.094968
  13 H :    0.050576
  14 H :    0.034963
  15 H :    0.026553
  16 S :    0.109340
  17 C :   -0.105529
  18 C :   -0.000037
  19 C :   -0.014795
  20 C :   -0.189145
  21 H :   -0.009078
  22 C :    0.018832
  23 H :    0.049148
  24 H :    0.011557
  25 C :   -0.032209
  26 H :    0.034611
  27 H :    0.018862
  28 C :   -0.036775
  29 H :    0.027161
  30 H :    0.018062
  31 H :    0.018543
  32 H :    0.040173
  33 H :    0.075099
Sum of atomic charges:    0.0000000

LOEWDIN ATOMIC CHARGES
----------------------
   0 S :    0.408273
   1 C :   -0.185347
   2 C :   -0.055779
   3 C :   -0.047999
   4 C :   -0.201984
   5 H :    0.025139
   6 C :   -0.034521
   7 H :    0.032894
   8 H :    0.035684
   9 C :   -0.041282
  10 H :    0.021029
  11 H :    0.022808
  12 C :   -0.074290
  13 H :    0.025814
  14 H :    0.025466
  15 H :    0.025656
  16 S :    0.404535
  17 C :   -0.188424
  18 C :   -0.061874
  19 C :   -0.054420
  20 C :   -0.206438
  21 H :    0.016844
  22 C :   -0.042395
  23 H :    0.038194
  24 H :    0.026332
  25 C :   -0.027641
  26 H :    0.028831
  27 H :    0.015834
  28 C :   -0.060381
  29 H :    0.037548
  30 H :    0.019296
  31 H :    0.010926
  32 H :    0.019623
  33 H :    0.042050

  Mayer bond orders larger than 0.100000
B(  0-S ,  1-C ) :   1.1499 B(  0-S ,  4-C ) :   1.1502 B(  1-C ,  2-C ) :   1.5950
B(  1-C , 32-H ) :   0.9745 B(  2-C ,  3-C ) :   1.2362 B(  2-C ,  6-C ) :   1.0170
B(  3-C ,  4-C ) :   1.5780 B(  3-C ,  5-H ) :   0.9989 B(  4-C , 20-C ) :   1.0038
B(  6-C ,  7-H ) :   0.9449 B(  6-C ,  8-H ) :   0.9402 B(  6-C ,  9-C ) :   1.0831
B(  9-C , 10-H ) :   0.9532 B(  9-C , 11-H ) :   0.9537 B(  9-C , 12-C ) :   1.0606
B( 12-C , 13-H ) :   0.9747 B( 12-C , 14-H ) :   0.9770 B( 12-C , 15-H ) :   0.9778
B( 16-S , 17-C ) :   1.1507 B( 16-S , 20-C ) :   1.1370 B( 17-C , 18-C ) :   1.6177
B( 17-C , 33-H ) :   0.9610 B( 18-C , 19-C ) :   1.2216 B( 18-C , 21-H ) :   1.0005
B( 19-C , 20-C ) :   1.6200 B( 19-C , 22-C ) :   1.0566 B( 22-C , 23-H ) :   0.9372
B( 22-C , 24-H ) :   0.9348 B( 22-C , 25-C ) :   1.0584 B( 25-C , 26-H ) :   0.9583
B( 25-C , 27-H ) :   0.9515 B( 25-C , 28-C ) :   1.0940 B( 28-C , 29-H ) :   0.9721
B( 28-C , 30-H ) :   0.9724 B( 28-C , 31-H ) :   0.9764

Dispersion correction           -0.015088043
FINAL SINGLE POINT ENERGY     -1339.872567958617

DIPOLE MOMENT
-------------
                                X             Y             Z
Electronic contribution:      1.93332       5.38550     -28.30325
Nuclear contribution   :     -2.06301      -5.65951      28.91949
                        -----------------------------------------
Total Dipole Moment    :     -0.12969      -0.27400       0.61624
                        -----------------------------------------
Magnitude (a.u.)       :      0.68677
Magnitude (Debye)      :      1.74563

Rotational constants in cm-1:     0.017102     0.009718     0.007467
Rotational constants in MHz :   512.706447   291.333121   223.869250

                             ****ORCA TERMINATED NORMALLY****
TOTAL RUN TIME: 0 days 0 hours 0 minutes 22 seconds 120 msec
