                         Program Version 4.2.1 -  RELEASE  -
|  1> ! wB97X-D3 SP def2-SVP
|  2> %pal
|  3> nprocs 24
|  4> end
|  5>
|  6> * xyz 0 1
|  7> S 	 -72.9878 	 8.43649 	 17.0817
|  8> C 	 -71.3806 	 9.0016 	 16.7144
|  9> C 	 -70.4188 	 7.95225 	 16.8061
| 10> C 	 -71.0428 	 6.78334 	 17.4052
| 11> C 	 -72.3447 	 7.0189 	 17.8154
| 12> H 	 -70.4977 	 5.86169 	 17.6085
| 13> C 	 -68.9831 	 7.93834 	 16.2565
| 14> H 	 -68.2471 	 8.33918 	 16.9341
| 15> H 	 -68.9309 	 8.51533 	 15.2932
| 16> C 	 -68.4698 	 6.51164 	 15.9078
| 17> H 	 -68.1137 	 6.06857 	 16.8334
| 18> H 	 -69.2803 	 5.92198 	 15.298
| 19> C 	 -67.18 	 6.66354 	 15.0198
| 20> H 	 -67.4655 	 7.2765 	 14.1135
| 21> H 	 -66.3311 	 7.12468 	 15.5991
| 22> H 	 -66.8417 	 5.75922 	 14.5925
| 23> S 	 -74.8388 	 5.8405 	 17.9805
| 24> C 	 -75.0572 	 4.37348 	 18.9272
| 25> C 	 -73.9188 	 4.12272 	 19.6902
| 26> C 	 -72.962 	 5.16049 	 19.5323
| 27> C 	 -73.2695 	 6.07381 	 18.4813
| 28> H 	 -73.9111 	 3.17397 	 20.2576
| 29> C 	 -71.6459 	 5.10429 	 20.2677
| 30> H 	 -71.8973 	 4.99174 	 21.2733
| 31> H 	 -71.0821 	 6.07436 	 20.1837
| 32> C 	 -70.7448 	 3.889 	 19.7769
| 33> H 	 -70.3095 	 4.03435 	 18.8292
| 34> H 	 -71.3665 	 2.948 	 19.7084
| 35> C 	 -69.6008 	 3.62064 	 20.7856
| 36> H 	 -69.0003 	 4.49616 	 20.9801
| 37> H 	 -68.8716 	 2.87511 	 20.4176
| 38> H 	 -70.0032 	 3.31766 	 21.7169
| 39> H 	 -71.1792 	 9.96665 	 16.2781
| 40> H 	 -75.9867 	 3.93187 	 19.0557
| 41> *
| 42>
| 43>                          ****END OF INPUT****

CARTESIAN COORDINATES (ANGSTROEM)
---------------------------------
  S    -72.987800    8.436490   17.081700
  C    -71.380600    9.001600   16.714400
  C    -70.418800    7.952250   16.806100
  C    -71.042800    6.783340   17.405200
  C    -72.344700    7.018900   17.815400
  H    -70.497700    5.861690   17.608500
  C    -68.983100    7.938340   16.256500
  H    -68.247100    8.339180   16.934100
  H    -68.930900    8.515330   15.293200
  C    -68.469800    6.511640   15.907800
  H    -68.113700    6.068570   16.833400
  H    -69.280300    5.921980   15.298000
  C    -67.180000    6.663540   15.019800
  H    -67.465500    7.276500   14.113500
  H    -66.331100    7.124680   15.599100
  H    -66.841700    5.759220   14.592500
  S    -74.838800    5.840500   17.980500
  C    -75.057200    4.373480   18.927200
  C    -73.918800    4.122720   19.690200
  C    -72.962000    5.160490   19.532300
  C    -73.269500    6.073810   18.481300
  H    -73.911100    3.173970   20.257600
  C    -71.645900    5.104290   20.267700
  H    -71.897300    4.991740   21.273300
  H    -71.082100    6.074360   20.183700
  C    -70.744800    3.889000   19.776900
  H    -70.309500    4.034350   18.829200
  H    -71.366500    2.948000   19.708400
  C    -69.600800    3.620640   20.785600
  H    -69.000300    4.496160   20.980100
  H    -68.871600    2.875110   20.417600
  H    -70.003200    3.317660   21.716900
  H    -71.179200    9.966650   16.278100
  H    -75.986700    3.931870   19.055700

 Total Charge           Charge          ....    0
 Multiplicity           Mult            ....    1
 Number of Electrons    NEL             ....  134
 Basis Dimension        Dim             ....  322

ORBITAL ENERGIES
----------------

  NO   OCC          E(Eh)            E(eV)
   0   2.0000     -88.966872     -2420.9117
   1   2.0000     -88.963833     -2420.8290
   2   2.0000     -10.330354      -281.1032
   3   2.0000     -10.323698      -280.9221
   4   2.0000     -10.317113      -280.7429
   5   2.0000     -10.311923      -280.6017
   6   2.0000     -10.310473      -280.5622
   7   2.0000     -10.301783      -280.3258
   8   2.0000     -10.301258      -280.3115
   9   2.0000     -10.299829      -280.2726
  10   2.0000     -10.298008      -280.2230
  11   2.0000     -10.297467      -280.2083
  12   2.0000     -10.290856      -280.0284
  13   2.0000     -10.288937      -279.9762
  14   2.0000     -10.287209      -279.9292
  15   2.0000     -10.274311      -279.5782
  16   2.0000      -8.082385      -219.9329
  17   2.0000      -8.080040      -219.8691
  18   2.0000      -6.040780      -164.3780
  19   2.0000      -6.038293      -164.3103
  20   2.0000      -6.037002      -164.2752
  21   2.0000      -6.034234      -164.1999
  22   2.0000      -6.033021      -164.1668
  23   2.0000      -6.031101      -164.1146
  24   2.0000      -1.011091       -27.5132
  25   2.0000      -0.985825       -26.8257
  26   2.0000      -0.909338       -24.7443
  27   2.0000      -0.903077       -24.5740
  28   2.0000      -0.867340       -23.6015
  29   2.0000      -0.849631       -23.1196
  30   2.0000      -0.843562       -22.9545
  31   2.0000      -0.814162       -22.1545
  32   2.0000      -0.777980       -21.1699
  33   2.0000      -0.766090       -20.8464
  34   2.0000      -0.705988       -19.2109
  35   2.0000      -0.701709       -19.0945
  36   2.0000      -0.687368       -18.7042
  37   2.0000      -0.659377       -17.9426
  38   2.0000      -0.637620       -17.3505
  39   2.0000      -0.623443       -16.9648
  40   2.0000      -0.593917       -16.1613
  41   2.0000      -0.578891       -15.7524
  42   2.0000      -0.565505       -15.3882
  43   2.0000      -0.560427       -15.2500
  44   2.0000      -0.526244       -14.3198
  45   2.0000      -0.520356       -14.1596
  46   2.0000      -0.512985       -13.9590
  47   2.0000      -0.508841       -13.8463
  48   2.0000      -0.501182       -13.6378
  49   2.0000      -0.499359       -13.5883
  50   2.0000      -0.494979       -13.4691
  51   2.0000      -0.474005       -12.8983
  52   2.0000      -0.467669       -12.7259
  53   2.0000      -0.461598       -12.5607
  54   2.0000      -0.459116       -12.4932
  55   2.0000      -0.457282       -12.4433
  56   2.0000      -0.443410       -12.0658
  57   2.0000      -0.440846       -11.9960
  58   2.0000      -0.437137       -11.8951
  59   2.0000      -0.427339       -11.6285
  60   2.0000      -0.422149       -11.4873
  61   2.0000      -0.419629       -11.4187
  62   2.0000      -0.413311       -11.2468
  63   2.0000      -0.350637        -9.5413
  64   2.0000      -0.332267        -9.0414
  65   2.0000      -0.323175        -8.7940
  66   2.0000      -0.282554        -7.6887
  67   0.0000       0.024202         0.6586
  68   0.0000       0.073981         2.0131
  69   0.0000       0.097003         2.6396
  70   0.0000       0.120137         3.2691
  71   0.0000       0.129502         3.5239

MULLIKEN ATOMIC CHARGES
-----------------------
   0 S :    0.108831
   1 C :   -0.109662
   2 C :   -0.088559
   3 C :    0.013989
   4 C :   -0.124386
   5 H :    0.008389
   6 C :    0.056170
   7 H :    0.038491
   8 H :    0.033523
   9 C :   -0.154345
  10 H :    0.043109
  11 H :    0.067024
  12 C :   -0.052829
  13 H :    0.034423
  14 H :    0.043656
  15 H :    0.026952
  16 S :    0.102649
  17 C :   -0.090846
  18 C :   -0.048815
  19 C :   -0.060703
  20 C :   -0.110987
  21 H :    0.041387
  22 C :    0.068885
  23 H :    0.010241
  24 H :    0.043409
  25 C :   -0.084952
  26 H :    0.023991
  27 H :    0.036311
  28 C :   -0.034934
  29 H :    0.021504
  30 H :    0.034483
  31 H :    0.021492
  32 H :    0.043589
  33 H :    0.038520
Sum of atomic charges:   -0.0000000

LOEWDIN ATOMIC CHARGES
----------------------
   0 S :    0.419330
   1 C :   -0.199230
   2 C :   -0.058601
   3 C :   -0.062477
   4 C :   -0.194620
   5 H :    0.030672
   6 C :   -0.035447
   7 H :    0.031084
   8 H :    0.034069
   9 C :   -0.048720
  10 H :    0.022664
  11 H :    0.040470
  12 C :   -0.069233
  13 H :    0.029327
  14 H :    0.031179
  15 H :    0.017384
  16 S :    0.436430
  17 C :   -0.180604
  18 C :   -0.069540
  19 C :   -0.062866
  20 C :   -0.230446
  21 H :    0.041461
  22 C :   -0.030550
  23 H :    0.021790
  24 H :    0.037036
  25 C :   -0.031306
  26 H :    0.012010
  27 H :    0.029226
  28 C :   -0.065268
  29 H :    0.021369
  30 H :    0.028338
  31 H :    0.017390
  32 H :    0.023362
  33 H :    0.014318

  Mayer bond orders larger than 0.100000
B(  0-S ,  1-C ) :   1.1513 B(  0-S ,  4-C ) :   1.1646 B(  1-C ,  2-C ) :   1.5916
B(  1-C , 32-H ) :   0.9749 B(  2-C ,  3-C ) :   1.2607 B(  2-C ,  6-C ) :   1.0092
B(  3-C ,  4-C ) :   1.5324 B(  3-C ,  5-H ) :   0.9896 B(  4-C , 20-C ) :   1.0394
B(  6-C ,  7-H ) :   0.9326 B(  6-C ,  8-H ) :   0.9522 B(  6-C ,  9-C ) :   1.0730
B(  9-C , 10-H ) :   0.9464 B(  9-C , 11-H ) :   0.9564 B(  9-C , 12-C ) :   1.0788
B( 12-C , 13-H ) :   0.9747 B( 12-C , 14-H ) :   0.9736 B( 12-C , 15-H ) :   0.9749
B( 16-S , 17-C ) :   1.1711 B( 16-S , 20-C ) :   1.1718 B( 17-C , 18-C ) :   1.5661
B( 17-C , 20-C ) :   0.1046 B( 17-C , 33-H ) :   0.9782 B( 18-C , 19-C ) :   1.2768
B( 18-C , 21-H ) :   0.9885 B( 19-C , 20-C ) :   1.5255 B( 19-C , 22-C ) :   1.0590
B( 22-C , 23-H ) :   0.9318 B( 22-C , 24-H ) :   0.9336 B( 22-C , 25-C ) :   1.0475
B( 25-C , 26-H ) :   0.9560 B( 25-C , 27-H ) :   0.9580 B( 25-C , 28-C ) :   1.0778
B( 28-C , 29-H ) :   0.9735 B( 28-C , 30-H ) :   0.9745 B( 28-C , 31-H ) :   0.9779

Dispersion correction           -0.014124246
FINAL SINGLE POINT ENERGY     -1339.863553524226

DIPOLE MOMENT
-------------
                                X             Y             Z
Electronic contribution:    -30.76642      11.17953      -1.74233
Nuclear contribution   :     31.42296     -11.51883       1.77547
                        -----------------------------------------
Total Dipole Moment    :      0.65654      -0.33930       0.03314
                        -----------------------------------------
Magnitude (a.u.)       :      0.73977
Magnitude (Debye)      :      1.88036

Rotational constants in cm-1:     0.016451     0.009623     0.006685
Rotational constants in MHz :   493.176680   288.487770   200.408376

                             ****ORCA TERMINATED NORMALLY****
TOTAL RUN TIME: 0 days 0 hours 0 minutes 21 seconds 759 msec
