                         Program Version 4.2.1 -  RELEASE  -
|  1> ! wB97X-D3 SP def2-SVP
|  2> %pal
|  3> nprocs 24
|  4> end
|  5>
|  6> * xyz 0 1
|  7> S 	 -110.219 	 50.0229 	 -84.0624
|  8> C 	 -110.153 	 48.8546 	 -85.3548
|  9> C 	 -110.543 	 49.2729 	 -86.5993
| 10> C 	 -111.052 	 50.6429 	 -86.442
| 11> C 	 -110.947 	 51.224 	 -85.206
| 12> H 	 -111.4 	 51.2285 	 -87.2491
| 13> C 	 -110.635 	 48.4767 	 -87.9006
| 14> H 	 -111.464 	 48.8602 	 -88.5197
| 15> H 	 -110.912 	 47.5103 	 -87.6045
| 16> C 	 -109.315 	 48.5041 	 -88.6577
| 17> H 	 -109.229 	 49.5822 	 -88.9197
| 18> H 	 -108.455 	 48.158 	 -87.9621
| 19> C 	 -109.267 	 47.5778 	 -89.946
| 20> H 	 -109.406 	 46.4864 	 -89.9355
| 21> H 	 -109.757 	 48.0257 	 -90.7463
| 22> H 	 -108.243 	 47.5339 	 -90.3416
| 23> S 	 -112.048 	 52.7397 	 -83.2307
| 24> C 	 -111.976 	 54.4974 	 -83.3434
| 25> C 	 -111.841 	 54.8629 	 -84.6462
| 26> C 	 -111.424 	 53.7874 	 -85.4591
| 27> C 	 -111.393 	 52.5958 	 -84.8436
| 28> H 	 -111.921 	 55.8515 	 -84.9533
| 29> C 	 -111.005 	 54.0882 	 -86.8951
| 30> H 	 -111.351 	 55.1287 	 -87.1533
| 31> H 	 -111.479 	 53.39 	 -87.5746
| 32> C 	 -109.501 	 54.0075 	 -87.1378
| 33> H 	 -109.235 	 54.4724 	 -88.0721
| 34> H 	 -109.238 	 52.9084 	 -87.1651
| 35> C 	 -108.756 	 54.7822 	 -86.0357
| 36> H 	 -109.003 	 54.358 	 -85.0713
| 37> H 	 -109.067 	 55.7944 	 -86.0339
| 38> H 	 -107.707 	 54.7442 	 -86.1823
| 39> H 	 -109.626 	 47.9253 	 -85.2475
| 40> H 	 -112.329 	 55.0987 	 -82.4779
| 41> *
| 42>
| 43>                          ****END OF INPUT****

CARTESIAN COORDINATES (ANGSTROEM)
---------------------------------
  S    -110.219000   50.022900  -84.062400
  C    -110.153000   48.854600  -85.354800
  C    -110.543000   49.272900  -86.599300
  C    -111.052000   50.642900  -86.442000
  C    -110.947000   51.224000  -85.206000
  H    -111.400000   51.228500  -87.249100
  C    -110.635000   48.476700  -87.900600
  H    -111.464000   48.860200  -88.519700
  H    -110.912000   47.510300  -87.604500
  C    -109.315000   48.504100  -88.657700
  H    -109.229000   49.582200  -88.919700
  H    -108.455000   48.158000  -87.962100
  C    -109.267000   47.577800  -89.946000
  H    -109.406000   46.486400  -89.935500
  H    -109.757000   48.025700  -90.746300
  H    -108.243000   47.533900  -90.341600
  S    -112.048000   52.739700  -83.230700
  C    -111.976000   54.497400  -83.343400
  C    -111.841000   54.862900  -84.646200
  C    -111.424000   53.787400  -85.459100
  C    -111.393000   52.595800  -84.843600
  H    -111.921000   55.851500  -84.953300
  C    -111.005000   54.088200  -86.895100
  H    -111.351000   55.128700  -87.153300
  H    -111.479000   53.390000  -87.574600
  C    -109.501000   54.007500  -87.137800
  H    -109.235000   54.472400  -88.072100
  H    -109.238000   52.908400  -87.165100
  C    -108.756000   54.782200  -86.035700
  H    -109.003000   54.358000  -85.071300
  H    -109.067000   55.794400  -86.033900
  H    -107.707000   54.744200  -86.182300
  H    -109.626000   47.925300  -85.247500
  H    -112.329000   55.098700  -82.477900

 Total Charge           Charge          ....    0
 Multiplicity           Mult            ....    1
 Number of Electrons    NEL             ....  134
 Basis Dimension        Dim             ....  322

ORBITAL ENERGIES
----------------

  NO   OCC          E(Eh)            E(eV)
   0   2.0000     -88.968885     -2420.9664
   1   2.0000     -88.959268     -2420.7047
   2   2.0000     -10.334931      -281.2278
   3   2.0000     -10.325137      -280.9613
   4   2.0000     -10.318748      -280.7874
   5   2.0000     -10.313551      -280.6460
   6   2.0000     -10.304905      -280.4107
   7   2.0000     -10.304633      -280.4033
   8   2.0000     -10.296770      -280.1893
   9   2.0000     -10.293904      -280.1114
  10   2.0000     -10.293373      -280.0969
  11   2.0000     -10.292282      -280.0672
  12   2.0000     -10.288525      -279.9650
  13   2.0000     -10.283351      -279.8242
  14   2.0000     -10.280278      -279.7406
  15   2.0000     -10.262454      -279.2556
  16   2.0000      -8.082599      -219.9387
  17   2.0000      -8.074645      -219.7223
  18   2.0000      -6.041333      -164.3930
  19   2.0000      -6.037325      -164.2840
  20   2.0000      -6.033133      -164.1699
  21   2.0000      -6.033105      -164.1691
  22   2.0000      -6.029252      -164.0643
  23   2.0000      -6.025194      -163.9539
  24   2.0000      -1.009252       -27.4631
  25   2.0000      -0.984228       -26.7822
  26   2.0000      -0.910830       -24.7849
  27   2.0000      -0.909483       -24.7483
  28   2.0000      -0.869767       -23.6676
  29   2.0000      -0.847736       -23.0681
  30   2.0000      -0.841526       -22.8991
  31   2.0000      -0.817410       -22.2428
  32   2.0000      -0.786125       -21.3915
  33   2.0000      -0.778070       -21.1724
  34   2.0000      -0.704366       -19.1668
  35   2.0000      -0.702762       -19.1231
  36   2.0000      -0.685372       -18.6499
  37   2.0000      -0.672739       -18.3062
  38   2.0000      -0.641001       -17.4425
  39   2.0000      -0.619690       -16.8626
  40   2.0000      -0.590300       -16.0629
  41   2.0000      -0.574242       -15.6259
  42   2.0000      -0.564504       -15.3609
  43   2.0000      -0.559485       -15.2244
  44   2.0000      -0.549991       -14.9660
  45   2.0000      -0.521942       -14.2028
  46   2.0000      -0.514738       -14.0067
  47   2.0000      -0.510217       -13.8837
  48   2.0000      -0.498435       -13.5631
  49   2.0000      -0.495487       -13.4829
  50   2.0000      -0.488283       -13.2868
  51   2.0000      -0.481383       -13.0991
  52   2.0000      -0.470162       -12.7937
  53   2.0000      -0.468020       -12.7355
  54   2.0000      -0.464574       -12.6417
  55   2.0000      -0.444321       -12.0906
  56   2.0000      -0.439653       -11.9636
  57   2.0000      -0.432257       -11.7623
  58   2.0000      -0.431643       -11.7456
  59   2.0000      -0.425351       -11.5744
  60   2.0000      -0.422970       -11.5096
  61   2.0000      -0.420386       -11.4393
  62   2.0000      -0.410901       -11.1812
  63   2.0000      -0.356892        -9.7115
  64   2.0000      -0.330812        -9.0018
  65   2.0000      -0.330436        -8.9916
  66   2.0000      -0.292124        -7.9491
  67   0.0000       0.025230         0.6865
  68   0.0000       0.075827         2.0634
  69   0.0000       0.096282         2.6200
  70   0.0000       0.116868         3.1801
  71   0.0000       0.131996         3.5918

MULLIKEN ATOMIC CHARGES
-----------------------
   0 S :    0.115578
   1 C :   -0.110686
   2 C :   -0.102973
   3 C :    0.023475
   4 C :   -0.109229
   5 H :   -0.020558
   6 C :    0.114434
   7 H :    0.031784
   8 H :    0.010128
   9 C :   -0.116598
  10 H :    0.040319
  11 H :    0.050366
  12 C :   -0.028250
  13 H :    0.038838
  14 H :    0.018740
  15 H :    0.018915
  16 S :    0.079620
  17 C :   -0.109212
  18 C :    0.006454
  19 C :   -0.080388
  20 C :   -0.137464
  21 H :   -0.005153
  22 C :    0.058734
  23 H :    0.019931
  24 H :    0.029166
  25 C :   -0.080854
  26 H :    0.025424
  27 H :    0.043333
  28 C :   -0.021889
  29 H :    0.046101
  30 H :    0.012080
  31 H :    0.025978
  32 H :    0.040255
  33 H :    0.073603
Sum of atomic charges:   -0.0000000

LOEWDIN ATOMIC CHARGES
----------------------
   0 S :    0.381024
   1 C :   -0.188641
   2 C :   -0.058181
   3 C :   -0.055598
   4 C :   -0.178250
   5 H :    0.018487
   6 C :   -0.028800
   7 H :    0.035097
   8 H :    0.022232
   9 C :   -0.039253
  10 H :    0.031994
  11 H :    0.034902
  12 C :   -0.080062
  13 H :    0.031825
  14 H :    0.016081
  15 H :    0.031478
  16 S :    0.389489
  17 C :   -0.174339
  18 C :   -0.060663
  19 C :   -0.066798
  20 C :   -0.186540
  21 H :    0.021671
  22 C :   -0.029198
  23 H :    0.031286
  24 H :    0.023331
  25 C :   -0.038525
  26 H :    0.020073
  27 H :    0.028436
  28 C :   -0.056672
  29 H :    0.027989
  30 H :    0.017477
  31 H :    0.020299
  32 H :    0.023471
  33 H :    0.034879

  Mayer bond orders larger than 0.100000
B(  0-S ,  1-C ) :   1.1355 B(  0-S ,  4-C ) :   1.1120 B(  1-C ,  2-C ) :   1.6602
B(  1-C , 32-H ) :   0.9543 B(  2-C ,  3-C ) :   1.2098 B(  2-C ,  6-C ) :   1.0114
B(  3-C ,  4-C ) :   1.6137 B(  3-C ,  5-H ) :   0.9934 B(  4-C , 20-C ) :   1.0399
B(  6-C ,  7-H ) :   0.9443 B(  6-C ,  8-H ) :   0.9370 B(  6-C ,  9-C ) :   1.0510
B(  9-C , 10-H ) :   0.9569 B(  9-C , 11-H ) :   0.9623 B(  9-C , 12-C ) :   1.0694
B( 12-C , 13-H ) :   0.9763 B( 12-C , 14-H ) :   0.9747 B( 12-C , 15-H ) :   0.9702
B( 16-S , 17-C ) :   1.1488 B( 16-S , 20-C ) :   1.1315 B( 17-C , 18-C ) :   1.6030
B( 17-C , 33-H ) :   0.9645 B( 18-C , 19-C ) :   1.2311 B( 18-C , 21-H ) :   1.0031
B( 19-C , 20-C ) :   1.6398 B( 19-C , 22-C ) :   1.0287 B( 22-C , 23-H ) :   0.9350
B( 22-C , 24-H ) :   0.9376 B( 22-C , 25-C ) :   1.0760 B( 25-C , 26-H ) :   0.9575
B( 25-C , 27-H ) :   0.9514 B( 25-C , 28-C ) :   1.0822 B( 28-C , 29-H ) :   0.9684
B( 28-C , 30-H ) :   0.9744 B( 28-C , 31-H ) :   0.9739

Dispersion correction           -0.014935314
FINAL SINGLE POINT ENERGY     -1339.867694735132

DIPOLE MOMENT
-------------
                                X             Y             Z
Electronic contribution:    -11.27640       1.26446      26.12828
Nuclear contribution   :     11.40759      -1.18736     -26.87429
                        -----------------------------------------
Total Dipole Moment    :      0.13120       0.07711      -0.74601
                        -----------------------------------------
Magnitude (a.u.)       :      0.76137
Magnitude (Debye)      :      1.93525

Rotational constants in cm-1:     0.021922     0.008183     0.006610
Rotational constants in MHz :   657.206466   245.308017   198.163289

                             ****ORCA TERMINATED NORMALLY****
TOTAL RUN TIME: 0 days 0 hours 0 minutes 22 seconds 305 msec
