                         Program Version 4.2.1 -  RELEASE  -
|  1> ! wB97X-D3 SP def2-SVP
|  2> %pal
|  3> nprocs 24
|  4> end
|  5>
|  6> * xyz 0 1
|  7> S 	 -127.12 	 59.4636 	 -52.2882
|  8> C 	 -128.286 	 59.1426 	 -53.5358
|  9> C 	 -128.073 	 59.9986 	 -54.6397
| 10> C 	 -126.748 	 60.5537 	 -54.6311
| 11> C 	 -126.103 	 60.2357 	 -53.4584
| 12> H 	 -126.239 	 61.0931 	 -55.3978
| 13> C 	 -129.178 	 60.2907 	 -55.6265
| 14> H 	 -130.155 	 59.895 	 -55.1813
| 15> H 	 -129.047 	 59.685 	 -56.5096
| 16> C 	 -129.332 	 61.7633 	 -55.8346
| 17> H 	 -129.222 	 62.3539 	 -54.8935
| 18> H 	 -128.696 	 62.0947 	 -56.6364
| 19> C 	 -130.801 	 62.1464 	 -56.1805
| 20> H 	 -131.33 	 62.2737 	 -55.234
| 21> H 	 -130.825 	 63.1291 	 -56.6194
| 22> H 	 -131.311 	 61.3655 	 -56.8225
| 23> S 	 -124.434 	 61.5946 	 -51.7727
| 24> C 	 -122.765 	 61.5908 	 -52.1185
| 25> C 	 -122.36 	 60.8435 	 -53.1625
| 26> C 	 -123.492 	 60.1667 	 -53.6882
| 27> C 	 -124.71 	 60.6019 	 -53.1292
| 28> H 	 -121.355 	 60.7504 	 -53.5255
| 29> C 	 -123.446 	 59.2823 	 -54.8714
| 30> H 	 -122.406 	 59.3883 	 -55.1222
| 31> H 	 -123.99 	 59.703 	 -55.6479
| 32> C 	 -123.766 	 57.7948 	 -54.5564
| 33> H 	 -124.714 	 57.6201 	 -54.2205
| 34> H 	 -123.196 	 57.5154 	 -53.6728
| 35> C 	 -123.551 	 56.897 	 -55.7758
| 36> H 	 -122.611 	 57.0479 	 -56.3274
| 37> H 	 -124.317 	 57.1294 	 -56.5363
| 38> H 	 -123.634 	 55.8961 	 -55.3621
| 39> H 	 -129.291 	 58.714 	 -53.3894
| 40> H 	 -121.915 	 61.9877 	 -51.5453
| 41> *
| 42>
| 43>                          ****END OF INPUT****

CARTESIAN COORDINATES (ANGSTROEM)
---------------------------------
  S    -127.120000   59.463600  -52.288200
  C    -128.286000   59.142600  -53.535800
  C    -128.073000   59.998600  -54.639700
  C    -126.748000   60.553700  -54.631100
  C    -126.103000   60.235700  -53.458400
  H    -126.239000   61.093100  -55.397800
  C    -129.178000   60.290700  -55.626500
  H    -130.155000   59.895000  -55.181300
  H    -129.047000   59.685000  -56.509600
  C    -129.332000   61.763300  -55.834600
  H    -129.222000   62.353900  -54.893500
  H    -128.696000   62.094700  -56.636400
  C    -130.801000   62.146400  -56.180500
  H    -131.330000   62.273700  -55.234000
  H    -130.825000   63.129100  -56.619400
  H    -131.311000   61.365500  -56.822500
  S    -124.434000   61.594600  -51.772700
  C    -122.765000   61.590800  -52.118500
  C    -122.360000   60.843500  -53.162500
  C    -123.492000   60.166700  -53.688200
  C    -124.710000   60.601900  -53.129200
  H    -121.355000   60.750400  -53.525500
  C    -123.446000   59.282300  -54.871400
  H    -122.406000   59.388300  -55.122200
  H    -123.990000   59.703000  -55.647900
  C    -123.766000   57.794800  -54.556400
  H    -124.714000   57.620100  -54.220500
  H    -123.196000   57.515400  -53.672800
  C    -123.551000   56.897000  -55.775800
  H    -122.611000   57.047900  -56.327400
  H    -124.317000   57.129400  -56.536300
  H    -123.634000   55.896100  -55.362100
  H    -129.291000   58.714000  -53.389400
  H    -121.915000   61.987700  -51.545300

 Total Charge           Charge          ....    0
 Multiplicity           Mult            ....    1
 Number of Electrons    NEL             ....  134
 Basis Dimension        Dim             ....  322

ORBITAL ENERGIES
----------------

  NO   OCC          E(Eh)            E(eV)
   0   2.0000     -88.966847     -2420.9110
   1   2.0000     -88.966572     -2420.9035
   2   2.0000     -10.326403      -280.9957
   3   2.0000     -10.315917      -280.7104
   4   2.0000     -10.312128      -280.6073
   5   2.0000     -10.306553      -280.4556
   6   2.0000     -10.303354      -280.3685
   7   2.0000     -10.293913      -280.1116
   8   2.0000     -10.293506      -280.1005
   9   2.0000     -10.292744      -280.0798
  10   2.0000     -10.287114      -279.9266
  11   2.0000     -10.285146      -279.8730
  12   2.0000     -10.281306      -279.7685
  13   2.0000     -10.274426      -279.5813
  14   2.0000     -10.274054      -279.5712
  15   2.0000     -10.271972      -279.5146
  16   2.0000      -8.082939      -219.9480
  17   2.0000      -8.081705      -219.9144
  18   2.0000      -6.041249      -164.3907
  19   2.0000      -6.040080      -164.3589
  20   2.0000      -6.037286      -164.2829
  21   2.0000      -6.036433      -164.2597
  22   2.0000      -6.033824      -164.1887
  23   2.0000      -6.032305      -164.1474
  24   2.0000      -1.013216       -27.5710
  25   2.0000      -0.990080       -26.9415
  26   2.0000      -0.916696       -24.9446
  27   2.0000      -0.909543       -24.7499
  28   2.0000      -0.869605       -23.6632
  29   2.0000      -0.852999       -23.2113
  30   2.0000      -0.848314       -23.0838
  31   2.0000      -0.818699       -22.2779
  32   2.0000      -0.780546       -21.2397
  33   2.0000      -0.762615       -20.7518
  34   2.0000      -0.709362       -19.3027
  35   2.0000      -0.698216       -18.9994
  36   2.0000      -0.682609       -18.5747
  37   2.0000      -0.660908       -17.9842
  38   2.0000      -0.641685       -17.4611
  39   2.0000      -0.620618       -16.8879
  40   2.0000      -0.592506       -16.1229
  41   2.0000      -0.579175       -15.7602
  42   2.0000      -0.565547       -15.3893
  43   2.0000      -0.556659       -15.1475
  44   2.0000      -0.531157       -14.4535
  45   2.0000      -0.526925       -14.3384
  46   2.0000      -0.513256       -13.9664
  47   2.0000      -0.504980       -13.7412
  48   2.0000      -0.503656       -13.7052
  49   2.0000      -0.497705       -13.5433
  50   2.0000      -0.490474       -13.3465
  51   2.0000      -0.479457       -13.0467
  52   2.0000      -0.469066       -12.7639
  53   2.0000      -0.463014       -12.5992
  54   2.0000      -0.459281       -12.4977
  55   2.0000      -0.457495       -12.4491
  56   2.0000      -0.452361       -12.3094
  57   2.0000      -0.439606       -11.9623
  58   2.0000      -0.431223       -11.7342
  59   2.0000      -0.423332       -11.5194
  60   2.0000      -0.416522       -11.3341
  61   2.0000      -0.411604       -11.2003
  62   2.0000      -0.409027       -11.1302
  63   2.0000      -0.341821        -9.3014
  64   2.0000      -0.332297        -9.0423
  65   2.0000      -0.323350        -8.7988
  66   2.0000      -0.290745        -7.9116
  67   0.0000       0.037826         1.0293
  68   0.0000       0.064029         1.7423
  69   0.0000       0.106701         2.9035
  70   0.0000       0.131754         3.5852
  71   0.0000       0.134429         3.6580

MULLIKEN ATOMIC CHARGES
-----------------------
   0 S :    0.123266
   1 C :   -0.113341
   2 C :   -0.127995
   3 C :    0.053680
   4 C :   -0.153193
   5 H :    0.009723
   6 C :    0.073069
   7 H :    0.017466
   8 H :    0.040679
   9 C :   -0.087898
  10 H :    0.050616
  11 H :    0.036558
  12 C :   -0.079182
  13 H :    0.034861
  14 H :    0.031385
  15 H :    0.044796
  16 S :    0.133498
  17 C :   -0.063953
  18 C :   -0.048025
  19 C :   -0.080327
  20 C :   -0.183875
  21 H :    0.015470
  22 C :    0.129446
  23 H :   -0.008659
  24 H :    0.006592
  25 C :   -0.046162
  26 H :    0.014032
  27 H :    0.017312
  28 C :   -0.038167
  29 H :    0.026202
  30 H :    0.031555
  31 H :    0.038833
  32 H :    0.053520
  33 H :    0.048216
Sum of atomic charges:    0.0000000

LOEWDIN ATOMIC CHARGES
----------------------
   0 S :    0.413809
   1 C :   -0.217730
   2 C :   -0.054090
   3 C :   -0.057890
   4 C :   -0.194722
   5 H :    0.030507
   6 C :   -0.037252
   7 H :    0.033612
   8 H :    0.031503
   9 C :   -0.044209
  10 H :    0.037777
  11 H :    0.021774
  12 C :   -0.067854
  13 H :    0.025169
  14 H :    0.023306
  15 H :    0.028137
  16 S :    0.445666
  17 C :   -0.205468
  18 C :   -0.074685
  19 C :   -0.052825
  20 C :   -0.224813
  21 H :    0.032653
  22 C :   -0.026825
  23 H :    0.026635
  24 H :    0.018870
  25 C :   -0.028525
  26 H :    0.013793
  27 H :    0.024979
  28 C :   -0.064259
  29 H :    0.022386
  30 H :    0.027873
  31 H :    0.028741
  32 H :    0.028804
  33 H :    0.035150

  Mayer bond orders larger than 0.100000
B(  0-S ,  1-C ) :   1.1320 B(  0-S ,  4-C ) :   1.1596 B(  1-C ,  2-C ) :   1.6189
B(  1-C , 32-H ) :   0.9606 B(  2-C ,  3-C ) :   1.2115 B(  2-C ,  6-C ) :   1.0258
B(  3-C ,  4-C ) :   1.5812 B(  3-C ,  5-H ) :   1.0016 B(  4-C , 20-C ) :   1.0175
B(  6-C ,  7-H ) :   0.9458 B(  6-C ,  8-H ) :   0.9283 B(  6-C ,  9-C ) :   1.0614
B(  9-C , 10-H ) :   0.9640 B(  9-C , 11-H ) :   0.9519 B(  9-C , 12-C ) :   1.0780
B( 12-C , 13-H ) :   0.9803 B( 12-C , 14-H ) :   0.9743 B( 12-C , 15-H ) :   0.9758
B( 16-S , 17-C ) :   1.1702 B( 16-S , 20-C ) :   1.1537 B( 17-C , 18-C ) :   1.6106
B( 17-C , 33-H ) :   0.9506 B( 18-C , 19-C ) :   1.2735 B( 18-C , 21-H ) :   0.9890
B( 19-C , 20-C ) :   1.5682 B( 19-C , 22-C ) :   1.0431 B( 22-C , 23-H ) :   0.9230
B( 22-C , 24-H ) :   0.9322 B( 22-C , 25-C ) :   1.0525 B( 25-C , 26-H ) :   0.9551
B( 25-C , 27-H ) :   0.9537 B( 25-C , 28-C ) :   1.0804 B( 28-C , 29-H ) :   0.9766
B( 28-C , 30-H ) :   0.9736 B( 28-C , 31-H ) :   0.9750

Dispersion correction           -0.014416797
FINAL SINGLE POINT ENERGY     -1339.855034165065

DIPOLE MOMENT
-------------
                                X             Y             Z
Electronic contribution:      7.46270       5.50552      21.86402
Nuclear contribution   :     -7.53875      -5.41865     -22.36595
                        -----------------------------------------
Total Dipole Moment    :     -0.07604       0.08687      -0.50192
                        -----------------------------------------
Magnitude (a.u.)       :      0.51503
Magnitude (Debye)      :      1.30910

Rotational constants in cm-1:     0.018887     0.008370     0.007126
Rotational constants in MHz :   566.219209   250.923179   213.633717

                             ****ORCA TERMINATED NORMALLY****
TOTAL RUN TIME: 0 days 0 hours 0 minutes 21 seconds 964 msec
