                         Program Version 4.2.1 -  RELEASE  -
|  1> ! wB97X-D3 SP def2-SVP
|  2> %pal
|  3> nprocs 24
|  4> end
|  5>
|  6> * xyz 0 1
|  7> S 	 46.6985 	 -19.6141 	 -111.669
|  8> C 	 48.1985 	 -20.5159 	 -111.502
|  9> C 	 47.9312 	 -21.8669 	 -111.316
| 10> C 	 46.563 	 -22.2034 	 -111.426
| 11> C 	 45.753 	 -21.1082 	 -111.616
| 12> H 	 46.0791 	 -23.1633 	 -111.409
| 13> C 	 48.9219 	 -23.0387 	 -111.345
| 14> H 	 48.3516 	 -23.8416 	 -111.057
| 15> H 	 49.6779 	 -22.7953 	 -110.509
| 16> C 	 49.5716 	 -23.2874 	 -112.695
| 17> H 	 49.989 	 -22.371 	 -113.045
| 18> H 	 50.3821 	 -23.9295 	 -112.593
| 19> C 	 48.5602 	 -23.7753 	 -113.714
| 20> H 	 49.025 	 -23.586 	 -114.59
| 21> H 	 48.2289 	 -24.8269 	 -113.664
| 22> H 	 47.5963 	 -23.1922 	 -113.766
| 23> S 	 43.7828 	 -19.5922 	 -110.611
| 24> C 	 42.1249 	 -20.0174 	 -110.846
| 25> C 	 42.0398 	 -21.1349 	 -111.707
| 26> C 	 43.273 	 -21.7037 	 -112.164
| 27> C 	 44.3063 	 -20.9868 	 -111.558
| 28> H 	 41.101 	 -21.6632 	 -111.788
| 29> C 	 43.4186 	 -22.976 	 -113.045
| 30> H 	 43.0121 	 -23.8463 	 -112.604
| 31> H 	 44.4312 	 -23.1989 	 -113.203
| 32> C 	 42.7685 	 -22.8741 	 -114.439
| 33> H 	 41.7349 	 -22.8671 	 -114.471
| 34> H 	 42.8177 	 -23.8998 	 -114.87
| 35> C 	 43.3985 	 -21.8501 	 -115.277
| 36> H 	 43.2172 	 -20.8021 	 -114.898
| 37> H 	 43.0047 	 -21.9715 	 -116.29
| 38> H 	 44.562 	 -21.9236 	 -115.413
| 39> H 	 49.1357 	 -20.1044 	 -111.412
| 40> H 	 41.2655 	 -19.5888 	 -110.359
| 41> *
| 42>
| 43>                          ****END OF INPUT****

CARTESIAN COORDINATES (ANGSTROEM)
---------------------------------
  S     46.698500  -19.614100  -111.669000
  C     48.198500  -20.515900  -111.502000
  C     47.931200  -21.866900  -111.316000
  C     46.563000  -22.203400  -111.426000
  C     45.753000  -21.108200  -111.616000
  H     46.079100  -23.163300  -111.409000
  C     48.921900  -23.038700  -111.345000
  H     48.351600  -23.841600  -111.057000
  H     49.677900  -22.795300  -110.509000
  C     49.571600  -23.287400  -112.695000
  H     49.989000  -22.371000  -113.045000
  H     50.382100  -23.929500  -112.593000
  C     48.560200  -23.775300  -113.714000
  H     49.025000  -23.586000  -114.590000
  H     48.228900  -24.826900  -113.664000
  H     47.596300  -23.192200  -113.766000
  S     43.782800  -19.592200  -110.611000
  C     42.124900  -20.017400  -110.846000
  C     42.039800  -21.134900  -111.707000
  C     43.273000  -21.703700  -112.164000
  C     44.306300  -20.986800  -111.558000
  H     41.101000  -21.663200  -111.788000
  C     43.418600  -22.976000  -113.045000
  H     43.012100  -23.846300  -112.604000
  H     44.431200  -23.198900  -113.203000
  C     42.768500  -22.874100  -114.439000
  H     41.734900  -22.867100  -114.471000
  H     42.817700  -23.899800  -114.870000
  C     43.398500  -21.850100  -115.277000
  H     43.217200  -20.802100  -114.898000
  H     43.004700  -21.971500  -116.290000
  H     44.562000  -21.923600  -115.413000
  H     49.135700  -20.104400  -111.412000
  H     41.265500  -19.588800  -110.359000

 Total Charge           Charge          ....    0
 Multiplicity           Mult            ....    1
 Number of Electrons    NEL             ....  134
 Basis Dimension        Dim             ....  322

ORBITAL ENERGIES
----------------

  NO   OCC          E(Eh)            E(eV)
   0   2.0000     -88.968069     -2420.9442
   1   2.0000     -88.965259     -2420.8678
   2   2.0000     -10.328394      -281.0499
   3   2.0000     -10.326732      -281.0047
   4   2.0000     -10.317239      -280.7463
   5   2.0000     -10.308973      -280.5214
   6   2.0000     -10.308162      -280.4994
   7   2.0000     -10.297510      -280.2095
   8   2.0000     -10.295510      -280.1551
   9   2.0000     -10.291680      -280.0509
  10   2.0000     -10.288774      -279.9718
  11   2.0000     -10.286536      -279.9109
  12   2.0000     -10.281133      -279.7639
  13   2.0000     -10.280017      -279.7335
  14   2.0000     -10.277559      -279.6666
  15   2.0000     -10.269527      -279.4480
  16   2.0000      -8.082783      -219.9437
  17   2.0000      -8.079584      -219.8567
  18   2.0000      -6.041280      -164.3916
  19   2.0000      -6.038157      -164.3066
  20   2.0000      -6.037234      -164.2815
  21   2.0000      -6.034116      -164.1966
  22   2.0000      -6.033586      -164.1822
  23   2.0000      -6.030321      -164.0934
  24   2.0000      -1.006542       -27.3894
  25   2.0000      -0.980810       -26.6892
  26   2.0000      -0.916545       -24.9404
  27   2.0000      -0.914262       -24.8783
  28   2.0000      -0.866914       -23.5899
  29   2.0000      -0.855512       -23.2797
  30   2.0000      -0.844773       -22.9874
  31   2.0000      -0.810542       -22.0560
  32   2.0000      -0.787141       -21.4192
  33   2.0000      -0.774118       -21.0648
  34   2.0000      -0.712411       -19.3857
  35   2.0000      -0.705447       -19.1962
  36   2.0000      -0.696286       -18.9469
  37   2.0000      -0.660151       -17.9636
  38   2.0000      -0.644493       -17.5376
  39   2.0000      -0.611992       -16.6531
  40   2.0000      -0.597142       -16.2491
  41   2.0000      -0.571391       -15.5483
  42   2.0000      -0.561573       -15.2812
  43   2.0000      -0.552435       -15.0325
  44   2.0000      -0.543444       -14.7879
  45   2.0000      -0.529309       -14.4032
  46   2.0000      -0.523951       -14.2574
  47   2.0000      -0.515680       -14.0324
  48   2.0000      -0.502629       -13.6772
  49   2.0000      -0.499091       -13.5810
  50   2.0000      -0.486507       -13.2385
  51   2.0000      -0.484922       -13.1954
  52   2.0000      -0.471804       -12.8384
  53   2.0000      -0.463886       -12.6230
  54   2.0000      -0.460664       -12.5353
  55   2.0000      -0.449264       -12.2251
  56   2.0000      -0.442869       -12.0511
  57   2.0000      -0.437642       -11.9088
  58   2.0000      -0.430936       -11.7264
  59   2.0000      -0.426650       -11.6097
  60   2.0000      -0.420665       -11.4469
  61   2.0000      -0.411162       -11.1883
  62   2.0000      -0.404306       -11.0017
  63   2.0000      -0.349691        -9.5156
  64   2.0000      -0.333277        -9.0689
  65   2.0000      -0.329446        -8.9647
  66   2.0000      -0.284541        -7.7428
  67   0.0000       0.026469         0.7203
  68   0.0000       0.066916         1.8209
  69   0.0000       0.105654         2.8750
  70   0.0000       0.115348         3.1388
  71   0.0000       0.137143         3.7318

MULLIKEN ATOMIC CHARGES
-----------------------
   0 S :    0.097111
   1 C :   -0.087318
   2 C :   -0.101865
   3 C :    0.018668
   4 C :   -0.146465
   5 H :    0.011028
   6 C :    0.069869
   7 H :   -0.005413
   8 H :    0.037230
   9 C :    0.013049
  10 H :    0.010492
  11 H :    0.015562
  12 C :   -0.054899
  13 H :    0.006601
  14 H :    0.034052
  15 H :    0.046111
  16 S :    0.114195
  17 C :   -0.089169
  18 C :   -0.048832
  19 C :   -0.031184
  20 C :   -0.168532
  21 H :    0.017673
  22 C :    0.133205
  23 H :    0.020129
  24 H :   -0.001704
  25 C :   -0.059617
  26 H :    0.007264
  27 H :    0.012951
  28 C :   -0.079504
  29 H :    0.059086
  30 H :    0.032380
  31 H :    0.042797
  32 H :    0.017042
  33 H :    0.058007
Sum of atomic charges:   -0.0000000

LOEWDIN ATOMIC CHARGES
----------------------
   0 S :    0.393586
   1 C :   -0.186518
   2 C :   -0.059067
   3 C :   -0.070725
   4 C :   -0.182432
   5 H :    0.030468
   6 C :   -0.025336
   7 H :    0.013165
   8 H :    0.037107
   9 C :   -0.026157
  10 H :    0.022029
  11 H :    0.018298
  12 C :   -0.063010
  13 H :    0.012750
  14 H :    0.026544
  15 H :    0.035002
  16 S :    0.414902
  17 C :   -0.199171
  18 C :   -0.069461
  19 C :   -0.055707
  20 C :   -0.187967
  21 H :    0.026534
  22 C :   -0.015087
  23 H :    0.027878
  24 H :    0.022088
  25 C :   -0.049081
  26 H :    0.015524
  27 H :    0.030390
  28 C :   -0.075599
  29 H :    0.035510
  30 H :    0.026539
  31 H :    0.035467
  32 H :    0.011338
  33 H :    0.030198

  Mayer bond orders larger than 0.100000
B(  0-S ,  1-C ) :   1.1283 B(  0-S ,  4-C ) :   1.1482 B(  1-C ,  2-C ) :   1.6025
B(  1-C ,  4-C ) :   0.1009 B(  1-C , 32-H ) :   0.9820 B(  2-C ,  3-C ) :   1.2350
B(  2-C ,  6-C ) :   1.0250 B(  3-C ,  4-C ) :   1.5781 B(  3-C ,  5-H ) :   0.9928
B(  4-C , 20-C ) :   1.0445 B(  6-C ,  7-H ) :   0.9402 B(  6-C ,  8-H ) :   0.9355
B(  6-C ,  9-C ) :   1.0745 B(  9-C , 10-H ) :   0.9546 B(  9-C , 11-H ) :   0.9505
B(  9-C , 12-C ) :   1.0734 B( 12-C , 13-H ) :   0.9696 B( 12-C , 14-H ) :   0.9749
B( 12-C , 15-H ) :   0.9718 B( 16-S , 17-C ) :   1.1474 B( 16-S , 20-C ) :   1.1551
B( 17-C , 18-C ) :   1.6049 B( 17-C , 20-C ) :   0.1019 B( 17-C , 33-H ) :   0.9713
B( 18-C , 19-C ) :   1.2377 B( 18-C , 21-H ) :   0.9824 B( 19-C , 20-C ) :   1.5765
B( 19-C , 22-C ) :   1.0373 B( 22-C , 23-H ) :   0.9329 B( 22-C , 24-H ) :   0.9287
B( 22-C , 25-C ) :   1.0844 B( 25-C , 26-H ) :   0.9474 B( 25-C , 27-H ) :   0.9433
B( 25-C , 28-C ) :   1.0826 B( 28-C , 29-H ) :   0.9694 B( 28-C , 30-H ) :   0.9691
B( 28-C , 31-H ) :   0.9721

Dispersion correction           -0.015105087
FINAL SINGLE POINT ENERGY     -1339.854162087697

DIPOLE MOMENT
-------------
                                X             Y             Z
Electronic contribution:     -5.33141      20.40202      17.14530
Nuclear contribution   :      5.28498     -21.07315     -17.35954
                        -----------------------------------------
Total Dipole Moment    :     -0.04642      -0.67113      -0.21424
                        -----------------------------------------
Magnitude (a.u.)       :      0.70602
Magnitude (Debye)      :      1.79456

Rotational constants in cm-1:     0.019118     0.009774     0.007316
Rotational constants in MHz :   573.142852   293.010730   219.323094

                             ****ORCA TERMINATED NORMALLY****
TOTAL RUN TIME: 0 days 0 hours 0 minutes 21 seconds 297 msec
