                         Program Version 4.2.1 -  RELEASE  -
|  1> ! wB97X-D3 SP def2-SVP
|  2> %pal
|  3> nprocs 24
|  4> end
|  5>
|  6> * xyz 0 1
|  7> S 	 -90.3074 	 -31.0926 	 -54.1318
|  8> C 	 -89.2612 	 -32.5575 	 -54.1921
|  9> C 	 -88.1295 	 -32.3468 	 -55.015
| 10> C 	 -88.1078 	 -30.9705 	 -55.3842
| 11> C 	 -89.1458 	 -30.1968 	 -54.9532
| 12> H 	 -87.4319 	 -30.4552 	 -56.0317
| 13> C 	 -87.0791 	 -33.3202 	 -55.3576
| 14> H 	 -87.6014 	 -34.2486 	 -55.0968
| 15> H 	 -86.3293 	 -33.0989 	 -54.5726
| 16> C 	 -86.5574 	 -33.5256 	 -56.8153
| 17> H 	 -86.1688 	 -34.4913 	 -56.9543
| 18> H 	 -87.4637 	 -33.3848 	 -57.3979
| 19> C 	 -85.4984 	 -32.5358 	 -57.2088
| 20> H 	 -85.0213 	 -32.8268 	 -58.1847
| 21> H 	 -85.8872 	 -31.5094 	 -57.251
| 22> H 	 -84.6152 	 -32.4838 	 -56.5267
| 23> S 	 -89.5287 	 -28.0378 	 -56.6198
| 24> C 	 -89.4169 	 -26.4617 	 -56.0108
| 25> C 	 -89.3592 	 -26.5059 	 -54.6202
| 26> C 	 -89.3251 	 -27.8404 	 -54.0686
| 27> C 	 -89.1695 	 -28.7424 	 -55.0671
| 28> H 	 -89.3062 	 -25.6054 	 -54.1085
| 29> C 	 -89.3396 	 -27.9993 	 -52.5411
| 30> H 	 -89.9333 	 -28.806 	 -52.1877
| 31> H 	 -89.7509 	 -27.0735 	 -52.2877
| 32> C 	 -87.8671 	 -27.95 	 -51.9129
| 33> H 	 -87.5042 	 -26.917 	 -51.962
| 34> H 	 -87.3375 	 -28.5173 	 -52.6598
| 35> C 	 -87.6572 	 -28.4676 	 -50.549
| 36> H 	 -88.0382 	 -27.7982 	 -49.7924
| 37> H 	 -86.5286 	 -28.6075 	 -50.4941
| 38> H 	 -87.9806 	 -29.4657 	 -50.381
| 39> H 	 -89.4353 	 -33.4474 	 -53.7305
| 40> H 	 -89.4631 	 -25.5265 	 -56.5811
| 41> *
| 42>
| 43>                          ****END OF INPUT****

CARTESIAN COORDINATES (ANGSTROEM)
---------------------------------
  S    -90.307400  -31.092600  -54.131800
  C    -89.261200  -32.557500  -54.192100
  C    -88.129500  -32.346800  -55.015000
  C    -88.107800  -30.970500  -55.384200
  C    -89.145800  -30.196800  -54.953200
  H    -87.431900  -30.455200  -56.031700
  C    -87.079100  -33.320200  -55.357600
  H    -87.601400  -34.248600  -55.096800
  H    -86.329300  -33.098900  -54.572600
  C    -86.557400  -33.525600  -56.815300
  H    -86.168800  -34.491300  -56.954300
  H    -87.463700  -33.384800  -57.397900
  C    -85.498400  -32.535800  -57.208800
  H    -85.021300  -32.826800  -58.184700
  H    -85.887200  -31.509400  -57.251000
  H    -84.615200  -32.483800  -56.526700
  S    -89.528700  -28.037800  -56.619800
  C    -89.416900  -26.461700  -56.010800
  C    -89.359200  -26.505900  -54.620200
  C    -89.325100  -27.840400  -54.068600
  C    -89.169500  -28.742400  -55.067100
  H    -89.306200  -25.605400  -54.108500
  C    -89.339600  -27.999300  -52.541100
  H    -89.933300  -28.806000  -52.187700
  H    -89.750900  -27.073500  -52.287700
  C    -87.867100  -27.950000  -51.912900
  H    -87.504200  -26.917000  -51.962000
  H    -87.337500  -28.517300  -52.659800
  C    -87.657200  -28.467600  -50.549000
  H    -88.038200  -27.798200  -49.792400
  H    -86.528600  -28.607500  -50.494100
  H    -87.980600  -29.465700  -50.381000
  H    -89.435300  -33.447400  -53.730500
  H    -89.463100  -25.526500  -56.581100

 Total Charge           Charge          ....    0
 Multiplicity           Mult            ....    1
 Number of Electrons    NEL             ....  134
 Basis Dimension        Dim             ....  322

ORBITAL ENERGIES
----------------

  NO   OCC          E(Eh)            E(eV)
   0   2.0000     -88.967434     -2420.9270
   1   2.0000     -88.962393     -2420.7898
   2   2.0000     -10.318342      -280.7764
   3   2.0000     -10.317006      -280.7400
   4   2.0000     -10.313356      -280.6407
   5   2.0000     -10.311576      -280.5922
   6   2.0000     -10.303396      -280.3697
   7   2.0000     -10.300151      -280.2813
   8   2.0000     -10.293017      -280.0872
   9   2.0000     -10.288247      -279.9574
  10   2.0000     -10.286602      -279.9127
  11   2.0000     -10.283915      -279.8396
  12   2.0000     -10.282923      -279.8126
  13   2.0000     -10.282842      -279.8104
  14   2.0000     -10.280593      -279.7492
  15   2.0000     -10.273897      -279.5670
  16   2.0000      -8.082179      -219.9273
  17   2.0000      -8.078321      -219.8223
  18   2.0000      -6.040598      -164.3730
  19   2.0000      -6.036805      -164.2698
  20   2.0000      -6.036703      -164.2670
  21   2.0000      -6.033016      -164.1667
  22   2.0000      -6.032659      -164.1570
  23   2.0000      -6.029046      -164.0587
  24   2.0000      -1.012924       -27.5631
  25   2.0000      -0.988028       -26.8856
  26   2.0000      -0.917748       -24.9732
  27   2.0000      -0.906327       -24.6624
  28   2.0000      -0.871182       -23.7061
  29   2.0000      -0.855402       -23.2767
  30   2.0000      -0.848539       -23.0899
  31   2.0000      -0.814502       -22.1637
  32   2.0000      -0.786885       -21.4122
  33   2.0000      -0.774927       -21.0868
  34   2.0000      -0.708554       -19.2807
  35   2.0000      -0.701902       -19.0997
  36   2.0000      -0.689987       -18.7755
  37   2.0000      -0.666873       -18.1465
  38   2.0000      -0.638821       -17.3832
  39   2.0000      -0.616503       -16.7759
  40   2.0000      -0.592413       -16.1204
  41   2.0000      -0.573591       -15.6082
  42   2.0000      -0.567872       -15.4526
  43   2.0000      -0.551914       -15.0183
  44   2.0000      -0.547226       -14.8908
  45   2.0000      -0.525820       -14.3083
  46   2.0000      -0.522788       -14.2258
  47   2.0000      -0.513018       -13.9599
  48   2.0000      -0.507060       -13.7978
  49   2.0000      -0.494081       -13.4446
  50   2.0000      -0.489979       -13.3330
  51   2.0000      -0.486184       -13.2297
  52   2.0000      -0.481213       -13.0945
  53   2.0000      -0.469645       -12.7797
  54   2.0000      -0.458144       -12.4667
  55   2.0000      -0.444124       -12.0852
  56   2.0000      -0.442589       -12.0435
  57   2.0000      -0.439955       -11.9718
  58   2.0000      -0.431993       -11.7551
  59   2.0000      -0.430338       -11.7101
  60   2.0000      -0.420529       -11.4432
  61   2.0000      -0.407089       -11.0774
  62   2.0000      -0.403239       -10.9727
  63   2.0000      -0.334215        -9.0945
  64   2.0000      -0.329015        -8.9529
  65   2.0000      -0.324815        -8.8387
  66   2.0000      -0.300487        -8.1767
  67   0.0000       0.036757         1.0002
  68   0.0000       0.071609         1.9486
  69   0.0000       0.107313         2.9201
  70   0.0000       0.120144         3.2693
  71   0.0000       0.129672         3.5286

MULLIKEN ATOMIC CHARGES
-----------------------
   0 S :    0.126977
   1 C :   -0.103324
   2 C :   -0.081634
   3 C :    0.020242
   4 C :   -0.145499
   5 H :   -0.011555
   6 C :    0.039181
   7 H :    0.016871
   8 H :    0.053258
   9 C :   -0.004937
  10 H :    0.025544
  11 H :    0.037129
  12 C :   -0.084791
  13 H :    0.038420
  14 H :    0.039459
  15 H :    0.031384
  16 S :    0.118355
  17 C :   -0.091524
  18 C :   -0.038479
  19 C :   -0.050799
  20 C :   -0.189169
  21 H :   -0.007932
  22 C :    0.137851
  23 H :    0.020426
  24 H :   -0.001084
  25 C :   -0.091859
  26 H :    0.025326
  27 H :    0.027973
  28 C :   -0.015700
  29 H :    0.037405
  30 H :    0.035334
  31 H :    0.022550
  32 H :    0.001696
  33 H :    0.062905
Sum of atomic charges:   -0.0000000

LOEWDIN ATOMIC CHARGES
----------------------
   0 S :    0.424874
   1 C :   -0.178543
   2 C :   -0.052726
   3 C :   -0.070575
   4 C :   -0.218757
   5 H :    0.022338
   6 C :   -0.039973
   7 H :    0.034445
   8 H :    0.041747
   9 C :   -0.029946
  10 H :    0.022384
  11 H :    0.032483
  12 C :   -0.073947
  13 H :    0.031222
  14 H :    0.024487
  15 H :    0.026985
  16 S :    0.429545
  17 C :   -0.205393
  18 C :   -0.067755
  19 C :   -0.051105
  20 C :   -0.206755
  21 H :    0.016535
  22 C :   -0.020945
  23 H :    0.018467
  24 H :    0.021704
  25 C :   -0.038040
  26 H :    0.025481
  27 H :    0.022147
  28 C :   -0.065641
  29 H :    0.024615
  30 H :    0.040939
  31 H :    0.020543
  32 H :    0.003177
  33 H :    0.035982

  Mayer bond orders larger than 0.100000
B(  0-S ,  1-C ) :   1.1371 B(  0-S ,  4-C ) :   1.1605 B(  1-C ,  2-C ) :   1.5889
B(  1-C , 32-H ) :   0.9790 B(  2-C ,  3-C ) :   1.2207 B(  2-C ,  6-C ) :   1.0228
B(  3-C ,  4-C ) :   1.5904 B(  3-C ,  5-H ) :   0.9932 B(  4-C , 20-C ) :   1.0075
B(  6-C ,  7-H ) :   0.9302 B(  6-C ,  8-H ) :   0.9334 B(  6-C ,  9-C ) :   1.0591
B(  9-C , 10-H ) :   0.9564 B(  9-C , 11-H ) :   0.9541 B(  9-C , 12-C ) :   1.0828
B( 12-C , 13-H ) :   0.9696 B( 12-C , 14-H ) :   0.9752 B( 12-C , 15-H ) :   0.9740
B( 16-S , 17-C ) :   1.1654 B( 16-S , 20-C ) :   1.1535 B( 17-C , 18-C ) :   1.6066
B( 17-C , 33-H ) :   0.9664 B( 18-C , 19-C ) :   1.2277 B( 18-C , 21-H ) :   0.9986
B( 19-C , 20-C ) :   1.5971 B( 19-C , 22-C ) :   1.0433 B( 22-C , 23-H ) :   0.9378
B( 22-C , 24-H ) :   0.9208 B( 22-C , 25-C ) :   1.0459 B( 25-C , 26-H ) :   0.9537
B( 25-C , 27-H ) :   0.9638 B( 25-C , 28-C ) :   1.1006 B( 28-C , 29-H ) :   0.9732
B( 28-C , 30-H ) :   0.9669 B( 28-C , 31-H ) :   0.9713

Dispersion correction           -0.014382139
FINAL SINGLE POINT ENERGY     -1339.850389021817

DIPOLE MOMENT
-------------
                                X             Y             Z
Electronic contribution:    -18.27455       6.01072      -8.36591
Nuclear contribution   :     18.67589      -6.07749       8.56405
                        -----------------------------------------
Total Dipole Moment    :      0.40134      -0.06677       0.19814
                        -----------------------------------------
Magnitude (a.u.)       :      0.45254
Magnitude (Debye)      :      1.15027

Rotational constants in cm-1:     0.017173     0.008948     0.007519
Rotational constants in MHz :   514.835521   268.247080   225.421111

                             ****ORCA TERMINATED NORMALLY****
TOTAL RUN TIME: 0 days 0 hours 0 minutes 22 seconds 669 msec
