                         Program Version 4.2.1 -  RELEASE  -
|  1> ! wB97X-D3 SP def2-SVP
|  2> %pal
|  3> nprocs 24
|  4> end
|  5>
|  6> * xyz 0 1
|  7> S 	 -90.2529 	 -12.4325 	 -118.293
|  8> C 	 -88.7374 	 -12.7829 	 -119.212
|  9> C 	 -87.9086 	 -11.7216 	 -119.282
| 10> C 	 -88.5365 	 -10.5793 	 -118.734
| 11> C 	 -89.9434 	 -10.7204 	 -118.36
| 12> H 	 -88.1512 	 -9.62267 	 -118.98
| 13> C 	 -86.5036 	 -11.7866 	 -119.811
| 14> H 	 -86.0899 	 -12.7932 	 -119.618
| 15> H 	 -85.8328 	 -11.1359 	 -119.237
| 16> C 	 -86.3719 	 -11.6288 	 -121.275
| 17> H 	 -86.3591 	 -10.6015 	 -121.496
| 18> H 	 -85.3967 	 -12.0172 	 -121.406
| 19> C 	 -87.3348 	 -12.4993 	 -122.174
| 20> H 	 -87.0119 	 -12.5249 	 -123.214
| 21> H 	 -87.5397 	 -13.3898 	 -121.683
| 22> H 	 -88.2916 	 -12.0571 	 -122.284
| 23> S 	 -91.763 	 -10.2038 	 -116.401
| 24> C 	 -92.4597 	 -8.51065 	 -116.293
| 25> C 	 -91.992 	 -7.71231 	 -117.316
| 26> C 	 -90.9372 	 -8.31986 	 -118.071
| 27> C 	 -90.8311 	 -9.70187 	 -117.805
| 28> H 	 -92.3199 	 -6.69904 	 -117.303
| 29> C 	 -90.1786 	 -7.62642 	 -119.115
| 30> H 	 -89.998 	 -8.34399 	 -119.988
| 31> H 	 -89.1119 	 -7.57682 	 -118.744
| 32> C 	 -90.7597 	 -6.2163 	 -119.529
| 33> H 	 -90.5203 	 -5.53823 	 -118.692
| 34> H 	 -91.8573 	 -6.22535 	 -119.719
| 35> C 	 -90.0102 	 -5.63346 	 -120.706
| 36> H 	 -90.1803 	 -4.58884 	 -120.825
| 37> H 	 -90.1126 	 -6.20447 	 -121.579
| 38> H 	 -88.9433 	 -5.68445 	 -120.524
| 39> H 	 -88.4665 	 -13.7595 	 -119.514
| 40> H 	 -93.1797 	 -8.18078 	 -115.62
| 41> *
| 42>
| 43>                          ****END OF INPUT****

CARTESIAN COORDINATES (ANGSTROEM)
---------------------------------
  S    -90.252900  -12.432500  -118.293000
  C    -88.737400  -12.782900  -119.212000
  C    -87.908600  -11.721600  -119.282000
  C    -88.536500  -10.579300  -118.734000
  C    -89.943400  -10.720400  -118.360000
  H    -88.151200   -9.622670  -118.980000
  C    -86.503600  -11.786600  -119.811000
  H    -86.089900  -12.793200  -119.618000
  H    -85.832800  -11.135900  -119.237000
  C    -86.371900  -11.628800  -121.275000
  H    -86.359100  -10.601500  -121.496000
  H    -85.396700  -12.017200  -121.406000
  C    -87.334800  -12.499300  -122.174000
  H    -87.011900  -12.524900  -123.214000
  H    -87.539700  -13.389800  -121.683000
  H    -88.291600  -12.057100  -122.284000
  S    -91.763000  -10.203800  -116.401000
  C    -92.459700   -8.510650  -116.293000
  C    -91.992000   -7.712310  -117.316000
  C    -90.937200   -8.319860  -118.071000
  C    -90.831100   -9.701870  -117.805000
  H    -92.319900   -6.699040  -117.303000
  C    -90.178600   -7.626420  -119.115000
  H    -89.998000   -8.343990  -119.988000
  H    -89.111900   -7.576820  -118.744000
  C    -90.759700   -6.216300  -119.529000
  H    -90.520300   -5.538230  -118.692000
  H    -91.857300   -6.225350  -119.719000
  C    -90.010200   -5.633460  -120.706000
  H    -90.180300   -4.588840  -120.825000
  H    -90.112600   -6.204470  -121.579000
  H    -88.943300   -5.684450  -120.524000
  H    -88.466500  -13.759500  -119.514000
  H    -93.179700   -8.180780  -115.620000

 Total Charge           Charge          ....    0
 Multiplicity           Mult            ....    1
 Number of Electrons    NEL             ....  134
 Basis Dimension        Dim             ....  322

ORBITAL ENERGIES
----------------

  NO   OCC          E(Eh)            E(eV)
   0   2.0000     -88.967521     -2420.9293
   1   2.0000     -88.966538     -2420.9026
   2   2.0000     -10.338751      -281.3317
   3   2.0000     -10.329769      -281.0873
   4   2.0000     -10.318723      -280.7867
   5   2.0000     -10.310373      -280.5595
   6   2.0000     -10.305806      -280.4352
   7   2.0000     -10.301895      -280.3288
   8   2.0000     -10.296991      -280.1954
   9   2.0000     -10.295345      -280.1506
  10   2.0000     -10.294999      -280.1412
  11   2.0000     -10.294622      -280.1309
  12   2.0000     -10.292248      -280.0663
  13   2.0000     -10.278785      -279.7000
  14   2.0000     -10.272959      -279.5414
  15   2.0000     -10.270741      -279.4811
  16   2.0000      -8.081411      -219.9064
  17   2.0000      -8.079874      -219.8646
  18   2.0000      -6.039971      -164.3560
  19   2.0000      -6.038536      -164.3169
  20   2.0000      -6.036112      -164.2510
  21   2.0000      -6.034731      -164.2134
  22   2.0000      -6.032097      -164.1417
  23   2.0000      -6.030410      -164.0958
  24   2.0000      -1.000439       -27.2233
  25   2.0000      -0.978448       -26.6249
  26   2.0000      -0.922310       -25.0973
  27   2.0000      -0.908800       -24.7297
  28   2.0000      -0.870765       -23.6947
  29   2.0000      -0.855300       -23.2739
  30   2.0000      -0.841776       -22.9059
  31   2.0000      -0.810307       -22.0496
  32   2.0000      -0.795154       -21.6372
  33   2.0000      -0.770644       -20.9703
  34   2.0000      -0.714887       -19.4531
  35   2.0000      -0.707751       -19.2589
  36   2.0000      -0.700902       -19.0725
  37   2.0000      -0.653858       -17.7924
  38   2.0000      -0.635682       -17.2978
  39   2.0000      -0.620912       -16.8959
  40   2.0000      -0.596342       -16.2273
  41   2.0000      -0.574543       -15.6341
  42   2.0000      -0.569367       -15.4933
  43   2.0000      -0.565768       -15.3953
  44   2.0000      -0.543628       -14.7929
  45   2.0000      -0.533579       -14.5194
  46   2.0000      -0.519427       -14.1343
  47   2.0000      -0.511407       -13.9161
  48   2.0000      -0.499448       -13.5907
  49   2.0000      -0.494639       -13.4598
  50   2.0000      -0.489330       -13.3153
  51   2.0000      -0.480205       -13.0670
  52   2.0000      -0.474362       -12.9080
  53   2.0000      -0.464353       -12.6357
  54   2.0000      -0.460778       -12.5384
  55   2.0000      -0.452667       -12.3177
  56   2.0000      -0.447351       -12.1730
  57   2.0000      -0.436012       -11.8645
  58   2.0000      -0.433332       -11.7916
  59   2.0000      -0.425984       -11.5916
  60   2.0000      -0.421536       -11.4706
  61   2.0000      -0.416775       -11.3410
  62   2.0000      -0.413780       -11.2595
  63   2.0000      -0.354499        -9.6464
  64   2.0000      -0.331797        -9.0287
  65   2.0000      -0.326627        -8.8880
  66   2.0000      -0.279184        -7.5970
  67   0.0000       0.013435         0.3656
  68   0.0000       0.070132         1.9084
  69   0.0000       0.094138         2.5616
  70   0.0000       0.122723         3.3395
  71   0.0000       0.126859         3.4520

MULLIKEN ATOMIC CHARGES
-----------------------
   0 S :    0.097759
   1 C :   -0.118989
   2 C :   -0.076735
   3 C :    0.048390
   4 C :   -0.161018
   5 H :   -0.011529
   6 C :    0.039664
   7 H :    0.018239
   8 H :    0.032023
   9 C :   -0.029694
  10 H :    0.016104
  11 H :    0.016746
  12 C :   -0.003720
  13 H :    0.038660
  14 H :    0.003761
  15 H :    0.024342
  16 S :    0.084854
  17 C :   -0.058827
  18 C :   -0.031715
  19 C :   -0.028923
  20 C :   -0.114123
  21 H :    0.018891
  22 C :   -0.041137
  23 H :    0.048367
  24 H :    0.055110
  25 C :   -0.091712
  26 H :    0.037586
  27 H :    0.053872
  28 C :    0.015582
  29 H :    0.028169
  30 H :    0.021166
  31 H :    0.007848
  32 H :    0.029369
  33 H :    0.031622
Sum of atomic charges:    0.0000000

LOEWDIN ATOMIC CHARGES
----------------------
   0 S :    0.387886
   1 C :   -0.170247
   2 C :   -0.064109
   3 C :   -0.067093
   4 C :   -0.191416
   5 H :    0.014478
   6 C :   -0.030956
   7 H :    0.032166
   8 H :    0.036187
   9 C :   -0.030525
  10 H :    0.014723
  11 H :    0.022508
  12 C :   -0.054782
  13 H :    0.032140
  14 H :    0.013763
  15 H :    0.025204
  16 S :    0.366898
  17 C :   -0.147059
  18 C :   -0.063835
  19 C :   -0.055654
  20 C :   -0.193331
  21 H :    0.031684
  22 C :   -0.049430
  23 H :    0.039641
  24 H :    0.041061
  25 C :   -0.039886
  26 H :    0.029930
  27 H :    0.030829
  28 C :   -0.059806
  29 H :    0.024411
  30 H :    0.018422
  31 H :    0.025246
  32 H :    0.014862
  33 H :    0.016087

  Mayer bond orders larger than 0.100000
B(  0-S ,  1-C ) :   1.1240 B(  0-S ,  4-C ) :   1.1638 B(  1-C ,  2-C ) :   1.6127
B(  1-C ,  4-C ) :   0.1028 B(  1-C , 32-H ) :   0.9678 B(  2-C ,  3-C ) :   1.2853
B(  2-C ,  6-C ) :   1.0182 B(  3-C ,  4-C ) :   1.5012 B(  3-C ,  5-H ) :   0.9756
B(  4-C , 20-C ) :   1.0953 B(  6-C ,  7-H ) :   0.9407 B(  6-C ,  8-H ) :   0.9417
B(  6-C ,  9-C ) :   1.0773 B(  9-C , 10-H ) :   0.9569 B(  9-C , 11-H ) :   0.9545
B(  9-C , 12-C ) :   1.0772 B( 12-C , 13-H ) :   0.9737 B( 12-C , 14-H ) :   0.9715
B( 12-C , 15-H ) :   0.9675 B( 16-S , 17-C ) :   1.1252 B( 16-S , 20-C ) :   1.1261
B( 17-C , 18-C ) :   1.6394 B( 17-C , 33-H ) :   0.9683 B( 18-C , 19-C ) :   1.2288
B( 18-C , 21-H ) :   0.9838 B( 19-C , 20-C ) :   1.5774 B( 19-C , 22-C ) :   1.0594
B( 22-C , 23-H ) :   0.9344 B( 22-C , 24-H ) :   0.9090 B( 22-C , 25-C ) :   1.0681
B( 25-C , 26-H ) :   0.9439 B( 25-C , 27-H ) :   0.9561 B( 25-C , 28-C ) :   1.0923
B( 28-C , 29-H ) :   0.9707 B( 28-C , 30-H ) :   0.9743 B( 28-C , 31-H ) :   0.9654

Dispersion correction           -0.013916624
FINAL SINGLE POINT ENERGY     -1339.842932733976

DIPOLE MOMENT
-------------
                                X             Y             Z
Electronic contribution:    -15.82789     -12.87619      21.48918
Nuclear contribution   :     16.31502      13.44006     -21.89887
                        -----------------------------------------
Total Dipole Moment    :      0.48712       0.56387      -0.40969
                        -----------------------------------------
Magnitude (a.u.)       :      0.85034
Magnitude (Debye)      :      2.16140

Rotational constants in cm-1:     0.017496     0.008991     0.006304
Rotational constants in MHz :   524.516251   269.556870   188.998551

                             ****ORCA TERMINATED NORMALLY****
TOTAL RUN TIME: 0 days 0 hours 0 minutes 21 seconds 552 msec
