                         Program Version 4.2.1 -  RELEASE  -
|  1> ! wB97X-D3 SP def2-SVP
|  2> %pal
|  3> nprocs 24
|  4> end
|  5>
|  6> * xyz 0 1
|  7> S 	 -115.382 	 31.2661 	 -23.4922
|  8> C 	 -116.419 	 30.6874 	 -24.8144
|  9> C 	 -117.124 	 29.6183 	 -24.4656
| 10> C 	 -116.849 	 29.2003 	 -23.1107
| 11> C 	 -115.81 	 29.9297 	 -22.4686
| 12> H 	 -117.124 	 28.3429 	 -22.5749
| 13> C 	 -118.04 	 28.8853 	 -25.3844
| 14> H 	 -118.126 	 29.3548 	 -26.3819
| 15> H 	 -119.014 	 28.7497 	 -24.8568
| 16> C 	 -117.481 	 27.4414 	 -25.8421
| 17> H 	 -116.677 	 27.4861 	 -26.5213
| 18> H 	 -117.226 	 27.0618 	 -24.8574
| 19> C 	 -118.594 	 26.5897 	 -26.542
| 20> H 	 -119.561 	 26.6059 	 -26.0248
| 21> H 	 -118.852 	 26.9477 	 -27.57
| 22> H 	 -118.267 	 25.5737 	 -26.7996
| 23> S 	 -114.92 	 31.4957 	 -20.2665
| 24> C 	 -114.678 	 30.7237 	 -18.7654
| 25> C 	 -114.81 	 29.3948 	 -18.8315
| 26> C 	 -115.108 	 28.9316 	 -20.1788
| 27> C 	 -115.34 	 29.9771 	 -21.0923
| 28> H 	 -114.872 	 28.7196 	 -17.9736
| 29> C 	 -115.261 	 27.4795 	 -20.5204
| 30> H 	 -116.257 	 27.3802 	 -20.8702
| 31> H 	 -115.102 	 26.8472 	 -19.6159
| 32> C 	 -114.273 	 26.9537 	 -21.5505
| 33> H 	 -113.281 	 26.9834 	 -21.1575
| 34> H 	 -114.133 	 27.6027 	 -22.414
| 35> C 	 -114.84 	 25.5804 	 -22.0419
| 36> H 	 -115.296 	 24.9637 	 -21.2161
| 37> H 	 -114.109 	 24.9876 	 -22.5493
| 38> H 	 -115.658 	 25.777 	 -22.7182
| 39> H 	 -116.276 	 30.9852 	 -25.8723
| 40> H 	 -114.674 	 31.2306 	 -17.7939
| 41> *
| 42>
| 43>                          ****END OF INPUT****

CARTESIAN COORDINATES (ANGSTROEM)
---------------------------------
  S    -115.382000   31.266100  -23.492200
  C    -116.419000   30.687400  -24.814400
  C    -117.124000   29.618300  -24.465600
  C    -116.849000   29.200300  -23.110700
  C    -115.810000   29.929700  -22.468600
  H    -117.124000   28.342900  -22.574900
  C    -118.040000   28.885300  -25.384400
  H    -118.126000   29.354800  -26.381900
  H    -119.014000   28.749700  -24.856800
  C    -117.481000   27.441400  -25.842100
  H    -116.677000   27.486100  -26.521300
  H    -117.226000   27.061800  -24.857400
  C    -118.594000   26.589700  -26.542000
  H    -119.561000   26.605900  -26.024800
  H    -118.852000   26.947700  -27.570000
  H    -118.267000   25.573700  -26.799600
  S    -114.920000   31.495700  -20.266500
  C    -114.678000   30.723700  -18.765400
  C    -114.810000   29.394800  -18.831500
  C    -115.108000   28.931600  -20.178800
  C    -115.340000   29.977100  -21.092300
  H    -114.872000   28.719600  -17.973600
  C    -115.261000   27.479500  -20.520400
  H    -116.257000   27.380200  -20.870200
  H    -115.102000   26.847200  -19.615900
  C    -114.273000   26.953700  -21.550500
  H    -113.281000   26.983400  -21.157500
  H    -114.133000   27.602700  -22.414000
  C    -114.840000   25.580400  -22.041900
  H    -115.296000   24.963700  -21.216100
  H    -114.109000   24.987600  -22.549300
  H    -115.658000   25.777000  -22.718200
  H    -116.276000   30.985200  -25.872300
  H    -114.674000   31.230600  -17.793900

 Total Charge           Charge          ....    0
 Multiplicity           Mult            ....    1
 Number of Electrons    NEL             ....  134
 Basis Dimension        Dim             ....  322

ORBITAL ENERGIES
----------------

  NO   OCC          E(Eh)            E(eV)
   0   2.0000     -88.966448     -2420.9001
   1   2.0000     -88.962279     -2420.7867
   2   2.0000     -10.337519      -281.2982
   3   2.0000     -10.331770      -281.1418
   4   2.0000     -10.313520      -280.6451
   5   2.0000     -10.312267      -280.6110
   6   2.0000     -10.304416      -280.3974
   7   2.0000     -10.301453      -280.3168
   8   2.0000     -10.300595      -280.2934
   9   2.0000     -10.298685      -280.2415
  10   2.0000     -10.293093      -280.0893
  11   2.0000     -10.292947      -280.0853
  12   2.0000     -10.289809      -279.9999
  13   2.0000     -10.286643      -279.9138
  14   2.0000     -10.282162      -279.7919
  15   2.0000     -10.280128      -279.7365
  16   2.0000      -8.081502      -219.9088
  17   2.0000      -8.077323      -219.7951
  18   2.0000      -6.040204      -164.3623
  19   2.0000      -6.035932      -164.2461
  20   2.0000      -6.035906      -164.2453
  21   2.0000      -6.032052      -164.1405
  22   2.0000      -6.031790      -164.1334
  23   2.0000      -6.027979      -164.0296
  24   2.0000      -1.009213       -27.4621
  25   2.0000      -0.988358       -26.8946
  26   2.0000      -0.914313       -24.8797
  27   2.0000      -0.910094       -24.7649
  28   2.0000      -0.872244       -23.7350
  29   2.0000      -0.849192       -23.1077
  30   2.0000      -0.840776       -22.8787
  31   2.0000      -0.818476       -22.2719
  32   2.0000      -0.782021       -21.2799
  33   2.0000      -0.770504       -20.9665
  34   2.0000      -0.716129       -19.4869
  35   2.0000      -0.703634       -19.1469
  36   2.0000      -0.695636       -18.9292
  37   2.0000      -0.662094       -18.0165
  38   2.0000      -0.641390       -17.4531
  39   2.0000      -0.620246       -16.8777
  40   2.0000      -0.599001       -16.2996
  41   2.0000      -0.572898       -15.5893
  42   2.0000      -0.568445       -15.4682
  43   2.0000      -0.561350       -15.2751
  44   2.0000      -0.525177       -14.2908
  45   2.0000      -0.522630       -14.2215
  46   2.0000      -0.517757       -14.0889
  47   2.0000      -0.511117       -13.9082
  48   2.0000      -0.507180       -13.8011
  49   2.0000      -0.504329       -13.7235
  50   2.0000      -0.490005       -13.3337
  51   2.0000      -0.485817       -13.2198
  52   2.0000      -0.469758       -12.7828
  53   2.0000      -0.465121       -12.6566
  54   2.0000      -0.464239       -12.6326
  55   2.0000      -0.452776       -12.3207
  56   2.0000      -0.448794       -12.2123
  57   2.0000      -0.445617       -12.1259
  58   2.0000      -0.436531       -11.8786
  59   2.0000      -0.422954       -11.5092
  60   2.0000      -0.418532       -11.3888
  61   2.0000      -0.410430       -11.1684
  62   2.0000      -0.405612       -11.0373
  63   2.0000      -0.360558        -9.8113
  64   2.0000      -0.331683        -9.0256
  65   2.0000      -0.328229        -8.9316
  66   2.0000      -0.287172        -7.8144
  67   0.0000       0.020200         0.5497
  68   0.0000       0.075398         2.0517
  69   0.0000       0.104348         2.8395
  70   0.0000       0.117321         3.1925
  71   0.0000       0.126705         3.4478

MULLIKEN ATOMIC CHARGES
-----------------------
   0 S :    0.073381
   1 C :   -0.128056
   2 C :   -0.043204
   3 C :    0.050956
   4 C :   -0.162464
   5 H :   -0.022757
   6 C :    0.021998
   7 H :    0.027301
   8 H :    0.048555
   9 C :   -0.064029
  10 H :    0.031996
  11 H :    0.032918
  12 C :   -0.069205
  13 H :    0.034476
  14 H :    0.024597
  15 H :    0.038554
  16 S :    0.107695
  17 C :   -0.075984
  18 C :   -0.026581
  19 C :   -0.085492
  20 C :   -0.116206
  21 H :    0.025449
  22 C :    0.050753
  23 H :    0.023476
  24 H :    0.027818
  25 C :   -0.062884
  26 H :    0.020947
  27 H :    0.039888
  28 C :   -0.047016
  29 H :    0.032857
  30 H :    0.032772
  31 H :    0.028160
  32 H :    0.062051
  33 H :    0.067277
Sum of atomic charges:   -0.0000000

LOEWDIN ATOMIC CHARGES
----------------------
   0 S :    0.389321
   1 C :   -0.188552
   2 C :   -0.069820
   3 C :   -0.064232
   4 C :   -0.179600
   5 H :    0.015172
   6 C :   -0.030488
   7 H :    0.031175
   8 H :    0.039097
   9 C :   -0.027321
  10 H :    0.019478
  11 H :    0.019285
  12 C :   -0.076190
  13 H :    0.024843
  14 H :    0.027107
  15 H :    0.028154
  16 S :    0.408500
  17 C :   -0.197598
  18 C :   -0.077851
  19 C :   -0.050374
  20 C :   -0.200226
  21 H :    0.034818
  22 C :   -0.033379
  23 H :    0.022731
  24 H :    0.036061
  25 C :   -0.036399
  26 H :    0.020894
  27 H :    0.026474
  28 C :   -0.062202
  29 H :    0.028566
  30 H :    0.021246
  31 H :    0.023136
  32 H :    0.038463
  33 H :    0.039711

  Mayer bond orders larger than 0.100000
B(  0-S ,  1-C ) :   1.1165 B(  0-S ,  4-C ) :   1.1507 B(  1-C ,  2-C ) :   1.6613
B(  1-C , 32-H ) :   0.9559 B(  2-C ,  3-C ) :   1.2008 B(  2-C ,  6-C ) :   1.0393
B(  3-C ,  4-C ) :   1.5629 B(  3-C ,  5-H ) :   0.9931 B(  4-C , 20-C ) :   1.0807
B(  6-C ,  7-H ) :   0.9471 B(  6-C ,  8-H ) :   0.9389 B(  6-C ,  9-C ) :   1.0422
B(  9-C , 10-H ) :   0.9607 B(  9-C , 11-H ) :   0.9629 B(  9-C , 12-C ) :   1.0765
B( 12-C , 13-H ) :   0.9766 B( 12-C , 14-H ) :   0.9733 B( 12-C , 15-H ) :   0.9743
B( 16-S , 17-C ) :   1.1595 B( 16-S , 20-C ) :   1.1169 B( 17-C , 18-C ) :   1.6212
B( 17-C , 33-H ) :   0.9557 B( 18-C , 19-C ) :   1.2543 B( 18-C , 21-H ) :   0.9855
B( 19-C , 20-C ) :   1.5786 B( 19-C , 22-C ) :   1.0432 B( 22-C , 23-H ) :   0.9385
B( 22-C , 24-H ) :   0.9305 B( 22-C , 25-C ) :   1.0536 B( 25-C , 26-H ) :   0.9556
B( 25-C , 27-H ) :   0.9606 B( 25-C , 28-C ) :   1.0606 B( 28-C , 29-H ) :   0.9729
B( 28-C , 30-H ) :   0.9743 B( 28-C , 31-H ) :   0.9771

Dispersion correction           -0.014581072
FINAL SINGLE POINT ENERGY     -1339.865756335471

DIPOLE MOMENT
-------------
                                X             Y             Z
Electronic contribution:      8.62823      28.94588      13.25778
Nuclear contribution   :     -8.86370     -29.65835     -13.33260
                        -----------------------------------------
Total Dipole Moment    :     -0.23547      -0.71247      -0.07482
                        -----------------------------------------
Magnitude (a.u.)       :      0.75409
Magnitude (Debye)      :      1.91676

Rotational constants in cm-1:     0.020013     0.008908     0.006636
Rotational constants in MHz :   599.969636   267.056940   198.933108

                             ****ORCA TERMINATED NORMALLY****
TOTAL RUN TIME: 0 days 0 hours 0 minutes 22 seconds 141 msec
