                         Program Version 4.2.1 -  RELEASE  -
|  1> ! wB97X-D3 SP def2-SVP
|  2> %pal
|  3> nprocs 24
|  4> end
|  5>
|  6> * xyz 0 1
|  7> S 	 -36.2216 	 -10.4259 	 17.3312
|  8> C 	 -35.5174 	 -11.9503 	 17.8228
|  9> C 	 -36.1586 	 -12.9792 	 17.1533
| 10> C 	 -37.3759 	 -12.5603 	 16.5788
| 11> C 	 -37.5185 	 -11.2476 	 16.5216
| 12> H 	 -38.121 	 -13.1447 	 16.1298
| 13> C 	 -35.8025 	 -14.3801 	 17.3572
| 14> H 	 -36.5309 	 -14.8289 	 18.0427
| 15> H 	 -34.7858 	 -14.3547 	 17.7464
| 16> C 	 -35.7687 	 -15.3555 	 16.1169
| 17> H 	 -35.3735 	 -16.3366 	 16.4306
| 18> H 	 -36.7981 	 -15.576 	 15.7855
| 19> C 	 -34.8139 	 -14.8016 	 15.0133
| 20> H 	 -33.7935 	 -14.6129 	 15.3528
| 21> H 	 -34.9049 	 -15.5309 	 14.1739
| 22> H 	 -35.2001 	 -13.8324 	 14.6449
| 23> S 	 -39.7629 	 -9.92931 	 16.9811
| 24> C 	 -40.4484 	 -8.83743 	 15.8221
| 25> C 	 -39.8315 	 -9.00609 	 14.59
| 26> C 	 -38.6726 	 -9.84524 	 14.5706
| 27> C 	 -38.5635 	 -10.3975 	 15.8583
| 28> H 	 -40.2389 	 -8.42588 	 13.7817
| 29> C 	 -37.8278 	 -10.2296 	 13.3407
| 30> H 	 -38.5427 	 -10.396 	 12.5385
| 31> H 	 -37.4456 	 -11.1791 	 13.5724
| 32> C 	 -36.9416 	 -9.12594 	 12.7607
| 33> H 	 -37.6443 	 -8.28667 	 12.5525
| 34> H 	 -36.4627 	 -9.53431 	 11.8845
| 35> C 	 -35.8234 	 -8.7147 	 13.7564
| 36> H 	 -36.172 	 -8.43282 	 14.7226
| 37> H 	 -35.3273 	 -7.82763 	 13.4127
| 38> H 	 -35.03 	 -9.51644 	 13.8626
| 39> H 	 -34.5443 	 -12.0674 	 18.3131
| 40> H 	 -41.2603 	 -8.20129 	 16.0287
| 41> *
| 42>
| 43>                          ****END OF INPUT****

CARTESIAN COORDINATES (ANGSTROEM)
---------------------------------
  S    -36.221600  -10.425900   17.331200
  C    -35.517400  -11.950300   17.822800
  C    -36.158600  -12.979200   17.153300
  C    -37.375900  -12.560300   16.578800
  C    -37.518500  -11.247600   16.521600
  H    -38.121000  -13.144700   16.129800
  C    -35.802500  -14.380100   17.357200
  H    -36.530900  -14.828900   18.042700
  H    -34.785800  -14.354700   17.746400
  C    -35.768700  -15.355500   16.116900
  H    -35.373500  -16.336600   16.430600
  H    -36.798100  -15.576000   15.785500
  C    -34.813900  -14.801600   15.013300
  H    -33.793500  -14.612900   15.352800
  H    -34.904900  -15.530900   14.173900
  H    -35.200100  -13.832400   14.644900
  S    -39.762900   -9.929310   16.981100
  C    -40.448400   -8.837430   15.822100
  C    -39.831500   -9.006090   14.590000
  C    -38.672600   -9.845240   14.570600
  C    -38.563500  -10.397500   15.858300
  H    -40.238900   -8.425880   13.781700
  C    -37.827800  -10.229600   13.340700
  H    -38.542700  -10.396000   12.538500
  H    -37.445600  -11.179100   13.572400
  C    -36.941600   -9.125940   12.760700
  H    -37.644300   -8.286670   12.552500
  H    -36.462700   -9.534310   11.884500
  C    -35.823400   -8.714700   13.756400
  H    -36.172000   -8.432820   14.722600
  H    -35.327300   -7.827630   13.412700
  H    -35.030000   -9.516440   13.862600
  H    -34.544300  -12.067400   18.313100
  H    -41.260300   -8.201290   16.028700

 Total Charge           Charge          ....    0
 Multiplicity           Mult            ....    1
 Number of Electrons    NEL             ....  134
 Basis Dimension        Dim             ....  322

ORBITAL ENERGIES
----------------

  NO   OCC          E(Eh)            E(eV)
   0   2.0000     -88.964367     -2420.8435
   1   2.0000     -88.959852     -2420.7206
   2   2.0000     -10.324137      -280.9340
   3   2.0000     -10.320733      -280.8414
   4   2.0000     -10.311415      -280.5879
   5   2.0000     -10.310374      -280.5596
   6   2.0000     -10.307932      -280.4931
   7   2.0000     -10.293720      -280.1064
   8   2.0000     -10.293163      -280.0912
   9   2.0000     -10.292595      -280.0757
  10   2.0000     -10.290365      -280.0151
  11   2.0000     -10.288720      -279.9703
  12   2.0000     -10.287200      -279.9289
  13   2.0000     -10.282505      -279.8012
  14   2.0000     -10.280787      -279.7544
  15   2.0000     -10.270459      -279.4734
  16   2.0000      -8.080165      -219.8725
  17   2.0000      -8.074966      -219.7310
  18   2.0000      -6.038447      -164.3145
  19   2.0000      -6.034434      -164.2053
  20   2.0000      -6.033415      -164.1776
  21   2.0000      -6.031193      -164.1171
  22   2.0000      -6.029424      -164.0690
  23   2.0000      -6.025750      -163.9690
  24   2.0000      -1.012611       -27.5545
  25   2.0000      -0.989689       -26.9308
  26   2.0000      -0.909603       -24.7515
  27   2.0000      -0.908350       -24.7175
  28   2.0000      -0.864703       -23.5298
  29   2.0000      -0.846587       -23.0368
  30   2.0000      -0.845319       -23.0023
  31   2.0000      -0.818842       -22.2818
  32   2.0000      -0.784734       -21.3537
  33   2.0000      -0.768713       -20.9177
  34   2.0000      -0.706900       -19.2357
  35   2.0000      -0.698521       -19.0077
  36   2.0000      -0.687615       -18.7110
  37   2.0000      -0.657669       -17.8961
  38   2.0000      -0.643592       -17.5130
  39   2.0000      -0.623032       -16.9536
  40   2.0000      -0.597574       -16.2608
  41   2.0000      -0.560204       -15.2439
  42   2.0000      -0.554228       -15.0813
  43   2.0000      -0.550835       -14.9890
  44   2.0000      -0.542482       -14.7617
  45   2.0000      -0.537963       -14.6387
  46   2.0000      -0.520940       -14.1755
  47   2.0000      -0.514716       -14.0061
  48   2.0000      -0.497757       -13.5447
  49   2.0000      -0.496596       -13.5131
  50   2.0000      -0.487853       -13.2751
  51   2.0000      -0.477838       -13.0026
  52   2.0000      -0.467880       -12.7317
  53   2.0000      -0.465656       -12.6711
  54   2.0000      -0.460541       -12.5320
  55   2.0000      -0.443836       -12.0774
  56   2.0000      -0.441376       -12.0104
  57   2.0000      -0.434125       -11.8131
  58   2.0000      -0.430659       -11.7188
  59   2.0000      -0.426555       -11.6071
  60   2.0000      -0.420312       -11.4373
  61   2.0000      -0.416405       -11.3309
  62   2.0000      -0.413109       -11.2413
  63   2.0000      -0.337443        -9.1823
  64   2.0000      -0.330652        -8.9975
  65   2.0000      -0.314680        -8.5629
  66   2.0000      -0.311619        -8.4796
  67   0.0000       0.050266         1.3678
  68   0.0000       0.057562         1.5663
  69   0.0000       0.112700         3.0667
  70   0.0000       0.122246         3.3265
  71   0.0000       0.129625         3.5273

MULLIKEN ATOMIC CHARGES
-----------------------
   0 S :    0.111928
   1 C :   -0.125384
   2 C :   -0.093635
   3 C :    0.069042
   4 C :   -0.147129
   5 H :   -0.015499
   6 C :    0.056444
   7 H :    0.047176
   8 H :    0.010432
   9 C :   -0.091417
  10 H :    0.031302
  11 H :    0.031034
  12 C :   -0.070851
  13 H :    0.039369
  14 H :    0.042370
  15 H :    0.041359
  16 S :    0.129397
  17 C :   -0.081874
  18 C :   -0.048242
  19 C :   -0.010533
  20 C :   -0.230147
  21 H :    0.011118
  22 C :    0.109979
  23 H :    0.021981
  24 H :    0.011316
  25 C :   -0.060063
  26 H :    0.038670
  27 H :    0.035115
  28 C :   -0.047698
  29 H :    0.026619
  30 H :    0.021079
  31 H :    0.039166
  32 H :    0.058179
  33 H :    0.039396
Sum of atomic charges:    0.0000000

LOEWDIN ATOMIC CHARGES
----------------------
   0 S :    0.410256
   1 C :   -0.199606
   2 C :   -0.069679
   3 C :   -0.063317
   4 C :   -0.197046
   5 H :    0.026229
   6 C :   -0.035573
   7 H :    0.037641
   8 H :    0.027734
   9 C :   -0.042006
  10 H :    0.025325
  11 H :    0.021489
  12 C :   -0.069842
  13 H :    0.026061
  14 H :    0.030483
  15 H :    0.026373
  16 S :    0.440725
  17 C :   -0.189452
  18 C :   -0.071016
  19 C :   -0.052557
  20 C :   -0.215976
  21 H :    0.026479
  22 C :   -0.024673
  23 H :    0.035015
  24 H :    0.022425
  25 C :   -0.033453
  26 H :    0.030586
  27 H :    0.026128
  28 C :   -0.068500
  29 H :    0.015843
  30 H :    0.020697
  31 H :    0.032474
  32 H :    0.031890
  33 H :    0.018841

  Mayer bond orders larger than 0.100000
B(  0-S ,  1-C ) :   1.1369 B(  0-S ,  4-C ) :   1.1559 B(  1-C ,  2-C ) :   1.6153
B(  1-C , 32-H ) :   0.9621 B(  2-C ,  3-C ) :   1.1888 B(  2-C ,  6-C ) :   1.0506
B(  3-C ,  4-C ) :   1.6443 B(  3-C ,  5-H ) :   1.0062 B(  4-C , 20-C ) :   0.9513
B(  6-C ,  7-H ) :   0.9395 B(  6-C ,  8-H ) :   0.9356 B(  6-C ,  9-C ) :   1.0709
B(  9-C , 10-H ) :   0.9583 B(  9-C , 11-H ) :   0.9557 B(  9-C , 12-C ) :   1.0660
B( 12-C , 13-H ) :   0.9764 B( 12-C , 14-H ) :   0.9757 B( 12-C , 15-H ) :   0.9741
B( 16-S , 17-C ) :   1.1556 B( 16-S , 20-C ) :   1.2025 B( 17-C , 18-C ) :   1.6040
B( 17-C , 20-C ) :   0.1018 B( 17-C , 33-H ) :   0.9767 B( 18-C , 19-C ) :   1.2323
B( 18-C , 21-H ) :   0.9880 B( 19-C , 20-C ) :   1.5709 B( 19-C , 22-C ) :   1.0249
B( 22-C , 23-H ) :   0.9348 B( 22-C , 24-H ) :   0.9379 B( 22-C , 25-C ) :   1.0618
B( 25-C , 26-H ) :   0.9554 B( 25-C , 27-H ) :   0.9552 B( 25-C , 28-C ) :   1.0779
B( 28-C , 29-H ) :   0.9750 B( 28-C , 30-H ) :   0.9735 B( 28-C , 31-H ) :   0.9753

Dispersion correction           -0.015375576
FINAL SINGLE POINT ENERGY     -1339.876124298959

DIPOLE MOMENT
-------------
                                X             Y             Z
Electronic contribution:    -13.57960      11.16424      15.73144
Nuclear contribution   :     13.61708     -11.46724     -16.16989
                        -----------------------------------------
Total Dipole Moment    :      0.03747      -0.30300      -0.43844
                        -----------------------------------------
Magnitude (a.u.)       :      0.53427
Magnitude (Debye)      :      1.35801

Rotational constants in cm-1:     0.019613     0.009142     0.007866
Rotational constants in MHz :   587.974390   274.078309   235.819144

                             ****ORCA TERMINATED NORMALLY****
TOTAL RUN TIME: 0 days 0 hours 0 minutes 21 seconds 42 msec
