                         Program Version 4.2.1 -  RELEASE  -
|  1> ! wB97X-D3 SP def2-SVP
|  2> %pal
|  3> nprocs 24
|  4> end
|  5>
|  6> * xyz 0 1
|  7> S 	 -110.584 	 53.7997 	 -87.6045
|  8> C 	 -112.097 	 54.6678 	 -87.3552
|  9> C 	 -112.224 	 55.8266 	 -88.1408
| 10> C 	 -110.953 	 56.118 	 -88.7689
| 11> C 	 -109.972 	 55.2613 	 -88.4731
| 12> H 	 -110.648 	 56.9193 	 -89.4253
| 13> C 	 -113.442 	 56.7995 	 -88.1181
| 14> H 	 -114.364 	 56.2222 	 -87.9944
| 15> H 	 -113.393 	 57.2363 	 -89.1088
| 16> C 	 -113.226 	 57.9325 	 -87.1055
| 17> H 	 -112.18 	 57.8875 	 -86.7903
| 18> H 	 -113.411 	 58.9864 	 -87.5453
| 19> C 	 -114.116 	 57.7911 	 -85.9155
| 20> H 	 -114.183 	 58.7559 	 -85.4103
| 21> H 	 -115.153 	 57.6282 	 -86.0913
| 22> H 	 -113.772 	 56.975 	 -85.178
| 23> S 	 -107.808 	 53.9092 	 -89.3934
| 24> C 	 -106.228 	 54.687 	 -89.3243
| 25> C 	 -106.389 	 56.039 	 -89.2785
| 26> C 	 -107.717 	 56.4388 	 -88.9886
| 27> C 	 -108.56 	 55.3746 	 -88.8586
| 28> H 	 -105.585 	 56.7796 	 -89.4202
| 29> C 	 -108.097 	 57.9076 	 -88.7422
| 30> H 	 -108.829 	 57.882 	 -87.927
| 31> H 	 -108.616 	 58.1861 	 -89.7073
| 32> C 	 -106.983 	 58.9456 	 -88.5338
| 33> H 	 -106.416 	 59.0716 	 -89.401
| 34> H 	 -106.301 	 58.4827 	 -87.8315
| 35> C 	 -107.513 	 60.2044 	 -87.9215
| 36> H 	 -106.726 	 60.7745 	 -87.5962
| 37> H 	 -108.105 	 60.0129 	 -87.0985
| 38> H 	 -108.136 	 60.8406 	 -88.5909
| 39> H 	 -112.798 	 54.2452 	 -86.6526
| 40> H 	 -105.312 	 54.2511 	 -89.4311
| 41> *
| 42>
| 43>                          ****END OF INPUT****

CARTESIAN COORDINATES (ANGSTROEM)
---------------------------------
  S    -110.584000   53.799700  -87.604500
  C    -112.097000   54.667800  -87.355200
  C    -112.224000   55.826600  -88.140800
  C    -110.953000   56.118000  -88.768900
  C    -109.972000   55.261300  -88.473100
  H    -110.648000   56.919300  -89.425300
  C    -113.442000   56.799500  -88.118100
  H    -114.364000   56.222200  -87.994400
  H    -113.393000   57.236300  -89.108800
  C    -113.226000   57.932500  -87.105500
  H    -112.180000   57.887500  -86.790300
  H    -113.411000   58.986400  -87.545300
  C    -114.116000   57.791100  -85.915500
  H    -114.183000   58.755900  -85.410300
  H    -115.153000   57.628200  -86.091300
  H    -113.772000   56.975000  -85.178000
  S    -107.808000   53.909200  -89.393400
  C    -106.228000   54.687000  -89.324300
  C    -106.389000   56.039000  -89.278500
  C    -107.717000   56.438800  -88.988600
  C    -108.560000   55.374600  -88.858600
  H    -105.585000   56.779600  -89.420200
  C    -108.097000   57.907600  -88.742200
  H    -108.829000   57.882000  -87.927000
  H    -108.616000   58.186100  -89.707300
  C    -106.983000   58.945600  -88.533800
  H    -106.416000   59.071600  -89.401000
  H    -106.301000   58.482700  -87.831500
  C    -107.513000   60.204400  -87.921500
  H    -106.726000   60.774500  -87.596200
  H    -108.105000   60.012900  -87.098500
  H    -108.136000   60.840600  -88.590900
  H    -112.798000   54.245200  -86.652600
  H    -105.312000   54.251100  -89.431100

 Total Charge           Charge          ....    0
 Multiplicity           Mult            ....    1
 Number of Electrons    NEL             ....  134
 Basis Dimension        Dim             ....  322

ORBITAL ENERGIES
----------------

  NO   OCC          E(Eh)            E(eV)
   0   2.0000     -88.962179     -2420.7840
   1   2.0000     -88.960937     -2420.7502
   2   2.0000     -10.326773      -281.0058
   3   2.0000     -10.319489      -280.8076
   4   2.0000     -10.317067      -280.7417
   5   2.0000     -10.309796      -280.5438
   6   2.0000     -10.308324      -280.5038
   7   2.0000     -10.297570      -280.2111
   8   2.0000     -10.296996      -280.1955
   9   2.0000     -10.295578      -280.1569
  10   2.0000     -10.292351      -280.0691
  11   2.0000     -10.291697      -280.0513
  12   2.0000     -10.291015      -280.0328
  13   2.0000     -10.282598      -279.8037
  14   2.0000     -10.278194      -279.6839
  15   2.0000     -10.268611      -279.4231
  16   2.0000      -8.076318      -219.7678
  17   2.0000      -8.076161      -219.7635
  18   2.0000      -6.034858      -164.2168
  19   2.0000      -6.034802      -164.2153
  20   2.0000      -6.031231      -164.1181
  21   2.0000      -6.030796      -164.1063
  22   2.0000      -6.026758      -163.9964
  23   2.0000      -6.026567      -163.9912
  24   2.0000      -1.008267       -27.4363
  25   2.0000      -0.981611       -26.7110
  26   2.0000      -0.915378       -24.9087
  27   2.0000      -0.911174       -24.7943
  28   2.0000      -0.870066       -23.6757
  29   2.0000      -0.857218       -23.3261
  30   2.0000      -0.844976       -22.9930
  31   2.0000      -0.817994       -22.2587
  32   2.0000      -0.782215       -21.2852
  33   2.0000      -0.772465       -21.0199
  34   2.0000      -0.714286       -19.4367
  35   2.0000      -0.700307       -19.0563
  36   2.0000      -0.692789       -18.8518
  37   2.0000      -0.657303       -17.8861
  38   2.0000      -0.647804       -17.6277
  39   2.0000      -0.615798       -16.7567
  40   2.0000      -0.599161       -16.3040
  41   2.0000      -0.575844       -15.6695
  42   2.0000      -0.568514       -15.4700
  43   2.0000      -0.549580       -14.9548
  44   2.0000      -0.534868       -14.5545
  45   2.0000      -0.531623       -14.4662
  46   2.0000      -0.521448       -14.1893
  47   2.0000      -0.514473       -13.9995
  48   2.0000      -0.504435       -13.7264
  49   2.0000      -0.495682       -13.4882
  50   2.0000      -0.488066       -13.2810
  51   2.0000      -0.483172       -13.1478
  52   2.0000      -0.478651       -13.0248
  53   2.0000      -0.467793       -12.7293
  54   2.0000      -0.455775       -12.4023
  55   2.0000      -0.452047       -12.3008
  56   2.0000      -0.444834       -12.1046
  57   2.0000      -0.443005       -12.0548
  58   2.0000      -0.436568       -11.8796
  59   2.0000      -0.424906       -11.5623
  60   2.0000      -0.422720       -11.5028
  61   2.0000      -0.413847       -11.2613
  62   2.0000      -0.406757       -11.0684
  63   2.0000      -0.351935        -9.5766
  64   2.0000      -0.330103        -8.9826
  65   2.0000      -0.326830        -8.8935
  66   2.0000      -0.285837        -7.7780
  67   0.0000       0.025385         0.6908
  68   0.0000       0.071507         1.9458
  69   0.0000       0.097340         2.6488
  70   0.0000       0.127753         3.4763
  71   0.0000       0.135346         3.6830

MULLIKEN ATOMIC CHARGES
-----------------------
   0 S :    0.095137
   1 C :   -0.129490
   2 C :   -0.093981
   3 C :   -0.004417
   4 C :   -0.126442
   5 H :    0.009501
   6 C :    0.099873
   7 H :    0.037115
   8 H :    0.025054
   9 C :   -0.077784
  10 H :    0.046817
  11 H :    0.039629
  12 C :   -0.070679
  13 H :    0.027058
  14 H :    0.020783
  15 H :    0.045786
  16 S :    0.092707
  17 C :   -0.034762
  18 C :   -0.049100
  19 C :   -0.050710
  20 C :   -0.153210
  21 H :    0.023531
  22 C :    0.003219
  23 H :    0.041743
  24 H :    0.049821
  25 C :   -0.059306
  26 H :    0.021763
  27 H :    0.024049
  28 C :    0.034959
  29 H :    0.010335
  30 H :    0.008723
  31 H :    0.027599
  32 H :    0.049996
  33 H :    0.014683
Sum of atomic charges:    0.0000000

LOEWDIN ATOMIC CHARGES
----------------------
   0 S :    0.361295
   1 C :   -0.184368
   2 C :   -0.058157
   3 C :   -0.066134
   4 C :   -0.169326
   5 H :    0.034526
   6 C :   -0.026714
   7 H :    0.032151
   8 H :    0.033526
   9 C :   -0.048068
  10 H :    0.030149
  11 H :    0.032735
  12 C :   -0.075571
  13 H :    0.027465
  14 H :    0.017555
  15 H :    0.034531
  16 S :    0.397337
  17 C :   -0.162788
  18 C :   -0.071308
  19 C :   -0.064823
  20 C :   -0.198376
  21 H :    0.034565
  22 C :   -0.033853
  23 H :    0.032011
  24 H :    0.037434
  25 C :   -0.038061
  26 H :    0.016544
  27 H :    0.025229
  28 C :   -0.047740
  29 H :    0.017897
  30 H :    0.017870
  31 H :    0.029913
  32 H :    0.022301
  33 H :    0.010252

  Mayer bond orders larger than 0.100000
B(  0-S ,  1-C ) :   1.1319 B(  0-S ,  4-C ) :   1.1074 B(  1-C ,  2-C ) :   1.6261
B(  1-C , 32-H ) :   0.9733 B(  2-C ,  3-C ) :   1.1649 B(  2-C ,  6-C ) :   1.0354
B(  3-C ,  4-C ) :   1.6434 B(  3-C ,  5-H ) :   0.9955 B(  4-C , 20-C ) :   1.0440
B(  6-C ,  7-H ) :   0.9508 B(  6-C ,  8-H ) :   0.9333 B(  6-C ,  9-C ) :   1.0327
B(  9-C , 10-H ) :   0.9582 B(  9-C , 11-H ) :   0.9578 B(  9-C , 12-C ) :   1.0887
B( 12-C , 13-H ) :   0.9715 B( 12-C , 14-H ) :   0.9762 B( 12-C , 15-H ) :   0.9712
B( 16-S , 17-C ) :   1.1342 B( 16-S , 20-C ) :   1.1364 B( 17-C , 18-C ) :   1.6064
B( 17-C , 33-H ) :   0.9793 B( 18-C , 19-C ) :   1.2551 B( 18-C , 21-H ) :   0.9793
B( 19-C , 20-C ) :   1.6288 B( 19-C , 22-C ) :   1.0139 B( 22-C , 23-H ) :   0.9441
B( 22-C , 24-H ) :   0.9222 B( 22-C , 25-C ) :   1.0814 B( 25-C , 26-H ) :   0.9427
B( 25-C , 27-H ) :   0.9513 B( 25-C , 28-C ) :   1.0952 B( 28-C , 29-H ) :   0.9667
B( 28-C , 30-H ) :   0.9701 B( 28-C , 31-H ) :   0.9711

Dispersion correction           -0.013821474
FINAL SINGLE POINT ENERGY     -1339.855593749733

DIPOLE MOMENT
-------------
                                X             Y             Z
Electronic contribution:      8.85369     -29.27912      -7.41781
Nuclear contribution   :     -8.93445      30.14646       7.46121
                        -----------------------------------------
Total Dipole Moment    :     -0.08076       0.86734       0.04340
                        -----------------------------------------
Magnitude (a.u.)       :      0.87218
Magnitude (Debye)      :      2.21690

Rotational constants in cm-1:     0.016822     0.009341     0.006335
Rotational constants in MHz :   504.310653   280.040619   189.907429

                             ****ORCA TERMINATED NORMALLY****
TOTAL RUN TIME: 0 days 0 hours 0 minutes 21 seconds 590 msec
