                         Program Version 4.2.1 -  RELEASE  -
|  1> ! wB97X-D3 SP def2-SVP
|  2> %pal
|  3> nprocs 24
|  4> end
|  5>
|  6> * xyz 0 1
|  7> S 	 -56.8932 	 17.4996 	 -105.065
|  8> C 	 -56.9051 	 18.1955 	 -103.391
|  9> C 	 -57.0633 	 17.2634 	 -102.401
| 10> C 	 -57.4612 	 15.972 	 -103.016
| 11> C 	 -57.468 	 15.9434 	 -104.432
| 12> H 	 -57.7023 	 15.0849 	 -102.598
| 13> C 	 -57.1072 	 17.5142 	 -100.807
| 14> H 	 -57.8893 	 18.2228 	 -100.694
| 15> H 	 -56.2522 	 17.9774 	 -100.42
| 16> C 	 -57.3611 	 16.3177 	 -99.901
| 17> H 	 -58.3287 	 15.9281 	 -100.151
| 18> H 	 -56.5906 	 15.5433 	 -100.034
| 19> C 	 -57.4126 	 16.6908 	 -98.4053
| 20> H 	 -57.639 	 15.8314 	 -97.7488
| 21> H 	 -56.3875 	 16.987 	 -98.174
| 22> H 	 -58.0645 	 17.6094 	 -98.1128
| 23> S 	 -56.138 	 14.2784 	 -105.962
| 24> C 	 -56.8767 	 12.9616 	 -106.783
| 25> C 	 -58.2408 	 12.9593 	 -106.577
| 26> C 	 -58.6637 	 14.063 	 -105.77
| 27> C 	 -57.6169 	 14.8197 	 -105.288
| 28> H 	 -58.8721 	 12.1547 	 -107.024
| 29> C 	 -60.1343 	 14.3318 	 -105.479
| 30> H 	 -60.1019 	 15.0435 	 -104.579
| 31> H 	 -60.8053 	 13.5215 	 -105.209
| 32> C 	 -60.8541 	 15.1522 	 -106.596
| 33> H 	 -60.2193 	 16.0006 	 -106.859
| 34> H 	 -61.6908 	 15.6819 	 -106.168
| 35> C 	 -61.2453 	 14.4093 	 -107.88
| 36> H 	 -62.1543 	 13.776 	 -107.842
| 37> H 	 -60.4308 	 13.7634 	 -108.239
| 38> H 	 -61.536 	 15.0247 	 -108.743
| 39> H 	 -56.6223 	 19.1873 	 -103.231
| 40> H 	 -56.2927 	 12.1911 	 -107.291
| 41> *
| 42>
| 43>                          ****END OF INPUT****

CARTESIAN COORDINATES (ANGSTROEM)
---------------------------------
  S    -56.893200   17.499600  -105.065000
  C    -56.905100   18.195500  -103.391000
  C    -57.063300   17.263400  -102.401000
  C    -57.461200   15.972000  -103.016000
  C    -57.468000   15.943400  -104.432000
  H    -57.702300   15.084900  -102.598000
  C    -57.107200   17.514200  -100.807000
  H    -57.889300   18.222800  -100.694000
  H    -56.252200   17.977400  -100.420000
  C    -57.361100   16.317700  -99.901000
  H    -58.328700   15.928100  -100.151000
  H    -56.590600   15.543300  -100.034000
  C    -57.412600   16.690800  -98.405300
  H    -57.639000   15.831400  -97.748800
  H    -56.387500   16.987000  -98.174000
  H    -58.064500   17.609400  -98.112800
  S    -56.138000   14.278400  -105.962000
  C    -56.876700   12.961600  -106.783000
  C    -58.240800   12.959300  -106.577000
  C    -58.663700   14.063000  -105.770000
  C    -57.616900   14.819700  -105.288000
  H    -58.872100   12.154700  -107.024000
  C    -60.134300   14.331800  -105.479000
  H    -60.101900   15.043500  -104.579000
  H    -60.805300   13.521500  -105.209000
  C    -60.854100   15.152200  -106.596000
  H    -60.219300   16.000600  -106.859000
  H    -61.690800   15.681900  -106.168000
  C    -61.245300   14.409300  -107.880000
  H    -62.154300   13.776000  -107.842000
  H    -60.430800   13.763400  -108.239000
  H    -61.536000   15.024700  -108.743000
  H    -56.622300   19.187300  -103.231000
  H    -56.292700   12.191100  -107.291000

 Total Charge           Charge          ....    0
 Multiplicity           Mult            ....    1
 Number of Electrons    NEL             ....  134
 Basis Dimension        Dim             ....  322

ORBITAL ENERGIES
----------------

  NO   OCC          E(Eh)            E(eV)
   0   2.0000     -88.965235     -2420.8671
   1   2.0000     -88.961867     -2420.7755
   2   2.0000     -10.331652      -281.1385
   3   2.0000     -10.320409      -280.8326
   4   2.0000     -10.317300      -280.7480
   5   2.0000     -10.316174      -280.7174
   6   2.0000     -10.315697      -280.7044
   7   2.0000     -10.305406      -280.4243
   8   2.0000     -10.296652      -280.1862
   9   2.0000     -10.296487      -280.1817
  10   2.0000     -10.296473      -280.1813
  11   2.0000     -10.295447      -280.1534
  12   2.0000     -10.291169      -280.0369
  13   2.0000     -10.290083      -280.0074
  14   2.0000     -10.282638      -279.8048
  15   2.0000     -10.276562      -279.6395
  16   2.0000      -8.078767      -219.8344
  17   2.0000      -8.078278      -219.8211
  18   2.0000      -6.037421      -164.2866
  19   2.0000      -6.036634      -164.2652
  20   2.0000      -6.033569      -164.1818
  21   2.0000      -6.032380      -164.1494
  22   2.0000      -6.029308      -164.0658
  23   2.0000      -6.029236      -164.0639
  24   2.0000      -1.011927       -27.5359
  25   2.0000      -0.975111       -26.5341
  26   2.0000      -0.911491       -24.8029
  27   2.0000      -0.901074       -24.5195
  28   2.0000      -0.876092       -23.8397
  29   2.0000      -0.844750       -22.9868
  30   2.0000      -0.838152       -22.8073
  31   2.0000      -0.813526       -22.1372
  32   2.0000      -0.783886       -21.3306
  33   2.0000      -0.774320       -21.0703
  34   2.0000      -0.711795       -19.3689
  35   2.0000      -0.696099       -18.9418
  36   2.0000      -0.689210       -18.7544
  37   2.0000      -0.663444       -18.0532
  38   2.0000      -0.652510       -17.7557
  39   2.0000      -0.613124       -16.6840
  40   2.0000      -0.595432       -16.2025
  41   2.0000      -0.578118       -15.7314
  42   2.0000      -0.562564       -15.3081
  43   2.0000      -0.541930       -14.7467
  44   2.0000      -0.540335       -14.7033
  45   2.0000      -0.522012       -14.2047
  46   2.0000      -0.511610       -13.9216
  47   2.0000      -0.509722       -13.8702
  48   2.0000      -0.504163       -13.7190
  49   2.0000      -0.495610       -13.4862
  50   2.0000      -0.487666       -13.2701
  51   2.0000      -0.481887       -13.1128
  52   2.0000      -0.476226       -12.9588
  53   2.0000      -0.469580       -12.7779
  54   2.0000      -0.455306       -12.3895
  55   2.0000      -0.447063       -12.1652
  56   2.0000      -0.439373       -11.9559
  57   2.0000      -0.435569       -11.8524
  58   2.0000      -0.426493       -11.6055
  59   2.0000      -0.425912       -11.5897
  60   2.0000      -0.419990       -11.4285
  61   2.0000      -0.418282       -11.3820
  62   2.0000      -0.408977       -11.1288
  63   2.0000      -0.337798        -9.1919
  64   2.0000      -0.333189        -9.0665
  65   2.0000      -0.325632        -8.8609
  66   2.0000      -0.301996        -8.2177
  67   0.0000       0.039455         1.0736
  68   0.0000       0.053127         1.4457
  69   0.0000       0.108666         2.9569
  70   0.0000       0.126399         3.4395
  71   0.0000       0.129082         3.5125

MULLIKEN ATOMIC CHARGES
-----------------------
   0 S :    0.095307
   1 C :   -0.109463
   2 C :   -0.037725
   3 C :    0.077931
   4 C :   -0.173464
   5 H :   -0.032754
   6 C :    0.077472
   7 H :    0.030690
   8 H :    0.014010
   9 C :   -0.081089
  10 H :    0.028791
  11 H :    0.043704
  12 C :   -0.082791
  13 H :    0.048361
  14 H :    0.024467
  15 H :    0.048019
  16 S :    0.117727
  17 C :   -0.102696
  18 C :   -0.051395
  19 C :   -0.000270
  20 C :   -0.186461
  21 H :    0.040902
  22 C :    0.026985
  23 H :    0.036041
  24 H :    0.034364
  25 C :   -0.042531
  26 H :    0.022550
  27 H :    0.023028
  28 C :   -0.067412
  29 H :    0.024069
  30 H :    0.029341
  31 H :    0.031129
  32 H :    0.028825
  33 H :    0.064334
Sum of atomic charges:   -0.0000000

LOEWDIN ATOMIC CHARGES
----------------------
   0 S :    0.366234
   1 C :   -0.164740
   2 C :   -0.047884
   3 C :   -0.042978
   4 C :   -0.192324
   5 H :    0.009586
   6 C :   -0.019089
   7 H :    0.030926
   8 H :    0.021344
   9 C :   -0.042332
  10 H :    0.018975
  11 H :    0.029561
  12 C :   -0.072631
  13 H :    0.031326
  14 H :    0.021765
  15 H :    0.035518
  16 S :    0.441180
  17 C :   -0.195611
  18 C :   -0.080676
  19 C :   -0.054538
  20 C :   -0.221230
  21 H :    0.040353
  22 C :   -0.034530
  23 H :    0.041306
  24 H :    0.028217
  25 C :   -0.041983
  26 H :    0.026894
  27 H :    0.023037
  28 C :   -0.080781
  29 H :    0.024219
  30 H :    0.025160
  31 H :    0.029684
  32 H :    0.014094
  33 H :    0.031946

  Mayer bond orders larger than 0.100000
B(  0-S ,  1-C ) :   1.1211 B(  0-S ,  4-C ) :   1.1211 B(  1-C ,  2-C ) :   1.6693
B(  1-C , 32-H ) :   0.9777 B(  2-C ,  3-C ) :   1.1845 B(  2-C ,  6-C ) :   0.9827
B(  3-C ,  4-C ) :   1.6142 B(  3-C ,  5-H ) :   1.0021 B(  4-C , 20-C ) :   1.0351
B(  6-C ,  7-H ) :   0.9441 B(  6-C ,  8-H ) :   0.9472 B(  6-C ,  9-C ) :   1.0835
B(  9-C , 10-H ) :   0.9480 B(  9-C , 11-H ) :   0.9552 B(  9-C , 12-C ) :   1.0783
B( 12-C , 13-H ) :   0.9730 B( 12-C , 14-H ) :   0.9745 B( 12-C , 15-H ) :   0.9746
B( 16-S , 17-C ) :   1.1751 B( 16-S , 20-C ) :   1.1631 B( 17-C , 18-C ) :   1.5867
B( 17-C , 20-C ) :   0.1025 B( 17-C , 33-H ) :   0.9675 B( 18-C , 19-C ) :   1.2404
B( 18-C , 21-H ) :   0.9850 B( 19-C , 20-C ) :   1.5973 B( 19-C , 22-C ) :   1.0438
B( 22-C , 23-H ) :   0.9289 B( 22-C , 24-H ) :   0.9497 B( 22-C , 25-C ) :   1.0710
B( 25-C , 26-H ) :   0.9515 B( 25-C , 27-H ) :   0.9561 B( 25-C , 28-C ) :   1.0710
B( 28-C , 29-H ) :   0.9749 B( 28-C , 30-H ) :   0.9733 B( 28-C , 31-H ) :   0.9727

Dispersion correction           -0.013800326
FINAL SINGLE POINT ENERGY     -1339.862263069846

DIPOLE MOMENT
-------------
                                X             Y             Z
Electronic contribution:     16.12092       0.77189     -14.43667
Nuclear contribution   :    -16.35703      -0.91053      14.92737
                        -----------------------------------------
Total Dipole Moment    :     -0.23611      -0.13864       0.49070
                        -----------------------------------------
Magnitude (a.u.)       :      0.56192
Magnitude (Debye)      :      1.42829

Rotational constants in cm-1:     0.020595     0.007002     0.006644
Rotational constants in MHz :   617.432269   209.906625   199.185168

                             ****ORCA TERMINATED NORMALLY****
TOTAL RUN TIME: 0 days 0 hours 0 minutes 20 seconds 940 msec
