                         Program Version 4.2.1 -  RELEASE  -
|  1> ! wB97X-D3 SP def2-SVP
|  2> %pal
|  3> nprocs 24
|  4> end
|  5>
|  6> * xyz 0 1
|  7> S 	 -125.88 	 66.5725 	 -48.6657
|  8> C 	 -124.465 	 66.5577 	 -49.7208
|  9> C 	 -124.668 	 65.8381 	 -50.8943
| 10> C 	 -126.006 	 65.3427 	 -50.908
| 11> C 	 -126.826 	 65.7657 	 -49.8851
| 12> H 	 -126.553 	 64.878 	 -51.7307
| 13> C 	 -123.59 	 65.4891 	 -51.8822
| 14> H 	 -122.712 	 66.0586 	 -51.6356
| 15> H 	 -123.953 	 65.8418 	 -52.8424
| 16> C 	 -123.178 	 63.9952 	 -52.0845
| 17> H 	 -122.958 	 63.3791 	 -51.1475
| 18> H 	 -124.059 	 63.3507 	 -52.3383
| 19> C 	 -122.013 	 63.8413 	 -53.0741
| 20> H 	 -122.005 	 64.5876 	 -53.8524
| 21> H 	 -121.07 	 64.0018 	 -52.55
| 22> H 	 -122.048 	 62.7558 	 -53.4318
| 23> S 	 -128.672 	 63.6959 	 -49.6969
| 24> C 	 -130.397 	 64.0758 	 -49.5863
| 25> C 	 -130.637 	 65.4288 	 -49.5467
| 26> C 	 -129.454 	 66.2307 	 -49.6164
| 27> C 	 -128.299 	 65.455 	 -49.8388
| 28> H 	 -131.61 	 65.7331 	 -49.3435
| 29> C 	 -129.476 	 67.7947 	 -49.5115
| 30> H 	 -129.819 	 68.2167 	 -50.4393
| 31> H 	 -128.546 	 68.2748 	 -49.3659
| 32> C 	 -130.61 	 68.3358 	 -48.5772
| 33> H 	 -130.559 	 67.7503 	 -47.6646
| 34> H 	 -131.656 	 68.1738 	 -48.9696
| 35> C 	 -130.394 	 69.7875 	 -48.2813
| 36> H 	 -130.681 	 70.4374 	 -49.1088
| 37> H 	 -129.365 	 69.9287 	 -48.026
| 38> H 	 -131.08 	 70.176 	 -47.4772
| 39> H 	 -123.537 	 66.876 	 -49.4652
| 40> H 	 -131.158 	 63.2911 	 -49.4539
| 41> *
| 42>
| 43>                          ****END OF INPUT****

CARTESIAN COORDINATES (ANGSTROEM)
---------------------------------
  S    -125.880000   66.572500  -48.665700
  C    -124.465000   66.557700  -49.720800
  C    -124.668000   65.838100  -50.894300
  C    -126.006000   65.342700  -50.908000
  C    -126.826000   65.765700  -49.885100
  H    -126.553000   64.878000  -51.730700
  C    -123.590000   65.489100  -51.882200
  H    -122.712000   66.058600  -51.635600
  H    -123.953000   65.841800  -52.842400
  C    -123.178000   63.995200  -52.084500
  H    -122.958000   63.379100  -51.147500
  H    -124.059000   63.350700  -52.338300
  C    -122.013000   63.841300  -53.074100
  H    -122.005000   64.587600  -53.852400
  H    -121.070000   64.001800  -52.550000
  H    -122.048000   62.755800  -53.431800
  S    -128.672000   63.695900  -49.696900
  C    -130.397000   64.075800  -49.586300
  C    -130.637000   65.428800  -49.546700
  C    -129.454000   66.230700  -49.616400
  C    -128.299000   65.455000  -49.838800
  H    -131.610000   65.733100  -49.343500
  C    -129.476000   67.794700  -49.511500
  H    -129.819000   68.216700  -50.439300
  H    -128.546000   68.274800  -49.365900
  C    -130.610000   68.335800  -48.577200
  H    -130.559000   67.750300  -47.664600
  H    -131.656000   68.173800  -48.969600
  C    -130.394000   69.787500  -48.281300
  H    -130.681000   70.437400  -49.108800
  H    -129.365000   69.928700  -48.026000
  H    -131.080000   70.176000  -47.477200
  H    -123.537000   66.876000  -49.465200
  H    -131.158000   63.291100  -49.453900

 Total Charge           Charge          ....    0
 Multiplicity           Mult            ....    1
 Number of Electrons    NEL             ....  134
 Basis Dimension        Dim             ....  322

ORBITAL ENERGIES
----------------

  NO   OCC          E(Eh)            E(eV)
   0   2.0000     -88.968502     -2420.9560
   1   2.0000     -88.965422     -2420.8722
   2   2.0000     -10.334834      -281.2251
   3   2.0000     -10.329731      -281.0863
   4   2.0000     -10.321295      -280.8567
   5   2.0000     -10.314235      -280.6646
   6   2.0000     -10.308565      -280.5103
   7   2.0000     -10.302180      -280.3366
   8   2.0000     -10.296340      -280.1777
   9   2.0000     -10.295175      -280.1460
  10   2.0000     -10.292168      -280.0641
  11   2.0000     -10.291809      -280.0544
  12   2.0000     -10.289867      -280.0015
  13   2.0000     -10.288315      -279.9593
  14   2.0000     -10.284998      -279.8690
  15   2.0000     -10.276980      -279.6508
  16   2.0000      -8.082626      -219.9394
  17   2.0000      -8.079012      -219.8411
  18   2.0000      -6.041140      -164.3878
  19   2.0000      -6.037544      -164.2899
  20   2.0000      -6.037246      -164.2818
  21   2.0000      -6.033776      -164.1874
  22   2.0000      -6.033400      -164.1772
  23   2.0000      -6.029707      -164.0767
  24   2.0000      -0.999693       -27.2030
  25   2.0000      -0.978756       -26.6333
  26   2.0000      -0.907932       -24.7061
  27   2.0000      -0.907091       -24.6832
  28   2.0000      -0.865461       -23.5504
  29   2.0000      -0.849773       -23.1235
  30   2.0000      -0.844966       -22.9927
  31   2.0000      -0.814488       -22.1634
  32   2.0000      -0.781808       -21.2741
  33   2.0000      -0.770937       -20.9783
  34   2.0000      -0.704001       -19.1569
  35   2.0000      -0.699623       -19.0377
  36   2.0000      -0.694690       -18.9035
  37   2.0000      -0.659248       -17.9390
  38   2.0000      -0.638571       -17.3764
  39   2.0000      -0.616078       -16.7643
  40   2.0000      -0.599450       -16.3119
  41   2.0000      -0.571218       -15.5436
  42   2.0000      -0.569529       -15.4977
  43   2.0000      -0.551172       -14.9982
  44   2.0000      -0.528812       -14.3897
  45   2.0000      -0.525386       -14.2965
  46   2.0000      -0.513358       -13.9692
  47   2.0000      -0.504501       -13.7282
  48   2.0000      -0.501762       -13.6536
  49   2.0000      -0.498869       -13.5749
  50   2.0000      -0.486909       -13.2495
  51   2.0000      -0.479218       -13.0402
  52   2.0000      -0.471515       -12.8306
  53   2.0000      -0.462317       -12.5803
  54   2.0000      -0.459951       -12.5159
  55   2.0000      -0.454792       -12.3755
  56   2.0000      -0.445167       -12.1136
  57   2.0000      -0.443826       -12.0771
  58   2.0000      -0.437677       -11.9098
  59   2.0000      -0.426767       -11.6129
  60   2.0000      -0.421837       -11.4788
  61   2.0000      -0.407637       -11.0924
  62   2.0000      -0.400752       -10.9050
  63   2.0000      -0.339133        -9.2283
  64   2.0000      -0.333974        -9.0879
  65   2.0000      -0.327178        -8.9030
  66   2.0000      -0.297235        -8.0882
  67   0.0000       0.033672         0.9162
  68   0.0000       0.063647         1.7319
  69   0.0000       0.103247         2.8095
  70   0.0000       0.121399         3.3034
  71   0.0000       0.127514         3.4698

MULLIKEN ATOMIC CHARGES
-----------------------
   0 S :    0.118369
   1 C :   -0.077835
   2 C :   -0.074869
   3 C :   -0.000393
   4 C :   -0.145979
   5 H :    0.020463
   6 C :    0.103276
   7 H :    0.011252
   8 H :    0.030957
   9 C :   -0.119583
  10 H :    0.034602
  11 H :    0.030402
  12 C :   -0.049868
  13 H :    0.030198
  14 H :    0.035115
  15 H :    0.052023
  16 S :    0.096959
  17 C :   -0.101528
  18 C :   -0.008123
  19 C :   -0.009511
  20 C :   -0.179596
  21 H :   -0.002444
  22 C :    0.098378
  23 H :    0.027037
  24 H :    0.011627
  25 C :   -0.131823
  26 H :    0.033211
  27 H :    0.040421
  28 C :   -0.036005
  29 H :    0.027638
  30 H :    0.032177
  31 H :    0.036738
  32 H :   -0.000606
  33 H :    0.067320
Sum of atomic charges:    0.0000000

LOEWDIN ATOMIC CHARGES
----------------------
   0 S :    0.403762
   1 C :   -0.174783
   2 C :   -0.057615
   3 C :   -0.070170
   4 C :   -0.203062
   5 H :    0.031747
   6 C :   -0.028742
   7 H :    0.026970
   8 H :    0.034481
   9 C :   -0.056054
  10 H :    0.031895
  11 H :    0.025017
  12 C :   -0.068400
  13 H :    0.021180
  14 H :    0.026039
  15 H :    0.040972
  16 S :    0.380513
  17 C :   -0.173879
  18 C :   -0.068057
  19 C :   -0.044704
  20 C :   -0.182654
  21 H :    0.022291
  22 C :   -0.024397
  23 H :    0.034588
  24 H :    0.020113
  25 C :   -0.046607
  26 H :    0.019922
  27 H :    0.027185
  28 C :   -0.066278
  29 H :    0.024690
  30 H :    0.023201
  31 H :    0.033356
  32 H :    0.003830
  33 H :    0.033650

  Mayer bond orders larger than 0.100000
B(  0-S ,  1-C ) :   1.1382 B(  0-S ,  4-C ) :   1.1369 B(  1-C ,  2-C ) :   1.6129
B(  1-C , 32-H ) :   0.9744 B(  2-C ,  3-C ) :   1.2281 B(  2-C ,  6-C ) :   1.0375
B(  3-C ,  4-C ) :   1.5883 B(  3-C ,  5-H ) :   0.9878 B(  4-C , 20-C ) :   1.0242
B(  6-C ,  7-H ) :   0.9421 B(  6-C ,  8-H ) :   0.9256 B(  6-C ,  9-C ) :   1.0501
B(  9-C , 10-H ) :   0.9554 B(  9-C , 11-H ) :   0.9569 B(  9-C , 12-C ) :   1.0677
B( 12-C , 13-H ) :   0.9770 B( 12-C , 14-H ) :   0.9767 B( 12-C , 15-H ) :   0.9732
B( 16-S , 17-C ) :   1.1505 B( 16-S , 20-C ) :   1.1337 B( 17-C , 18-C ) :   1.6239
B( 17-C , 33-H ) :   0.9614 B( 18-C , 19-C ) :   1.2222 B( 18-C , 21-H ) :   0.9975
B( 19-C , 20-C ) :   1.6061 B( 19-C , 22-C ) :   1.0306 B( 22-C , 23-H ) :   0.9325
B( 22-C , 24-H ) :   0.9477 B( 22-C , 25-C ) :   1.0432 B( 25-C , 26-H ) :   0.9633
B( 25-C , 27-H ) :   0.9480 B( 25-C , 28-C ) :   1.0948 B( 28-C , 29-H ) :   0.9722
B( 28-C , 30-H ) :   0.9743 B( 28-C , 31-H ) :   0.9702

Dispersion correction           -0.013294883
FINAL SINGLE POINT ENERGY     -1339.865843400021

DIPOLE MOMENT
-------------
                                X             Y             Z
Electronic contribution:     -5.17601      -8.63937       8.33359
Nuclear contribution   :      5.12031       8.80228      -8.52203
                        -----------------------------------------
Total Dipole Moment    :     -0.05570       0.16291      -0.18843
                        -----------------------------------------
Magnitude (a.u.)       :      0.25525
Magnitude (Debye)      :      0.64878

Rotational constants in cm-1:     0.022570     0.006859     0.005700
Rotational constants in MHz :   676.640407   205.620223   170.875979

                             ****ORCA TERMINATED NORMALLY****
TOTAL RUN TIME: 0 days 0 hours 0 minutes 20 seconds 326 msec
