                         Program Version 4.2.1 -  RELEASE  -
|  1> ! wB97X-D3 SP def2-SVP
|  2> %pal
|  3> nprocs 24
|  4> end
|  5>
|  6> * xyz 0 1
|  7> S 	 -106.162 	 55.1775 	 -97.6021
|  8> C 	 -105.553 	 54.0526 	 -96.3634
|  9> C 	 -104.811 	 53.0821 	 -96.981
| 10> C 	 -104.694 	 53.2349 	 -98.397
| 11> C 	 -105.464 	 54.2042 	 -98.9027
| 12> H 	 -104.059 	 52.6043 	 -99.0474
| 13> C 	 -104.042 	 52.0065 	 -96.2513
| 14> H 	 -103.948 	 51.1142 	 -96.8952
| 15> H 	 -104.648 	 51.6146 	 -95.3844
| 16> C 	 -102.602 	 52.244 	 -95.7641
| 17> H 	 -102.148 	 51.3007 	 -95.52
| 18> H 	 -102.006 	 52.6522 	 -96.5686
| 19> C 	 -102.506 	 53.1954 	 -94.5591
| 20> H 	 -102.757 	 52.6229 	 -93.6707
| 21> H 	 -101.45 	 53.5316 	 -94.3862
| 22> H 	 -103.103 	 54.0934 	 -94.6172
| 23> S 	 -104.797 	 56.0054 	 -100.805
| 24> C 	 -105.403 	 56.0065 	 -102.461
| 25> C 	 -106.267 	 54.9421 	 -102.615
| 26> C 	 -106.456 	 54.1669 	 -101.429
| 27> C 	 -105.649 	 54.598 	 -100.325
| 28> H 	 -106.709 	 54.7149 	 -103.525
| 29> C 	 -107.401 	 52.9242 	 -101.384
| 30> H 	 -108.355 	 53.1888 	 -100.981
| 31> H 	 -106.971 	 52.2883 	 -100.553
| 32> C 	 -107.49 	 52.115 	 -102.624
| 33> H 	 -106.508 	 51.8209 	 -102.981
| 34> H 	 -107.868 	 52.6198 	 -103.536
| 35> C 	 -108.205 	 50.7539 	 -102.38
| 36> H 	 -109.21 	 50.886 	 -101.943
| 37> H 	 -107.74 	 50.1527 	 -101.639
| 38> H 	 -108.492 	 50.1925 	 -103.241
| 39> H 	 -105.781 	 54.1717 	 -95.2606
| 40> H 	 -105.366 	 56.6974 	 -103.207
| 41> *
| 42>
| 43>                          ****END OF INPUT****

CARTESIAN COORDINATES (ANGSTROEM)
---------------------------------
  S    -106.162000   55.177500  -97.602100
  C    -105.553000   54.052600  -96.363400
  C    -104.811000   53.082100  -96.981000
  C    -104.694000   53.234900  -98.397000
  C    -105.464000   54.204200  -98.902700
  H    -104.059000   52.604300  -99.047400
  C    -104.042000   52.006500  -96.251300
  H    -103.948000   51.114200  -96.895200
  H    -104.648000   51.614600  -95.384400
  C    -102.602000   52.244000  -95.764100
  H    -102.148000   51.300700  -95.520000
  H    -102.006000   52.652200  -96.568600
  C    -102.506000   53.195400  -94.559100
  H    -102.757000   52.622900  -93.670700
  H    -101.450000   53.531600  -94.386200
  H    -103.103000   54.093400  -94.617200
  S    -104.797000   56.005400  -100.805000
  C    -105.403000   56.006500  -102.461000
  C    -106.267000   54.942100  -102.615000
  C    -106.456000   54.166900  -101.429000
  C    -105.649000   54.598000  -100.325000
  H    -106.709000   54.714900  -103.525000
  C    -107.401000   52.924200  -101.384000
  H    -108.355000   53.188800  -100.981000
  H    -106.971000   52.288300  -100.553000
  C    -107.490000   52.115000  -102.624000
  H    -106.508000   51.820900  -102.981000
  H    -107.868000   52.619800  -103.536000
  C    -108.205000   50.753900  -102.380000
  H    -109.210000   50.886000  -101.943000
  H    -107.740000   50.152700  -101.639000
  H    -108.492000   50.192500  -103.241000
  H    -105.781000   54.171700  -95.260600
  H    -105.366000   56.697400  -103.207000

 Total Charge           Charge          ....    0
 Multiplicity           Mult            ....    1
 Number of Electrons    NEL             ....  134
 Basis Dimension        Dim             ....  322

ORBITAL ENERGIES
----------------

  NO   OCC          E(Eh)            E(eV)
   0   2.0000     -88.966248     -2420.8947
   1   2.0000     -88.964133     -2420.8371
   2   2.0000     -10.332411      -281.1592
   3   2.0000     -10.330565      -281.1090
   4   2.0000     -10.324084      -280.9326
   5   2.0000     -10.311661      -280.5946
   6   2.0000     -10.310046      -280.5506
   7   2.0000     -10.302824      -280.3541
   8   2.0000     -10.296142      -280.1723
   9   2.0000     -10.295233      -280.1475
  10   2.0000     -10.292147      -280.0636
  11   2.0000     -10.288591      -279.9668
  12   2.0000     -10.288027      -279.9515
  13   2.0000     -10.285410      -279.8802
  14   2.0000     -10.276454      -279.6365
  15   2.0000     -10.274343      -279.5791
  16   2.0000      -8.080979      -219.8946
  17   2.0000      -8.078510      -219.8274
  18   2.0000      -6.039501      -164.3432
  19   2.0000      -6.037211      -164.2809
  20   2.0000      -6.035175      -164.2255
  21   2.0000      -6.033075      -164.1683
  22   2.0000      -6.032015      -164.1395
  23   2.0000      -6.029058      -164.0590
  24   2.0000      -1.007014       -27.4022
  25   2.0000      -0.985205       -26.8088
  26   2.0000      -0.910098       -24.7650
  27   2.0000      -0.907883       -24.7048
  28   2.0000      -0.871102       -23.7039
  29   2.0000      -0.846202       -23.0263
  30   2.0000      -0.842970       -22.9384
  31   2.0000      -0.821512       -22.3545
  32   2.0000      -0.780911       -21.2497
  33   2.0000      -0.772150       -21.0113
  34   2.0000      -0.709934       -19.3183
  35   2.0000      -0.705563       -19.1993
  36   2.0000      -0.695327       -18.9208
  37   2.0000      -0.657763       -17.8986
  38   2.0000      -0.642516       -17.4838
  39   2.0000      -0.622798       -16.9472
  40   2.0000      -0.596420       -16.2294
  41   2.0000      -0.574094       -15.6219
  42   2.0000      -0.562519       -15.3069
  43   2.0000      -0.547513       -14.8986
  44   2.0000      -0.539398       -14.6778
  45   2.0000      -0.529355       -14.4045
  46   2.0000      -0.515619       -14.0307
  47   2.0000      -0.513298       -13.9675
  48   2.0000      -0.506751       -13.7894
  49   2.0000      -0.498977       -13.5779
  50   2.0000      -0.486418       -13.2361
  51   2.0000      -0.482773       -13.1369
  52   2.0000      -0.474477       -12.9112
  53   2.0000      -0.463587       -12.6148
  54   2.0000      -0.460410       -12.5284
  55   2.0000      -0.450030       -12.2459
  56   2.0000      -0.446938       -12.1618
  57   2.0000      -0.434939       -11.8353
  58   2.0000      -0.429031       -11.6745
  59   2.0000      -0.419170       -11.4062
  60   2.0000      -0.416529       -11.3343
  61   2.0000      -0.414847       -11.2886
  62   2.0000      -0.410692       -11.1755
  63   2.0000      -0.340548        -9.2668
  64   2.0000      -0.331221        -9.0130
  65   2.0000      -0.326094        -8.8735
  66   2.0000      -0.307632        -8.3711
  67   0.0000       0.040271         1.0958
  68   0.0000       0.053291         1.4501
  69   0.0000       0.118608         3.2275
  70   0.0000       0.125065         3.4032
  71   0.0000       0.130353         3.5471

MULLIKEN ATOMIC CHARGES
-----------------------
   0 S :    0.099520
   1 C :   -0.148577
   2 C :   -0.063277
   3 C :    0.049784
   4 C :   -0.152631
   5 H :    0.027320
   6 C :    0.019718
   7 H :    0.020837
   8 H :    0.028483
   9 C :   -0.034707
  10 H :    0.026596
  11 H :    0.022012
  12 C :   -0.067754
  13 H :    0.024616
  14 H :    0.034223
  15 H :    0.036512
  16 S :    0.115234
  17 C :   -0.030206
  18 C :   -0.033333
  19 C :   -0.035007
  20 C :   -0.181140
  21 H :   -0.008059
  22 C :    0.083712
  23 H :    0.032196
  24 H :    0.029752
  25 C :   -0.083012
  26 H :    0.024661
  27 H :    0.034464
  28 C :   -0.033175
  29 H :    0.011894
  30 H :    0.025049
  31 H :    0.026470
  32 H :    0.080934
  33 H :    0.016889
Sum of atomic charges:    0.0000000

LOEWDIN ATOMIC CHARGES
----------------------
   0 S :    0.381420
   1 C :   -0.187345
   2 C :   -0.072009
   3 C :   -0.058354
   4 C :   -0.192038
   5 H :    0.041198
   6 C :   -0.040275
   7 H :    0.031130
   8 H :    0.034046
   9 C :   -0.036687
  10 H :    0.024351
  11 H :    0.021626
  12 C :   -0.070372
  13 H :    0.022362
  14 H :    0.030905
  15 H :    0.021883
  16 S :    0.432718
  17 C :   -0.172855
  18 C :   -0.063597
  19 C :   -0.050048
  20 C :   -0.220753
  21 H :    0.018942
  22 C :   -0.033811
  23 H :    0.029018
  24 H :    0.040141
  25 C :   -0.047302
  26 H :    0.025481
  27 H :    0.025456
  28 C :   -0.065017
  29 H :    0.025473
  30 H :    0.020908
  31 H :    0.023925
  32 H :    0.045572
  33 H :    0.013906

  Mayer bond orders larger than 0.100000
B(  0-S ,  1-C ) :   1.1238 B(  0-S ,  4-C ) :   1.1382 B(  1-C ,  2-C ) :   1.6270
B(  1-C , 32-H ) :   0.9619 B(  2-C ,  3-C ) :   1.2153 B(  2-C ,  6-C ) :   1.0319
B(  3-C ,  4-C ) :   1.6260 B(  3-C ,  5-H ) :   0.9908 B(  4-C , 20-C ) :   0.9848
B(  6-C ,  7-H ) :   0.9378 B(  6-C ,  8-H ) :   0.9423 B(  6-C ,  9-C ) :   1.0740
B(  9-C , 10-H ) :   0.9544 B(  9-C , 11-H ) :   0.9544 B(  9-C , 12-C ) :   1.0775
B( 12-C , 13-H ) :   0.9763 B( 12-C , 14-H ) :   0.9742 B( 12-C , 15-H ) :   0.9772
B( 16-S , 17-C ) :   1.1630 B( 16-S , 20-C ) :   1.1789 B( 17-C , 18-C ) :   1.5775
B( 17-C , 20-C ) :   0.1097 B( 17-C , 33-H ) :   0.9745 B( 18-C , 19-C ) :   1.2887
B( 18-C , 21-H ) :   0.9964 B( 19-C , 20-C ) :   1.5581 B( 19-C , 22-C ) :   1.0163
B( 22-C , 23-H ) :   0.9303 B( 22-C , 24-H ) :   0.9411 B( 22-C , 25-C ) :   1.0674
B( 25-C , 26-H ) :   0.9562 B( 25-C , 27-H ) :   0.9480 B( 25-C , 28-C ) :   1.0810
B( 28-C , 29-H ) :   0.9706 B( 28-C , 30-H ) :   0.9761 B( 28-C , 31-H ) :   0.9736

Dispersion correction           -0.013593058
FINAL SINGLE POINT ENERGY     -1339.872550190737

DIPOLE MOMENT
-------------
                                X             Y             Z
Electronic contribution:     -1.16576      21.94934      -3.68389
Nuclear contribution   :      1.17887     -22.50900       3.63773
                        -----------------------------------------
Total Dipole Moment    :      0.01311      -0.55966      -0.04616
                        -----------------------------------------
Magnitude (a.u.)       :      0.56171
Magnitude (Debye)      :      1.42775

Rotational constants in cm-1:     0.019994     0.007389     0.006195
Rotational constants in MHz :   599.395437   221.520632   185.736031

                             ****ORCA TERMINATED NORMALLY****
TOTAL RUN TIME: 0 days 0 hours 0 minutes 20 seconds 742 msec
