                         Program Version 4.2.1 -  RELEASE  -
|  1> ! wB97X-D3 SP def2-SVP
|  2> %pal
|  3> nprocs 24
|  4> end
|  5>
|  6> * xyz 0 1
|  7> S 	 -101.088 	 38.2406 	 -89.6854
|  8> C 	 -100.174 	 36.7598 	 -89.4062
|  9> C 	 -99.1719 	 36.9943 	 -88.4376
| 10> C 	 -99.2167 	 38.3163 	 -87.9659
| 11> C 	 -100.292 	 39.0945 	 -88.3738
| 12> H 	 -98.552 	 38.6821 	 -87.1531
| 13> C 	 -98.0945 	 36.0643 	 -87.9659
| 14> H 	 -98.4878 	 35.0014 	 -88.0396
| 15> H 	 -97.9122 	 36.1795 	 -86.8843
| 16> C 	 -96.8031 	 36.1644 	 -88.7921
| 17> H 	 -97.1244 	 35.7657 	 -89.7772
| 18> H 	 -96.5243 	 37.1834 	 -88.9089
| 19> C 	 -95.5437 	 35.3401 	 -88.1619
| 20> H 	 -94.9063 	 35.8913 	 -87.4253
| 21> H 	 -95.9515 	 34.463 	 -87.707
| 22> H 	 -94.9427 	 35.0883 	 -89.031
| 23> S 	 -99.1655 	 41.3854 	 -87.2246
| 24> C 	 -100.262 	 42.7436 	 -87.0238
| 25> C 	 -101.434 	 42.5926 	 -87.6637
| 26> C 	 -101.608 	 41.2766 	 -88.2337
| 27> C 	 -100.493 	 40.446 	 -88.041
| 28> H 	 -102.141 	 43.3393 	 -87.8185
| 29> C 	 -103.007 	 40.9888 	 -88.914
| 30> H 	 -103.743 	 41.1222 	 -88.1763
| 31> H 	 -103.016 	 39.9282 	 -89.1666
| 32> C 	 -103.309 	 41.7743 	 -90.2476
| 33> H 	 -103.405 	 42.7346 	 -89.8662
| 34> H 	 -104.262 	 41.4507 	 -90.5645
| 35> C 	 -102.32 	 41.5969 	 -91.4132
| 36> H 	 -102.409 	 42.1856 	 -92.2714
| 37> H 	 -102.361 	 40.6512 	 -91.8321
| 38> H 	 -101.364 	 41.6586 	 -90.9178
| 39> H 	 -100.248 	 35.8635 	 -90.0316
| 40> H 	 -99.8727 	 43.6381 	 -86.64
| 41> *
| 42>
| 43>                          ****END OF INPUT****

CARTESIAN COORDINATES (ANGSTROEM)
---------------------------------
  S    -101.088000   38.240600  -89.685400
  C    -100.174000   36.759800  -89.406200
  C    -99.171900   36.994300  -88.437600
  C    -99.216700   38.316300  -87.965900
  C    -100.292000   39.094500  -88.373800
  H    -98.552000   38.682100  -87.153100
  C    -98.094500   36.064300  -87.965900
  H    -98.487800   35.001400  -88.039600
  H    -97.912200   36.179500  -86.884300
  C    -96.803100   36.164400  -88.792100
  H    -97.124400   35.765700  -89.777200
  H    -96.524300   37.183400  -88.908900
  C    -95.543700   35.340100  -88.161900
  H    -94.906300   35.891300  -87.425300
  H    -95.951500   34.463000  -87.707000
  H    -94.942700   35.088300  -89.031000
  S    -99.165500   41.385400  -87.224600
  C    -100.262000   42.743600  -87.023800
  C    -101.434000   42.592600  -87.663700
  C    -101.608000   41.276600  -88.233700
  C    -100.493000   40.446000  -88.041000
  H    -102.141000   43.339300  -87.818500
  C    -103.007000   40.988800  -88.914000
  H    -103.743000   41.122200  -88.176300
  H    -103.016000   39.928200  -89.166600
  C    -103.309000   41.774300  -90.247600
  H    -103.405000   42.734600  -89.866200
  H    -104.262000   41.450700  -90.564500
  C    -102.320000   41.596900  -91.413200
  H    -102.409000   42.185600  -92.271400
  H    -102.361000   40.651200  -91.832100
  H    -101.364000   41.658600  -90.917800
  H    -100.248000   35.863500  -90.031600
  H    -99.872700   43.638100  -86.640000

 Total Charge           Charge          ....    0
 Multiplicity           Mult            ....    1
 Number of Electrons    NEL             ....  134
 Basis Dimension        Dim             ....  322

ORBITAL ENERGIES
----------------

  NO   OCC          E(Eh)            E(eV)
   0   2.0000     -88.970230     -2421.0030
   1   2.0000     -88.966288     -2420.8958
   2   2.0000     -10.333472      -281.1881
   3   2.0000     -10.328448      -281.0514
   4   2.0000     -10.319905      -280.8189
   5   2.0000     -10.314553      -280.6732
   6   2.0000     -10.308780      -280.5162
   7   2.0000     -10.302306      -280.3400
   8   2.0000     -10.295321      -280.1499
   9   2.0000     -10.293489      -280.1001
  10   2.0000     -10.291350      -280.0419
  11   2.0000     -10.291290      -280.0402
  12   2.0000     -10.288920      -279.9757
  13   2.0000     -10.285441      -279.8811
  14   2.0000     -10.281142      -279.7641
  15   2.0000     -10.262890      -279.2674
  16   2.0000      -8.083786      -219.9710
  17   2.0000      -8.080030      -219.8688
  18   2.0000      -6.042431      -164.4229
  19   2.0000      -6.038790      -164.3238
  20   2.0000      -6.038364      -164.3122
  21   2.0000      -6.034883      -164.2175
  22   2.0000      -6.034552      -164.2085
  23   2.0000      -6.030395      -164.0954
  24   2.0000      -1.005138       -27.3512
  25   2.0000      -0.980461       -26.6797
  26   2.0000      -0.908515       -24.7219
  27   2.0000      -0.903160       -24.5762
  28   2.0000      -0.872755       -23.7489
  29   2.0000      -0.849523       -23.1167
  30   2.0000      -0.840671       -22.8758
  31   2.0000      -0.809698       -22.0330
  32   2.0000      -0.788898       -21.4670
  33   2.0000      -0.772226       -21.0133
  34   2.0000      -0.715304       -19.4644
  35   2.0000      -0.703169       -19.1342
  36   2.0000      -0.696824       -18.9616
  37   2.0000      -0.671095       -18.2614
  38   2.0000      -0.631668       -17.1886
  39   2.0000      -0.617325       -16.7983
  40   2.0000      -0.601989       -16.3810
  41   2.0000      -0.564920       -15.3723
  42   2.0000      -0.558960       -15.2101
  43   2.0000      -0.554714       -15.0945
  44   2.0000      -0.549105       -14.9419
  45   2.0000      -0.522163       -14.2088
  46   2.0000      -0.518455       -14.1079
  47   2.0000      -0.510853       -13.9010
  48   2.0000      -0.505409       -13.7529
  49   2.0000      -0.492684       -13.4066
  50   2.0000      -0.490294       -13.3416
  51   2.0000      -0.475643       -12.9429
  52   2.0000      -0.473544       -12.8858
  53   2.0000      -0.466219       -12.6865
  54   2.0000      -0.461050       -12.5458
  55   2.0000      -0.456655       -12.4262
  56   2.0000      -0.446873       -12.1600
  57   2.0000      -0.438572       -11.9341
  58   2.0000      -0.435322       -11.8457
  59   2.0000      -0.425054       -11.5663
  60   2.0000      -0.415955       -11.3187
  61   2.0000      -0.411232       -11.1902
  62   2.0000      -0.405013       -11.0210
  63   2.0000      -0.365770        -9.9531
  64   2.0000      -0.333939        -9.0869
  65   2.0000      -0.330632        -8.9970
  66   2.0000      -0.278182        -7.5697
  67   0.0000       0.012195         0.3318
  68   0.0000       0.084702         2.3048
  69   0.0000       0.094788         2.5793
  70   0.0000       0.114265         3.1093
  71   0.0000       0.129534         3.5248

MULLIKEN ATOMIC CHARGES
-----------------------
   0 S :    0.098694
   1 C :   -0.127059
   2 C :   -0.068725
   3 C :   -0.051414
   4 C :   -0.092470
   5 H :    0.031021
   6 C :    0.018298
   7 H :    0.029992
   8 H :    0.032674
   9 C :   -0.070821
  10 H :    0.028595
  11 H :    0.028995
  12 C :   -0.053306
  13 H :    0.051233
  14 H :    0.029936
  15 H :    0.041063
  16 S :    0.077488
  17 C :   -0.053080
  18 C :    0.015802
  19 C :   -0.107129
  20 C :   -0.120354
  21 H :   -0.004143
  22 C :    0.052537
  23 H :    0.031279
  24 H :    0.013387
  25 C :   -0.024068
  26 H :    0.008160
  27 H :    0.017933
  28 C :    0.001847
  29 H :    0.025412
  30 H :    0.006207
  31 H :    0.033431
  32 H :    0.057351
  33 H :    0.041231
Sum of atomic charges:   -0.0000000

LOEWDIN ATOMIC CHARGES
----------------------
   0 S :    0.418622
   1 C :   -0.202826
   2 C :   -0.061377
   3 C :   -0.077108
   4 C :   -0.187749
   5 H :    0.030384
   6 C :   -0.043312
   7 H :    0.033895
   8 H :    0.029409
   9 C :   -0.031967
  10 H :    0.027091
  11 H :    0.017903
  12 C :   -0.065326
  13 H :    0.032326
  14 H :    0.019693
  15 H :    0.028815
  16 S :    0.370754
  17 C :   -0.159760
  18 C :   -0.061828
  19 C :   -0.053231
  20 C :   -0.172790
  21 H :    0.021618
  22 C :   -0.023280
  23 H :    0.027395
  24 H :    0.011985
  25 C :   -0.022083
  26 H :    0.010191
  27 H :    0.019036
  28 C :   -0.056995
  29 H :    0.022590
  30 H :    0.017931
  31 H :    0.029656
  32 H :    0.032325
  33 H :    0.018012

  Mayer bond orders larger than 0.100000
B(  0-S ,  1-C ) :   1.1414 B(  0-S ,  4-C ) :   1.1368 B(  1-C ,  2-C ) :   1.5611
B(  1-C ,  4-C ) :   0.1009 B(  1-C , 32-H ) :   0.9682 B(  2-C ,  3-C ) :   1.2989
B(  2-C ,  6-C ) :   1.0348 B(  3-C ,  4-C ) :   1.5099 B(  3-C ,  5-H ) :   0.9764
B(  4-C , 20-C ) :   1.1782 B(  6-C ,  7-H ) :   0.9384 B(  6-C ,  8-H ) :   0.9444
B(  6-C ,  9-C ) :   1.0532 B(  9-C , 10-H ) :   0.9586 B(  9-C , 11-H ) :   0.9639
B(  9-C , 12-C ) :   1.0553 B( 12-C , 13-H ) :   0.9791 B( 12-C , 14-H ) :   0.9790
B( 12-C , 15-H ) :   0.9781 B( 16-S , 17-C ) :   1.1330 B( 16-S , 20-C ) :   1.1026
B( 17-C , 18-C ) :   1.6301 B( 17-C , 33-H ) :   0.9710 B( 18-C , 19-C ) :   1.2160
B( 18-C , 21-H ) :   1.0007 B( 19-C , 20-C ) :   1.5819 B( 19-C , 22-C ) :   1.0239
B( 22-C , 23-H ) :   0.9414 B( 22-C , 24-H ) :   0.9322 B( 22-C , 25-C ) :   1.0604
B( 25-C , 26-H ) :   0.9619 B( 25-C , 27-H ) :   0.9547 B( 25-C , 28-C ) :   1.0661
B( 28-C , 29-H ) :   0.9739 B( 28-C , 30-H ) :   0.9694 B( 28-C , 31-H ) :   0.9773

Dispersion correction           -0.014389282
FINAL SINGLE POINT ENERGY     -1339.861440972349

DIPOLE MOMENT
-------------
                                X             Y             Z
Electronic contribution:     -4.35347       7.91068       6.77473
Nuclear contribution   :      4.36637      -7.92359      -6.89031
                        -----------------------------------------
Total Dipole Moment    :      0.01290      -0.01290      -0.11558
                        -----------------------------------------
Magnitude (a.u.)       :      0.11701
Magnitude (Debye)      :      0.29742

Rotational constants in cm-1:     0.023250     0.007727     0.006232
Rotational constants in MHz :   697.024037   231.644830   186.837515

                             ****ORCA TERMINATED NORMALLY****
TOTAL RUN TIME: 0 days 0 hours 0 minutes 20 seconds 189 msec
