                         Program Version 4.2.1 -  RELEASE  -
|  1> ! wB97X-D3 SP def2-SVP
|  2> %pal
|  3> nprocs 24
|  4> end
|  5>
|  6> * xyz 0 1
|  7> S 	 -110.022 	 1.286 	 -109.638
|  8> C 	 -111.118 	 2.60485 	 -110.032
|  9> C 	 -110.454 	 3.76054 	 -110.273
| 10> C 	 -109.029 	 3.5779 	 -110.311
| 11> C 	 -108.624 	 2.26144 	 -110.11
| 12> H 	 -108.237 	 4.31799 	 -110.475
| 13> C 	 -111.043 	 5.14073 	 -110.593
| 14> H 	 -110.464 	 5.79179 	 -109.884
| 15> H 	 -111.985 	 5.26158 	 -110.177
| 16> C 	 -111.137 	 5.63761 	 -112.034
| 17> H 	 -111.427 	 6.68329 	 -112.112
| 18> H 	 -110.169 	 5.59609 	 -112.475
| 19> C 	 -112.4 	 4.94594 	 -112.921
| 20> H 	 -112.706 	 5.44321 	 -113.805
| 21> H 	 -112.193 	 3.88733 	 -113.077
| 22> H 	 -113.263 	 4.79447 	 -112.298
| 23> S 	 -106.813 	 1.21906 	 -108.444
| 24> C 	 -105.298 	 0.579485 	 -109.137
| 25> C 	 -105.303 	 0.789972 	 -110.509
| 26> C 	 -106.437 	 1.42307 	 -111.041
| 27> C 	 -107.356 	 1.66537 	 -110.041
| 28> H 	 -104.49 	 0.33634 	 -111.022
| 29> C 	 -106.588 	 1.64148 	 -112.566
| 30> H 	 -106.997 	 2.65891 	 -112.882
| 31> H 	 -107.442 	 0.961279 	 -112.794
| 32> C 	 -105.453 	 1.25185 	 -113.465
| 33> H 	 -105.829 	 1.25755 	 -114.443
| 34> H 	 -105.209 	 0.136647 	 -113.387
| 35> C 	 -104.151 	 1.98334 	 -113.366
| 36> H 	 -104.342 	 2.97933 	 -113.056
| 37> H 	 -103.756 	 1.98985 	 -114.426
| 38> H 	 -103.383 	 1.4586 	 -112.814
| 39> H 	 -112.227 	 2.41147 	 -110.15
| 40> H 	 -104.634 	 -0.0677213 	 -108.577
| 41> *
| 42>
| 43>                          ****END OF INPUT****

CARTESIAN COORDINATES (ANGSTROEM)
---------------------------------
  S    -110.022000    1.286000  -109.638000
  C    -111.118000    2.604850  -110.032000
  C    -110.454000    3.760540  -110.273000
  C    -109.029000    3.577900  -110.311000
  C    -108.624000    2.261440  -110.110000
  H    -108.237000    4.317990  -110.475000
  C    -111.043000    5.140730  -110.593000
  H    -110.464000    5.791790  -109.884000
  H    -111.985000    5.261580  -110.177000
  C    -111.137000    5.637610  -112.034000
  H    -111.427000    6.683290  -112.112000
  H    -110.169000    5.596090  -112.475000
  C    -112.400000    4.945940  -112.921000
  H    -112.706000    5.443210  -113.805000
  H    -112.193000    3.887330  -113.077000
  H    -113.263000    4.794470  -112.298000
  S    -106.813000    1.219060  -108.444000
  C    -105.298000    0.579485  -109.137000
  C    -105.303000    0.789972  -110.509000
  C    -106.437000    1.423070  -111.041000
  C    -107.356000    1.665370  -110.041000
  H    -104.490000    0.336340  -111.022000
  C    -106.588000    1.641480  -112.566000
  H    -106.997000    2.658910  -112.882000
  H    -107.442000    0.961279  -112.794000
  C    -105.453000    1.251850  -113.465000
  H    -105.829000    1.257550  -114.443000
  H    -105.209000    0.136647  -113.387000
  C    -104.151000    1.983340  -113.366000
  H    -104.342000    2.979330  -113.056000
  H    -103.756000    1.989850  -114.426000
  H    -103.383000    1.458600  -112.814000
  H    -112.227000    2.411470  -110.150000
  H    -104.634000   -0.067721  -108.577000

 Total Charge           Charge          ....    0
 Multiplicity           Mult            ....    1
 Number of Electrons    NEL             ....  134
 Basis Dimension        Dim             ....  322

ORBITAL ENERGIES
----------------

  NO   OCC          E(Eh)            E(eV)
   0   2.0000     -88.963638     -2420.8237
   1   2.0000     -88.960587     -2420.7406
   2   2.0000     -10.324223      -280.9364
   3   2.0000     -10.318893      -280.7914
   4   2.0000     -10.317137      -280.7436
   5   2.0000     -10.316615      -280.7294
   6   2.0000     -10.303952      -280.3848
   7   2.0000     -10.302722      -280.3513
   8   2.0000     -10.300516      -280.2913
   9   2.0000     -10.297062      -280.1973
  10   2.0000     -10.296605      -280.1849
  11   2.0000     -10.292154      -280.0638
  12   2.0000     -10.289280      -279.9856
  13   2.0000     -10.283134      -279.8183
  14   2.0000     -10.282568      -279.8029
  15   2.0000     -10.275666      -279.6151
  16   2.0000      -8.078078      -219.8157
  17   2.0000      -8.075457      -219.7444
  18   2.0000      -6.036551      -164.2629
  19   2.0000      -6.033976      -164.1928
  20   2.0000      -6.032613      -164.1557
  21   2.0000      -6.030012      -164.0850
  22   2.0000      -6.028899      -164.0547
  23   2.0000      -6.026115      -163.9789
  24   2.0000      -1.008028       -27.4298
  25   2.0000      -0.981237       -26.7008
  26   2.0000      -0.914167       -24.8758
  27   2.0000      -0.903289       -24.5797
  28   2.0000      -0.869365       -23.6566
  29   2.0000      -0.851158       -23.1612
  30   2.0000      -0.838023       -22.8038
  31   2.0000      -0.810680       -22.0597
  32   2.0000      -0.788325       -21.4514
  33   2.0000      -0.778191       -21.1756
  34   2.0000      -0.716509       -19.4972
  35   2.0000      -0.701980       -19.1019
  36   2.0000      -0.692314       -18.8388
  37   2.0000      -0.659520       -17.9464
  38   2.0000      -0.642611       -17.4863
  39   2.0000      -0.617342       -16.7987
  40   2.0000      -0.598923       -16.2975
  41   2.0000      -0.564788       -15.3687
  42   2.0000      -0.557410       -15.1679
  43   2.0000      -0.544901       -14.8275
  44   2.0000      -0.535290       -14.5660
  45   2.0000      -0.532434       -14.4883
  46   2.0000      -0.519070       -14.1246
  47   2.0000      -0.511289       -13.9129
  48   2.0000      -0.502355       -13.6698
  49   2.0000      -0.497126       -13.5275
  50   2.0000      -0.488488       -13.2924
  51   2.0000      -0.483349       -13.1526
  52   2.0000      -0.480454       -13.0738
  53   2.0000      -0.467981       -12.7344
  54   2.0000      -0.456408       -12.4195
  55   2.0000      -0.448819       -12.2130
  56   2.0000      -0.435760       -11.8576
  57   2.0000      -0.433861       -11.8060
  58   2.0000      -0.432170       -11.7599
  59   2.0000      -0.429227       -11.6798
  60   2.0000      -0.425353       -11.5744
  61   2.0000      -0.406825       -11.0703
  62   2.0000      -0.400811       -10.9066
  63   2.0000      -0.339283        -9.2324
  64   2.0000      -0.330205        -8.9853
  65   2.0000      -0.327255        -8.9051
  66   2.0000      -0.296510        -8.0685
  67   0.0000       0.033533         0.9125
  68   0.0000       0.057925         1.5762
  69   0.0000       0.114127         3.1056
  70   0.0000       0.123911         3.3718
  71   0.0000       0.133586         3.6351

MULLIKEN ATOMIC CHARGES
-----------------------
   0 S :    0.094232
   1 C :   -0.153370
   2 C :   -0.071250
   3 C :    0.046434
   4 C :   -0.193815
   5 H :    0.019484
   6 C :    0.073918
   7 H :    0.036488
   8 H :   -0.004582
   9 C :   -0.037101
  10 H :    0.034380
  11 H :    0.025621
  12 C :   -0.066608
  13 H :    0.043024
  14 H :    0.031438
  15 H :    0.013675
  16 S :    0.111364
  17 C :   -0.099574
  18 C :   -0.045793
  19 C :    0.029978
  20 C :   -0.192642
  21 H :    0.005619
  22 C :    0.048730
  23 H :    0.043552
  24 H :    0.044970
  25 C :   -0.087730
  26 H :    0.015752
  27 H :    0.023748
  28 C :   -0.022053
  29 H :    0.030453
  30 H :    0.032175
  31 H :    0.036743
  32 H :    0.073690
  33 H :    0.059050
Sum of atomic charges:    0.0000000

LOEWDIN ATOMIC CHARGES
----------------------
   0 S :    0.386526
   1 C :   -0.197111
   2 C :   -0.070046
   3 C :   -0.057241
   4 C :   -0.190124
   5 H :    0.035868
   6 C :   -0.035300
   7 H :    0.043392
   8 H :    0.018511
   9 C :   -0.027387
  10 H :    0.027209
  11 H :    0.017453
  12 C :   -0.067510
  13 H :    0.021546
  14 H :    0.026262
  15 H :    0.021776
  16 S :    0.398651
  17 C :   -0.178319
  18 C :   -0.067616
  19 C :   -0.053631
  20 C :   -0.211342
  21 H :    0.026627
  22 C :   -0.037723
  23 H :    0.038446
  24 H :    0.046623
  25 C :   -0.056977
  26 H :    0.021921
  27 H :    0.030688
  28 C :   -0.063953
  29 H :    0.021698
  30 H :    0.037570
  31 H :    0.023542
  32 H :    0.041623
  33 H :    0.028352

  Mayer bond orders larger than 0.100000
B(  0-S ,  1-C ) :   1.1317 B(  0-S ,  4-C ) :   1.1375 B(  1-C ,  2-C ) :   1.6379
B(  1-C , 32-H ) :   0.9616 B(  2-C ,  3-C ) :   1.2034 B(  2-C ,  6-C ) :   1.0139
B(  3-C ,  4-C ) :   1.6055 B(  3-C ,  5-H ) :   0.9943 B(  4-C , 20-C ) :   1.0492
B(  6-C ,  7-H ) :   0.9365 B(  6-C ,  8-H ) :   0.9377 B(  6-C ,  9-C ) :   1.0695
B(  9-C , 10-H ) :   0.9572 B(  9-C , 11-H ) :   0.9640 B(  9-C , 12-C ) :   1.0424
B( 12-C , 13-H ) :   0.9833 B( 12-C , 14-H ) :   0.9798 B( 12-C , 15-H ) :   0.9761
B( 16-S , 17-C ) :   1.1397 B( 16-S , 20-C ) :   1.1610 B( 17-C , 18-C ) :   1.6099
B( 17-C , 20-C ) :   0.1122 B( 17-C , 33-H ) :   0.9659 B( 18-C , 19-C ) :   1.2467
B( 18-C , 21-H ) :   0.9852 B( 19-C , 20-C ) :   1.5921 B( 19-C , 22-C ) :   1.0113
B( 22-C , 23-H ) :   0.9337 B( 22-C , 24-H ) :   0.9238 B( 22-C , 25-C ) :   1.1130
B( 25-C , 26-H ) :   0.9485 B( 25-C , 27-H ) :   0.9400 B( 25-C , 28-C ) :   1.0681
B( 28-C , 29-H ) :   0.9770 B( 28-C , 30-H ) :   0.9723 B( 28-C , 31-H ) :   0.9755

Dispersion correction           -0.014126920
FINAL SINGLE POINT ENERGY     -1339.847865373646

DIPOLE MOMENT
-------------
                                X             Y             Z
Electronic contribution:      0.40301     -12.87275      23.30064
Nuclear contribution   :     -0.38392      13.10663     -23.90022
                        -----------------------------------------
Total Dipole Moment    :      0.01909       0.23388      -0.59957
                        -----------------------------------------
Magnitude (a.u.)       :      0.64386
Magnitude (Debye)      :      1.63655

Rotational constants in cm-1:     0.019345     0.008173     0.006377
Rotational constants in MHz :   579.960900   245.022684   191.177952

                             ****ORCA TERMINATED NORMALLY****
TOTAL RUN TIME: 0 days 0 hours 0 minutes 20 seconds 207 msec
