                         Program Version 4.2.1 -  RELEASE  -
|  1> ! wB97X-D3 SP def2-SVP
|  2> %pal
|  3> nprocs 24
|  4> end
|  5>
|  6> * xyz 0 1
|  7> S 	 -32.708 	 -4.34169 	 9.83838
|  8> C 	 -33.5052 	 -3.78405 	 11.2907
|  9> C 	 -34.6789 	 -4.49338 	 11.4728
| 10> C 	 -34.985 	 -5.41545 	 10.4224
| 11> C 	 -33.9584 	 -5.57879 	 9.5221
| 12> H 	 -35.9497 	 -6.01257 	 10.3224
| 13> C 	 -35.5473 	 -4.43397 	 12.7243
| 14> H 	 -34.8719 	 -4.28144 	 13.5629
| 15> H 	 -36.0717 	 -5.3565 	 12.7561
| 16> C 	 -36.5532 	 -3.28144 	 12.8227
| 17> H 	 -36.152 	 -2.27619 	 12.8409
| 18> H 	 -37.1593 	 -3.22657 	 11.8365
| 19> C 	 -37.6248 	 -3.42212 	 13.9266
| 20> H 	 -37.1118 	 -3.50665 	 14.9039
| 21> H 	 -38.2599 	 -2.56388 	 13.9789
| 22> H 	 -38.3556 	 -4.31675 	 13.8932
| 23> S 	 -32.6022 	 -7.26733 	 7.94481
| 24> C 	 -33.1587 	 -7.70209 	 6.31081
| 25> C 	 -34.4728 	 -7.31371 	 6.14656
| 26> C 	 -34.928 	 -6.4757 	 7.20646
| 27> C 	 -34.0367 	 -6.31999 	 8.24132
| 28> H 	 -35.1133 	 -7.70099 	 5.32428
| 29> C 	 -36.3675 	 -5.96443 	 7.14169
| 30> H 	 -36.4565 	 -5.42393 	 6.21631
| 31> H 	 -36.4199 	 -5.22359 	 7.91331
| 32> C 	 -37.412 	 -7.10762 	 7.2371
| 33> H 	 -37.3954 	 -7.54396 	 8.24611
| 34> H 	 -37.1563 	 -7.92799 	 6.57873
| 35> C 	 -38.753 	 -6.52298 	 6.92413
| 36> H 	 -38.6368 	 -6.14704 	 5.84613
| 37> H 	 -38.9863 	 -5.6418 	 7.60136
| 38> H 	 -39.5218 	 -7.2829 	 6.9278
| 39> H 	 -33.0424 	 -3.00382 	 11.8069
| 40> H 	 -32.6305 	 -8.40431 	 5.72722
| 41> *
| 42>
| 43>                          ****END OF INPUT****

CARTESIAN COORDINATES (ANGSTROEM)
---------------------------------
  S    -32.708000   -4.341690    9.838380
  C    -33.505200   -3.784050   11.290700
  C    -34.678900   -4.493380   11.472800
  C    -34.985000   -5.415450   10.422400
  C    -33.958400   -5.578790    9.522100
  H    -35.949700   -6.012570   10.322400
  C    -35.547300   -4.433970   12.724300
  H    -34.871900   -4.281440   13.562900
  H    -36.071700   -5.356500   12.756100
  C    -36.553200   -3.281440   12.822700
  H    -36.152000   -2.276190   12.840900
  H    -37.159300   -3.226570   11.836500
  C    -37.624800   -3.422120   13.926600
  H    -37.111800   -3.506650   14.903900
  H    -38.259900   -2.563880   13.978900
  H    -38.355600   -4.316750   13.893200
  S    -32.602200   -7.267330    7.944810
  C    -33.158700   -7.702090    6.310810
  C    -34.472800   -7.313710    6.146560
  C    -34.928000   -6.475700    7.206460
  C    -34.036700   -6.319990    8.241320
  H    -35.113300   -7.700990    5.324280
  C    -36.367500   -5.964430    7.141690
  H    -36.456500   -5.423930    6.216310
  H    -36.419900   -5.223590    7.913310
  C    -37.412000   -7.107620    7.237100
  H    -37.395400   -7.543960    8.246110
  H    -37.156300   -7.927990    6.578730
  C    -38.753000   -6.522980    6.924130
  H    -38.636800   -6.147040    5.846130
  H    -38.986300   -5.641800    7.601360
  H    -39.521800   -7.282900    6.927800
  H    -33.042400   -3.003820   11.806900
  H    -32.630500   -8.404310    5.727220

 Total Charge           Charge          ....    0
 Multiplicity           Mult            ....    1
 Number of Electrons    NEL             ....  134
 Basis Dimension        Dim             ....  322

ORBITAL ENERGIES
----------------

  NO   OCC          E(Eh)            E(eV)
   0   2.0000     -88.964325     -2420.8424
   1   2.0000     -88.959469     -2420.7102
   2   2.0000     -10.333655      -281.1930
   3   2.0000     -10.326749      -281.0051
   4   2.0000     -10.316531      -280.7271
   5   2.0000     -10.315732      -280.7053
   6   2.0000     -10.304892      -280.4104
   7   2.0000     -10.302055      -280.3332
   8   2.0000     -10.300641      -280.2947
   9   2.0000     -10.296913      -280.1933
  10   2.0000     -10.293843      -280.1097
  11   2.0000     -10.291279      -280.0399
  12   2.0000     -10.288101      -279.9535
  13   2.0000     -10.287457      -279.9359
  14   2.0000     -10.286854      -279.9195
  15   2.0000     -10.285966      -279.8954
  16   2.0000      -8.078784      -219.8349
  17   2.0000      -8.074289      -219.7126
  18   2.0000      -6.037323      -164.2839
  19   2.0000      -6.033276      -164.1738
  20   2.0000      -6.032811      -164.1611
  21   2.0000      -6.029548      -164.0723
  22   2.0000      -6.028787      -164.0516
  23   2.0000      -6.025022      -163.9492
  24   2.0000      -1.004491       -27.3336
  25   2.0000      -0.983593       -26.7649
  26   2.0000      -0.913449       -24.8562
  27   2.0000      -0.907716       -24.7002
  28   2.0000      -0.869063       -23.6484
  29   2.0000      -0.851595       -23.1731
  30   2.0000      -0.845667       -23.0118
  31   2.0000      -0.816984       -22.2313
  32   2.0000      -0.777333       -21.1523
  33   2.0000      -0.767726       -20.8909
  34   2.0000      -0.701881       -19.0992
  35   2.0000      -0.700529       -19.0624
  36   2.0000      -0.695828       -18.9344
  37   2.0000      -0.665904       -18.1202
  38   2.0000      -0.649324       -17.6690
  39   2.0000      -0.618402       -16.8276
  40   2.0000      -0.595939       -16.2163
  41   2.0000      -0.567899       -15.4533
  42   2.0000      -0.567254       -15.4358
  43   2.0000      -0.556050       -15.1309
  44   2.0000      -0.535382       -14.5685
  45   2.0000      -0.524225       -14.2649
  46   2.0000      -0.522220       -14.2103
  47   2.0000      -0.513355       -13.9691
  48   2.0000      -0.503128       -13.6908
  49   2.0000      -0.498308       -13.5597
  50   2.0000      -0.490953       -13.3595
  51   2.0000      -0.478170       -13.0117
  52   2.0000      -0.468512       -12.7489
  53   2.0000      -0.464973       -12.6525
  54   2.0000      -0.461168       -12.5490
  55   2.0000      -0.448503       -12.2044
  56   2.0000      -0.443321       -12.0634
  57   2.0000      -0.441775       -12.0213
  58   2.0000      -0.438192       -11.9238
  59   2.0000      -0.422729       -11.5031
  60   2.0000      -0.418889       -11.3985
  61   2.0000      -0.412892       -11.2354
  62   2.0000      -0.404656       -11.0112
  63   2.0000      -0.346823        -9.4375
  64   2.0000      -0.330649        -8.9974
  65   2.0000      -0.327577        -8.9138
  66   2.0000      -0.296395        -8.0653
  67   0.0000       0.031322         0.8523
  68   0.0000       0.064071         1.7435
  69   0.0000       0.106371         2.8945
  70   0.0000       0.117903         3.2083
  71   0.0000       0.127914         3.4807

MULLIKEN ATOMIC CHARGES
-----------------------
   0 S :    0.099513
   1 C :   -0.113247
   2 C :   -0.075369
   3 C :   -0.015947
   4 C :   -0.098999
   5 H :    0.046706
   6 C :    0.117051
   7 H :    0.029073
   8 H :    0.014368
   9 C :   -0.099870
  10 H :    0.028271
  11 H :    0.024966
  12 C :   -0.068374
  13 H :    0.027948
  14 H :    0.031654
  15 H :    0.041771
  16 S :    0.078831
  17 C :   -0.072457
  18 C :   -0.053101
  19 C :   -0.052188
  20 C :   -0.171802
  21 H :    0.040096
  22 C :    0.074337
  23 H :    0.019304
  24 H :    0.013452
  25 C :   -0.068046
  26 H :    0.027680
  27 H :    0.025389
  28 C :   -0.049456
  29 H :    0.033315
  30 H :    0.047108
  31 H :    0.035437
  32 H :    0.036553
  33 H :    0.046032
Sum of atomic charges:   -0.0000000

LOEWDIN ATOMIC CHARGES
----------------------
   0 S :    0.395734
   1 C :   -0.178511
   2 C :   -0.063761
   3 C :   -0.069081
   4 C :   -0.192364
   5 H :    0.045870
   6 C :   -0.025588
   7 H :    0.033689
   8 H :    0.027538
   9 C :   -0.049341
  10 H :    0.022868
  11 H :    0.027469
  12 C :   -0.075192
  13 H :    0.023470
  14 H :    0.022640
  15 H :    0.032560
  16 S :    0.391889
  17 C :   -0.165297
  18 C :   -0.072658
  19 C :   -0.060545
  20 C :   -0.198116
  21 H :    0.039146
  22 C :   -0.025011
  23 H :    0.027551
  24 H :    0.024589
  25 C :   -0.040381
  26 H :    0.023938
  27 H :    0.021866
  28 C :   -0.068215
  29 H :    0.032303
  30 H :    0.033856
  31 H :    0.021263
  32 H :    0.017463
  33 H :    0.018357

  Mayer bond orders larger than 0.100000
B(  0-S ,  1-C ) :   1.1459 B(  0-S ,  4-C ) :   1.1483 B(  1-C ,  2-C ) :   1.5777
B(  1-C , 32-H ) :   0.9890 B(  2-C ,  3-C ) :   1.2448 B(  2-C ,  6-C ) :   1.0219
B(  3-C ,  4-C ) :   1.5828 B(  3-C ,  5-H ) :   0.9832 B(  4-C , 20-C ) :   1.0020
B(  6-C ,  7-H ) :   0.9386 B(  6-C ,  8-H ) :   0.9417 B(  6-C ,  9-C ) :   1.0585
B(  9-C , 10-H ) :   0.9562 B(  9-C , 11-H ) :   0.9557 B(  9-C , 12-C ) :   1.0778
B( 12-C , 13-H ) :   0.9739 B( 12-C , 14-H ) :   0.9746 B( 12-C , 15-H ) :   0.9758
B( 16-S , 17-C ) :   1.1523 B( 16-S , 20-C ) :   1.1389 B( 17-C , 18-C ) :   1.6074
B( 17-C , 33-H ) :   0.9742 B( 18-C , 19-C ) :   1.2326 B( 18-C , 21-H ) :   0.9809
B( 19-C , 20-C ) :   1.6287 B( 19-C , 22-C ) :   1.0322 B( 22-C , 23-H ) :   0.9341
B( 22-C , 24-H ) :   0.9349 B( 22-C , 25-C ) :   1.0565 B( 25-C , 26-H ) :   0.9486
B( 25-C , 27-H ) :   0.9565 B( 25-C , 28-C ) :   1.0850 B( 28-C , 29-H ) :   0.9733
B( 28-C , 30-H ) :   0.9713 B( 28-C , 31-H ) :   0.9719

Dispersion correction           -0.013601311
FINAL SINGLE POINT ENERGY     -1339.875924711280

DIPOLE MOMENT
-------------
                                X             Y             Z
Electronic contribution:     30.18288      -4.72371      -8.44856
Nuclear contribution   :    -30.90806       4.73807       8.55526
                        -----------------------------------------
Total Dipole Moment    :     -0.72518       0.01435       0.10669
                        -----------------------------------------
Magnitude (a.u.)       :      0.73313
Magnitude (Debye)      :      1.86347

Rotational constants in cm-1:     0.017336     0.008497     0.006052
Rotational constants in MHz :   519.729836   254.746995   181.442925

                             ****ORCA TERMINATED NORMALLY****
TOTAL RUN TIME: 0 days 0 hours 0 minutes 20 seconds 979 msec
