                         Program Version 4.2.1 -  RELEASE  -
|  1> ! wB97X-D3 SP def2-SVP
|  2> %pal
|  3> nprocs 24
|  4> end
|  5>
|  6> * xyz 0 1
|  7> S 	 -64.8362 	 -52.7799 	 -82.9932
|  8> C 	 -63.1141 	 -53.2212 	 -83.1693
|  9> C 	 -62.3404 	 -52.4872 	 -82.2587
| 10> C 	 -63.2048 	 -51.7871 	 -81.3335
| 11> C 	 -64.5303 	 -51.973 	 -81.4951
| 12> H 	 -62.9661 	 -50.9459 	 -80.6305
| 13> C 	 -60.8247 	 -52.3317 	 -82.2433
| 14> H 	 -60.6309 	 -51.5885 	 -83.0317
| 15> H 	 -60.2451 	 -53.1477 	 -82.6115
| 16> C 	 -60.2088 	 -51.84 	 -80.8949
| 17> H 	 -59.1923 	 -51.5078 	 -80.9493
| 18> H 	 -60.8132 	 -51.0039 	 -80.5544
| 19> C 	 -60.2275 	 -52.9524 	 -79.8052
| 20> H 	 -60.0716 	 -52.5143 	 -78.8216
| 21> H 	 -61.2167 	 -53.4152 	 -79.7357
| 22> H 	 -59.4825 	 -53.651 	 -79.8893
| 23> S 	 -66.55 	 -50.2533 	 -81.3802
| 24> C 	 -67.3353 	 -49.9241 	 -79.8748
| 25> C 	 -66.8342 	 -50.6974 	 -78.8483
| 26> C 	 -65.8458 	 -51.6079 	 -79.2981
| 27> C 	 -65.6085 	 -51.5149 	 -80.6546
| 28> H 	 -67.3148 	 -50.6529 	 -77.8853
| 29> C 	 -65.092 	 -52.5691 	 -78.3764
| 30> H 	 -64.9045 	 -52.0262 	 -77.4326
| 31> H 	 -64.2539 	 -52.8952 	 -78.9706
| 32> C 	 -65.8246 	 -53.8422 	 -77.9574
| 33> H 	 -66.6548 	 -53.511 	 -77.3898
| 34> H 	 -65.217 	 -54.4119 	 -77.2999
| 35> C 	 -66.2876 	 -54.6413 	 -79.18
| 36> H 	 -67.2416 	 -54.2016 	 -79.5666
| 37> H 	 -66.3989 	 -55.7074 	 -78.9216
| 38> H 	 -65.5559 	 -54.655 	 -79.9523
| 39> H 	 -62.7243 	 -53.8325 	 -83.9105
| 40> H 	 -68.2432 	 -49.3331 	 -79.7663
| 41> *
| 42>
| 43>                          ****END OF INPUT****

CARTESIAN COORDINATES (ANGSTROEM)
---------------------------------
  S    -64.836200  -52.779900  -82.993200
  C    -63.114100  -53.221200  -83.169300
  C    -62.340400  -52.487200  -82.258700
  C    -63.204800  -51.787100  -81.333500
  C    -64.530300  -51.973000  -81.495100
  H    -62.966100  -50.945900  -80.630500
  C    -60.824700  -52.331700  -82.243300
  H    -60.630900  -51.588500  -83.031700
  H    -60.245100  -53.147700  -82.611500
  C    -60.208800  -51.840000  -80.894900
  H    -59.192300  -51.507800  -80.949300
  H    -60.813200  -51.003900  -80.554400
  C    -60.227500  -52.952400  -79.805200
  H    -60.071600  -52.514300  -78.821600
  H    -61.216700  -53.415200  -79.735700
  H    -59.482500  -53.651000  -79.889300
  S    -66.550000  -50.253300  -81.380200
  C    -67.335300  -49.924100  -79.874800
  C    -66.834200  -50.697400  -78.848300
  C    -65.845800  -51.607900  -79.298100
  C    -65.608500  -51.514900  -80.654600
  H    -67.314800  -50.652900  -77.885300
  C    -65.092000  -52.569100  -78.376400
  H    -64.904500  -52.026200  -77.432600
  H    -64.253900  -52.895200  -78.970600
  C    -65.824600  -53.842200  -77.957400
  H    -66.654800  -53.511000  -77.389800
  H    -65.217000  -54.411900  -77.299900
  C    -66.287600  -54.641300  -79.180000
  H    -67.241600  -54.201600  -79.566600
  H    -66.398900  -55.707400  -78.921600
  H    -65.555900  -54.655000  -79.952300
  H    -62.724300  -53.832500  -83.910500
  H    -68.243200  -49.333100  -79.766300

 Total Charge           Charge          ....    0
 Multiplicity           Mult            ....    1
 Number of Electrons    NEL             ....  134
 Basis Dimension        Dim             ....  322

ORBITAL ENERGIES
----------------

  NO   OCC          E(Eh)            E(eV)
   0   2.0000     -88.964783     -2420.8548
   1   2.0000     -88.963735     -2420.8263
   2   2.0000     -10.322881      -280.8999
   3   2.0000     -10.321287      -280.8565
   4   2.0000     -10.316083      -280.7149
   5   2.0000     -10.314447      -280.6704
   6   2.0000     -10.311185      -280.5816
   7   2.0000     -10.303305      -280.3672
   8   2.0000     -10.295752      -280.1617
   9   2.0000     -10.293586      -280.1027
  10   2.0000     -10.292878      -280.0834
  11   2.0000     -10.287932      -279.9489
  12   2.0000     -10.286362      -279.9061
  13   2.0000     -10.274185      -279.5748
  14   2.0000     -10.269791      -279.4552
  15   2.0000     -10.268490      -279.4198
  16   2.0000      -8.080362      -219.8778
  17   2.0000      -8.078439      -219.8255
  18   2.0000      -6.038783      -164.3236
  19   2.0000      -6.036959      -164.2740
  20   2.0000      -6.034645      -164.2110
  21   2.0000      -6.033088      -164.1687
  22   2.0000      -6.031273      -164.1193
  23   2.0000      -6.029048      -164.0587
  24   2.0000      -1.013415       -27.5764
  25   2.0000      -0.986043       -26.8316
  26   2.0000      -0.910595       -24.7785
  27   2.0000      -0.908903       -24.7325
  28   2.0000      -0.872356       -23.7380
  29   2.0000      -0.848178       -23.0801
  30   2.0000      -0.840292       -22.8655
  31   2.0000      -0.816408       -22.2156
  32   2.0000      -0.784642       -21.3512
  33   2.0000      -0.773470       -21.0472
  34   2.0000      -0.711952       -19.3732
  35   2.0000      -0.699300       -19.0289
  36   2.0000      -0.694907       -18.9094
  37   2.0000      -0.660329       -17.9685
  38   2.0000      -0.648565       -17.6483
  39   2.0000      -0.620101       -16.8738
  40   2.0000      -0.593329       -16.1453
  41   2.0000      -0.568870       -15.4797
  42   2.0000      -0.553628       -15.0650
  43   2.0000      -0.547972       -14.9111
  44   2.0000      -0.547310       -14.8931
  45   2.0000      -0.535681       -14.5766
  46   2.0000      -0.518703       -14.1146
  47   2.0000      -0.511230       -13.9113
  48   2.0000      -0.504295       -13.7226
  49   2.0000      -0.500792       -13.6272
  50   2.0000      -0.489610       -13.3230
  51   2.0000      -0.479606       -13.0508
  52   2.0000      -0.466205       -12.6861
  53   2.0000      -0.464191       -12.6313
  54   2.0000      -0.458362       -12.4727
  55   2.0000      -0.449913       -12.2428
  56   2.0000      -0.446516       -12.1503
  57   2.0000      -0.431943       -11.7538
  58   2.0000      -0.429400       -11.6846
  59   2.0000      -0.424752       -11.5581
  60   2.0000      -0.421771       -11.4770
  61   2.0000      -0.419731       -11.4215
  62   2.0000      -0.411370       -11.1940
  63   2.0000      -0.342750        -9.3267
  64   2.0000      -0.329512        -8.9665
  65   2.0000      -0.325696        -8.8626
  66   2.0000      -0.297599        -8.0981
  67   0.0000       0.032933         0.8961
  68   0.0000       0.062223         1.6932
  69   0.0000       0.107213         2.9174
  70   0.0000       0.119466         3.2508
  71   0.0000       0.131345         3.5741

MULLIKEN ATOMIC CHARGES
-----------------------
   0 S :    0.102823
   1 C :   -0.097030
   2 C :   -0.083448
   3 C :    0.011708
   4 C :   -0.187105
   5 H :    0.044309
   6 C :    0.070298
   7 H :    0.043965
   8 H :    0.016978
   9 C :   -0.068299
  10 H :    0.025814
  11 H :    0.027997
  12 C :   -0.029555
  13 H :    0.021034
  14 H :    0.035655
  15 H :    0.014404
  16 S :    0.109387
  17 C :   -0.090760
  18 C :   -0.049265
  19 C :   -0.044015
  20 C :   -0.149455
  21 H :    0.019121
  22 C :    0.071318
  23 H :    0.028390
  24 H :    0.026776
  25 C :   -0.032022
  26 H :    0.008844
  27 H :    0.021914
  28 C :   -0.054568
  29 H :    0.051396
  30 H :    0.030957
  31 H :    0.020245
  32 H :    0.021283
  33 H :    0.060906
Sum of atomic charges:    0.0000000

LOEWDIN ATOMIC CHARGES
----------------------
   0 S :    0.395889
   1 C :   -0.177172
   2 C :   -0.051728
   3 C :   -0.078923
   4 C :   -0.207186
   5 H :    0.044448
   6 C :   -0.033967
   7 H :    0.041167
   8 H :    0.026453
   9 C :   -0.034241
  10 H :    0.023376
  11 H :    0.021667
  12 C :   -0.059322
  13 H :    0.026709
  14 H :    0.026718
  15 H :    0.010830
  16 S :    0.423649
  17 C :   -0.188690
  18 C :   -0.073714
  19 C :   -0.052273
  20 C :   -0.209895
  21 H :    0.032071
  22 C :   -0.026208
  23 H :    0.033990
  24 H :    0.026616
  25 C :   -0.034705
  26 H :    0.015260
  27 H :    0.019039
  28 C :   -0.065013
  29 H :    0.034973
  30 H :    0.027648
  31 H :    0.017742
  32 H :    0.013654
  33 H :    0.031139

  Mayer bond orders larger than 0.100000
B(  0-S ,  1-C ) :   1.1278 B(  0-S ,  4-C ) :   1.1459 B(  1-C ,  2-C ) :   1.6153
B(  1-C ,  4-C ) :   0.1026 B(  1-C , 32-H ) :   0.9847 B(  2-C ,  3-C ) :   1.2117
B(  2-C ,  6-C ) :   1.0081 B(  3-C ,  4-C ) :   1.6196 B(  3-C ,  5-H ) :   0.9768
B(  4-C , 20-C ) :   0.9875 B(  6-C ,  7-H ) :   0.9306 B(  6-C ,  8-H ) :   0.9457
B(  6-C ,  9-C ) :   1.0789 B(  9-C , 10-H ) :   0.9554 B(  9-C , 11-H ) :   0.9522
B(  9-C , 12-C ) :   1.0777 B( 12-C , 13-H ) :   0.9732 B( 12-C , 14-H ) :   0.9767
B( 12-C , 15-H ) :   0.9770 B( 16-S , 17-C ) :   1.1678 B( 16-S , 20-C ) :   1.1542
B( 17-C , 18-C ) :   1.6052 B( 17-C , 20-C ) :   0.1034 B( 17-C , 33-H ) :   0.9636
B( 18-C , 19-C ) :   1.2367 B( 18-C , 21-H ) :   0.9944 B( 19-C , 20-C ) :   1.6067
B( 19-C , 22-C ) :   1.0375 B( 22-C , 23-H ) :   0.9337 B( 22-C , 24-H ) :   0.9314
B( 22-C , 25-C ) :   1.0863 B( 25-C , 26-H ) :   0.9546 B( 25-C , 27-H ) :   0.9571
B( 25-C , 28-C ) :   1.0708 B( 28-C , 29-H ) :   0.9718 B( 28-C , 30-H ) :   0.9742
B( 28-C , 31-H ) :   0.9791

Dispersion correction           -0.015539651
FINAL SINGLE POINT ENERGY     -1339.870243879572

DIPOLE MOMENT
-------------
                                X             Y             Z
Electronic contribution:    -15.73617      10.72934     -15.81999
Nuclear contribution   :     16.14906     -10.69165      16.23313
                        -----------------------------------------
Total Dipole Moment    :      0.41289       0.03769       0.41314
                        -----------------------------------------
Magnitude (a.u.)       :      0.58531
Magnitude (Debye)      :      1.48774

Rotational constants in cm-1:     0.018271     0.009621     0.008288
Rotational constants in MHz :   547.741488   288.419381   248.455850

                             ****ORCA TERMINATED NORMALLY****
TOTAL RUN TIME: 0 days 0 hours 0 minutes 21 seconds 768 msec
