                         Program Version 4.2.1 -  RELEASE  -
|  1> ! wB97X-D3 SP def2-SVP
|  2> %pal
|  3> nprocs 24
|  4> end
|  5>
|  6> * xyz 0 1
|  7> S 	 -105.704 	 43.2727 	 -92.9703
|  8> C 	 -105.673 	 42.1366 	 -91.6688
|  9> C 	 -104.445 	 41.4989 	 -91.6383
| 10> C 	 -103.737 	 41.7414 	 -92.8353
| 11> C 	 -104.396 	 42.4982 	 -93.7764
| 12> H 	 -102.823 	 41.2898 	 -93.1131
| 13> C 	 -103.89 	 40.5378 	 -90.5916
| 14> H 	 -104.244 	 39.4927 	 -90.8521
| 15> H 	 -104.431 	 40.8132 	 -89.6129
| 16> C 	 -102.365 	 40.6131 	 -90.4343
| 17> H 	 -101.852 	 40.1932 	 -91.2559
| 18> H 	 -102.109 	 41.7263 	 -90.4991
| 19> C 	 -101.952 	 40.0298 	 -89.0428
| 20> H 	 -102.685 	 40.2377 	 -88.2432
| 21> H 	 -101.911 	 38.9585 	 -89.1559
| 22> H 	 -100.942 	 40.4077 	 -88.789
| 23> S 	 -105.003 	 43.3896 	 -96.2985
| 24> C 	 -103.907 	 43.1845 	 -97.6315
| 25> C 	 -102.647 	 42.6805 	 -97.2423
| 26> C 	 -102.654 	 42.448 	 -95.8003
| 27> C 	 -103.903 	 42.7728 	 -95.1249
| 28> H 	 -101.826 	 42.4765 	 -97.8324
| 29> C 	 -101.296 	 42.1823 	 -95.1495
| 30> H 	 -100.71 	 42.0054 	 -96.0713
| 31> H 	 -101.292 	 41.2353 	 -94.6416
| 32> C 	 -100.795 	 43.3595 	 -94.3748
| 33> H 	 -101.383 	 43.6924 	 -93.481
| 34> H 	 -100.717 	 44.253 	 -94.979
| 35> C 	 -99.3835 	 43.2001 	 -93.8711
| 36> H 	 -99.1275 	 43.9907 	 -93.0913
| 37> H 	 -98.6235 	 43.1402 	 -94.6424
| 38> H 	 -99.2831 	 42.2418 	 -93.3451
| 39> H 	 -106.396 	 42.1381 	 -90.8293
| 40> H 	 -104.07 	 43.6186 	 -98.6587
| 41> *
| 42>
| 43>                          ****END OF INPUT****

CARTESIAN COORDINATES (ANGSTROEM)
---------------------------------
  S    -105.704000   43.272700  -92.970300
  C    -105.673000   42.136600  -91.668800
  C    -104.445000   41.498900  -91.638300
  C    -103.737000   41.741400  -92.835300
  C    -104.396000   42.498200  -93.776400
  H    -102.823000   41.289800  -93.113100
  C    -103.890000   40.537800  -90.591600
  H    -104.244000   39.492700  -90.852100
  H    -104.431000   40.813200  -89.612900
  C    -102.365000   40.613100  -90.434300
  H    -101.852000   40.193200  -91.255900
  H    -102.109000   41.726300  -90.499100
  C    -101.952000   40.029800  -89.042800
  H    -102.685000   40.237700  -88.243200
  H    -101.911000   38.958500  -89.155900
  H    -100.942000   40.407700  -88.789000
  S    -105.003000   43.389600  -96.298500
  C    -103.907000   43.184500  -97.631500
  C    -102.647000   42.680500  -97.242300
  C    -102.654000   42.448000  -95.800300
  C    -103.903000   42.772800  -95.124900
  H    -101.826000   42.476500  -97.832400
  C    -101.296000   42.182300  -95.149500
  H    -100.710000   42.005400  -96.071300
  H    -101.292000   41.235300  -94.641600
  C    -100.795000   43.359500  -94.374800
  H    -101.383000   43.692400  -93.481000
  H    -100.717000   44.253000  -94.979000
  C    -99.383500   43.200100  -93.871100
  H    -99.127500   43.990700  -93.091300
  H    -98.623500   43.140200  -94.642400
  H    -99.283100   42.241800  -93.345100
  H    -106.396000   42.138100  -90.829300
  H    -104.070000   43.618600  -98.658700

 Total Charge           Charge          ....    0
 Multiplicity           Mult            ....    1
 Number of Electrons    NEL             ....  134
 Basis Dimension        Dim             ....  322

ORBITAL ENERGIES
----------------

  NO   OCC          E(Eh)            E(eV)
   0   2.0000     -88.970143     -2421.0007
   1   2.0000     -88.964360     -2420.8433
   2   2.0000     -10.333374      -281.1854
   3   2.0000     -10.328090      -281.0416
   4   2.0000     -10.325810      -280.9796
   5   2.0000     -10.312906      -280.6285
   6   2.0000     -10.311009      -280.5768
   7   2.0000     -10.303455      -280.3713
   8   2.0000     -10.298926      -280.2480
   9   2.0000     -10.298808      -280.2448
  10   2.0000     -10.294230      -280.1203
  11   2.0000     -10.293561      -280.1020
  12   2.0000     -10.285332      -279.8781
  13   2.0000     -10.283608      -279.8312
  14   2.0000     -10.283544      -279.8295
  15   2.0000     -10.278370      -279.6887
  16   2.0000      -8.085099      -220.0067
  17   2.0000      -8.079987      -219.8676
  18   2.0000      -6.043623      -164.4553
  19   2.0000      -6.039271      -164.3369
  20   2.0000      -6.038518      -164.3164
  21   2.0000      -6.036152      -164.2520
  22   2.0000      -6.034520      -164.2076
  23   2.0000      -6.030530      -164.0991
  24   2.0000      -1.011469       -27.5235
  25   2.0000      -0.985626       -26.8203
  26   2.0000      -0.916393       -24.9363
  27   2.0000      -0.909683       -24.7537
  28   2.0000      -0.870362       -23.6838
  29   2.0000      -0.853467       -23.2240
  30   2.0000      -0.845751       -23.0140
  31   2.0000      -0.812908       -22.1203
  32   2.0000      -0.778324       -21.1793
  33   2.0000      -0.767023       -20.8717
  34   2.0000      -0.709561       -19.3081
  35   2.0000      -0.699480       -19.0338
  36   2.0000      -0.685504       -18.6535
  37   2.0000      -0.669982       -18.2311
  38   2.0000      -0.637035       -17.3346
  39   2.0000      -0.623860       -16.9761
  40   2.0000      -0.592074       -16.1112
  41   2.0000      -0.568401       -15.4670
  42   2.0000      -0.567376       -15.4391
  43   2.0000      -0.562812       -15.3149
  44   2.0000      -0.534068       -14.5327
  45   2.0000      -0.524674       -14.2771
  46   2.0000      -0.511609       -13.9216
  47   2.0000      -0.509339       -13.8598
  48   2.0000      -0.503720       -13.7069
  49   2.0000      -0.498041       -13.5524
  50   2.0000      -0.497150       -13.5281
  51   2.0000      -0.480983       -13.0882
  52   2.0000      -0.475150       -12.9295
  53   2.0000      -0.469428       -12.7738
  54   2.0000      -0.458689       -12.4816
  55   2.0000      -0.453494       -12.3402
  56   2.0000      -0.441954       -12.0262
  57   2.0000      -0.439342       -11.9551
  58   2.0000      -0.433699       -11.8015
  59   2.0000      -0.422164       -11.4877
  60   2.0000      -0.416084       -11.3222
  61   2.0000      -0.414350       -11.2750
  62   2.0000      -0.409657       -11.1473
  63   2.0000      -0.359141        -9.7727
  64   2.0000      -0.332543        -9.0490
  65   2.0000      -0.325457        -8.8561
  66   2.0000      -0.278235        -7.5712
  67   0.0000       0.014815         0.4031
  68   0.0000       0.084025         2.2864
  69   0.0000       0.102853         2.7988
  70   0.0000       0.122283         3.3275
  71   0.0000       0.126078         3.4308

MULLIKEN ATOMIC CHARGES
-----------------------
   0 S :    0.107876
   1 C :   -0.134886
   2 C :   -0.065665
   3 C :   -0.010176
   4 C :   -0.070768
   5 H :   -0.035780
   6 C :    0.026053
   7 H :    0.057042
   8 H :    0.031542
   9 C :   -0.117649
  10 H :    0.035376
  11 H :    0.043128
  12 C :   -0.030608
  13 H :    0.040187
  14 H :    0.030595
  15 H :    0.042486
  16 S :    0.117543
  17 C :   -0.103891
  18 C :    0.001972
  19 C :   -0.108768
  20 C :   -0.139670
  21 H :   -0.001478
  22 C :    0.061379
  23 H :    0.010904
  24 H :    0.033928
  25 C :   -0.046266
  26 H :    0.045934
  27 H :    0.025002
  28 C :   -0.065519
  29 H :    0.043729
  30 H :    0.026425
  31 H :    0.013329
  32 H :    0.055335
  33 H :    0.081361
Sum of atomic charges:   -0.0000000

LOEWDIN ATOMIC CHARGES
----------------------
   0 S :    0.417129
   1 C :   -0.210449
   2 C :   -0.066123
   3 C :   -0.068187
   4 C :   -0.196258
   5 H :    0.018170
   6 C :   -0.038434
   7 H :    0.039150
   8 H :    0.034768
   9 C :   -0.044899
  10 H :    0.017270
  11 H :    0.032050
  12 C :   -0.061797
  13 H :    0.028688
  14 H :    0.024138
  15 H :    0.030287
  16 S :    0.437795
  17 C :   -0.202461
  18 C :   -0.062687
  19 C :   -0.049481
  20 C :   -0.213412
  21 H :    0.019763
  22 C :   -0.035395
  23 H :    0.034961
  24 H :    0.023555
  25 C :   -0.048313
  26 H :    0.035091
  27 H :    0.028056
  28 C :   -0.070500
  29 H :    0.034809
  30 H :    0.018664
  31 H :    0.018544
  32 H :    0.033594
  33 H :    0.041912

  Mayer bond orders larger than 0.100000
B(  0-S ,  1-C ) :   1.1391 B(  0-S ,  4-C ) :   1.1555 B(  1-C ,  2-C ) :   1.5853
B(  1-C , 32-H ) :   0.9676 B(  2-C ,  3-C ) :   1.2634 B(  2-C ,  6-C ) :   1.0146
B(  3-C ,  4-C ) :   1.5447 B(  3-C ,  5-H ) :   1.0033 B(  4-C , 20-C ) :   1.0915
B(  6-C ,  7-H ) :   0.9359 B(  6-C ,  8-H ) :   0.9464 B(  6-C ,  9-C ) :   1.0576
B(  9-C , 10-H ) :   0.9470 B(  9-C , 11-H ) :   0.9661 B(  9-C , 12-C ) :   1.0690
B( 12-C , 13-H ) :   0.9786 B( 12-C , 14-H ) :   0.9751 B( 12-C , 15-H ) :   0.9758
B( 16-S , 17-C ) :   1.1872 B( 16-S , 20-C ) :   1.1565 B( 17-C , 18-C ) :   1.5420
B( 17-C , 20-C ) :   0.1020 B( 17-C , 33-H ) :   0.9569 B( 18-C , 19-C ) :   1.3175
B( 18-C , 21-H ) :   0.9933 B( 19-C , 20-C ) :   1.4935 B( 19-C , 22-C ) :   1.0428
B( 22-C , 23-H ) :   0.9318 B( 22-C , 24-H ) :   0.9248 B( 22-C , 25-C ) :   1.0674
B( 25-C , 26-H ) :   0.9517 B( 25-C , 27-H ) :   0.9505 B( 25-C , 28-C ) :   1.0855
B( 28-C , 29-H ) :   0.9737 B( 28-C , 30-H ) :   0.9757 B( 28-C , 31-H ) :   0.9714

Dispersion correction           -0.014347069
FINAL SINGLE POINT ENERGY     -1339.862226588711

DIPOLE MOMENT
-------------
                                X             Y             Z
Electronic contribution:    -25.88458       9.83429     -17.02228
Nuclear contribution   :     26.54447     -10.08550      17.20569
                        -----------------------------------------
Total Dipole Moment    :      0.65989      -0.25120       0.18341
                        -----------------------------------------
Magnitude (a.u.)       :      0.72952
Magnitude (Debye)      :      1.85429

Rotational constants in cm-1:     0.017778     0.009572     0.006746
Rotational constants in MHz :   532.983176   286.958909   202.241186

                             ****ORCA TERMINATED NORMALLY****
TOTAL RUN TIME: 0 days 0 hours 0 minutes 22 seconds 163 msec
