                         Program Version 4.2.1 -  RELEASE  -
|  1> ! wB97X-D3 SP def2-SVP
|  2> %pal
|  3> nprocs 24
|  4> end
|  5>
|  6> * xyz 0 1
|  7> S 	 -59.4646 	 17.7655 	 -93.7725
|  8> C 	 -58.1502 	 18.8764 	 -93.7665
|  9> C 	 -56.9221 	 18.2796 	 -94.0467
| 10> C 	 -57.1103 	 16.9587 	 -94.527
| 11> C 	 -58.3823 	 16.5256 	 -94.4865
| 12> H 	 -56.316 	 16.3563 	 -94.8558
| 13> C 	 -55.5988 	 18.9837 	 -94.2423
| 14> H 	 -54.7646 	 18.26 	 -94.1138
| 15> H 	 -55.5209 	 19.7534 	 -93.4314
| 16> C 	 -55.4928 	 19.7619 	 -95.538
| 17> H 	 -56.2716 	 20.5058 	 -95.5703
| 18> H 	 -54.5252 	 20.2619 	 -95.6287
| 19> C 	 -55.6154 	 18.8495 	 -96.7745
| 20> H 	 -55.1777 	 19.4537 	 -97.5833
| 21> H 	 -55.1569 	 17.8309 	 -96.6199
| 22> H 	 -56.6492 	 18.6601 	 -97.0789
| 23> S 	 -60.4646 	 15.4765 	 -95.932
| 24> C 	 -60.3514 	 13.7998 	 -96.4932
| 25> C 	 -59.2152 	 13.223 	 -96.0861
| 26> C 	 -58.4175 	 14.0322 	 -95.2259
| 27> C 	 -58.8645 	 15.3453 	 -95.1208
| 28> H 	 -59.2157 	 12.1726 	 -96.3244
| 29> C 	 -57.2506 	 13.3605 	 -94.4353
| 30> H 	 -56.4095 	 13.9646 	 -94.5336
| 31> H 	 -56.9963 	 12.4863 	 -95.0307
| 32> C 	 -57.4718 	 13.0017 	 -92.956
| 33> H 	 -58.2344 	 12.203 	 -92.7761
| 34> H 	 -57.8092 	 13.7624 	 -92.287
| 35> C 	 -56.207 	 12.5564 	 -92.2674
| 36> H 	 -55.6734 	 13.3265 	 -91.716
| 37> H 	 -55.4656 	 12.0529 	 -92.939
| 38> H 	 -56.4252 	 11.7797 	 -91.579
| 39> H 	 -58.2273 	 19.9782 	 -93.5813
| 40> H 	 -61.1749 	 13.1863 	 -96.922
| 41> *
| 42>
| 43>                          ****END OF INPUT****

CARTESIAN COORDINATES (ANGSTROEM)
---------------------------------
  S    -59.464600   17.765500  -93.772500
  C    -58.150200   18.876400  -93.766500
  C    -56.922100   18.279600  -94.046700
  C    -57.110300   16.958700  -94.527000
  C    -58.382300   16.525600  -94.486500
  H    -56.316000   16.356300  -94.855800
  C    -55.598800   18.983700  -94.242300
  H    -54.764600   18.260000  -94.113800
  H    -55.520900   19.753400  -93.431400
  C    -55.492800   19.761900  -95.538000
  H    -56.271600   20.505800  -95.570300
  H    -54.525200   20.261900  -95.628700
  C    -55.615400   18.849500  -96.774500
  H    -55.177700   19.453700  -97.583300
  H    -55.156900   17.830900  -96.619900
  H    -56.649200   18.660100  -97.078900
  S    -60.464600   15.476500  -95.932000
  C    -60.351400   13.799800  -96.493200
  C    -59.215200   13.223000  -96.086100
  C    -58.417500   14.032200  -95.225900
  C    -58.864500   15.345300  -95.120800
  H    -59.215700   12.172600  -96.324400
  C    -57.250600   13.360500  -94.435300
  H    -56.409500   13.964600  -94.533600
  H    -56.996300   12.486300  -95.030700
  C    -57.471800   13.001700  -92.956000
  H    -58.234400   12.203000  -92.776100
  H    -57.809200   13.762400  -92.287000
  C    -56.207000   12.556400  -92.267400
  H    -55.673400   13.326500  -91.716000
  H    -55.465600   12.052900  -92.939000
  H    -56.425200   11.779700  -91.579000
  H    -58.227300   19.978200  -93.581300
  H    -61.174900   13.186300  -96.922000

 Total Charge           Charge          ....    0
 Multiplicity           Mult            ....    1
 Number of Electrons    NEL             ....  134
 Basis Dimension        Dim             ....  322

ORBITAL ENERGIES
----------------

  NO   OCC          E(Eh)            E(eV)
   0   2.0000     -88.969424     -2420.9811
   1   2.0000     -88.960150     -2420.7288
   2   2.0000     -10.328614      -281.0559
   3   2.0000     -10.325782      -280.9788
   4   2.0000     -10.317422      -280.7513
   5   2.0000     -10.313799      -280.6527
   6   2.0000     -10.306433      -280.4523
   7   2.0000     -10.298250      -280.2296
   8   2.0000     -10.295173      -280.1459
   9   2.0000     -10.291759      -280.0530
  10   2.0000     -10.287066      -279.9253
  11   2.0000     -10.286563      -279.9116
  12   2.0000     -10.284771      -279.8628
  13   2.0000     -10.284220      -279.8479
  14   2.0000     -10.277749      -279.6718
  15   2.0000     -10.272016      -279.5158
  16   2.0000      -8.083904      -219.9742
  17   2.0000      -8.074190      -219.7099
  18   2.0000      -6.042473      -164.4240
  19   2.0000      -6.038548      -164.3172
  20   2.0000      -6.034518      -164.2076
  21   2.0000      -6.032809      -164.1611
  22   2.0000      -6.028918      -164.0552
  23   2.0000      -6.024735      -163.9414
  24   2.0000      -1.007846       -27.4249
  25   2.0000      -0.983041       -26.7499
  26   2.0000      -0.914262       -24.8783
  27   2.0000      -0.906053       -24.6550
  28   2.0000      -0.875299       -23.8181
  29   2.0000      -0.853701       -23.2304
  30   2.0000      -0.844702       -22.9855
  31   2.0000      -0.817497       -22.2452
  32   2.0000      -0.781699       -21.2711
  33   2.0000      -0.769438       -20.9375
  34   2.0000      -0.709541       -19.3076
  35   2.0000      -0.699463       -19.0334
  36   2.0000      -0.695003       -18.9120
  37   2.0000      -0.659414       -17.9436
  38   2.0000      -0.636016       -17.3069
  39   2.0000      -0.620699       -16.8901
  40   2.0000      -0.591187       -16.0870
  41   2.0000      -0.574897       -15.6437
  42   2.0000      -0.562286       -15.3006
  43   2.0000      -0.549488       -14.9523
  44   2.0000      -0.545063       -14.8319
  45   2.0000      -0.525371       -14.2961
  46   2.0000      -0.513120       -13.9627
  47   2.0000      -0.509620       -13.8675
  48   2.0000      -0.505665       -13.7599
  49   2.0000      -0.501396       -13.6437
  50   2.0000      -0.489747       -13.3267
  51   2.0000      -0.482259       -13.1229
  52   2.0000      -0.470073       -12.7913
  53   2.0000      -0.463250       -12.6057
  54   2.0000      -0.455543       -12.3959
  55   2.0000      -0.445550       -12.1240
  56   2.0000      -0.441208       -12.0059
  57   2.0000      -0.436741       -11.8843
  58   2.0000      -0.435391       -11.8476
  59   2.0000      -0.420681       -11.4473
  60   2.0000      -0.418105       -11.3772
  61   2.0000      -0.415623       -11.3097
  62   2.0000      -0.408217       -11.1082
  63   2.0000      -0.356952        -9.7132
  64   2.0000      -0.333444        -9.0735
  65   2.0000      -0.328537        -8.9399
  66   2.0000      -0.284599        -7.7443
  67   0.0000       0.019339         0.5262
  68   0.0000       0.077756         2.1158
  69   0.0000       0.098803         2.6886
  70   0.0000       0.124280         3.3818
  71   0.0000       0.137686         3.7466

MULLIKEN ATOMIC CHARGES
-----------------------
   0 S :    0.123791
   1 C :   -0.150737
   2 C :   -0.063566
   3 C :    0.015335
   4 C :   -0.118388
   5 H :   -0.007542
   6 C :    0.022814
   7 H :    0.033977
   8 H :    0.029647
   9 C :   -0.038364
  10 H :    0.020539
  11 H :    0.034055
  12 C :   -0.086205
  13 H :    0.036759
  14 H :    0.037689
  15 H :    0.045982
  16 S :    0.075634
  17 C :   -0.110498
  18 C :   -0.028607
  19 C :   -0.056590
  20 C :   -0.135516
  21 H :    0.016917
  22 C :    0.124351
  23 H :   -0.001177
  24 H :    0.015734
  25 C :   -0.043437
  26 H :    0.029117
  27 H :    0.029049
  28 C :   -0.064989
  29 H :    0.038220
  30 H :    0.022141
  31 H :    0.019041
  32 H :    0.065324
  33 H :    0.069499
Sum of atomic charges:    0.0000000

LOEWDIN ATOMIC CHARGES
----------------------
   0 S :    0.397867
   1 C :   -0.206473
   2 C :   -0.066876
   3 C :   -0.046480
   4 C :   -0.182195
   5 H :    0.023507
   6 C :   -0.038524
   7 H :    0.031565
   8 H :    0.033993
   9 C :   -0.038113
  10 H :    0.022069
  11 H :    0.025446
  12 C :   -0.073649
  13 H :    0.028913
  14 H :    0.027535
  15 H :    0.027693
  16 S :    0.364009
  17 C :   -0.181290
  18 C :   -0.081049
  19 C :   -0.055683
  20 C :   -0.173695
  21 H :    0.035095
  22 C :   -0.021204
  23 H :    0.017991
  24 H :    0.032848
  25 C :   -0.042800
  26 H :    0.029257
  27 H :    0.028039
  28 C :   -0.069155
  29 H :    0.024658
  30 H :    0.025248
  31 H :    0.022970
  32 H :    0.037529
  33 H :    0.040953

  Mayer bond orders larger than 0.100000
B(  0-S ,  1-C ) :   1.1473 B(  0-S ,  4-C ) :   1.1137 B(  1-C ,  2-C ) :   1.5998
B(  1-C , 32-H ) :   0.9582 B(  2-C ,  3-C ) :   1.2371 B(  2-C ,  6-C ) :   1.0367
B(  3-C ,  4-C ) :   1.5887 B(  3-C ,  5-H ) :   1.0004 B(  4-C , 20-C ) :   1.0997
B(  6-C ,  7-H ) :   0.9438 B(  6-C ,  8-H ) :   0.9344 B(  6-C ,  9-C ) :   1.0855
B(  9-C , 10-H ) :   0.9490 B(  9-C , 11-H ) :   0.9596 B(  9-C , 12-C ) :   1.0723
B( 12-C , 13-H ) :   0.9751 B( 12-C , 14-H ) :   0.9748 B( 12-C , 15-H ) :   0.9727
B( 16-S , 17-C ) :   1.1300 B( 16-S , 20-C ) :   1.1084 B( 17-C , 18-C ) :   1.6715
B( 17-C , 33-H ) :   0.9557 B( 18-C , 19-C ) :   1.2136 B( 18-C , 21-H ) :   0.9867
B( 19-C , 20-C ) :   1.6059 B( 19-C , 22-C ) :   1.0309 B( 22-C , 23-H ) :   0.9327
B( 22-C , 24-H ) :   0.9276 B( 22-C , 25-C ) :   1.0635 B( 25-C , 26-H ) :   0.9613
B( 25-C , 27-H ) :   0.9564 B( 25-C , 28-C ) :   1.0729 B( 28-C , 29-H ) :   0.9784
B( 28-C , 30-H ) :   0.9738 B( 28-C , 31-H ) :   0.9736

Dispersion correction           -0.014474636
FINAL SINGLE POINT ENERGY     -1339.866090539419

DIPOLE MOMENT
-------------
                                X             Y             Z
Electronic contribution:    -23.32412       3.91738      -2.51399
Nuclear contribution   :     23.84802      -4.09775       2.56498
                        -----------------------------------------
Total Dipole Moment    :      0.52391      -0.18037       0.05099
                        -----------------------------------------
Magnitude (a.u.)       :      0.55643
Magnitude (Debye)      :      1.41432

Rotational constants in cm-1:     0.017009     0.009244     0.007659
Rotational constants in MHz :   509.915198   277.115286   229.600306

                             ****ORCA TERMINATED NORMALLY****
TOTAL RUN TIME: 0 days 0 hours 0 minutes 20 seconds 658 msec
