                         Program Version 4.2.1 -  RELEASE  -
|  1> ! wB97X-D3 SP def2-SVP
|  2> %pal
|  3> nprocs 24
|  4> end
|  5>
|  6> * xyz 0 1
|  7> S 	 -128.572 	 60.7279 	 -62.2267
|  8> C 	 -130.249 	 61.0777 	 -62.6111
|  9> C 	 -131.068 	 60.0602 	 -62.1659
| 10> C 	 -130.41 	 59.098 	 -61.3384
| 11> C 	 -129.036 	 59.3251 	 -61.2092
| 12> H 	 -130.909 	 58.2455 	 -60.9222
| 13> C 	 -132.619 	 60.0764 	 -62.3032
| 14> H 	 -133.149 	 59.1878 	 -61.8493
| 15> H 	 -132.828 	 59.9299 	 -63.3658
| 16> C 	 -133.413 	 61.321 	 -61.7803
| 17> H 	 -133.222 	 61.4281 	 -60.6497
| 18> H 	 -133.148 	 62.0764 	 -62.5126
| 19> C 	 -134.943 	 61.0944 	 -61.8632
| 20> H 	 -135.592 	 61.9309 	 -61.4441
| 21> H 	 -134.975 	 60.8325 	 -62.9496
| 22> H 	 -135.241 	 60.231 	 -61.3603
| 23> S 	 -127.17 	 59.0438 	 -59.2024
| 24> C 	 -126.26 	 57.6025 	 -59.0826
| 25> C 	 -126.754 	 56.6702 	 -59.9131
| 26> C 	 -127.934 	 57.0743 	 -60.6446
| 27> C 	 -128.097 	 58.4353 	 -60.4805
| 28> H 	 -126.372 	 55.678 	 -59.7678
| 29> C 	 -128.677 	 56.2602 	 -61.6781
| 30> H 	 -127.886 	 56.0928 	 -62.4813
| 31> H 	 -129.43 	 56.867 	 -62.1655
| 32> C 	 -129.25 	 54.9599 	 -61.1345
| 33> H 	 -129.938 	 55.141 	 -60.3568
| 34> H 	 -128.393 	 54.413 	 -60.7821
| 35> C 	 -129.969 	 54.1039 	 -62.1886
| 36> H 	 -130.519 	 53.2826 	 -61.6954
| 37> H 	 -129.316 	 53.7566 	 -62.9862
| 38> H 	 -130.663 	 54.7527 	 -62.6928
| 39> H 	 -130.663 	 61.9197 	 -63.1564
| 40> H 	 -125.606 	 57.3633 	 -58.2346
| 41> *
| 42>
| 43>                          ****END OF INPUT****

CARTESIAN COORDINATES (ANGSTROEM)
---------------------------------
  S    -128.572000   60.727900  -62.226700
  C    -130.249000   61.077700  -62.611100
  C    -131.068000   60.060200  -62.165900
  C    -130.410000   59.098000  -61.338400
  C    -129.036000   59.325100  -61.209200
  H    -130.909000   58.245500  -60.922200
  C    -132.619000   60.076400  -62.303200
  H    -133.149000   59.187800  -61.849300
  H    -132.828000   59.929900  -63.365800
  C    -133.413000   61.321000  -61.780300
  H    -133.222000   61.428100  -60.649700
  H    -133.148000   62.076400  -62.512600
  C    -134.943000   61.094400  -61.863200
  H    -135.592000   61.930900  -61.444100
  H    -134.975000   60.832500  -62.949600
  H    -135.241000   60.231000  -61.360300
  S    -127.170000   59.043800  -59.202400
  C    -126.260000   57.602500  -59.082600
  C    -126.754000   56.670200  -59.913100
  C    -127.934000   57.074300  -60.644600
  C    -128.097000   58.435300  -60.480500
  H    -126.372000   55.678000  -59.767800
  C    -128.677000   56.260200  -61.678100
  H    -127.886000   56.092800  -62.481300
  H    -129.430000   56.867000  -62.165500
  C    -129.250000   54.959900  -61.134500
  H    -129.938000   55.141000  -60.356800
  H    -128.393000   54.413000  -60.782100
  C    -129.969000   54.103900  -62.188600
  H    -130.519000   53.282600  -61.695400
  H    -129.316000   53.756600  -62.986200
  H    -130.663000   54.752700  -62.692800
  H    -130.663000   61.919700  -63.156400
  H    -125.606000   57.363300  -58.234600

 Total Charge           Charge          ....    0
 Multiplicity           Mult            ....    1
 Number of Electrons    NEL             ....  134
 Basis Dimension        Dim             ....  322

ORBITAL ENERGIES
----------------

  NO   OCC          E(Eh)            E(eV)
   0   2.0000     -88.970090     -2420.9992
   1   2.0000     -88.961138     -2420.7556
   2   2.0000     -10.335416      -281.2410
   3   2.0000     -10.321745      -280.8690
   4   2.0000     -10.316142      -280.7165
   5   2.0000     -10.310683      -280.5679
   6   2.0000     -10.303443      -280.3709
   7   2.0000     -10.303175      -280.3636
   8   2.0000     -10.299834      -280.2727
   9   2.0000     -10.296747      -280.1887
  10   2.0000     -10.295633      -280.1584
  11   2.0000     -10.291375      -280.0426
  12   2.0000     -10.289570      -279.9934
  13   2.0000     -10.283162      -279.8191
  14   2.0000     -10.281073      -279.7622
  15   2.0000     -10.277467      -279.6641
  16   2.0000      -8.083579      -219.9654
  17   2.0000      -8.078070      -219.8155
  18   2.0000      -6.042218      -164.4171
  19   2.0000      -6.038254      -164.3092
  20   2.0000      -6.036420      -164.2593
  21   2.0000      -6.034266      -164.2007
  22   2.0000      -6.032237      -164.1455
  23   2.0000      -6.028880      -164.0542
  24   2.0000      -1.014023       -27.5930
  25   2.0000      -0.984652       -26.7937
  26   2.0000      -0.913489       -24.8573
  27   2.0000      -0.905758       -24.6469
  28   2.0000      -0.871330       -23.7101
  29   2.0000      -0.853146       -23.2153
  30   2.0000      -0.846073       -23.0228
  31   2.0000      -0.817049       -22.2330
  32   2.0000      -0.779776       -21.2188
  33   2.0000      -0.768305       -20.9067
  34   2.0000      -0.704900       -19.1813
  35   2.0000      -0.700899       -19.0724
  36   2.0000      -0.690584       -18.7918
  37   2.0000      -0.655049       -17.8248
  38   2.0000      -0.636698       -17.3254
  39   2.0000      -0.618760       -16.8373
  40   2.0000      -0.597337       -16.2544
  41   2.0000      -0.574911       -15.6441
  42   2.0000      -0.572957       -15.5909
  43   2.0000      -0.567425       -15.4404
  44   2.0000      -0.532565       -14.4918
  45   2.0000      -0.525492       -14.2994
  46   2.0000      -0.512769       -13.9532
  47   2.0000      -0.511160       -13.9094
  48   2.0000      -0.505969       -13.7681
  49   2.0000      -0.498908       -13.5760
  50   2.0000      -0.490010       -13.3339
  51   2.0000      -0.482320       -13.1246
  52   2.0000      -0.472648       -12.8614
  53   2.0000      -0.463012       -12.5992
  54   2.0000      -0.455109       -12.3841
  55   2.0000      -0.452154       -12.3037
  56   2.0000      -0.446259       -12.1433
  57   2.0000      -0.440240       -11.9795
  58   2.0000      -0.430608       -11.7174
  59   2.0000      -0.423201       -11.5159
  60   2.0000      -0.418460       -11.3869
  61   2.0000      -0.416858       -11.3433
  62   2.0000      -0.405811       -11.0427
  63   2.0000      -0.344317        -9.3693
  64   2.0000      -0.331702        -9.0261
  65   2.0000      -0.328406        -8.9364
  66   2.0000      -0.298853        -8.1322
  67   0.0000       0.032724         0.8905
  68   0.0000       0.070056         1.9063
  69   0.0000       0.112120         3.0509
  70   0.0000       0.117123         3.1871
  71   0.0000       0.134090         3.6488

MULLIKEN ATOMIC CHARGES
-----------------------
   0 S :    0.119514
   1 C :   -0.122333
   2 C :   -0.056657
   3 C :    0.039241
   4 C :   -0.150655
   5 H :    0.010740
   6 C :   -0.010773
   7 H :    0.019247
   8 H :    0.031091
   9 C :   -0.078949
  10 H :    0.055058
  11 H :    0.037182
  12 C :   -0.058998
  13 H :    0.061186
  14 H :    0.025195
  15 H :    0.015741
  16 S :    0.121747
  17 C :   -0.095036
  18 C :   -0.033672
  19 C :   -0.021588
  20 C :   -0.183052
  21 H :    0.013880
  22 C :    0.036127
  23 H :    0.046416
  24 H :    0.017636
  25 C :   -0.064998
  26 H :    0.022024
  27 H :    0.024974
  28 C :   -0.023195
  29 H :    0.043306
  30 H :    0.028229
  31 H :    0.013996
  32 H :    0.050067
  33 H :    0.067306
Sum of atomic charges:    0.0000000

LOEWDIN ATOMIC CHARGES
----------------------
   0 S :    0.394639
   1 C :   -0.196645
   2 C :   -0.066411
   3 C :   -0.058469
   4 C :   -0.180646
   5 H :    0.028715
   6 C :   -0.043567
   7 H :    0.028728
   8 H :    0.027498
   9 C :   -0.043177
  10 H :    0.036223
  11 H :    0.022733
  12 C :   -0.073314
  13 H :    0.039225
  14 H :    0.030498
  15 H :    0.011144
  16 S :    0.441694
  17 C :   -0.199827
  18 C :   -0.074950
  19 C :   -0.051703
  20 C :   -0.221690
  21 H :    0.027737
  22 C :   -0.035081
  23 H :    0.043103
  24 H :    0.024285
  25 C :   -0.035433
  26 H :    0.019702
  27 H :    0.021636
  28 C :   -0.061897
  29 H :    0.030646
  30 H :    0.024768
  31 H :    0.020052
  32 H :    0.032429
  33 H :    0.037355

  Mayer bond orders larger than 0.100000
B(  0-S ,  1-C ) :   1.1330 B(  0-S ,  4-C ) :   1.1501 B(  1-C ,  2-C ) :   1.6104
B(  1-C , 32-H ) :   0.9693 B(  2-C ,  3-C ) :   1.2583 B(  2-C ,  6-C ) :   1.0091
B(  3-C ,  4-C ) :   1.5572 B(  3-C ,  5-H ) :   0.9958 B(  4-C , 20-C ) :   1.0225
B(  6-C ,  7-H ) :   0.9544 B(  6-C ,  8-H ) :   0.9352 B(  6-C ,  9-C ) :   1.0583
B(  9-C , 10-H ) :   0.9584 B(  9-C , 11-H ) :   0.9573 B(  9-C , 12-C ) :   1.0664
B( 12-C , 13-H ) :   0.9726 B( 12-C , 14-H ) :   0.9751 B( 12-C , 15-H ) :   0.9762
B( 16-S , 17-C ) :   1.1540 B( 16-S , 20-C ) :   1.1739 B( 17-C , 18-C ) :   1.6295
B( 17-C , 33-H ) :   0.9621 B( 18-C , 19-C ) :   1.2329 B( 18-C , 21-H ) :   0.9852
B( 19-C , 20-C ) :   1.5696 B( 19-C , 22-C ) :   1.0480 B( 22-C , 23-H ) :   0.9358
B( 22-C , 24-H ) :   0.9310 B( 22-C , 25-C ) :   1.0562 B( 25-C , 26-H ) :   0.9567
B( 25-C , 27-H ) :   0.9560 B( 25-C , 28-C ) :   1.0908 B( 28-C , 29-H ) :   0.9752
B( 28-C , 30-H ) :   0.9734 B( 28-C , 31-H ) :   0.9719

Dispersion correction           -0.013605109
FINAL SINGLE POINT ENERGY     -1339.862277002425

DIPOLE MOMENT
-------------
                                X             Y             Z
Electronic contribution:     25.39612      12.65191       7.57551
Nuclear contribution   :    -25.90104     -13.15836      -7.59934
                        -----------------------------------------
Total Dipole Moment    :     -0.50492      -0.50645      -0.02383
                        -----------------------------------------
Magnitude (a.u.)       :      0.71555
Magnitude (Debye)      :      1.81878

Rotational constants in cm-1:     0.017776     0.007919     0.006205
Rotational constants in MHz :   532.924631   237.411633   186.030713

                             ****ORCA TERMINATED NORMALLY****
TOTAL RUN TIME: 0 days 0 hours 0 minutes 21 seconds 173 msec
