                         Program Version 4.2.1 -  RELEASE  -
|  1> ! wB97X-D3 SP def2-SVP
|  2> %pal
|  3> nprocs 24
|  4> end
|  5>
|  6> * xyz 0 1
|  7> S 	 -117.588 	 28.5533 	 -20.1555
|  8> C 	 -117.721 	 28.4839 	 -21.8926
|  9> C 	 -117.68 	 29.6795 	 -22.5059
| 10> C 	 -117.66 	 30.7307 	 -21.542
| 11> C 	 -117.582 	 30.3154 	 -20.2322
| 12> H 	 -117.787 	 31.7869 	 -21.8138
| 13> C 	 -117.436 	 29.9196 	 -23.9922
| 14> H 	 -116.598 	 29.2443 	 -24.2511
| 15> H 	 -116.923 	 30.8918 	 -24.0975
| 16> C 	 -118.638 	 29.9278 	 -24.8956
| 17> H 	 -119.16 	 30.8494 	 -24.8662
| 18> H 	 -118.324 	 29.894 	 -25.9378
| 19> C 	 -119.577 	 28.7493 	 -24.5722
| 20> H 	 -120.069 	 28.9188 	 -23.5861
| 21> H 	 -120.498 	 28.5322 	 -25.2001
| 22> H 	 -119.088 	 27.8268 	 -24.4919
| 23> S 	 -118.795 	 31.1219 	 -17.9661
| 24> C 	 -118.046 	 32.3465 	 -16.9674
| 25> C 	 -116.87 	 32.8303 	 -17.5292
| 26> C 	 -116.561 	 32.1671 	 -18.7451
| 27> C 	 -117.462 	 31.1651 	 -19.0148
| 28> H 	 -116.286 	 33.4782 	 -16.8697
| 29> C 	 -115.358 	 32.6456 	 -19.5193
| 30> H 	 -114.701 	 33.3665 	 -18.9305
| 31> H 	 -115.607 	 33.279 	 -20.339
| 32> C 	 -114.396 	 31.5246 	 -19.9902
| 33> H 	 -114.212 	 31.8167 	 -21.0925
| 34> H 	 -114.881 	 30.5657 	 -19.9012
| 35> C 	 -113.149 	 31.5608 	 -19.0378
| 36> H 	 -112.576 	 30.6898 	 -19.3973
| 37> H 	 -113.419 	 31.4333 	 -17.9474
| 38> H 	 -112.547 	 32.4269 	 -19.2073
| 39> H 	 -117.698 	 27.5546 	 -22.519
| 40> H 	 -118.369 	 32.6836 	 -16.0068
| 41> *
| 42>
| 43>                          ****END OF INPUT****

CARTESIAN COORDINATES (ANGSTROEM)
---------------------------------
  S    -117.588000   28.553300  -20.155500
  C    -117.721000   28.483900  -21.892600
  C    -117.680000   29.679500  -22.505900
  C    -117.660000   30.730700  -21.542000
  C    -117.582000   30.315400  -20.232200
  H    -117.787000   31.786900  -21.813800
  C    -117.436000   29.919600  -23.992200
  H    -116.598000   29.244300  -24.251100
  H    -116.923000   30.891800  -24.097500
  C    -118.638000   29.927800  -24.895600
  H    -119.160000   30.849400  -24.866200
  H    -118.324000   29.894000  -25.937800
  C    -119.577000   28.749300  -24.572200
  H    -120.069000   28.918800  -23.586100
  H    -120.498000   28.532200  -25.200100
  H    -119.088000   27.826800  -24.491900
  S    -118.795000   31.121900  -17.966100
  C    -118.046000   32.346500  -16.967400
  C    -116.870000   32.830300  -17.529200
  C    -116.561000   32.167100  -18.745100
  C    -117.462000   31.165100  -19.014800
  H    -116.286000   33.478200  -16.869700
  C    -115.358000   32.645600  -19.519300
  H    -114.701000   33.366500  -18.930500
  H    -115.607000   33.279000  -20.339000
  C    -114.396000   31.524600  -19.990200
  H    -114.212000   31.816700  -21.092500
  H    -114.881000   30.565700  -19.901200
  C    -113.149000   31.560800  -19.037800
  H    -112.576000   30.689800  -19.397300
  H    -113.419000   31.433300  -17.947400
  H    -112.547000   32.426900  -19.207300
  H    -117.698000   27.554600  -22.519000
  H    -118.369000   32.683600  -16.006800

 Total Charge           Charge          ....    0
 Multiplicity           Mult            ....    1
 Number of Electrons    NEL             ....  134
 Basis Dimension        Dim             ....  322

ORBITAL ENERGIES
----------------

  NO   OCC          E(Eh)            E(eV)
   0   2.0000     -88.967319     -2420.9238
   1   2.0000     -88.966889     -2420.9121
   2   2.0000     -10.328635      -281.0564
   3   2.0000     -10.322040      -280.8770
   4   2.0000     -10.312079      -280.6059
   5   2.0000     -10.311266      -280.5838
   6   2.0000     -10.301041      -280.3056
   7   2.0000     -10.295912      -280.1660
   8   2.0000     -10.293798      -280.1085
   9   2.0000     -10.292657      -280.0774
  10   2.0000     -10.291323      -280.0411
  11   2.0000     -10.287119      -279.9268
  12   2.0000     -10.286437      -279.9082
  13   2.0000     -10.286281      -279.9039
  14   2.0000     -10.279550      -279.7208
  15   2.0000     -10.276878      -279.6481
  16   2.0000      -8.082511      -219.9363
  17   2.0000      -8.081782      -219.9165
  18   2.0000      -6.040856      -164.3801
  19   2.0000      -6.040314      -164.3653
  20   2.0000      -6.036865      -164.2715
  21   2.0000      -6.036423      -164.2594
  22   2.0000      -6.033420      -164.1777
  23   2.0000      -6.032453      -164.1514
  24   2.0000      -1.010899       -27.5080
  25   2.0000      -0.989266       -26.9193
  26   2.0000      -0.914752       -24.8917
  27   2.0000      -0.904180       -24.6040
  28   2.0000      -0.866711       -23.5844
  29   2.0000      -0.846566       -23.0362
  30   2.0000      -0.844970       -22.9928
  31   2.0000      -0.810199       -22.0466
  32   2.0000      -0.784395       -21.3445
  33   2.0000      -0.771653       -20.9977
  34   2.0000      -0.711030       -19.3481
  35   2.0000      -0.700927       -19.0732
  36   2.0000      -0.683545       -18.6002
  37   2.0000      -0.659857       -17.9556
  38   2.0000      -0.633723       -17.2445
  39   2.0000      -0.619520       -16.8580
  40   2.0000      -0.599732       -16.3195
  41   2.0000      -0.569547       -15.4982
  42   2.0000      -0.550748       -14.9866
  43   2.0000      -0.546727       -14.8772
  44   2.0000      -0.543160       -14.7801
  45   2.0000      -0.528298       -14.3757
  46   2.0000      -0.520473       -14.1628
  47   2.0000      -0.508963       -13.8496
  48   2.0000      -0.495510       -13.4835
  49   2.0000      -0.491237       -13.3672
  50   2.0000      -0.484756       -13.1909
  51   2.0000      -0.481590       -13.1047
  52   2.0000      -0.473197       -12.8764
  53   2.0000      -0.462625       -12.5887
  54   2.0000      -0.457736       -12.4556
  55   2.0000      -0.445551       -12.1241
  56   2.0000      -0.442816       -12.0496
  57   2.0000      -0.442436       -12.0393
  58   2.0000      -0.430804       -11.7228
  59   2.0000      -0.424818       -11.5599
  60   2.0000      -0.414256       -11.2725
  61   2.0000      -0.411707       -11.2031
  62   2.0000      -0.405263       -11.0278
  63   2.0000      -0.342681        -9.3248
  64   2.0000      -0.331975        -9.0335
  65   2.0000      -0.326257        -8.8779
  66   2.0000      -0.300761        -8.1841
  67   0.0000       0.038096         1.0366
  68   0.0000       0.068971         1.8768
  69   0.0000       0.111941         3.0461
  70   0.0000       0.117972         3.2102
  71   0.0000       0.130827         3.5600

MULLIKEN ATOMIC CHARGES
-----------------------
   0 S :    0.117206
   1 C :   -0.136778
   2 C :   -0.102619
   3 C :    0.044142
   4 C :   -0.187283
   5 H :    0.017774
   6 C :    0.037408
   7 H :    0.041306
   8 H :    0.020292
   9 C :   -0.001305
  10 H :    0.021086
  11 H :    0.026962
  12 C :   -0.085619
  13 H :    0.047431
  14 H :    0.038153
  15 H :    0.013342
  16 S :    0.130412
  17 C :   -0.092336
  18 C :   -0.053264
  19 C :    0.006989
  20 C :   -0.161597
  21 H :    0.028995
  22 C :    0.047283
  23 H :    0.017359
  24 H :    0.024471
  25 C :   -0.102349
  26 H :    0.040068
  27 H :    0.049581
  28 C :   -0.069165
  29 H :    0.035504
  30 H :    0.054038
  31 H :    0.033844
  32 H :    0.058822
  33 H :    0.039846
Sum of atomic charges:    0.0000000

LOEWDIN ATOMIC CHARGES
----------------------
   0 S :    0.398924
   1 C :   -0.198918
   2 C :   -0.072894
   3 C :   -0.059934
   4 C :   -0.197414
   5 H :    0.034096
   6 C :   -0.032962
   7 H :    0.037456
   8 H :    0.034330
   9 C :   -0.037082
  10 H :    0.022245
  11 H :    0.027330
  12 C :   -0.075265
  13 H :    0.032734
  14 H :    0.032203
  15 H :    0.011543
  16 S :    0.437395
  17 C :   -0.185348
  18 C :   -0.070836
  19 C :   -0.056829
  20 C :   -0.221937
  21 H :    0.036451
  22 C :   -0.037464
  23 H :    0.034007
  24 H :    0.024502
  25 C :   -0.041196
  26 H :    0.034046
  27 H :    0.021917
  28 C :   -0.069644
  29 H :    0.027257
  30 H :    0.035290
  31 H :    0.018132
  32 H :    0.035992
  33 H :    0.021874

  Mayer bond orders larger than 0.100000
B(  0-S ,  1-C ) :   1.1331 B(  0-S ,  4-C ) :   1.1410 B(  1-C ,  2-C ) :   1.6522
B(  1-C , 32-H ) :   0.9536 B(  2-C ,  3-C ) :   1.2363 B(  2-C ,  6-C ) :   0.9980
B(  3-C ,  4-C ) :   1.6051 B(  3-C ,  5-H ) :   0.9930 B(  4-C , 20-C ) :   0.9834
B(  6-C ,  7-H ) :   0.9477 B(  6-C ,  8-H ) :   0.9436 B(  6-C ,  9-C ) :   1.0711
B(  9-C , 10-H ) :   0.9540 B(  9-C , 11-H ) :   0.9529 B(  9-C , 12-C ) :   1.0784
B( 12-C , 13-H ) :   0.9660 B( 12-C , 14-H ) :   0.9745 B( 12-C , 15-H ) :   0.9773
B( 16-S , 17-C ) :   1.1599 B( 16-S , 20-C ) :   1.1693 B( 17-C , 18-C ) :   1.6219
B( 17-C , 33-H ) :   0.9679 B( 18-C , 19-C ) :   1.2360 B( 18-C , 21-H ) :   0.9865
B( 19-C , 20-C ) :   1.6003 B( 19-C , 22-C ) :   1.0400 B( 22-C , 23-H ) :   0.9448
B( 22-C , 24-H ) :   0.9339 B( 22-C , 25-C ) :   1.0318 B( 25-C , 26-H ) :   0.9575
B( 25-C , 27-H ) :   0.9680 B( 25-C , 28-C ) :   1.0739 B( 28-C , 29-H ) :   0.9758
B( 28-C , 30-H ) :   0.9748 B( 28-C , 31-H ) :   0.9746

Dispersion correction           -0.015122546
FINAL SINGLE POINT ENERGY     -1339.866552708964

DIPOLE MOMENT
-------------
                                X             Y             Z
Electronic contribution:    -11.34119      -3.88150      18.28421
Nuclear contribution   :     11.62988       4.24967     -18.70475
                        -----------------------------------------
Total Dipole Moment    :      0.28869       0.36818      -0.42055
                        -----------------------------------------
Magnitude (a.u.)       :      0.62909
Magnitude (Debye)      :      1.59903

Rotational constants in cm-1:     0.020805     0.008461     0.007174
Rotational constants in MHz :   623.720498   253.653539   215.076375

                             ****ORCA TERMINATED NORMALLY****
TOTAL RUN TIME: 0 days 0 hours 0 minutes 22 seconds 240 msec
