                         Program Version 4.2.1 -  RELEASE  -
|  1> ! wB97X-D3 SP def2-SVP
|  2> %pal
|  3> nprocs 24
|  4> end
|  5>
|  6> * xyz 0 1
|  7> S 	 -51.148 	 19.7816 	 28.9953
|  8> C 	 -49.8336 	 19.6752 	 27.8798
|  9> C 	 -49.3838 	 18.3582 	 27.7884
| 10> C 	 -49.8704 	 17.547 	 28.7844
| 11> C 	 -50.8751 	 18.1105 	 29.5805
| 12> H 	 -49.7493 	 16.5479 	 28.9397
| 13> C 	 -48.321 	 17.8478 	 26.8329
| 14> H 	 -48.0034 	 16.8873 	 27.2104
| 15> H 	 -47.5908 	 18.7117 	 26.8338
| 16> C 	 -48.8282 	 17.7285 	 25.3754
| 17> H 	 -49.1842 	 18.6626 	 24.8897
| 18> H 	 -48.0205 	 17.3062 	 24.7509
| 19> C 	 -49.9736 	 16.7836 	 25.3223
| 20> H 	 -50.9459 	 17.1785 	 25.6417
| 21> H 	 -50.1054 	 16.4098 	 24.2839
| 22> H 	 -49.8556 	 15.8984 	 25.9949
| 23> S 	 -51.675 	 18.7051 	 32.1076
| 24> C 	 -52.458 	 17.4613 	 33.0433
| 25> C 	 -52.3969 	 16.2676 	 32.4221
| 26> C 	 -51.9626 	 16.3076 	 31.0812
| 27> C 	 -51.6511 	 17.5943 	 30.7154
| 28> H 	 -52.7329 	 15.3243 	 32.9534
| 29> C 	 -51.9378 	 15.052 	 30.2618
| 30> H 	 -51.9182 	 15.2451 	 29.1918
| 31> H 	 -52.9361 	 14.5146 	 30.3932
| 32> C 	 -50.746 	 14.1247 	 30.577
| 33> H 	 -50.8803 	 13.3337 	 31.3078
| 34> H 	 -49.78 	 14.701 	 30.7125
| 35> C 	 -50.3149 	 13.2439 	 29.4484
| 36> H 	 -49.5624 	 12.424 	 29.7523
| 37> H 	 -49.8123 	 13.7328 	 28.6179
| 38> H 	 -51.1733 	 12.6942 	 29.0968
| 39> H 	 -49.6668 	 20.4167 	 27.1473
| 40> H 	 -52.8043 	 17.5404 	 34.0531
| 41> *
| 42>
| 43>                          ****END OF INPUT****

CARTESIAN COORDINATES (ANGSTROEM)
---------------------------------
  S    -51.148000   19.781600   28.995300
  C    -49.833600   19.675200   27.879800
  C    -49.383800   18.358200   27.788400
  C    -49.870400   17.547000   28.784400
  C    -50.875100   18.110500   29.580500
  H    -49.749300   16.547900   28.939700
  C    -48.321000   17.847800   26.832900
  H    -48.003400   16.887300   27.210400
  H    -47.590800   18.711700   26.833800
  C    -48.828200   17.728500   25.375400
  H    -49.184200   18.662600   24.889700
  H    -48.020500   17.306200   24.750900
  C    -49.973600   16.783600   25.322300
  H    -50.945900   17.178500   25.641700
  H    -50.105400   16.409800   24.283900
  H    -49.855600   15.898400   25.994900
  S    -51.675000   18.705100   32.107600
  C    -52.458000   17.461300   33.043300
  C    -52.396900   16.267600   32.422100
  C    -51.962600   16.307600   31.081200
  C    -51.651100   17.594300   30.715400
  H    -52.732900   15.324300   32.953400
  C    -51.937800   15.052000   30.261800
  H    -51.918200   15.245100   29.191800
  H    -52.936100   14.514600   30.393200
  C    -50.746000   14.124700   30.577000
  H    -50.880300   13.333700   31.307800
  H    -49.780000   14.701000   30.712500
  C    -50.314900   13.243900   29.448400
  H    -49.562400   12.424000   29.752300
  H    -49.812300   13.732800   28.617900
  H    -51.173300   12.694200   29.096800
  H    -49.666800   20.416700   27.147300
  H    -52.804300   17.540400   34.053100

 Total Charge           Charge          ....    0
 Multiplicity           Mult            ....    1
 Number of Electrons    NEL             ....  134
 Basis Dimension        Dim             ....  322

ORBITAL ENERGIES
----------------

  NO   OCC          E(Eh)            E(eV)
   0   2.0000     -88.965026     -2420.8614
   1   2.0000     -88.964604     -2420.8500
   2   2.0000     -10.332132      -281.1516
   3   2.0000     -10.329198      -281.0718
   4   2.0000     -10.312341      -280.6131
   5   2.0000     -10.308803      -280.5168
   6   2.0000     -10.303271      -280.3663
   7   2.0000     -10.303127      -280.3623
   8   2.0000     -10.296369      -280.1785
   9   2.0000     -10.296007      -280.1686
  10   2.0000     -10.292520      -280.0737
  11   2.0000     -10.292326      -280.0684
  12   2.0000     -10.288577      -279.9664
  13   2.0000     -10.284145      -279.8458
  14   2.0000     -10.281937      -279.7857
  15   2.0000     -10.275865      -279.6205
  16   2.0000      -8.079651      -219.8585
  17   2.0000      -8.078944      -219.8392
  18   2.0000      -6.038224      -164.3084
  19   2.0000      -6.037243      -164.2817
  20   2.0000      -6.034373      -164.2036
  21   2.0000      -6.033391      -164.1769
  22   2.0000      -6.030113      -164.0877
  23   2.0000      -6.030082      -164.0869
  24   2.0000      -1.009134       -27.4599
  25   2.0000      -0.988623       -26.9018
  26   2.0000      -0.917277       -24.9604
  27   2.0000      -0.914605       -24.8877
  28   2.0000      -0.869607       -23.6632
  29   2.0000      -0.861322       -23.4378
  30   2.0000      -0.851183       -23.1619
  31   2.0000      -0.815579       -22.1930
  32   2.0000      -0.783676       -21.3249
  33   2.0000      -0.769254       -20.9325
  34   2.0000      -0.704863       -19.1803
  35   2.0000      -0.698147       -18.9976
  36   2.0000      -0.692829       -18.8528
  37   2.0000      -0.664283       -18.0760
  38   2.0000      -0.646761       -17.5993
  39   2.0000      -0.615402       -16.7459
  40   2.0000      -0.600174       -16.3316
  41   2.0000      -0.578885       -15.7523
  42   2.0000      -0.575974       -15.6731
  43   2.0000      -0.550649       -14.9839
  44   2.0000      -0.541042       -14.7225
  45   2.0000      -0.529800       -14.4166
  46   2.0000      -0.516901       -14.0656
  47   2.0000      -0.514103       -13.9894
  48   2.0000      -0.509990       -13.8775
  49   2.0000      -0.495007       -13.4698
  50   2.0000      -0.492191       -13.3932
  51   2.0000      -0.479881       -13.0582
  52   2.0000      -0.478946       -13.0328
  53   2.0000      -0.467202       -12.7132
  54   2.0000      -0.458193       -12.4681
  55   2.0000      -0.449098       -12.2206
  56   2.0000      -0.434658       -11.8276
  57   2.0000      -0.432279       -11.7629
  58   2.0000      -0.430719       -11.7205
  59   2.0000      -0.425077       -11.5669
  60   2.0000      -0.420022       -11.4294
  61   2.0000      -0.416292       -11.3279
  62   2.0000      -0.412866       -11.2346
  63   2.0000      -0.352115        -9.5815
  64   2.0000      -0.332946        -9.0599
  65   2.0000      -0.331483        -9.0201
  66   2.0000      -0.286300        -7.7906
  67   0.0000       0.020495         0.5577
  68   0.0000       0.072290         1.9671
  69   0.0000       0.104340         2.8392
  70   0.0000       0.115057         3.1309
  71   0.0000       0.120526         3.2797

MULLIKEN ATOMIC CHARGES
-----------------------
   0 S :    0.100902
   1 C :   -0.099975
   2 C :   -0.096297
   3 C :    0.089321
   4 C :   -0.183729
   5 H :   -0.066859
   6 C :    0.068591
   7 H :    0.025115
   8 H :    0.046847
   9 C :   -0.063403
  10 H :    0.037029
  11 H :    0.037240
  12 C :   -0.081451
  13 H :    0.041717
  14 H :    0.034563
  15 H :    0.018843
  16 S :    0.098786
  17 C :   -0.065829
  18 C :   -0.057587
  19 C :   -0.034815
  20 C :   -0.106741
  21 H :    0.035416
  22 C :    0.052597
  23 H :    0.025131
  24 H :    0.045189
  25 C :   -0.065251
  26 H :    0.037301
  27 H :    0.049388
  28 C :   -0.104256
  29 H :    0.041604
  30 H :    0.031103
  31 H :    0.023998
  32 H :    0.038520
  33 H :    0.046992
Sum of atomic charges:    0.0000000

LOEWDIN ATOMIC CHARGES
----------------------
   0 S :    0.404138
   1 C :   -0.202909
   2 C :   -0.064580
   3 C :   -0.062476
   4 C :   -0.175419
   5 H :    0.011913
   6 C :   -0.025559
   7 H :    0.028383
   8 H :    0.042924
   9 C :   -0.047828
  10 H :    0.029304
  11 H :    0.027611
  12 C :   -0.075341
  13 H :    0.026663
  14 H :    0.027995
  15 H :    0.021605
  16 S :    0.396909
  17 C :   -0.179741
  18 C :   -0.074745
  19 C :   -0.058251
  20 C :   -0.187055
  21 H :    0.041190
  22 C :   -0.035423
  23 H :    0.030484
  24 H :    0.044270
  25 C :   -0.051907
  26 H :    0.030152
  27 H :    0.035772
  28 C :   -0.073253
  29 H :    0.035488
  30 H :    0.015010
  31 H :    0.017962
  32 H :    0.018637
  33 H :    0.028077

  Mayer bond orders larger than 0.100000
B(  0-S ,  1-C ) :   1.1627 B(  0-S ,  4-C ) :   1.1696 B(  1-C ,  2-C ) :   1.5529
B(  1-C ,  4-C ) :   0.1170 B(  1-C , 32-H ) :   0.9708 B(  2-C ,  3-C ) :   1.2813
B(  2-C ,  6-C ) :   1.0093 B(  3-C ,  4-C ) :   1.5380 B(  3-C ,  5-H ) :   1.0035
B(  4-C , 20-C ) :   1.0233 B(  6-C ,  7-H ) :   0.9461 B(  6-C ,  8-H ) :   0.9413
B(  6-C ,  9-C ) :   1.0729 B(  9-C , 10-H ) :   0.9540 B(  9-C , 11-H ) :   0.9580
B(  9-C , 12-C ) :   1.0735 B( 12-C , 13-H ) :   0.9696 B( 12-C , 14-H ) :   0.9722
B( 12-C , 15-H ) :   0.9755 B( 16-S , 17-C ) :   1.1358 B( 16-S , 20-C ) :   1.1335
B( 17-C , 18-C ) :   1.6403 B( 17-C , 33-H ) :   0.9675 B( 18-C , 19-C ) :   1.2286
B( 18-C , 21-H ) :   0.9790 B( 19-C , 20-C ) :   1.6154 B( 19-C , 22-C ) :   1.0556
B( 22-C , 23-H ) :   0.9435 B( 22-C , 24-H ) :   0.9271 B( 22-C , 25-C ) :   1.0425
B( 25-C , 26-H ) :   0.9533 B( 25-C , 27-H ) :   0.9601 B( 25-C , 28-C ) :   1.0810
B( 28-C , 29-H ) :   0.9742 B( 28-C , 30-H ) :   0.9756 B( 28-C , 31-H ) :   0.9685

Dispersion correction           -0.015009906
FINAL SINGLE POINT ENERGY     -1339.860619895336

DIPOLE MOMENT
-------------
                                X             Y             Z
Electronic contribution:     -8.82965      23.60696      17.96668
Nuclear contribution   :      8.95813     -24.34257     -18.19159
                        -----------------------------------------
Total Dipole Moment    :      0.12849      -0.73562      -0.22491
                        -----------------------------------------
Magnitude (a.u.)       :      0.77989
Magnitude (Debye)      :      1.98232

Rotational constants in cm-1:     0.018065     0.010141     0.006934
Rotational constants in MHz :   541.584552   304.024584   207.865651

                             ****ORCA TERMINATED NORMALLY****
TOTAL RUN TIME: 0 days 0 hours 0 minutes 22 seconds 515 msec
