                         Program Version 4.2.1 -  RELEASE  -
|  1> ! wB97X-D3 SP def2-SVP
|  2> %pal
|  3> nprocs 24
|  4> end
|  5>
|  6> * xyz 0 1
|  7> S 	 31.4385 	 -37.2962 	 -125.585
|  8> C 	 32.1124 	 -36.2576 	 -124.333
|  9> C 	 31.7881 	 -34.9156 	 -124.637
| 10> C 	 30.7915 	 -34.7973 	 -125.671
| 11> C 	 30.3993 	 -35.9974 	 -126.196
| 12> H 	 30.3798 	 -33.8581 	 -126.041
| 13> C 	 32.465 	 -33.7913 	 -124.015
| 14> H 	 33.1585 	 -34.143 	 -123.188
| 15> H 	 31.7325 	 -33.2246 	 -123.386
| 16> C 	 33.4303 	 -32.8541 	 -124.879
| 17> H 	 33.9672 	 -32.2071 	 -124.197
| 18> H 	 34.28 	 -33.4184 	 -125.281
| 19> C 	 32.7841 	 -32.0534 	 -126.076
| 20> H 	 33.357 	 -31.2436 	 -126.495
| 21> H 	 32.5503 	 -32.7776 	 -126.954
| 22> H 	 31.8277 	 -31.7473 	 -125.621
| 23> S 	 27.9644 	 -37.2429 	 -126.885
| 24> C 	 27.2611 	 -36.9065 	 -128.493
| 25> C 	 28.1725 	 -36.0509 	 -129.166
| 26> C 	 29.313 	 -35.544 	 -128.453
| 27> C 	 29.371 	 -36.1637 	 -127.209
| 28> H 	 27.9298 	 -35.8767 	 -130.192
| 29> C 	 30.2763 	 -34.6154 	 -129.199
| 30> H 	 30.3676 	 -33.7006 	 -128.612
| 31> H 	 29.7667 	 -34.419 	 -130.17
| 32> C 	 31.7062 	 -35.2063 	 -129.364
| 33> H 	 31.6093 	 -36.1243 	 -129.876
| 34> H 	 32.1949 	 -35.3629 	 -128.392
| 35> C 	 32.557 	 -34.1051 	 -130.063
| 36> H 	 32.8343 	 -33.4263 	 -129.334
| 37> H 	 32.1405 	 -33.6127 	 -130.979
| 38> H 	 33.5521 	 -34.4389 	 -130.433
| 39> H 	 32.83 	 -36.5953 	 -123.543
| 40> H 	 26.383 	 -37.3651 	 -128.972
| 41> *
| 42>
| 43>                          ****END OF INPUT****

CARTESIAN COORDINATES (ANGSTROEM)
---------------------------------
  S     31.438500  -37.296200  -125.585000
  C     32.112400  -36.257600  -124.333000
  C     31.788100  -34.915600  -124.637000
  C     30.791500  -34.797300  -125.671000
  C     30.399300  -35.997400  -126.196000
  H     30.379800  -33.858100  -126.041000
  C     32.465000  -33.791300  -124.015000
  H     33.158500  -34.143000  -123.188000
  H     31.732500  -33.224600  -123.386000
  C     33.430300  -32.854100  -124.879000
  H     33.967200  -32.207100  -124.197000
  H     34.280000  -33.418400  -125.281000
  C     32.784100  -32.053400  -126.076000
  H     33.357000  -31.243600  -126.495000
  H     32.550300  -32.777600  -126.954000
  H     31.827700  -31.747300  -125.621000
  S     27.964400  -37.242900  -126.885000
  C     27.261100  -36.906500  -128.493000
  C     28.172500  -36.050900  -129.166000
  C     29.313000  -35.544000  -128.453000
  C     29.371000  -36.163700  -127.209000
  H     27.929800  -35.876700  -130.192000
  C     30.276300  -34.615400  -129.199000
  H     30.367600  -33.700600  -128.612000
  H     29.766700  -34.419000  -130.170000
  C     31.706200  -35.206300  -129.364000
  H     31.609300  -36.124300  -129.876000
  H     32.194900  -35.362900  -128.392000
  C     32.557000  -34.105100  -130.063000
  H     32.834300  -33.426300  -129.334000
  H     32.140500  -33.612700  -130.979000
  H     33.552100  -34.438900  -130.433000
  H     32.830000  -36.595300  -123.543000
  H     26.383000  -37.365100  -128.972000

 Total Charge           Charge          ....    0
 Multiplicity           Mult            ....    1
 Number of Electrons    NEL             ....  134
 Basis Dimension        Dim             ....  322

ORBITAL ENERGIES
----------------

  NO   OCC          E(Eh)            E(eV)
   0   2.0000     -88.967504     -2420.9289
   1   2.0000     -88.966013     -2420.8883
   2   2.0000     -10.331273      -281.1282
   3   2.0000     -10.328910      -281.0639
   4   2.0000     -10.325722      -280.9772
   5   2.0000     -10.322086      -280.8782
   6   2.0000     -10.307306      -280.4761
   7   2.0000     -10.303427      -280.3705
   8   2.0000     -10.301261      -280.3116
   9   2.0000     -10.300559      -280.2925
  10   2.0000     -10.297440      -280.2076
  11   2.0000     -10.295389      -280.1518
  12   2.0000     -10.295284      -280.1489
  13   2.0000     -10.291797      -280.0540
  14   2.0000     -10.287865      -279.9470
  15   2.0000     -10.278133      -279.6822
  16   2.0000      -8.080519      -219.8821
  17   2.0000      -8.080096      -219.8706
  18   2.0000      -6.039228      -164.3358
  19   2.0000      -6.038660      -164.3203
  20   2.0000      -6.035168      -164.2253
  21   2.0000      -6.034796      -164.2151
  22   2.0000      -6.031251      -164.1187
  23   2.0000      -6.030720      -164.1042
  24   2.0000      -0.999972       -27.2106
  25   2.0000      -0.975153       -26.5353
  26   2.0000      -0.906116       -24.6567
  27   2.0000      -0.904424       -24.6106
  28   2.0000      -0.864775       -23.5317
  29   2.0000      -0.848410       -23.0864
  30   2.0000      -0.842569       -22.9275
  31   2.0000      -0.812385       -22.1061
  32   2.0000      -0.780084       -21.2272
  33   2.0000      -0.767407       -20.8822
  34   2.0000      -0.710892       -19.3444
  35   2.0000      -0.704087       -19.1592
  36   2.0000      -0.692517       -18.8443
  37   2.0000      -0.658886       -17.9292
  38   2.0000      -0.638440       -17.3728
  39   2.0000      -0.616408       -16.7733
  40   2.0000      -0.589965       -16.0538
  41   2.0000      -0.572668       -15.5831
  42   2.0000      -0.563583       -15.3359
  43   2.0000      -0.544642       -14.8205
  44   2.0000      -0.534867       -14.5545
  45   2.0000      -0.521056       -14.1786
  46   2.0000      -0.513247       -13.9662
  47   2.0000      -0.510835       -13.9005
  48   2.0000      -0.505376       -13.7520
  49   2.0000      -0.497419       -13.5354
  50   2.0000      -0.491744       -13.3810
  51   2.0000      -0.481335       -13.0978
  52   2.0000      -0.477156       -12.9841
  53   2.0000      -0.463190       -12.6041
  54   2.0000      -0.454993       -12.3810
  55   2.0000      -0.444148       -12.0859
  56   2.0000      -0.439085       -11.9481
  57   2.0000      -0.434923       -11.8348
  58   2.0000      -0.429774       -11.6948
  59   2.0000      -0.426388       -11.6026
  60   2.0000      -0.425635       -11.5821
  61   2.0000      -0.417866       -11.3707
  62   2.0000      -0.408657       -11.1201
  63   2.0000      -0.340408        -9.2630
  64   2.0000      -0.330326        -8.9886
  65   2.0000      -0.322299        -8.7702
  66   2.0000      -0.294654        -8.0179
  67   0.0000       0.023769         0.6468
  68   0.0000       0.063126         1.7177
  69   0.0000       0.104234         2.8363
  70   0.0000       0.115078         3.1314
  71   0.0000       0.124669         3.3924

MULLIKEN ATOMIC CHARGES
-----------------------
   0 S :    0.109217
   1 C :   -0.134795
   2 C :   -0.067625
   3 C :    0.032886
   4 C :   -0.160042
   5 H :    0.016313
   6 C :    0.002242
   7 H :    0.022431
   8 H :    0.042910
   9 C :   -0.059859
  10 H :    0.027066
  11 H :    0.025701
  12 C :   -0.092543
  13 H :    0.047491
  14 H :    0.050736
  15 H :    0.038828
  16 S :    0.110458
  17 C :   -0.110361
  18 C :   -0.057577
  19 C :    0.000609
  20 C :   -0.184024
  21 H :    0.010428
  22 C :    0.071008
  23 H :    0.026999
  24 H :    0.032482
  25 C :   -0.058977
  26 H :    0.030110
  27 H :    0.051035
  28 C :   -0.041197
  29 H :    0.009686
  30 H :    0.037037
  31 H :    0.025758
  32 H :    0.072697
  33 H :    0.072872
Sum of atomic charges:   -0.0000000

LOEWDIN ATOMIC CHARGES
----------------------
   0 S :    0.390164
   1 C :   -0.199394
   2 C :   -0.069720
   3 C :   -0.060494
   4 C :   -0.188399
   5 H :    0.033565
   6 C :   -0.047223
   7 H :    0.039363
   8 H :    0.035595
   9 C :   -0.037546
  10 H :    0.023610
  11 H :    0.023740
  12 C :   -0.076195
  13 H :    0.025783
  14 H :    0.032201
  15 H :    0.025300
  16 S :    0.379041
  17 C :   -0.187079
  18 C :   -0.071493
  19 C :   -0.052376
  20 C :   -0.187586
  21 H :    0.022616
  22 C :   -0.023824
  23 H :    0.030220
  24 H :    0.036445
  25 C :   -0.027267
  26 H :    0.018452
  27 H :    0.032055
  28 C :   -0.069520
  29 H :    0.012830
  30 H :    0.028809
  31 H :    0.028265
  32 H :    0.040292
  33 H :    0.039767

  Mayer bond orders larger than 0.100000
B(  0-S ,  1-C ) :   1.1324 B(  0-S ,  4-C ) :   1.1428 B(  1-C ,  2-C ) :   1.5917
B(  1-C , 32-H ) :   0.9631 B(  2-C ,  3-C ) :   1.2260 B(  2-C ,  6-C ) :   1.0521
B(  3-C ,  4-C ) :   1.5766 B(  3-C ,  5-H ) :   0.9963 B(  4-C , 20-C ) :   1.0551
B(  6-C ,  7-H ) :   0.9357 B(  6-C ,  8-H ) :   0.9352 B(  6-C ,  9-C ) :   1.0611
B(  9-C , 10-H ) :   0.9568 B(  9-C , 11-H ) :   0.9569 B(  9-C , 12-C ) :   1.0620
B( 12-C , 13-H ) :   0.9735 B( 12-C , 14-H ) :   0.9682 B( 12-C , 15-H ) :   0.9756
B( 16-S , 17-C ) :   1.1381 B( 16-S , 20-C ) :   1.1365 B( 17-C , 18-C ) :   1.6189
B( 17-C , 20-C ) :   0.1071 B( 17-C , 33-H ) :   0.9647 B( 18-C , 19-C ) :   1.2372
B( 18-C , 21-H ) :   0.9832 B( 19-C , 20-C ) :   1.5800 B( 19-C , 22-C ) :   1.0317
B( 22-C , 23-H ) :   0.9267 B( 22-C , 24-H ) :   0.9369 B( 22-C , 25-C ) :   1.0623
B( 25-C , 26-H ) :   0.9618 B( 25-C , 27-H ) :   0.9522 B( 25-C , 28-C ) :   1.0739
B( 28-C , 29-H ) :   0.9761 B( 28-C , 30-H ) :   0.9742 B( 28-C , 31-H ) :   0.9705

Dispersion correction           -0.016071575
FINAL SINGLE POINT ENERGY     -1339.861269229691

DIPOLE MOMENT
-------------
                                X             Y             Z
Electronic contribution:    -17.71204     -23.06488       8.20876
Nuclear contribution   :     18.13475      23.63886      -8.47126
                        -----------------------------------------
Total Dipole Moment    :      0.42272       0.57398      -0.26249
                        -----------------------------------------
Magnitude (a.u.)       :      0.75963
Magnitude (Debye)      :      1.93084

Rotational constants in cm-1:     0.017794     0.010228     0.007649
Rotational constants in MHz :   533.454297   306.616458   229.321119

                             ****ORCA TERMINATED NORMALLY****
TOTAL RUN TIME: 0 days 0 hours 0 minutes 22 seconds 798 msec
