                         Program Version 4.2.1 -  RELEASE  -
|  1> ! wB97X-D3 SP def2-SVP
|  2> %pal
|  3> nprocs 24
|  4> end
|  5>
|  6> * xyz 0 1
|  7> S 	 -101.912 	 0.698621 	 -106.478
|  8> C 	 -101.848 	 -0.128572 	 -108.02
|  9> C 	 -102.732 	 -1.15943 	 -108.033
| 10> C 	 -103.571 	 -1.24726 	 -106.887
| 11> C 	 -103.191 	 -0.302866 	 -105.958
| 12> H 	 -104.409 	 -1.91138 	 -106.715
| 13> C 	 -102.914 	 -2.15492 	 -109.247
| 14> H 	 -102.114 	 -2.06078 	 -109.997
| 15> H 	 -103.891 	 -1.92942 	 -109.789
| 16> C 	 -102.747 	 -3.64062 	 -108.846
| 17> H 	 -101.859 	 -3.64338 	 -108.226
| 18> H 	 -103.477 	 -3.94434 	 -108.079
| 19> C 	 -102.628 	 -4.60591 	 -110.055
| 20> H 	 -103.509 	 -4.50303 	 -110.7
| 21> H 	 -101.699 	 -4.4029 	 -110.687
| 22> H 	 -102.675 	 -5.64746 	 -109.663
| 23> S 	 -102.553 	 -0.0682476 	 -103.323
| 24> C 	 -103.801 	 -0.368432 	 -102.089
| 25> C 	 -105.034 	 -0.560636 	 -102.634
| 26> C 	 -104.99 	 -0.502642 	 -104.093
| 27> C 	 -103.742 	 -0.147453 	 -104.644
| 28> H 	 -105.865 	 -0.772426 	 -101.989
| 29> C 	 -106.245 	 -0.780717 	 -104.897
| 30> H 	 -106.045 	 -0.549191 	 -105.975
| 31> H 	 -106.979 	 -0.089276 	 -104.481
| 32> C 	 -106.7 	 -2.22172 	 -104.79
| 33> H 	 -106.955 	 -2.59791 	 -103.73
| 34> H 	 -105.934 	 -2.90103 	 -105.23
| 35> C 	 -107.961 	 -2.35824 	 -105.62
| 36> H 	 -108.744 	 -1.79743 	 -105.315
| 37> H 	 -108.33 	 -3.41596 	 -105.686
| 38> H 	 -107.964 	 -1.97677 	 -106.686
| 39> H 	 -101.21 	 0.124498 	 -108.838
| 40> H 	 -103.641 	 -0.109858 	 -101.072
| 41> *
| 42>
| 43>                          ****END OF INPUT****

CARTESIAN COORDINATES (ANGSTROEM)
---------------------------------
  S    -101.912000    0.698621  -106.478000
  C    -101.848000   -0.128572  -108.020000
  C    -102.732000   -1.159430  -108.033000
  C    -103.571000   -1.247260  -106.887000
  C    -103.191000   -0.302866  -105.958000
  H    -104.409000   -1.911380  -106.715000
  C    -102.914000   -2.154920  -109.247000
  H    -102.114000   -2.060780  -109.997000
  H    -103.891000   -1.929420  -109.789000
  C    -102.747000   -3.640620  -108.846000
  H    -101.859000   -3.643380  -108.226000
  H    -103.477000   -3.944340  -108.079000
  C    -102.628000   -4.605910  -110.055000
  H    -103.509000   -4.503030  -110.700000
  H    -101.699000   -4.402900  -110.687000
  H    -102.675000   -5.647460  -109.663000
  S    -102.553000   -0.068248  -103.323000
  C    -103.801000   -0.368432  -102.089000
  C    -105.034000   -0.560636  -102.634000
  C    -104.990000   -0.502642  -104.093000
  C    -103.742000   -0.147453  -104.644000
  H    -105.865000   -0.772426  -101.989000
  C    -106.245000   -0.780717  -104.897000
  H    -106.045000   -0.549191  -105.975000
  H    -106.979000   -0.089276  -104.481000
  C    -106.700000   -2.221720  -104.790000
  H    -106.955000   -2.597910  -103.730000
  H    -105.934000   -2.901030  -105.230000
  C    -107.961000   -2.358240  -105.620000
  H    -108.744000   -1.797430  -105.315000
  H    -108.330000   -3.415960  -105.686000
  H    -107.964000   -1.976770  -106.686000
  H    -101.210000    0.124498  -108.838000
  H    -103.641000   -0.109858  -101.072000

 Total Charge           Charge          ....    0
 Multiplicity           Mult            ....    1
 Number of Electrons    NEL             ....  134
 Basis Dimension        Dim             ....  322

ORBITAL ENERGIES
----------------

  NO   OCC          E(Eh)            E(eV)
   0   2.0000     -88.967647     -2420.9327
   1   2.0000     -88.959595     -2420.7136
   2   2.0000     -10.327537      -281.0266
   3   2.0000     -10.326522      -280.9990
   4   2.0000     -10.316325      -280.7215
   5   2.0000     -10.311036      -280.5776
   6   2.0000     -10.308322      -280.5037
   7   2.0000     -10.303174      -280.3636
   8   2.0000     -10.300984      -280.3040
   9   2.0000     -10.299199      -280.2554
  10   2.0000     -10.297279      -280.2032
  11   2.0000     -10.294915      -280.1389
  12   2.0000     -10.294103      -280.1168
  13   2.0000     -10.290782      -280.0264
  14   2.0000     -10.287602      -279.9399
  15   2.0000     -10.275542      -279.6117
  16   2.0000      -8.083328      -219.9585
  17   2.0000      -8.073924      -219.7026
  18   2.0000      -6.041788      -164.4054
  19   2.0000      -6.037735      -164.2951
  20   2.0000      -6.034038      -164.1945
  21   2.0000      -6.032678      -164.1575
  22   2.0000      -6.028467      -164.0429
  23   2.0000      -6.024463      -163.9340
  24   2.0000      -1.012797       -27.5596
  25   2.0000      -0.981078       -26.6965
  26   2.0000      -0.915072       -24.9004
  27   2.0000      -0.905099       -24.6290
  28   2.0000      -0.874569       -23.7982
  29   2.0000      -0.852312       -23.1926
  30   2.0000      -0.843052       -22.9406
  31   2.0000      -0.816420       -22.2159
  32   2.0000      -0.778755       -21.1910
  33   2.0000      -0.769383       -20.9360
  34   2.0000      -0.710731       -19.3400
  35   2.0000      -0.698793       -19.0151
  36   2.0000      -0.692627       -18.8473
  37   2.0000      -0.664652       -18.0861
  38   2.0000      -0.642528       -17.4841
  39   2.0000      -0.623754       -16.9732
  40   2.0000      -0.594276       -16.1711
  41   2.0000      -0.570629       -15.5276
  42   2.0000      -0.565655       -15.3922
  43   2.0000      -0.556344       -15.1389
  44   2.0000      -0.529889       -14.4190
  45   2.0000      -0.521901       -14.2016
  46   2.0000      -0.516500       -14.0547
  47   2.0000      -0.511950       -13.9309
  48   2.0000      -0.505854       -13.7650
  49   2.0000      -0.501831       -13.6555
  50   2.0000      -0.498081       -13.5535
  51   2.0000      -0.475002       -12.9255
  52   2.0000      -0.474437       -12.9101
  53   2.0000      -0.463383       -12.6093
  54   2.0000      -0.457234       -12.4420
  55   2.0000      -0.454638       -12.3713
  56   2.0000      -0.443526       -12.0690
  57   2.0000      -0.440164       -11.9775
  58   2.0000      -0.431711       -11.7475
  59   2.0000      -0.423249       -11.5172
  60   2.0000      -0.421380       -11.4663
  61   2.0000      -0.411477       -11.1969
  62   2.0000      -0.408918       -11.1272
  63   2.0000      -0.356571        -9.7028
  64   2.0000      -0.335719        -9.1354
  65   2.0000      -0.325601        -8.8601
  66   2.0000      -0.289998        -7.8913
  67   0.0000       0.025059         0.6819
  68   0.0000       0.077808         2.1173
  69   0.0000       0.109150         2.9701
  70   0.0000       0.119201         3.2436
  71   0.0000       0.125765         3.4222

MULLIKEN ATOMIC CHARGES
-----------------------
   0 S :    0.116574
   1 C :   -0.111041
   2 C :   -0.070553
   3 C :    0.021884
   4 C :   -0.140055
   5 H :    0.001138
   6 C :    0.038851
   7 H :    0.012686
   8 H :    0.050412
   9 C :   -0.101634
  10 H :    0.028909
  11 H :    0.027041
  12 C :   -0.061672
  13 H :    0.033388
  14 H :    0.052161
  15 H :    0.045789
  16 S :    0.063289
  17 C :   -0.075834
  18 C :   -0.014567
  19 C :   -0.077059
  20 C :   -0.080356
  21 H :    0.020349
  22 C :    0.021670
  23 H :    0.039065
  24 H :    0.037406
  25 C :   -0.092161
  26 H :    0.049854
  27 H :    0.044610
  28 C :   -0.029254
  29 H :   -0.003214
  30 H :    0.037565
  31 H :    0.021310
  32 H :    0.038249
  33 H :    0.055198
Sum of atomic charges:   -0.0000000

LOEWDIN ATOMIC CHARGES
----------------------
   0 S :    0.425396
   1 C :   -0.195097
   2 C :   -0.059650
   3 C :   -0.064747
   4 C :   -0.201437
   5 H :    0.031468
   6 C :   -0.034384
   7 H :    0.025408
   8 H :    0.034149
   9 C :   -0.052531
  10 H :    0.025492
  11 H :    0.021042
  12 C :   -0.071810
  13 H :    0.025018
  14 H :    0.034974
  15 H :    0.033810
  16 S :    0.368775
  17 C :   -0.164433
  18 C :   -0.066717
  19 C :   -0.051807
  20 C :   -0.192877
  21 H :    0.032616
  22 C :   -0.037946
  23 H :    0.035726
  24 H :    0.034449
  25 C :   -0.044458
  26 H :    0.036179
  27 H :    0.027648
  28 C :   -0.073696
  29 H :    0.007457
  30 H :    0.030290
  31 H :    0.031159
  32 H :    0.026816
  33 H :    0.023721

  Mayer bond orders larger than 0.100000
B(  0-S ,  1-C ) :   1.1174 B(  0-S ,  4-C ) :   1.1691 B(  1-C ,  2-C ) :   1.6382
B(  1-C , 32-H ) :   0.9739 B(  2-C ,  3-C ) :   1.2306 B(  2-C ,  6-C ) :   1.0131
B(  3-C ,  4-C ) :   1.5597 B(  3-C ,  5-H ) :   0.9923 B(  4-C , 20-C ) :   1.0350
B(  6-C ,  7-H ) :   0.9503 B(  6-C ,  8-H ) :   0.9439 B(  6-C ,  9-C ) :   1.0439
B(  9-C , 10-H ) :   0.9548 B(  9-C , 11-H ) :   0.9560 B(  9-C , 12-C ) :   1.0792
B( 12-C , 13-H ) :   0.9753 B( 12-C , 14-H ) :   0.9725 B( 12-C , 15-H ) :   0.9740
B( 16-S , 17-C ) :   1.1452 B( 16-S , 20-C ) :   1.1093 B( 17-C , 18-C ) :   1.6377
B( 17-C , 33-H ) :   0.9628 B( 18-C , 19-C ) :   1.2069 B( 18-C , 21-H ) :   0.9933
B( 19-C , 20-C ) :   1.6173 B( 19-C , 22-C ) :   1.0391 B( 22-C , 23-H ) :   0.9417
B( 22-C , 24-H ) :   0.9349 B( 22-C , 25-C ) :   1.0648 B( 25-C , 26-H ) :   0.9488
B( 25-C , 27-H ) :   0.9502 B( 25-C , 28-C ) :   1.0809 B( 28-C , 29-H ) :   0.9687
B( 28-C , 30-H ) :   0.9730 B( 28-C , 31-H ) :   0.9667

Dispersion correction           -0.014014557
FINAL SINGLE POINT ENERGY     -1339.875044530100

DIPOLE MOMENT
-------------
                                X             Y             Z
Electronic contribution:     17.02369      21.33933      16.07999
Nuclear contribution   :    -17.59722     -21.75738     -16.27105
                        -----------------------------------------
Total Dipole Moment    :     -0.57353      -0.41804      -0.19106
                        -----------------------------------------
Magnitude (a.u.)       :      0.73499
Magnitude (Debye)      :      1.86819

Rotational constants in cm-1:     0.016375     0.009355     0.006728
Rotational constants in MHz :   490.907971   280.458952   201.696553

                             ****ORCA TERMINATED NORMALLY****
TOTAL RUN TIME: 0 days 0 hours 0 minutes 21 seconds 777 msec
