                         Program Version 4.2.1 -  RELEASE  -
|  1> ! wB97X-D3 SP def2-SVP
|  2> %pal
|  3> nprocs 24
|  4> end
|  5>
|  6> * xyz 0 1
|  7> S 	 41.7251 	 -10.7363 	 -126.735
|  8> C 	 41.5627 	 -10.2677 	 -125.103
|  9> C 	 41.072 	 -11.2634 	 -124.224
| 10> C 	 40.9692 	 -12.5003 	 -124.92
| 11> C 	 41.3606 	 -12.4002 	 -126.226
| 12> H 	 40.7169 	 -13.4866 	 -124.547
| 13> C 	 40.9596 	 -11.2485 	 -122.705
| 14> H 	 39.9915 	 -11.7339 	 -122.396
| 15> H 	 40.7157 	 -10.2654 	 -122.392
| 16> C 	 42.0817 	 -11.7932 	 -121.786
| 17> H 	 43.0026 	 -11.1924 	 -121.974
| 18> H 	 41.745 	 -11.5488 	 -120.78
| 19> C 	 42.4912 	 -13.2481 	 -121.964
| 20> H 	 41.5992 	 -13.9135 	 -121.917
| 21> H 	 42.9873 	 -13.4077 	 -122.957
| 22> H 	 43.2362 	 -13.6986 	 -121.216
| 23> S 	 40.4034 	 -13.4255 	 -128.616
| 24> C 	 41.1948 	 -14.8038 	 -129.301
| 25> C 	 42.1882 	 -15.3317 	 -128.486
| 26> C 	 42.3285 	 -14.5295 	 -127.251
| 27> C 	 41.519 	 -13.4194 	 -127.267
| 28> H 	 42.827 	 -16.1856 	 -128.743
| 29> C 	 43.0927 	 -15.0039 	 -126.069
| 30> H 	 42.9179 	 -14.3182 	 -125.376
| 31> H 	 44.1521 	 -14.9778 	 -126.242
| 32> C 	 42.6987 	 -16.318 	 -125.382
| 33> H 	 42.6185 	 -17.1477 	 -126.14
| 34> H 	 41.7332 	 -16.0254 	 -124.998
| 35> C 	 43.4793 	 -16.7876 	 -124.154
| 36> H 	 42.9185 	 -17.6851 	 -123.761
| 37> H 	 43.4227 	 -16.0303 	 -123.356
| 38> H 	 44.5061 	 -17.1301 	 -124.388
| 39> H 	 41.7639 	 -9.18199 	 -124.856
| 40> H 	 41.0727 	 -15.1738 	 -130.285
| 41> *
| 42>
| 43>                          ****END OF INPUT****

CARTESIAN COORDINATES (ANGSTROEM)
---------------------------------
  S     41.725100  -10.736300  -126.735000
  C     41.562700  -10.267700  -125.103000
  C     41.072000  -11.263400  -124.224000
  C     40.969200  -12.500300  -124.920000
  C     41.360600  -12.400200  -126.226000
  H     40.716900  -13.486600  -124.547000
  C     40.959600  -11.248500  -122.705000
  H     39.991500  -11.733900  -122.396000
  H     40.715700  -10.265400  -122.392000
  C     42.081700  -11.793200  -121.786000
  H     43.002600  -11.192400  -121.974000
  H     41.745000  -11.548800  -120.780000
  C     42.491200  -13.248100  -121.964000
  H     41.599200  -13.913500  -121.917000
  H     42.987300  -13.407700  -122.957000
  H     43.236200  -13.698600  -121.216000
  S     40.403400  -13.425500  -128.616000
  C     41.194800  -14.803800  -129.301000
  C     42.188200  -15.331700  -128.486000
  C     42.328500  -14.529500  -127.251000
  C     41.519000  -13.419400  -127.267000
  H     42.827000  -16.185600  -128.743000
  C     43.092700  -15.003900  -126.069000
  H     42.917900  -14.318200  -125.376000
  H     44.152100  -14.977800  -126.242000
  C     42.698700  -16.318000  -125.382000
  H     42.618500  -17.147700  -126.140000
  H     41.733200  -16.025400  -124.998000
  C     43.479300  -16.787600  -124.154000
  H     42.918500  -17.685100  -123.761000
  H     43.422700  -16.030300  -123.356000
  H     44.506100  -17.130100  -124.388000
  H     41.763900   -9.181990  -124.856000
  H     41.072700  -15.173800  -130.285000

 Total Charge           Charge          ....    0
 Multiplicity           Mult            ....    1
 Number of Electrons    NEL             ....  134
 Basis Dimension        Dim             ....  322

ORBITAL ENERGIES
----------------

  NO   OCC          E(Eh)            E(eV)
   0   2.0000     -88.968031     -2420.9432
   1   2.0000     -88.964368     -2420.8435
   2   2.0000     -10.326199      -280.9902
   3   2.0000     -10.322039      -280.8769
   4   2.0000     -10.321317      -280.8573
   5   2.0000     -10.313396      -280.6418
   6   2.0000     -10.307401      -280.4786
   7   2.0000     -10.300930      -280.3026
   8   2.0000     -10.296965      -280.1947
   9   2.0000     -10.296453      -280.1807
  10   2.0000     -10.296164      -280.1729
  11   2.0000     -10.294993      -280.1410
  12   2.0000     -10.291722      -280.0520
  13   2.0000     -10.288167      -279.9553
  14   2.0000     -10.287728      -279.9433
  15   2.0000     -10.271996      -279.5152
  16   2.0000      -8.083455      -219.9620
  17   2.0000      -8.079497      -219.8543
  18   2.0000      -6.041651      -164.4017
  19   2.0000      -6.038065      -164.3041
  20   2.0000      -6.038001      -164.3024
  21   2.0000      -6.034364      -164.2034
  22   2.0000      -6.034028      -164.1942
  23   2.0000      -6.030101      -164.0874
  24   2.0000      -1.007355       -27.4115
  25   2.0000      -0.983447       -26.7609
  26   2.0000      -0.913638       -24.8614
  27   2.0000      -0.908747       -24.7283
  28   2.0000      -0.866586       -23.5810
  29   2.0000      -0.854667       -23.2567
  30   2.0000      -0.848277       -23.0828
  31   2.0000      -0.814387       -22.1606
  32   2.0000      -0.787378       -21.4257
  33   2.0000      -0.770899       -20.9772
  34   2.0000      -0.701314       -19.0837
  35   2.0000      -0.695129       -18.9154
  36   2.0000      -0.690871       -18.7995
  37   2.0000      -0.658994       -17.9321
  38   2.0000      -0.646179       -17.5834
  39   2.0000      -0.618270       -16.8240
  40   2.0000      -0.596504       -16.2317
  41   2.0000      -0.573405       -15.6031
  42   2.0000      -0.568645       -15.4736
  43   2.0000      -0.541591       -14.7375
  44   2.0000      -0.540153       -14.6983
  45   2.0000      -0.520405       -14.1610
  46   2.0000      -0.518581       -14.1113
  47   2.0000      -0.511051       -13.9064
  48   2.0000      -0.507832       -13.8188
  49   2.0000      -0.493722       -13.4348
  50   2.0000      -0.487364       -13.2618
  51   2.0000      -0.486281       -13.2324
  52   2.0000      -0.468911       -12.7597
  53   2.0000      -0.462106       -12.5745
  54   2.0000      -0.456712       -12.4278
  55   2.0000      -0.454994       -12.3810
  56   2.0000      -0.445243       -12.1157
  57   2.0000      -0.441193       -12.0055
  58   2.0000      -0.430362       -11.7108
  59   2.0000      -0.427803       -11.6411
  60   2.0000      -0.421103       -11.4588
  61   2.0000      -0.414453       -11.2778
  62   2.0000      -0.412163       -11.2155
  63   2.0000      -0.344736        -9.3807
  64   2.0000      -0.329547        -8.9674
  65   2.0000      -0.325090        -8.8462
  66   2.0000      -0.297963        -8.1080
  67   0.0000       0.039184         1.0663
  68   0.0000       0.061714         1.6793
  69   0.0000       0.111124         3.0238
  70   0.0000       0.114627         3.1192
  71   0.0000       0.120769         3.2863

MULLIKEN ATOMIC CHARGES
-----------------------
   0 S :    0.126627
   1 C :   -0.143279
   2 C :   -0.070271
   3 C :    0.049913
   4 C :   -0.196633
   5 H :    0.012768
   6 C :    0.053104
   7 H :    0.026614
   8 H :    0.005594
   9 C :   -0.029414
  10 H :    0.032831
  11 H :    0.032418
  12 C :   -0.122932
  13 H :    0.031159
  14 H :    0.061022
  15 H :    0.051366
  16 S :    0.117223
  17 C :   -0.074100
  18 C :   -0.039799
  19 C :   -0.064494
  20 C :   -0.161426
  21 H :    0.029529
  22 C :    0.195220
  23 H :   -0.065143
  24 H :    0.014431
  25 C :   -0.099121
  26 H :    0.036296
  27 H :    0.015728
  28 C :   -0.057200
  29 H :    0.042445
  30 H :    0.033137
  31 H :    0.041813
  32 H :    0.069448
  33 H :    0.045124
Sum of atomic charges:   -0.0000000

LOEWDIN ATOMIC CHARGES
----------------------
   0 S :    0.419791
   1 C :   -0.209756
   2 C :   -0.070340
   3 C :   -0.052625
   4 C :   -0.185755
   5 H :    0.034350
   6 C :   -0.038094
   7 H :    0.036626
   8 H :    0.025457
   9 C :   -0.039008
  10 H :    0.029516
  11 H :    0.026813
  12 C :   -0.085495
  13 H :    0.022090
  14 H :    0.029660
  15 H :    0.036953
  16 S :    0.407744
  17 C :   -0.186623
  18 C :   -0.067652
  19 C :   -0.046691
  20 C :   -0.210965
  21 H :    0.034303
  22 C :   -0.031012
  23 H :    0.006023
  24 H :    0.027349
  25 C :   -0.037702
  26 H :    0.024358
  27 H :    0.021407
  28 C :   -0.067111
  29 H :    0.036932
  30 H :    0.025937
  31 H :    0.025997
  32 H :    0.034868
  33 H :    0.022654

  Mayer bond orders larger than 0.100000
B(  0-S ,  1-C ) :   1.1728 B(  0-S ,  4-C ) :   1.1522 B(  1-C ,  2-C ) :   1.5941
B(  1-C ,  4-C ) :   0.1026 B(  1-C , 32-H ) :   0.9607 B(  2-C ,  3-C ) :   1.2192
B(  2-C ,  6-C ) :   1.0331 B(  3-C ,  4-C ) :   1.6044 B(  3-C ,  5-H ) :   0.9953
B(  4-C , 20-C ) :   0.9943 B(  6-C ,  7-H ) :   0.9358 B(  6-C ,  8-H ) :   0.9320
B(  6-C ,  9-C ) :   1.0704 B(  9-C , 10-H ) :   0.9527 B(  9-C , 11-H ) :   0.9509
B(  9-C , 12-C ) :   1.0797 B( 12-C , 13-H ) :   0.9729 B( 12-C , 14-H ) :   0.9665
B( 12-C , 15-H ) :   0.9697 B( 16-S , 17-C ) :   1.1449 B( 16-S , 20-C ) :   1.1364
B( 17-C , 18-C ) :   1.6334 B( 17-C , 33-H ) :   0.9687 B( 18-C , 19-C ) :   1.2002
B( 18-C , 21-H ) :   0.9863 B( 19-C , 20-C ) :   1.6355 B( 19-C , 22-C ) :   1.0707
B( 22-C , 23-H ) :   0.9060 B( 22-C , 24-H ) :   0.9082 B( 22-C , 25-C ) :   1.0506
B( 25-C , 26-H ) :   0.9566 B( 25-C , 27-H ) :   0.9545 B( 25-C , 28-C ) :   1.0926
B( 28-C , 29-H ) :   0.9713 B( 28-C , 30-H ) :   0.9719 B( 28-C , 31-H ) :   0.9731

Dispersion correction           -0.015903523
FINAL SINGLE POINT ENERGY     -1339.870264035876

DIPOLE MOMENT
-------------
                                X             Y             Z
Electronic contribution:     -9.82280      14.80583     -26.93064
Nuclear contribution   :     10.05419     -15.05957      27.49336
                        -----------------------------------------
Total Dipole Moment    :      0.23139      -0.25374       0.56272
                        -----------------------------------------
Magnitude (a.u.)       :      0.65923
Magnitude (Debye)      :      1.67562

Rotational constants in cm-1:     0.016506     0.011067     0.007144
Rotational constants in MHz :   494.844779   331.788274   214.185001

                             ****ORCA TERMINATED NORMALLY****
TOTAL RUN TIME: 0 days 0 hours 0 minutes 22 seconds 718 msec
