                         Program Version 4.2.1 -  RELEASE  -
|  1> ! wB97X-D3 SP def2-SVP
|  2> %pal
|  3> nprocs 24
|  4> end
|  5>
|  6> * xyz 0 1
|  7> S 	 -57.5979 	 4.80671 	 -34.2443
|  8> C 	 -57.8119 	 3.13125 	 -33.7843
|  9> C 	 -56.5741 	 2.57165 	 -33.7422
| 10> C 	 -55.4936 	 3.38957 	 -33.9396
| 11> C 	 -55.8455 	 4.69986 	 -34.1582
| 12> H 	 -54.4633 	 3.09804 	 -34.0527
| 13> C 	 -56.3084 	 1.14058 	 -33.3387
| 14> H 	 -55.9051 	 0.539778 	 -34.1375
| 15> H 	 -57.1433 	 0.587605 	 -33.2123
| 16> C 	 -55.3877 	 0.977059 	 -32.1194
| 17> H 	 -54.4097 	 1.25016 	 -32.3015
| 18> H 	 -55.7212 	 1.70602 	 -31.3309
| 19> C 	 -55.4799 	 -0.456039 	 -31.5148
| 20> H 	 -54.7775 	 -0.574505 	 -30.6608
| 21> H 	 -56.4185 	 -0.697891 	 -31.0974
| 22> H 	 -55.3521 	 -1.29921 	 -32.1618
| 23> S 	 -55.0752 	 6.41697 	 -36.1015
| 24> C 	 -53.7773 	 7.60262 	 -35.7991
| 25> C 	 -53.2433 	 7.50975 	 -34.5354
| 26> C 	 -53.9066 	 6.43466 	 -33.8532
| 27> C 	 -54.9808 	 5.83523 	 -34.5084
| 28> H 	 -52.497 	 8.1786 	 -34.2535
| 29> C 	 -53.5143 	 6.09758 	 -32.4143
| 30> H 	 -53.0726 	 5.08068 	 -32.4057
| 31> H 	 -54.3807 	 5.92057 	 -31.7865
| 32> C 	 -52.6463 	 7.0027 	 -31.5382
| 33> H 	 -53.1831 	 7.99031 	 -31.4284
| 34> H 	 -51.7474 	 7.31353 	 -32.0411
| 35> C 	 -52.4566 	 6.41585 	 -30.1348
| 36> H 	 -51.5764 	 6.89219 	 -29.6774
| 37> H 	 -52.2252 	 5.35769 	 -30.3269
| 38> H 	 -53.3588 	 6.47698 	 -29.488
| 39> H 	 -58.8099 	 2.58791 	 -33.6542
| 40> H 	 -53.4428 	 8.29012 	 -36.4801
| 41> *
| 42>
| 43>                          ****END OF INPUT****

CARTESIAN COORDINATES (ANGSTROEM)
---------------------------------
  S    -57.597900    4.806710  -34.244300
  C    -57.811900    3.131250  -33.784300
  C    -56.574100    2.571650  -33.742200
  C    -55.493600    3.389570  -33.939600
  C    -55.845500    4.699860  -34.158200
  H    -54.463300    3.098040  -34.052700
  C    -56.308400    1.140580  -33.338700
  H    -55.905100    0.539778  -34.137500
  H    -57.143300    0.587605  -33.212300
  C    -55.387700    0.977059  -32.119400
  H    -54.409700    1.250160  -32.301500
  H    -55.721200    1.706020  -31.330900
  C    -55.479900   -0.456039  -31.514800
  H    -54.777500   -0.574505  -30.660800
  H    -56.418500   -0.697891  -31.097400
  H    -55.352100   -1.299210  -32.161800
  S    -55.075200    6.416970  -36.101500
  C    -53.777300    7.602620  -35.799100
  C    -53.243300    7.509750  -34.535400
  C    -53.906600    6.434660  -33.853200
  C    -54.980800    5.835230  -34.508400
  H    -52.497000    8.178600  -34.253500
  C    -53.514300    6.097580  -32.414300
  H    -53.072600    5.080680  -32.405700
  H    -54.380700    5.920570  -31.786500
  C    -52.646300    7.002700  -31.538200
  H    -53.183100    7.990310  -31.428400
  H    -51.747400    7.313530  -32.041100
  C    -52.456600    6.415850  -30.134800
  H    -51.576400    6.892190  -29.677400
  H    -52.225200    5.357690  -30.326900
  H    -53.358800    6.476980  -29.488000
  H    -58.809900    2.587910  -33.654200
  H    -53.442800    8.290120  -36.480100

 Total Charge           Charge          ....    0
 Multiplicity           Mult            ....    1
 Number of Electrons    NEL             ....  134
 Basis Dimension        Dim             ....  322

ORBITAL ENERGIES
----------------

  NO   OCC          E(Eh)            E(eV)
   0   2.0000     -88.965415     -2420.8720
   1   2.0000     -88.964924     -2420.8587
   2   2.0000     -10.330897      -281.1180
   3   2.0000     -10.323515      -280.9171
   4   2.0000     -10.318868      -280.7907
   5   2.0000     -10.312944      -280.6295
   6   2.0000     -10.306926      -280.4657
   7   2.0000     -10.293205      -280.0924
   8   2.0000     -10.292287      -280.0674
   9   2.0000     -10.287219      -279.9295
  10   2.0000     -10.287031      -279.9243
  11   2.0000     -10.286158      -279.9006
  12   2.0000     -10.285714      -279.8885
  13   2.0000     -10.284047      -279.8431
  14   2.0000     -10.277479      -279.6644
  15   2.0000     -10.275754      -279.6175
  16   2.0000      -8.080566      -219.8834
  17   2.0000      -8.079605      -219.8572
  18   2.0000      -6.039021      -164.3301
  19   2.0000      -6.038044      -164.3035
  20   2.0000      -6.034969      -164.2199
  21   2.0000      -6.034075      -164.1955
  22   2.0000      -6.031384      -164.1223
  23   2.0000      -6.030462      -164.0972
  24   2.0000      -1.012740       -27.5581
  25   2.0000      -0.990675       -26.9576
  26   2.0000      -0.912205       -24.8224
  27   2.0000      -0.906762       -24.6742
  28   2.0000      -0.874292       -23.7907
  29   2.0000      -0.850125       -23.1331
  30   2.0000      -0.846592       -23.0369
  31   2.0000      -0.821988       -22.3674
  32   2.0000      -0.782571       -21.2948
  33   2.0000      -0.767234       -20.8775
  34   2.0000      -0.717709       -19.5299
  35   2.0000      -0.701666       -19.0933
  36   2.0000      -0.698896       -19.0179
  37   2.0000      -0.659542       -17.9471
  38   2.0000      -0.646353       -17.5882
  39   2.0000      -0.629274       -17.1234
  40   2.0000      -0.601874       -16.3778
  41   2.0000      -0.576726       -15.6935
  42   2.0000      -0.562333       -15.3019
  43   2.0000      -0.557816       -15.1789
  44   2.0000      -0.527655       -14.3582
  45   2.0000      -0.526793       -14.3348
  46   2.0000      -0.517817       -14.0905
  47   2.0000      -0.511235       -13.9114
  48   2.0000      -0.506123       -13.7723
  49   2.0000      -0.497458       -13.5365
  50   2.0000      -0.486757       -13.2453
  51   2.0000      -0.482808       -13.1379
  52   2.0000      -0.475523       -12.9396
  53   2.0000      -0.469077       -12.7642
  54   2.0000      -0.455260       -12.3883
  55   2.0000      -0.454456       -12.3664
  56   2.0000      -0.448143       -12.1946
  57   2.0000      -0.441026       -12.0009
  58   2.0000      -0.428267       -11.6537
  59   2.0000      -0.423717       -11.5299
  60   2.0000      -0.421257       -11.4630
  61   2.0000      -0.412261       -11.2182
  62   2.0000      -0.408946       -11.1280
  63   2.0000      -0.349039        -9.4978
  64   2.0000      -0.332343        -9.0435
  65   2.0000      -0.326029        -8.8717
  66   2.0000      -0.297929        -8.1070
  67   0.0000       0.034283         0.9329
  68   0.0000       0.065709         1.7880
  69   0.0000       0.118878         3.2348
  70   0.0000       0.126759         3.4493
  71   0.0000       0.135572         3.6891

MULLIKEN ATOMIC CHARGES
-----------------------
   0 S :    0.103452
   1 C :   -0.151047
   2 C :   -0.064210
   3 C :    0.042187
   4 C :   -0.166489
   5 H :    0.017400
   6 C :    0.135416
   7 H :    0.015588
   8 H :   -0.036983
   9 C :   -0.068228
  10 H :    0.015678
  11 H :    0.037968
  12 C :   -0.044035
  13 H :    0.033669
  14 H :    0.013831
  15 H :    0.020765
  16 S :    0.112809
  17 C :   -0.054739
  18 C :   -0.019771
  19 C :   -0.014719
  20 C :   -0.138371
  21 H :    0.004400
  22 C :    0.020717
  23 H :    0.020818
  24 H :    0.025755
  25 C :   -0.086121
  26 H :    0.029326
  27 H :    0.023132
  28 C :   -0.046618
  29 H :    0.040626
  30 H :    0.027168
  31 H :    0.052109
  32 H :    0.080649
  33 H :    0.017866
Sum of atomic charges:   -0.0000000

LOEWDIN ATOMIC CHARGES
----------------------
   0 S :    0.404768
   1 C :   -0.206437
   2 C :   -0.072484
   3 C :   -0.059348
   4 C :   -0.186651
   5 H :    0.035699
   6 C :   -0.026884
   7 H :    0.032383
   8 H :    0.010585
   9 C :   -0.029802
  10 H :    0.009450
  11 H :    0.032948
  12 C :   -0.067487
  13 H :    0.031246
  14 H :    0.018844
  15 H :    0.020746
  16 S :    0.421024
  17 C :   -0.154776
  18 C :   -0.059752
  19 C :   -0.051331
  20 C :   -0.224460
  21 H :    0.027373
  22 C :   -0.046145
  23 H :    0.029512
  24 H :    0.031902
  25 C :   -0.049227
  26 H :    0.027355
  27 H :    0.014714
  28 C :   -0.063664
  29 H :    0.031499
  30 H :    0.025321
  31 H :    0.032611
  32 H :    0.051519
  33 H :    0.008951

  Mayer bond orders larger than 0.100000
B(  0-S ,  1-C ) :   1.1347 B(  0-S ,  4-C ) :   1.1690 B(  1-C ,  2-C ) :   1.5956
B(  1-C ,  4-C ) :   0.1060 B(  1-C , 32-H ) :   0.9605 B(  2-C ,  3-C ) :   1.2572
B(  2-C ,  6-C ) :   1.0319 B(  3-C ,  4-C ) :   1.5541 B(  3-C ,  5-H ) :   1.0028
B(  4-C , 20-C ) :   1.0056 B(  6-C ,  7-H ) :   0.9220 B(  6-C ,  8-H ) :   0.9337
B(  6-C ,  9-C ) :   1.0559 B(  9-C , 10-H ) :   0.9553 B(  9-C , 11-H ) :   0.9581
B(  9-C , 12-C ) :   1.0782 B( 12-C , 13-H ) :   0.9751 B( 12-C , 14-H ) :   0.9737
B( 12-C , 15-H ) :   0.9760 B( 16-S , 17-C ) :   1.1631 B( 16-S , 20-C ) :   1.1521
B( 17-C , 18-C ) :   1.6069 B( 17-C , 33-H ) :   0.9721 B( 18-C , 19-C ) :   1.2307
B( 18-C , 21-H ) :   1.0050 B( 19-C , 20-C ) :   1.6048 B( 19-C , 22-C ) :   1.0280
B( 22-C , 23-H ) :   0.9220 B( 22-C , 24-H ) :   0.9419 B( 22-C , 25-C ) :   1.0777
B( 25-C , 26-H ) :   0.9511 B( 25-C , 27-H ) :   0.9493 B( 25-C , 28-C ) :   1.0747
B( 28-C , 29-H ) :   0.9719 B( 28-C , 30-H ) :   0.9760 B( 28-C , 31-H ) :   0.9741

Dispersion correction           -0.013558915
FINAL SINGLE POINT ENERGY     -1339.859764051909

DIPOLE MOMENT
-------------
                                X             Y             Z
Electronic contribution:    -13.38095      14.72626     -23.64368
Nuclear contribution   :     13.78272     -15.04025      23.97174
                        -----------------------------------------
Total Dipole Moment    :      0.40177      -0.31399       0.32806
                        -----------------------------------------
Magnitude (a.u.)       :      0.60633
Magnitude (Debye)      :      1.54116

Rotational constants in cm-1:     0.016190     0.008875     0.006443
Rotational constants in MHz :   485.356340   266.074360   193.167101

                             ****ORCA TERMINATED NORMALLY****
TOTAL RUN TIME: 0 days 0 hours 0 minutes 21 seconds 106 msec
