                         Program Version 4.2.1 -  RELEASE  -
|  1> ! wB97X-D3 SP def2-SVP
|  2> %pal
|  3> nprocs 24
|  4> end
|  5>
|  6> * xyz 0 1
|  7> S 	 -49.3537 	 13.7138 	 20.596
|  8> C 	 -50.8974 	 14.2233 	 21.1647
|  9> C 	 -50.8813 	 15.5604 	 21.5953
| 10> C 	 -49.5357 	 16.1917 	 21.3896
| 11> C 	 -48.6554 	 15.3395 	 20.754
| 12> H 	 -49.2382 	 17.1087 	 21.7831
| 13> C 	 -52.0601 	 16.2774 	 22.2789
| 14> H 	 -52.9388 	 15.5451 	 22.2417
| 15> H 	 -52.3618 	 17.0811 	 21.6581
| 16> C 	 -51.7796 	 16.7351 	 23.7311
| 17> H 	 -51.3173 	 15.9105 	 24.311
| 18> H 	 -50.9963 	 17.5103 	 23.5839
| 19> C 	 -53.04 	 17.1543 	 24.4365
| 20> H 	 -53.6556 	 16.2306 	 24.5118
| 21> H 	 -52.9098 	 17.5743 	 25.4
| 22> H 	 -53.5528 	 17.8563 	 23.7968
| 23> S 	 -46.2057 	 14.1638 	 20.5542
| 24> C 	 -44.7618 	 15.1195 	 20.2366
| 25> C 	 -45.0703 	 16.4785 	 20.238
| 26> C 	 -46.4462 	 16.7551 	 20.4304
| 27> C 	 -47.2199 	 15.6017 	 20.5901
| 28> H 	 -44.2185 	 17.17 	 20.1915
| 29> C 	 -46.8324 	 18.1509 	 20.5455
| 30> H 	 -47.8264 	 18.3121 	 20.1674
| 31> H 	 -46.2387 	 18.7844 	 19.8721
| 32> C 	 -47.0412 	 18.6891 	 21.9666
| 33> H 	 -47.0851 	 17.9688 	 22.7187
| 34> H 	 -47.9623 	 19.3145 	 22.0071
| 35> C 	 -45.9368 	 19.6247 	 22.5531
| 36> H 	 -46.326 	 19.9979 	 23.5003
| 37> H 	 -45.8082 	 20.4483 	 21.8955
| 38> H 	 -44.9807 	 19.1646 	 22.6871
| 39> H 	 -51.9037 	 13.7257 	 21.1566
| 40> H 	 -43.8162 	 14.7052 	 20.1126
| 41> *
| 42>
| 43>                          ****END OF INPUT****

CARTESIAN COORDINATES (ANGSTROEM)
---------------------------------
  S    -49.353700   13.713800   20.596000
  C    -50.897400   14.223300   21.164700
  C    -50.881300   15.560400   21.595300
  C    -49.535700   16.191700   21.389600
  C    -48.655400   15.339500   20.754000
  H    -49.238200   17.108700   21.783100
  C    -52.060100   16.277400   22.278900
  H    -52.938800   15.545100   22.241700
  H    -52.361800   17.081100   21.658100
  C    -51.779600   16.735100   23.731100
  H    -51.317300   15.910500   24.311000
  H    -50.996300   17.510300   23.583900
  C    -53.040000   17.154300   24.436500
  H    -53.655600   16.230600   24.511800
  H    -52.909800   17.574300   25.400000
  H    -53.552800   17.856300   23.796800
  S    -46.205700   14.163800   20.554200
  C    -44.761800   15.119500   20.236600
  C    -45.070300   16.478500   20.238000
  C    -46.446200   16.755100   20.430400
  C    -47.219900   15.601700   20.590100
  H    -44.218500   17.170000   20.191500
  C    -46.832400   18.150900   20.545500
  H    -47.826400   18.312100   20.167400
  H    -46.238700   18.784400   19.872100
  C    -47.041200   18.689100   21.966600
  H    -47.085100   17.968800   22.718700
  H    -47.962300   19.314500   22.007100
  C    -45.936800   19.624700   22.553100
  H    -46.326000   19.997900   23.500300
  H    -45.808200   20.448300   21.895500
  H    -44.980700   19.164600   22.687100
  H    -51.903700   13.725700   21.156600
  H    -43.816200   14.705200   20.112600

 Total Charge           Charge          ....    0
 Multiplicity           Mult            ....    1
 Number of Electrons    NEL             ....  134
 Basis Dimension        Dim             ....  322

ORBITAL ENERGIES
----------------

  NO   OCC          E(Eh)            E(eV)
   0   2.0000     -88.969298     -2420.9777
   1   2.0000     -88.965375     -2420.8709
   2   2.0000     -10.335138      -281.2334
   3   2.0000     -10.331775      -281.1419
   4   2.0000     -10.318804      -280.7889
   5   2.0000     -10.314250      -280.6650
   6   2.0000     -10.309055      -280.5237
   7   2.0000     -10.301936      -280.3299
   8   2.0000     -10.297435      -280.2074
   9   2.0000     -10.296454      -280.1808
  10   2.0000     -10.294945      -280.1397
  11   2.0000     -10.291209      -280.0380
  12   2.0000     -10.287305      -279.9318
  13   2.0000     -10.287171      -279.9282
  14   2.0000     -10.278036      -279.6796
  15   2.0000     -10.273246      -279.5492
  16   2.0000      -8.083674      -219.9680
  17   2.0000      -8.079882      -219.8648
  18   2.0000      -6.042518      -164.4253
  19   2.0000      -6.038433      -164.3141
  20   2.0000      -6.038274      -164.3098
  21   2.0000      -6.034390      -164.2041
  22   2.0000      -6.034052      -164.1949
  23   2.0000      -6.030666      -164.1028
  24   2.0000      -1.004679       -27.3387
  25   2.0000      -0.979893       -26.6643
  26   2.0000      -0.915388       -24.9090
  27   2.0000      -0.911131       -24.7931
  28   2.0000      -0.870701       -23.6930
  29   2.0000      -0.855831       -23.2883
  30   2.0000      -0.845562       -23.0089
  31   2.0000      -0.816579       -22.2202
  32   2.0000      -0.784658       -21.3516
  33   2.0000      -0.770759       -20.9734
  34   2.0000      -0.710362       -19.3299
  35   2.0000      -0.700405       -19.0590
  36   2.0000      -0.689940       -18.7742
  37   2.0000      -0.667662       -18.1680
  38   2.0000      -0.636045       -17.3077
  39   2.0000      -0.621446       -16.9104
  40   2.0000      -0.606047       -16.4914
  41   2.0000      -0.572918       -15.5899
  42   2.0000      -0.560403       -15.2494
  43   2.0000      -0.551214       -14.9993
  44   2.0000      -0.540377       -14.7044
  45   2.0000      -0.533150       -14.5077
  46   2.0000      -0.524303       -14.2670
  47   2.0000      -0.511488       -13.9183
  48   2.0000      -0.504296       -13.7226
  49   2.0000      -0.501823       -13.6553
  50   2.0000      -0.496973       -13.5233
  51   2.0000      -0.482235       -13.1223
  52   2.0000      -0.474138       -12.9019
  53   2.0000      -0.463949       -12.6247
  54   2.0000      -0.461090       -12.5469
  55   2.0000      -0.450683       -12.2637
  56   2.0000      -0.443112       -12.0577
  57   2.0000      -0.437472       -11.9042
  58   2.0000      -0.433497       -11.7960
  59   2.0000      -0.423807       -11.5324
  60   2.0000      -0.422574       -11.4988
  61   2.0000      -0.413749       -11.2587
  62   2.0000      -0.408861       -11.1257
  63   2.0000      -0.362964        -9.8768
  64   2.0000      -0.332802        -9.0560
  65   2.0000      -0.323447        -8.8014
  66   2.0000      -0.282913        -7.6985
  67   0.0000       0.020334         0.5533
  68   0.0000       0.080632         2.1941
  69   0.0000       0.097812         2.6616
  70   0.0000       0.118946         3.2367
  71   0.0000       0.130789         3.5590

MULLIKEN ATOMIC CHARGES
-----------------------
   0 S :    0.103532
   1 C :   -0.110274
   2 C :   -0.117756
   3 C :    0.017636
   4 C :   -0.068188
   5 H :   -0.030363
   6 C :    0.038796
   7 H :    0.014053
   8 H :    0.030895
   9 C :   -0.099839
  10 H :    0.040642
  11 H :    0.033867
  12 C :   -0.011299
  13 H :    0.035138
  14 H :    0.035223
  15 H :    0.022391
  16 S :    0.085302
  17 C :   -0.073899
  18 C :   -0.043786
  19 C :   -0.039108
  20 C :   -0.131924
  21 H :    0.028538
  22 C :    0.080441
  23 H :    0.010950
  24 H :    0.026959
  25 C :   -0.106681
  26 H :    0.035574
  27 H :    0.035074
  28 C :   -0.019049
  29 H :    0.028986
  30 H :    0.015183
  31 H :    0.030496
  32 H :    0.067686
  33 H :    0.034804
Sum of atomic charges:   -0.0000000

LOEWDIN ATOMIC CHARGES
----------------------
   0 S :    0.400034
   1 C :   -0.222028
   2 C :   -0.055793
   3 C :   -0.056642
   4 C :   -0.178234
   5 H :    0.016128
   6 C :   -0.034445
   7 H :    0.029092
   8 H :    0.024211
   9 C :   -0.044180
  10 H :    0.028956
  11 H :    0.023165
  12 C :   -0.059796
  13 H :    0.033062
  14 H :    0.022276
  15 H :    0.023039
  16 S :    0.395549
  17 C :   -0.171536
  18 C :   -0.069351
  19 C :   -0.063154
  20 C :   -0.182976
  21 H :    0.036805
  22 C :   -0.041421
  23 H :    0.033114
  24 H :    0.035389
  25 C :   -0.035212
  26 H :    0.019158
  27 H :    0.027085
  28 C :   -0.055134
  29 H :    0.027024
  30 H :    0.014757
  31 H :    0.019634
  32 H :    0.045964
  33 H :    0.015462

  Mayer bond orders larger than 0.100000
B(  0-S ,  1-C ) :   1.1221 B(  0-S ,  4-C ) :   1.1284 B(  1-C ,  2-C ) :   1.6502
B(  1-C , 32-H ) :   0.9516 B(  2-C ,  3-C ) :   1.2039 B(  2-C ,  6-C ) :   1.0296
B(  3-C ,  4-C ) :   1.5806 B(  3-C ,  5-H ) :   1.0013 B(  4-C , 20-C ) :   1.0763
B(  6-C ,  7-H ) :   0.9452 B(  6-C ,  8-H ) :   0.9363 B(  6-C ,  9-C ) :   1.0469
B(  9-C , 10-H ) :   0.9600 B(  9-C , 11-H ) :   0.9526 B(  9-C , 12-C ) :   1.0841
B( 12-C , 13-H ) :   0.9729 B( 12-C , 14-H ) :   0.9735 B( 12-C , 15-H ) :   0.9721
B( 16-S , 17-C ) :   1.1567 B( 16-S , 20-C ) :   1.1350 B( 17-C , 18-C ) :   1.5918
B( 17-C , 20-C ) :   0.1004 B( 17-C , 33-H ) :   0.9782 B( 18-C , 19-C ) :   1.2513
B( 18-C , 21-H ) :   0.9900 B( 19-C , 20-C ) :   1.5590 B( 19-C , 22-C ) :   1.0883
B( 22-C , 23-H ) :   0.9184 B( 22-C , 24-H ) :   0.9348 B( 22-C , 25-C ) :   1.0343
B( 25-C , 26-H ) :   0.9577 B( 25-C , 27-H ) :   0.9592 B( 25-C , 28-C ) :   1.0812
B( 28-C , 29-H ) :   0.9740 B( 28-C , 30-H ) :   0.9768 B( 28-C , 31-H ) :   0.9763

Dispersion correction           -0.014021427
FINAL SINGLE POINT ENERGY     -1339.867519909796

DIPOLE MOMENT
-------------
                                X             Y             Z
Electronic contribution:     10.89667     -24.93154     -15.63165
Nuclear contribution   :    -11.03385      25.61035      16.00847
                        -----------------------------------------
Total Dipole Moment    :     -0.13718       0.67881       0.37683
                        -----------------------------------------
Magnitude (a.u.)       :      0.78842
Magnitude (Debye)      :      2.00400

Rotational constants in cm-1:     0.017710     0.009087     0.006358
Rotational constants in MHz :   530.917932   272.409959   190.622682

                             ****ORCA TERMINATED NORMALLY****
TOTAL RUN TIME: 0 days 0 hours 0 minutes 20 seconds 447 msec
