                         Program Version 4.2.1 -  RELEASE  -
|  1> ! wB97X-D3 SP def2-SVP
|  2> %pal
|  3> nprocs 24
|  4> end
|  5>
|  6> * xyz 0 1
|  7> S 	 -117.437 	 62.9851 	 -81.0648
|  8> C 	 -117.343 	 63.9501 	 -79.5492
|  9> C 	 -117.276 	 63.1408 	 -78.4569
| 10> C 	 -117.406 	 61.7578 	 -78.7683
| 11> C 	 -117.655 	 61.5601 	 -80.1319
| 12> H 	 -117.483 	 60.8351 	 -78.21
| 13> C 	 -116.98 	 63.4503 	 -76.9998
| 14> H 	 -116.212 	 64.1826 	 -77.1783
| 15> H 	 -116.587 	 62.5843 	 -76.5395
| 16> C 	 -118.142 	 64.0869 	 -76.2229
| 17> H 	 -117.798 	 63.9458 	 -75.1527
| 18> H 	 -118.226 	 65.1927 	 -76.4583
| 19> C 	 -119.474 	 63.3521 	 -76.4913
| 20> H 	 -119.783 	 63.2998 	 -77.5133
| 21> H 	 -119.381 	 62.2715 	 -76.2826
| 22> H 	 -120.228 	 63.7261 	 -75.8324
| 23> S 	 -116.45 	 60.1098 	 -82.0633
| 24> C 	 -116.639 	 58.3756 	 -82.149
| 25> C 	 -117.614 	 57.9526 	 -81.2121
| 26> C 	 -118.228 	 59.0285 	 -80.5218
| 27> C 	 -117.629 	 60.2537 	 -80.8003
| 28> H 	 -117.724 	 56.9085 	 -81.0443
| 29> C 	 -119.182 	 58.8425 	 -79.3541
| 30> H 	 -120.163 	 58.4425 	 -79.655
| 31> H 	 -119.38 	 59.8092 	 -79.098
| 32> C 	 -118.665 	 58.1204 	 -78.0894
| 33> H 	 -117.829 	 58.7442 	 -77.6533
| 34> H 	 -118.235 	 57.2466 	 -78.37
| 35> C 	 -119.784 	 57.9288 	 -77.0784
| 36> H 	 -120.259 	 58.8409 	 -76.6246
| 37> H 	 -119.274 	 57.3138 	 -76.241
| 38> H 	 -120.513 	 57.1081 	 -77.4
| 39> H 	 -117.187 	 65.0689 	 -79.4945
| 40> H 	 -116.122 	 57.7446 	 -82.8777
| 41> *
| 42>
| 43>                          ****END OF INPUT****

CARTESIAN COORDINATES (ANGSTROEM)
---------------------------------
  S    -117.437000   62.985100  -81.064800
  C    -117.343000   63.950100  -79.549200
  C    -117.276000   63.140800  -78.456900
  C    -117.406000   61.757800  -78.768300
  C    -117.655000   61.560100  -80.131900
  H    -117.483000   60.835100  -78.210000
  C    -116.980000   63.450300  -76.999800
  H    -116.212000   64.182600  -77.178300
  H    -116.587000   62.584300  -76.539500
  C    -118.142000   64.086900  -76.222900
  H    -117.798000   63.945800  -75.152700
  H    -118.226000   65.192700  -76.458300
  C    -119.474000   63.352100  -76.491300
  H    -119.783000   63.299800  -77.513300
  H    -119.381000   62.271500  -76.282600
  H    -120.228000   63.726100  -75.832400
  S    -116.450000   60.109800  -82.063300
  C    -116.639000   58.375600  -82.149000
  C    -117.614000   57.952600  -81.212100
  C    -118.228000   59.028500  -80.521800
  C    -117.629000   60.253700  -80.800300
  H    -117.724000   56.908500  -81.044300
  C    -119.182000   58.842500  -79.354100
  H    -120.163000   58.442500  -79.655000
  H    -119.380000   59.809200  -79.098000
  C    -118.665000   58.120400  -78.089400
  H    -117.829000   58.744200  -77.653300
  H    -118.235000   57.246600  -78.370000
  C    -119.784000   57.928800  -77.078400
  H    -120.259000   58.840900  -76.624600
  H    -119.274000   57.313800  -76.241000
  H    -120.513000   57.108100  -77.400000
  H    -117.187000   65.068900  -79.494500
  H    -116.122000   57.744600  -82.877700

 Total Charge           Charge          ....    0
 Multiplicity           Mult            ....    1
 Number of Electrons    NEL             ....  134
 Basis Dimension        Dim             ....  322

ORBITAL ENERGIES
----------------

  NO   OCC          E(Eh)            E(eV)
   0   2.0000     -88.969179     -2420.9745
   1   2.0000     -88.964944     -2420.8592
   2   2.0000     -10.328131      -281.0427
   3   2.0000     -10.325384      -280.9680
   4   2.0000     -10.320167      -280.8260
   5   2.0000     -10.319856      -280.8176
   6   2.0000     -10.301381      -280.3148
   7   2.0000     -10.300935      -280.3027
   8   2.0000     -10.298429      -280.2345
   9   2.0000     -10.296334      -280.1775
  10   2.0000     -10.294653      -280.1317
  11   2.0000     -10.292534      -280.0741
  12   2.0000     -10.287968      -279.9499
  13   2.0000     -10.286645      -279.9139
  14   2.0000     -10.280968      -279.7594
  15   2.0000     -10.273749      -279.5629
  16   2.0000      -8.083672      -219.9679
  17   2.0000      -8.080021      -219.8685
  18   2.0000      -6.042250      -164.4180
  19   2.0000      -6.038406      -164.3134
  20   2.0000      -6.038336      -164.3115
  21   2.0000      -6.034336      -164.2026
  22   2.0000      -6.034244      -164.2001
  23   2.0000      -6.031035      -164.1128
  24   2.0000      -1.010164       -27.4880
  25   2.0000      -0.983791       -26.7703
  26   2.0000      -0.915616       -24.9152
  27   2.0000      -0.911782       -24.8109
  28   2.0000      -0.865936       -23.5633
  29   2.0000      -0.854221       -23.2445
  30   2.0000      -0.843295       -22.9472
  31   2.0000      -0.811320       -22.0771
  32   2.0000      -0.786638       -21.4055
  33   2.0000      -0.772225       -21.0133
  34   2.0000      -0.705762       -19.2048
  35   2.0000      -0.704661       -19.1748
  36   2.0000      -0.695035       -18.9129
  37   2.0000      -0.663732       -18.0611
  38   2.0000      -0.637968       -17.3600
  39   2.0000      -0.609353       -16.5813
  40   2.0000      -0.592849       -16.1322
  41   2.0000      -0.577667       -15.7191
  42   2.0000      -0.568070       -15.4580
  43   2.0000      -0.552312       -15.0292
  44   2.0000      -0.543223       -14.7818
  45   2.0000      -0.525126       -14.2894
  46   2.0000      -0.514318       -13.9953
  47   2.0000      -0.511557       -13.9202
  48   2.0000      -0.505123       -13.7451
  49   2.0000      -0.492308       -13.3964
  50   2.0000      -0.492025       -13.3887
  51   2.0000      -0.482281       -13.1235
  52   2.0000      -0.479250       -13.0410
  53   2.0000      -0.466200       -12.6859
  54   2.0000      -0.461933       -12.5698
  55   2.0000      -0.451224       -12.2784
  56   2.0000      -0.440930       -11.9983
  57   2.0000      -0.434160       -11.8141
  58   2.0000      -0.431324       -11.7369
  59   2.0000      -0.423807       -11.5324
  60   2.0000      -0.420813       -11.4509
  61   2.0000      -0.413769       -11.2592
  62   2.0000      -0.413288       -11.2461
  63   2.0000      -0.344917        -9.3857
  64   2.0000      -0.333361        -9.0712
  65   2.0000      -0.331012        -9.0073
  66   2.0000      -0.288822        -7.8593
  67   0.0000       0.026191         0.7127
  68   0.0000       0.069238         1.8841
  69   0.0000       0.096533         2.6268
  70   0.0000       0.120649         3.2830
  71   0.0000       0.126693         3.4475

MULLIKEN ATOMIC CHARGES
-----------------------
   0 S :    0.101526
   1 C :   -0.145971
   2 C :   -0.095058
   3 C :    0.034172
   4 C :   -0.148048
   5 H :   -0.012951
   6 C :    0.107019
   7 H :    0.024784
   8 H :    0.020748
   9 C :   -0.094804
  10 H :    0.044176
  11 H :    0.044613
  12 C :   -0.040165
  13 H :    0.048547
  14 H :    0.014596
  15 H :    0.035061
  16 S :    0.105454
  17 C :   -0.115199
  18 C :   -0.038236
  19 C :   -0.034966
  20 C :   -0.147103
  21 H :    0.015253
  22 C :    0.092470
  23 H :    0.024581
  24 H :   -0.016073
  25 C :   -0.031829
  26 H :    0.034954
  27 H :   -0.002259
  28 C :   -0.101541
  29 H :    0.062749
  30 H :    0.035952
  31 H :    0.046574
  32 H :    0.063812
  33 H :    0.067162
Sum of atomic charges:   -0.0000000

LOEWDIN ATOMIC CHARGES
----------------------
   0 S :    0.401332
   1 C :   -0.201245
   2 C :   -0.060205
   3 C :   -0.066231
   4 C :   -0.198511
   5 H :    0.029320
   6 C :   -0.026941
   7 H :    0.033543
   8 H :    0.025666
   9 C :   -0.041758
  10 H :    0.033187
  11 H :    0.030018
  12 C :   -0.068776
  13 H :    0.026913
  14 H :    0.025702
  15 H :    0.023525
  16 S :    0.416383
  17 C :   -0.193202
  18 C :   -0.066644
  19 C :   -0.062272
  20 C :   -0.200947
  21 H :    0.026529
  22 C :   -0.030863
  23 H :    0.032615
  24 H :    0.012085
  25 C :   -0.031930
  26 H :    0.027828
  27 H :    0.008104
  28 C :   -0.081546
  29 H :    0.034120
  30 H :    0.036146
  31 H :    0.035304
  32 H :    0.040992
  33 H :    0.031760

  Mayer bond orders larger than 0.100000
B(  0-S ,  1-C ) :   1.1110 B(  0-S ,  4-C ) :   1.1655 B(  1-C ,  2-C ) :   1.6392
B(  1-C , 32-H ) :   0.9608 B(  2-C ,  3-C ) :   1.2116 B(  2-C ,  6-C ) :   0.9949
B(  3-C ,  4-C ) :   1.5615 B(  3-C ,  5-H ) :   0.9914 B(  4-C , 20-C ) :   1.0236
B(  6-C ,  7-H ) :   0.9358 B(  6-C ,  8-H ) :   0.9443 B(  6-C ,  9-C ) :   1.0730
B(  9-C , 10-H ) :   0.9588 B(  9-C , 11-H ) :   0.9548 B(  9-C , 12-C ) :   1.0796
B( 12-C , 13-H ) :   0.9664 B( 12-C , 14-H ) :   0.9723 B( 12-C , 15-H ) :   0.9743
B( 16-S , 17-C ) :   1.1679 B( 16-S , 20-C ) :   1.1591 B( 17-C , 18-C ) :   1.5759
B( 17-C , 20-C ) :   0.1042 B( 17-C , 33-H ) :   0.9691 B( 18-C , 19-C ) :   1.2518
B( 18-C , 21-H ) :   0.9990 B( 19-C , 20-C ) :   1.5779 B( 19-C , 22-C ) :   1.0536
B( 22-C , 23-H ) :   0.9291 B( 22-C , 24-H ) :   0.9227 B( 22-C , 25-C ) :   1.0574
B( 25-C , 26-H ) :   0.9467 B( 25-C , 27-H ) :   0.9480 B( 25-C , 28-C ) :   1.0897
B( 28-C , 29-H ) :   0.9730 B( 28-C , 30-H ) :   0.9699 B( 28-C , 31-H ) :   0.9691

Dispersion correction           -0.015103348
FINAL SINGLE POINT ENERGY     -1339.853451037219

DIPOLE MOMENT
-------------
                                X             Y             Z
Electronic contribution:     11.92541       4.46456     -28.11535
Nuclear contribution   :    -11.89780      -4.73641      28.79110
                        -----------------------------------------
Total Dipole Moment    :      0.02761      -0.27185       0.67574
                        -----------------------------------------
Magnitude (a.u.)       :      0.72890
Magnitude (Debye)      :      1.85271

Rotational constants in cm-1:     0.017157     0.010541     0.007013
Rotational constants in MHz :   514.367411   316.020531   210.238070

                             ****ORCA TERMINATED NORMALLY****
TOTAL RUN TIME: 0 days 0 hours 0 minutes 22 seconds 671 msec
