                         Program Version 4.2.1 -  RELEASE  -
|  1> ! wB97X-D3 SP def2-SVP
|  2> %pal
|  3> nprocs 24
|  4> end
|  5>
|  6> * xyz 0 1
|  7> S 	 46.8408 	 -20.4141 	 -115.086
|  8> C 	 47.4379 	 -21.7879 	 -115.948
|  9> C 	 47.5381 	 -22.9391 	 -115.15
| 10> C 	 47.0646 	 -22.6212 	 -113.778
| 11> C 	 46.8471 	 -21.3142 	 -113.558
| 12> H 	 47.0108 	 -23.2997 	 -112.901
| 13> C 	 47.9685 	 -24.3015 	 -115.643
| 14> H 	 48.7429 	 -24.638 	 -115.019
| 15> H 	 48.2455 	 -24.1673 	 -116.696
| 16> C 	 46.7739 	 -25.1865 	 -115.339
| 17> H 	 46.5648 	 -25.0911 	 -114.311
| 18> H 	 45.8565 	 -24.7912 	 -115.834
| 19> C 	 46.9664 	 -26.5704 	 -115.827
| 20> H 	 46.7975 	 -26.7761 	 -116.896
| 21> H 	 47.9753 	 -26.981 	 -115.495
| 22> H 	 46.3128 	 -27.1546 	 -115.281
| 23> S 	 47.4228 	 -19.1465 	 -111.994
| 24> C 	 46.4798 	 -18.8884 	 -110.567
| 25> C 	 45.6678 	 -19.9757 	 -110.189
| 26> C 	 45.7361 	 -20.9838 	 -111.173
| 27> C 	 46.5134 	 -20.6606 	 -112.297
| 28> H 	 45.1582 	 -19.9541 	 -109.241
| 29> C 	 44.97 	 -22.2216 	 -111.074
| 30> H 	 44.989 	 -22.9014 	 -111.953
| 31> H 	 43.9171 	 -21.9754 	 -111.117
| 32> C 	 45.2514 	 -23.0651 	 -109.737
| 33> H 	 45.4051 	 -22.4117 	 -108.869
| 34> H 	 46.1949 	 -23.7058 	 -109.842
| 35> C 	 44.1951 	 -24.223 	 -109.58
| 36> H 	 43.2013 	 -23.8038 	 -109.551
| 37> H 	 44.295 	 -24.8926 	 -108.61
| 38> H 	 44.1856 	 -24.8937 	 -110.46
| 39> H 	 47.8406 	 -21.7301 	 -117.015
| 40> H 	 46.4596 	 -18.0156 	 -110.117
| 41> *
| 42>
| 43>                          ****END OF INPUT****

CARTESIAN COORDINATES (ANGSTROEM)
---------------------------------
  S     46.840800  -20.414100  -115.086000
  C     47.437900  -21.787900  -115.948000
  C     47.538100  -22.939100  -115.150000
  C     47.064600  -22.621200  -113.778000
  C     46.847100  -21.314200  -113.558000
  H     47.010800  -23.299700  -112.901000
  C     47.968500  -24.301500  -115.643000
  H     48.742900  -24.638000  -115.019000
  H     48.245500  -24.167300  -116.696000
  C     46.773900  -25.186500  -115.339000
  H     46.564800  -25.091100  -114.311000
  H     45.856500  -24.791200  -115.834000
  C     46.966400  -26.570400  -115.827000
  H     46.797500  -26.776100  -116.896000
  H     47.975300  -26.981000  -115.495000
  H     46.312800  -27.154600  -115.281000
  S     47.422800  -19.146500  -111.994000
  C     46.479800  -18.888400  -110.567000
  C     45.667800  -19.975700  -110.189000
  C     45.736100  -20.983800  -111.173000
  C     46.513400  -20.660600  -112.297000
  H     45.158200  -19.954100  -109.241000
  C     44.970000  -22.221600  -111.074000
  H     44.989000  -22.901400  -111.953000
  H     43.917100  -21.975400  -111.117000
  C     45.251400  -23.065100  -109.737000
  H     45.405100  -22.411700  -108.869000
  H     46.194900  -23.705800  -109.842000
  C     44.195100  -24.223000  -109.580000
  H     43.201300  -23.803800  -109.551000
  H     44.295000  -24.892600  -108.610000
  H     44.185600  -24.893700  -110.460000
  H     47.840600  -21.730100  -117.015000
  H     46.459600  -18.015600  -110.117000

 Total Charge           Charge          ....    0
 Multiplicity           Mult            ....    1
 Number of Electrons    NEL             ....  134
 Basis Dimension        Dim             ....  322

ORBITAL ENERGIES
----------------

  NO   OCC          E(Eh)            E(eV)
   0   2.0000     -88.965496     -2420.8742
   1   2.0000     -88.961116     -2420.7550
   2   2.0000     -10.327913      -281.0368
   3   2.0000     -10.326312      -280.9932
   4   2.0000     -10.316331      -280.7216
   5   2.0000     -10.309630      -280.5393
   6   2.0000     -10.305973      -280.4398
   7   2.0000     -10.305158      -280.4176
   8   2.0000     -10.303896      -280.3833
   9   2.0000     -10.296891      -280.1926
  10   2.0000     -10.296833      -280.1911
  11   2.0000     -10.294289      -280.1218
  12   2.0000     -10.292595      -280.0758
  13   2.0000     -10.288139      -279.9545
  14   2.0000     -10.280751      -279.7535
  15   2.0000     -10.273824      -279.5650
  16   2.0000      -8.080069      -219.8699
  17   2.0000      -8.076084      -219.7614
  18   2.0000      -6.038367      -164.3123
  19   2.0000      -6.034770      -164.2144
  20   2.0000      -6.034653      -164.2113
  21   2.0000      -6.031019      -164.1124
  22   2.0000      -6.030653      -164.1024
  23   2.0000      -6.026535      -163.9904
  24   2.0000      -1.003763       -27.3138
  25   2.0000      -0.981439       -26.7063
  26   2.0000      -0.923840       -25.1390
  27   2.0000      -0.905119       -24.6296
  28   2.0000      -0.869527       -23.6610
  29   2.0000      -0.850999       -23.1568
  30   2.0000      -0.845182       -22.9986
  31   2.0000      -0.817120       -22.2350
  32   2.0000      -0.780848       -21.2480
  33   2.0000      -0.766780       -20.8651
  34   2.0000      -0.708374       -19.2758
  35   2.0000      -0.703716       -19.1491
  36   2.0000      -0.690255       -18.7828
  37   2.0000      -0.663979       -18.0678
  38   2.0000      -0.640768       -17.4362
  39   2.0000      -0.619803       -16.8657
  40   2.0000      -0.603899       -16.4329
  41   2.0000      -0.578652       -15.7459
  42   2.0000      -0.563725       -15.3397
  43   2.0000      -0.551638       -15.0108
  44   2.0000      -0.529662       -14.4128
  45   2.0000      -0.522107       -14.2073
  46   2.0000      -0.516736       -14.0611
  47   2.0000      -0.511323       -13.9138
  48   2.0000      -0.509730       -13.8704
  49   2.0000      -0.494013       -13.4428
  50   2.0000      -0.492460       -13.4005
  51   2.0000      -0.477519       -12.9940
  52   2.0000      -0.472992       -12.8708
  53   2.0000      -0.462856       -12.5950
  54   2.0000      -0.460700       -12.5363
  55   2.0000      -0.453537       -12.3414
  56   2.0000      -0.450823       -12.2675
  57   2.0000      -0.441406       -12.0113
  58   2.0000      -0.434599       -11.8260
  59   2.0000      -0.422796       -11.5049
  60   2.0000      -0.420513       -11.4427
  61   2.0000      -0.413574       -11.2539
  62   2.0000      -0.408899       -11.1267
  63   2.0000      -0.347742        -9.4626
  64   2.0000      -0.332236        -9.0406
  65   2.0000      -0.320428        -8.7193
  66   2.0000      -0.287745        -7.8299
  67   0.0000       0.026497         0.7210
  68   0.0000       0.074913         2.0385
  69   0.0000       0.103211         2.8085
  70   0.0000       0.114515         3.1161
  71   0.0000       0.125684         3.4200

MULLIKEN ATOMIC CHARGES
-----------------------
   0 S :    0.106218
   1 C :   -0.148629
   2 C :   -0.142261
   3 C :   -0.011363
   4 C :   -0.128040
   5 H :    0.033777
   6 C :    0.161617
   7 H :    0.017440
   8 H :    0.024619
   9 C :   -0.130667
  10 H :    0.017776
  11 H :    0.034609
  12 C :    0.014877
  13 H :    0.045780
  14 H :    0.019082
  15 H :    0.004023
  16 S :    0.104465
  17 C :   -0.030463
  18 C :   -0.041080
  19 C :    0.026073
  20 C :   -0.161529
  21 H :    0.023932
  22 C :    0.024466
  23 H :    0.017289
  24 H :    0.029929
  25 C :   -0.104815
  26 H :    0.044844
  27 H :    0.044009
  28 C :   -0.088525
  29 H :    0.025547
  30 H :    0.056492
  31 H :    0.036006
  32 H :    0.075892
  33 H :   -0.001390
Sum of atomic charges:   -0.0000000

LOEWDIN ATOMIC CHARGES
----------------------
   0 S :    0.391308
   1 C :   -0.224645
   2 C :   -0.053778
   3 C :   -0.072706
   4 C :   -0.189777
   5 H :    0.035361
   6 C :   -0.019901
   7 H :    0.025852
   8 H :    0.033520
   9 C :   -0.040682
  10 H :    0.018096
  11 H :    0.032207
  12 C :   -0.065253
  13 H :    0.031034
  14 H :    0.028760
  15 H :    0.016303
  16 S :    0.404011
  17 C :   -0.156297
  18 C :   -0.064834
  19 C :   -0.055117
  20 C :   -0.186169
  21 H :    0.034538
  22 C :   -0.039618
  23 H :    0.031771
  24 H :    0.033015
  25 C :   -0.040690
  26 H :    0.023142
  27 H :    0.032517
  28 C :   -0.080259
  29 H :    0.016197
  30 H :    0.039714
  31 H :    0.026349
  32 H :    0.042794
  33 H :   -0.006762

  Mayer bond orders larger than 0.100000
B(  0-S ,  1-C ) :   1.1245 B(  0-S ,  4-C ) :   1.1272 B(  1-C ,  2-C ) :   1.6505
B(  1-C , 32-H ) :   0.9533 B(  2-C ,  3-C ) :   1.1790 B(  2-C ,  6-C ) :   1.0353
B(  3-C ,  4-C ) :   1.6471 B(  3-C ,  5-H ) :   0.9761 B(  4-C , 20-C ) :   1.0400
B(  6-C ,  7-H ) :   0.9190 B(  6-C ,  8-H ) :   0.9411 B(  6-C ,  9-C ) :   1.0653
B(  9-C , 10-H ) :   0.9544 B(  9-C , 11-H ) :   0.9503 B(  9-C , 12-C ) :   1.0943
B( 12-C , 13-H ) :   0.9733 B( 12-C , 14-H ) :   0.9656 B( 12-C , 15-H ) :   0.9635
B( 16-S , 17-C ) :   1.1800 B( 16-S , 20-C ) :   1.1330 B( 17-C , 18-C ) :   1.5810
B( 17-C , 20-C ) :   0.1080 B( 17-C , 33-H ) :   0.9825 B( 18-C , 19-C ) :   1.2347
B( 18-C , 21-H ) :   0.9965 B( 19-C , 20-C ) :   1.5755 B( 19-C , 22-C ) :   1.0542
B( 22-C , 23-H ) :   0.9384 B( 22-C , 24-H ) :   0.9353 B( 22-C , 25-C ) :   1.0275
B( 25-C , 26-H ) :   0.9653 B( 25-C , 27-H ) :   0.9599 B( 25-C , 28-C ) :   1.0566
B( 28-C , 29-H ) :   0.9783 B( 28-C , 30-H ) :   0.9752 B( 28-C , 31-H ) :   0.9750

Dispersion correction           -0.013700151
FINAL SINGLE POINT ENERGY     -1339.848675757177

DIPOLE MOMENT
-------------
                                X             Y             Z
Electronic contribution:      8.09667      30.77070      -4.56268
Nuclear contribution   :     -8.30648     -31.39680       4.80194
                        -----------------------------------------
Total Dipole Moment    :     -0.20981      -0.62611       0.23926
                        -----------------------------------------
Magnitude (a.u.)       :      0.70233
Magnitude (Debye)      :      1.78519

Rotational constants in cm-1:     0.016394     0.009378     0.006273
Rotational constants in MHz :   491.469620   281.131535   188.068648

                             ****ORCA TERMINATED NORMALLY****
TOTAL RUN TIME: 0 days 0 hours 0 minutes 21 seconds 464 msec
