                         Program Version 4.2.1 -  RELEASE  -
|  1> ! wB97X-D3 SP def2-SVP
|  2> %pal
|  3> nprocs 24
|  4> end
|  5>
|  6> * xyz 0 1
|  7> S 	 -52.3977 	 22.9257 	 32.3361
|  8> C 	 -50.6658 	 22.4807 	 31.9801
|  9> C 	 -50.5384 	 21.1073 	 32.0633
| 10> C 	 -51.7458 	 20.3754 	 32.3236
| 11> C 	 -52.8359 	 21.241 	 32.4469
| 12> H 	 -51.8643 	 19.2779 	 32.395
| 13> C 	 -49.2319 	 20.4101 	 31.7654
| 14> H 	 -49.4931 	 19.3739 	 31.7816
| 15> H 	 -48.6294 	 20.5119 	 32.7717
| 16> C 	 -48.4038 	 20.7901 	 30.5139
| 17> H 	 -48.0652 	 21.8021 	 30.5496
| 18> H 	 -47.5966 	 20.0544 	 30.2732
| 19> C 	 -49.3953 	 20.7857 	 29.3623
| 20> H 	 -48.9029 	 21.077 	 28.4391
| 21> H 	 -49.7715 	 19.7343 	 29.1663
| 22> H 	 -50.2813 	 21.3866 	 29.5142
| 23> S 	 -55.1025 	 21.7944 	 33.8048
| 24> C 	 -56.5335 	 20.8105 	 33.6679
| 25> C 	 -56.3373 	 19.9086 	 32.6593
| 26> C 	 -54.9444 	 19.7943 	 32.2088
| 27> C 	 -54.2034 	 20.8697 	 32.617
| 28> H 	 -57.221 	 19.3117 	 32.396
| 29> C 	 -54.5151 	 18.606 	 31.3009
| 30> H 	 -54.8768 	 17.6668 	 31.7054
| 31> H 	 -53.3794 	 18.4384 	 31.2969
| 32> C 	 -55.1526 	 18.6978 	 29.8654
| 33> H 	 -55.1629 	 19.7151 	 29.539
| 34> H 	 -56.2439 	 18.4067 	 29.983
| 35> C 	 -54.4074 	 17.7903 	 28.9242
| 36> H 	 -54.9421 	 17.6172 	 27.953
| 37> H 	 -54.3738 	 16.8035 	 29.4335
| 38> H 	 -53.381 	 18.125 	 28.7778
| 39> H 	 -49.9205 	 23.1967 	 31.6238
| 40> H 	 -57.5092 	 21.1285 	 34.1183
| 41> *
| 42>
| 43>                          ****END OF INPUT****

CARTESIAN COORDINATES (ANGSTROEM)
---------------------------------
  S    -52.397700   22.925700   32.336100
  C    -50.665800   22.480700   31.980100
  C    -50.538400   21.107300   32.063300
  C    -51.745800   20.375400   32.323600
  C    -52.835900   21.241000   32.446900
  H    -51.864300   19.277900   32.395000
  C    -49.231900   20.410100   31.765400
  H    -49.493100   19.373900   31.781600
  H    -48.629400   20.511900   32.771700
  C    -48.403800   20.790100   30.513900
  H    -48.065200   21.802100   30.549600
  H    -47.596600   20.054400   30.273200
  C    -49.395300   20.785700   29.362300
  H    -48.902900   21.077000   28.439100
  H    -49.771500   19.734300   29.166300
  H    -50.281300   21.386600   29.514200
  S    -55.102500   21.794400   33.804800
  C    -56.533500   20.810500   33.667900
  C    -56.337300   19.908600   32.659300
  C    -54.944400   19.794300   32.208800
  C    -54.203400   20.869700   32.617000
  H    -57.221000   19.311700   32.396000
  C    -54.515100   18.606000   31.300900
  H    -54.876800   17.666800   31.705400
  H    -53.379400   18.438400   31.296900
  C    -55.152600   18.697800   29.865400
  H    -55.162900   19.715100   29.539000
  H    -56.243900   18.406700   29.983000
  C    -54.407400   17.790300   28.924200
  H    -54.942100   17.617200   27.953000
  H    -54.373800   16.803500   29.433500
  H    -53.381000   18.125000   28.777800
  H    -49.920500   23.196700   31.623800
  H    -57.509200   21.128500   34.118300

 Total Charge           Charge          ....    0
 Multiplicity           Mult            ....    1
 Number of Electrons    NEL             ....  134
 Basis Dimension        Dim             ....  322

ORBITAL ENERGIES
----------------

  NO   OCC          E(Eh)            E(eV)
   0   2.0000     -88.967919     -2420.9402
   1   2.0000     -88.958699     -2420.6893
   2   2.0000     -10.332504      -281.1617
   3   2.0000     -10.325865      -280.9811
   4   2.0000     -10.319822      -280.8166
   5   2.0000     -10.318913      -280.7919
   6   2.0000     -10.311622      -280.5935
   7   2.0000     -10.305604      -280.4297
   8   2.0000     -10.303677      -280.3773
   9   2.0000     -10.300807      -280.2992
  10   2.0000     -10.299296      -280.2581
  11   2.0000     -10.296757      -280.1890
  12   2.0000     -10.292886      -280.0837
  13   2.0000     -10.289280      -279.9855
  14   2.0000     -10.283006      -279.8148
  15   2.0000     -10.273948      -279.5683
  16   2.0000      -8.081647      -219.9128
  17   2.0000      -8.074191      -219.7099
  18   2.0000      -6.040271      -164.3641
  19   2.0000      -6.036329      -164.2569
  20   2.0000      -6.032849      -164.1622
  21   2.0000      -6.032294      -164.1471
  22   2.0000      -6.028548      -164.0451
  23   2.0000      -6.024764      -163.9422
  24   2.0000      -1.008599       -27.4454
  25   2.0000      -0.980645       -26.6847
  26   2.0000      -0.915509       -24.9123
  27   2.0000      -0.906522       -24.6677
  28   2.0000      -0.871805       -23.7230
  29   2.0000      -0.851805       -23.1788
  30   2.0000      -0.840610       -22.8742
  31   2.0000      -0.811834       -22.0911
  32   2.0000      -0.777183       -21.1482
  33   2.0000      -0.770519       -20.9669
  34   2.0000      -0.707042       -19.2396
  35   2.0000      -0.703880       -19.1536
  36   2.0000      -0.694193       -18.8899
  37   2.0000      -0.659940       -17.9579
  38   2.0000      -0.634439       -17.2640
  39   2.0000      -0.610374       -16.6091
  40   2.0000      -0.592665       -16.1272
  41   2.0000      -0.575857       -15.6699
  42   2.0000      -0.563691       -15.3388
  43   2.0000      -0.551342       -15.0028
  44   2.0000      -0.544100       -14.8057
  45   2.0000      -0.527823       -14.3628
  46   2.0000      -0.517773       -14.0893
  47   2.0000      -0.511154       -13.9092
  48   2.0000      -0.502019       -13.6606
  49   2.0000      -0.499413       -13.5897
  50   2.0000      -0.487193       -13.2572
  51   2.0000      -0.479583       -13.0501
  52   2.0000      -0.475304       -12.9337
  53   2.0000      -0.463896       -12.6233
  54   2.0000      -0.454248       -12.3607
  55   2.0000      -0.446043       -12.1374
  56   2.0000      -0.443426       -12.0662
  57   2.0000      -0.432492       -11.7687
  58   2.0000      -0.431006       -11.7283
  59   2.0000      -0.423397       -11.5212
  60   2.0000      -0.419293       -11.4096
  61   2.0000      -0.418426       -11.3860
  62   2.0000      -0.411235       -11.1903
  63   2.0000      -0.354451        -9.6451
  64   2.0000      -0.331271        -9.0143
  65   2.0000      -0.324336        -8.8256
  66   2.0000      -0.289741        -7.8843
  67   0.0000       0.023134         0.6295
  68   0.0000       0.072878         1.9831
  69   0.0000       0.102219         2.7815
  70   0.0000       0.109854         2.9893
  71   0.0000       0.131882         3.5887

MULLIKEN ATOMIC CHARGES
-----------------------
   0 S :    0.099860
   1 C :   -0.141871
   2 C :   -0.114258
   3 C :    0.004181
   4 C :   -0.121654
   5 H :    0.036026
   6 C :    0.049640
   7 H :    0.003918
   8 H :    0.056504
   9 C :   -0.030234
  10 H :    0.028813
  11 H :    0.050782
  12 C :   -0.088568
  13 H :    0.027835
  14 H :    0.022225
  15 H :    0.052467
  16 S :    0.077586
  17 C :   -0.109405
  18 C :   -0.043050
  19 C :   -0.049875
  20 C :   -0.116313
  21 H :    0.031201
  22 C :    0.019258
  23 H :    0.026748
  24 H :    0.027883
  25 C :   -0.080008
  26 H :    0.036901
  27 H :    0.037543
  28 C :   -0.051864
  29 H :    0.045039
  30 H :    0.023846
  31 H :    0.043728
  32 H :    0.061820
  33 H :    0.083295
Sum of atomic charges:    0.0000000

LOEWDIN ATOMIC CHARGES
----------------------
   0 S :    0.382753
   1 C :   -0.187625
   2 C :   -0.059373
   3 C :   -0.071375
   4 C :   -0.182834
   5 H :    0.037250
   6 C :   -0.041329
   7 H :    0.021860
   8 H :    0.045789
   9 C :   -0.037645
  10 H :    0.020405
  11 H :    0.037854
  12 C :   -0.069770
  13 H :    0.020447
  14 H :    0.025416
  15 H :    0.024829
  16 S :    0.392203
  17 C :   -0.194370
  18 C :   -0.073755
  19 C :   -0.054986
  20 C :   -0.195504
  21 H :    0.034715
  22 C :   -0.034558
  23 H :    0.028995
  24 H :    0.031812
  25 C :   -0.040843
  26 H :    0.019325
  27 H :    0.029389
  28 C :   -0.069510
  29 H :    0.031648
  30 H :    0.026427
  31 H :    0.027028
  32 H :    0.032704
  33 H :    0.042627

  Mayer bond orders larger than 0.100000
B(  0-S ,  1-C ) :   1.0999 B(  0-S ,  4-C ) :   1.1605 B(  1-C ,  2-C ) :   1.6142
B(  1-C , 32-H ) :   0.9740 B(  2-C ,  3-C ) :   1.2324 B(  2-C ,  6-C ) :   1.0149
B(  3-C ,  4-C ) :   1.5681 B(  3-C ,  5-H ) :   0.9792 B(  4-C , 20-C ) :   1.0542
B(  6-C ,  7-H ) :   0.9417 B(  6-C ,  8-H ) :   0.9300 B(  6-C ,  9-C ) :   1.0653
B(  9-C , 10-H ) :   0.9521 B(  9-C , 11-H ) :   0.9561 B(  9-C , 12-C ) :   1.0779
B( 12-C , 13-H ) :   0.9739 B( 12-C , 14-H ) :   0.9758 B( 12-C , 15-H ) :   0.9710
B( 16-S , 17-C ) :   1.1395 B( 16-S , 20-C ) :   1.1254 B( 17-C , 18-C ) :   1.6527
B( 17-C , 33-H ) :   0.9586 B( 18-C , 19-C ) :   1.1863 B( 18-C , 21-H ) :   0.9842
B( 19-C , 20-C ) :   1.6366 B( 19-C , 22-C ) :   1.0401 B( 22-C , 23-H ) :   0.9294
B( 22-C , 24-H ) :   0.9485 B( 22-C , 25-C ) :   1.0400 B( 25-C , 26-H ) :   0.9640
B( 25-C , 27-H ) :   0.9518 B( 25-C , 28-C ) :   1.0860 B( 28-C , 29-H ) :   0.9717
B( 28-C , 30-H ) :   0.9693 B( 28-C , 31-H ) :   0.9750

Dispersion correction           -0.014376337
FINAL SINGLE POINT ENERGY     -1339.872487537093

DIPOLE MOMENT
-------------
                                X             Y             Z
Electronic contribution:    -11.47178      18.22139      20.28147
Nuclear contribution   :     11.56240     -18.81355     -20.72498
                        -----------------------------------------
Total Dipole Moment    :      0.09062      -0.59217      -0.44351
                        -----------------------------------------
Magnitude (a.u.)       :      0.74537
Magnitude (Debye)      :      1.89458

Rotational constants in cm-1:     0.018184     0.009520     0.006798
Rotational constants in MHz :   545.157023   285.417058   203.794059

                             ****ORCA TERMINATED NORMALLY****
TOTAL RUN TIME: 0 days 0 hours 0 minutes 21 seconds 891 msec
