                         Program Version 4.2.1 -  RELEASE  -
|  1> ! wB97X-D3 SP def2-SVP
|  2> %pal
|  3> nprocs 24
|  4> end
|  5>
|  6> * xyz 0 1
|  7> S 	 -44.0779 	 15.6473 	 -102.154
|  8> C 	 -43.568 	 13.918 	 -101.78
|  9> C 	 -44.6762 	 13.1017 	 -101.724
| 10> C 	 -45.8934 	 13.7679 	 -101.969
| 11> C 	 -45.7405 	 15.1356 	 -102.322
| 12> H 	 -46.8972 	 13.3817 	 -101.967
| 13> C 	 -44.5066 	 11.5321 	 -101.467
| 14> H 	 -43.4259 	 11.4248 	 -101.146
| 15> H 	 -44.7614 	 11.1027 	 -102.385
| 16> C 	 -45.4696 	 11.0365 	 -100.421
| 17> H 	 -46.5212 	 11.0499 	 -100.868
| 18> H 	 -45.1886 	 9.96636 	 -100.236
| 19> C 	 -45.4791 	 11.7596 	 -99.0173
| 20> H 	 -44.5048 	 11.8495 	 -98.6346
| 21> H 	 -45.9086 	 12.7485 	 -99.107
| 22> H 	 -45.9995 	 11.2268 	 -98.3036
| 23> S 	 -46.7583 	 17.6196 	 -101.605
| 24> C 	 -48.3092 	 18.1987 	 -102.271
| 25> C 	 -48.7832 	 17.2988 	 -103.258
| 26> C 	 -47.9499 	 16.1262 	 -103.359
| 27> C 	 -46.8419 	 16.1272 	 -102.528
| 28> H 	 -49.6274 	 17.4756 	 -103.916
| 29> C 	 -48.2732 	 15.0597 	 -104.367
| 30> H 	 -49.113 	 15.4206 	 -105.054
| 31> H 	 -48.8795 	 14.2959 	 -103.903
| 32> C 	 -47.1738 	 14.5854 	 -105.376
| 33> H 	 -46.5548 	 13.9461 	 -104.796
| 34> H 	 -46.5977 	 15.4633 	 -105.664
| 35> C 	 -47.7491 	 13.842 	 -106.623
| 36> H 	 -48.4595 	 14.4146 	 -107.11
| 37> H 	 -48.1353 	 12.8937 	 -106.304
| 38> H 	 -46.9185 	 13.5768 	 -107.237
| 39> H 	 -42.5676 	 13.6812 	 -101.647
| 40> H 	 -48.8854 	 19.0673 	 -102.034
| 41> *
| 42>
| 43>                          ****END OF INPUT****

CARTESIAN COORDINATES (ANGSTROEM)
---------------------------------
  S    -44.077900   15.647300  -102.154000
  C    -43.568000   13.918000  -101.780000
  C    -44.676200   13.101700  -101.724000
  C    -45.893400   13.767900  -101.969000
  C    -45.740500   15.135600  -102.322000
  H    -46.897200   13.381700  -101.967000
  C    -44.506600   11.532100  -101.467000
  H    -43.425900   11.424800  -101.146000
  H    -44.761400   11.102700  -102.385000
  C    -45.469600   11.036500  -100.421000
  H    -46.521200   11.049900  -100.868000
  H    -45.188600    9.966360  -100.236000
  C    -45.479100   11.759600  -99.017300
  H    -44.504800   11.849500  -98.634600
  H    -45.908600   12.748500  -99.107000
  H    -45.999500   11.226800  -98.303600
  S    -46.758300   17.619600  -101.605000
  C    -48.309200   18.198700  -102.271000
  C    -48.783200   17.298800  -103.258000
  C    -47.949900   16.126200  -103.359000
  C    -46.841900   16.127200  -102.528000
  H    -49.627400   17.475600  -103.916000
  C    -48.273200   15.059700  -104.367000
  H    -49.113000   15.420600  -105.054000
  H    -48.879500   14.295900  -103.903000
  C    -47.173800   14.585400  -105.376000
  H    -46.554800   13.946100  -104.796000
  H    -46.597700   15.463300  -105.664000
  C    -47.749100   13.842000  -106.623000
  H    -48.459500   14.414600  -107.110000
  H    -48.135300   12.893700  -106.304000
  H    -46.918500   13.576800  -107.237000
  H    -42.567600   13.681200  -101.647000
  H    -48.885400   19.067300  -102.034000

 Total Charge           Charge          ....    0
 Multiplicity           Mult            ....    1
 Number of Electrons    NEL             ....  134
 Basis Dimension        Dim             ....  322

ORBITAL ENERGIES
----------------

  NO   OCC          E(Eh)            E(eV)
   0   2.0000     -88.969184     -2420.9746
   1   2.0000     -88.967223     -2420.9212
   2   2.0000     -10.339185      -281.3435
   3   2.0000     -10.330770      -281.1145
   4   2.0000     -10.323939      -280.9287
   5   2.0000     -10.316124      -280.7160
   6   2.0000     -10.306598      -280.4568
   7   2.0000     -10.303984      -280.3857
   8   2.0000     -10.299920      -280.2751
   9   2.0000     -10.299789      -280.2715
  10   2.0000     -10.297496      -280.2091
  11   2.0000     -10.297032      -280.1965
  12   2.0000     -10.291480      -280.0454
  13   2.0000     -10.281596      -279.7765
  14   2.0000     -10.269954      -279.4596
  15   2.0000     -10.267441      -279.3913
  16   2.0000      -8.082888      -219.9466
  17   2.0000      -8.080656      -219.8858
  18   2.0000      -6.041571      -164.3995
  19   2.0000      -6.039166      -164.3341
  20   2.0000      -6.037471      -164.2879
  21   2.0000      -6.035388      -164.2313
  22   2.0000      -6.033573      -164.1819
  23   2.0000      -6.031448      -164.1241
  24   2.0000      -0.998279       -27.1646
  25   2.0000      -0.975238       -26.5376
  26   2.0000      -0.907391       -24.6914
  27   2.0000      -0.901068       -24.5193
  28   2.0000      -0.862249       -23.4630
  29   2.0000      -0.849517       -23.1165
  30   2.0000      -0.837417       -22.7873
  31   2.0000      -0.813240       -22.1294
  32   2.0000      -0.789175       -21.4746
  33   2.0000      -0.773507       -21.0482
  34   2.0000      -0.712065       -19.3763
  35   2.0000      -0.695219       -18.9179
  36   2.0000      -0.688637       -18.7388
  37   2.0000      -0.663320       -18.0499
  38   2.0000      -0.642897       -17.4941
  39   2.0000      -0.615603       -16.7514
  40   2.0000      -0.590498       -16.0683
  41   2.0000      -0.564715       -15.3667
  42   2.0000      -0.563232       -15.3263
  43   2.0000      -0.559238       -15.2176
  44   2.0000      -0.537096       -14.6151
  45   2.0000      -0.522598       -14.2206
  46   2.0000      -0.520402       -14.1609
  47   2.0000      -0.510401       -13.8887
  48   2.0000      -0.500040       -13.6068
  49   2.0000      -0.497064       -13.5258
  50   2.0000      -0.490071       -13.3355
  51   2.0000      -0.483347       -13.1525
  52   2.0000      -0.472358       -12.8535
  53   2.0000      -0.467573       -12.7233
  54   2.0000      -0.457619       -12.4524
  55   2.0000      -0.448821       -12.2131
  56   2.0000      -0.444993       -12.1089
  57   2.0000      -0.439492       -11.9592
  58   2.0000      -0.431908       -11.7528
  59   2.0000      -0.427180       -11.6242
  60   2.0000      -0.421687       -11.4747
  61   2.0000      -0.404130       -10.9969
  62   2.0000      -0.402943       -10.9646
  63   2.0000      -0.345199        -9.3934
  64   2.0000      -0.335222        -9.1219
  65   2.0000      -0.329465        -8.9652
  66   2.0000      -0.289854        -7.8873
  67   0.0000       0.024411         0.6642
  68   0.0000       0.064683         1.7601
  69   0.0000       0.100035         2.7221
  70   0.0000       0.123741         3.3672
  71   0.0000       0.132953         3.6178

MULLIKEN ATOMIC CHARGES
-----------------------
   0 S :    0.086691
   1 C :   -0.125192
   2 C :   -0.078413
   3 C :    0.027716
   4 C :   -0.155782
   5 H :    0.011183
   6 C :    0.133474
   7 H :    0.032101
   8 H :    0.032626
   9 C :   -0.158672
  10 H :    0.041940
  11 H :    0.040168
  12 C :    0.007843
  13 H :    0.014079
  14 H :    0.040795
  15 H :    0.016758
  16 S :    0.106847
  17 C :   -0.084952
  18 C :   -0.030332
  19 C :   -0.038370
  20 C :   -0.143067
  21 H :    0.025667
  22 C :    0.009285
  23 H :    0.001153
  24 H :    0.027222
  25 C :   -0.059879
  26 H :    0.029567
  27 H :    0.036758
  28 C :    0.000882
  29 H :    0.024355
  30 H :    0.018687
  31 H :    0.029391
  32 H :    0.025691
  33 H :    0.053779
Sum of atomic charges:   -0.0000000

LOEWDIN ATOMIC CHARGES
----------------------
   0 S :    0.370088
   1 C :   -0.163702
   2 C :   -0.057387
   3 C :   -0.072000
   4 C :   -0.182297
   5 H :    0.029828
   6 C :   -0.016339
   7 H :    0.035854
   8 H :    0.027186
   9 C :   -0.050529
  10 H :    0.028820
  11 H :    0.029083
  12 C :   -0.054222
  13 H :    0.019804
  14 H :    0.029066
  15 H :    0.016999
  16 S :    0.397226
  17 C :   -0.176736
  18 C :   -0.064190
  19 C :   -0.061845
  20 C :   -0.199302
  21 H :    0.032539
  22 C :   -0.047558
  23 H :    0.031089
  24 H :    0.028149
  25 C :   -0.029831
  26 H :    0.017140
  27 H :    0.026900
  28 C :   -0.049959
  29 H :    0.013849
  30 H :    0.023692
  31 H :    0.027811
  32 H :    0.012016
  33 H :    0.028758

  Mayer bond orders larger than 0.100000
B(  0-S ,  1-C ) :   1.1136 B(  0-S ,  4-C ) :   1.1674 B(  1-C ,  2-C ) :   1.6136
B(  1-C ,  4-C ) :   0.1069 B(  1-C , 32-H ) :   0.9836 B(  2-C ,  3-C ) :   1.2379
B(  2-C ,  6-C ) :   0.9859 B(  3-C ,  4-C ) :   1.5542 B(  3-C ,  5-H ) :   0.9936
B(  4-C , 20-C ) :   1.0301 B(  6-C ,  7-H ) :   0.9434 B(  6-C ,  8-H ) :   0.9387
B(  6-C ,  9-C ) :   1.0810 B(  9-C , 10-H ) :   0.9518 B(  9-C , 11-H ) :   0.9570
B(  9-C , 12-C ) :   1.0739 B( 12-C , 13-H ) :   0.9746 B( 12-C , 14-H ) :   0.9712
B( 12-C , 15-H ) :   0.9744 B( 16-S , 17-C ) :   1.1529 B( 16-S , 20-C ) :   1.1263
B( 17-C , 18-C ) :   1.5943 B( 17-C , 33-H ) :   0.9696 B( 18-C , 19-C ) :   1.2674
B( 18-C , 21-H ) :   0.9821 B( 19-C , 20-C ) :   1.5980 B( 19-C , 22-C ) :   1.0433
B( 22-C , 23-H ) :   0.9360 B( 22-C , 24-H ) :   0.9237 B( 22-C , 25-C ) :   1.0405
B( 25-C , 26-H ) :   0.9514 B( 25-C , 27-H ) :   0.9612 B( 25-C , 28-C ) :   1.0892
B( 28-C , 29-H ) :   0.9771 B( 28-C , 30-H ) :   0.9741 B( 28-C , 31-H ) :   0.9729

Dispersion correction           -0.014710527
FINAL SINGLE POINT ENERGY     -1339.862882188844

DIPOLE MOMENT
-------------
                                X             Y             Z
Electronic contribution:      6.59160      23.18686       5.96687
Nuclear contribution   :     -6.89177     -23.77812      -6.13718
                        -----------------------------------------
Total Dipole Moment    :     -0.30017      -0.59126      -0.17031
                        -----------------------------------------
Magnitude (a.u.)       :      0.68462
Magnitude (Debye)      :      1.74016

Rotational constants in cm-1:     0.017014     0.009096     0.007474
Rotational constants in MHz :   510.059328   272.699340   224.065273

                             ****ORCA TERMINATED NORMALLY****
TOTAL RUN TIME: 0 days 0 hours 0 minutes 21 seconds 703 msec
