                         Program Version 4.2.1 -  RELEASE  -
|  1> ! wB97X-D3 SP def2-SVP
|  2> %pal
|  3> nprocs 24
|  4> end
|  5>
|  6> * xyz 0 1
|  7> S 	 -48.7376 	 4.27423 	 -21.0587
|  8> C 	 -49.4925 	 2.83757 	 -21.6633
|  9> C 	 -50.6323 	 2.51252 	 -20.9846
| 10> C 	 -50.8351 	 3.32572 	 -19.8288
| 11> C 	 -49.8979 	 4.30902 	 -19.67
| 12> H 	 -51.5786 	 3.18612 	 -19.03
| 13> C 	 -51.4789 	 1.29218 	 -21.2653
| 14> H 	 -50.7849 	 0.7623 	 -21.9092
| 15> H 	 -52.3116 	 1.61877 	 -21.9173
| 16> C 	 -51.9392 	 0.341399 	 -20.1277
| 17> H 	 -51.0705 	 -0.216923 	 -19.7085
| 18> H 	 -52.2651 	 0.804483 	 -19.1966
| 19> C 	 -53.1176 	 -0.577084 	 -20.5903
| 20> H 	 -52.9044 	 -1.41702 	 -21.3065
| 21> H 	 -53.3329 	 -1.1222 	 -19.7025
| 22> H 	 -53.9622 	 -0.0632739 	 -20.9348
| 23> S 	 -49.9044 	 7.07759 	 -19.5524
| 24> C 	 -50.1223 	 7.85381 	 -18.0498
| 25> C 	 -50.0285 	 7.01491 	 -16.9983
| 26> C 	 -49.7825 	 5.61178 	 -17.4009
| 27> C 	 -49.9458 	 5.50698 	 -18.779
| 28> H 	 -50.0921 	 7.33716 	 -15.9878
| 29> C 	 -49.4556 	 4.57367 	 -16.3444
| 30> H 	 -49.825 	 3.64579 	 -16.7895
| 31> H 	 -49.9983 	 4.82951 	 -15.4189
| 32> C 	 -47.9954 	 4.45483 	 -16.1572
| 33> H 	 -47.6116 	 4.20297 	 -17.13
| 34> H 	 -47.9541 	 3.47551 	 -15.6095
| 35> C 	 -47.2024 	 5.53489 	 -15.4459
| 36> H 	 -47.5301 	 5.5952 	 -14.4363
| 37> H 	 -47.5001 	 6.42512 	 -15.9872
| 38> H 	 -46.1498 	 5.29422 	 -15.6155
| 39> H 	 -49.1516 	 2.25694 	 -22.5385
| 40> H 	 -50.4226 	 8.89406 	 -17.8928
| 41> *
| 42>
| 43>                          ****END OF INPUT****

CARTESIAN COORDINATES (ANGSTROEM)
---------------------------------
  S    -48.737600    4.274230  -21.058700
  C    -49.492500    2.837570  -21.663300
  C    -50.632300    2.512520  -20.984600
  C    -50.835100    3.325720  -19.828800
  C    -49.897900    4.309020  -19.670000
  H    -51.578600    3.186120  -19.030000
  C    -51.478900    1.292180  -21.265300
  H    -50.784900    0.762300  -21.909200
  H    -52.311600    1.618770  -21.917300
  C    -51.939200    0.341399  -20.127700
  H    -51.070500   -0.216923  -19.708500
  H    -52.265100    0.804483  -19.196600
  C    -53.117600   -0.577084  -20.590300
  H    -52.904400   -1.417020  -21.306500
  H    -53.332900   -1.122200  -19.702500
  H    -53.962200   -0.063274  -20.934800
  S    -49.904400    7.077590  -19.552400
  C    -50.122300    7.853810  -18.049800
  C    -50.028500    7.014910  -16.998300
  C    -49.782500    5.611780  -17.400900
  C    -49.945800    5.506980  -18.779000
  H    -50.092100    7.337160  -15.987800
  C    -49.455600    4.573670  -16.344400
  H    -49.825000    3.645790  -16.789500
  H    -49.998300    4.829510  -15.418900
  C    -47.995400    4.454830  -16.157200
  H    -47.611600    4.202970  -17.130000
  H    -47.954100    3.475510  -15.609500
  C    -47.202400    5.534890  -15.445900
  H    -47.530100    5.595200  -14.436300
  H    -47.500100    6.425120  -15.987200
  H    -46.149800    5.294220  -15.615500
  H    -49.151600    2.256940  -22.538500
  H    -50.422600    8.894060  -17.892800

 Total Charge           Charge          ....    0
 Multiplicity           Mult            ....    1
 Number of Electrons    NEL             ....  134
 Basis Dimension        Dim             ....  322

ORBITAL ENERGIES
----------------

  NO   OCC          E(Eh)            E(eV)
   0   2.0000     -88.963917     -2420.8313
   1   2.0000     -88.962561     -2420.7944
   2   2.0000     -10.331993      -281.1478
   3   2.0000     -10.327699      -281.0310
   4   2.0000     -10.313206      -280.6366
   5   2.0000     -10.309819      -280.5444
   6   2.0000     -10.303643      -280.3764
   7   2.0000     -10.297260      -280.2027
   8   2.0000     -10.297130      -280.1992
   9   2.0000     -10.294201      -280.1195
  10   2.0000     -10.292979      -280.0862
  11   2.0000     -10.289506      -279.9917
  12   2.0000     -10.287896      -279.9479
  13   2.0000     -10.278707      -279.6978
  14   2.0000     -10.277197      -279.6568
  15   2.0000     -10.272928      -279.5406
  16   2.0000      -8.078367      -219.8235
  17   2.0000      -8.078223      -219.8196
  18   2.0000      -6.037012      -164.2755
  19   2.0000      -6.036747      -164.2682
  20   2.0000      -6.032884      -164.1631
  21   2.0000      -6.032871      -164.1628
  22   2.0000      -6.028905      -164.0548
  23   2.0000      -6.028750      -164.0506
  24   2.0000      -1.005087       -27.3498
  25   2.0000      -0.985425       -26.8148
  26   2.0000      -0.919871       -25.0310
  27   2.0000      -0.905116       -24.6294
  28   2.0000      -0.867856       -23.6156
  29   2.0000      -0.849489       -23.1158
  30   2.0000      -0.844108       -22.9693
  31   2.0000      -0.820274       -22.3208
  32   2.0000      -0.788457       -21.4550
  33   2.0000      -0.771001       -20.9800
  34   2.0000      -0.713038       -19.4027
  35   2.0000      -0.697825       -18.9888
  36   2.0000      -0.681937       -18.5565
  37   2.0000      -0.658950       -17.9309
  38   2.0000      -0.639005       -17.3882
  39   2.0000      -0.617096       -16.7920
  40   2.0000      -0.594698       -16.1826
  41   2.0000      -0.569194       -15.4886
  42   2.0000      -0.557716       -15.1762
  43   2.0000      -0.551732       -15.0134
  44   2.0000      -0.547111       -14.8876
  45   2.0000      -0.526434       -14.3250
  46   2.0000      -0.525214       -14.2918
  47   2.0000      -0.506324       -13.7778
  48   2.0000      -0.500449       -13.6179
  49   2.0000      -0.497169       -13.5286
  50   2.0000      -0.491753       -13.3813
  51   2.0000      -0.481563       -13.1040
  52   2.0000      -0.471930       -12.8419
  53   2.0000      -0.467560       -12.7230
  54   2.0000      -0.462130       -12.5752
  55   2.0000      -0.448686       -12.2094
  56   2.0000      -0.446423       -12.1478
  57   2.0000      -0.438902       -11.9431
  58   2.0000      -0.435738       -11.8570
  59   2.0000      -0.424984       -11.5644
  60   2.0000      -0.416897       -11.3444
  61   2.0000      -0.414703       -11.2846
  62   2.0000      -0.397290       -10.8108
  63   2.0000      -0.348565        -9.4849
  64   2.0000      -0.327903        -8.9227
  65   2.0000      -0.325994        -8.8707
  66   2.0000      -0.294457        -8.0126
  67   0.0000       0.039447         1.0734
  68   0.0000       0.060963         1.6589
  69   0.0000       0.112633         3.0649
  70   0.0000       0.125514         3.4154
  71   0.0000       0.133471         3.6319

MULLIKEN ATOMIC CHARGES
-----------------------
   0 S :    0.091369
   1 C :   -0.126040
   2 C :   -0.096956
   3 C :    0.031554
   4 C :   -0.161353
   5 H :    0.025286
   6 C :    0.084051
   7 H :    0.013230
   8 H :    0.045064
   9 C :   -0.088871
  10 H :    0.034750
  11 H :    0.027598
  12 C :   -0.044877
  13 H :    0.038497
  14 H :    0.021242
  15 H :    0.032846
  16 S :    0.112881
  17 C :   -0.079910
  18 C :   -0.027078
  19 C :   -0.089983
  20 C :   -0.167166
  21 H :    0.004583
  22 C :    0.102802
  23 H :    0.017185
  24 H :    0.024819
  25 C :   -0.100591
  26 H :    0.018402
  27 H :    0.021977
  28 C :    0.013234
  29 H :    0.025969
  30 H :    0.030568
  31 H :    0.048555
  32 H :    0.056512
  33 H :    0.059851
Sum of atomic charges:   -0.0000000

LOEWDIN ATOMIC CHARGES
----------------------
   0 S :    0.376998
   1 C :   -0.203552
   2 C :   -0.071803
   3 C :   -0.061843
   4 C :   -0.175500
   5 H :    0.036665
   6 C :   -0.037202
   7 H :    0.031576
   8 H :    0.037120
   9 C :   -0.041675
  10 H :    0.032002
  11 H :    0.021966
  12 C :   -0.061986
  13 H :    0.031258
  14 H :    0.024809
  15 H :    0.018376
  16 S :    0.414221
  17 C :   -0.200310
  18 C :   -0.074331
  19 C :   -0.049972
  20 C :   -0.203963
  21 H :    0.023148
  22 C :   -0.032021
  23 H :    0.034642
  24 H :    0.029543
  25 C :   -0.046280
  26 H :    0.023337
  27 H :    0.025408
  28 C :   -0.056426
  29 H :    0.021557
  30 H :    0.027808
  31 H :    0.035637
  32 H :    0.035069
  33 H :    0.035727

  Mayer bond orders larger than 0.100000
B(  0-S ,  1-C ) :   1.1302 B(  0-S ,  4-C ) :   1.1295 B(  1-C ,  2-C ) :   1.6460
B(  1-C , 32-H ) :   0.9563 B(  2-C ,  3-C ) :   1.2195 B(  2-C ,  6-C ) :   1.0104
B(  3-C ,  4-C ) :   1.6240 B(  3-C ,  5-H ) :   0.9856 B(  4-C , 20-C ) :   1.0071
B(  6-C ,  7-H ) :   0.9430 B(  6-C ,  8-H ) :   0.9355 B(  6-C ,  9-C ) :   1.0526
B(  9-C , 10-H ) :   0.9547 B(  9-C , 11-H ) :   0.9599 B(  9-C , 12-C ) :   1.0723
B( 12-C , 13-H ) :   0.9777 B( 12-C , 14-H ) :   0.9734 B( 12-C , 15-H ) :   0.9788
B( 16-S , 17-C ) :   1.1445 B( 16-S , 20-C ) :   1.1338 B( 17-C , 18-C ) :   1.6448
B( 17-C , 33-H ) :   0.9603 B( 18-C , 19-C ) :   1.2007 B( 18-C , 21-H ) :   0.9923
B( 19-C , 20-C ) :   1.6320 B( 19-C , 22-C ) :   1.0361 B( 22-C , 23-H ) :   0.9183
B( 22-C , 24-H ) :   0.9355 B( 22-C , 25-C ) :   1.0906 B( 25-C , 26-H ) :   0.9485
B( 25-C , 27-H ) :   0.9504 B( 25-C , 28-C ) :   1.0693 B( 28-C , 29-H ) :   0.9725
B( 28-C , 30-H ) :   0.9714 B( 28-C , 31-H ) :   0.9703

Dispersion correction           -0.014017580
FINAL SINGLE POINT ENERGY     -1339.865935760207

DIPOLE MOMENT
-------------
                                X             Y             Z
Electronic contribution:      4.99112      20.07671     -12.58787
Nuclear contribution   :     -5.28009     -20.53699      13.00424
                        -----------------------------------------
Total Dipole Moment    :     -0.28897      -0.46028       0.41638
                        -----------------------------------------
Magnitude (a.u.)       :      0.68464
Magnitude (Debye)      :      1.74021

Rotational constants in cm-1:     0.020452     0.007468     0.006620
Rotational constants in MHz :   613.130430   223.875106   198.470486

                             ****ORCA TERMINATED NORMALLY****
TOTAL RUN TIME: 0 days 0 hours 0 minutes 21 seconds 276 msec
