                         Program Version 4.2.1 -  RELEASE  -
|  1> ! wB97X-D3 SP def2-SVP
|  2> %pal
|  3> nprocs 24
|  4> end
|  5>
|  6> * xyz 0 1
|  7> S 	 7.26238 	 -14.9141 	 -113.045
|  8> C 	 5.80988 	 -15.3157 	 -113.965
|  9> C 	 5.26515 	 -16.4958 	 -113.548
| 10> C 	 6.07312 	 -17.1928 	 -112.602
| 11> C 	 7.17065 	 -16.4685 	 -112.234
| 12> H 	 5.77135 	 -18.1274 	 -112.044
| 13> C 	 3.88268 	 -16.9704 	 -114.013
| 14> H 	 3.5189 	 -16.1039 	 -114.554
| 15> H 	 3.15717 	 -17.0284 	 -113.131
| 16> C 	 3.8387 	 -18.3582 	 -114.7
| 17> H 	 4.58283 	 -18.4567 	 -115.473
| 18> H 	 4.19339 	 -19.0742 	 -113.917
| 19> C 	 2.42639 	 -18.7578 	 -115.164
| 20> H 	 2.44975 	 -19.8534 	 -115.19
| 21> H 	 1.63313 	 -18.4378 	 -114.471
| 22> H 	 2.14018 	 -18.2683 	 -116.113
| 23> S 	 9.20699 	 -18.2914 	 -111.777
| 24> C 	 9.80845 	 -18.4974 	 -110.133
| 25> C 	 9.3348 	 -17.4779 	 -109.329
| 26> C 	 8.31272 	 -16.635 	 -109.929
| 27> C 	 8.14227 	 -17.0271 	 -111.262
| 28> H 	 9.63357 	 -17.2663 	 -108.356
| 29> C 	 7.42362 	 -15.6793 	 -109.207
| 30> H 	 6.85611 	 -14.9794 	 -109.859
| 31> H 	 8.11262 	 -15.0786 	 -108.579
| 32> C 	 6.2612 	 -16.2722 	 -108.388
| 33> H 	 5.77036 	 -15.4481 	 -107.855
| 34> H 	 6.63635 	 -16.8556 	 -107.518
| 35> C 	 5.33462 	 -17.1935 	 -109.19
| 36> H 	 4.47048 	 -17.6842 	 -108.657
| 37> H 	 5.93374 	 -17.9608 	 -109.757
| 38> H 	 4.87297 	 -16.5838 	 -109.929
| 39> H 	 5.35702 	 -14.6892 	 -114.674
| 40> H 	 10.7654 	 -18.9319 	 -109.857
| 41> *
| 42>
| 43>                          ****END OF INPUT****

CARTESIAN COORDINATES (ANGSTROEM)
---------------------------------
  S      7.262380  -14.914100  -113.045000
  C      5.809880  -15.315700  -113.965000
  C      5.265150  -16.495800  -113.548000
  C      6.073120  -17.192800  -112.602000
  C      7.170650  -16.468500  -112.234000
  H      5.771350  -18.127400  -112.044000
  C      3.882680  -16.970400  -114.013000
  H      3.518900  -16.103900  -114.554000
  H      3.157170  -17.028400  -113.131000
  C      3.838700  -18.358200  -114.700000
  H      4.582830  -18.456700  -115.473000
  H      4.193390  -19.074200  -113.917000
  C      2.426390  -18.757800  -115.164000
  H      2.449750  -19.853400  -115.190000
  H      1.633130  -18.437800  -114.471000
  H      2.140180  -18.268300  -116.113000
  S      9.206990  -18.291400  -111.777000
  C      9.808450  -18.497400  -110.133000
  C      9.334800  -17.477900  -109.329000
  C      8.312720  -16.635000  -109.929000
  C      8.142270  -17.027100  -111.262000
  H      9.633570  -17.266300  -108.356000
  C      7.423620  -15.679300  -109.207000
  H      6.856110  -14.979400  -109.859000
  H      8.112620  -15.078600  -108.579000
  C      6.261200  -16.272200  -108.388000
  H      5.770360  -15.448100  -107.855000
  H      6.636350  -16.855600  -107.518000
  C      5.334620  -17.193500  -109.190000
  H      4.470480  -17.684200  -108.657000
  H      5.933740  -17.960800  -109.757000
  H      4.872970  -16.583800  -109.929000
  H      5.357020  -14.689200  -114.674000
  H     10.765400  -18.931900  -109.857000

 Total Charge           Charge          ....    0
 Multiplicity           Mult            ....    1
 Number of Electrons    NEL             ....  134
 Basis Dimension        Dim             ....  322

ORBITAL ENERGIES
----------------

  NO   OCC          E(Eh)            E(eV)
   0   2.0000     -88.969356     -2420.9793
   1   2.0000     -88.968648     -2420.9600
   2   2.0000     -10.327564      -281.0273
   3   2.0000     -10.326466      -280.9974
   4   2.0000     -10.316335      -280.7218
   5   2.0000     -10.310248      -280.5561
   6   2.0000     -10.302168      -280.3362
   7   2.0000     -10.298188      -280.2279
   8   2.0000     -10.297133      -280.1992
   9   2.0000     -10.295809      -280.1632
  10   2.0000     -10.294401      -280.1249
  11   2.0000     -10.293454      -280.0991
  12   2.0000     -10.290475      -280.0181
  13   2.0000     -10.288489      -279.9640
  14   2.0000     -10.283489      -279.8280
  15   2.0000     -10.278227      -279.6848
  16   2.0000      -8.083417      -219.9610
  17   2.0000      -8.083142      -219.9535
  18   2.0000      -6.041955      -164.4100
  19   2.0000      -6.041643      -164.4015
  20   2.0000      -6.038147      -164.3063
  21   2.0000      -6.037707      -164.2944
  22   2.0000      -6.034060      -164.1951
  23   2.0000      -6.033886      -164.1904
  24   2.0000      -1.005776       -27.3686
  25   2.0000      -0.983825       -26.7712
  26   2.0000      -0.908779       -24.7291
  27   2.0000      -0.905554       -24.6414
  28   2.0000      -0.868520       -23.6336
  29   2.0000      -0.849110       -23.1055
  30   2.0000      -0.843879       -22.9631
  31   2.0000      -0.816044       -22.2057
  32   2.0000      -0.780250       -21.2317
  33   2.0000      -0.769621       -20.9424
  34   2.0000      -0.708229       -19.2719
  35   2.0000      -0.697249       -18.9731
  36   2.0000      -0.690316       -18.7845
  37   2.0000      -0.664080       -18.0705
  38   2.0000      -0.638677       -17.3793
  39   2.0000      -0.614223       -16.7139
  40   2.0000      -0.593832       -16.1590
  41   2.0000      -0.568015       -15.4565
  42   2.0000      -0.554975       -15.1016
  43   2.0000      -0.551665       -15.0116
  44   2.0000      -0.545263       -14.8374
  45   2.0000      -0.528683       -14.3862
  46   2.0000      -0.508908       -13.8481
  47   2.0000      -0.505575       -13.7574
  48   2.0000      -0.499327       -13.5874
  49   2.0000      -0.493495       -13.4287
  50   2.0000      -0.489932       -13.3317
  51   2.0000      -0.473896       -12.8954
  52   2.0000      -0.471219       -12.8225
  53   2.0000      -0.462419       -12.5831
  54   2.0000      -0.459400       -12.5009
  55   2.0000      -0.448203       -12.1962
  56   2.0000      -0.446864       -12.1598
  57   2.0000      -0.440349       -11.9825
  58   2.0000      -0.438870       -11.9423
  59   2.0000      -0.422125       -11.4866
  60   2.0000      -0.419238       -11.4080
  61   2.0000      -0.414988       -11.2924
  62   2.0000      -0.404743       -11.0136
  63   2.0000      -0.336704        -9.1622
  64   2.0000      -0.333833        -9.0841
  65   2.0000      -0.327071        -8.9001
  66   2.0000      -0.304588        -8.2883
  67   0.0000       0.041209         1.1213
  68   0.0000       0.056831         1.5464
  69   0.0000       0.105039         2.8583
  70   0.0000       0.114357         3.1118
  71   0.0000       0.132124         3.5953

MULLIKEN ATOMIC CHARGES
-----------------------
   0 S :    0.118811
   1 C :   -0.116756
   2 C :   -0.075792
   3 C :    0.006364
   4 C :   -0.152713
   5 H :    0.044695
   6 C :    0.056193
   7 H :    0.005359
   8 H :    0.038818
   9 C :   -0.090408
  10 H :    0.033343
  11 H :    0.032473
  12 C :   -0.038878
  13 H :    0.041996
  14 H :    0.026954
  15 H :    0.041444
  16 S :    0.125917
  17 C :   -0.078934
  18 C :   -0.016539
  19 C :   -0.043120
  20 C :   -0.201925
  21 H :   -0.008285
  22 C :    0.053951
  23 H :    0.032022
  24 H :    0.032507
  25 C :   -0.065882
  26 H :    0.030935
  27 H :    0.018905
  28 C :   -0.068394
  29 H :    0.045254
  30 H :    0.053649
  31 H :    0.022316
  32 H :    0.026929
  33 H :    0.068792
Sum of atomic charges:   -0.0000000

LOEWDIN ATOMIC CHARGES
----------------------
   0 S :    0.397392
   1 C :   -0.185343
   2 C :   -0.064482
   3 C :   -0.066762
   4 C :   -0.195075
   5 H :    0.043010
   6 C :   -0.035757
   7 H :    0.022739
   8 H :    0.037461
   9 C :   -0.043698
  10 H :    0.022965
  11 H :    0.028145
  12 C :   -0.067407
  13 H :    0.031021
  14 H :    0.025663
  15 H :    0.029113
  16 S :    0.418066
  17 C :   -0.200476
  18 C :   -0.050441
  19 C :   -0.062240
  20 C :   -0.200010
  21 H :    0.017607
  22 C :   -0.037686
  23 H :    0.033690
  24 H :    0.036521
  25 C :   -0.043349
  26 H :    0.025984
  27 H :    0.019236
  28 C :   -0.072390
  29 H :    0.033710
  30 H :    0.032411
  31 H :    0.017402
  32 H :    0.017979
  33 H :    0.035002

  Mayer bond orders larger than 0.100000
B(  0-S ,  1-C ) :   1.1222 B(  0-S ,  4-C ) :   1.1418 B(  1-C ,  2-C ) :   1.6393
B(  1-C , 32-H ) :   0.9702 B(  2-C ,  3-C ) :   1.2224 B(  2-C ,  6-C ) :   1.0260
B(  3-C ,  4-C ) :   1.5991 B(  3-C ,  5-H ) :   0.9781 B(  4-C , 20-C ) :   1.0063
B(  6-C ,  7-H ) :   0.9419 B(  6-C ,  8-H ) :   0.9377 B(  6-C ,  9-C ) :   1.0453
B(  9-C , 10-H ) :   0.9592 B(  9-C , 11-H ) :   0.9562 B(  9-C , 12-C ) :   1.0760
B( 12-C , 13-H ) :   0.9759 B( 12-C , 14-H ) :   0.9735 B( 12-C , 15-H ) :   0.9760
B( 16-S , 17-C ) :   1.1337 B( 16-S , 20-C ) :   1.1732 B( 17-C , 18-C ) :   1.6157
B( 17-C , 33-H ) :   0.9588 B( 18-C , 19-C ) :   1.2471 B( 18-C , 21-H ) :   0.9887
B( 19-C , 20-C ) :   1.5750 B( 19-C , 22-C ) :   1.0618 B( 22-C , 23-H ) :   0.9310
B( 22-C , 24-H ) :   0.9248 B( 22-C , 25-C ) :   1.0687 B( 25-C , 26-H ) :   0.9565
B( 25-C , 27-H ) :   0.9540 B( 25-C , 28-C ) :   1.0654 B( 28-C , 29-H ) :   0.9715
B( 28-C , 30-H ) :   0.9687 B( 28-C , 31-H ) :   0.9725

Dispersion correction           -0.015826473
FINAL SINGLE POINT ENERGY     -1339.881122098601

DIPOLE MOMENT
-------------
                                X             Y             Z
Electronic contribution:     23.98231       5.71021      -3.34498
Nuclear contribution   :    -24.43415      -5.66153       3.57491
                        -----------------------------------------
Total Dipole Moment    :     -0.45183       0.04868       0.22993
                        -----------------------------------------
Magnitude (a.u.)       :      0.50931
Magnitude (Debye)      :      1.29456

Rotational constants in cm-1:     0.019905     0.008099     0.007833
Rotational constants in MHz :   596.741819   242.788512   234.826019

                             ****ORCA TERMINATED NORMALLY****
TOTAL RUN TIME: 0 days 0 hours 0 minutes 21 seconds 279 msec
