                         Program Version 4.2.1 -  RELEASE  -
|  1> ! wB97X-D3 SP def2-SVP
|  2> %pal
|  3> nprocs 24
|  4> end
|  5>
|  6> * xyz 0 1
|  7> S 	 -138.444 	 7.12874 	 -14.4956
|  8> C 	 -138.983 	 8.73534 	 -14.0318
|  9> C 	 -138.035 	 9.67793 	 -14.3946
| 10> C 	 -136.911 	 9.13698 	 -15.0019
| 11> C 	 -136.909 	 7.73317 	 -15.0283
| 12> H 	 -136.03 	 9.65068 	 -15.436
| 13> C 	 -138.166 	 11.1671 	 -14.2093
| 14> H 	 -137.336 	 11.6959 	 -14.7033
| 15> H 	 -137.963 	 11.4304 	 -13.1635
| 16> C 	 -139.567 	 11.7757 	 -14.4043
| 17> H 	 -139.737 	 11.6172 	 -15.445
| 18> H 	 -140.353 	 11.2507 	 -13.8936
| 19> C 	 -139.765 	 13.2826 	 -13.9389
| 20> H 	 -140.767 	 13.6146 	 -14.1777
| 21> H 	 -139.802 	 13.4256 	 -12.8944
| 22> H 	 -138.962 	 13.9156 	 -14.2207
| 23> S 	 -136.389 	 5.57281 	 -16.5327
| 24> C 	 -134.772 	 5.14951 	 -16.9067
| 25> C 	 -133.825 	 5.84242 	 -16.1482
| 26> C 	 -134.474 	 6.81703 	 -15.2629
| 27> C 	 -135.88 	 6.82392 	 -15.4494
| 28> H 	 -132.742 	 5.62531 	 -16.2297
| 29> C 	 -133.764 	 7.77102 	 -14.4374
| 30> H 	 -134.374 	 8.75361 	 -14.3521
| 31> H 	 -132.865 	 8.04609 	 -14.8471
| 32> C 	 -133.616 	 7.27858 	 -13.0038
| 33> H 	 -133.277 	 6.23676 	 -12.9315
| 34> H 	 -134.525 	 7.40663 	 -12.4646
| 35> C 	 -132.503 	 7.94815 	 -12.2893
| 36> H 	 -132.474 	 7.69583 	 -11.2145
| 37> H 	 -132.567 	 8.97443 	 -12.4303
| 38> H 	 -131.529 	 7.68046 	 -12.7541
| 39> H 	 -139.897 	 9.0708 	 -13.5491
| 40> H 	 -134.577 	 4.32137 	 -17.5825
| 41> *
| 42>
| 43>                          ****END OF INPUT****

CARTESIAN COORDINATES (ANGSTROEM)
---------------------------------
  S    -138.444000    7.128740  -14.495600
  C    -138.983000    8.735340  -14.031800
  C    -138.035000    9.677930  -14.394600
  C    -136.911000    9.136980  -15.001900
  C    -136.909000    7.733170  -15.028300
  H    -136.030000    9.650680  -15.436000
  C    -138.166000   11.167100  -14.209300
  H    -137.336000   11.695900  -14.703300
  H    -137.963000   11.430400  -13.163500
  C    -139.567000   11.775700  -14.404300
  H    -139.737000   11.617200  -15.445000
  H    -140.353000   11.250700  -13.893600
  C    -139.765000   13.282600  -13.938900
  H    -140.767000   13.614600  -14.177700
  H    -139.802000   13.425600  -12.894400
  H    -138.962000   13.915600  -14.220700
  S    -136.389000    5.572810  -16.532700
  C    -134.772000    5.149510  -16.906700
  C    -133.825000    5.842420  -16.148200
  C    -134.474000    6.817030  -15.262900
  C    -135.880000    6.823920  -15.449400
  H    -132.742000    5.625310  -16.229700
  C    -133.764000    7.771020  -14.437400
  H    -134.374000    8.753610  -14.352100
  H    -132.865000    8.046090  -14.847100
  C    -133.616000    7.278580  -13.003800
  H    -133.277000    6.236760  -12.931500
  H    -134.525000    7.406630  -12.464600
  C    -132.503000    7.948150  -12.289300
  H    -132.474000    7.695830  -11.214500
  H    -132.567000    8.974430  -12.430300
  H    -131.529000    7.680460  -12.754100
  H    -139.897000    9.070800  -13.549100
  H    -134.577000    4.321370  -17.582500

 Total Charge           Charge          ....    0
 Multiplicity           Mult            ....    1
 Number of Electrons    NEL             ....  134
 Basis Dimension        Dim             ....  322

ORBITAL ENERGIES
----------------

  NO   OCC          E(Eh)            E(eV)
   0   2.0000     -88.968919     -2420.9674
   1   2.0000     -88.964731     -2420.8534
   2   2.0000     -10.328377      -281.0494
   3   2.0000     -10.323831      -280.9257
   4   2.0000     -10.318362      -280.7769
   5   2.0000     -10.311987      -280.6034
   6   2.0000     -10.307629      -280.4848
   7   2.0000     -10.303563      -280.3742
   8   2.0000     -10.297346      -280.2050
   9   2.0000     -10.292762      -280.0803
  10   2.0000     -10.292035      -280.0605
  11   2.0000     -10.287985      -279.9503
  12   2.0000     -10.284878      -279.8657
  13   2.0000     -10.276903      -279.6488
  14   2.0000     -10.274525      -279.5840
  15   2.0000     -10.268667      -279.4246
  16   2.0000      -8.083447      -219.9618
  17   2.0000      -8.080739      -219.8881
  18   2.0000      -6.041907      -164.4086
  19   2.0000      -6.039044      -164.3307
  20   2.0000      -6.037905      -164.2997
  21   2.0000      -6.035046      -164.2220
  22   2.0000      -6.034361      -164.2033
  23   2.0000      -6.031664      -164.1299
  24   2.0000      -1.010934       -27.5089
  25   2.0000      -0.986042       -26.8316
  26   2.0000      -0.922621       -25.1058
  27   2.0000      -0.910218       -24.7683
  28   2.0000      -0.868307       -23.6278
  29   2.0000      -0.859739       -23.3947
  30   2.0000      -0.848164       -23.0797
  31   2.0000      -0.812790       -22.1172
  32   2.0000      -0.786450       -21.4004
  33   2.0000      -0.770535       -20.9673
  34   2.0000      -0.715665       -19.4742
  35   2.0000      -0.703034       -19.1305
  36   2.0000      -0.691547       -18.8180
  37   2.0000      -0.666189       -18.1279
  38   2.0000      -0.636428       -17.3181
  39   2.0000      -0.617800       -16.8112
  40   2.0000      -0.601044       -16.3552
  41   2.0000      -0.573251       -15.5990
  42   2.0000      -0.569622       -15.5002
  43   2.0000      -0.555900       -15.1268
  44   2.0000      -0.533642       -14.5211
  45   2.0000      -0.525982       -14.3127
  46   2.0000      -0.520627       -14.1670
  47   2.0000      -0.518129       -14.0990
  48   2.0000      -0.508501       -13.8370
  49   2.0000      -0.501869       -13.6565
  50   2.0000      -0.490680       -13.3521
  51   2.0000      -0.483205       -13.1487
  52   2.0000      -0.477211       -12.9856
  53   2.0000      -0.460497       -12.5308
  54   2.0000      -0.456305       -12.4167
  55   2.0000      -0.450250       -12.2519
  56   2.0000      -0.446896       -12.1607
  57   2.0000      -0.439816       -11.9680
  58   2.0000      -0.437398       -11.9022
  59   2.0000      -0.428627       -11.6635
  60   2.0000      -0.421919       -11.4810
  61   2.0000      -0.412943       -11.2367
  62   2.0000      -0.410182       -11.1616
  63   2.0000      -0.348122        -9.4729
  64   2.0000      -0.333355        -9.0710
  65   2.0000      -0.326596        -8.8871
  66   2.0000      -0.282603        -7.6900
  67   0.0000       0.025444         0.6924
  68   0.0000       0.070485         1.9180
  69   0.0000       0.106486         2.8976
  70   0.0000       0.115639         3.1467
  71   0.0000       0.143539         3.9059

MULLIKEN ATOMIC CHARGES
-----------------------
   0 S :    0.119040
   1 C :   -0.117375
   2 C :   -0.067326
   3 C :    0.000139
   4 C :   -0.156726
   5 H :    0.033516
   6 C :    0.077334
   7 H :    0.021102
   8 H :    0.024745
   9 C :   -0.090729
  10 H :    0.031900
  11 H :    0.025279
  12 C :   -0.023567
  13 H :    0.030606
  14 H :    0.012232
  15 H :    0.028197
  16 S :    0.111623
  17 C :   -0.095750
  18 C :   -0.041889
  19 C :   -0.031361
  20 C :   -0.157545
  21 H :    0.035358
  22 C :    0.068705
  23 H :    0.031690
  24 H :   -0.007475
  25 C :   -0.060460
  26 H :    0.027956
  27 H :    0.032183
  28 C :   -0.030166
  29 H :    0.040896
  30 H :    0.002977
  31 H :    0.021953
  32 H :    0.040386
  33 H :    0.062553
Sum of atomic charges:   -0.0000000

LOEWDIN ATOMIC CHARGES
----------------------
   0 S :    0.417881
   1 C :   -0.206766
   2 C :   -0.065306
   3 C :   -0.074613
   4 C :   -0.196793
   5 H :    0.037625
   6 C :   -0.037598
   7 H :    0.031622
   8 H :    0.033356
   9 C :   -0.034172
  10 H :    0.021203
  11 H :    0.020704
  12 C :   -0.061692
  13 H :    0.030400
  14 H :    0.020352
  15 H :    0.020999
  16 S :    0.429638
  17 C :   -0.194556
  18 C :   -0.073557
  19 C :   -0.044848
  20 C :   -0.213736
  21 H :    0.038741
  22 C :   -0.035020
  23 H :    0.044910
  24 H :    0.015748
  25 C :   -0.035790
  26 H :    0.026626
  27 H :    0.023370
  28 C :   -0.061391
  29 H :    0.030367
  30 H :    0.009035
  31 H :    0.024936
  32 H :    0.030109
  33 H :    0.028217

  Mayer bond orders larger than 0.100000
B(  0-S ,  1-C ) :   1.1328 B(  0-S ,  4-C ) :   1.1738 B(  1-C ,  2-C ) :   1.5910
B(  1-C ,  4-C ) :   0.1128 B(  1-C , 32-H ) :   0.9674 B(  2-C ,  3-C ) :   1.2737
B(  2-C ,  6-C ) :   1.0234 B(  3-C ,  4-C ) :   1.5368 B(  3-C ,  5-H ) :   0.9822
B(  4-C , 20-C ) :   1.0464 B(  6-C ,  7-H ) :   0.9439 B(  6-C ,  8-H ) :   0.9284
B(  6-C ,  9-C ) :   1.0497 B(  9-C , 10-H ) :   0.9654 B(  9-C , 11-H ) :   0.9532
B(  9-C , 12-C ) :   1.0758 B( 12-C , 13-H ) :   0.9737 B( 12-C , 14-H ) :   0.9714
B( 12-C , 15-H ) :   0.9790 B( 16-S , 17-C ) :   1.1785 B( 16-S , 20-C ) :   1.1497
B( 17-C , 18-C ) :   1.5833 B( 17-C , 33-H ) :   0.9686 B( 18-C , 19-C ) :   1.2360
B( 18-C , 21-H ) :   0.9894 B( 19-C , 20-C ) :   1.5616 B( 19-C , 22-C ) :   1.0757
B( 22-C , 23-H ) :   0.9200 B( 22-C , 24-H ) :   0.9302 B( 22-C , 25-C ) :   1.0547
B( 25-C , 26-H ) :   0.9626 B( 25-C , 27-H ) :   0.9520 B( 25-C , 28-C ) :   1.0872
B( 28-C , 29-H ) :   0.9715 B( 28-C , 30-H ) :   0.9666 B( 28-C , 31-H ) :   0.9757

Dispersion correction           -0.013577045
FINAL SINGLE POINT ENERGY     -1339.864271925303

DIPOLE MOMENT
-------------
                                X             Y             Z
Electronic contribution:     -6.83876     -23.95819     -13.05981
Nuclear contribution   :      7.19800      24.42922      13.22689
                        -----------------------------------------
Total Dipole Moment    :      0.35924       0.47102       0.16708
                        -----------------------------------------
Magnitude (a.u.)       :      0.61549
Magnitude (Debye)      :      1.56446

Rotational constants in cm-1:     0.019850     0.007706     0.006177
Rotational constants in MHz :   595.083282   231.016221   185.191312

                             ****ORCA TERMINATED NORMALLY****
TOTAL RUN TIME: 0 days 0 hours 0 minutes 21 seconds 267 msec
