                         Program Version 4.2.1 -  RELEASE  -
|  1> ! wB97X-D3 SP def2-SVP
|  2> %pal
|  3> nprocs 24
|  4> end
|  5>
|  6> * xyz 0 1
|  7> S 	 -125.972 	 62.8515 	 -43.6363
|  8> C 	 -124.77 	 62.9272 	 -44.8802
|  9> C 	 -124.259 	 64.2018 	 -45.0496
| 10> C 	 -124.837 	 65.1224 	 -44.1465
| 11> C 	 -125.755 	 64.5673 	 -43.2697
| 12> H 	 -124.743 	 66.1949 	 -44.0041
| 13> C 	 -123.079 	 64.5601 	 -45.8875
| 14> H 	 -122.392 	 63.7741 	 -45.7214
| 15> H 	 -122.606 	 65.4812 	 -45.5379
| 16> C 	 -123.297 	 64.8321 	 -47.3488
| 17> H 	 -122.378 	 64.7478 	 -47.8961
| 18> H 	 -123.874 	 63.9472 	 -47.7313
| 19> C 	 -123.902 	 66.3258 	 -47.6843
| 20> H 	 -124.316 	 66.3844 	 -48.6785
| 21> H 	 -124.653 	 66.6217 	 -46.9693
| 22> H 	 -123.087 	 66.9199 	 -47.6918
| 23> S 	 -126.189 	 64.38 	 -40.6102
| 24> C 	 -126.669 	 65.7956 	 -39.7418
| 25> C 	 -126.768 	 66.9201 	 -40.5342
| 26> C 	 -126.646 	 66.5381 	 -41.8919
| 27> C 	 -126.311 	 65.2523 	 -42.1442
| 28> H 	 -126.978 	 67.8979 	 -40.0221
| 29> C 	 -126.757 	 67.6876 	 -42.8945
| 30> H 	 -125.76 	 67.9082 	 -43.2397
| 31> H 	 -126.987 	 68.6089 	 -42.4049
| 32> C 	 -127.871 	 67.5406 	 -43.928
| 33> H 	 -128.892 	 67.4674 	 -43.3717
| 34> H 	 -127.699 	 66.6078 	 -44.5275
| 35> C 	 -128.064 	 68.7418 	 -44.9499
| 36> H 	 -127.068 	 68.9663 	 -45.3736
| 37> H 	 -128.327 	 69.6052 	 -44.4157
| 38> H 	 -128.791 	 68.5787 	 -45.7947
| 39> H 	 -124.47 	 62.0453 	 -45.4872
| 40> H 	 -126.756 	 65.7576 	 -38.6224
| 41> *
| 42>
| 43>                          ****END OF INPUT****

CARTESIAN COORDINATES (ANGSTROEM)
---------------------------------
  S    -125.972000   62.851500  -43.636300
  C    -124.770000   62.927200  -44.880200
  C    -124.259000   64.201800  -45.049600
  C    -124.837000   65.122400  -44.146500
  C    -125.755000   64.567300  -43.269700
  H    -124.743000   66.194900  -44.004100
  C    -123.079000   64.560100  -45.887500
  H    -122.392000   63.774100  -45.721400
  H    -122.606000   65.481200  -45.537900
  C    -123.297000   64.832100  -47.348800
  H    -122.378000   64.747800  -47.896100
  H    -123.874000   63.947200  -47.731300
  C    -123.902000   66.325800  -47.684300
  H    -124.316000   66.384400  -48.678500
  H    -124.653000   66.621700  -46.969300
  H    -123.087000   66.919900  -47.691800
  S    -126.189000   64.380000  -40.610200
  C    -126.669000   65.795600  -39.741800
  C    -126.768000   66.920100  -40.534200
  C    -126.646000   66.538100  -41.891900
  C    -126.311000   65.252300  -42.144200
  H    -126.978000   67.897900  -40.022100
  C    -126.757000   67.687600  -42.894500
  H    -125.760000   67.908200  -43.239700
  H    -126.987000   68.608900  -42.404900
  C    -127.871000   67.540600  -43.928000
  H    -128.892000   67.467400  -43.371700
  H    -127.699000   66.607800  -44.527500
  C    -128.064000   68.741800  -44.949900
  H    -127.068000   68.966300  -45.373600
  H    -128.327000   69.605200  -44.415700
  H    -128.791000   68.578700  -45.794700
  H    -124.470000   62.045300  -45.487200
  H    -126.756000   65.757600  -38.622400

 Total Charge           Charge          ....    0
 Multiplicity           Mult            ....    1
 Number of Electrons    NEL             ....  134
 Basis Dimension        Dim             ....  322

ORBITAL ENERGIES
----------------

  NO   OCC          E(Eh)            E(eV)
   0   2.0000     -88.968315     -2420.9509
   1   2.0000     -88.962679     -2420.7976
   2   2.0000     -10.327063      -281.0137
   3   2.0000     -10.323291      -280.9110
   4   2.0000     -10.318919      -280.7921
   5   2.0000     -10.316209      -280.7183
   6   2.0000     -10.302019      -280.3322
   7   2.0000     -10.299381      -280.2604
   8   2.0000     -10.297359      -280.2054
   9   2.0000     -10.296463      -280.1810
  10   2.0000     -10.291318      -280.0410
  11   2.0000     -10.290064      -280.0069
  12   2.0000     -10.289632      -279.9951
  13   2.0000     -10.283944      -279.8403
  14   2.0000     -10.280839      -279.7558
  15   2.0000     -10.275503      -279.6107
  16   2.0000      -8.082874      -219.9462
  17   2.0000      -8.078087      -219.8159
  18   2.0000      -6.041353      -164.3936
  19   2.0000      -6.037336      -164.2843
  20   2.0000      -6.036544      -164.2627
  21   2.0000      -6.033764      -164.1871
  22   2.0000      -6.032551      -164.1541
  23   2.0000      -6.028794      -164.0518
  24   2.0000      -1.012389       -27.5485
  25   2.0000      -0.988402       -26.8958
  26   2.0000      -0.912413       -24.8280
  27   2.0000      -0.904684       -24.6177
  28   2.0000      -0.872550       -23.7433
  29   2.0000      -0.849929       -23.1277
  30   2.0000      -0.843216       -22.9451
  31   2.0000      -0.813394       -22.1336
  32   2.0000      -0.786586       -21.4041
  33   2.0000      -0.776153       -21.1202
  34   2.0000      -0.706733       -19.2312
  35   2.0000      -0.704789       -19.1783
  36   2.0000      -0.688809       -18.7434
  37   2.0000      -0.666855       -18.1461
  38   2.0000      -0.639402       -17.3990
  39   2.0000      -0.612843       -16.6763
  40   2.0000      -0.593331       -16.1454
  41   2.0000      -0.574955       -15.6453
  42   2.0000      -0.561911       -15.2904
  43   2.0000      -0.553676       -15.0663
  44   2.0000      -0.541923       -14.7465
  45   2.0000      -0.522625       -14.2213
  46   2.0000      -0.512817       -13.9544
  47   2.0000      -0.506068       -13.7708
  48   2.0000      -0.501451       -13.6452
  49   2.0000      -0.499863       -13.6020
  50   2.0000      -0.493462       -13.4278
  51   2.0000      -0.487337       -13.2611
  52   2.0000      -0.475225       -12.9315
  53   2.0000      -0.473012       -12.8713
  54   2.0000      -0.462636       -12.5890
  55   2.0000      -0.445941       -12.1347
  56   2.0000      -0.442782       -12.0487
  57   2.0000      -0.436255       -11.8711
  58   2.0000      -0.429776       -11.6948
  59   2.0000      -0.418117       -11.3775
  60   2.0000      -0.416959       -11.3460
  61   2.0000      -0.413299       -11.2464
  62   2.0000      -0.407143       -11.0789
  63   2.0000      -0.353596        -9.6218
  64   2.0000      -0.334476        -9.1016
  65   2.0000      -0.332473        -9.0471
  66   2.0000      -0.286649        -7.8001
  67   0.0000       0.025599         0.6966
  68   0.0000       0.073944         2.0121
  69   0.0000       0.107494         2.9251
  70   0.0000       0.121536         3.3072
  71   0.0000       0.126976         3.4552

MULLIKEN ATOMIC CHARGES
-----------------------
   0 S :    0.119357
   1 C :   -0.140966
   2 C :   -0.046724
   3 C :    0.024718
   4 C :   -0.167561
   5 H :   -0.005527
   6 C :    0.073068
   7 H :    0.022868
   8 H :    0.015335
   9 C :   -0.082878
  10 H :    0.022027
  11 H :    0.022681
  12 C :   -0.022964
  13 H :    0.034044
  14 H :    0.040832
  15 H :    0.013928
  16 S :    0.094457
  17 C :   -0.116667
  18 C :   -0.049133
  19 C :   -0.068092
  20 C :   -0.099610
  21 H :    0.046223
  22 C :    0.088839
  23 H :    0.026700
  24 H :   -0.007320
  25 C :   -0.121399
  26 H :    0.047549
  27 H :    0.051330
  28 C :   -0.046603
  29 H :    0.022885
  30 H :    0.017530
  31 H :    0.054498
  32 H :    0.063161
  33 H :    0.073415
Sum of atomic charges:    0.0000000

LOEWDIN ATOMIC CHARGES
----------------------
   0 S :    0.406547
   1 C :   -0.205259
   2 C :   -0.064401
   3 C :   -0.059666
   4 C :   -0.193534
   5 H :    0.031494
   6 C :   -0.034440
   7 H :    0.030356
   8 H :    0.030795
   9 C :   -0.036416
  10 H :    0.019430
  11 H :    0.022070
  12 C :   -0.050333
  13 H :    0.028905
  14 H :    0.025133
  15 H :    0.010091
  16 S :    0.405349
  17 C :   -0.189280
  18 C :   -0.081783
  19 C :   -0.057748
  20 C :   -0.191215
  21 H :    0.047067
  22 C :   -0.033776
  23 H :    0.024253
  24 H :    0.024751
  25 C :   -0.045712
  26 H :    0.035651
  27 H :    0.026798
  28 C :   -0.070467
  29 H :    0.023389
  30 H :    0.013363
  31 H :    0.036119
  32 H :    0.036678
  33 H :    0.035788

  Mayer bond orders larger than 0.100000
B(  0-S ,  1-C ) :   1.1444 B(  0-S ,  4-C ) :   1.1435 B(  1-C ,  2-C ) :   1.5942
B(  1-C , 32-H ) :   0.9623 B(  2-C ,  3-C ) :   1.2432 B(  2-C ,  6-C ) :   1.0180
B(  3-C ,  4-C ) :   1.5692 B(  3-C ,  5-H ) :   0.9899 B(  4-C , 20-C ) :   1.0673
B(  6-C ,  7-H ) :   0.9363 B(  6-C ,  8-H ) :   0.9433 B(  6-C ,  9-C ) :   1.0774
B(  9-C , 10-H ) :   0.9582 B(  9-C , 11-H ) :   0.9604 B(  9-C , 12-C ) :   1.0497
B( 12-C , 13-H ) :   0.9771 B( 12-C , 14-H ) :   0.9842 B( 12-C , 15-H ) :   0.9773
B( 16-S , 17-C ) :   1.1775 B( 16-S , 20-C ) :   1.1163 B( 17-C , 18-C ) :   1.6023
B( 17-C , 33-H ) :   0.9587 B( 18-C , 19-C ) :   1.2372 B( 18-C , 21-H ) :   0.9887
B( 19-C , 20-C ) :   1.6205 B( 19-C , 22-C ) :   1.0344 B( 22-C , 23-H ) :   0.9288
B( 22-C , 24-H ) :   0.9254 B( 22-C , 25-C ) :   1.0512 B( 25-C , 26-H ) :   0.9563
B( 25-C , 27-H ) :   0.9598 B( 25-C , 28-C ) :   1.0700 B( 28-C , 29-H ) :   0.9750
B( 28-C , 30-H ) :   0.9759 B( 28-C , 31-H ) :   0.9770

Dispersion correction           -0.014447394
FINAL SINGLE POINT ENERGY     -1339.860244660105

DIPOLE MOMENT
-------------
                                X             Y             Z
Electronic contribution:     -3.11208     -20.52251      22.80455
Nuclear contribution   :      3.46104      21.10518     -23.00981
                        -----------------------------------------
Total Dipole Moment    :      0.34896       0.58267      -0.20527
                        -----------------------------------------
Magnitude (a.u.)       :      0.70951
Magnitude (Debye)      :      1.80344

Rotational constants in cm-1:     0.017022     0.009824     0.007011
Rotational constants in MHz :   510.318561   294.506226   210.190574

                             ****ORCA TERMINATED NORMALLY****
TOTAL RUN TIME: 0 days 0 hours 0 minutes 20 seconds 930 msec
