                         Program Version 4.2.1 -  RELEASE  -
|  1> ! wB97X-D3 SP def2-SVP
|  2> %pal
|  3> nprocs 24
|  4> end
|  5>
|  6> * xyz 0 1
|  7> S 	 -38.4767 	 17.8949 	 14.8557
|  8> C 	 -38.7502 	 17.404 	 16.5037
|  9> C 	 -40.0932 	 17.3765 	 16.7592
| 10> C 	 -40.9164 	 17.8117 	 15.6743
| 11> C 	 -40.1854 	 18.3568 	 14.6288
| 12> H 	 -42.0224 	 17.7975 	 15.5893
| 13> C 	 -40.7371 	 16.9672 	 18.0641
| 14> H 	 -41.2936 	 17.8084 	 18.4836
| 15> H 	 -39.8978 	 16.626 	 18.6611
| 16> C 	 -41.7407 	 15.8211 	 17.9882
| 17> H 	 -42.5205 	 16.3082 	 17.381
| 18> H 	 -41.3069 	 14.9547 	 17.5038
| 19> C 	 -42.3624 	 15.3988 	 19.3616
| 20> H 	 -43.0367 	 14.5507 	 19.2204
| 21> H 	 -41.6194 	 15.1133 	 20.1028
| 22> H 	 -42.8492 	 16.2451 	 19.7623
| 23> S 	 -41.8015 	 17.7716 	 12.3923
| 24> C 	 -42.1092 	 19.0125 	 11.2429
| 25> C 	 -41.1626 	 20.0128 	 11.3276
| 26> C 	 -40.2837 	 19.8518 	 12.4806
| 27> C 	 -40.732 	 18.8204 	 13.3425
| 28> H 	 -41.0772 	 20.6743 	 10.4521
| 29> C 	 -39.1126 	 20.7188 	 12.7083
| 30> H 	 -38.9578 	 20.7352 	 13.797
| 31> H 	 -39.3129 	 21.7451 	 12.2982
| 32> C 	 -37.8582 	 20.135 	 12.1022
| 33> H 	 -37.6384 	 19.1043 	 12.4723
| 34> H 	 -37.0279 	 20.7615 	 12.4393
| 35> C 	 -37.8072 	 20.2572 	 10.5619
| 36> H 	 -37.0948 	 19.5779 	 10.1012
| 37> H 	 -37.5105 	 21.2859 	 10.2917
| 38> H 	 -38.7895 	 20.1447 	 10.1395
| 39> H 	 -37.9765 	 17.1246 	 17.2148
| 40> H 	 -42.7874 	 19.0141 	 10.426
| 41> *
| 42>
| 43>                          ****END OF INPUT****

CARTESIAN COORDINATES (ANGSTROEM)
---------------------------------
  S    -38.476700   17.894900   14.855700
  C    -38.750200   17.404000   16.503700
  C    -40.093200   17.376500   16.759200
  C    -40.916400   17.811700   15.674300
  C    -40.185400   18.356800   14.628800
  H    -42.022400   17.797500   15.589300
  C    -40.737100   16.967200   18.064100
  H    -41.293600   17.808400   18.483600
  H    -39.897800   16.626000   18.661100
  C    -41.740700   15.821100   17.988200
  H    -42.520500   16.308200   17.381000
  H    -41.306900   14.954700   17.503800
  C    -42.362400   15.398800   19.361600
  H    -43.036700   14.550700   19.220400
  H    -41.619400   15.113300   20.102800
  H    -42.849200   16.245100   19.762300
  S    -41.801500   17.771600   12.392300
  C    -42.109200   19.012500   11.242900
  C    -41.162600   20.012800   11.327600
  C    -40.283700   19.851800   12.480600
  C    -40.732000   18.820400   13.342500
  H    -41.077200   20.674300   10.452100
  C    -39.112600   20.718800   12.708300
  H    -38.957800   20.735200   13.797000
  H    -39.312900   21.745100   12.298200
  C    -37.858200   20.135000   12.102200
  H    -37.638400   19.104300   12.472300
  H    -37.027900   20.761500   12.439300
  C    -37.807200   20.257200   10.561900
  H    -37.094800   19.577900   10.101200
  H    -37.510500   21.285900   10.291700
  H    -38.789500   20.144700   10.139500
  H    -37.976500   17.124600   17.214800
  H    -42.787400   19.014100   10.426000

 Total Charge           Charge          ....    0
 Multiplicity           Mult            ....    1
 Number of Electrons    NEL             ....  134
 Basis Dimension        Dim             ....  322

ORBITAL ENERGIES
----------------

  NO   OCC          E(Eh)            E(eV)
   0   2.0000     -88.966374     -2420.8981
   1   2.0000     -88.964938     -2420.8590
   2   2.0000     -10.333849      -281.1983
   3   2.0000     -10.328946      -281.0649
   4   2.0000     -10.316740      -280.7328
   5   2.0000     -10.314133      -280.6618
   6   2.0000     -10.307051      -280.4691
   7   2.0000     -10.300296      -280.2853
   8   2.0000     -10.298847      -280.2459
   9   2.0000     -10.295709      -280.1605
  10   2.0000     -10.288920      -279.9757
  11   2.0000     -10.288506      -279.9645
  12   2.0000     -10.287030      -279.9243
  13   2.0000     -10.284194      -279.8471
  14   2.0000     -10.277784      -279.6727
  15   2.0000     -10.273028      -279.5433
  16   2.0000      -8.080346      -219.8774
  17   2.0000      -8.079677      -219.8592
  18   2.0000      -6.038978      -164.3290
  19   2.0000      -6.038198      -164.3077
  20   2.0000      -6.035034      -164.2216
  21   2.0000      -6.034416      -164.2048
  22   2.0000      -6.030936      -164.1101
  23   2.0000      -6.030172      -164.0893
  24   2.0000      -1.004868       -27.3439
  25   2.0000      -0.985725       -26.8230
  26   2.0000      -0.914459       -24.8837
  27   2.0000      -0.911317       -24.7982
  28   2.0000      -0.870301       -23.6821
  29   2.0000      -0.846146       -23.0248
  30   2.0000      -0.841621       -22.9017
  31   2.0000      -0.816935       -22.2299
  32   2.0000      -0.782110       -21.2823
  33   2.0000      -0.772066       -21.0090
  34   2.0000      -0.711556       -19.3624
  35   2.0000      -0.692732       -18.8502
  36   2.0000      -0.687544       -18.7090
  37   2.0000      -0.660916       -17.9844
  38   2.0000      -0.636158       -17.3107
  39   2.0000      -0.615374       -16.7452
  40   2.0000      -0.590737       -16.0748
  41   2.0000      -0.581187       -15.8149
  42   2.0000      -0.562841       -15.3157
  43   2.0000      -0.554522       -15.0893
  44   2.0000      -0.543956       -14.8018
  45   2.0000      -0.522513       -14.2183
  46   2.0000      -0.519833       -14.1454
  47   2.0000      -0.511663       -13.9230
  48   2.0000      -0.508029       -13.8242
  49   2.0000      -0.491684       -13.3794
  50   2.0000      -0.489344       -13.3157
  51   2.0000      -0.479660       -13.0522
  52   2.0000      -0.473543       -12.8858
  53   2.0000      -0.470611       -12.8060
  54   2.0000      -0.464453       -12.6384
  55   2.0000      -0.447687       -12.1822
  56   2.0000      -0.442203       -12.0329
  57   2.0000      -0.438233       -11.9249
  58   2.0000      -0.433401       -11.7934
  59   2.0000      -0.422019       -11.4837
  60   2.0000      -0.416659       -11.3379
  61   2.0000      -0.411804       -11.2058
  62   2.0000      -0.407625       -11.0920
  63   2.0000      -0.341709        -9.2984
  64   2.0000      -0.330187        -8.9849
  65   2.0000      -0.321981        -8.7616
  66   2.0000      -0.297219        -8.0877
  67   0.0000       0.021088         0.5738
  68   0.0000       0.066306         1.8043
  69   0.0000       0.097363         2.6494
  70   0.0000       0.119103         3.2410
  71   0.0000       0.122014         3.3202

MULLIKEN ATOMIC CHARGES
-----------------------
   0 S :    0.086043
   1 C :   -0.108424
   2 C :   -0.077188
   3 C :   -0.012382
   4 C :   -0.133899
   5 H :    0.037446
   6 C :    0.080115
   7 H :    0.037212
   8 H :    0.004592
   9 C :   -0.115158
  10 H :    0.030983
  11 H :    0.035016
  12 C :   -0.018777
  13 H :    0.043818
  14 H :    0.026953
  15 H :    0.017803
  16 S :    0.112159
  17 C :   -0.070137
  18 C :   -0.054270
  19 C :   -0.047528
  20 C :   -0.152275
  21 H :    0.035350
  22 C :    0.045944
  23 H :    0.033900
  24 H :    0.034292
  25 C :   -0.075632
  26 H :    0.040440
  27 H :    0.030539
  28 C :   -0.036934
  29 H :    0.038523
  30 H :    0.021163
  31 H :    0.016284
  32 H :    0.052279
  33 H :    0.041746
Sum of atomic charges:   -0.0000000

LOEWDIN ATOMIC CHARGES
----------------------
   0 S :    0.399993
   1 C :   -0.195557
   2 C :   -0.067700
   3 C :   -0.060242
   4 C :   -0.184453
   5 H :    0.038292
   6 C :   -0.031527
   7 H :    0.032954
   8 H :    0.022886
   9 C :   -0.038113
  10 H :    0.023748
  11 H :    0.022218
  12 C :   -0.059384
  13 H :    0.030558
  14 H :    0.024156
  15 H :    0.018549
  16 S :    0.408629
  17 C :   -0.186359
  18 C :   -0.082630
  19 C :   -0.043446
  20 C :   -0.203852
  21 H :    0.035309
  22 C :   -0.042000
  23 H :    0.034228
  24 H :    0.036459
  25 C :   -0.041828
  26 H :    0.018544
  27 H :    0.026135
  28 C :   -0.065412
  29 H :    0.027475
  30 H :    0.025443
  31 H :    0.017837
  32 H :    0.033786
  33 H :    0.025305

  Mayer bond orders larger than 0.100000
B(  0-S ,  1-C ) :   1.1284 B(  0-S ,  4-C ) :   1.1316 B(  1-C ,  2-C ) :   1.6242
B(  1-C , 32-H ) :   0.9658 B(  2-C ,  3-C ) :   1.2115 B(  2-C ,  6-C ) :   1.0315
B(  3-C ,  4-C ) :   1.5747 B(  3-C ,  5-H ) :   0.9930 B(  4-C , 20-C ) :   1.0780
B(  6-C ,  7-H ) :   0.9410 B(  6-C ,  8-H ) :   0.9356 B(  6-C ,  9-C ) :   1.0616
B(  9-C , 10-H ) :   0.9552 B(  9-C , 11-H ) :   0.9600 B(  9-C , 12-C ) :   1.0833
B( 12-C , 13-H ) :   0.9759 B( 12-C , 14-H ) :   0.9756 B( 12-C , 15-H ) :   0.9730
B( 16-S , 17-C ) :   1.1633 B( 16-S , 20-C ) :   1.1255 B( 17-C , 18-C ) :   1.6103
B( 17-C , 33-H ) :   0.9688 B( 18-C , 19-C ) :   1.2340 B( 18-C , 21-H ) :   0.9805
B( 19-C , 20-C ) :   1.5454 B( 19-C , 22-C ) :   1.0735 B( 22-C , 23-H ) :   0.9180
B( 22-C , 24-H ) :   0.9381 B( 22-C , 25-C ) :   1.0773 B( 25-C , 26-H ) :   0.9509
B( 25-C , 27-H ) :   0.9566 B( 25-C , 28-C ) :   1.0628 B( 28-C , 29-H ) :   0.9739
B( 28-C , 30-H ) :   0.9747 B( 28-C , 31-H ) :   0.9782

Dispersion correction           -0.014378936
FINAL SINGLE POINT ENERGY     -1339.873575864652

DIPOLE MOMENT
-------------
                                X             Y             Z
Electronic contribution:     -1.35006      -0.74271      -8.56427
Nuclear contribution   :      1.34883       0.77937       8.67564
                        -----------------------------------------
Total Dipole Moment    :     -0.00122       0.03666       0.11138
                        -----------------------------------------
Magnitude (a.u.)       :      0.11726
Magnitude (Debye)      :      0.29805

Rotational constants in cm-1:     0.026100     0.007415     0.006123
Rotational constants in MHz :   782.459541   222.303434   183.559899

                             ****ORCA TERMINATED NORMALLY****
TOTAL RUN TIME: 0 days 0 hours 0 minutes 22 seconds 354 msec
