                         Program Version 4.2.1 -  RELEASE  -
|  1> ! wB97X-D3 SP def2-SVP
|  2> %pal
|  3> nprocs 24
|  4> end
|  5>
|  6> * xyz 0 1
|  7> S 	 45.8378 	 -11.474 	 -109.452
|  8> C 	 46.4119 	 -10.53 	 -110.85
|  9> C 	 46.4028 	 -9.1902 	 -110.735
| 10> C 	 45.8838 	 -8.82181 	 -109.436
| 11> C 	 45.5937 	 -9.92628 	 -108.615
| 12> H 	 45.7111 	 -7.83811 	 -109.05
| 13> C 	 46.6124 	 -8.11972 	 -111.71
| 14> H 	 46.0086 	 -7.25515 	 -111.469
| 15> H 	 46.4313 	 -8.40073 	 -112.692
| 16> C 	 48.0868 	 -7.6608 	 -111.772
| 17> H 	 48.2046 	 -7.10241 	 -110.831
| 18> H 	 48.8707 	 -8.39184 	 -111.739
| 19> C 	 48.3593 	 -6.69729 	 -112.983
| 20> H 	 49.4034 	 -6.37426 	 -112.945
| 21> H 	 47.9844 	 -7.23108 	 -113.922
| 22> H 	 47.7326 	 -5.76751 	 -112.899
| 23> S 	 43.6849 	 -10.753 	 -107.016
| 24> C 	 43.5638 	 -10.094 	 -105.412
| 25> C 	 44.5798 	 -9.20157 	 -105.088
| 26> C 	 45.4549 	 -9.00621 	 -106.164
| 27> C 	 45.13 	 -9.84096 	 -107.288
| 28> H 	 44.6088 	 -8.71097 	 -104.046
| 29> C 	 46.7516 	 -8.20878 	 -105.968
| 30> H 	 47.2971 	 -8.44852 	 -106.866
| 31> H 	 47.3213 	 -8.72294 	 -105.218
| 32> C 	 46.6091 	 -6.649 	 -105.797
| 33> H 	 47.6154 	 -6.24792 	 -105.838
| 34> H 	 46.3398 	 -6.49924 	 -104.791
| 35> C 	 45.7441 	 -5.89787 	 -106.86
| 36> H 	 46.0705 	 -6.0827 	 -107.908
| 37> H 	 45.6672 	 -4.75377 	 -106.661
| 38> H 	 44.6983 	 -6.27313 	 -106.851
| 39> H 	 46.6355 	 -11.0082 	 -111.794
| 40> H 	 42.8437 	 -10.3859 	 -104.62
| 41> *
| 42>
| 43>                          ****END OF INPUT****

CARTESIAN COORDINATES (ANGSTROEM)
---------------------------------
  S     45.837800  -11.474000  -109.452000
  C     46.411900  -10.530000  -110.850000
  C     46.402800   -9.190200  -110.735000
  C     45.883800   -8.821810  -109.436000
  C     45.593700   -9.926280  -108.615000
  H     45.711100   -7.838110  -109.050000
  C     46.612400   -8.119720  -111.710000
  H     46.008600   -7.255150  -111.469000
  H     46.431300   -8.400730  -112.692000
  C     48.086800   -7.660800  -111.772000
  H     48.204600   -7.102410  -110.831000
  H     48.870700   -8.391840  -111.739000
  C     48.359300   -6.697290  -112.983000
  H     49.403400   -6.374260  -112.945000
  H     47.984400   -7.231080  -113.922000
  H     47.732600   -5.767510  -112.899000
  S     43.684900  -10.753000  -107.016000
  C     43.563800  -10.094000  -105.412000
  C     44.579800   -9.201570  -105.088000
  C     45.454900   -9.006210  -106.164000
  C     45.130000   -9.840960  -107.288000
  H     44.608800   -8.710970  -104.046000
  C     46.751600   -8.208780  -105.968000
  H     47.297100   -8.448520  -106.866000
  H     47.321300   -8.722940  -105.218000
  C     46.609100   -6.649000  -105.797000
  H     47.615400   -6.247920  -105.838000
  H     46.339800   -6.499240  -104.791000
  C     45.744100   -5.897870  -106.860000
  H     46.070500   -6.082700  -107.908000
  H     45.667200   -4.753770  -106.661000
  H     44.698300   -6.273130  -106.851000
  H     46.635500  -11.008200  -111.794000
  H     42.843700  -10.385900  -104.620000

 Total Charge           Charge          ....    0
 Multiplicity           Mult            ....    1
 Number of Electrons    NEL             ....  134
 Basis Dimension        Dim             ....  322

ORBITAL ENERGIES
----------------

  NO   OCC          E(Eh)            E(eV)
   0   2.0000     -88.968496     -2420.9559
   1   2.0000     -88.968410     -2420.9535
   2   2.0000     -10.326747      -281.0051
   3   2.0000     -10.322951      -280.9018
   4   2.0000     -10.316633      -280.7299
   5   2.0000     -10.311139      -280.5804
   6   2.0000     -10.305454      -280.4256
   7   2.0000     -10.296913      -280.1933
   8   2.0000     -10.296736      -280.1884
   9   2.0000     -10.294852      -280.1372
  10   2.0000     -10.292376      -280.0698
  11   2.0000     -10.290855      -280.0284
  12   2.0000     -10.290399      -280.0160
  13   2.0000     -10.289401      -279.9888
  14   2.0000     -10.286831      -279.9189
  15   2.0000     -10.286131      -279.8998
  16   2.0000      -8.083683      -219.9682
  17   2.0000      -8.082312      -219.9309
  18   2.0000      -6.042017      -164.4116
  19   2.0000      -6.040919      -164.3818
  20   2.0000      -6.038079      -164.3045
  21   2.0000      -6.037227      -164.2813
  22   2.0000      -6.034637      -164.2108
  23   2.0000      -6.032745      -164.1593
  24   2.0000      -1.007185       -27.4069
  25   2.0000      -0.981225       -26.7005
  26   2.0000      -0.917291       -24.9608
  27   2.0000      -0.901556       -24.5326
  28   2.0000      -0.871735       -23.7211
  29   2.0000      -0.847540       -23.0627
  30   2.0000      -0.845571       -23.0092
  31   2.0000      -0.807644       -21.9771
  32   2.0000      -0.782448       -21.2915
  33   2.0000      -0.770196       -20.9581
  34   2.0000      -0.713954       -19.4277
  35   2.0000      -0.700097       -19.0506
  36   2.0000      -0.695252       -18.9188
  37   2.0000      -0.657348       -17.8873
  38   2.0000      -0.639257       -17.3951
  39   2.0000      -0.621995       -16.9254
  40   2.0000      -0.588057       -16.0018
  41   2.0000      -0.572202       -15.5704
  42   2.0000      -0.556037       -15.1305
  43   2.0000      -0.547256       -14.8916
  44   2.0000      -0.537333       -14.6216
  45   2.0000      -0.526369       -14.3232
  46   2.0000      -0.516580       -14.0569
  47   2.0000      -0.505573       -13.7573
  48   2.0000      -0.501356       -13.6426
  49   2.0000      -0.495973       -13.4961
  50   2.0000      -0.491557       -13.3759
  51   2.0000      -0.477769       -13.0007
  52   2.0000      -0.465268       -12.6606
  53   2.0000      -0.460852       -12.5404
  54   2.0000      -0.455965       -12.4074
  55   2.0000      -0.450494       -12.2586
  56   2.0000      -0.448405       -12.2017
  57   2.0000      -0.442063       -12.0292
  58   2.0000      -0.440590       -11.9891
  59   2.0000      -0.426447       -11.6042
  60   2.0000      -0.420581       -11.4446
  61   2.0000      -0.417441       -11.3592
  62   2.0000      -0.413553       -11.2534
  63   2.0000      -0.347080        -9.4445
  64   2.0000      -0.332672        -9.0525
  65   2.0000      -0.331174        -9.0117
  66   2.0000      -0.283120        -7.7041
  67   0.0000       0.024547         0.6680
  68   0.0000       0.070697         1.9238
  69   0.0000       0.103158         2.8071
  70   0.0000       0.122085         3.3221
  71   0.0000       0.127332         3.4649

MULLIKEN ATOMIC CHARGES
-----------------------
   0 S :    0.107419
   1 C :   -0.124185
   2 C :   -0.034180
   3 C :    0.035089
   4 C :   -0.150696
   5 H :   -0.032021
   6 C :    0.117962
   7 H :    0.028944
   8 H :   -0.007086
   9 C :   -0.105817
  10 H :    0.018287
  11 H :    0.033857
  12 C :   -0.070442
  13 H :    0.049312
  14 H :    0.044673
  15 H :    0.032627
  16 S :    0.120151
  17 C :   -0.100657
  18 C :   -0.072243
  19 C :   -0.039247
  20 C :   -0.170905
  21 H :    0.051406
  22 C :    0.054207
  23 H :    0.012363
  24 H :    0.036645
  25 C :   -0.025981
  26 H :    0.027940
  27 H :    0.018226
  28 C :   -0.110128
  29 H :    0.051031
  30 H :    0.055683
  31 H :    0.050613
  32 H :    0.034901
  33 H :    0.062251
Sum of atomic charges:    0.0000000

LOEWDIN ATOMIC CHARGES
----------------------
   0 S :    0.374702
   1 C :   -0.180323
   2 C :   -0.059157
   3 C :   -0.051693
   4 C :   -0.191868
   5 H :    0.021834
   6 C :   -0.022237
   7 H :    0.035672
   8 H :    0.017460
   9 C :   -0.037624
  10 H :    0.021456
  11 H :    0.020322
  12 C :   -0.073927
  13 H :    0.029122
  14 H :    0.031287
  15 H :    0.026974
  16 S :    0.431791
  17 C :   -0.200508
  18 C :   -0.083783
  19 C :   -0.057416
  20 C :   -0.212113
  21 H :    0.048921
  22 C :   -0.030221
  23 H :    0.026220
  24 H :    0.033526
  25 C :   -0.034886
  26 H :    0.026582
  27 H :    0.015932
  28 C :   -0.078555
  29 H :    0.024731
  30 H :    0.040646
  31 H :    0.029658
  32 H :    0.023091
  33 H :    0.034384

  Mayer bond orders larger than 0.100000
B(  0-S ,  1-C ) :   1.1069 B(  0-S ,  4-C ) :   1.1255 B(  1-C ,  2-C ) :   1.6682
B(  1-C , 32-H ) :   0.9590 B(  2-C ,  3-C ) :   1.1924 B(  2-C ,  6-C ) :   1.0342
B(  3-C ,  4-C ) :   1.5888 B(  3-C ,  5-H ) :   0.9922 B(  4-C , 20-C ) :   1.0781
B(  6-C ,  7-H ) :   0.9398 B(  6-C ,  8-H ) :   0.9352 B(  6-C ,  9-C ) :   1.0410
B(  9-C , 10-H ) :   0.9541 B(  9-C , 11-H ) :   0.9651 B(  9-C , 12-C ) :   1.0774
B( 12-C , 13-H ) :   0.9746 B( 12-C , 14-H ) :   0.9744 B( 12-C , 15-H ) :   0.9739
B( 16-S , 17-C ) :   1.1666 B( 16-S , 20-C ) :   1.1619 B( 17-C , 18-C ) :   1.5954
B( 17-C , 20-C ) :   0.1130 B( 17-C , 33-H ) :   0.9600 B( 18-C , 19-C ) :   1.2701
B( 18-C , 21-H ) :   0.9762 B( 19-C , 20-C ) :   1.5290 B( 19-C , 22-C ) :   1.0297
B( 22-C , 23-H ) :   0.9352 B( 22-C , 24-H ) :   0.9475 B( 22-C , 25-C ) :   1.0534
B( 25-C , 26-H ) :   0.9564 B( 25-C , 27-H ) :   0.9602 B( 25-C , 28-C ) :   1.0664
B( 28-C , 29-H ) :   0.9653 B( 28-C , 30-H ) :   0.9706 B( 28-C , 31-H ) :   0.9727

Dispersion correction           -0.014761166
FINAL SINGLE POINT ENERGY     -1339.864783107678

DIPOLE MOMENT
-------------
                                X             Y             Z
Electronic contribution:    -14.18361     -26.73066       7.69947
Nuclear contribution   :     14.41505      27.33249      -7.63646
                        -----------------------------------------
Total Dipole Moment    :      0.23144       0.60182       0.06301
                        -----------------------------------------
Magnitude (a.u.)       :      0.64786
Magnitude (Debye)      :      1.64673

Rotational constants in cm-1:     0.018883     0.009085     0.006618
Rotational constants in MHz :   566.111980   272.353501   198.398987

                             ****ORCA TERMINATED NORMALLY****
TOTAL RUN TIME: 0 days 0 hours 0 minutes 22 seconds 182 msec
