                         Program Version 4.2.1 -  RELEASE  -
|  1> ! wB97X-D3 SP def2-SVP
|  2> %pal
|  3> nprocs 24
|  4> end
|  5>
|  6> * xyz 0 1
|  7> S 	 -35.6522 	 -48.8926 	 -75.6249
|  8> C 	 -34.2268 	 -49.3366 	 -76.5663
|  9> C 	 -34.2527 	 -48.7598 	 -77.8028
| 10> C 	 -35.3113 	 -47.8042 	 -77.8753
| 11> C 	 -36.0739 	 -47.6634 	 -76.7324
| 12> H 	 -35.5042 	 -47.2095 	 -78.7451
| 13> C 	 -33.3676 	 -49.1524 	 -79.0285
| 14> H 	 -33.9722 	 -49.9233 	 -79.5948
| 15> H 	 -32.4545 	 -49.6189 	 -78.7676
| 16> C 	 -33.0093 	 -48.0216 	 -79.9578
| 17> H 	 -32.2646 	 -48.3301 	 -80.6309
| 18> H 	 -33.8651 	 -47.6066 	 -80.5277
| 19> C 	 -32.2939 	 -46.8163 	 -79.2476
| 20> H 	 -32.7608 	 -46.4242 	 -78.3484
| 21> H 	 -31.2545 	 -46.9584 	 -79.0212
| 22> H 	 -32.2352 	 -45.9395 	 -79.8636
| 23> S 	 -38.6831 	 -47.2906 	 -75.8661
| 24> C 	 -39.2739 	 -45.71 	 -75.6773
| 25> C 	 -38.3983 	 -44.6938 	 -76.1218
| 26> C 	 -37.1764 	 -45.2456 	 -76.687
| 27> C 	 -37.1309 	 -46.6423 	 -76.4835
| 28> H 	 -38.7615 	 -43.6877 	 -76.0654
| 29> C 	 -36.1022 	 -44.3947 	 -77.2657
| 30> H 	 -35.2525 	 -45.0004 	 -77.5838
| 31> H 	 -35.7929 	 -43.6021 	 -76.5126
| 32> C 	 -36.3885 	 -43.6905 	 -78.5511
| 33> H 	 -37.3383 	 -43.1475 	 -78.4837
| 34> H 	 -36.3044 	 -44.3746 	 -79.368
| 35> C 	 -35.3001 	 -42.7708 	 -79.0909
| 36> H 	 -35.5363 	 -42.5696 	 -80.1536
| 37> H 	 -34.3024 	 -43.326 	 -79.1952
| 38> H 	 -35.1874 	 -41.8778 	 -78.5293
| 39> H 	 -33.3536 	 -49.9005 	 -76.3061
| 40> H 	 -40.2275 	 -45.4633 	 -75.2583
| 41> *
| 42>
| 43>                          ****END OF INPUT****

CARTESIAN COORDINATES (ANGSTROEM)
---------------------------------
  S    -35.652200  -48.892600  -75.624900
  C    -34.226800  -49.336600  -76.566300
  C    -34.252700  -48.759800  -77.802800
  C    -35.311300  -47.804200  -77.875300
  C    -36.073900  -47.663400  -76.732400
  H    -35.504200  -47.209500  -78.745100
  C    -33.367600  -49.152400  -79.028500
  H    -33.972200  -49.923300  -79.594800
  H    -32.454500  -49.618900  -78.767600
  C    -33.009300  -48.021600  -79.957800
  H    -32.264600  -48.330100  -80.630900
  H    -33.865100  -47.606600  -80.527700
  C    -32.293900  -46.816300  -79.247600
  H    -32.760800  -46.424200  -78.348400
  H    -31.254500  -46.958400  -79.021200
  H    -32.235200  -45.939500  -79.863600
  S    -38.683100  -47.290600  -75.866100
  C    -39.273900  -45.710000  -75.677300
  C    -38.398300  -44.693800  -76.121800
  C    -37.176400  -45.245600  -76.687000
  C    -37.130900  -46.642300  -76.483500
  H    -38.761500  -43.687700  -76.065400
  C    -36.102200  -44.394700  -77.265700
  H    -35.252500  -45.000400  -77.583800
  H    -35.792900  -43.602100  -76.512600
  C    -36.388500  -43.690500  -78.551100
  H    -37.338300  -43.147500  -78.483700
  H    -36.304400  -44.374600  -79.368000
  C    -35.300100  -42.770800  -79.090900
  H    -35.536300  -42.569600  -80.153600
  H    -34.302400  -43.326000  -79.195200
  H    -35.187400  -41.877800  -78.529300
  H    -33.353600  -49.900500  -76.306100
  H    -40.227500  -45.463300  -75.258300

 Total Charge           Charge          ....    0
 Multiplicity           Mult            ....    1
 Number of Electrons    NEL             ....  134
 Basis Dimension        Dim             ....  322

ORBITAL ENERGIES
----------------

  NO   OCC          E(Eh)            E(eV)
   0   2.0000     -88.968468     -2420.9551
   1   2.0000     -88.966234     -2420.8943
   2   2.0000     -10.334950      -281.2283
   3   2.0000     -10.328659      -281.0571
   4   2.0000     -10.315491      -280.6988
   5   2.0000     -10.312409      -280.6149
   6   2.0000     -10.309433      -280.5339
   7   2.0000     -10.300524      -280.2915
   8   2.0000     -10.299781      -280.2713
   9   2.0000     -10.297632      -280.2128
  10   2.0000     -10.291090      -280.0348
  11   2.0000     -10.289685      -279.9966
  12   2.0000     -10.289190      -279.9831
  13   2.0000     -10.282886      -279.8116
  14   2.0000     -10.281058      -279.7618
  15   2.0000     -10.273106      -279.5454
  16   2.0000      -8.083435      -219.9614
  17   2.0000      -8.081422      -219.9067
  18   2.0000      -6.041806      -164.4059
  19   2.0000      -6.040049      -164.3581
  20   2.0000      -6.037962      -164.3013
  21   2.0000      -6.035929      -164.2460
  22   2.0000      -6.034289      -164.2013
  23   2.0000      -6.031947      -164.1376
  24   2.0000      -1.006781       -27.3959
  25   2.0000      -0.984042       -26.7772
  26   2.0000      -0.920007       -25.0347
  27   2.0000      -0.912590       -24.8328
  28   2.0000      -0.865746       -23.5582
  29   2.0000      -0.857404       -23.3312
  30   2.0000      -0.839635       -22.8476
  31   2.0000      -0.811877       -22.0923
  32   2.0000      -0.790327       -21.5059
  33   2.0000      -0.778251       -21.1773
  34   2.0000      -0.707846       -19.2615
  35   2.0000      -0.696235       -18.9455
  36   2.0000      -0.687832       -18.7169
  37   2.0000      -0.657890       -17.9021
  38   2.0000      -0.636258       -17.3135
  39   2.0000      -0.626501       -17.0480
  40   2.0000      -0.601146       -16.3580
  41   2.0000      -0.582657       -15.8549
  42   2.0000      -0.568957       -15.4821
  43   2.0000      -0.555069       -15.1042
  44   2.0000      -0.542131       -14.7521
  45   2.0000      -0.522397       -14.2151
  46   2.0000      -0.514277       -13.9942
  47   2.0000      -0.510636       -13.8951
  48   2.0000      -0.505106       -13.7446
  49   2.0000      -0.498759       -13.5719
  50   2.0000      -0.495259       -13.4767
  51   2.0000      -0.481220       -13.0947
  52   2.0000      -0.468259       -12.7420
  53   2.0000      -0.463942       -12.6245
  54   2.0000      -0.457311       -12.4441
  55   2.0000      -0.452245       -12.3062
  56   2.0000      -0.446103       -12.1391
  57   2.0000      -0.439888       -11.9700
  58   2.0000      -0.435110       -11.8399
  59   2.0000      -0.426721       -11.6117
  60   2.0000      -0.419111       -11.4046
  61   2.0000      -0.415228       -11.2989
  62   2.0000      -0.412340       -11.2204
  63   2.0000      -0.345185        -9.3930
  64   2.0000      -0.331476        -9.0199
  65   2.0000      -0.329369        -8.9626
  66   2.0000      -0.288639        -7.8543
  67   0.0000       0.030623         0.8333
  68   0.0000       0.068128         1.8539
  69   0.0000       0.107327         2.9205
  70   0.0000       0.113335         3.0840
  71   0.0000       0.119457         3.2506

MULLIKEN ATOMIC CHARGES
-----------------------
   0 S :    0.120739
   1 C :   -0.119166
   2 C :   -0.101052
   3 C :    0.021342
   4 C :   -0.131251
   5 H :   -0.006200
   6 C :    0.102192
   7 H :    0.058765
   8 H :    0.009138
   9 C :   -0.072404
  10 H :    0.025314
  11 H :    0.040253
  12 C :   -0.072241
  13 H :    0.039492
  14 H :    0.020789
  15 H :    0.016708
  16 S :    0.114054
  17 C :   -0.085070
  18 C :   -0.042997
  19 C :    0.005608
  20 C :   -0.162969
  21 H :    0.015337
  22 C :    0.061113
  23 H :    0.009500
  24 H :    0.042790
  25 C :   -0.079626
  26 H :    0.031382
  27 H :    0.017734
  28 C :   -0.065077
  29 H :    0.037092
  30 H :    0.032288
  31 H :    0.031080
  32 H :    0.035799
  33 H :    0.049543
Sum of atomic charges:   -0.0000000

LOEWDIN ATOMIC CHARGES
----------------------
   0 S :    0.417016
   1 C :   -0.195929
   2 C :   -0.061006
   3 C :   -0.069434
   4 C :   -0.207204
   5 H :    0.022463
   6 C :   -0.024545
   7 H :    0.046158
   8 H :    0.024018
   9 C :   -0.040497
  10 H :    0.024019
  11 H :    0.026394
  12 C :   -0.072269
  13 H :    0.023213
  14 H :    0.021851
  15 H :    0.022808
  16 S :    0.411674
  17 C :   -0.196047
  18 C :   -0.070003
  19 C :   -0.045819
  20 C :   -0.182430
  21 H :    0.029054
  22 C :   -0.041782
  23 H :    0.030977
  24 H :    0.040191
  25 C :   -0.043893
  26 H :    0.021741
  27 H :    0.023164
  28 C :   -0.062608
  29 H :    0.031111
  30 H :    0.031189
  31 H :    0.013589
  32 H :    0.028748
  33 H :    0.024088

  Mayer bond orders larger than 0.100000
B(  0-S ,  1-C ) :   1.1291 B(  0-S ,  4-C ) :   1.1587 B(  1-C ,  2-C ) :   1.6367
B(  1-C , 32-H ) :   0.9658 B(  2-C ,  3-C ) :   1.2380 B(  2-C ,  6-C ) :   1.0079
B(  3-C ,  4-C ) :   1.5602 B(  3-C ,  5-H ) :   1.0010 B(  4-C , 20-C ) :   1.0237
B(  6-C ,  7-H ) :   0.9390 B(  6-C ,  8-H ) :   0.9412 B(  6-C ,  9-C ) :   1.0832
B(  9-C , 10-H ) :   0.9541 B(  9-C , 11-H ) :   0.9537 B(  9-C , 12-C ) :   1.0686
B( 12-C , 13-H ) :   0.9745 B( 12-C , 14-H ) :   0.9751 B( 12-C , 15-H ) :   0.9737
B( 16-S , 17-C ) :   1.1686 B( 16-S , 20-C ) :   1.1415 B( 17-C , 18-C ) :   1.6144
B( 17-C , 33-H ) :   0.9672 B( 18-C , 19-C ) :   1.2072 B( 18-C , 21-H ) :   0.9946
B( 19-C , 20-C ) :   1.5965 B( 19-C , 22-C ) :   1.0648 B( 22-C , 23-H ) :   0.9236
B( 22-C , 24-H ) :   0.9328 B( 22-C , 25-C ) :   1.0737 B( 25-C , 26-H ) :   0.9536
B( 25-C , 27-H ) :   0.9567 B( 25-C , 28-C ) :   1.0815 B( 28-C , 29-H ) :   0.9765
B( 28-C , 30-H ) :   0.9705 B( 28-C , 31-H ) :   0.9737

Dispersion correction           -0.014717012
FINAL SINGLE POINT ENERGY     -1339.862461604615

DIPOLE MOMENT
-------------
                                X             Y             Z
Electronic contribution:    -18.98411     -16.81737      21.05079
Nuclear contribution   :     19.33219      17.19010     -21.60550
                        -----------------------------------------
Total Dipole Moment    :      0.34807       0.37273      -0.55470
                        -----------------------------------------
Magnitude (a.u.)       :      0.75351
Magnitude (Debye)      :      1.91527

Rotational constants in cm-1:     0.015959     0.010774     0.006861
Rotational constants in MHz :   478.436396   322.981576   205.697276

                             ****ORCA TERMINATED NORMALLY****
TOTAL RUN TIME: 0 days 0 hours 0 minutes 22 seconds 216 msec
