                         Program Version 4.2.1 -  RELEASE  -
|  1> ! wB97X-D3 SP def2-SVP
|  2> %pal
|  3> nprocs 24
|  4> end
|  5>
|  6> * xyz 0 1
|  7> S 	 -127.209 	 65.5793 	 -48.5843
|  8> C 	 -127.116 	 67.1222 	 -47.7195
|  9> C 	 -127.986 	 68.0464 	 -48.2222
| 10> C 	 -128.793 	 67.4564 	 -49.3062
| 11> C 	 -128.471 	 66.1138 	 -49.6302
| 12> H 	 -129.56 	 68.001 	 -49.7679
| 13> C 	 -128.069 	 69.4295 	 -47.7291
| 14> H 	 -127.267 	 69.5959 	 -46.9157
| 15> H 	 -129.01 	 69.6376 	 -47.2222
| 16> C 	 -127.966 	 70.45 	 -48.8339
| 17> H 	 -126.974 	 70.5517 	 -49.2311
| 18> H 	 -128.536 	 70.1092 	 -49.7253
| 19> C 	 -128.621 	 71.7658 	 -48.5185
| 20> H 	 -129.713 	 71.743 	 -48.2318
| 21> H 	 -128.085 	 72.3506 	 -47.6418
| 22> H 	 -128.474 	 72.4086 	 -49.3778
| 23> S 	 -127.956 	 64.922 	 -52.015
| 24> C 	 -129.292 	 64.4181 	 -53.0373
| 25> C 	 -130.407 	 64.2347 	 -52.2316
| 26> C 	 -130.301 	 64.8416 	 -50.9458
| 27> C 	 -129.012 	 65.3589 	 -50.7219
| 28> H 	 -131.358 	 63.9929 	 -52.6267
| 29> C 	 -131.444 	 64.7794 	 -49.906
| 30> H 	 -131.072 	 65.2919 	 -48.9787
| 31> H 	 -131.583 	 63.7497 	 -49.746
| 32> C 	 -132.749 	 65.4658 	 -50.3748
| 33> H 	 -133.007 	 65.0836 	 -51.4127
| 34> H 	 -132.472 	 66.5643 	 -50.4771
| 35> C 	 -133.835 	 65.4174 	 -49.3609
| 36> H 	 -133.449 	 65.6852 	 -48.3633
| 37> H 	 -134.163 	 64.3994 	 -49.0933
| 38> H 	 -134.733 	 66.0188 	 -49.6592
| 39> H 	 -126.506 	 67.2617 	 -46.7588
| 40> H 	 -129.167 	 64.2371 	 -54.0925
| 41> *
| 42>
| 43>                          ****END OF INPUT****

CARTESIAN COORDINATES (ANGSTROEM)
---------------------------------
  S    -127.209000   65.579300  -48.584300
  C    -127.116000   67.122200  -47.719500
  C    -127.986000   68.046400  -48.222200
  C    -128.793000   67.456400  -49.306200
  C    -128.471000   66.113800  -49.630200
  H    -129.560000   68.001000  -49.767900
  C    -128.069000   69.429500  -47.729100
  H    -127.267000   69.595900  -46.915700
  H    -129.010000   69.637600  -47.222200
  C    -127.966000   70.450000  -48.833900
  H    -126.974000   70.551700  -49.231100
  H    -128.536000   70.109200  -49.725300
  C    -128.621000   71.765800  -48.518500
  H    -129.713000   71.743000  -48.231800
  H    -128.085000   72.350600  -47.641800
  H    -128.474000   72.408600  -49.377800
  S    -127.956000   64.922000  -52.015000
  C    -129.292000   64.418100  -53.037300
  C    -130.407000   64.234700  -52.231600
  C    -130.301000   64.841600  -50.945800
  C    -129.012000   65.358900  -50.721900
  H    -131.358000   63.992900  -52.626700
  C    -131.444000   64.779400  -49.906000
  H    -131.072000   65.291900  -48.978700
  H    -131.583000   63.749700  -49.746000
  C    -132.749000   65.465800  -50.374800
  H    -133.007000   65.083600  -51.412700
  H    -132.472000   66.564300  -50.477100
  C    -133.835000   65.417400  -49.360900
  H    -133.449000   65.685200  -48.363300
  H    -134.163000   64.399400  -49.093300
  H    -134.733000   66.018800  -49.659200
  H    -126.506000   67.261700  -46.758800
  H    -129.167000   64.237100  -54.092500

 Total Charge           Charge          ....    0
 Multiplicity           Mult            ....    1
 Number of Electrons    NEL             ....  134
 Basis Dimension        Dim             ....  322

ORBITAL ENERGIES
----------------

  NO   OCC          E(Eh)            E(eV)
   0   2.0000     -88.964530     -2420.8479
   1   2.0000     -88.963135     -2420.8100
   2   2.0000     -10.331188      -281.1259
   3   2.0000     -10.324335      -280.9394
   4   2.0000     -10.321484      -280.8619
   5   2.0000     -10.318318      -280.7757
   6   2.0000     -10.305378      -280.4236
   7   2.0000     -10.300854      -280.3005
   8   2.0000     -10.297159      -280.1999
   9   2.0000     -10.295002      -280.1413
  10   2.0000     -10.294801      -280.1358
  11   2.0000     -10.293081      -280.0890
  12   2.0000     -10.292889      -280.0837
  13   2.0000     -10.288733      -279.9707
  14   2.0000     -10.284303      -279.8501
  15   2.0000     -10.282368      -279.7975
  16   2.0000      -8.079438      -219.8527
  17   2.0000      -8.078591      -219.8297
  18   2.0000      -6.038012      -164.3026
  19   2.0000      -6.037070      -164.2770
  20   2.0000      -6.033839      -164.1891
  21   2.0000      -6.032989      -164.1660
  22   2.0000      -6.030191      -164.0898
  23   2.0000      -6.029329      -164.0664
  24   2.0000      -1.007096       -27.4045
  25   2.0000      -0.983041       -26.7499
  26   2.0000      -0.920925       -25.0596
  27   2.0000      -0.909630       -24.7523
  28   2.0000      -0.873612       -23.7722
  29   2.0000      -0.851183       -23.1619
  30   2.0000      -0.844482       -22.9795
  31   2.0000      -0.811991       -22.0954
  32   2.0000      -0.780760       -21.2455
  33   2.0000      -0.769716       -20.9450
  34   2.0000      -0.708193       -19.2709
  35   2.0000      -0.694876       -18.9085
  36   2.0000      -0.689859       -18.7720
  37   2.0000      -0.662285       -18.0217
  38   2.0000      -0.638334       -17.3700
  39   2.0000      -0.620403       -16.8820
  40   2.0000      -0.597915       -16.2701
  41   2.0000      -0.574917       -15.6443
  42   2.0000      -0.564929       -15.3725
  43   2.0000      -0.555735       -15.1223
  44   2.0000      -0.533130       -14.5072
  45   2.0000      -0.524482       -14.2719
  46   2.0000      -0.518518       -14.1096
  47   2.0000      -0.512477       -13.9452
  48   2.0000      -0.510642       -13.8953
  49   2.0000      -0.499569       -13.5940
  50   2.0000      -0.497893       -13.5483
  51   2.0000      -0.480057       -13.0630
  52   2.0000      -0.468918       -12.7599
  53   2.0000      -0.462260       -12.5787
  54   2.0000      -0.454132       -12.3576
  55   2.0000      -0.449446       -12.2301
  56   2.0000      -0.445391       -12.1197
  57   2.0000      -0.440001       -11.9730
  58   2.0000      -0.431091       -11.7306
  59   2.0000      -0.423547       -11.5253
  60   2.0000      -0.417813       -11.3693
  61   2.0000      -0.411114       -11.1870
  62   2.0000      -0.407823       -11.0974
  63   2.0000      -0.341887        -9.3032
  64   2.0000      -0.329031        -8.9534
  65   2.0000      -0.324394        -8.8272
  66   2.0000      -0.295840        -8.0502
  67   0.0000       0.038369         1.0441
  68   0.0000       0.055202         1.5021
  69   0.0000       0.111261         3.0276
  70   0.0000       0.120194         3.2707
  71   0.0000       0.130005         3.5376

MULLIKEN ATOMIC CHARGES
-----------------------
   0 S :    0.108429
   1 C :   -0.165008
   2 C :   -0.078297
   3 C :    0.057978
   4 C :   -0.167200
   5 H :   -0.008891
   6 C :    0.083664
   7 H :    0.032761
   8 H :    0.026090
   9 C :   -0.085482
  10 H :    0.029994
  11 H :    0.030538
  12 C :   -0.094020
  13 H :    0.047946
  14 H :    0.035414
  15 H :    0.035331
  16 S :    0.109413
  17 C :   -0.108294
  18 C :    0.006291
  19 C :   -0.051737
  20 C :   -0.163570
  21 H :    0.009599
  22 C :    0.078349
  23 H :    0.038615
  24 H :    0.029056
  25 C :   -0.125378
  26 H :    0.038873
  27 H :    0.037945
  28 C :   -0.020810
  29 H :    0.020031
  30 H :    0.017652
  31 H :    0.051543
  32 H :    0.078204
  33 H :    0.064974
Sum of atomic charges:    0.0000000

LOEWDIN ATOMIC CHARGES
----------------------
   0 S :    0.404037
   1 C :   -0.204077
   2 C :   -0.066993
   3 C :   -0.052631
   4 C :   -0.207371
   5 H :    0.016755
   6 C :   -0.037169
   7 H :    0.039560
   8 H :    0.031885
   9 C :   -0.047207
  10 H :    0.026297
  11 H :    0.030381
  12 C :   -0.077158
  13 H :    0.030048
  14 H :    0.029652
  15 H :    0.025462
  16 S :    0.415599
  17 C :   -0.172952
  18 C :   -0.070129
  19 C :   -0.050006
  20 C :   -0.214395
  21 H :    0.021985
  22 C :   -0.024835
  23 H :    0.036559
  24 H :    0.025403
  25 C :   -0.052721
  26 H :    0.025596
  27 H :    0.032201
  28 C :   -0.075775
  29 H :    0.028679
  30 H :    0.023570
  31 H :    0.034530
  32 H :    0.045857
  33 H :    0.029365

  Mayer bond orders larger than 0.100000
B(  0-S ,  1-C ) :   1.1257 B(  0-S ,  4-C ) :   1.1578 B(  1-C ,  2-C ) :   1.6327
B(  1-C , 32-H ) :   0.9538 B(  2-C ,  3-C ) :   1.2229 B(  2-C ,  6-C ) :   1.0408
B(  3-C ,  4-C ) :   1.5631 B(  3-C ,  5-H ) :   0.9988 B(  4-C , 20-C ) :   1.0428
B(  6-C ,  7-H ) :   0.9372 B(  6-C ,  8-H ) :   0.9329 B(  6-C ,  9-C ) :   1.0493
B(  9-C , 10-H ) :   0.9500 B(  9-C , 11-H ) :   0.9571 B(  9-C , 12-C ) :   1.0861
B( 12-C , 13-H ) :   0.9718 B( 12-C , 14-H ) :   0.9707 B( 12-C , 15-H ) :   0.9717
B( 16-S , 17-C ) :   1.1671 B( 16-S , 20-C ) :   1.1505 B( 17-C , 18-C ) :   1.5752
B( 17-C , 20-C ) :   0.1078 B( 17-C , 33-H ) :   0.9754 B( 18-C , 19-C ) :   1.2611
B( 18-C , 21-H ) :   0.9844 B( 19-C , 20-C ) :   1.5783 B( 19-C , 22-C ) :   1.0338
B( 22-C , 23-H ) :   0.9323 B( 22-C , 24-H ) :   0.9381 B( 22-C , 25-C ) :   1.0565
B( 25-C , 26-H ) :   0.9557 B( 25-C , 27-H ) :   0.9518 B( 25-C , 28-C ) :   1.0918
B( 28-C , 29-H ) :   0.9633 B( 28-C , 30-H ) :   0.9683 B( 28-C , 31-H ) :   0.9722

Dispersion correction           -0.013549387
FINAL SINGLE POINT ENERGY     -1339.871988736632

DIPOLE MOMENT
-------------
                                X             Y             Z
Electronic contribution:     19.28766     -19.06099      -7.76280
Nuclear contribution   :    -19.81497      19.43999       7.80858
                        -----------------------------------------
Total Dipole Moment    :     -0.52731       0.37899       0.04578
                        -----------------------------------------
Magnitude (a.u.)       :      0.65098
Magnitude (Debye)      :      1.65467

Rotational constants in cm-1:     0.016170     0.008339     0.006813
Rotational constants in MHz :   484.765849   250.005490   204.262518

                             ****ORCA TERMINATED NORMALLY****
TOTAL RUN TIME: 0 days 0 hours 0 minutes 21 seconds 181 msec
