                         Program Version 4.2.1 -  RELEASE  -
|  1> ! wB97X-D3 SP def2-SVP
|  2> %pal
|  3> nprocs 24
|  4> end
|  5>
|  6> * xyz 0 1
|  7> S 	 -73.0949 	 5.75879 	 -113.188
|  8> C 	 -73.9049 	 5.75332 	 -111.672
|  9> C 	 -73.5537 	 6.88378 	 -110.924
| 10> C 	 -72.5726 	 7.71657 	 -111.647
| 11> C 	 -72.153 	 7.18764 	 -112.862
| 12> H 	 -72.2003 	 8.63177 	 -111.233
| 13> C 	 -74.2386 	 7.36587 	 -109.582
| 14> H 	 -75.1187 	 6.74622 	 -109.487
| 15> H 	 -74.4889 	 8.42437 	 -109.692
| 16> C 	 -73.3675 	 7.19542 	 -108.348
| 17> H 	 -73.363 	 6.10445 	 -108.115
| 18> H 	 -72.3726 	 7.59785 	 -108.706
| 19> C 	 -73.8084 	 7.92514 	 -107.056
| 20> H 	 -73.127 	 7.54511 	 -106.307
| 21> H 	 -73.6632 	 9.01833 	 -106.955
| 22> H 	 -74.7862 	 7.74295 	 -106.574
| 23> S 	 -72.1672 	 9.36097 	 -114.612
| 24> C 	 -70.7034 	 9.70876 	 -115.399
| 25> C 	 -69.7845 	 8.71265 	 -115.329
| 26> C 	 -70.1744 	 7.69011 	 -114.363
| 27> C 	 -71.4059 	 7.96305 	 -113.846
| 28> H 	 -68.7903 	 8.76642 	 -115.799
| 29> C 	 -69.4482 	 6.43804 	 -114.087
| 30> H 	 -69.5565 	 6.0206 	 -113.116
| 31> H 	 -68.4195 	 6.80465 	 -114.088
| 32> C 	 -69.6976 	 5.30443 	 -115.097
| 33> H 	 -70.7058 	 4.93099 	 -115.072
| 34> H 	 -69.0576 	 4.43835 	 -114.799
| 35> C 	 -69.4261 	 5.56726 	 -116.549
| 36> H 	 -68.345 	 5.7833 	 -116.758
| 37> H 	 -70.0812 	 6.25734 	 -117.031
| 38> H 	 -69.7345 	 4.66335 	 -117.084
| 39> H 	 -74.6868 	 5.08959 	 -111.398
| 40> H 	 -70.6223 	 10.5298 	 -116.132
| 41> *
| 42>
| 43>                          ****END OF INPUT****

CARTESIAN COORDINATES (ANGSTROEM)
---------------------------------
  S    -73.094900    5.758790  -113.188000
  C    -73.904900    5.753320  -111.672000
  C    -73.553700    6.883780  -110.924000
  C    -72.572600    7.716570  -111.647000
  C    -72.153000    7.187640  -112.862000
  H    -72.200300    8.631770  -111.233000
  C    -74.238600    7.365870  -109.582000
  H    -75.118700    6.746220  -109.487000
  H    -74.488900    8.424370  -109.692000
  C    -73.367500    7.195420  -108.348000
  H    -73.363000    6.104450  -108.115000
  H    -72.372600    7.597850  -108.706000
  C    -73.808400    7.925140  -107.056000
  H    -73.127000    7.545110  -106.307000
  H    -73.663200    9.018330  -106.955000
  H    -74.786200    7.742950  -106.574000
  S    -72.167200    9.360970  -114.612000
  C    -70.703400    9.708760  -115.399000
  C    -69.784500    8.712650  -115.329000
  C    -70.174400    7.690110  -114.363000
  C    -71.405900    7.963050  -113.846000
  H    -68.790300    8.766420  -115.799000
  C    -69.448200    6.438040  -114.087000
  H    -69.556500    6.020600  -113.116000
  H    -68.419500    6.804650  -114.088000
  C    -69.697600    5.304430  -115.097000
  H    -70.705800    4.930990  -115.072000
  H    -69.057600    4.438350  -114.799000
  C    -69.426100    5.567260  -116.549000
  H    -68.345000    5.783300  -116.758000
  H    -70.081200    6.257340  -117.031000
  H    -69.734500    4.663350  -117.084000
  H    -74.686800    5.089590  -111.398000
  H    -70.622300   10.529800  -116.132000

 Total Charge           Charge          ....    0
 Multiplicity           Mult            ....    1
 Number of Electrons    NEL             ....  134
 Basis Dimension        Dim             ....  322

ORBITAL ENERGIES
----------------

  NO   OCC          E(Eh)            E(eV)
   0   2.0000     -88.965912     -2420.8855
   1   2.0000     -88.962887     -2420.8032
   2   2.0000     -10.325873      -280.9813
   3   2.0000     -10.318596      -280.7833
   4   2.0000     -10.314651      -280.6759
   5   2.0000     -10.313181      -280.6359
   6   2.0000     -10.307206      -280.4733
   7   2.0000     -10.297385      -280.2061
   8   2.0000     -10.296039      -280.1695
   9   2.0000     -10.295781      -280.1625
  10   2.0000     -10.294052      -280.1154
  11   2.0000     -10.293187      -280.0919
  12   2.0000     -10.283484      -279.8278
  13   2.0000     -10.283156      -279.8189
  14   2.0000     -10.281529      -279.7746
  15   2.0000     -10.271790      -279.5096
  16   2.0000      -8.080874      -219.8918
  17   2.0000      -8.078619      -219.8304
  18   2.0000      -6.039363      -164.3394
  19   2.0000      -6.036989      -164.2748
  20   2.0000      -6.035235      -164.2271
  21   2.0000      -6.033188      -164.1714
  22   2.0000      -6.031751      -164.1323
  23   2.0000      -6.029253      -164.0643
  24   2.0000      -1.008212       -27.4348
  25   2.0000      -0.985151       -26.8073
  26   2.0000      -0.913498       -24.8576
  27   2.0000      -0.905030       -24.6271
  28   2.0000      -0.870377       -23.6842
  29   2.0000      -0.851573       -23.1725
  30   2.0000      -0.840932       -22.8829
  31   2.0000      -0.813252       -22.1297
  32   2.0000      -0.786992       -21.4151
  33   2.0000      -0.775140       -21.0926
  34   2.0000      -0.704849       -19.1799
  35   2.0000      -0.691200       -18.8085
  36   2.0000      -0.687702       -18.7133
  37   2.0000      -0.660296       -17.9676
  38   2.0000      -0.641737       -17.4626
  39   2.0000      -0.612286       -16.6612
  40   2.0000      -0.597037       -16.2462
  41   2.0000      -0.568314       -15.4646
  42   2.0000      -0.561300       -15.2737
  43   2.0000      -0.555250       -15.1091
  44   2.0000      -0.543754       -14.7963
  45   2.0000      -0.523563       -14.2469
  46   2.0000      -0.517064       -14.0700
  47   2.0000      -0.508855       -13.8467
  48   2.0000      -0.501943       -13.6586
  49   2.0000      -0.495824       -13.4921
  50   2.0000      -0.488490       -13.2925
  51   2.0000      -0.480526       -13.0758
  52   2.0000      -0.471980       -12.8432
  53   2.0000      -0.464414       -12.6374
  54   2.0000      -0.457382       -12.4460
  55   2.0000      -0.445298       -12.1172
  56   2.0000      -0.442382       -12.0378
  57   2.0000      -0.437017       -11.8918
  58   2.0000      -0.428180       -11.6514
  59   2.0000      -0.425671       -11.5831
  60   2.0000      -0.419444       -11.4137
  61   2.0000      -0.413326       -11.2472
  62   2.0000      -0.406059       -11.0494
  63   2.0000      -0.332932        -9.0595
  64   2.0000      -0.330775        -9.0008
  65   2.0000      -0.323573        -8.8049
  66   2.0000      -0.307976        -8.3804
  67   0.0000       0.043050         1.1715
  68   0.0000       0.061046         1.6611
  69   0.0000       0.109881         2.9900
  70   0.0000       0.117806         3.2057
  71   0.0000       0.128095         3.4856

MULLIKEN ATOMIC CHARGES
-----------------------
   0 S :    0.111691
   1 C :   -0.106756
   2 C :   -0.121587
   3 C :    0.019834
   4 C :   -0.147916
   5 H :    0.009437
   6 C :    0.089657
   7 H :    0.011955
   8 H :    0.034165
   9 C :   -0.093442
  10 H :    0.040532
  11 H :    0.041477
  12 C :   -0.060854
  13 H :    0.025183
  14 H :    0.034375
  15 H :    0.034436
  16 S :    0.126074
  17 C :   -0.090947
  18 C :   -0.039948
  19 C :   -0.052426
  20 C :   -0.172341
  21 H :    0.028107
  22 C :    0.109866
  23 H :    0.023663
  24 H :    0.014204
  25 C :   -0.061914
  26 H :    0.019149
  27 H :    0.032166
  28 C :   -0.056882
  29 H :    0.036314
  30 H :    0.032274
  31 H :    0.023650
  32 H :    0.042431
  33 H :    0.064376
Sum of atomic charges:    0.0000000

LOEWDIN ATOMIC CHARGES
----------------------
   0 S :    0.425422
   1 C :   -0.204854
   2 C :   -0.062072
   3 C :   -0.055268
   4 C :   -0.208433
   5 H :    0.025751
   6 C :   -0.029695
   7 H :    0.023451
   8 H :    0.031563
   9 C :   -0.044926
  10 H :    0.032016
  11 H :    0.033599
  12 C :   -0.083896
  13 H :    0.029172
  14 H :    0.027457
  15 H :    0.028053
  16 S :    0.415329
  17 C :   -0.199264
  18 C :   -0.075764
  19 C :   -0.049473
  20 C :   -0.199648
  21 H :    0.035344
  22 C :   -0.035635
  23 H :    0.031462
  24 H :    0.032586
  25 C :   -0.037398
  26 H :    0.018857
  27 H :    0.030691
  28 C :   -0.072137
  29 H :    0.026878
  30 H :    0.021371
  31 H :    0.030792
  32 H :    0.024720
  33 H :    0.033949

  Mayer bond orders larger than 0.100000
B(  0-S ,  1-C ) :   1.1574 B(  0-S ,  4-C ) :   1.1535 B(  1-C ,  2-C ) :   1.6011
B(  1-C , 32-H ) :   0.9711 B(  2-C ,  3-C ) :   1.2485 B(  2-C ,  6-C ) :   1.0170
B(  3-C ,  4-C ) :   1.5603 B(  3-C ,  5-H ) :   0.9998 B(  4-C , 20-C ) :   1.0341
B(  6-C ,  7-H ) :   0.9408 B(  6-C ,  8-H ) :   0.9466 B(  6-C ,  9-C ) :   1.0650
B(  9-C , 10-H ) :   0.9564 B(  9-C , 11-H ) :   0.9575 B(  9-C , 12-C ) :   1.0739
B( 12-C , 13-H ) :   0.9719 B( 12-C , 14-H ) :   0.9746 B( 12-C , 15-H ) :   0.9750
B( 16-S , 17-C ) :   1.1612 B( 16-S , 20-C ) :   1.1260 B( 17-C , 18-C ) :   1.6323
B( 17-C , 33-H ) :   0.9585 B( 18-C , 19-C ) :   1.2171 B( 18-C , 21-H ) :   0.9842
B( 19-C , 20-C ) :   1.6309 B( 19-C , 22-C ) :   1.0561 B( 22-C , 23-H ) :   0.9210
B( 22-C , 24-H ) :   0.9244 B( 22-C , 25-C ) :   1.0720 B( 25-C , 26-H ) :   0.9488
B( 25-C , 27-H ) :   0.9531 B( 25-C , 28-C ) :   1.0975 B( 28-C , 29-H ) :   0.9744
B( 28-C , 30-H ) :   0.9665 B( 28-C , 31-H ) :   0.9665

Dispersion correction           -0.014558751
FINAL SINGLE POINT ENERGY     -1339.877459654019

DIPOLE MOMENT
-------------
                                X             Y             Z
Electronic contribution:     -5.62759       5.96750     -13.10056
Nuclear contribution   :      5.70892      -5.98658      13.32723
                        -----------------------------------------
Total Dipole Moment    :      0.08133      -0.01907       0.22667
                        -----------------------------------------
Magnitude (a.u.)       :      0.24157
Magnitude (Debye)      :      0.61403

Rotational constants in cm-1:     0.023784     0.007208     0.006429
Rotational constants in MHz :   713.019939   216.076382   192.739196

                             ****ORCA TERMINATED NORMALLY****
TOTAL RUN TIME: 0 days 0 hours 0 minutes 22 seconds 92 msec
