                         Program Version 4.2.1 -  RELEASE  -
|  1> ! wB97X-D3 SP def2-SVP
|  2> %pal
|  3> nprocs 24
|  4> end
|  5>
|  6> * xyz 0 1
|  7> S 	 -130.333 	 62.7987 	 -58.622
|  8> C 	 -129.551 	 64.2661 	 -58.4986
|  9> C 	 -128.239 	 64.092 	 -58.154
| 10> C 	 -127.828 	 62.7322 	 -57.8621
| 11> C 	 -128.894 	 61.835 	 -58.0762
| 12> H 	 -126.853 	 62.3827 	 -57.6109
| 13> C 	 -127.15 	 65.2101 	 -58.1895
| 14> H 	 -126.97 	 65.3077 	 -57.1122
| 15> H 	 -127.569 	 66.1175 	 -58.6288
| 16> C 	 -125.943 	 64.8179 	 -59.0629
| 17> H 	 -125.392 	 63.946 	 -58.65
| 18> H 	 -126.26 	 64.6618 	 -60.1469
| 19> C 	 -124.928 	 65.9466 	 -59.0983
| 20> H 	 -123.957 	 65.6864 	 -59.6422
| 21> H 	 -125.307 	 66.8359 	 -59.4978
| 22> H 	 -124.591 	 66.1115 	 -58.0786
| 23> S 	 -130.069 	 59.463 	 -58.8536
| 24> C 	 -129.528 	 57.9431 	 -58.0297
| 25> C 	 -128.501 	 58.1346 	 -57.1118
| 26> C 	 -128.056 	 59.5393 	 -57.0493
| 27> C 	 -128.853 	 60.3763 	 -57.8469
| 28> H 	 -128.082 	 57.2931 	 -56.59
| 29> C 	 -127.013 	 59.9213 	 -56.0313
| 30> H 	 -126.353 	 60.6192 	 -56.4925
| 31> H 	 -126.427 	 59.0523 	 -55.817
| 32> C 	 -127.507 	 60.4791 	 -54.661
| 33> H 	 -128.121 	 59.684 	 -54.1844
| 34> H 	 -128.247 	 61.2521 	 -54.7661
| 35> C 	 -126.412 	 60.8761 	 -53.6867
| 36> H 	 -125.613 	 60.144 	 -53.6699
| 37> H 	 -126.725 	 61.1603 	 -52.6724
| 38> H 	 -125.962 	 61.8472 	 -53.9938
| 39> H 	 -129.976 	 65.2138 	 -58.7555
| 40> H 	 -130.054 	 56.997 	 -58.1758
| 41> *
| 42>
| 43>                          ****END OF INPUT****

CARTESIAN COORDINATES (ANGSTROEM)
---------------------------------
  S    -130.333000   62.798700  -58.622000
  C    -129.551000   64.266100  -58.498600
  C    -128.239000   64.092000  -58.154000
  C    -127.828000   62.732200  -57.862100
  C    -128.894000   61.835000  -58.076200
  H    -126.853000   62.382700  -57.610900
  C    -127.150000   65.210100  -58.189500
  H    -126.970000   65.307700  -57.112200
  H    -127.569000   66.117500  -58.628800
  C    -125.943000   64.817900  -59.062900
  H    -125.392000   63.946000  -58.650000
  H    -126.260000   64.661800  -60.146900
  C    -124.928000   65.946600  -59.098300
  H    -123.957000   65.686400  -59.642200
  H    -125.307000   66.835900  -59.497800
  H    -124.591000   66.111500  -58.078600
  S    -130.069000   59.463000  -58.853600
  C    -129.528000   57.943100  -58.029700
  C    -128.501000   58.134600  -57.111800
  C    -128.056000   59.539300  -57.049300
  C    -128.853000   60.376300  -57.846900
  H    -128.082000   57.293100  -56.590000
  C    -127.013000   59.921300  -56.031300
  H    -126.353000   60.619200  -56.492500
  H    -126.427000   59.052300  -55.817000
  C    -127.507000   60.479100  -54.661000
  H    -128.121000   59.684000  -54.184400
  H    -128.247000   61.252100  -54.766100
  C    -126.412000   60.876100  -53.686700
  H    -125.613000   60.144000  -53.669900
  H    -126.725000   61.160300  -52.672400
  H    -125.962000   61.847200  -53.993800
  H    -129.976000   65.213800  -58.755500
  H    -130.054000   56.997000  -58.175800

 Total Charge           Charge          ....    0
 Multiplicity           Mult            ....    1
 Number of Electrons    NEL             ....  134
 Basis Dimension        Dim             ....  322

ORBITAL ENERGIES
----------------

  NO   OCC          E(Eh)            E(eV)
   0   2.0000     -88.966455     -2420.9003
   1   2.0000     -88.966164     -2420.8924
   2   2.0000     -10.340246      -281.3724
   3   2.0000     -10.339104      -281.3413
   4   2.0000     -10.325200      -280.9630
   5   2.0000     -10.314195      -280.6635
   6   2.0000     -10.307521      -280.4819
   7   2.0000     -10.302129      -280.3352
   8   2.0000     -10.300320      -280.2860
   9   2.0000     -10.297634      -280.2129
  10   2.0000     -10.295657      -280.1591
  11   2.0000     -10.294297      -280.1221
  12   2.0000     -10.293525      -280.1011
  13   2.0000     -10.287918      -279.9485
  14   2.0000     -10.282304      -279.7957
  15   2.0000     -10.275868      -279.6206
  16   2.0000      -8.081288      -219.9030
  17   2.0000      -8.079326      -219.8496
  18   2.0000      -6.039950      -164.3554
  19   2.0000      -6.038033      -164.3032
  20   2.0000      -6.035678      -164.2391
  21   2.0000      -6.034313      -164.2020
  22   2.0000      -6.031905      -164.1365
  23   2.0000      -6.029774      -164.0785
  24   2.0000      -0.999846       -27.2072
  25   2.0000      -0.973739       -26.4968
  26   2.0000      -0.909016       -24.7356
  27   2.0000      -0.906182       -24.6585
  28   2.0000      -0.869766       -23.6675
  29   2.0000      -0.852042       -23.1852
  30   2.0000      -0.845270       -23.0010
  31   2.0000      -0.813562       -22.1382
  32   2.0000      -0.779973       -21.2241
  33   2.0000      -0.766148       -20.8480
  34   2.0000      -0.710161       -19.3245
  35   2.0000      -0.697042       -18.9675
  36   2.0000      -0.688454       -18.7338
  37   2.0000      -0.665946       -18.1213
  38   2.0000      -0.643176       -17.5017
  39   2.0000      -0.618049       -16.8180
  40   2.0000      -0.592808       -16.1311
  41   2.0000      -0.573532       -15.6066
  42   2.0000      -0.566154       -15.4058
  43   2.0000      -0.557996       -15.1838
  44   2.0000      -0.526532       -14.3277
  45   2.0000      -0.519643       -14.1402
  46   2.0000      -0.515756       -14.0344
  47   2.0000      -0.513003       -13.9595
  48   2.0000      -0.505176       -13.7465
  49   2.0000      -0.501597       -13.6491
  50   2.0000      -0.495894       -13.4940
  51   2.0000      -0.483103       -13.1459
  52   2.0000      -0.473920       -12.8960
  53   2.0000      -0.466210       -12.6862
  54   2.0000      -0.454979       -12.3806
  55   2.0000      -0.451557       -12.2875
  56   2.0000      -0.441101       -12.0030
  57   2.0000      -0.436430       -11.8759
  58   2.0000      -0.430206       -11.7065
  59   2.0000      -0.427808       -11.6413
  60   2.0000      -0.420434       -11.4406
  61   2.0000      -0.411140       -11.1877
  62   2.0000      -0.406427       -11.0594
  63   2.0000      -0.362222        -9.8566
  64   2.0000      -0.333067        -9.0632
  65   2.0000      -0.324638        -8.8338
  66   2.0000      -0.281988        -7.6733
  67   0.0000       0.017373         0.4727
  68   0.0000       0.076073         2.0700
  69   0.0000       0.094535         2.5724
  70   0.0000       0.122965         3.3460
  71   0.0000       0.129645         3.5278

MULLIKEN ATOMIC CHARGES
-----------------------
   0 S :    0.109784
   1 C :   -0.100341
   2 C :   -0.102934
   3 C :    0.013267
   4 C :   -0.107488
   5 H :    0.000102
   6 C :    0.067416
   7 H :    0.044289
   8 H :    0.015101
   9 C :   -0.108720
  10 H :    0.038717
  11 H :    0.051755
  12 C :   -0.035662
  13 H :    0.039968
  14 H :    0.019993
  15 H :    0.016577
  16 S :    0.073567
  17 C :   -0.092985
  18 C :   -0.022145
  19 C :   -0.063759
  20 C :   -0.134275
  21 H :    0.023301
  22 C :    0.084610
  23 H :    0.010684
  24 H :    0.009765
  25 C :   -0.055275
  26 H :    0.022441
  27 H :    0.029523
  28 C :   -0.041830
  29 H :    0.028900
  30 H :    0.037500
  31 H :    0.021491
  32 H :    0.041758
  33 H :    0.064908
Sum of atomic charges:   -0.0000000

LOEWDIN ATOMIC CHARGES
----------------------
   0 S :    0.411430
   1 C :   -0.224525
   2 C :   -0.066487
   3 C :   -0.059180
   4 C :   -0.175752
   5 H :    0.023993
   6 C :   -0.029446
   7 H :    0.035111
   8 H :    0.026248
   9 C :   -0.046053
  10 H :    0.026052
  11 H :    0.036025
  12 C :   -0.066755
  13 H :    0.033560
  14 H :    0.012737
  15 H :    0.021471
  16 S :    0.343919
  17 C :   -0.162993
  18 C :   -0.063511
  19 C :   -0.051374
  20 C :   -0.161689
  21 H :    0.032938
  22 C :   -0.027844
  23 H :    0.021573
  24 H :    0.028666
  25 C :   -0.039476
  26 H :    0.026646
  27 H :    0.023849
  28 C :   -0.069332
  29 H :    0.022234
  30 H :    0.031184
  31 H :    0.026495
  32 H :    0.030083
  33 H :    0.030201

  Mayer bond orders larger than 0.100000
B(  0-S ,  1-C ) :   1.1411 B(  0-S ,  4-C ) :   1.1431 B(  1-C ,  2-C ) :   1.6176
B(  1-C , 32-H ) :   0.9690 B(  2-C ,  3-C ) :   1.2402 B(  2-C ,  6-C ) :   1.0061
B(  3-C ,  4-C ) :   1.5539 B(  3-C ,  5-H ) :   0.9972 B(  4-C , 20-C ) :   1.0869
B(  6-C ,  7-H ) :   0.9367 B(  6-C ,  8-H ) :   0.9506 B(  6-C ,  9-C ) :   1.0663
B(  9-C , 10-H ) :   0.9505 B(  9-C , 11-H ) :   0.9570 B(  9-C , 12-C ) :   1.0902
B( 12-C , 13-H ) :   0.9737 B( 12-C , 14-H ) :   0.9749 B( 12-C , 15-H ) :   0.9718
B( 16-S , 17-C ) :   1.1230 B( 16-S , 20-C ) :   1.1096 B( 17-C , 18-C ) :   1.6613
B( 17-C , 33-H ) :   0.9637 B( 18-C , 19-C ) :   1.1915 B( 18-C , 21-H ) :   0.9862
B( 19-C , 20-C ) :   1.6212 B( 19-C , 22-C ) :   1.0577 B( 22-C , 23-H ) :   0.9322
B( 22-C , 24-H ) :   0.9219 B( 22-C , 25-C ) :   1.0562 B( 25-C , 26-H ) :   0.9522
B( 25-C , 27-H ) :   0.9571 B( 25-C , 28-C ) :   1.0810 B( 28-C , 29-H ) :   0.9749
B( 28-C , 30-H ) :   0.9721 B( 28-C , 31-H ) :   0.9719

Dispersion correction           -0.013787555
FINAL SINGLE POINT ENERGY     -1339.873352867520

DIPOLE MOMENT
-------------
                                X             Y             Z
Electronic contribution:    -24.87135     -12.36393     -12.85642
Nuclear contribution   :     25.45845      12.50853      13.23317
                        -----------------------------------------
Total Dipole Moment    :      0.58710       0.14460       0.37675
                        -----------------------------------------
Magnitude (a.u.)       :      0.71241
Magnitude (Debye)      :      1.81081

Rotational constants in cm-1:     0.016508     0.008862     0.006690
Rotational constants in MHz :   494.883147   265.677620   200.574691

                             ****ORCA TERMINATED NORMALLY****
TOTAL RUN TIME: 0 days 0 hours 0 minutes 21 seconds 289 msec
