                         Program Version 4.2.1 -  RELEASE  -
|  1> ! wB97X-D3 SP def2-SVP
|  2> %pal
|  3> nprocs 24
|  4> end
|  5>
|  6> * xyz 0 1
|  7> S 	 -47.1849 	 14.3656 	 22.7438
|  8> C 	 -47.9406 	 12.904 	 22.146
|  9> C 	 -48.376 	 12.1219 	 23.197
| 10> C 	 -48.1071 	 12.7238 	 24.4463
| 11> C 	 -47.532 	 13.9629 	 24.4329
| 12> H 	 -48.3824 	 12.3772 	 25.4161
| 13> C 	 -49.0534 	 10.7794 	 22.9886
| 14> H 	 -49.3385 	 10.7338 	 21.9115
| 15> H 	 -50.0359 	 10.6887 	 23.4379
| 16> C 	 -48.1339 	 9.62629 	 23.2038
| 17> H 	 -47.3787 	 9.55511 	 22.4629
| 18> H 	 -47.6948 	 9.75368 	 24.1768
| 19> C 	 -48.9054 	 8.27827 	 23.1128
| 20> H 	 -49.4307 	 8.16183 	 24.0488
| 21> H 	 -49.6171 	 8.24094 	 22.3667
| 22> H 	 -48.1669 	 7.40701 	 23.0449
| 23> S 	 -48.6003 	 15.4293 	 26.3393
| 24> C 	 -47.6148 	 16.1341 	 27.6081
| 25> C 	 -46.3181 	 15.7597 	 27.4687
| 26> C 	 -46.001 	 15.0517 	 26.2905
| 27> C 	 -47.1769 	 14.7639 	 25.6054
| 28> H 	 -45.6176 	 15.9915 	 28.2572
| 29> C 	 -44.5751 	 14.5712 	 25.9608
| 30> H 	 -43.9083 	 14.6736 	 26.819
| 31> H 	 -44.2545 	 15.3096 	 25.2114
| 32> C 	 -44.3503 	 13.0827 	 25.4351
| 33> H 	 -43.2978 	 12.9072 	 25.1128
| 34> H 	 -44.9892 	 13.05 	 24.5498
| 35> C 	 -44.7703 	 12.1253 	 26.5563
| 36> H 	 -44.8081 	 11.107 	 26.0421
| 37> H 	 -45.8108 	 12.1805 	 26.9585
| 38> H 	 -44.24 	 12.1062 	 27.4026
| 39> H 	 -48.0589 	 12.5234 	 21.1591
| 40> H 	 -48.0501 	 16.6179 	 28.4966
| 41> *
| 42>
| 43>                          ****END OF INPUT****

CARTESIAN COORDINATES (ANGSTROEM)
---------------------------------
  S    -47.184900   14.365600   22.743800
  C    -47.940600   12.904000   22.146000
  C    -48.376000   12.121900   23.197000
  C    -48.107100   12.723800   24.446300
  C    -47.532000   13.962900   24.432900
  H    -48.382400   12.377200   25.416100
  C    -49.053400   10.779400   22.988600
  H    -49.338500   10.733800   21.911500
  H    -50.035900   10.688700   23.437900
  C    -48.133900    9.626290   23.203800
  H    -47.378700    9.555110   22.462900
  H    -47.694800    9.753680   24.176800
  C    -48.905400    8.278270   23.112800
  H    -49.430700    8.161830   24.048800
  H    -49.617100    8.240940   22.366700
  H    -48.166900    7.407010   23.044900
  S    -48.600300   15.429300   26.339300
  C    -47.614800   16.134100   27.608100
  C    -46.318100   15.759700   27.468700
  C    -46.001000   15.051700   26.290500
  C    -47.176900   14.763900   25.605400
  H    -45.617600   15.991500   28.257200
  C    -44.575100   14.571200   25.960800
  H    -43.908300   14.673600   26.819000
  H    -44.254500   15.309600   25.211400
  C    -44.350300   13.082700   25.435100
  H    -43.297800   12.907200   25.112800
  H    -44.989200   13.050000   24.549800
  C    -44.770300   12.125300   26.556300
  H    -44.808100   11.107000   26.042100
  H    -45.810800   12.180500   26.958500
  H    -44.240000   12.106200   27.402600
  H    -48.058900   12.523400   21.159100
  H    -48.050100   16.617900   28.496600

 Total Charge           Charge          ....    0
 Multiplicity           Mult            ....    1
 Number of Electrons    NEL             ....  134
 Basis Dimension        Dim             ....  322

ORBITAL ENERGIES
----------------

  NO   OCC          E(Eh)            E(eV)
   0   2.0000     -88.966038     -2420.8890
   1   2.0000     -88.964980     -2420.8602
   2   2.0000     -10.327866      -281.0355
   3   2.0000     -10.326283      -280.9924
   4   2.0000     -10.315004      -280.6855
   5   2.0000     -10.312725      -280.6235
   6   2.0000     -10.307356      -280.4774
   7   2.0000     -10.297722      -280.2153
   8   2.0000     -10.295735      -280.1612
   9   2.0000     -10.292155      -280.0638
  10   2.0000     -10.290454      -280.0175
  11   2.0000     -10.290192      -280.0104
  12   2.0000     -10.288151      -279.9548
  13   2.0000     -10.279705      -279.7250
  14   2.0000     -10.276454      -279.6365
  15   2.0000     -10.272210      -279.5210
  16   2.0000      -8.080077      -219.8701
  17   2.0000      -8.079932      -219.8661
  18   2.0000      -6.038508      -164.3162
  19   2.0000      -6.038505      -164.3161
  20   2.0000      -6.034493      -164.2069
  21   2.0000      -6.034452      -164.2058
  22   2.0000      -6.030929      -164.1099
  23   2.0000      -6.030756      -164.1052
  24   2.0000      -1.009591       -27.4724
  25   2.0000      -0.987366       -26.8676
  26   2.0000      -0.917245       -24.9595
  27   2.0000      -0.900098       -24.4929
  28   2.0000      -0.873866       -23.7791
  29   2.0000      -0.848664       -23.0933
  30   2.0000      -0.844030       -22.9672
  31   2.0000      -0.816382       -22.2149
  32   2.0000      -0.781701       -21.2712
  33   2.0000      -0.771594       -20.9961
  34   2.0000      -0.712590       -19.3905
  35   2.0000      -0.701525       -19.0895
  36   2.0000      -0.692333       -18.8393
  37   2.0000      -0.663614       -18.0579
  38   2.0000      -0.643381       -17.5073
  39   2.0000      -0.618485       -16.8298
  40   2.0000      -0.591552       -16.0969
  41   2.0000      -0.573381       -15.6025
  42   2.0000      -0.565221       -15.3805
  43   2.0000      -0.551871       -15.0172
  44   2.0000      -0.539920       -14.6920
  45   2.0000      -0.528987       -14.3945
  46   2.0000      -0.516735       -14.0611
  47   2.0000      -0.514288       -13.9945
  48   2.0000      -0.497542       -13.5388
  49   2.0000      -0.494596       -13.4586
  50   2.0000      -0.492183       -13.3930
  51   2.0000      -0.486570       -13.2403
  52   2.0000      -0.476580       -12.9684
  53   2.0000      -0.468598       -12.7512
  54   2.0000      -0.456219       -12.4143
  55   2.0000      -0.444981       -12.1086
  56   2.0000      -0.441346       -12.0096
  57   2.0000      -0.438282       -11.9263
  58   2.0000      -0.433818       -11.8048
  59   2.0000      -0.424472       -11.5505
  60   2.0000      -0.421150       -11.4601
  61   2.0000      -0.409503       -11.1432
  62   2.0000      -0.403966       -10.9925
  63   2.0000      -0.337431        -9.1820
  64   2.0000      -0.336461        -9.1556
  65   2.0000      -0.324722        -8.8361
  66   2.0000      -0.304833        -8.2949
  67   0.0000       0.040254         1.0954
  68   0.0000       0.060707         1.6519
  69   0.0000       0.113646         3.0925
  70   0.0000       0.126763         3.4494
  71   0.0000       0.132325         3.6008

MULLIKEN ATOMIC CHARGES
-----------------------
   0 S :    0.111388
   1 C :   -0.088763
   2 C :   -0.087793
   3 C :    0.059383
   4 C :   -0.176163
   5 H :   -0.006080
   6 C :    0.049528
   7 H :    0.005609
   8 H :    0.032322
   9 C :   -0.043276
  10 H :    0.020880
  11 H :    0.025860
  12 C :   -0.035028
  13 H :    0.023292
  14 H :    0.015693
  15 H :    0.042704
  16 S :    0.115424
  17 C :   -0.094855
  18 C :   -0.053605
  19 C :    0.017580
  20 C :   -0.218455
  21 H :    0.015725
  22 C :    0.038188
  23 H :    0.019179
  24 H :    0.045750
  25 C :   -0.049247
  26 H :    0.042945
  27 H :    0.044997
  28 C :   -0.045113
  29 H :    0.036689
  30 H :    0.032023
  31 H :    0.006805
  32 H :    0.031472
  33 H :    0.064941
Sum of atomic charges:   -0.0000000

LOEWDIN ATOMIC CHARGES
----------------------
   0 S :    0.395238
   1 C :   -0.189288
   2 C :   -0.065090
   3 C :   -0.061200
   4 C :   -0.200954
   5 H :    0.024189
   6 C :   -0.034815
   7 H :    0.030673
   8 H :    0.029885
   9 C :   -0.032858
  10 H :    0.019680
  11 H :    0.021488
  12 C :   -0.058497
  13 H :    0.023277
  14 H :    0.010563
  15 H :    0.034526
  16 S :    0.421808
  17 C :   -0.189731
  18 C :   -0.072222
  19 C :   -0.052778
  20 C :   -0.202339
  21 H :    0.031547
  22 C :   -0.033222
  23 H :    0.025693
  24 H :    0.036744
  25 C :   -0.034440
  26 H :    0.032349
  27 H :    0.024672
  28 C :   -0.067966
  29 H :    0.036166
  30 H :    0.032136
  31 H :    0.004173
  32 H :    0.026420
  33 H :    0.034175

  Mayer bond orders larger than 0.100000
B(  0-S ,  1-C ) :   1.1404 B(  0-S ,  4-C ) :   1.1233 B(  1-C ,  2-C ) :   1.6212
B(  1-C , 32-H ) :   0.9636 B(  2-C ,  3-C ) :   1.2330 B(  2-C ,  6-C ) :   1.0243
B(  3-C ,  4-C ) :   1.6047 B(  3-C ,  5-H ) :   0.9970 B(  4-C , 20-C ) :   1.0022
B(  6-C ,  7-H ) :   0.9300 B(  6-C ,  8-H ) :   0.9471 B(  6-C ,  9-C ) :   1.0658
B(  9-C , 10-H ) :   0.9547 B(  9-C , 11-H ) :   0.9619 B(  9-C , 12-C ) :   1.0735
B( 12-C , 13-H ) :   0.9770 B( 12-C , 14-H ) :   0.9752 B( 12-C , 15-H ) :   0.9767
B( 16-S , 17-C ) :   1.1451 B( 16-S , 20-C ) :   1.1761 B( 17-C , 18-C ) :   1.6186
B( 17-C , 20-C ) :   0.1011 B( 17-C , 33-H ) :   0.9643 B( 18-C , 19-C ) :   1.2442
B( 18-C , 21-H ) :   0.9866 B( 19-C , 20-C ) :   1.5756 B( 19-C , 22-C ) :   1.0191
B( 22-C , 23-H ) :   0.9458 B( 22-C , 24-H ) :   0.9301 B( 22-C , 25-C ) :   1.0663
B( 25-C , 26-H ) :   0.9544 B( 25-C , 27-H ) :   0.9520 B( 25-C , 28-C ) :   1.0677
B( 28-C , 29-H ) :   0.9739 B( 28-C , 30-H ) :   0.9720 B( 28-C , 31-H ) :   0.9787

Dispersion correction           -0.015467433
FINAL SINGLE POINT ENERGY     -1339.867713553454

DIPOLE MOMENT
-------------
                                X             Y             Z
Electronic contribution:     -6.98316      25.62428      -0.28572
Nuclear contribution   :      7.12952     -26.13744       0.53101
                        -----------------------------------------
Total Dipole Moment    :      0.14636      -0.51316       0.24529
                        -----------------------------------------
Magnitude (a.u.)       :      0.58730
Magnitude (Debye)      :      1.49280

Rotational constants in cm-1:     0.020299     0.008408     0.007662
Rotational constants in MHz :   608.535005   252.060380   229.688152

                             ****ORCA TERMINATED NORMALLY****
TOTAL RUN TIME: 0 days 0 hours 0 minutes 22 seconds 365 msec
