                         Program Version 4.2.1 -  RELEASE  -
|  1> ! wB97X-D3 SP def2-SVP
|  2> %pal
|  3> nprocs 24
|  4> end
|  5>
|  6> * xyz 0 1
|  7> S 	 -52.2221 	 12.7028 	 -102.751
|  8> C 	 -51.0053 	 12.504 	 -101.547
|  9> C 	 -50.9419 	 11.2707 	 -100.993
| 10> C 	 -51.833 	 10.3895 	 -101.672
| 11> C 	 -52.5422 	 10.9949 	 -102.716
| 12> H 	 -51.8907 	 9.29517 	 -101.583
| 13> C 	 -50.0314 	 10.8332 	 -99.8512
| 14> H 	 -50.5754 	 10.1767 	 -99.0865
| 15> H 	 -49.6452 	 11.7071 	 -99.2528
| 16> C 	 -48.7382 	 10.1242 	 -100.352
| 17> H 	 -48.1218 	 10.8464 	 -100.847
| 18> H 	 -48.1201 	 9.70477 	 -99.5117
| 19> C 	 -48.974 	 8.93479 	 -101.293
| 20> H 	 -49.8093 	 8.30298 	 -100.937
| 21> H 	 -49.1533 	 9.36625 	 -102.293
| 22> H 	 -48.1542 	 8.26444 	 -101.411
| 23> S 	 -55.0801 	 11.2046 	 -103.937
| 24> C 	 -55.4383 	 9.983 	 -105.134
| 25> C 	 -54.4404 	 9.04429 	 -105.288
| 26> C 	 -53.4 	 9.19465 	 -104.34
| 27> C 	 -53.4863 	 10.3948 	 -103.638
| 28> H 	 -54.596 	 8.21306 	 -105.858
| 29> C 	 -52.2867 	 8.12244 	 -104.128
| 30> H 	 -52.6393 	 7.39775 	 -103.318
| 31> H 	 -51.4171 	 8.659 	 -103.793
| 32> C 	 -51.9517 	 7.35254 	 -105.433
| 33> H 	 -51.9063 	 7.98612 	 -106.323
| 34> H 	 -52.7672 	 6.6729 	 -105.659
| 35> C 	 -50.7593 	 6.36428 	 -105.222
| 36> H 	 -50.7225 	 5.56697 	 -105.987
| 37> H 	 -50.9199 	 5.98501 	 -104.21
| 38> H 	 -49.8468 	 6.98523 	 -105.257
| 39> H 	 -50.3054 	 13.2907 	 -101.327
| 40> H 	 -56.285 	 10.0243 	 -105.777
| 41> *
| 42>
| 43>                          ****END OF INPUT****

CARTESIAN COORDINATES (ANGSTROEM)
---------------------------------
  S    -52.222100   12.702800  -102.751000
  C    -51.005300   12.504000  -101.547000
  C    -50.941900   11.270700  -100.993000
  C    -51.833000   10.389500  -101.672000
  C    -52.542200   10.994900  -102.716000
  H    -51.890700    9.295170  -101.583000
  C    -50.031400   10.833200  -99.851200
  H    -50.575400   10.176700  -99.086500
  H    -49.645200   11.707100  -99.252800
  C    -48.738200   10.124200  -100.352000
  H    -48.121800   10.846400  -100.847000
  H    -48.120100    9.704770  -99.511700
  C    -48.974000    8.934790  -101.293000
  H    -49.809300    8.302980  -100.937000
  H    -49.153300    9.366250  -102.293000
  H    -48.154200    8.264440  -101.411000
  S    -55.080100   11.204600  -103.937000
  C    -55.438300    9.983000  -105.134000
  C    -54.440400    9.044290  -105.288000
  C    -53.400000    9.194650  -104.340000
  C    -53.486300   10.394800  -103.638000
  H    -54.596000    8.213060  -105.858000
  C    -52.286700    8.122440  -104.128000
  H    -52.639300    7.397750  -103.318000
  H    -51.417100    8.659000  -103.793000
  C    -51.951700    7.352540  -105.433000
  H    -51.906300    7.986120  -106.323000
  H    -52.767200    6.672900  -105.659000
  C    -50.759300    6.364280  -105.222000
  H    -50.722500    5.566970  -105.987000
  H    -50.919900    5.985010  -104.210000
  H    -49.846800    6.985230  -105.257000
  H    -50.305400   13.290700  -101.327000
  H    -56.285000   10.024300  -105.777000

 Total Charge           Charge          ....    0
 Multiplicity           Mult            ....    1
 Number of Electrons    NEL             ....  134
 Basis Dimension        Dim             ....  322

ORBITAL ENERGIES
----------------

  NO   OCC          E(Eh)            E(eV)
   0   2.0000     -88.966497     -2420.9015
   1   2.0000     -88.965703     -2420.8799
   2   2.0000     -10.328087      -281.0415
   3   2.0000     -10.327206      -281.0176
   4   2.0000     -10.315221      -280.6914
   5   2.0000     -10.308925      -280.5201
   6   2.0000     -10.306189      -280.4457
   7   2.0000     -10.303708      -280.3781
   8   2.0000     -10.301821      -280.3268
   9   2.0000     -10.300931      -280.3026
  10   2.0000     -10.295631      -280.1584
  11   2.0000     -10.289658      -279.9958
  12   2.0000     -10.287984      -279.9503
  13   2.0000     -10.285206      -279.8747
  14   2.0000     -10.284711      -279.8612
  15   2.0000     -10.276865      -279.6477
  16   2.0000      -8.081351      -219.9047
  17   2.0000      -8.080450      -219.8802
  18   2.0000      -6.039710      -164.3489
  19   2.0000      -6.038981      -164.3290
  20   2.0000      -6.035815      -164.2429
  21   2.0000      -6.035209      -164.2264
  22   2.0000      -6.032133      -164.1427
  23   2.0000      -6.031110      -164.1149
  24   2.0000      -1.007457       -27.4143
  25   2.0000      -0.983404       -26.7598
  26   2.0000      -0.909471       -24.7480
  27   2.0000      -0.904144       -24.6030
  28   2.0000      -0.869534       -23.6612
  29   2.0000      -0.850960       -23.1558
  30   2.0000      -0.843301       -22.9474
  31   2.0000      -0.812064       -22.0974
  32   2.0000      -0.784596       -21.3499
  33   2.0000      -0.769712       -20.9449
  34   2.0000      -0.703562       -19.1449
  35   2.0000      -0.700087       -19.0503
  36   2.0000      -0.696031       -18.9400
  37   2.0000      -0.657378       -17.8882
  38   2.0000      -0.642003       -17.4698
  39   2.0000      -0.614347       -16.7172
  40   2.0000      -0.595656       -16.2086
  41   2.0000      -0.574256       -15.6263
  42   2.0000      -0.567514       -15.4428
  43   2.0000      -0.548599       -14.9281
  44   2.0000      -0.539892       -14.6912
  45   2.0000      -0.527815       -14.3626
  46   2.0000      -0.516123       -14.0444
  47   2.0000      -0.507906       -13.8208
  48   2.0000      -0.503638       -13.7047
  49   2.0000      -0.494257       -13.4494
  50   2.0000      -0.490033       -13.3345
  51   2.0000      -0.480653       -13.0792
  52   2.0000      -0.465679       -12.6718
  53   2.0000      -0.464584       -12.6420
  54   2.0000      -0.459630       -12.5072
  55   2.0000      -0.454444       -12.3660
  56   2.0000      -0.444767       -12.1027
  57   2.0000      -0.438635       -11.9359
  58   2.0000      -0.434330       -11.8187
  59   2.0000      -0.426893       -11.6164
  60   2.0000      -0.419100       -11.4043
  61   2.0000      -0.417154       -11.3513
  62   2.0000      -0.411281       -11.1915
  63   2.0000      -0.348961        -9.4957
  64   2.0000      -0.334527        -9.1029
  65   2.0000      -0.332672        -9.0525
  66   2.0000      -0.284721        -7.7476
  67   0.0000       0.028359         0.7717
  68   0.0000       0.068143         1.8543
  69   0.0000       0.108998         2.9660
  70   0.0000       0.119175         3.2429
  71   0.0000       0.124779         3.3954

MULLIKEN ATOMIC CHARGES
-----------------------
   0 S :    0.118992
   1 C :   -0.122403
   2 C :   -0.050875
   3 C :    0.014935
   4 C :   -0.181293
   5 H :    0.015517
   6 C :    0.026276
   7 H :    0.051708
   8 H :    0.035477
   9 C :   -0.074185
  10 H :    0.022049
  11 H :    0.036041
  12 C :   -0.073046
  13 H :    0.031854
  14 H :    0.052140
  15 H :    0.026960
  16 S :    0.100527
  17 C :   -0.069450
  18 C :    0.000598
  19 C :   -0.054754
  20 C :   -0.144308
  21 H :   -0.016291
  22 C :    0.043652
  23 H :    0.061580
  24 H :    0.035741
  25 C :   -0.118349
  26 H :    0.039690
  27 H :    0.024668
  28 C :   -0.036430
  29 H :    0.044588
  30 H :    0.030543
  31 H :    0.039746
  32 H :    0.040681
  33 H :    0.047419
Sum of atomic charges:   -0.0000000

LOEWDIN ATOMIC CHARGES
----------------------
   0 S :    0.419649
   1 C :   -0.196047
   2 C :   -0.069105
   3 C :   -0.061664
   4 C :   -0.198173
   5 H :    0.031816
   6 C :   -0.035859
   7 H :    0.039929
   8 H :    0.037013
   9 C :   -0.042578
  10 H :    0.018975
  11 H :    0.027650
  12 C :   -0.071291
  13 H :    0.024446
  14 H :    0.029214
  15 H :    0.021028
  16 S :    0.377704
  17 C :   -0.171247
  18 C :   -0.064665
  19 C :   -0.049892
  20 C :   -0.184250
  21 H :    0.016252
  22 C :   -0.030901
  23 H :    0.042601
  24 H :    0.026804
  25 C :   -0.048026
  26 H :    0.024569
  27 H :    0.019520
  28 C :   -0.061864
  29 H :    0.028313
  30 H :    0.026065
  31 H :    0.026771
  32 H :    0.024434
  33 H :    0.022806

  Mayer bond orders larger than 0.100000
B(  0-S ,  1-C ) :   1.1466 B(  0-S ,  4-C ) :   1.1551 B(  1-C ,  2-C ) :   1.6280
B(  1-C , 32-H ) :   0.9647 B(  2-C ,  3-C ) :   1.2295 B(  2-C ,  6-C ) :   1.0156
B(  3-C ,  4-C ) :   1.5673 B(  3-C ,  5-H ) :   0.9886 B(  4-C , 20-C ) :   1.0644
B(  6-C ,  7-H ) :   0.9470 B(  6-C ,  8-H ) :   0.9443 B(  6-C ,  9-C ) :   1.0665
B(  9-C , 10-H ) :   0.9576 B(  9-C , 11-H ) :   0.9590 B(  9-C , 12-C ) :   1.0828
B( 12-C , 13-H ) :   0.9731 B( 12-C , 14-H ) :   0.9692 B( 12-C , 15-H ) :   0.9720
B( 16-S , 17-C ) :   1.1485 B( 16-S , 20-C ) :   1.1223 B( 17-C , 18-C ) :   1.6165
B( 17-C , 20-C ) :   0.1005 B( 17-C , 33-H ) :   0.9635 B( 18-C , 19-C ) :   1.2458
B( 18-C , 21-H ) :   0.9985 B( 19-C , 20-C ) :   1.6103 B( 19-C , 22-C ) :   1.0283
B( 22-C , 23-H ) :   0.9243 B( 22-C , 24-H ) :   0.9351 B( 22-C , 25-C ) :   1.0760
B( 25-C , 26-H ) :   0.9627 B( 25-C , 27-H ) :   0.9455 B( 25-C , 28-C ) :   1.0691
B( 28-C , 29-H ) :   0.9772 B( 28-C , 30-H ) :   0.9708 B( 28-C , 31-H ) :   0.9789

Dispersion correction           -0.014911780
FINAL SINGLE POINT ENERGY     -1339.883120484655

DIPOLE MOMENT
-------------
                                X             Y             Z
Electronic contribution:    -21.65474      23.08549      -2.51811
Nuclear contribution   :     22.10441     -23.66778       2.55092
                        -----------------------------------------
Total Dipole Moment    :      0.44968      -0.58229       0.03281
                        -----------------------------------------
Magnitude (a.u.)       :      0.73644
Magnitude (Debye)      :      1.87189

Rotational constants in cm-1:     0.016213     0.010567     0.006815
Rotational constants in MHz :   486.051495   316.786744   204.314913

                             ****ORCA TERMINATED NORMALLY****
TOTAL RUN TIME: 0 days 0 hours 0 minutes 22 seconds 314 msec
