                         Program Version 4.2.1 -  RELEASE  -
|  1> ! wB97X-D3 SP def2-SVP
|  2> %pal
|  3> nprocs 24
|  4> end
|  5>
|  6> * xyz 0 1
|  7> S 	 43.4401 	 -13.5605 	 -109.7
|  8> C 	 43.3164 	 -14.5762 	 -111.155
|  9> C 	 44.3645 	 -15.4813 	 -111.206
| 10> C 	 45.1968 	 -15.4133 	 -110.083
| 11> C 	 44.8477 	 -14.4294 	 -109.124
| 12> H 	 46.1167 	 -16.022 	 -110.022
| 13> C 	 44.6283 	 -16.3938 	 -112.365
| 14> H 	 45.6651 	 -16.2311 	 -112.766
| 15> H 	 43.8959 	 -16.1742 	 -113.191
| 16> C 	 44.5042 	 -17.9297 	 -112.036
| 17> H 	 44.9036 	 -18.4079 	 -112.924
| 18> H 	 45.2918 	 -18.149 	 -111.312
| 19> C 	 43.142 	 -18.5242 	 -111.636
| 20> H 	 42.3549 	 -18.0313 	 -112.253
| 21> H 	 43.1421 	 -19.649 	 -111.702
| 22> H 	 42.9157 	 -18.1912 	 -110.67
| 23> S 	 45.8948 	 -12.2504 	 -107.737
| 24> C 	 47.2426 	 -12.5537 	 -106.648
| 25> C 	 47.3455 	 -13.9483 	 -106.329
| 26> C 	 46.4766 	 -14.6974 	 -107.16
| 27> C 	 45.6467 	 -13.9883 	 -108.013
| 28> H 	 47.8621 	 -14.3619 	 -105.484
| 29> C 	 46.4224 	 -16.1927 	 -107.013
| 30> H 	 47.4478 	 -16.5316 	 -107.017
| 31> H 	 45.9038 	 -16.6219 	 -107.86
| 32> C 	 45.6129 	 -16.6783 	 -105.805
| 33> H 	 46.1079 	 -16.3505 	 -104.948
| 34> H 	 45.6103 	 -17.765 	 -105.703
| 35> C 	 44.1249 	 -16.3559 	 -105.827
| 36> H 	 43.4952 	 -16.9207 	 -105.139
| 37> H 	 43.7702 	 -16.5155 	 -106.855
| 38> H 	 43.9744 	 -15.2984 	 -105.736
| 39> H 	 42.6089 	 -14.4947 	 -111.954
| 40> H 	 47.6984 	 -11.7928 	 -106.078
| 41> *
| 42>
| 43>                          ****END OF INPUT****

CARTESIAN COORDINATES (ANGSTROEM)
---------------------------------
  S     43.440100  -13.560500  -109.700000
  C     43.316400  -14.576200  -111.155000
  C     44.364500  -15.481300  -111.206000
  C     45.196800  -15.413300  -110.083000
  C     44.847700  -14.429400  -109.124000
  H     46.116700  -16.022000  -110.022000
  C     44.628300  -16.393800  -112.365000
  H     45.665100  -16.231100  -112.766000
  H     43.895900  -16.174200  -113.191000
  C     44.504200  -17.929700  -112.036000
  H     44.903600  -18.407900  -112.924000
  H     45.291800  -18.149000  -111.312000
  C     43.142000  -18.524200  -111.636000
  H     42.354900  -18.031300  -112.253000
  H     43.142100  -19.649000  -111.702000
  H     42.915700  -18.191200  -110.670000
  S     45.894800  -12.250400  -107.737000
  C     47.242600  -12.553700  -106.648000
  C     47.345500  -13.948300  -106.329000
  C     46.476600  -14.697400  -107.160000
  C     45.646700  -13.988300  -108.013000
  H     47.862100  -14.361900  -105.484000
  C     46.422400  -16.192700  -107.013000
  H     47.447800  -16.531600  -107.017000
  H     45.903800  -16.621900  -107.860000
  C     45.612900  -16.678300  -105.805000
  H     46.107900  -16.350500  -104.948000
  H     45.610300  -17.765000  -105.703000
  C     44.124900  -16.355900  -105.827000
  H     43.495200  -16.920700  -105.139000
  H     43.770200  -16.515500  -106.855000
  H     43.974400  -15.298400  -105.736000
  H     42.608900  -14.494700  -111.954000
  H     47.698400  -11.792800  -106.078000

 Total Charge           Charge          ....    0
 Multiplicity           Mult            ....    1
 Number of Electrons    NEL             ....  134
 Basis Dimension        Dim             ....  322

ORBITAL ENERGIES
----------------

  NO   OCC          E(Eh)            E(eV)
   0   2.0000     -88.971512     -2421.0379
   1   2.0000     -88.969438     -2420.9815
   2   2.0000     -10.336867      -281.2805
   3   2.0000     -10.329366      -281.0763
   4   2.0000     -10.325196      -280.9629
   5   2.0000     -10.316251      -280.7195
   6   2.0000     -10.302501      -280.3453
   7   2.0000     -10.301119      -280.3077
   8   2.0000     -10.300688      -280.2960
   9   2.0000     -10.298511      -280.2367
  10   2.0000     -10.296931      -280.1937
  11   2.0000     -10.288361      -279.9605
  12   2.0000     -10.285017      -279.8695
  13   2.0000     -10.281662      -279.7782
  14   2.0000     -10.277570      -279.6669
  15   2.0000     -10.268977      -279.4331
  16   2.0000      -8.085387      -220.0146
  17   2.0000      -8.083532      -219.9641
  18   2.0000      -6.043938      -164.4639
  19   2.0000      -6.042047      -164.4124
  20   2.0000      -6.039973      -164.3560
  21   2.0000      -6.038163      -164.3068
  22   2.0000      -6.036203      -164.2534
  23   2.0000      -6.034273      -164.2009
  24   2.0000      -1.005933       -27.3728
  25   2.0000      -0.982336       -26.7307
  26   2.0000      -0.911756       -24.8101
  27   2.0000      -0.908560       -24.7232
  28   2.0000      -0.868850       -23.6426
  29   2.0000      -0.851774       -23.1780
  30   2.0000      -0.844593       -22.9826
  31   2.0000      -0.810212       -22.0470
  32   2.0000      -0.784198       -21.3391
  33   2.0000      -0.774925       -21.0868
  34   2.0000      -0.712421       -19.3860
  35   2.0000      -0.700831       -19.0706
  36   2.0000      -0.696514       -18.9531
  37   2.0000      -0.666070       -18.1247
  38   2.0000      -0.634520       -17.2662
  39   2.0000      -0.622359       -16.9352
  40   2.0000      -0.596538       -16.2326
  41   2.0000      -0.568432       -15.4678
  42   2.0000      -0.559091       -15.2136
  43   2.0000      -0.549185       -14.9441
  44   2.0000      -0.543613       -14.7925
  45   2.0000      -0.538057       -14.6413
  46   2.0000      -0.517138       -14.0720
  47   2.0000      -0.510383       -13.8882
  48   2.0000      -0.505139       -13.7455
  49   2.0000      -0.494137       -13.4462
  50   2.0000      -0.489283       -13.3141
  51   2.0000      -0.476962       -12.9788
  52   2.0000      -0.473558       -12.8862
  53   2.0000      -0.464182       -12.6310
  54   2.0000      -0.457724       -12.4553
  55   2.0000      -0.451187       -12.2774
  56   2.0000      -0.446246       -12.1430
  57   2.0000      -0.442893       -12.0517
  58   2.0000      -0.437250       -11.8982
  59   2.0000      -0.420872       -11.4525
  60   2.0000      -0.418300       -11.3825
  61   2.0000      -0.415341       -11.3020
  62   2.0000      -0.406998       -11.0750
  63   2.0000      -0.354316        -9.6414
  64   2.0000      -0.335806        -9.1377
  65   2.0000      -0.330711        -8.9991
  66   2.0000      -0.281705        -7.6656
  67   0.0000       0.015616         0.4249
  68   0.0000       0.065066         1.7705
  69   0.0000       0.106225         2.8905
  70   0.0000       0.114487         3.1153
  71   0.0000       0.125549         3.4164

MULLIKEN ATOMIC CHARGES
-----------------------
   0 S :    0.104369
   1 C :   -0.114207
   2 C :   -0.066932
   3 C :    0.008369
   4 C :   -0.145317
   5 H :    0.027914
   6 C :    0.016428
   7 H :    0.049103
   8 H :    0.025287
   9 C :   -0.094306
  10 H :    0.021616
  11 H :    0.019860
  12 C :   -0.020638
  13 H :    0.026494
  14 H :    0.054703
  15 H :    0.026816
  16 S :    0.103705
  17 C :   -0.082428
  18 C :   -0.022963
  19 C :   -0.085159
  20 C :   -0.114270
  21 H :    0.026125
  22 C :    0.072774
  23 H :    0.026729
  24 H :    0.009763
  25 C :   -0.037619
  26 H :    0.000835
  27 H :    0.023409
  28 C :   -0.043643
  29 H :    0.040928
  30 H :    0.021493
  31 H :    0.030681
  32 H :    0.037162
  33 H :    0.052917
Sum of atomic charges:    0.0000000

LOEWDIN ATOMIC CHARGES
----------------------
   0 S :    0.399979
   1 C :   -0.190522
   2 C :   -0.071365
   3 C :   -0.066931
   4 C :   -0.189831
   5 H :    0.034431
   6 C :   -0.032783
   7 H :    0.041352
   8 H :    0.030725
   9 C :   -0.045844
  10 H :    0.020966
  11 H :    0.018764
  12 C :   -0.063879
  13 H :    0.029411
  14 H :    0.038047
  15 H :    0.019119
  16 S :    0.398720
  17 C :   -0.170393
  18 C :   -0.063296
  19 C :   -0.056663
  20 C :   -0.197461
  21 H :    0.032269
  22 C :   -0.029032
  23 H :    0.030346
  24 H :    0.025430
  25 C :   -0.034907
  26 H :    0.008415
  27 H :    0.025948
  28 C :   -0.063426
  29 H :    0.027676
  30 H :    0.028160
  31 H :    0.022217
  32 H :    0.025047
  33 H :    0.019313

  Mayer bond orders larger than 0.100000
B(  0-S ,  1-C ) :   1.1304 B(  0-S ,  4-C ) :   1.1554 B(  1-C ,  2-C ) :   1.5844
B(  1-C ,  4-C ) :   0.1052 B(  1-C , 32-H ) :   0.9688 B(  2-C ,  3-C ) :   1.2884
B(  2-C ,  6-C ) :   1.0312 B(  3-C ,  4-C ) :   1.5146 B(  3-C ,  5-H ) :   0.9788
B(  4-C , 20-C ) :   1.0796 B(  6-C ,  7-H ) :   0.9394 B(  6-C ,  8-H ) :   0.9427
B(  6-C ,  9-C ) :   1.0727 B(  9-C , 10-H ) :   0.9569 B(  9-C , 11-H ) :   0.9553
B(  9-C , 12-C ) :   1.0616 B( 12-C , 13-H ) :   0.9739 B( 12-C , 14-H ) :   0.9742
B( 12-C , 15-H ) :   0.9738 B( 16-S , 17-C ) :   1.1804 B( 16-S , 20-C ) :   1.1149
B( 17-C , 18-C ) :   1.5504 B( 17-C , 20-C ) :   0.1074 B( 17-C , 33-H ) :   0.9710
B( 18-C , 19-C ) :   1.2775 B( 18-C , 21-H ) :   0.9892 B( 19-C , 20-C ) :   1.5713
B( 19-C , 22-C ) :   1.0487 B( 22-C , 23-H ) :   0.9313 B( 22-C , 24-H ) :   0.9329
B( 22-C , 25-C ) :   1.0778 B( 25-C , 26-H ) :   0.9547 B( 25-C , 27-H ) :   0.9547
B( 25-C , 28-C ) :   1.0703 B( 28-C , 29-H ) :   0.9759 B( 28-C , 30-H ) :   0.9706
B( 28-C , 31-H ) :   0.9730

Dispersion correction           -0.015243448
FINAL SINGLE POINT ENERGY     -1339.879763172083

DIPOLE MOMENT
-------------
                                X             Y             Z
Electronic contribution:      2.20961      26.75999       2.14645
Nuclear contribution   :     -1.94076     -27.31001      -2.18486
                        -----------------------------------------
Total Dipole Moment    :      0.26885      -0.55001      -0.03841
                        -----------------------------------------
Magnitude (a.u.)       :      0.61341
Magnitude (Debye)      :      1.55916

Rotational constants in cm-1:     0.020088     0.009085     0.007414
Rotational constants in MHz :   602.230449   272.376188   222.257517

                             ****ORCA TERMINATED NORMALLY****
TOTAL RUN TIME: 0 days 0 hours 0 minutes 22 seconds 598 msec
