                         Program Version 4.2.1 -  RELEASE  -
|  1> ! wB97X-D3 SP def2-SVP
|  2> %pal
|  3> nprocs 24
|  4> end
|  5>
|  6> * xyz 0 1
|  7> S 	 -144.426 	 26.6893 	 -20.0608
|  8> C 	 -145.756 	 25.6428 	 -19.6904
|  9> C 	 -146.028 	 24.7893 	 -20.7154
| 10> C 	 -145.069 	 24.9633 	 -21.7893
| 11> C 	 -144.089 	 25.8942 	 -21.5594
| 12> H 	 -144.979 	 24.3812 	 -22.7194
| 13> C 	 -147.184 	 23.8197 	 -20.6336
| 14> H 	 -148.124 	 24.4444 	 -20.7415
| 15> H 	 -147.228 	 23.5045 	 -19.6212
| 16> C 	 -147.025 	 22.6149 	 -21.5621
| 17> H 	 -146.731 	 22.9818 	 -22.5915
| 18> H 	 -146.226 	 21.9342 	 -21.2038
| 19> C 	 -148.391 	 21.9422 	 -21.533
| 20> H 	 -149.097 	 22.6748 	 -22.0421
| 21> H 	 -148.366 	 21.0294 	 -22.1633
| 22> H 	 -148.726 	 21.5753 	 -20.5094
| 23> S 	 -142.822 	 27.2059 	 -23.7377
| 24> C 	 -141.123 	 27.2605 	 -23.8487
| 25> C 	 -140.583 	 26.501 	 -22.8556
| 26> C 	 -141.523 	 26.0029 	 -21.8896
| 27> C 	 -142.854 	 26.1393 	 -22.2963
| 28> H 	 -139.528 	 26.3475 	 -22.7583
| 29> C 	 -141.03 	 25.3821 	 -20.6303
| 30> H 	 -140.138 	 24.8011 	 -20.8981
| 31> H 	 -141.746 	 24.6545 	 -20.187
| 32> C 	 -140.69 	 26.4397 	 -19.5546
| 33> H 	 -141.514 	 27.0225 	 -19.2272
| 34> H 	 -139.966 	 27.0636 	 -19.9901
| 35> C 	 -139.966 	 25.7643 	 -18.4066
| 36> H 	 -140 	 26.415 	 -17.5263
| 37> H 	 -138.831 	 25.7013 	 -18.6056
| 38> H 	 -140.307 	 24.807 	 -17.9777
| 39> H 	 -146.401 	 25.5632 	 -18.8112
| 40> H 	 -140.528 	 27.7471 	 -24.6045
| 41> *
| 42>
| 43>                          ****END OF INPUT****

CARTESIAN COORDINATES (ANGSTROEM)
---------------------------------
  S    -144.426000   26.689300  -20.060800
  C    -145.756000   25.642800  -19.690400
  C    -146.028000   24.789300  -20.715400
  C    -145.069000   24.963300  -21.789300
  C    -144.089000   25.894200  -21.559400
  H    -144.979000   24.381200  -22.719400
  C    -147.184000   23.819700  -20.633600
  H    -148.124000   24.444400  -20.741500
  H    -147.228000   23.504500  -19.621200
  C    -147.025000   22.614900  -21.562100
  H    -146.731000   22.981800  -22.591500
  H    -146.226000   21.934200  -21.203800
  C    -148.391000   21.942200  -21.533000
  H    -149.097000   22.674800  -22.042100
  H    -148.366000   21.029400  -22.163300
  H    -148.726000   21.575300  -20.509400
  S    -142.822000   27.205900  -23.737700
  C    -141.123000   27.260500  -23.848700
  C    -140.583000   26.501000  -22.855600
  C    -141.523000   26.002900  -21.889600
  C    -142.854000   26.139300  -22.296300
  H    -139.528000   26.347500  -22.758300
  C    -141.030000   25.382100  -20.630300
  H    -140.138000   24.801100  -20.898100
  H    -141.746000   24.654500  -20.187000
  C    -140.690000   26.439700  -19.554600
  H    -141.514000   27.022500  -19.227200
  H    -139.966000   27.063600  -19.990100
  C    -139.966000   25.764300  -18.406600
  H    -140.000000   26.415000  -17.526300
  H    -138.831000   25.701300  -18.605600
  H    -140.307000   24.807000  -17.977700
  H    -146.401000   25.563200  -18.811200
  H    -140.528000   27.747100  -24.604500

 Total Charge           Charge          ....    0
 Multiplicity           Mult            ....    1
 Number of Electrons    NEL             ....  134
 Basis Dimension        Dim             ....  322

ORBITAL ENERGIES
----------------

  NO   OCC          E(Eh)            E(eV)
   0   2.0000     -88.964664     -2420.8516
   1   2.0000     -88.960878     -2420.7486
   2   2.0000     -10.327573      -281.0276
   3   2.0000     -10.325683      -280.9761
   4   2.0000     -10.315393      -280.6961
   5   2.0000     -10.308221      -280.5010
   6   2.0000     -10.302443      -280.3437
   7   2.0000     -10.296589      -280.1844
   8   2.0000     -10.295564      -280.1565
   9   2.0000     -10.294683      -280.1326
  10   2.0000     -10.292872      -280.0833
  11   2.0000     -10.289995      -280.0050
  12   2.0000     -10.288570      -279.9662
  13   2.0000     -10.288090      -279.9532
  14   2.0000     -10.279942      -279.7314
  15   2.0000     -10.277060      -279.6530
  16   2.0000      -8.079569      -219.8563
  17   2.0000      -8.075920      -219.7569
  18   2.0000      -6.038092      -164.3048
  19   2.0000      -6.034477      -164.2065
  20   2.0000      -6.033953      -164.1922
  21   2.0000      -6.030389      -164.0952
  22   2.0000      -6.030219      -164.0906
  23   2.0000      -6.026751      -163.9962
  24   2.0000      -1.008147       -27.4331
  25   2.0000      -0.988626       -26.9019
  26   2.0000      -0.917381       -24.9632
  27   2.0000      -0.911114       -24.7927
  28   2.0000      -0.873294       -23.7635
  29   2.0000      -0.848290       -23.0831
  30   2.0000      -0.842800       -22.9338
  31   2.0000      -0.817632       -22.2489
  32   2.0000      -0.777081       -21.1454
  33   2.0000      -0.765359       -20.8265
  34   2.0000      -0.712373       -19.3846
  35   2.0000      -0.698244       -19.0002
  36   2.0000      -0.684884       -18.6367
  37   2.0000      -0.661586       -18.0027
  38   2.0000      -0.636705       -17.3256
  39   2.0000      -0.615745       -16.7553
  40   2.0000      -0.598560       -16.2876
  41   2.0000      -0.573611       -15.6087
  42   2.0000      -0.570846       -15.5335
  43   2.0000      -0.565933       -15.3998
  44   2.0000      -0.526097       -14.3158
  45   2.0000      -0.520459       -14.1624
  46   2.0000      -0.514404       -13.9977
  47   2.0000      -0.509714       -13.8700
  48   2.0000      -0.504738       -13.7346
  49   2.0000      -0.498433       -13.5631
  50   2.0000      -0.497057       -13.5256
  51   2.0000      -0.475746       -12.9457
  52   2.0000      -0.469841       -12.7850
  53   2.0000      -0.462277       -12.5792
  54   2.0000      -0.456896       -12.4328
  55   2.0000      -0.450913       -12.2700
  56   2.0000      -0.445713       -12.1285
  57   2.0000      -0.437450       -11.9036
  58   2.0000      -0.430998       -11.7280
  59   2.0000      -0.426401       -11.6030
  60   2.0000      -0.420270       -11.4361
  61   2.0000      -0.408176       -11.1070
  62   2.0000      -0.405779       -11.0418
  63   2.0000      -0.336933        -9.1684
  64   2.0000      -0.328819        -8.9476
  65   2.0000      -0.320681        -8.7262
  66   2.0000      -0.307345        -8.3633
  67   0.0000       0.039409         1.0724
  68   0.0000       0.062381         1.6975
  69   0.0000       0.119577         3.2539
  70   0.0000       0.123939         3.3725
  71   0.0000       0.135801         3.6953

MULLIKEN ATOMIC CHARGES
-----------------------
   0 S :    0.126001
   1 C :   -0.116642
   2 C :   -0.094799
   3 C :    0.025171
   4 C :   -0.172616
   5 H :    0.015843
   6 C :    0.053107
   7 H :    0.050902
   8 H :    0.012989
   9 C :   -0.102048
  10 H :    0.049267
  11 H :    0.045998
  12 C :   -0.069466
  13 H :    0.046632
  14 H :    0.032081
  15 H :    0.046398
  16 S :    0.097204
  17 C :   -0.069802
  18 C :   -0.029564
  19 C :   -0.042599
  20 C :   -0.146101
  21 H :    0.008959
  22 C :    0.028303
  23 H :    0.024196
  24 H :    0.037325
  25 C :   -0.009602
  26 H :    0.029322
  27 H :    0.010575
  28 C :   -0.081813
  29 H :    0.023526
  30 H :    0.037429
  31 H :    0.035196
  32 H :    0.040271
  33 H :    0.058355
Sum of atomic charges:   -0.0000000

LOEWDIN ATOMIC CHARGES
----------------------
   0 S :    0.427547
   1 C :   -0.208052
   2 C :   -0.069493
   3 C :   -0.065050
   4 C :   -0.206634
   5 H :    0.033741
   6 C :   -0.036196
   7 H :    0.042387
   8 H :    0.025869
   9 C :   -0.046397
  10 H :    0.030290
  11 H :    0.030781
  12 C :   -0.074097
  13 H :    0.034659
  14 H :    0.023051
  15 H :    0.032515
  16 S :    0.405940
  17 C :   -0.189802
  18 C :   -0.079349
  19 C :   -0.046541
  20 C :   -0.202349
  21 H :    0.025629
  22 C :   -0.034366
  23 H :    0.032684
  24 H :    0.033054
  25 C :   -0.029605
  26 H :    0.015625
  27 H :    0.020618
  28 C :   -0.077113
  29 H :    0.024988
  30 H :    0.032877
  31 H :    0.024134
  32 H :    0.033908
  33 H :    0.034747

  Mayer bond orders larger than 0.100000
B(  0-S ,  1-C ) :   1.1383 B(  0-S ,  4-C ) :   1.1470 B(  1-C ,  2-C ) :   1.6395
B(  1-C , 32-H ) :   0.9640 B(  2-C ,  3-C ) :   1.2255 B(  2-C ,  6-C ) :   1.0020
B(  3-C ,  4-C ) :   1.6032 B(  3-C ,  5-H ) :   0.9876 B(  4-C , 20-C ) :   1.0187
B(  6-C ,  7-H ) :   0.9413 B(  6-C ,  8-H ) :   0.9358 B(  6-C ,  9-C ) :   1.0650
B(  9-C , 10-H ) :   0.9514 B(  9-C , 11-H ) :   0.9535 B(  9-C , 12-C ) :   1.0830
B( 12-C , 13-H ) :   0.9758 B( 12-C , 14-H ) :   0.9723 B( 12-C , 15-H ) :   0.9705
B( 16-S , 17-C ) :   1.1771 B( 16-S , 20-C ) :   1.1239 B( 17-C , 18-C ) :   1.5866
B( 17-C , 33-H ) :   0.9667 B( 18-C , 19-C ) :   1.2524 B( 18-C , 21-H ) :   0.9901
B( 19-C , 20-C ) :   1.5840 B( 19-C , 22-C ) :   1.0580 B( 22-C , 23-H ) :   0.9379
B( 22-C , 24-H ) :   0.9351 B( 22-C , 25-C ) :   1.0620 B( 25-C , 26-H ) :   0.9539
B( 25-C , 27-H ) :   0.9514 B( 25-C , 28-C ) :   1.0809 B( 28-C , 29-H ) :   0.9725
B( 28-C , 30-H ) :   0.9769 B( 28-C , 31-H ) :   0.9746

Dispersion correction           -0.014029833
FINAL SINGLE POINT ENERGY     -1339.877445216314

DIPOLE MOMENT
-------------
                                X             Y             Z
Electronic contribution:      2.40732      17.03333     -11.13937
Nuclear contribution   :     -2.32473     -17.45205      11.38783
                        -----------------------------------------
Total Dipole Moment    :      0.08258      -0.41872       0.24846
                        -----------------------------------------
Magnitude (a.u.)       :      0.49384
Magnitude (Debye)      :      1.25525

Rotational constants in cm-1:     0.019946     0.007773     0.006532
Rotational constants in MHz :   597.975360   233.016782   195.810904

                             ****ORCA TERMINATED NORMALLY****
TOTAL RUN TIME: 0 days 0 hours 0 minutes 21 seconds 268 msec
