                         Program Version 4.2.1 -  RELEASE  -
|  1> ! wB97X-D3 SP def2-SVP
|  2> %pal
|  3> nprocs 24
|  4> end
|  5>
|  6> * xyz 0 1
|  7> S 	 -139.569 	 4.44886 	 3.37102
|  8> C 	 -139.444 	 2.74047 	 2.96191
|  9> C 	 -138.521 	 2.00163 	 3.69704
| 10> C 	 -138.092 	 2.88017 	 4.77543
| 11> C 	 -138.583 	 4.18633 	 4.77863
| 12> H 	 -137.342 	 2.60345 	 5.42285
| 13> C 	 -138.02 	 0.5825 	 3.55333
| 14> H 	 -138.879 	 0.00245172 	 3.24813
| 15> H 	 -137.671 	 0.288743 	 4.57146
| 16> C 	 -136.859 	 0.378105 	 2.48554
| 17> H 	 -137.181 	 0.683189 	 1.53688
| 18> H 	 -136.055 	 1.09899 	 2.56281
| 19> C 	 -136.478 	 -1.11909 	 2.43907
| 20> H 	 -136.279 	 -1.54096 	 3.38282
| 21> H 	 -137.067 	 -1.84647 	 1.84624
| 22> H 	 -135.479 	 -1.09799 	 1.99434
| 23> S 	 -138.328 	 6.83541 	 5.20567
| 24> C 	 -137.795 	 7.48461 	 6.77851
| 25> C 	 -137.63 	 6.47649 	 7.71825
| 26> C 	 -138.063 	 5.18445 	 7.21168
| 27> C 	 -138.293 	 5.21992 	 5.82101
| 28> H 	 -137.256 	 6.74367 	 8.68904
| 29> C 	 -138.032 	 4.01771 	 8.16126
| 30> H 	 -138.428 	 3.09567 	 7.5857
| 31> H 	 -138.757 	 4.306 	 8.97052
| 32> C 	 -136.752 	 3.67221 	 8.85165
| 33> H 	 -137.01 	 3.10416 	 9.76808
| 34> H 	 -136.264 	 4.59897 	 9.21284
| 35> C 	 -135.683 	 3.00387 	 7.94441
| 36> H 	 -134.931 	 2.43198 	 8.50501
| 37> H 	 -135.28 	 3.76322 	 7.26429
| 38> H 	 -136.172 	 2.29691 	 7.29747
| 39> H 	 -139.859 	 2.45119 	 2.05507
| 40> H 	 -137.541 	 8.50296 	 6.98136
| 41> *
| 42>
| 43>                          ****END OF INPUT****

CARTESIAN COORDINATES (ANGSTROEM)
---------------------------------
  S    -139.569000    4.448860    3.371020
  C    -139.444000    2.740470    2.961910
  C    -138.521000    2.001630    3.697040
  C    -138.092000    2.880170    4.775430
  C    -138.583000    4.186330    4.778630
  H    -137.342000    2.603450    5.422850
  C    -138.020000    0.582500    3.553330
  H    -138.879000    0.002452    3.248130
  H    -137.671000    0.288743    4.571460
  C    -136.859000    0.378105    2.485540
  H    -137.181000    0.683189    1.536880
  H    -136.055000    1.098990    2.562810
  C    -136.478000   -1.119090    2.439070
  H    -136.279000   -1.540960    3.382820
  H    -137.067000   -1.846470    1.846240
  H    -135.479000   -1.097990    1.994340
  S    -138.328000    6.835410    5.205670
  C    -137.795000    7.484610    6.778510
  C    -137.630000    6.476490    7.718250
  C    -138.063000    5.184450    7.211680
  C    -138.293000    5.219920    5.821010
  H    -137.256000    6.743670    8.689040
  C    -138.032000    4.017710    8.161260
  H    -138.428000    3.095670    7.585700
  H    -138.757000    4.306000    8.970520
  C    -136.752000    3.672210    8.851650
  H    -137.010000    3.104160    9.768080
  H    -136.264000    4.598970    9.212840
  C    -135.683000    3.003870    7.944410
  H    -134.931000    2.431980    8.505010
  H    -135.280000    3.763220    7.264290
  H    -136.172000    2.296910    7.297470
  H    -139.859000    2.451190    2.055070
  H    -137.541000    8.502960    6.981360

 Total Charge           Charge          ....    0
 Multiplicity           Mult            ....    1
 Number of Electrons    NEL             ....  134
 Basis Dimension        Dim             ....  322

ORBITAL ENERGIES
----------------

  NO   OCC          E(Eh)            E(eV)
   0   2.0000     -88.967628     -2420.9322
   1   2.0000     -88.964928     -2420.8588
   2   2.0000     -10.332899      -281.1725
   3   2.0000     -10.331958      -281.1469
   4   2.0000     -10.318480      -280.7801
   5   2.0000     -10.310996      -280.5765
   6   2.0000     -10.308073      -280.4969
   7   2.0000     -10.305297      -280.4214
   8   2.0000     -10.301907      -280.3291
   9   2.0000     -10.297043      -280.1968
  10   2.0000     -10.296865      -280.1919
  11   2.0000     -10.291026      -280.0331
  12   2.0000     -10.289612      -279.9946
  13   2.0000     -10.287652      -279.9412
  14   2.0000     -10.280106      -279.7359
  15   2.0000     -10.278983      -279.7054
  16   2.0000      -8.082396      -219.9332
  17   2.0000      -8.079723      -219.8604
  18   2.0000      -6.040953      -164.3827
  19   2.0000      -6.038353      -164.3119
  20   2.0000      -6.037025      -164.2758
  21   2.0000      -6.034262      -164.2006
  22   2.0000      -6.032992      -164.1661
  23   2.0000      -6.030331      -164.0937
  24   2.0000      -1.002425       -27.2774
  25   2.0000      -0.979668       -26.6581
  26   2.0000      -0.912618       -24.8336
  27   2.0000      -0.907157       -24.6850
  28   2.0000      -0.866807       -23.5870
  29   2.0000      -0.849731       -23.1223
  30   2.0000      -0.844157       -22.9707
  31   2.0000      -0.813533       -22.1374
  32   2.0000      -0.781497       -21.2656
  33   2.0000      -0.773876       -21.0582
  34   2.0000      -0.717439       -19.5225
  35   2.0000      -0.704510       -19.1707
  36   2.0000      -0.688940       -18.7470
  37   2.0000      -0.661337       -17.9959
  38   2.0000      -0.644086       -17.5265
  39   2.0000      -0.622180       -16.9304
  40   2.0000      -0.593425       -16.1479
  41   2.0000      -0.566861       -15.4251
  42   2.0000      -0.558941       -15.2095
  43   2.0000      -0.553588       -15.0639
  44   2.0000      -0.536099       -14.5880
  45   2.0000      -0.522728       -14.2242
  46   2.0000      -0.514268       -13.9940
  47   2.0000      -0.511667       -13.9232
  48   2.0000      -0.507627       -13.8132
  49   2.0000      -0.495271       -13.4770
  50   2.0000      -0.493639       -13.4326
  51   2.0000      -0.479426       -13.0458
  52   2.0000      -0.469634       -12.7794
  53   2.0000      -0.466385       -12.6910
  54   2.0000      -0.456399       -12.4193
  55   2.0000      -0.450866       -12.2687
  56   2.0000      -0.450166       -12.2496
  57   2.0000      -0.441933       -12.0256
  58   2.0000      -0.437219       -11.8973
  59   2.0000      -0.426850       -11.6152
  60   2.0000      -0.419543       -11.4163
  61   2.0000      -0.416597       -11.3362
  62   2.0000      -0.410211       -11.1624
  63   2.0000      -0.352602        -9.5948
  64   2.0000      -0.331580        -9.0228
  65   2.0000      -0.325215        -8.8496
  66   2.0000      -0.284519        -7.7422
  67   0.0000       0.025649         0.6980
  68   0.0000       0.075929         2.0661
  69   0.0000       0.093230         2.5369
  70   0.0000       0.114972         3.1286
  71   0.0000       0.129684         3.5289

MULLIKEN ATOMIC CHARGES
-----------------------
   0 S :    0.106233
   1 C :   -0.106771
   2 C :   -0.074880
   3 C :    0.032378
   4 C :   -0.097992
   5 H :   -0.061471
   6 C :    0.064101
   7 H :    0.034478
   8 H :    0.034230
   9 C :   -0.044222
  10 H :    0.006925
  11 H :    0.028288
  12 C :   -0.036238
  13 H :    0.018666
  14 H :    0.048949
  15 H :    0.024784
  16 S :    0.084218
  17 C :   -0.076809
  18 C :   -0.046820
  19 C :   -0.047581
  20 C :   -0.130609
  21 H :    0.023066
  22 C :    0.016512
  23 H :    0.040274
  24 H :    0.042906
  25 C :   -0.079799
  26 H :    0.036176
  27 H :    0.025512
  28 C :   -0.042345
  29 H :    0.041357
  30 H :    0.048003
  31 H :    0.019570
  32 H :    0.020051
  33 H :    0.048861
Sum of atomic charges:   -0.0000000

LOEWDIN ATOMIC CHARGES
----------------------
   0 S :    0.401390
   1 C :   -0.181409
   2 C :   -0.055144
   3 C :   -0.060329
   4 C :   -0.197726
   5 H :    0.007529
   6 C :   -0.026751
   7 H :    0.034748
   8 H :    0.034814
   9 C :   -0.032187
  10 H :    0.018683
  11 H :    0.027630
  12 C :   -0.068338
  13 H :    0.017481
  14 H :    0.032298
  15 H :    0.032207
  16 S :    0.393001
  17 C :   -0.171209
  18 C :   -0.064654
  19 C :   -0.063419
  20 C :   -0.194174
  21 H :    0.030453
  22 C :   -0.045015
  23 H :    0.038184
  24 H :    0.042632
  25 C :   -0.047000
  26 H :    0.028479
  27 H :    0.023609
  28 C :   -0.065344
  29 H :    0.030678
  30 H :    0.032787
  31 H :    0.014789
  32 H :    0.006681
  33 H :    0.024623

  Mayer bond orders larger than 0.100000
B(  0-S ,  1-C ) :   1.1432 B(  0-S ,  4-C ) :   1.1429 B(  1-C ,  2-C ) :   1.6020
B(  1-C , 32-H ) :   0.9735 B(  2-C ,  3-C ) :   1.2472 B(  2-C ,  6-C ) :   1.0183
B(  3-C ,  4-C ) :   1.5743 B(  3-C ,  5-H ) :   1.0017 B(  4-C , 20-C ) :   1.0390
B(  6-C ,  7-H ) :   0.9396 B(  6-C ,  8-H ) :   0.9456 B(  6-C ,  9-C ) :   1.0523
B(  9-C , 10-H ) :   0.9506 B(  9-C , 11-H ) :   0.9607 B(  9-C , 12-C ) :   1.0698
B( 12-C , 13-H ) :   0.9763 B( 12-C , 14-H ) :   0.9773 B( 12-C , 15-H ) :   0.9711
B( 16-S , 17-C ) :   1.1373 B( 16-S , 20-C ) :   1.1390 B( 17-C , 18-C ) :   1.6455
B( 17-C , 33-H ) :   0.9699 B( 18-C , 19-C ) :   1.1994 B( 18-C , 21-H ) :   0.9886
B( 19-C , 20-C ) :   1.5901 B( 19-C , 22-C ) :   1.0508 B( 22-C , 23-H ) :   0.9379
B( 22-C , 24-H ) :   0.9220 B( 22-C , 25-C ) :   1.0849 B( 25-C , 26-H ) :   0.9530
B( 25-C , 27-H ) :   0.9511 B( 25-C , 28-C ) :   1.0616 B( 28-C , 29-H ) :   0.9701
B( 28-C , 30-H ) :   0.9776 B( 28-C , 31-H ) :   0.9717

Dispersion correction           -0.014235472
FINAL SINGLE POINT ENERGY     -1339.864987991851

DIPOLE MOMENT
-------------
                                X             Y             Z
Electronic contribution:    -15.04384      25.72100      -6.56815
Nuclear contribution   :     15.51595     -26.23226       6.79732
                        -----------------------------------------
Total Dipole Moment    :      0.47211      -0.51127       0.22917
                        -----------------------------------------
Magnitude (a.u.)       :      0.73267
Magnitude (Debye)      :      1.86229

Rotational constants in cm-1:     0.019031     0.008465     0.006323
Rotational constants in MHz :   570.540034   253.771246   189.557492

                             ****ORCA TERMINATED NORMALLY****
TOTAL RUN TIME: 0 days 0 hours 0 minutes 21 seconds 461 msec
