                         Program Version 4.2.1 -  RELEASE  -
|  1> ! wB97X-D3 SP def2-SVP
|  2> %pal
|  3> nprocs 24
|  4> end
|  5>
|  6> * xyz 0 1
|  7> S 	 -123.922 	 30.614 	 -114.863
|  8> C 	 -125.083 	 29.3911 	 -115.456
|  9> C 	 -124.422 	 28.2992 	 -115.942
| 10> C 	 -123.06 	 28.6051 	 -116.121
| 11> C 	 -122.65 	 29.8412 	 -115.662
| 12> H 	 -122.303 	 27.9117 	 -116.525
| 13> C 	 -124.975 	 27.0552 	 -116.561
| 14> H 	 -125.876 	 26.7277 	 -116.049
| 15> H 	 -124.279 	 26.2581 	 -116.555
| 16> C 	 -125.19 	 27.2239 	 -118.087
| 17> H 	 -124.369 	 27.5747 	 -118.66
| 18> H 	 -125.433 	 26.3118 	 -118.543
| 19> C 	 -126.293 	 28.1798 	 -118.378
| 20> H 	 -127.197 	 27.9321 	 -117.899
| 21> H 	 -126.146 	 29.1992 	 -118.137
| 22> H 	 -126.433 	 28.3152 	 -119.509
| 23> S 	 -121.407 	 32.2085 	 -116.268
| 24> C 	 -119.724 	 32.275 	 -116.079
| 25> C 	 -119.076 	 31.1732 	 -115.557
| 26> C 	 -120.084 	 30.1307 	 -115.366
| 27> C 	 -121.394 	 30.5408 	 -115.702
| 28> H 	 -118.032 	 31.0302 	 -115.341
| 29> C 	 -119.7 	 28.7977 	 -114.772
| 30> H 	 -120.619 	 28.171 	 -114.727
| 31> H 	 -119.507 	 28.8724 	 -113.688
| 32> C 	 -118.581 	 28.0677 	 -115.529
| 33> H 	 -117.737 	 28.265 	 -114.88
| 34> H 	 -118.332 	 28.5029 	 -116.516
| 35> C 	 -118.705 	 26.5835 	 -115.536
| 36> H 	 -117.846 	 26.1269 	 -115.996
| 37> H 	 -119.603 	 26.2495 	 -115.988
| 38> H 	 -118.718 	 26.0882 	 -114.549
| 39> H 	 -126.155 	 29.4106 	 -115.213
| 40> H 	 -119.14 	 33.2179 	 -116.206
| 41> *
| 42>
| 43>                          ****END OF INPUT****

CARTESIAN COORDINATES (ANGSTROEM)
---------------------------------
  S    -123.922000   30.614000  -114.863000
  C    -125.083000   29.391100  -115.456000
  C    -124.422000   28.299200  -115.942000
  C    -123.060000   28.605100  -116.121000
  C    -122.650000   29.841200  -115.662000
  H    -122.303000   27.911700  -116.525000
  C    -124.975000   27.055200  -116.561000
  H    -125.876000   26.727700  -116.049000
  H    -124.279000   26.258100  -116.555000
  C    -125.190000   27.223900  -118.087000
  H    -124.369000   27.574700  -118.660000
  H    -125.433000   26.311800  -118.543000
  C    -126.293000   28.179800  -118.378000
  H    -127.197000   27.932100  -117.899000
  H    -126.146000   29.199200  -118.137000
  H    -126.433000   28.315200  -119.509000
  S    -121.407000   32.208500  -116.268000
  C    -119.724000   32.275000  -116.079000
  C    -119.076000   31.173200  -115.557000
  C    -120.084000   30.130700  -115.366000
  C    -121.394000   30.540800  -115.702000
  H    -118.032000   31.030200  -115.341000
  C    -119.700000   28.797700  -114.772000
  H    -120.619000   28.171000  -114.727000
  H    -119.507000   28.872400  -113.688000
  C    -118.581000   28.067700  -115.529000
  H    -117.737000   28.265000  -114.880000
  H    -118.332000   28.502900  -116.516000
  C    -118.705000   26.583500  -115.536000
  H    -117.846000   26.126900  -115.996000
  H    -119.603000   26.249500  -115.988000
  H    -118.718000   26.088200  -114.549000
  H    -126.155000   29.410600  -115.213000
  H    -119.140000   33.217900  -116.206000

 Total Charge           Charge          ....    0
 Multiplicity           Mult            ....    1
 Number of Electrons    NEL             ....  134
 Basis Dimension        Dim             ....  322

ORBITAL ENERGIES
----------------

  NO   OCC          E(Eh)            E(eV)
   0   2.0000     -88.969116     -2420.9727
   1   2.0000     -88.961190     -2420.7570
   2   2.0000     -10.324382      -280.9407
   3   2.0000     -10.320758      -280.8421
   4   2.0000     -10.317887      -280.7640
   5   2.0000     -10.312102      -280.6066
   6   2.0000     -10.307013      -280.4681
   7   2.0000     -10.296131      -280.1720
   8   2.0000     -10.295784      -280.1625
   9   2.0000     -10.290416      -280.0164
  10   2.0000     -10.289793      -279.9995
  11   2.0000     -10.287795      -279.9451
  12   2.0000     -10.284939      -279.8674
  13   2.0000     -10.276079      -279.6263
  14   2.0000     -10.273321      -279.5513
  15   2.0000     -10.264569      -279.3131
  16   2.0000      -8.084563      -219.9921
  17   2.0000      -8.076846      -219.7822
  18   2.0000      -6.042923      -164.4363
  19   2.0000      -6.039076      -164.3316
  20   2.0000      -6.035320      -164.2294
  21   2.0000      -6.035294      -164.2287
  22   2.0000      -6.031321      -164.1206
  23   2.0000      -6.027505      -164.0168
  24   2.0000      -1.012195       -27.5432
  25   2.0000      -0.987115       -26.8608
  26   2.0000      -0.920758       -25.0551
  27   2.0000      -0.913604       -24.8604
  28   2.0000      -0.871643       -23.7186
  29   2.0000      -0.856455       -23.3053
  30   2.0000      -0.843215       -22.9450
  31   2.0000      -0.810165       -22.0457
  32   2.0000      -0.788948       -21.4684
  33   2.0000      -0.773887       -21.0585
  34   2.0000      -0.711067       -19.3491
  35   2.0000      -0.701829       -19.0977
  36   2.0000      -0.691660       -18.8210
  37   2.0000      -0.657833       -17.9006
  38   2.0000      -0.640508       -17.4291
  39   2.0000      -0.620095       -16.8736
  40   2.0000      -0.600454       -16.3392
  41   2.0000      -0.569581       -15.4991
  42   2.0000      -0.564193       -15.3525
  43   2.0000      -0.550698       -14.9853
  44   2.0000      -0.542935       -14.7740
  45   2.0000      -0.531403       -14.4602
  46   2.0000      -0.525404       -14.2970
  47   2.0000      -0.515657       -14.0317
  48   2.0000      -0.499316       -13.5871
  49   2.0000      -0.491613       -13.3775
  50   2.0000      -0.486995       -13.2518
  51   2.0000      -0.484753       -13.1908
  52   2.0000      -0.473469       -12.8837
  53   2.0000      -0.464589       -12.6421
  54   2.0000      -0.461027       -12.5452
  55   2.0000      -0.450624       -12.2621
  56   2.0000      -0.444724       -12.1015
  57   2.0000      -0.439098       -11.9485
  58   2.0000      -0.433071       -11.7845
  59   2.0000      -0.428072       -11.6484
  60   2.0000      -0.422917       -11.5082
  61   2.0000      -0.411634       -11.2011
  62   2.0000      -0.402906       -10.9636
  63   2.0000      -0.343170        -9.3381
  64   2.0000      -0.333702        -9.0805
  65   2.0000      -0.326677        -8.8893
  66   2.0000      -0.289310        -7.8725
  67   0.0000       0.032445         0.8829
  68   0.0000       0.073258         1.9935
  69   0.0000       0.104104         2.8328
  70   0.0000       0.120574         3.2810
  71   0.0000       0.127035         3.4568

MULLIKEN ATOMIC CHARGES
-----------------------
   0 S :    0.101805
   1 C :   -0.142818
   2 C :   -0.057492
   3 C :    0.005040
   4 C :   -0.160342
   5 H :    0.011996
   6 C :    0.091446
   7 H :    0.025587
   8 H :    0.010747
   9 C :   -0.018653
  10 H :    0.020834
  11 H :    0.014213
  12 C :   -0.061759
  13 H :    0.008813
  14 H :    0.026048
  15 H :    0.028404
  16 S :    0.135920
  17 C :   -0.087641
  18 C :   -0.024220
  19 C :   -0.050871
  20 C :   -0.158719
  21 H :    0.021721
  22 C :    0.042010
  23 H :    0.014044
  24 H :    0.043799
  25 C :   -0.070212
  26 H :    0.022443
  27 H :    0.048422
  28 C :   -0.033092
  29 H :    0.027403
  30 H :    0.020975
  31 H :    0.023561
  32 H :    0.052720
  33 H :    0.067870
Sum of atomic charges:    0.0000000

LOEWDIN ATOMIC CHARGES
----------------------
   0 S :    0.413636
   1 C :   -0.192067
   2 C :   -0.062584
   3 C :   -0.072111
   4 C :   -0.209712
   5 H :    0.031043
   6 C :   -0.020678
   7 H :    0.030261
   8 H :    0.027325
   9 C :   -0.029724
  10 H :    0.024961
  11 H :    0.018519
  12 C :   -0.067117
  13 H :    0.012710
  14 H :    0.019118
  15 H :    0.033827
  16 S :    0.430899
  17 C :   -0.201034
  18 C :   -0.072160
  19 C :   -0.041439
  20 C :   -0.215030
  21 H :    0.033046
  22 C :   -0.041317
  23 H :    0.028257
  24 H :    0.037927
  25 C :   -0.046965
  26 H :    0.026865
  27 H :    0.030664
  28 C :   -0.063254
  29 H :    0.026565
  30 H :    0.016189
  31 H :    0.029263
  32 H :    0.029093
  33 H :    0.035024

  Mayer bond orders larger than 0.100000
B(  0-S ,  1-C ) :   1.1276 B(  0-S ,  4-C ) :   1.1748 B(  1-C ,  2-C ) :   1.6032
B(  1-C ,  4-C ) :   0.1004 B(  1-C , 32-H ) :   0.9650 B(  2-C ,  3-C ) :   1.2319
B(  2-C ,  6-C ) :   1.0496 B(  3-C ,  4-C ) :   1.5739 B(  3-C ,  5-H ) :   0.9943
B(  4-C , 20-C ) :   1.0350 B(  6-C ,  7-H ) :   0.9410 B(  6-C ,  8-H ) :   0.9319
B(  6-C ,  9-C ) :   1.0703 B(  9-C , 10-H ) :   0.9517 B(  9-C , 11-H ) :   0.9527
B(  9-C , 12-C ) :   1.0854 B( 12-C , 13-H ) :   0.9751 B( 12-C , 14-H ) :   0.9704
B( 12-C , 15-H ) :   0.9684 B( 16-S , 17-C ) :   1.1770 B( 16-S , 20-C ) :   1.1307
B( 17-C , 18-C ) :   1.5989 B( 17-C , 33-H ) :   0.9547 B( 18-C , 19-C ) :   1.2341
B( 18-C , 21-H ) :   0.9937 B( 19-C , 20-C ) :   1.5939 B( 19-C , 22-C ) :   1.0530
B( 22-C , 23-H ) :   0.9431 B( 22-C , 24-H ) :   0.9303 B( 22-C , 25-C ) :   1.0233
B( 25-C , 26-H ) :   0.9459 B( 25-C , 27-H ) :   0.9666 B( 25-C , 28-C ) :   1.1049
B( 28-C , 29-H ) :   0.9700 B( 28-C , 30-H ) :   0.9748 B( 28-C , 31-H ) :   0.9683

Dispersion correction           -0.014357699
FINAL SINGLE POINT ENERGY     -1339.867865585191

DIPOLE MOMENT
-------------
                                X             Y             Z
Electronic contribution:     -1.80874      23.89785       7.34050
Nuclear contribution   :      2.15676     -24.44579      -7.37021
                        -----------------------------------------
Total Dipole Moment    :      0.34802      -0.54794      -0.02971
                        -----------------------------------------
Magnitude (a.u.)       :      0.64979
Magnitude (Debye)      :      1.65165

Rotational constants in cm-1:     0.018269     0.009009     0.006922
Rotational constants in MHz :   547.686171   270.085603   207.504085

                             ****ORCA TERMINATED NORMALLY****
TOTAL RUN TIME: 0 days 0 hours 0 minutes 21 seconds 857 msec
