                         Program Version 4.2.1 -  RELEASE  -
|  1> ! wB97X-D3 SP def2-SVP
|  2> %pal
|  3> nprocs 24
|  4> end
|  5>
|  6> * xyz 0 1
|  7> S 	 -62.1709 	 14.3191 	 -93.1365
|  8> C 	 -63.6822 	 15.205 	 -93.313
|  9> C 	 -64.0281 	 15.7065 	 -92.1188
| 10> C 	 -63.1574 	 15.3855 	 -91.0636
| 11> C 	 -62.1204 	 14.5393 	 -91.3864
| 12> H 	 -63.4247 	 15.6085 	 -90.0872
| 13> C 	 -65.2115 	 16.5489 	 -91.8785
| 14> H 	 -65.5932 	 16.3629 	 -90.9319
| 15> H 	 -65.945 	 16.2794 	 -92.6311
| 16> C 	 -64.9701 	 18.0599 	 -91.9091
| 17> H 	 -64.6533 	 18.3144 	 -92.9439
| 18> H 	 -65.9192 	 18.5563 	 -91.6873
| 19> C 	 -63.9123 	 18.5895 	 -91.0011
| 20> H 	 -63.8404 	 19.6783 	 -91.3037
| 21> H 	 -64.1434 	 18.6584 	 -89.9686
| 22> H 	 -62.991 	 18.1048 	 -91.0123
| 23> S 	 -61.2421 	 12.0912 	 -90.4946
| 24> C 	 -59.9264 	 12.1745 	 -89.3648
| 25> C 	 -59.5635 	 13.4609 	 -88.9941
| 26> C 	 -60.256 	 14.3784 	 -89.7978
| 27> C 	 -61.2337 	 13.8008 	 -90.5683
| 28> H 	 -58.7097 	 13.6515 	 -88.4055
| 29> C 	 -60.0465 	 15.9057 	 -89.6771
| 30> H 	 -59.5855 	 16.0593 	 -88.7427
| 31> H 	 -61.071 	 16.1827 	 -89.4786
| 32> C 	 -59.3772 	 16.5825 	 -90.932
| 33> H 	 -60.1421 	 16.4293 	 -91.6795
| 34> H 	 -58.4108 	 16.1516 	 -91.0181
| 35> C 	 -59.2331 	 18.0955 	 -90.7092
| 36> H 	 -60.075 	 18.3898 	 -90.0797
| 37> H 	 -59.2904 	 18.6423 	 -91.7066
| 38> H 	 -58.3847 	 18.3976 	 -90.1267
| 39> H 	 -64.1648 	 15.4194 	 -94.2475
| 40> H 	 -59.3345 	 11.33 	 -89.0749
| 41> *
| 42>
| 43>                          ****END OF INPUT****

CARTESIAN COORDINATES (ANGSTROEM)
---------------------------------
  S    -62.170900   14.319100  -93.136500
  C    -63.682200   15.205000  -93.313000
  C    -64.028100   15.706500  -92.118800
  C    -63.157400   15.385500  -91.063600
  C    -62.120400   14.539300  -91.386400
  H    -63.424700   15.608500  -90.087200
  C    -65.211500   16.548900  -91.878500
  H    -65.593200   16.362900  -90.931900
  H    -65.945000   16.279400  -92.631100
  C    -64.970100   18.059900  -91.909100
  H    -64.653300   18.314400  -92.943900
  H    -65.919200   18.556300  -91.687300
  C    -63.912300   18.589500  -91.001100
  H    -63.840400   19.678300  -91.303700
  H    -64.143400   18.658400  -89.968600
  H    -62.991000   18.104800  -91.012300
  S    -61.242100   12.091200  -90.494600
  C    -59.926400   12.174500  -89.364800
  C    -59.563500   13.460900  -88.994100
  C    -60.256000   14.378400  -89.797800
  C    -61.233700   13.800800  -90.568300
  H    -58.709700   13.651500  -88.405500
  C    -60.046500   15.905700  -89.677100
  H    -59.585500   16.059300  -88.742700
  H    -61.071000   16.182700  -89.478600
  C    -59.377200   16.582500  -90.932000
  H    -60.142100   16.429300  -91.679500
  H    -58.410800   16.151600  -91.018100
  C    -59.233100   18.095500  -90.709200
  H    -60.075000   18.389800  -90.079700
  H    -59.290400   18.642300  -91.706600
  H    -58.384700   18.397600  -90.126700
  H    -64.164800   15.419400  -94.247500
  H    -59.334500   11.330000  -89.074900

 Total Charge           Charge          ....    0
 Multiplicity           Mult            ....    1
 Number of Electrons    NEL             ....  134
 Basis Dimension        Dim             ....  322

ORBITAL ENERGIES
----------------

  NO   OCC          E(Eh)            E(eV)
   0   2.0000     -88.970749     -2421.0172
   1   2.0000     -88.960172     -2420.7293
   2   2.0000     -10.326224      -280.9908
   3   2.0000     -10.314641      -280.6757
   4   2.0000     -10.313113      -280.6341
   5   2.0000     -10.308468      -280.5077
   6   2.0000     -10.295580      -280.1570
   7   2.0000     -10.288055      -279.9522
   8   2.0000     -10.287636      -279.9408
   9   2.0000     -10.285532      -279.8836
  10   2.0000     -10.284743      -279.8621
  11   2.0000     -10.283839      -279.8375
  12   2.0000     -10.282948      -279.8132
  13   2.0000     -10.278122      -279.6819
  14   2.0000     -10.276287      -279.6320
  15   2.0000     -10.269394      -279.4444
  16   2.0000      -8.086102      -220.0340
  17   2.0000      -8.074696      -219.7236
  18   2.0000      -6.044384      -164.4761
  19   2.0000      -6.040580      -164.3725
  20   2.0000      -6.037015      -164.2755
  21   2.0000      -6.033239      -164.1728
  22   2.0000      -6.029113      -164.0605
  23   2.0000      -6.025530      -163.9630
  24   2.0000      -1.015497       -27.6331
  25   2.0000      -0.991729       -26.9863
  26   2.0000      -0.919832       -25.0299
  27   2.0000      -0.905162       -24.6307
  28   2.0000      -0.876594       -23.8533
  29   2.0000      -0.855550       -23.2807
  30   2.0000      -0.847177       -23.0529
  31   2.0000      -0.819453       -22.2984
  32   2.0000      -0.787700       -21.4344
  33   2.0000      -0.770734       -20.9727
  34   2.0000      -0.710685       -19.3387
  35   2.0000      -0.701038       -19.0762
  36   2.0000      -0.695666       -18.9300
  37   2.0000      -0.668298       -18.1853
  38   2.0000      -0.644649       -17.5418
  39   2.0000      -0.621536       -16.9129
  40   2.0000      -0.590851       -16.0779
  41   2.0000      -0.581711       -15.8292
  42   2.0000      -0.574825       -15.6418
  43   2.0000      -0.552045       -15.0219
  44   2.0000      -0.546364       -14.8673
  45   2.0000      -0.525056       -14.2875
  46   2.0000      -0.518302       -14.1037
  47   2.0000      -0.515863       -14.0373
  48   2.0000      -0.508433       -13.8352
  49   2.0000      -0.499739       -13.5986
  50   2.0000      -0.490322       -13.3424
  51   2.0000      -0.484724       -13.1900
  52   2.0000      -0.478231       -13.0133
  53   2.0000      -0.466283       -12.6882
  54   2.0000      -0.459047       -12.4913
  55   2.0000      -0.453879       -12.3507
  56   2.0000      -0.440673       -11.9913
  57   2.0000      -0.434875       -11.8336
  58   2.0000      -0.431586       -11.7440
  59   2.0000      -0.423277       -11.5180
  60   2.0000      -0.418099       -11.3771
  61   2.0000      -0.412325       -11.2199
  62   2.0000      -0.410419       -11.1681
  63   2.0000      -0.342837        -9.3291
  64   2.0000      -0.334534        -9.1031
  65   2.0000      -0.326388        -8.8815
  66   2.0000      -0.296371        -8.0647
  67   0.0000       0.031407         0.8546
  68   0.0000       0.067581         1.8390
  69   0.0000       0.119646         3.2557
  70   0.0000       0.127600         3.4722
  71   0.0000       0.128579         3.4988

MULLIKEN ATOMIC CHARGES
-----------------------
   0 S :    0.094538
   1 C :   -0.122356
   2 C :   -0.099505
   3 C :    0.076603
   4 C :   -0.196641
   5 H :   -0.015465
   6 C :    0.116640
   7 H :   -0.003296
   8 H :    0.017523
   9 C :   -0.061002
  10 H :    0.022071
  11 H :    0.031927
  12 C :   -0.049152
  13 H :    0.037781
  14 H :    0.012783
  15 H :    0.033519
  16 S :    0.149604
  17 C :   -0.095313
  18 C :   -0.009396
  19 C :   -0.082982
  20 C :   -0.150578
  21 H :    0.007024
  22 C :    0.102834
  23 H :   -0.006270
  24 H :    0.004098
  25 C :   -0.030057
  26 H :    0.044600
  27 H :    0.033615
  28 C :   -0.049818
  29 H :    0.020179
  30 H :    0.049902
  31 H :    0.027436
  32 H :    0.040677
  33 H :    0.048476
Sum of atomic charges:    0.0000000

LOEWDIN ATOMIC CHARGES
----------------------
   0 S :    0.388448
   1 C :   -0.185682
   2 C :   -0.070918
   3 C :   -0.056629
   4 C :   -0.179767
   5 H :    0.017412
   6 C :   -0.027880
   7 H :    0.018763
   8 H :    0.031621
   9 C :   -0.035310
  10 H :    0.024525
  11 H :    0.026792
  12 C :   -0.067395
  13 H :    0.040159
  14 H :    0.017851
  15 H :    0.016203
  16 S :    0.440511
  17 C :   -0.179763
  18 C :   -0.067810
  19 C :   -0.045152
  20 C :   -0.235205
  21 H :    0.027164
  22 C :   -0.028753
  23 H :    0.016544
  24 H :    0.027632
  25 C :   -0.025866
  26 H :    0.028590
  27 H :    0.023309
  28 C :   -0.070601
  29 H :    0.023352
  30 H :    0.035910
  31 H :    0.020321
  32 H :    0.028190
  33 H :    0.023434

  Mayer bond orders larger than 0.100000
B(  0-S ,  1-C ) :   1.1225 B(  0-S ,  4-C ) :   1.1436 B(  1-C ,  2-C ) :   1.6181
B(  1-C , 32-H ) :   0.9724 B(  2-C ,  3-C ) :   1.2506 B(  2-C ,  6-C ) :   1.0355
B(  3-C ,  4-C ) :   1.5633 B(  3-C ,  5-H ) :   0.9965 B(  4-C , 20-C ) :   1.0552
B(  6-C ,  7-H ) :   0.9278 B(  6-C ,  8-H ) :   0.9357 B(  6-C ,  9-C ) :   1.0812
B(  9-C , 10-H ) :   0.9539 B(  9-C , 11-H ) :   0.9533 B(  9-C , 12-C ) :   1.0906
B( 12-C , 13-H ) :   0.9688 B( 12-C , 14-H ) :   0.9705 B( 12-C , 15-H ) :   0.9681
B( 16-S , 17-C ) :   1.1766 B( 16-S , 20-C ) :   1.1414 B( 17-C , 18-C ) :   1.5843
B( 17-C , 33-H ) :   0.9662 B( 18-C , 19-C ) :   1.2820 B( 18-C , 21-H ) :   0.9911
B( 19-C , 20-C ) :   1.5757 B( 19-C , 22-C ) :   1.0141 B( 22-C , 23-H ) :   0.9318
B( 22-C , 24-H ) :   0.9210 B( 22-C , 25-C ) :   1.0561 B( 25-C , 26-H ) :   0.9516
B( 25-C , 27-H ) :   0.9601 B( 25-C , 28-C ) :   1.0873 B( 28-C , 29-H ) :   0.9712
B( 28-C , 30-H ) :   0.9753 B( 28-C , 31-H ) :   0.9745

Dispersion correction           -0.015822963
FINAL SINGLE POINT ENERGY     -1339.864228430411

DIPOLE MOMENT
-------------
                                X             Y             Z
Electronic contribution:      1.98032     -28.61473      -4.70710
Nuclear contribution   :     -2.03657      29.07356       5.02515
                        -----------------------------------------
Total Dipole Moment    :     -0.05625       0.45884       0.31805
                        -----------------------------------------
Magnitude (a.u.)       :      0.56111
Magnitude (Debye)      :      1.42624

Rotational constants in cm-1:     0.018800     0.010211     0.007875
Rotational constants in MHz :   563.605444   306.121529   236.072450

                             ****ORCA TERMINATED NORMALLY****
TOTAL RUN TIME: 0 days 0 hours 0 minutes 22 seconds 222 msec
