                         Program Version 4.2.1 -  RELEASE  -
|  1> ! wB97X-D3 SP def2-SVP
|  2> %pal
|  3> nprocs 24
|  4> end
|  5>
|  6> * xyz 0 1
|  7> S 	 27.8603 	 -28.1158 	 -129.954
|  8> C 	 26.6692 	 -28.1434 	 -128.657
|  9> C 	 26.2225 	 -29.4357 	 -128.433
| 10> C 	 26.887 	 -30.3169 	 -129.252
| 11> C 	 27.8172 	 -29.8418 	 -130.095
| 12> H 	 26.7897 	 -31.3615 	 -129.246
| 13> C 	 25.2408 	 -29.8454 	 -127.437
| 14> H 	 25.0446 	 -30.9537 	 -127.562
| 15> H 	 24.2771 	 -29.4508 	 -127.722
| 16> C 	 25.5611 	 -29.4938 	 -125.958
| 17> H 	 26.5915 	 -29.7669 	 -125.804
| 18> H 	 25.4325 	 -28.4279 	 -125.75
| 19> C 	 24.5922 	 -30.2528 	 -124.999
| 20> H 	 24.843 	 -31.3169 	 -125.008
| 21> H 	 24.6678 	 -29.7241 	 -124.081
| 22> H 	 23.4827 	 -30.1102 	 -125.202
| 23> S 	 29.061 	 -29.9184 	 -132.622
| 24> C 	 30.1055 	 -31.3009 	 -132.916
| 25> C 	 30.2346 	 -32.0986 	 -131.814
| 26> C 	 29.5386 	 -31.6517 	 -130.69
| 27> C 	 28.8157 	 -30.5177 	 -130.946
| 28> H 	 30.7687 	 -33.0602 	 -131.856
| 29> C 	 29.7227 	 -32.3808 	 -129.351
| 30> H 	 29.234 	 -33.3476 	 -129.416
| 31> H 	 29.1718 	 -31.7685 	 -128.64
| 32> C 	 31.1903 	 -32.6508 	 -128.883
| 33> H 	 31.6186 	 -31.6641 	 -128.698
| 34> H 	 31.8023 	 -32.9979 	 -129.589
| 35> C 	 31.2626 	 -33.6107 	 -127.745
| 36> H 	 32.2428 	 -33.6411 	 -127.221
| 37> H 	 31.1566 	 -34.6863 	 -128.147
| 38> H 	 30.3886 	 -33.5498 	 -127.046
| 39> H 	 26.2813 	 -27.3421 	 -128.161
| 40> H 	 30.7179 	 -31.5362 	 -133.806
| 41> *
| 42>
| 43>                          ****END OF INPUT****

CARTESIAN COORDINATES (ANGSTROEM)
---------------------------------
  S     27.860300  -28.115800  -129.954000
  C     26.669200  -28.143400  -128.657000
  C     26.222500  -29.435700  -128.433000
  C     26.887000  -30.316900  -129.252000
  C     27.817200  -29.841800  -130.095000
  H     26.789700  -31.361500  -129.246000
  C     25.240800  -29.845400  -127.437000
  H     25.044600  -30.953700  -127.562000
  H     24.277100  -29.450800  -127.722000
  C     25.561100  -29.493800  -125.958000
  H     26.591500  -29.766900  -125.804000
  H     25.432500  -28.427900  -125.750000
  C     24.592200  -30.252800  -124.999000
  H     24.843000  -31.316900  -125.008000
  H     24.667800  -29.724100  -124.081000
  H     23.482700  -30.110200  -125.202000
  S     29.061000  -29.918400  -132.622000
  C     30.105500  -31.300900  -132.916000
  C     30.234600  -32.098600  -131.814000
  C     29.538600  -31.651700  -130.690000
  C     28.815700  -30.517700  -130.946000
  H     30.768700  -33.060200  -131.856000
  C     29.722700  -32.380800  -129.351000
  H     29.234000  -33.347600  -129.416000
  H     29.171800  -31.768500  -128.640000
  C     31.190300  -32.650800  -128.883000
  H     31.618600  -31.664100  -128.698000
  H     31.802300  -32.997900  -129.589000
  C     31.262600  -33.610700  -127.745000
  H     32.242800  -33.641100  -127.221000
  H     31.156600  -34.686300  -128.147000
  H     30.388600  -33.549800  -127.046000
  H     26.281300  -27.342100  -128.161000
  H     30.717900  -31.536200  -133.806000

 Total Charge           Charge          ....    0
 Multiplicity           Mult            ....    1
 Number of Electrons    NEL             ....  134
 Basis Dimension        Dim             ....  322

ORBITAL ENERGIES
----------------

  NO   OCC          E(Eh)            E(eV)
   0   2.0000     -88.968585     -2420.9583
   1   2.0000     -88.962209     -2420.7848
   2   2.0000     -10.329761      -281.0871
   3   2.0000     -10.321862      -280.8721
   4   2.0000     -10.318402      -280.7780
   5   2.0000     -10.305633      -280.4305
   6   2.0000     -10.299067      -280.2519
   7   2.0000     -10.294353      -280.1236
   8   2.0000     -10.291218      -280.0383
   9   2.0000     -10.290457      -280.0176
  10   2.0000     -10.289936      -280.0034
  11   2.0000     -10.288794      -279.9723
  12   2.0000     -10.288661      -279.9687
  13   2.0000     -10.283675      -279.8330
  14   2.0000     -10.278909      -279.7033
  15   2.0000     -10.277935      -279.6768
  16   2.0000      -8.082452      -219.9347
  17   2.0000      -8.077243      -219.7930
  18   2.0000      -6.041046      -164.3852
  19   2.0000      -6.037250      -164.2819
  20   2.0000      -6.035662      -164.2387
  21   2.0000      -6.032999      -164.1662
  22   2.0000      -6.031625      -164.1289
  23   2.0000      -6.028185      -164.0352
  24   2.0000      -1.011226       -27.5169
  25   2.0000      -0.988857       -26.9082
  26   2.0000      -0.914404       -24.8822
  27   2.0000      -0.910633       -24.7796
  28   2.0000      -0.868075       -23.6215
  29   2.0000      -0.857841       -23.3430
  30   2.0000      -0.848732       -23.0952
  31   2.0000      -0.817651       -22.2494
  32   2.0000      -0.782234       -21.2857
  33   2.0000      -0.770533       -20.9673
  34   2.0000      -0.709920       -19.3179
  35   2.0000      -0.708600       -19.2820
  36   2.0000      -0.699201       -19.0262
  37   2.0000      -0.659030       -17.9331
  38   2.0000      -0.650106       -17.6903
  39   2.0000      -0.621370       -16.9083
  40   2.0000      -0.596512       -16.2319
  41   2.0000      -0.573480       -15.6052
  42   2.0000      -0.566357       -15.4114
  43   2.0000      -0.563163       -15.3245
  44   2.0000      -0.531135       -14.4529
  45   2.0000      -0.525054       -14.2875
  46   2.0000      -0.517140       -14.0721
  47   2.0000      -0.512640       -13.9496
  48   2.0000      -0.504071       -13.7165
  49   2.0000      -0.500107       -13.6086
  50   2.0000      -0.493644       -13.4327
  51   2.0000      -0.480465       -13.0741
  52   2.0000      -0.470431       -12.8011
  53   2.0000      -0.465054       -12.6548
  54   2.0000      -0.455652       -12.3989
  55   2.0000      -0.453155       -12.3310
  56   2.0000      -0.448177       -12.1955
  57   2.0000      -0.437393       -11.9021
  58   2.0000      -0.433235       -11.7889
  59   2.0000      -0.431305       -11.7364
  60   2.0000      -0.422391       -11.4938
  61   2.0000      -0.417192       -11.3524
  62   2.0000      -0.411068       -11.1857
  63   2.0000      -0.346115        -9.4183
  64   2.0000      -0.334937        -9.1141
  65   2.0000      -0.333234        -9.0678
  66   2.0000      -0.290242        -7.8979
  67   0.0000       0.030170         0.8210
  68   0.0000       0.072065         1.9610
  69   0.0000       0.104688         2.8487
  70   0.0000       0.129033         3.5112
  71   0.0000       0.131897         3.5891

MULLIKEN ATOMIC CHARGES
-----------------------
   0 S :    0.100224
   1 C :   -0.078034
   2 C :   -0.059267
   3 C :    0.014987
   4 C :   -0.141236
   5 H :   -0.020862
   6 C :    0.056294
   7 H :    0.019913
   8 H :    0.025498
   9 C :   -0.076676
  10 H :    0.036574
  11 H :    0.032961
  12 C :   -0.055951
  13 H :    0.048232
  14 H :    0.026701
  15 H :    0.034583
  16 S :    0.107906
  17 C :   -0.086081
  18 C :   -0.062161
  19 C :   -0.031186
  20 C :   -0.149590
  21 H :    0.027905
  22 C :    0.066638
  23 H :    0.025656
  24 H :    0.029041
  25 C :   -0.005115
  26 H :    0.029100
  27 H :   -0.005495
  28 C :   -0.091591
  29 H :    0.048517
  30 H :    0.030218
  31 H :    0.039014
  32 H :   -0.000333
  33 H :    0.063618
Sum of atomic charges:   -0.0000000

LOEWDIN ATOMIC CHARGES
----------------------
   0 S :    0.407911
   1 C :   -0.173131
   2 C :   -0.067916
   3 C :   -0.067740
   4 C :   -0.193596
   5 H :    0.022597
   6 C :   -0.039239
   7 H :    0.034933
   8 H :    0.031394
   9 C :   -0.031258
  10 H :    0.024651
  11 H :    0.023878
  12 C :   -0.068542
  13 H :    0.027583
  14 H :    0.022439
  15 H :    0.032623
  16 S :    0.382437
  17 C :   -0.185008
  18 C :   -0.076810
  19 C :   -0.059460
  20 C :   -0.182729
  21 H :    0.035926
  22 C :   -0.021997
  23 H :    0.028431
  24 H :    0.029915
  25 C :   -0.036681
  26 H :    0.029355
  27 H :    0.005817
  28 C :   -0.072876
  29 H :    0.032767
  30 H :    0.031207
  31 H :    0.027804
  32 H :    0.006465
  33 H :    0.038850

  Mayer bond orders larger than 0.100000
B(  0-S ,  1-C ) :   1.1488 B(  0-S ,  4-C ) :   1.1575 B(  1-C ,  2-C ) :   1.5710
B(  1-C ,  4-C ) :   0.1060 B(  1-C , 32-H ) :   0.9851 B(  2-C ,  3-C ) :   1.2617
B(  2-C ,  6-C ) :   1.0293 B(  3-C ,  4-C ) :   1.5791 B(  3-C ,  5-H ) :   1.0122
B(  4-C , 20-C ) :   0.9997 B(  6-C ,  7-H ) :   0.9464 B(  6-C ,  8-H ) :   0.9190
B(  6-C ,  9-C ) :   1.0562 B(  9-C , 10-H ) :   0.9611 B(  9-C , 11-H ) :   0.9551
B(  9-C , 12-C ) :   1.0808 B( 12-C , 13-H ) :   0.9771 B( 12-C , 14-H ) :   0.9749
B( 12-C , 15-H ) :   0.9737 B( 16-S , 17-C ) :   1.1372 B( 16-S , 20-C ) :   1.1220
B( 17-C , 18-C ) :   1.6388 B( 17-C , 33-H ) :   0.9585 B( 18-C , 19-C ) :   1.2369
B( 18-C , 21-H ) :   0.9812 B( 19-C , 20-C ) :   1.6334 B( 19-C , 22-C ) :   1.0312
B( 22-C , 23-H ) :   0.9341 B( 22-C , 24-H ) :   0.9305 B( 22-C , 25-C ) :   1.0597
B( 25-C , 26-H ) :   0.9512 B( 25-C , 27-H ) :   0.9505 B( 25-C , 28-C ) :   1.0809
B( 28-C , 29-H ) :   0.9716 B( 28-C , 30-H ) :   0.9713 B( 28-C , 31-H ) :   0.9761

Dispersion correction           -0.013495200
FINAL SINGLE POINT ENERGY     -1339.866024696424

DIPOLE MOMENT
-------------
                                X             Y             Z
Electronic contribution:      3.04941      15.94007     -26.98927
Nuclear contribution   :     -3.06785     -16.48131      27.51853
                        -----------------------------------------
Total Dipole Moment    :     -0.01844      -0.54124       0.52926
                        -----------------------------------------
Magnitude (a.u.)       :      0.75723
Magnitude (Debye)      :      1.92473

Rotational constants in cm-1:     0.017422     0.008401     0.006129
Rotational constants in MHz :   522.290064   251.861665   183.755469

                             ****ORCA TERMINATED NORMALLY****
TOTAL RUN TIME: 0 days 0 hours 0 minutes 21 seconds 71 msec
