                         Program Version 4.2.1 -  RELEASE  -
|  1> ! wB97X-D3 SP def2-SVP
|  2> %pal
|  3> nprocs 24
|  4> end
|  5>
|  6> * xyz 0 1
|  7> S 	 -66.4381 	 -43.3761 	 -90.2928
|  8> C 	 -65.1033 	 -44.4156 	 -89.8613
|  9> C 	 -65.4259 	 -45.7334 	 -89.8311
| 10> C 	 -66.7307 	 -45.9234 	 -90.3886
| 11> C 	 -67.3969 	 -44.7856 	 -90.7821
| 12> H 	 -67.1889 	 -46.8833 	 -90.5495
| 13> C 	 -64.5291 	 -46.7695 	 -89.1979
| 14> H 	 -63.6212 	 -46.5656 	 -89.7565
| 15> H 	 -64.9376 	 -47.7855 	 -89.3808
| 16> C 	 -64.3903 	 -46.6667 	 -87.6811
| 17> H 	 -63.6481 	 -47.4382 	 -87.3194
| 18> H 	 -64.0175 	 -45.7067 	 -87.3455
| 19> C 	 -65.6583 	 -46.9423 	 -87.0132
| 20> H 	 -66.4791 	 -46.3752 	 -87.4413
| 21> H 	 -65.8475 	 -48.0081 	 -87.1847
| 22> H 	 -65.617 	 -46.7785 	 -86.0027
| 23> S 	 -69.6947 	 -43.3266 	 -90.7334
| 24> C 	 -71.0696 	 -43.6978 	 -91.7464
| 25> C 	 -70.7795 	 -44.6872 	 -92.6658
| 26> C 	 -69.4609 	 -45.2627 	 -92.4363
| 27> C 	 -68.7252 	 -44.6335 	 -91.4236
| 28> H 	 -71.5384 	 -44.9494 	 -93.4569
| 29> C 	 -68.924 	 -46.4072 	 -93.2963
| 30> H 	 -69.6164 	 -47.2363 	 -93.3664
| 31> H 	 -67.9852 	 -46.8095 	 -92.8618
| 32> C 	 -68.4582 	 -46.0246 	 -94.7303
| 33> H 	 -67.9602 	 -46.8887 	 -95.1577
| 34> H 	 -67.7485 	 -45.2188 	 -94.7207
| 35> C 	 -69.6518 	 -45.5542 	 -95.666
| 36> H 	 -70.4016 	 -46.3124 	 -95.6393
| 37> H 	 -69.3873 	 -45.4416 	 -96.7324
| 38> H 	 -70.1942 	 -44.5931 	 -95.5237
| 39> H 	 -64.1624 	 -44.1246 	 -89.3909
| 40> H 	 -71.9638 	 -43.0131 	 -91.8183
| 41> *
| 42>
| 43>                          ****END OF INPUT****

CARTESIAN COORDINATES (ANGSTROEM)
---------------------------------
  S    -66.438100  -43.376100  -90.292800
  C    -65.103300  -44.415600  -89.861300
  C    -65.425900  -45.733400  -89.831100
  C    -66.730700  -45.923400  -90.388600
  C    -67.396900  -44.785600  -90.782100
  H    -67.188900  -46.883300  -90.549500
  C    -64.529100  -46.769500  -89.197900
  H    -63.621200  -46.565600  -89.756500
  H    -64.937600  -47.785500  -89.380800
  C    -64.390300  -46.666700  -87.681100
  H    -63.648100  -47.438200  -87.319400
  H    -64.017500  -45.706700  -87.345500
  C    -65.658300  -46.942300  -87.013200
  H    -66.479100  -46.375200  -87.441300
  H    -65.847500  -48.008100  -87.184700
  H    -65.617000  -46.778500  -86.002700
  S    -69.694700  -43.326600  -90.733400
  C    -71.069600  -43.697800  -91.746400
  C    -70.779500  -44.687200  -92.665800
  C    -69.460900  -45.262700  -92.436300
  C    -68.725200  -44.633500  -91.423600
  H    -71.538400  -44.949400  -93.456900
  C    -68.924000  -46.407200  -93.296300
  H    -69.616400  -47.236300  -93.366400
  H    -67.985200  -46.809500  -92.861800
  C    -68.458200  -46.024600  -94.730300
  H    -67.960200  -46.888700  -95.157700
  H    -67.748500  -45.218800  -94.720700
  C    -69.651800  -45.554200  -95.666000
  H    -70.401600  -46.312400  -95.639300
  H    -69.387300  -45.441600  -96.732400
  H    -70.194200  -44.593100  -95.523700
  H    -64.162400  -44.124600  -89.390900
  H    -71.963800  -43.013100  -91.818300

 Total Charge           Charge          ....    0
 Multiplicity           Mult            ....    1
 Number of Electrons    NEL             ....  134
 Basis Dimension        Dim             ....  322

ORBITAL ENERGIES
----------------

  NO   OCC          E(Eh)            E(eV)
   0   2.0000     -88.968200     -2420.9478
   1   2.0000     -88.963329     -2420.8152
   2   2.0000     -10.335497      -281.2432
   3   2.0000     -10.335119      -281.2329
   4   2.0000     -10.322361      -280.8857
   5   2.0000     -10.312690      -280.6226
   6   2.0000     -10.310468      -280.5621
   7   2.0000     -10.303257      -280.3659
   8   2.0000     -10.297733      -280.2156
   9   2.0000     -10.295321      -280.1499
  10   2.0000     -10.294616      -280.1308
  11   2.0000     -10.294088      -280.1164
  12   2.0000     -10.290120      -280.0084
  13   2.0000     -10.284989      -279.8688
  14   2.0000     -10.278267      -279.6859
  15   2.0000     -10.263156      -279.2747
  16   2.0000      -8.082528      -219.9368
  17   2.0000      -8.078159      -219.8179
  18   2.0000      -6.041233      -164.3903
  19   2.0000      -6.037214      -164.2810
  20   2.0000      -6.036773      -164.2689
  21   2.0000      -6.032974      -164.1656
  22   2.0000      -6.032593      -164.1552
  23   2.0000      -6.028860      -164.0536
  24   2.0000      -1.005593       -27.3636
  25   2.0000      -0.983960       -26.7749
  26   2.0000      -0.923540       -25.1308
  27   2.0000      -0.900937       -24.5157
  28   2.0000      -0.872190       -23.7335
  29   2.0000      -0.849623       -23.1194
  30   2.0000      -0.838114       -22.8062
  31   2.0000      -0.818869       -22.2826
  32   2.0000      -0.784314       -21.3423
  33   2.0000      -0.773296       -21.0424
  34   2.0000      -0.708316       -19.2743
  35   2.0000      -0.700008       -19.0482
  36   2.0000      -0.690398       -18.7867
  37   2.0000      -0.658808       -17.9271
  38   2.0000      -0.634427       -17.2636
  39   2.0000      -0.615853       -16.7582
  40   2.0000      -0.592973       -16.1356
  41   2.0000      -0.584169       -15.8960
  42   2.0000      -0.566932       -15.4270
  43   2.0000      -0.550913       -14.9911
  44   2.0000      -0.542327       -14.7575
  45   2.0000      -0.526442       -14.3252
  46   2.0000      -0.514623       -14.0036
  47   2.0000      -0.508950       -13.8492
  48   2.0000      -0.501379       -13.6432
  49   2.0000      -0.495139       -13.4734
  50   2.0000      -0.485883       -13.2215
  51   2.0000      -0.482718       -13.1354
  52   2.0000      -0.470512       -12.8033
  53   2.0000      -0.466066       -12.6823
  54   2.0000      -0.463736       -12.6189
  55   2.0000      -0.444019       -12.0824
  56   2.0000      -0.441768       -12.0211
  57   2.0000      -0.434028       -11.8105
  58   2.0000      -0.431682       -11.7467
  59   2.0000      -0.428882       -11.6705
  60   2.0000      -0.422024       -11.4839
  61   2.0000      -0.416033       -11.3208
  62   2.0000      -0.411999       -11.2111
  63   2.0000      -0.354249        -9.6396
  64   2.0000      -0.333004        -9.0615
  65   2.0000      -0.327823        -8.9205
  66   2.0000      -0.291081        -7.9207
  67   0.0000       0.025980         0.7070
  68   0.0000       0.068715         1.8698
  69   0.0000       0.105965         2.8835
  70   0.0000       0.117581         3.1995
  71   0.0000       0.135186         3.6786

MULLIKEN ATOMIC CHARGES
-----------------------
   0 S :    0.110420
   1 C :   -0.108836
   2 C :   -0.129983
   3 C :    0.032515
   4 C :   -0.133238
   5 H :    0.004682
   6 C :    0.078165
   7 H :    0.041410
   8 H :    0.020419
   9 C :   -0.070404
  10 H :    0.035408
  11 H :    0.017454
  12 C :   -0.012307
  13 H :    0.042537
  14 H :    0.015138
  15 H :    0.016951
  16 S :    0.081085
  17 C :   -0.108869
  18 C :   -0.052182
  19 C :   -0.037559
  20 C :   -0.138155
  21 H :    0.048969
  22 C :    0.042098
  23 H :    0.030782
  24 H :    0.022907
  25 C :   -0.038205
  26 H :    0.033696
  27 H :    0.033061
  28 C :   -0.089397
  29 H :    0.012812
  30 H :    0.030113
  31 H :    0.042769
  32 H :    0.044694
  33 H :    0.081050
Sum of atomic charges:   -0.0000000

LOEWDIN ATOMIC CHARGES
----------------------
   0 S :    0.395042
   1 C :   -0.196257
   2 C :   -0.069787
   3 C :   -0.064147
   4 C :   -0.185900
   5 H :    0.026799
   6 C :   -0.029735
   7 H :    0.037160
   8 H :    0.032299
   9 C :   -0.042126
  10 H :    0.030930
  11 H :    0.016272
  12 C :   -0.056068
  13 H :    0.029360
  14 H :    0.025933
  15 H :    0.015493
  16 S :    0.392755
  17 C :   -0.195589
  18 C :   -0.078029
  19 C :   -0.055599
  20 C :   -0.186406
  21 H :    0.045391
  22 C :   -0.033547
  23 H :    0.027424
  24 H :    0.033582
  25 C :   -0.025859
  26 H :    0.026646
  27 H :    0.023344
  28 C :   -0.082626
  29 H :    0.013817
  30 H :    0.027865
  31 H :    0.029666
  32 H :    0.029847
  33 H :    0.042052

  Mayer bond orders larger than 0.100000
B(  0-S ,  1-C ) :   1.1318 B(  0-S ,  4-C ) :   1.1364 B(  1-C ,  2-C ) :   1.6391
B(  1-C , 32-H ) :   0.9596 B(  2-C ,  3-C ) :   1.2307 B(  2-C ,  6-C ) :   0.9993
B(  3-C ,  4-C ) :   1.5867 B(  3-C ,  5-H ) :   0.9974 B(  4-C , 20-C ) :   1.0299
B(  6-C ,  7-H ) :   0.9358 B(  6-C ,  8-H ) :   0.9429 B(  6-C ,  9-C ) :   1.0773
B(  9-C , 10-H ) :   0.9539 B(  9-C , 11-H ) :   0.9538 B(  9-C , 12-C ) :   1.0807
B( 12-C , 13-H ) :   0.9737 B( 12-C , 14-H ) :   0.9710 B( 12-C , 15-H ) :   0.9675
B( 16-S , 17-C ) :   1.1550 B( 16-S , 20-C ) :   1.1326 B( 17-C , 18-C ) :   1.6237
B( 17-C , 33-H ) :   0.9560 B( 18-C , 19-C ) :   1.2216 B( 18-C , 21-H ) :   0.9778
B( 19-C , 20-C ) :   1.6154 B( 19-C , 22-C ) :   1.0417 B( 22-C , 23-H ) :   0.9400
B( 22-C , 24-H ) :   0.9359 B( 22-C , 25-C ) :   1.0757 B( 25-C , 26-H ) :   0.9570
B( 25-C , 27-H ) :   0.9574 B( 25-C , 28-C ) :   1.0651 B( 28-C , 29-H ) :   0.9770
B( 28-C , 30-H ) :   0.9740 B( 28-C , 31-H ) :   0.9732

Dispersion correction           -0.014335046
FINAL SINGLE POINT ENERGY     -1339.876695551829

DIPOLE MOMENT
-------------
                                X             Y             Z
Electronic contribution:     -5.74204      18.13368       4.71917
Nuclear contribution   :      5.86305     -18.66343      -4.84740
                        -----------------------------------------
Total Dipole Moment    :      0.12101      -0.52975      -0.12823
                        -----------------------------------------
Magnitude (a.u.)       :      0.55832
Magnitude (Debye)      :      1.41913

Rotational constants in cm-1:     0.022788     0.007566     0.006642
Rotational constants in MHz :   683.177491   226.823561   199.134368

                             ****ORCA TERMINATED NORMALLY****
TOTAL RUN TIME: 0 days 0 hours 0 minutes 21 seconds 520 msec
