                         Program Version 4.2.1 -  RELEASE  -
|  1> ! wB97X-D3 SP def2-SVP
|  2> %pal
|  3> nprocs 24
|  4> end
|  5>
|  6> * xyz 0 1
|  7> S 	 17.7948 	 -15.3 	 -127.035
|  8> C 	 16.4853 	 -15.3343 	 -125.914
|  9> C 	 16.7725 	 -14.6876 	 -124.737
| 10> C 	 18.1735 	 -14.325 	 -124.697
| 11> C 	 18.8349 	 -14.6777 	 -125.841
| 12> H 	 18.6889 	 -13.9705 	 -123.851
| 13> C 	 15.7593 	 -14.5066 	 -123.627
| 14> H 	 14.9969 	 -15.2776 	 -123.745
| 15> H 	 15.1315 	 -13.5908 	 -123.725
| 16> C 	 16.3681 	 -14.6284 	 -122.171
| 17> H 	 17.0922 	 -15.4788 	 -122.056
| 18> H 	 17.0198 	 -13.7366 	 -122.049
| 19> C 	 15.2736 	 -14.6122 	 -121.144
| 20> H 	 14.5697 	 -13.7388 	 -121.259
| 21> H 	 14.619 	 -15.5154 	 -121.171
| 22> H 	 15.6689 	 -14.6708 	 -120.099
| 23> S 	 21.2637 	 -15.7683 	 -126.118
| 24> C 	 22.6821 	 -14.8426 	 -126.172
| 25> C 	 22.4462 	 -13.5011 	 -125.95
| 26> C 	 21.0372 	 -13.2366 	 -125.834
| 27> C 	 20.26 	 -14.3343 	 -126.043
| 28> H 	 23.2942 	 -12.8875 	 -125.829
| 29> C 	 20.5973 	 -11.8125 	 -125.382
| 30> H 	 21.5053 	 -11.3587 	 -124.855
| 31> H 	 19.815 	 -12.0446 	 -124.711
| 32> C 	 20.172 	 -10.9357 	 -126.501
| 33> H 	 21.0073 	 -10.8728 	 -127.146
| 34> H 	 20.1095 	 -9.86487 	 -126.228
| 35> C 	 18.856 	 -11.3844 	 -127.193
| 36> H 	 18.3705 	 -10.6601 	 -127.886
| 37> H 	 18.1658 	 -11.4246 	 -126.302
| 38> H 	 18.7876 	 -12.3721 	 -127.62
| 39> H 	 15.4721 	 -15.7072 	 -126.148
| 40> H 	 23.6169 	 -15.2882 	 -126.226
| 41> *
| 42>
| 43>                          ****END OF INPUT****

CARTESIAN COORDINATES (ANGSTROEM)
---------------------------------
  S     17.794800  -15.300000  -127.035000
  C     16.485300  -15.334300  -125.914000
  C     16.772500  -14.687600  -124.737000
  C     18.173500  -14.325000  -124.697000
  C     18.834900  -14.677700  -125.841000
  H     18.688900  -13.970500  -123.851000
  C     15.759300  -14.506600  -123.627000
  H     14.996900  -15.277600  -123.745000
  H     15.131500  -13.590800  -123.725000
  C     16.368100  -14.628400  -122.171000
  H     17.092200  -15.478800  -122.056000
  H     17.019800  -13.736600  -122.049000
  C     15.273600  -14.612200  -121.144000
  H     14.569700  -13.738800  -121.259000
  H     14.619000  -15.515400  -121.171000
  H     15.668900  -14.670800  -120.099000
  S     21.263700  -15.768300  -126.118000
  C     22.682100  -14.842600  -126.172000
  C     22.446200  -13.501100  -125.950000
  C     21.037200  -13.236600  -125.834000
  C     20.260000  -14.334300  -126.043000
  H     23.294200  -12.887500  -125.829000
  C     20.597300  -11.812500  -125.382000
  H     21.505300  -11.358700  -124.855000
  H     19.815000  -12.044600  -124.711000
  C     20.172000  -10.935700  -126.501000
  H     21.007300  -10.872800  -127.146000
  H     20.109500   -9.864870  -126.228000
  C     18.856000  -11.384400  -127.193000
  H     18.370500  -10.660100  -127.886000
  H     18.165800  -11.424600  -126.302000
  H     18.787600  -12.372100  -127.620000
  H     15.472100  -15.707200  -126.148000
  H     23.616900  -15.288200  -126.226000

 Total Charge           Charge          ....    0
 Multiplicity           Mult            ....    1
 Number of Electrons    NEL             ....  134
 Basis Dimension        Dim             ....  322

ORBITAL ENERGIES
----------------

  NO   OCC          E(Eh)            E(eV)
   0   2.0000     -88.968771     -2420.9634
   1   2.0000     -88.958113     -2420.6733
   2   2.0000     -10.324045      -280.9316
   3   2.0000     -10.321532      -280.8632
   4   2.0000     -10.311442      -280.5886
   5   2.0000     -10.306546      -280.4554
   6   2.0000     -10.303459      -280.3714
   7   2.0000     -10.301465      -280.3171
   8   2.0000     -10.298679      -280.2413
   9   2.0000     -10.296308      -280.1768
  10   2.0000     -10.291953      -280.0583
  11   2.0000     -10.289536      -279.9925
  12   2.0000     -10.288330      -279.9597
  13   2.0000     -10.287978      -279.9501
  14   2.0000     -10.280183      -279.7380
  15   2.0000     -10.275855      -279.6202
  16   2.0000      -8.084429      -219.9885
  17   2.0000      -8.074477      -219.7177
  18   2.0000      -6.042815      -164.4334
  19   2.0000      -6.038811      -164.3244
  20   2.0000      -6.035266      -164.2279
  21   2.0000      -6.032817      -164.1613
  22   2.0000      -6.028768      -164.0511
  23   2.0000      -6.025303      -163.9568
  24   2.0000      -1.014318       -27.6010
  25   2.0000      -0.992046       -26.9950
  26   2.0000      -0.911217       -24.7955
  27   2.0000      -0.909514       -24.7491
  28   2.0000      -0.871034       -23.7020
  29   2.0000      -0.851992       -23.1839
  30   2.0000      -0.842977       -22.9386
  31   2.0000      -0.815112       -22.1803
  32   2.0000      -0.780266       -21.2321
  33   2.0000      -0.771030       -20.9808
  34   2.0000      -0.710308       -19.3285
  35   2.0000      -0.700338       -19.0572
  36   2.0000      -0.686207       -18.6726
  37   2.0000      -0.664749       -18.0888
  38   2.0000      -0.645312       -17.5598
  39   2.0000      -0.623121       -16.9560
  40   2.0000      -0.593837       -16.1591
  41   2.0000      -0.572908       -15.5896
  42   2.0000      -0.557618       -15.1736
  43   2.0000      -0.549191       -14.9443
  44   2.0000      -0.542041       -14.7497
  45   2.0000      -0.523025       -14.2322
  46   2.0000      -0.510794       -13.8994
  47   2.0000      -0.509236       -13.8570
  48   2.0000      -0.508148       -13.8274
  49   2.0000      -0.498158       -13.5556
  50   2.0000      -0.492405       -13.3990
  51   2.0000      -0.478248       -13.0138
  52   2.0000      -0.472029       -12.8446
  53   2.0000      -0.461507       -12.5583
  54   2.0000      -0.458529       -12.4772
  55   2.0000      -0.452427       -12.3112
  56   2.0000      -0.444610       -12.0985
  57   2.0000      -0.439433       -11.9576
  58   2.0000      -0.434193       -11.8150
  59   2.0000      -0.429487       -11.6869
  60   2.0000      -0.421342       -11.4653
  61   2.0000      -0.409304       -11.1377
  62   2.0000      -0.400470       -10.8973
  63   2.0000      -0.339098        -9.2273
  64   2.0000      -0.331913        -9.0318
  65   2.0000      -0.326780        -8.8921
  66   2.0000      -0.303743        -8.2653
  67   0.0000       0.040724         1.1082
  68   0.0000       0.070419         1.9162
  69   0.0000       0.109365         2.9760
  70   0.0000       0.119736         3.2582
  71   0.0000       0.138735         3.7752

MULLIKEN ATOMIC CHARGES
-----------------------
   0 S :    0.136368
   1 C :   -0.132706
   2 C :   -0.066907
   3 C :    0.028203
   4 C :   -0.148988
   5 H :    0.007493
   6 C :    0.049263
   7 H :    0.014229
   8 H :    0.045262
   9 C :   -0.109200
  10 H :    0.047984
  11 H :    0.038572
  12 C :   -0.063106
  13 H :    0.039562
  14 H :    0.032218
  15 H :    0.039982
  16 S :    0.099980
  17 C :   -0.059339
  18 C :   -0.038626
  19 C :   -0.055557
  20 C :   -0.170219
  21 H :    0.003660
  22 C :    0.093964
  23 H :    0.034515
  24 H :    0.001213
  25 C :   -0.016304
  26 H :    0.003543
  27 H :    0.025975
  28 C :   -0.068263
  29 H :    0.041128
  30 H :    0.023110
  31 H :    0.040012
  32 H :    0.052143
  33 H :    0.030836
Sum of atomic charges:   -0.0000000

LOEWDIN ATOMIC CHARGES
----------------------
   0 S :    0.440628
   1 C :   -0.209184
   2 C :   -0.060912
   3 C :   -0.059083
   4 C :   -0.216976
   5 H :    0.023082
   6 C :   -0.035141
   7 H :    0.027470
   8 H :    0.037555
   9 C :   -0.049502
  10 H :    0.032178
  11 H :    0.025154
  12 C :   -0.077320
  13 H :    0.031178
  14 H :    0.026961
  15 H :    0.031276
  16 S :    0.426662
  17 C :   -0.182759
  18 C :   -0.072764
  19 C :   -0.049491
  20 C :   -0.204350
  21 H :    0.025432
  22 C :   -0.022445
  23 H :    0.041520
  24 H :    0.017534
  25 C :   -0.044621
  26 H :    0.015306
  27 H :    0.028631
  28 C :   -0.072183
  29 H :    0.029980
  30 H :    0.030886
  31 H :    0.019265
  32 H :    0.032485
  33 H :    0.013549

  Mayer bond orders larger than 0.100000
B(  0-S ,  1-C ) :   1.1401 B(  0-S ,  4-C ) :   1.1738 B(  1-C ,  2-C ) :   1.6259
B(  1-C , 32-H ) :   0.9643 B(  2-C ,  3-C ) :   1.2298 B(  2-C ,  6-C ) :   1.0198
B(  3-C ,  4-C ) :   1.5748 B(  3-C ,  5-H ) :   1.0018 B(  4-C , 20-C ) :   0.9806
B(  6-C ,  7-H ) :   0.9467 B(  6-C ,  8-H ) :   0.9314 B(  6-C ,  9-C ) :   1.0510
B(  9-C , 10-H ) :   0.9609 B(  9-C , 11-H ) :   0.9477 B(  9-C , 12-C ) :   1.0885
B( 12-C , 13-H ) :   0.9709 B( 12-C , 14-H ) :   0.9732 B( 12-C , 15-H ) :   0.9717
B( 16-S , 17-C ) :   1.1842 B( 16-S , 20-C ) :   1.1493 B( 17-C , 18-C ) :   1.5994
B( 17-C , 33-H ) :   0.9756 B( 18-C , 19-C ) :   1.2243 B( 18-C , 21-H ) :   1.0053
B( 19-C , 20-C ) :   1.6422 B( 19-C , 22-C ) :   1.0053 B( 22-C , 23-H ) :   0.9342
B( 22-C , 24-H ) :   0.9359 B( 22-C , 25-C ) :   1.0886 B( 25-C , 26-H ) :   0.9453
B( 25-C , 27-H ) :   0.9513 B( 25-C , 28-C ) :   1.0612 B( 28-C , 29-H ) :   0.9753
B( 28-C , 30-H ) :   0.9737 B( 28-C , 31-H ) :   0.9733

Dispersion correction           -0.015250984
FINAL SINGLE POINT ENERGY     -1339.876894457042

DIPOLE MOMENT
-------------
                                X             Y             Z
Electronic contribution:     12.58457     -15.57255     -15.22264
Nuclear contribution   :    -12.71530      15.91775      15.77389
                        -----------------------------------------
Total Dipole Moment    :     -0.13072       0.34520       0.55125
                        -----------------------------------------
Magnitude (a.u.)       :      0.66342
Magnitude (Debye)      :      1.68628

Rotational constants in cm-1:     0.019075     0.008347     0.007843
Rotational constants in MHz :   571.858778   250.247241   235.119820

                             ****ORCA TERMINATED NORMALLY****
TOTAL RUN TIME: 0 days 0 hours 0 minutes 22 seconds 377 msec
