                         Program Version 4.2.1 -  RELEASE  -
|  1> ! wB97X-D3 SP def2-SVP
|  2> %pal
|  3> nprocs 24
|  4> end
|  5>
|  6> * xyz 0 1
|  7> S 	 41.7732 	 -18.7627 	 -110.891
|  8> C 	 42.9315 	 -19.565 	 -111.901
|  9> C 	 43.0582 	 -20.9248 	 -111.498
| 10> C 	 42.2158 	 -21.2422 	 -110.428
| 11> C 	 41.5317 	 -20.1824 	 -109.964
| 12> H 	 42.0827 	 -22.2054 	 -110.015
| 13> C 	 43.6302 	 -21.9675 	 -112.459
| 14> H 	 44.5419 	 -22.26 	 -112.003
| 15> H 	 43.8831 	 -21.4312 	 -113.392
| 16> C 	 42.8582 	 -23.2929 	 -112.791
| 17> H 	 43.3092 	 -23.8609 	 -113.622
| 18> H 	 42.7458 	 -23.8514 	 -111.845
| 19> C 	 41.4316 	 -23.0859 	 -113.156
| 20> H 	 40.9159 	 -22.3562 	 -112.476
| 21> H 	 41.3516 	 -22.6486 	 -114.202
| 22> H 	 40.7637 	 -24.0047 	 -113.213
| 23> S 	 39.2694 	 -21.4725 	 -109.064
| 24> C 	 38.4104 	 -20.7715 	 -107.744
| 25> C 	 39.0668 	 -19.7534 	 -107.089
| 26> C 	 40.2974 	 -19.4256 	 -107.821
| 27> C 	 40.5962 	 -20.3233 	 -108.864
| 28> H 	 38.6338 	 -19.2487 	 -106.202
| 29> C 	 41.1076 	 -18.2356 	 -107.369
| 30> H 	 40.3593 	 -17.3814 	 -107.34
| 31> H 	 41.856 	 -18.1561 	 -108.163
| 32> C 	 41.734 	 -18.3469 	 -105.978
| 33> H 	 42.7492 	 -18.7038 	 -106.016
| 34> H 	 41.1417 	 -18.9655 	 -105.288
| 35> C 	 41.7901 	 -16.9429 	 -105.348
| 36> H 	 42.4491 	 -16.9171 	 -104.463
| 37> H 	 40.8048 	 -16.633 	 -104.957
| 38> H 	 42.1638 	 -16.1716 	 -105.991
| 39> H 	 43.4701 	 -19.1412 	 -112.775
| 40> H 	 37.3972 	 -21.1523 	 -107.467
| 41> *
| 42>
| 43>                          ****END OF INPUT****

CARTESIAN COORDINATES (ANGSTROEM)
---------------------------------
  S     41.773200  -18.762700  -110.891000
  C     42.931500  -19.565000  -111.901000
  C     43.058200  -20.924800  -111.498000
  C     42.215800  -21.242200  -110.428000
  C     41.531700  -20.182400  -109.964000
  H     42.082700  -22.205400  -110.015000
  C     43.630200  -21.967500  -112.459000
  H     44.541900  -22.260000  -112.003000
  H     43.883100  -21.431200  -113.392000
  C     42.858200  -23.292900  -112.791000
  H     43.309200  -23.860900  -113.622000
  H     42.745800  -23.851400  -111.845000
  C     41.431600  -23.085900  -113.156000
  H     40.915900  -22.356200  -112.476000
  H     41.351600  -22.648600  -114.202000
  H     40.763700  -24.004700  -113.213000
  S     39.269400  -21.472500  -109.064000
  C     38.410400  -20.771500  -107.744000
  C     39.066800  -19.753400  -107.089000
  C     40.297400  -19.425600  -107.821000
  C     40.596200  -20.323300  -108.864000
  H     38.633800  -19.248700  -106.202000
  C     41.107600  -18.235600  -107.369000
  H     40.359300  -17.381400  -107.340000
  H     41.856000  -18.156100  -108.163000
  C     41.734000  -18.346900  -105.978000
  H     42.749200  -18.703800  -106.016000
  H     41.141700  -18.965500  -105.288000
  C     41.790100  -16.942900  -105.348000
  H     42.449100  -16.917100  -104.463000
  H     40.804800  -16.633000  -104.957000
  H     42.163800  -16.171600  -105.991000
  H     43.470100  -19.141200  -112.775000
  H     37.397200  -21.152300  -107.467000

 Total Charge           Charge          ....    0
 Multiplicity           Mult            ....    1
 Number of Electrons    NEL             ....  134
 Basis Dimension        Dim             ....  322

ORBITAL ENERGIES
----------------

  NO   OCC          E(Eh)            E(eV)
   0   2.0000     -88.972609     -2421.0678
   1   2.0000     -88.965172     -2420.8654
   2   2.0000     -10.324622      -280.9473
   3   2.0000     -10.321210      -280.8544
   4   2.0000     -10.321056      -280.8502
   5   2.0000     -10.318449      -280.7793
   6   2.0000     -10.306983      -280.4673
   7   2.0000     -10.300720      -280.2968
   8   2.0000     -10.299364      -280.2600
   9   2.0000     -10.292978      -280.0862
  10   2.0000     -10.291084      -280.0346
  11   2.0000     -10.290797      -280.0268
  12   2.0000     -10.285679      -279.8875
  13   2.0000     -10.282851      -279.8106
  14   2.0000     -10.278726      -279.6984
  15   2.0000     -10.276120      -279.6274
  16   2.0000      -8.087468      -220.0712
  17   2.0000      -8.080251      -219.8748
  18   2.0000      -6.045876      -164.5167
  19   2.0000      -6.041830      -164.4066
  20   2.0000      -6.038829      -164.3249
  21   2.0000      -6.038444      -164.3144
  22   2.0000      -6.034706      -164.2127
  23   2.0000      -6.030926      -164.1098
  24   2.0000      -1.013283       -27.5728
  25   2.0000      -0.985239       -26.8097
  26   2.0000      -0.910224       -24.7684
  27   2.0000      -0.909005       -24.7353
  28   2.0000      -0.871508       -23.7149
  29   2.0000      -0.854838       -23.2613
  30   2.0000      -0.846698       -23.0398
  31   2.0000      -0.815182       -22.1822
  32   2.0000      -0.780189       -21.2300
  33   2.0000      -0.763583       -20.7782
  34   2.0000      -0.704725       -19.1765
  35   2.0000      -0.693474       -18.8704
  36   2.0000      -0.684828       -18.6351
  37   2.0000      -0.662582       -18.0298
  38   2.0000      -0.638892       -17.3851
  39   2.0000      -0.618609       -16.8332
  40   2.0000      -0.593084       -16.1386
  41   2.0000      -0.567767       -15.4497
  42   2.0000      -0.561014       -15.2660
  43   2.0000      -0.553819       -15.0702
  44   2.0000      -0.546242       -14.8640
  45   2.0000      -0.523789       -14.2530
  46   2.0000      -0.516757       -14.0617
  47   2.0000      -0.515025       -14.0146
  48   2.0000      -0.504143       -13.7184
  49   2.0000      -0.497115       -13.5272
  50   2.0000      -0.486539       -13.2394
  51   2.0000      -0.472800       -12.8655
  52   2.0000      -0.464601       -12.6424
  53   2.0000      -0.464025       -12.6268
  54   2.0000      -0.455261       -12.3883
  55   2.0000      -0.452571       -12.3151
  56   2.0000      -0.447228       -12.1697
  57   2.0000      -0.435736       -11.8570
  58   2.0000      -0.433102       -11.7853
  59   2.0000      -0.424843       -11.5606
  60   2.0000      -0.421043       -11.4572
  61   2.0000      -0.413467       -11.2510
  62   2.0000      -0.404572       -11.0090
  63   2.0000      -0.350041        -9.5251
  64   2.0000      -0.333052        -9.0628
  65   2.0000      -0.325197        -8.8491
  66   2.0000      -0.290414        -7.9026
  67   0.0000       0.035067         0.9542
  68   0.0000       0.066947         1.8217
  69   0.0000       0.102952         2.8015
  70   0.0000       0.112767         3.0685
  71   0.0000       0.128326         3.4919

MULLIKEN ATOMIC CHARGES
-----------------------
   0 S :    0.143478
   1 C :   -0.155129
   2 C :   -0.071675
   3 C :   -0.016364
   4 C :   -0.113631
   5 H :   -0.000330
   6 C :    0.081202
   7 H :    0.026251
   8 H :    0.019147
   9 C :   -0.062623
  10 H :    0.047515
  11 H :    0.033573
  12 C :   -0.113289
  13 H :    0.047359
  14 H :    0.025477
  15 H :    0.043654
  16 S :    0.102367
  17 C :   -0.109260
  18 C :   -0.029285
  19 C :   -0.100829
  20 C :   -0.139354
  21 H :    0.037133
  22 C :    0.062582
  23 H :    0.044637
  24 H :    0.022219
  25 C :   -0.040462
  26 H :    0.034827
  27 H :    0.034827
  28 C :   -0.082832
  29 H :    0.027303
  30 H :    0.029687
  31 H :    0.033441
  32 H :    0.067118
  33 H :    0.071264
Sum of atomic charges:    0.0000000

LOEWDIN ATOMIC CHARGES
----------------------
   0 S :    0.446179
   1 C :   -0.215754
   2 C :   -0.061690
   3 C :   -0.068715
   4 C :   -0.206420
   5 H :    0.025687
   6 C :   -0.028797
   7 H :    0.027508
   8 H :    0.029268
   9 C :   -0.046629
  10 H :    0.035086
  11 H :    0.027662
  12 C :   -0.084867
  13 H :    0.028469
  14 H :    0.023640
  15 H :    0.030275
  16 S :    0.406017
  17 C :   -0.189394
  18 C :   -0.079983
  19 C :   -0.049657
  20 C :   -0.204514
  21 H :    0.039817
  22 C :   -0.037656
  23 H :    0.041142
  24 H :    0.023061
  25 C :   -0.035350
  26 H :    0.026412
  27 H :    0.026328
  28 C :   -0.068548
  29 H :    0.025430
  30 H :    0.023271
  31 H :    0.020626
  32 H :    0.037033
  33 H :    0.035063

  Mayer bond orders larger than 0.100000
B(  0-S ,  1-C ) :   1.1576 B(  0-S ,  4-C ) :   1.1581 B(  1-C ,  2-C ) :   1.5649
B(  1-C , 32-H ) :   0.9629 B(  2-C ,  3-C ) :   1.2605 B(  2-C ,  6-C ) :   1.0169
B(  3-C ,  4-C ) :   1.5239 B(  3-C ,  5-H ) :   1.0151 B(  4-C , 20-C ) :   1.0508
B(  6-C ,  7-H ) :   0.9269 B(  6-C ,  8-H ) :   0.9507 B(  6-C ,  9-C ) :   1.0731
B(  9-C , 10-H ) :   0.9554 B(  9-C , 11-H ) :   0.9485 B(  9-C , 12-C ) :   1.0803
B( 12-C , 13-H ) :   0.9691 B( 12-C , 14-H ) :   0.9728 B( 12-C , 15-H ) :   0.9740
B( 16-S , 17-C ) :   1.1704 B( 16-S , 20-C ) :   1.1122 B( 17-C , 18-C ) :   1.6246
B( 17-C , 33-H ) :   0.9576 B( 18-C , 19-C ) :   1.2006 B( 18-C , 21-H ) :   0.9869
B( 19-C , 20-C ) :   1.6081 B( 19-C , 22-C ) :   1.0472 B( 22-C , 23-H ) :   0.9429
B( 22-C , 24-H ) :   0.9202 B( 22-C , 25-C ) :   1.0539 B( 25-C , 26-H ) :   0.9556
B( 25-C , 27-H ) :   0.9632 B( 25-C , 28-C ) :   1.0763 B( 28-C , 29-H ) :   0.9737
B( 28-C , 30-H ) :   0.9766 B( 28-C , 31-H ) :   0.9764

Dispersion correction           -0.014515180
FINAL SINGLE POINT ENERGY     -1339.872696907008

DIPOLE MOMENT
-------------
                                X             Y             Z
Electronic contribution:     -7.68000       0.65372      -2.87488
Nuclear contribution   :      7.69875      -0.63902       2.97561
                        -----------------------------------------
Total Dipole Moment    :      0.01876       0.01470       0.10073
                        -----------------------------------------
Magnitude (a.u.)       :      0.10351
Magnitude (Debye)      :      0.26311

Rotational constants in cm-1:     0.022568     0.008243     0.006680
Rotational constants in MHz :   676.575463   247.131927   200.254873

                             ****ORCA TERMINATED NORMALLY****
TOTAL RUN TIME: 0 days 0 hours 0 minutes 21 seconds 458 msec
