                         Program Version 4.2.1 -  RELEASE  -
|  1> ! wB97X-D3 SP def2-SVP
|  2> %pal
|  3> nprocs 24
|  4> end
|  5>
|  6> * xyz 0 1
|  7> S 	 -59.6455 	 14.5722 	 -98.1929
|  8> C 	 -58.4567 	 15.8147 	 -98.1475
|  9> C 	 -57.3022 	 15.3935 	 -98.7118
| 10> C 	 -57.2612 	 13.975 	 -98.9444
| 11> C 	 -58.5591 	 13.5097 	 -99.0382
| 12> H 	 -56.427 	 13.473 	 -99.3299
| 13> C 	 -56.1896 	 16.219 	 -99.272
| 14> H 	 -55.58 	 15.5691 	 -99.7918
| 15> H 	 -55.557 	 16.5179 	 -98.401
| 16> C 	 -56.5711 	 17.2725 	 -100.332
| 17> H 	 -57.3589 	 17.8922 	 -99.8974
| 18> H 	 -55.8193 	 17.945 	 -100.573
| 19> C 	 -57.1113 	 16.7099 	 -101.647
| 20> H 	 -58.0708 	 16.166 	 -101.557
| 21> H 	 -57.3327 	 17.5033 	 -102.39
| 22> H 	 -56.3613 	 16.0837 	 -102.108
| 23> S 	 -59.7209 	 11.1237 	 -98.1167
| 24> C 	 -59.7159 	 9.72193 	 -99.155
| 25> C 	 -59.2505 	 10.0238 	 -100.461
| 26> C 	 -58.7351 	 11.3613 	 -100.597
| 27> C 	 -58.9734 	 12.131 	 -99.4366
| 28> H 	 -59.1723 	 9.12151 	 -101.14
| 29> C 	 -57.7874 	 11.7096 	 -101.742
| 30> H 	 -57.3875 	 10.8463 	 -102.305
| 31> H 	 -56.8082 	 11.9135 	 -101.286
| 32> C 	 -58.0729 	 12.9686 	 -102.578
| 33> H 	 -58.4581 	 13.831 	 -102.084
| 34> H 	 -58.9192 	 12.6771 	 -103.207
| 35> C 	 -56.9525 	 13.6107 	 -103.457
| 36> H 	 -57.1714 	 14.6222 	 -103.8
| 37> H 	 -56.7908 	 13.0624 	 -104.368
| 38> H 	 -56.0231 	 13.7212 	 -102.895
| 39> H 	 -58.6205 	 16.8643 	 -97.8763
| 40> H 	 -60.2938 	 8.83277 	 -98.9683
| 41> *
| 42>
| 43>                          ****END OF INPUT****

CARTESIAN COORDINATES (ANGSTROEM)
---------------------------------
  S    -59.645500   14.572200  -98.192900
  C    -58.456700   15.814700  -98.147500
  C    -57.302200   15.393500  -98.711800
  C    -57.261200   13.975000  -98.944400
  C    -58.559100   13.509700  -99.038200
  H    -56.427000   13.473000  -99.329900
  C    -56.189600   16.219000  -99.272000
  H    -55.580000   15.569100  -99.791800
  H    -55.557000   16.517900  -98.401000
  C    -56.571100   17.272500  -100.332000
  H    -57.358900   17.892200  -99.897400
  H    -55.819300   17.945000  -100.573000
  C    -57.111300   16.709900  -101.647000
  H    -58.070800   16.166000  -101.557000
  H    -57.332700   17.503300  -102.390000
  H    -56.361300   16.083700  -102.108000
  S    -59.720900   11.123700  -98.116700
  C    -59.715900    9.721930  -99.155000
  C    -59.250500   10.023800  -100.461000
  C    -58.735100   11.361300  -100.597000
  C    -58.973400   12.131000  -99.436600
  H    -59.172300    9.121510  -101.140000
  C    -57.787400   11.709600  -101.742000
  H    -57.387500   10.846300  -102.305000
  H    -56.808200   11.913500  -101.286000
  C    -58.072900   12.968600  -102.578000
  H    -58.458100   13.831000  -102.084000
  H    -58.919200   12.677100  -103.207000
  C    -56.952500   13.610700  -103.457000
  H    -57.171400   14.622200  -103.800000
  H    -56.790800   13.062400  -104.368000
  H    -56.023100   13.721200  -102.895000
  H    -58.620500   16.864300  -97.876300
  H    -60.293800    8.832770  -98.968300

 Total Charge           Charge          ....    0
 Multiplicity           Mult            ....    1
 Number of Electrons    NEL             ....  134
 Basis Dimension        Dim             ....  322

ORBITAL ENERGIES
----------------

  NO   OCC          E(Eh)            E(eV)
   0   2.0000     -88.968253     -2420.9492
   1   2.0000     -88.964773     -2420.8545
   2   2.0000     -10.337004      -281.2842
   3   2.0000     -10.332199      -281.1534
   4   2.0000     -10.319199      -280.7997
   5   2.0000     -10.316667      -280.7308
   6   2.0000     -10.307095      -280.4703
   7   2.0000     -10.303618      -280.3757
   8   2.0000     -10.299765      -280.2709
   9   2.0000     -10.294295      -280.1220
  10   2.0000     -10.290620      -280.0220
  11   2.0000     -10.287538      -279.9382
  12   2.0000     -10.284970      -279.8683
  13   2.0000     -10.284164      -279.8463
  14   2.0000     -10.280702      -279.7521
  15   2.0000     -10.279078      -279.7079
  16   2.0000      -8.081820      -219.9175
  17   2.0000      -8.080291      -219.8759
  18   2.0000      -6.040373      -164.3669
  19   2.0000      -6.038838      -164.3251
  20   2.0000      -6.036426      -164.2595
  21   2.0000      -6.034713      -164.2129
  22   2.0000      -6.032672      -164.1574
  23   2.0000      -6.030943      -164.1103
  24   2.0000      -1.008391       -27.4397
  25   2.0000      -0.978741       -26.6329
  26   2.0000      -0.915052       -24.8998
  27   2.0000      -0.903055       -24.5734
  28   2.0000      -0.863045       -23.4847
  29   2.0000      -0.854562       -23.2538
  30   2.0000      -0.847588       -23.0640
  31   2.0000      -0.810609       -22.0578
  32   2.0000      -0.784722       -21.3534
  33   2.0000      -0.776283       -21.1237
  34   2.0000      -0.712703       -19.3936
  35   2.0000      -0.707580       -19.2542
  36   2.0000      -0.690531       -18.7903
  37   2.0000      -0.658482       -17.9182
  38   2.0000      -0.640594       -17.4314
  39   2.0000      -0.611913       -16.6510
  40   2.0000      -0.593911       -16.1611
  41   2.0000      -0.574985       -15.6461
  42   2.0000      -0.561010       -15.2659
  43   2.0000      -0.555588       -15.1183
  44   2.0000      -0.541225       -14.7275
  45   2.0000      -0.522277       -14.2119
  46   2.0000      -0.512498       -13.9458
  47   2.0000      -0.511539       -13.9197
  48   2.0000      -0.502812       -13.6822
  49   2.0000      -0.496673       -13.5152
  50   2.0000      -0.494303       -13.4507
  51   2.0000      -0.488662       -13.2972
  52   2.0000      -0.468015       -12.7353
  53   2.0000      -0.465144       -12.6572
  54   2.0000      -0.460409       -12.5284
  55   2.0000      -0.448477       -12.2037
  56   2.0000      -0.444678       -12.1003
  57   2.0000      -0.439361       -11.9556
  58   2.0000      -0.433293       -11.7905
  59   2.0000      -0.424737       -11.5577
  60   2.0000      -0.420694       -11.4477
  61   2.0000      -0.414060       -11.2671
  62   2.0000      -0.406733       -11.0678
  63   2.0000      -0.340033        -9.2528
  64   2.0000      -0.331025        -9.0077
  65   2.0000      -0.320262        -8.7148
  66   2.0000      -0.296261        -8.0617
  67   0.0000       0.026142         0.7114
  68   0.0000       0.061284         1.6676
  69   0.0000       0.105573         2.8728
  70   0.0000       0.111698         3.0395
  71   0.0000       0.121370         3.3026

MULLIKEN ATOMIC CHARGES
-----------------------
   0 S :    0.109641
   1 C :   -0.114840
   2 C :   -0.146738
   3 C :    0.071650
   4 C :   -0.154649
   5 H :    0.002265
   6 C :    0.118811
   7 H :   -0.021154
   8 H :    0.045192
   9 C :   -0.019735
  10 H :    0.016733
  11 H :    0.015781
  12 C :   -0.096212
  13 H :    0.058575
  14 H :    0.034828
  15 H :    0.023705
  16 S :    0.104838
  17 C :   -0.103383
  18 C :   -0.082776
  19 C :    0.011129
  20 C :   -0.152459
  21 H :    0.049284
  22 C :    0.059489
  23 H :    0.026035
  24 H :    0.011895
  25 C :   -0.062880
  26 H :    0.020621
  27 H :    0.025846
  28 C :   -0.059543
  29 H :    0.034153
  30 H :    0.028246
  31 H :    0.029282
  32 H :    0.052173
  33 H :    0.064196
Sum of atomic charges:    0.0000000

LOEWDIN ATOMIC CHARGES
----------------------
   0 S :    0.415745
   1 C :   -0.213386
   2 C :   -0.064848
   3 C :   -0.046936
   4 C :   -0.191785
   5 H :    0.020821
   6 C :   -0.030123
   7 H :    0.014367
   8 H :    0.041866
   9 C :   -0.030904
  10 H :    0.021612
  11 H :    0.017825
  12 C :   -0.067049
  13 H :    0.030121
  14 H :    0.032065
  15 H :    0.019721
  16 S :    0.388318
  17 C :   -0.194067
  18 C :   -0.080144
  19 C :   -0.050072
  20 C :   -0.177193
  21 H :    0.043832
  22 C :   -0.040357
  23 H :    0.037757
  24 H :    0.031773
  25 C :   -0.044039
  26 H :    0.022304
  27 H :    0.025566
  28 C :   -0.063351
  29 H :    0.027581
  30 H :    0.020664
  31 H :    0.021179
  32 H :    0.033200
  33 H :    0.027937

  Mayer bond orders larger than 0.100000
B(  0-S ,  1-C ) :   1.1223 B(  0-S ,  4-C ) :   1.1608 B(  1-C ,  2-C ) :   1.6433
B(  1-C , 32-H ) :   0.9642 B(  2-C ,  3-C ) :   1.2297 B(  2-C ,  6-C ) :   1.0188
B(  3-C ,  4-C ) :   1.5858 B(  3-C ,  5-H ) :   0.9865 B(  4-C , 20-C ) :   1.0157
B(  6-C ,  7-H ) :   0.9375 B(  6-C ,  8-H ) :   0.9280 B(  6-C ,  9-C ) :   1.0613
B(  9-C , 10-H ) :   0.9563 B(  9-C , 11-H ) :   0.9539 B(  9-C , 12-C ) :   1.0827
B( 12-C , 13-H ) :   0.9714 B( 12-C , 14-H ) :   0.9686 B( 12-C , 15-H ) :   0.9701
B( 16-S , 17-C ) :   1.1627 B( 16-S , 20-C ) :   1.1421 B( 17-C , 18-C ) :   1.6182
B( 17-C , 20-C ) :   0.1104 B( 17-C , 33-H ) :   0.9613 B( 18-C , 19-C ) :   1.2359
B( 18-C , 21-H ) :   0.9775 B( 19-C , 20-C ) :   1.6005 B( 19-C , 22-C ) :   1.0316
B( 22-C , 23-H ) :   0.9409 B( 22-C , 24-H ) :   0.9328 B( 22-C , 25-C ) :   1.0361
B( 25-C , 26-H ) :   0.9616 B( 25-C , 27-H ) :   0.9525 B( 25-C , 28-C ) :   1.0801
B( 28-C , 29-H ) :   0.9732 B( 28-C , 30-H ) :   0.9737 B( 28-C , 31-H ) :   0.9719

Dispersion correction           -0.016685474
FINAL SINGLE POINT ENERGY     -1339.843570343337

DIPOLE MOMENT
-------------
                                X             Y             Z
Electronic contribution:    -16.25134     -13.41341      23.79180
Nuclear contribution   :     16.80712      13.57521     -24.34732
                        -----------------------------------------
Total Dipole Moment    :      0.55578       0.16181      -0.55552
                        -----------------------------------------
Magnitude (a.u.)       :      0.80229
Magnitude (Debye)      :      2.03927

Rotational constants in cm-1:     0.019234     0.010623     0.007442
Rotational constants in MHz :   576.613807   318.477168   223.118704

                             ****ORCA TERMINATED NORMALLY****
TOTAL RUN TIME: 0 days 0 hours 0 minutes 23 seconds 471 msec
