                         Program Version 4.2.1 -  RELEASE  -
|  1> ! wB97X-D3 SP def2-SVP
|  2> %pal
|  3> nprocs 24
|  4> end
|  5>
|  6> * xyz 0 1
|  7> S 	 -104.036 	 17.567 	 -111.768
|  8> C 	 -104.053 	 17.486 	 -110.002
|  9> C 	 -104.538 	 18.6689 	 -109.42
| 10> C 	 -104.96 	 19.5689 	 -110.411
| 11> C 	 -104.677 	 19.176 	 -111.746
| 12> H 	 -105.494 	 20.487 	 -110.194
| 13> C 	 -104.665 	 18.9983 	 -107.962
| 14> H 	 -104.823 	 18.0346 	 -107.398
| 15> H 	 -105.586 	 19.4881 	 -107.648
| 16> C 	 -103.461 	 19.7069 	 -107.367
| 17> H 	 -103.651 	 19.8489 	 -106.29
| 18> H 	 -102.54 	 19.1982 	 -107.546
| 19> C 	 -103.397 	 21.1306 	 -107.789
| 20> H 	 -102.977 	 21.2203 	 -108.828
| 21> H 	 -104.333 	 21.7006 	 -107.579
| 22> H 	 -102.627 	 21.5963 	 -107.155
| 23> S 	 -105.906 	 19.0956 	 -114.128
| 24> C 	 -105.96 	 20.5219 	 -115.069
| 25> C 	 -105.281 	 21.5943 	 -114.492
| 26> C 	 -104.723 	 21.2397 	 -113.229
| 27> C 	 -104.916 	 19.8618 	 -112.961
| 28> H 	 -105.274 	 22.4712 	 -114.953
| 29> C 	 -103.822 	 22.2393 	 -112.477
| 30> H 	 -104.085 	 22.3724 	 -111.449
| 31> H 	 -103.808 	 23.2103 	 -112.984
| 32> C 	 -102.319 	 21.8577 	 -112.465
| 33> H 	 -101.957 	 22.0849 	 -113.482
| 34> H 	 -102.341 	 20.7381 	 -112.429
| 35> C 	 -101.477 	 22.5321 	 -111.341
| 36> H 	 -101.663 	 22.0124 	 -110.379
| 37> H 	 -101.61 	 23.6367 	 -111.384
| 38> H 	 -100.418 	 22.3143 	 -111.632
| 39> H 	 -103.755 	 16.5993 	 -109.443
| 40> H 	 -106.462 	 20.6804 	 -116.04
| 41> *
| 42>
| 43>                          ****END OF INPUT****

CARTESIAN COORDINATES (ANGSTROEM)
---------------------------------
  S    -104.036000   17.567000  -111.768000
  C    -104.053000   17.486000  -110.002000
  C    -104.538000   18.668900  -109.420000
  C    -104.960000   19.568900  -110.411000
  C    -104.677000   19.176000  -111.746000
  H    -105.494000   20.487000  -110.194000
  C    -104.665000   18.998300  -107.962000
  H    -104.823000   18.034600  -107.398000
  H    -105.586000   19.488100  -107.648000
  C    -103.461000   19.706900  -107.367000
  H    -103.651000   19.848900  -106.290000
  H    -102.540000   19.198200  -107.546000
  C    -103.397000   21.130600  -107.789000
  H    -102.977000   21.220300  -108.828000
  H    -104.333000   21.700600  -107.579000
  H    -102.627000   21.596300  -107.155000
  S    -105.906000   19.095600  -114.128000
  C    -105.960000   20.521900  -115.069000
  C    -105.281000   21.594300  -114.492000
  C    -104.723000   21.239700  -113.229000
  C    -104.916000   19.861800  -112.961000
  H    -105.274000   22.471200  -114.953000
  C    -103.822000   22.239300  -112.477000
  H    -104.085000   22.372400  -111.449000
  H    -103.808000   23.210300  -112.984000
  C    -102.319000   21.857700  -112.465000
  H    -101.957000   22.084900  -113.482000
  H    -102.341000   20.738100  -112.429000
  C    -101.477000   22.532100  -111.341000
  H    -101.663000   22.012400  -110.379000
  H    -101.610000   23.636700  -111.384000
  H    -100.418000   22.314300  -111.632000
  H    -103.755000   16.599300  -109.443000
  H    -106.462000   20.680400  -116.040000

 Total Charge           Charge          ....    0
 Multiplicity           Mult            ....    1
 Number of Electrons    NEL             ....  134
 Basis Dimension        Dim             ....  322

ORBITAL ENERGIES
----------------

  NO   OCC          E(Eh)            E(eV)
   0   2.0000     -88.970785     -2421.0181
   1   2.0000     -88.968689     -2420.9611
   2   2.0000     -10.326204      -280.9903
   3   2.0000     -10.320614      -280.8382
   4   2.0000     -10.317286      -280.7476
   5   2.0000     -10.315459      -280.6979
   6   2.0000     -10.306363      -280.4504
   7   2.0000     -10.301207      -280.3101
   8   2.0000     -10.292910      -280.0843
   9   2.0000     -10.292017      -280.0600
  10   2.0000     -10.287596      -279.9397
  11   2.0000     -10.287584      -279.9394
  12   2.0000     -10.284417      -279.8532
  13   2.0000     -10.284306      -279.8502
  14   2.0000     -10.282042      -279.7886
  15   2.0000     -10.279865      -279.7294
  16   2.0000      -8.086586      -220.0472
  17   2.0000      -8.083229      -219.9558
  18   2.0000      -6.044911      -164.4904
  19   2.0000      -6.041593      -164.4001
  20   2.0000      -6.040821      -164.3791
  21   2.0000      -6.037700      -164.2942
  22   2.0000      -6.037598      -164.2914
  23   2.0000      -6.034238      -164.2000
  24   2.0000      -1.011851       -27.5339
  25   2.0000      -0.984172       -26.7807
  26   2.0000      -0.920597       -25.0507
  27   2.0000      -0.902991       -24.5716
  28   2.0000      -0.874384       -23.7932
  29   2.0000      -0.849070       -23.1044
  30   2.0000      -0.848466       -23.0879
  31   2.0000      -0.808660       -22.0048
  32   2.0000      -0.784436       -21.3456
  33   2.0000      -0.769169       -20.9302
  34   2.0000      -0.703605       -19.1461
  35   2.0000      -0.694249       -18.8915
  36   2.0000      -0.681996       -18.5580
  37   2.0000      -0.669198       -18.2098
  38   2.0000      -0.638867       -17.3844
  39   2.0000      -0.619312       -16.8523
  40   2.0000      -0.597533       -16.2597
  41   2.0000      -0.582162       -15.8414
  42   2.0000      -0.566227       -15.4078
  43   2.0000      -0.547771       -14.9056
  44   2.0000      -0.544740       -14.8231
  45   2.0000      -0.520805       -14.1718
  46   2.0000      -0.513133       -13.9631
  47   2.0000      -0.507776       -13.8173
  48   2.0000      -0.499965       -13.6047
  49   2.0000      -0.497173       -13.5288
  50   2.0000      -0.488876       -13.3030
  51   2.0000      -0.485178       -13.2024
  52   2.0000      -0.477973       -13.0063
  53   2.0000      -0.465691       -12.6721
  54   2.0000      -0.461931       -12.5698
  55   2.0000      -0.450379       -12.2554
  56   2.0000      -0.442239       -12.0339
  57   2.0000      -0.433852       -11.8057
  58   2.0000      -0.427201       -11.6247
  59   2.0000      -0.423165       -11.5149
  60   2.0000      -0.420685       -11.4474
  61   2.0000      -0.410225       -11.1628
  62   2.0000      -0.406932       -11.0732
  63   2.0000      -0.344485        -9.3739
  64   2.0000      -0.334800        -9.1104
  65   2.0000      -0.331579        -9.0227
  66   2.0000      -0.283683        -7.7194
  67   0.0000       0.024616         0.6698
  68   0.0000       0.070119         1.9080
  69   0.0000       0.110771         3.0142
  70   0.0000       0.121508         3.3064
  71   0.0000       0.125313         3.4099

MULLIKEN ATOMIC CHARGES
-----------------------
   0 S :    0.113309
   1 C :   -0.129952
   2 C :   -0.069913
   3 C :    0.035127
   4 C :   -0.178148
   5 H :    0.013916
   6 C :    0.043836
   7 H :    0.020731
   8 H :    0.023369
   9 C :   -0.042247
  10 H :    0.028424
  11 H :    0.029033
  12 C :   -0.087952
  13 H :    0.050238
  14 H :    0.036679
  15 H :    0.027949
  16 S :    0.142065
  17 C :   -0.098058
  18 C :    0.006942
  19 C :   -0.020947
  20 C :   -0.156006
  21 H :   -0.041880
  22 C :    0.085658
  23 H :    0.014711
  24 H :    0.018650
  25 C :   -0.123046
  26 H :    0.022488
  27 H :    0.041117
  28 C :   -0.055237
  29 H :    0.049764
  30 H :    0.046722
  31 H :    0.040604
  32 H :    0.050238
  33 H :    0.061818
Sum of atomic charges:   -0.0000000

LOEWDIN ATOMIC CHARGES
----------------------
   0 S :    0.413779
   1 C :   -0.197305
   2 C :   -0.063320
   3 C :   -0.061304
   4 C :   -0.206822
   5 H :    0.030543
   6 C :   -0.039296
   7 H :    0.034472
   8 H :    0.031127
   9 C :   -0.039610
  10 H :    0.029822
  11 H :    0.023413
  12 C :   -0.073712
  13 H :    0.025383
  14 H :    0.028796
  15 H :    0.026645
  16 S :    0.454361
  17 C :   -0.203617
  18 C :   -0.053815
  19 C :   -0.042958
  20 C :   -0.229606
  21 H :    0.006916
  22 C :   -0.032691
  23 H :    0.021379
  24 H :    0.029124
  25 C :   -0.045870
  26 H :    0.019979
  27 H :    0.026935
  28 C :   -0.071518
  29 H :    0.030113
  30 H :    0.030425
  31 H :    0.034724
  32 H :    0.027596
  33 H :    0.035909

  Mayer bond orders larger than 0.100000
B(  0-S ,  1-C ) :   1.1485 B(  0-S ,  4-C ) :   1.1661 B(  1-C ,  2-C ) :   1.5739
B(  1-C ,  4-C ) :   0.1128 B(  1-C , 32-H ) :   0.9681 B(  2-C ,  3-C ) :   1.2862
B(  2-C ,  6-C ) :   1.0191 B(  3-C ,  4-C ) :   1.5190 B(  3-C ,  5-H ) :   0.9938
B(  4-C , 20-C ) :   1.0554 B(  6-C ,  7-H ) :   0.9340 B(  6-C ,  8-H ) :   0.9448
B(  6-C ,  9-C ) :   1.0833 B(  9-C , 10-H ) :   0.9511 B(  9-C , 11-H ) :   0.9517
B(  9-C , 12-C ) :   1.0943 B( 12-C , 13-H ) :   0.9621 B( 12-C , 14-H ) :   0.9670
B( 12-C , 15-H ) :   0.9715 B( 16-S , 17-C ) :   1.1778 B( 16-S , 20-C ) :   1.1689
B( 17-C , 18-C ) :   1.5767 B( 17-C , 20-C ) :   0.1026 B( 17-C , 33-H ) :   0.9617
B( 18-C , 19-C ) :   1.2721 B( 18-C , 21-H ) :   1.0130 B( 19-C , 20-C ) :   1.5296
B( 19-C , 22-C ) :   1.0526 B( 22-C , 23-H ) :   0.9338 B( 22-C , 24-H ) :   0.9400
B( 22-C , 25-C ) :   1.0446 B( 25-C , 26-H ) :   0.9597 B( 25-C , 27-H ) :   0.9631
B( 25-C , 28-C ) :   1.0699 B( 28-C , 29-H ) :   0.9701 B( 28-C , 30-H ) :   0.9728
B( 28-C , 31-H ) :   0.9694

Dispersion correction           -0.015739373
FINAL SINGLE POINT ENERGY     -1339.873639643727

DIPOLE MOMENT
-------------
                                X             Y             Z
Electronic contribution:    -13.47723     -18.53208     -20.08454
Nuclear contribution   :     13.53806      18.98989      20.44904
                        -----------------------------------------
Total Dipole Moment    :      0.06082       0.45781       0.36450
                        -----------------------------------------
Magnitude (a.u.)       :      0.58835
Magnitude (Debye)      :      1.49546

Rotational constants in cm-1:     0.018480     0.010379     0.007685
Rotational constants in MHz :   554.027270   311.166178   230.389797

                             ****ORCA TERMINATED NORMALLY****
TOTAL RUN TIME: 0 days 0 hours 0 minutes 23 seconds 119 msec
