                         Program Version 4.2.1 -  RELEASE  -
|  1> ! wB97X-D3 SP def2-SVP
|  2> %pal
|  3> nprocs 24
|  4> end
|  5>
|  6> * xyz 0 1
|  7> S 	 -133.945 	 59.3172 	 -59.5841
|  8> C 	 -134.77 	 58.0543 	 -58.6311
|  9> C 	 -133.917 	 57.1556 	 -58.023
| 10> C 	 -132.584 	 57.4546 	 -58.4001
| 11> C 	 -132.46 	 58.4557 	 -59.3497
| 12> H 	 -131.659 	 57.0369 	 -58.0687
| 13> C 	 -134.36 	 56.0792 	 -57.0304
| 14> H 	 -133.508 	 55.4313 	 -56.9507
| 15> H 	 -135 	 55.4375 	 -57.5712
| 16> C 	 -135.044 	 56.5798 	 -55.7543
| 17> H 	 -134.484 	 57.1488 	 -55.0177
| 18> H 	 -135.892 	 57.1011 	 -56.0372
| 19> C 	 -135.403 	 55.3115 	 -54.9485
| 20> H 	 -135.883 	 55.6514 	 -54.0336
| 21> H 	 -136.279 	 54.8831 	 -55.4852
| 22> H 	 -134.508 	 54.7983 	 -54.7508
| 23> S 	 -131.343 	 58.2675 	 -61.8514
| 24> C 	 -129.975 	 59.3367 	 -62.0738
| 25> C 	 -129.338 	 59.7434 	 -60.9165
| 26> C 	 -130.16 	 59.4421 	 -59.8026
| 27> C 	 -131.314 	 58.7628 	 -60.1617
| 28> H 	 -128.372 	 60.2606 	 -60.955
| 29> C 	 -129.683 	 59.8348 	 -58.3787
| 30> H 	 -129.306 	 58.8813 	 -57.8668
| 31> H 	 -130.588 	 60.1055 	 -57.8463
| 32> C 	 -128.613 	 61.0062 	 -58.3386
| 33> H 	 -129.143 	 61.9279 	 -58.4996
| 34> H 	 -127.837 	 60.8063 	 -59.0917
| 35> C 	 -127.837 	 61.1142 	 -56.9859
| 36> H 	 -127.039 	 61.8186 	 -57.0242
| 37> H 	 -127.468 	 60.0676 	 -56.7447
| 38> H 	 -128.44 	 61.4286 	 -56.1569
| 39> H 	 -135.879 	 58.0883 	 -58.4948
| 40> H 	 -129.778 	 59.6761 	 -63.0956
| 41> *
| 42>
| 43>                          ****END OF INPUT****

CARTESIAN COORDINATES (ANGSTROEM)
---------------------------------
  S    -133.945000   59.317200  -59.584100
  C    -134.770000   58.054300  -58.631100
  C    -133.917000   57.155600  -58.023000
  C    -132.584000   57.454600  -58.400100
  C    -132.460000   58.455700  -59.349700
  H    -131.659000   57.036900  -58.068700
  C    -134.360000   56.079200  -57.030400
  H    -133.508000   55.431300  -56.950700
  H    -135.000000   55.437500  -57.571200
  C    -135.044000   56.579800  -55.754300
  H    -134.484000   57.148800  -55.017700
  H    -135.892000   57.101100  -56.037200
  C    -135.403000   55.311500  -54.948500
  H    -135.883000   55.651400  -54.033600
  H    -136.279000   54.883100  -55.485200
  H    -134.508000   54.798300  -54.750800
  S    -131.343000   58.267500  -61.851400
  C    -129.975000   59.336700  -62.073800
  C    -129.338000   59.743400  -60.916500
  C    -130.160000   59.442100  -59.802600
  C    -131.314000   58.762800  -60.161700
  H    -128.372000   60.260600  -60.955000
  C    -129.683000   59.834800  -58.378700
  H    -129.306000   58.881300  -57.866800
  H    -130.588000   60.105500  -57.846300
  C    -128.613000   61.006200  -58.338600
  H    -129.143000   61.927900  -58.499600
  H    -127.837000   60.806300  -59.091700
  C    -127.837000   61.114200  -56.985900
  H    -127.039000   61.818600  -57.024200
  H    -127.468000   60.067600  -56.744700
  H    -128.440000   61.428600  -56.156900
  H    -135.879000   58.088300  -58.494800
  H    -129.778000   59.676100  -63.095600

 Total Charge           Charge          ....    0
 Multiplicity           Mult            ....    1
 Number of Electrons    NEL             ....  134
 Basis Dimension        Dim             ....  322

ORBITAL ENERGIES
----------------

  NO   OCC          E(Eh)            E(eV)
   0   2.0000     -88.963267     -2420.8136
   1   2.0000     -88.961972     -2420.7783
   2   2.0000     -10.317042      -280.7410
   3   2.0000     -10.316396      -280.7234
   4   2.0000     -10.314876      -280.6821
   5   2.0000     -10.313931      -280.6563
   6   2.0000     -10.302016      -280.3321
   7   2.0000     -10.300644      -280.2948
   8   2.0000     -10.298187      -280.2279
   9   2.0000     -10.293530      -280.1012
  10   2.0000     -10.291442      -280.0444
  11   2.0000     -10.288642      -279.9682
  12   2.0000     -10.288042      -279.9519
  13   2.0000     -10.282143      -279.7913
  14   2.0000     -10.280491      -279.7464
  15   2.0000     -10.276364      -279.6341
  16   2.0000      -8.078288      -219.8214
  17   2.0000      -8.076684      -219.7777
  18   2.0000      -6.036538      -164.2625
  19   2.0000      -6.035003      -164.2208
  20   2.0000      -6.033122      -164.1696
  21   2.0000      -6.031374      -164.1220
  22   2.0000      -6.028941      -164.0558
  23   2.0000      -6.027474      -164.0159
  24   2.0000      -1.003924       -27.3182
  25   2.0000      -0.980012       -26.6675
  26   2.0000      -0.915970       -24.9248
  27   2.0000      -0.898141       -24.4397
  28   2.0000      -0.867445       -23.6044
  29   2.0000      -0.848545       -23.0901
  30   2.0000      -0.845939       -23.0192
  31   2.0000      -0.808230       -21.9931
  32   2.0000      -0.782822       -21.3017
  33   2.0000      -0.765705       -20.8359
  34   2.0000      -0.707988       -19.2653
  35   2.0000      -0.703222       -19.1356
  36   2.0000      -0.689395       -18.7594
  37   2.0000      -0.651193       -17.7199
  38   2.0000      -0.641982       -17.4692
  39   2.0000      -0.611322       -16.6349
  40   2.0000      -0.594316       -16.1722
  41   2.0000      -0.580848       -15.8057
  42   2.0000      -0.565917       -15.3994
  43   2.0000      -0.558185       -15.1890
  44   2.0000      -0.532527       -14.4908
  45   2.0000      -0.527336       -14.3495
  46   2.0000      -0.515175       -14.0186
  47   2.0000      -0.508228       -13.8296
  48   2.0000      -0.501443       -13.6450
  49   2.0000      -0.488581       -13.2950
  50   2.0000      -0.483629       -13.1602
  51   2.0000      -0.476439       -12.9646
  52   2.0000      -0.469047       -12.7634
  53   2.0000      -0.460836       -12.5400
  54   2.0000      -0.456547       -12.4233
  55   2.0000      -0.447901       -12.1880
  56   2.0000      -0.446520       -12.1504
  57   2.0000      -0.438326       -11.9274
  58   2.0000      -0.430507       -11.7147
  59   2.0000      -0.428502       -11.6601
  60   2.0000      -0.423910       -11.5352
  61   2.0000      -0.419228       -11.4078
  62   2.0000      -0.413212       -11.2441
  63   2.0000      -0.337746        -9.1905
  64   2.0000      -0.325917        -8.8687
  65   2.0000      -0.313887        -8.5413
  66   2.0000      -0.296749        -8.0749
  67   0.0000       0.032565         0.8862
  68   0.0000       0.060581         1.6485
  69   0.0000       0.105407         2.8683
  70   0.0000       0.114501         3.1157
  71   0.0000       0.136690         3.7195

MULLIKEN ATOMIC CHARGES
-----------------------
   0 S :    0.120004
   1 C :   -0.165436
   2 C :   -0.060038
   3 C :    0.051477
   4 C :   -0.210566
   5 H :   -0.005357
   6 C :    0.103115
   7 H :    0.002329
   8 H :    0.013731
   9 C :   -0.039858
  10 H :    0.034256
  11 H :    0.010084
  12 C :   -0.040708
  13 H :    0.022146
  14 H :    0.034629
  15 H :    0.039573
  16 S :    0.124992
  17 C :   -0.115855
  18 C :   -0.040183
  19 C :   -0.015668
  20 C :   -0.191825
  21 H :    0.033396
  22 C :    0.054690
  23 H :    0.048865
  24 H :    0.035188
  25 C :   -0.095698
  26 H :    0.041244
  27 H :    0.043875
  28 C :   -0.045561
  29 H :    0.030959
  30 H :    0.033323
  31 H :    0.027251
  32 H :    0.059443
  33 H :    0.062180
Sum of atomic charges:    0.0000000

LOEWDIN ATOMIC CHARGES
----------------------
   0 S :    0.399282
   1 C :   -0.190875
   2 C :   -0.064024
   3 C :   -0.056574
   4 C :   -0.207906
   5 H :    0.026402
   6 C :   -0.027600
   7 H :    0.027145
   8 H :    0.030773
   9 C :   -0.025921
  10 H :    0.026287
  11 H :    0.012947
  12 C :   -0.058405
  13 H :    0.023017
  14 H :    0.030942
  15 H :    0.020830
  16 S :    0.401061
  17 C :   -0.174509
  18 C :   -0.079188
  19 C :   -0.050436
  20 C :   -0.213427
  21 H :    0.037697
  22 C :   -0.033038
  23 H :    0.038636
  24 H :    0.030613
  25 C :   -0.036306
  26 H :    0.025537
  27 H :    0.024622
  28 C :   -0.063969
  29 H :    0.021347
  30 H :    0.030608
  31 H :    0.020529
  32 H :    0.029094
  33 H :    0.024809

  Mayer bond orders larger than 0.100000
B(  0-S ,  1-C ) :   1.1414 B(  0-S ,  4-C ) :   1.1556 B(  1-C ,  2-C ) :   1.6064
B(  1-C , 32-H ) :   0.9649 B(  2-C ,  3-C ) :   1.2396 B(  2-C ,  6-C ) :   1.0024
B(  3-C ,  4-C ) :   1.5827 B(  3-C ,  5-H ) :   0.9987 B(  4-C , 20-C ) :   1.0406
B(  6-C ,  7-H ) :   0.9365 B(  6-C ,  8-H ) :   0.9312 B(  6-C ,  9-C ) :   1.0608
B(  9-C , 10-H ) :   0.9627 B(  9-C , 11-H ) :   0.9535 B(  9-C , 12-C ) :   1.0823
B( 12-C , 13-H ) :   0.9750 B( 12-C , 14-H ) :   0.9763 B( 12-C , 15-H ) :   0.9777
B( 16-S , 17-C ) :   1.1671 B( 16-S , 20-C ) :   1.1341 B( 17-C , 18-C ) :   1.6046
B( 17-C , 33-H ) :   0.9636 B( 18-C , 19-C ) :   1.2325 B( 18-C , 21-H ) :   0.9856
B( 19-C , 20-C ) :   1.6214 B( 19-C , 22-C ) :   1.0223 B( 22-C , 23-H ) :   0.9395
B( 22-C , 24-H ) :   0.9298 B( 22-C , 25-C ) :   1.0604 B( 25-C , 26-H ) :   0.9587
B( 25-C , 27-H ) :   0.9526 B( 25-C , 28-C ) :   1.0826 B( 28-C , 29-H ) :   0.9760
B( 28-C , 30-H ) :   0.9762 B( 28-C , 31-H ) :   0.9762

Dispersion correction           -0.013335272
FINAL SINGLE POINT ENERGY     -1339.848113285430

DIPOLE MOMENT
-------------
                                X             Y             Z
Electronic contribution:     -4.90049       2.86049     -25.78857
Nuclear contribution   :      5.05783      -2.86988      26.32698
                        -----------------------------------------
Total Dipole Moment    :      0.15734      -0.00939       0.53841
                        -----------------------------------------
Magnitude (a.u.)       :      0.56100
Magnitude (Debye)      :      1.42596

Rotational constants in cm-1:     0.018901     0.007304     0.005866
Rotational constants in MHz :   566.623869   218.982431   175.864142

                             ****ORCA TERMINATED NORMALLY****
TOTAL RUN TIME: 0 days 0 hours 0 minutes 20 seconds 550 msec
