                         Program Version 4.2.1 -  RELEASE  -
|  1> ! wB97X-D3 SP def2-SVP
|  2> %pal
|  3> nprocs 24
|  4> end
|  5>
|  6> * xyz 0 1
|  7> S 	 -110.217 	 56.9834 	 -96.1094
|  8> C 	 -108.549 	 57.5729 	 -95.9556
|  9> C 	 -107.642 	 56.5514 	 -96.1048
| 10> C 	 -108.296 	 55.266 	 -96.1833
| 11> C 	 -109.684 	 55.3211 	 -96.0561
| 12> H 	 -107.865 	 54.2856 	 -96.1761
| 13> C 	 -106.158 	 56.8571 	 -96.2684
| 14> H 	 -105.87 	 57.2134 	 -95.2915
| 15> H 	 -105.993 	 57.774 	 -96.9178
| 16> C 	 -105.226 	 55.7005 	 -96.7086
| 17> H 	 -104.19 	 55.9813 	 -96.5552
| 18> H 	 -105.452 	 54.854 	 -96.0395
| 19> C 	 -105.383 	 55.1703 	 -98.1611
| 20> H 	 -105.148 	 55.8431 	 -98.9681
| 21> H 	 -104.767 	 54.2799 	 -98.3461
| 22> H 	 -106.406 	 54.8441 	 -98.2357
| 23> S 	 -111.99 	 54.53 	 -97.1784
| 24> C 	 -112.455 	 52.9027 	 -97.2617
| 25> C 	 -111.674 	 52.14 	 -96.4423
| 26> C 	 -110.6 	 52.846 	 -95.8058
| 27> C 	 -110.601 	 54.1815 	 -96.257
| 28> H 	 -111.846 	 51.0364 	 -96.4037
| 29> C 	 -109.506 	 52.2411 	 -94.9353
| 30> H 	 -110.016 	 51.7713 	 -94.1007
| 31> H 	 -109.012 	 53.1835 	 -94.5094
| 32> C 	 -108.41 	 51.3251 	 -95.5723
| 33> H 	 -107.89 	 51.8146 	 -96.4326
| 34> H 	 -108.85 	 50.3841 	 -95.9597
| 35> C 	 -107.351 	 50.8873 	 -94.6155
| 36> H 	 -106.95 	 51.783 	 -94.1799
| 37> H 	 -106.641 	 50.2587 	 -95.088
| 38> H 	 -107.669 	 50.2386 	 -93.795
| 39> H 	 -108.239 	 58.5372 	 -96.0545
| 40> H 	 -113.374 	 52.6285 	 -97.7802
| 41> *
| 42>
| 43>                          ****END OF INPUT****

CARTESIAN COORDINATES (ANGSTROEM)
---------------------------------
  S    -110.217000   56.983400  -96.109400
  C    -108.549000   57.572900  -95.955600
  C    -107.642000   56.551400  -96.104800
  C    -108.296000   55.266000  -96.183300
  C    -109.684000   55.321100  -96.056100
  H    -107.865000   54.285600  -96.176100
  C    -106.158000   56.857100  -96.268400
  H    -105.870000   57.213400  -95.291500
  H    -105.993000   57.774000  -96.917800
  C    -105.226000   55.700500  -96.708600
  H    -104.190000   55.981300  -96.555200
  H    -105.452000   54.854000  -96.039500
  C    -105.383000   55.170300  -98.161100
  H    -105.148000   55.843100  -98.968100
  H    -104.767000   54.279900  -98.346100
  H    -106.406000   54.844100  -98.235700
  S    -111.990000   54.530000  -97.178400
  C    -112.455000   52.902700  -97.261700
  C    -111.674000   52.140000  -96.442300
  C    -110.600000   52.846000  -95.805800
  C    -110.601000   54.181500  -96.257000
  H    -111.846000   51.036400  -96.403700
  C    -109.506000   52.241100  -94.935300
  H    -110.016000   51.771300  -94.100700
  H    -109.012000   53.183500  -94.509400
  C    -108.410000   51.325100  -95.572300
  H    -107.890000   51.814600  -96.432600
  H    -108.850000   50.384100  -95.959700
  C    -107.351000   50.887300  -94.615500
  H    -106.950000   51.783000  -94.179900
  H    -106.641000   50.258700  -95.088000
  H    -107.669000   50.238600  -93.795000
  H    -108.239000   58.537200  -96.054500
  H    -113.374000   52.628500  -97.780200

 Total Charge           Charge          ....    0
 Multiplicity           Mult            ....    1
 Number of Electrons    NEL             ....  134
 Basis Dimension        Dim             ....  322

ORBITAL ENERGIES
----------------

  NO   OCC          E(Eh)            E(eV)
   0   2.0000     -88.967526     -2420.9295
   1   2.0000     -88.962754     -2420.7996
   2   2.0000     -10.333433      -281.1870
   3   2.0000     -10.326835      -281.0075
   4   2.0000     -10.311698      -280.5956
   5   2.0000     -10.306824      -280.4629
   6   2.0000     -10.306099      -280.4432
   7   2.0000     -10.304898      -280.4105
   8   2.0000     -10.300466      -280.2899
   9   2.0000     -10.299457      -280.2625
  10   2.0000     -10.296611      -280.1850
  11   2.0000     -10.295936      -280.1667
  12   2.0000     -10.294135      -280.1177
  13   2.0000     -10.292775      -280.0807
  14   2.0000     -10.275681      -279.6155
  15   2.0000     -10.272645      -279.5329
  16   2.0000      -8.081752      -219.9157
  17   2.0000      -8.079818      -219.8630
  18   2.0000      -6.040413      -164.3680
  19   2.0000      -6.038043      -164.3035
  20   2.0000      -6.036426      -164.2595
  21   2.0000      -6.033967      -164.1926
  22   2.0000      -6.032287      -164.1469
  23   2.0000      -6.030763      -164.1054
  24   2.0000      -1.014076       -27.5944
  25   2.0000      -0.986939       -26.8560
  26   2.0000      -0.909956       -24.7612
  27   2.0000      -0.908521       -24.7221
  28   2.0000      -0.871066       -23.7029
  29   2.0000      -0.859979       -23.4012
  30   2.0000      -0.840408       -22.8687
  31   2.0000      -0.820224       -22.3194
  32   2.0000      -0.785142       -21.3648
  33   2.0000      -0.774869       -21.0852
  34   2.0000      -0.709206       -19.2985
  35   2.0000      -0.698342       -19.0028
  36   2.0000      -0.693777       -18.8786
  37   2.0000      -0.658866       -17.9287
  38   2.0000      -0.639836       -17.4108
  39   2.0000      -0.621695       -16.9172
  40   2.0000      -0.597867       -16.2688
  41   2.0000      -0.568125       -15.4595
  42   2.0000      -0.564105       -15.3501
  43   2.0000      -0.549004       -14.9392
  44   2.0000      -0.537313       -14.6210
  45   2.0000      -0.535191       -14.5633
  46   2.0000      -0.521097       -14.1798
  47   2.0000      -0.510992       -13.9048
  48   2.0000      -0.507915       -13.8211
  49   2.0000      -0.501666       -13.6510
  50   2.0000      -0.493506       -13.4290
  51   2.0000      -0.481495       -13.1022
  52   2.0000      -0.470154       -12.7936
  53   2.0000      -0.467773       -12.7287
  54   2.0000      -0.461171       -12.5491
  55   2.0000      -0.450657       -12.2630
  56   2.0000      -0.448179       -12.1956
  57   2.0000      -0.437856       -11.9147
  58   2.0000      -0.431634       -11.7454
  59   2.0000      -0.424951       -11.5635
  60   2.0000      -0.422072       -11.4852
  61   2.0000      -0.415872       -11.3164
  62   2.0000      -0.415489       -11.3060
  63   2.0000      -0.354605        -9.6493
  64   2.0000      -0.333410        -9.0725
  65   2.0000      -0.326500        -8.8845
  66   2.0000      -0.288080        -7.8390
  67   0.0000       0.024466         0.6657
  68   0.0000       0.077285         2.1030
  69   0.0000       0.105175         2.8620
  70   0.0000       0.120617         3.2822
  71   0.0000       0.124575         3.3899

MULLIKEN ATOMIC CHARGES
-----------------------
   0 S :    0.098082
   1 C :   -0.070417
   2 C :   -0.082109
   3 C :    0.011973
   4 C :   -0.120678
   5 H :   -0.005337
   6 C :    0.046630
   7 H :    0.036720
   8 H :    0.040376
   9 C :   -0.075977
  10 H :    0.030580
  11 H :    0.030295
  12 C :   -0.044878
  13 H :    0.033178
  14 H :    0.032663
  15 H :    0.026374
  16 S :    0.106734
  17 C :   -0.097224
  18 C :   -0.047378
  19 C :   -0.033771
  20 C :   -0.163447
  21 H :    0.032360
  22 C :    0.028757
  23 H :    0.032304
  24 H :    0.035627
  25 C :   -0.073619
  26 H :    0.041371
  27 H :    0.026989
  28 C :   -0.019053
  29 H :    0.021782
  30 H :    0.026538
  31 H :    0.024269
  32 H :    0.006633
  33 H :    0.063650
Sum of atomic charges:   -0.0000000

LOEWDIN ATOMIC CHARGES
----------------------
   0 S :    0.394057
   1 C :   -0.178228
   2 C :   -0.054189
   3 C :   -0.070659
   4 C :   -0.188846
   5 H :    0.023943
   6 C :   -0.036722
   7 H :    0.035559
   8 H :    0.037307
   9 C :   -0.041044
  10 H :    0.024456
  11 H :    0.026449
  12 C :   -0.066426
  13 H :    0.022544
  14 H :    0.029050
  15 H :    0.023116
  16 S :    0.445508
  17 C :   -0.206350
  18 C :   -0.077820
  19 C :   -0.063470
  20 C :   -0.206842
  21 H :    0.037988
  22 C :   -0.039501
  23 H :    0.033085
  24 H :    0.038627
  25 C :   -0.043623
  26 H :    0.028473
  27 H :    0.025373
  28 C :   -0.063251
  29 H :    0.021415
  30 H :    0.024133
  31 H :    0.025783
  32 H :    0.008195
  33 H :    0.031913

  Mayer bond orders larger than 0.100000
B(  0-S ,  1-C ) :   1.1212 B(  0-S ,  4-C ) :   1.1536 B(  1-C ,  2-C ) :   1.6310
B(  1-C , 32-H ) :   0.9786 B(  2-C ,  3-C ) :   1.2377 B(  2-C ,  6-C ) :   0.9952
B(  3-C ,  4-C ) :   1.5579 B(  3-C ,  5-H ) :   0.9905 B(  4-C , 20-C ) :   1.0455
B(  6-C ,  7-H ) :   0.9348 B(  6-C ,  8-H ) :   0.9464 B(  6-C ,  9-C ) :   1.0830
B(  9-C , 10-H ) :   0.9554 B(  9-C , 11-H ) :   0.9503 B(  9-C , 12-C ) :   1.0779
B( 12-C , 13-H ) :   0.9760 B( 12-C , 14-H ) :   0.9738 B( 12-C , 15-H ) :   0.9752
B( 16-S , 17-C ) :   1.1740 B( 16-S , 20-C ) :   1.1770 B( 17-C , 18-C ) :   1.5836
B( 17-C , 33-H ) :   0.9705 B( 18-C , 19-C ) :   1.2567 B( 18-C , 21-H ) :   0.9884
B( 19-C , 20-C ) :   1.5506 B( 19-C , 22-C ) :   1.0474 B( 22-C , 23-H ) :   0.9298
B( 22-C , 24-H ) :   0.9317 B( 22-C , 25-C ) :   1.0564 B( 25-C , 26-H ) :   0.9518
B( 25-C , 27-H ) :   0.9501 B( 25-C , 28-C ) :   1.0935 B( 28-C , 29-H ) :   0.9727
B( 28-C , 30-H ) :   0.9703 B( 28-C , 31-H ) :   0.9714

Dispersion correction           -0.014405062
FINAL SINGLE POINT ENERGY     -1339.879197734013

DIPOLE MOMENT
-------------
                                X             Y             Z
Electronic contribution:    -27.51029      14.24931      -2.26824
Nuclear contribution   :     28.05834     -14.66681       2.22440
                        -----------------------------------------
Total Dipole Moment    :      0.54805      -0.41750      -0.04384
                        -----------------------------------------
Magnitude (a.u.)       :      0.69036
Magnitude (Debye)      :      1.75475

Rotational constants in cm-1:     0.015580     0.010615     0.007180
Rotational constants in MHz :   467.077029   318.236007   215.251718

                             ****ORCA TERMINATED NORMALLY****
TOTAL RUN TIME: 0 days 0 hours 0 minutes 22 seconds 239 msec
