                         Program Version 4.2.1 -  RELEASE  -
|  1> ! wB97X-D3 SP def2-SVP
|  2> %pal
|  3> nprocs 24
|  4> end
|  5>
|  6> * xyz 0 1
|  7> S 	 -63.292 	 12.169 	 -86.0997
|  8> C 	 -63.1531 	 13.4144 	 -87.3214
|  9> C 	 -61.9944 	 14.1667 	 -87.1189
| 10> C 	 -61.1477 	 13.5508 	 -86.1268
| 11> C 	 -61.8074 	 12.611 	 -85.3915
| 12> H 	 -60.2411 	 13.9675 	 -85.8764
| 13> C 	 -61.5556 	 15.2412 	 -88.1309
| 14> H 	 -62.2747 	 15.2751 	 -88.8719
| 15> H 	 -60.6185 	 14.9302 	 -88.5547
| 16> C 	 -61.3443 	 16.6383 	 -87.5888
| 17> H 	 -60.517 	 16.6035 	 -86.8145
| 18> H 	 -60.9481 	 17.347 	 -88.2375
| 19> C 	 -62.6727 	 17.1595 	 -87.0445
| 20> H 	 -63.5451 	 17.0695 	 -87.7034
| 21> H 	 -62.9467 	 16.6505 	 -86.1609
| 22> H 	 -62.5852 	 18.2057 	 -86.9056
| 23> S 	 -62.6989 	 12.1461 	 -82.8399
| 24> C 	 -61.4628 	 11.6969 	 -81.6445
| 25> C 	 -60.2389 	 11.437 	 -82.2559
| 26> C 	 -60.1527 	 11.7688 	 -83.6343
| 27> C 	 -61.4204 	 12.0734 	 -84.0856
| 28> H 	 -59.3178 	 11.1491 	 -81.6837
| 29> C 	 -58.8533 	 11.6603 	 -84.3862
| 30> H 	 -58.0161 	 11.5029 	 -83.6433
| 31> H 	 -58.6694 	 12.6467 	 -84.8797
| 32> C 	 -58.8626 	 10.5827 	 -85.3669
| 33> H 	 -57.8964 	 10.6174 	 -85.9711
| 34> H 	 -59.6877 	 10.8376 	 -86.0333
| 35> C 	 -59.2342 	 9.18142 	 -84.9055
| 36> H 	 -58.432 	 8.64539 	 -84.2911
| 37> H 	 -59.4448 	 8.50676 	 -85.8593
| 38> H 	 -60.1377 	 9.19067 	 -84.3744
| 39> H 	 -63.825 	 13.6519 	 -88.1583
| 40> H 	 -61.6508 	 11.5218 	 -80.5989
| 41> *
| 42>
| 43>                          ****END OF INPUT****

CARTESIAN COORDINATES (ANGSTROEM)
---------------------------------
  S    -63.292000   12.169000  -86.099700
  C    -63.153100   13.414400  -87.321400
  C    -61.994400   14.166700  -87.118900
  C    -61.147700   13.550800  -86.126800
  C    -61.807400   12.611000  -85.391500
  H    -60.241100   13.967500  -85.876400
  C    -61.555600   15.241200  -88.130900
  H    -62.274700   15.275100  -88.871900
  H    -60.618500   14.930200  -88.554700
  C    -61.344300   16.638300  -87.588800
  H    -60.517000   16.603500  -86.814500
  H    -60.948100   17.347000  -88.237500
  C    -62.672700   17.159500  -87.044500
  H    -63.545100   17.069500  -87.703400
  H    -62.946700   16.650500  -86.160900
  H    -62.585200   18.205700  -86.905600
  S    -62.698900   12.146100  -82.839900
  C    -61.462800   11.696900  -81.644500
  C    -60.238900   11.437000  -82.255900
  C    -60.152700   11.768800  -83.634300
  C    -61.420400   12.073400  -84.085600
  H    -59.317800   11.149100  -81.683700
  C    -58.853300   11.660300  -84.386200
  H    -58.016100   11.502900  -83.643300
  H    -58.669400   12.646700  -84.879700
  C    -58.862600   10.582700  -85.366900
  H    -57.896400   10.617400  -85.971100
  H    -59.687700   10.837600  -86.033300
  C    -59.234200    9.181420  -84.905500
  H    -58.432000    8.645390  -84.291100
  H    -59.444800    8.506760  -85.859300
  H    -60.137700    9.190670  -84.374400
  H    -63.825000   13.651900  -88.158300
  H    -61.650800   11.521800  -80.598900

 Total Charge           Charge          ....    0
 Multiplicity           Mult            ....    1
 Number of Electrons    NEL             ....  134
 Basis Dimension        Dim             ....  322

ORBITAL ENERGIES
----------------

  NO   OCC          E(Eh)            E(eV)
   0   2.0000     -88.971628     -2421.0411
   1   2.0000     -88.967603     -2420.9316
   2   2.0000     -10.330022      -281.0942
   3   2.0000     -10.325888      -280.9817
   4   2.0000     -10.320270      -280.8288
   5   2.0000     -10.314521      -280.6724
   6   2.0000     -10.302937      -280.3572
   7   2.0000     -10.301370      -280.3145
   8   2.0000     -10.298073      -280.2248
   9   2.0000     -10.297256      -280.2026
  10   2.0000     -10.287193      -279.9288
  11   2.0000     -10.284470      -279.8547
  12   2.0000     -10.283014      -279.8150
  13   2.0000     -10.282703      -279.8066
  14   2.0000     -10.282602      -279.8038
  15   2.0000     -10.265647      -279.3425
  16   2.0000      -8.085169      -220.0086
  17   2.0000      -8.083062      -219.9513
  18   2.0000      -6.043788      -164.4598
  19   2.0000      -6.041566      -164.3994
  20   2.0000      -6.039978      -164.3562
  21   2.0000      -6.037353      -164.2847
  22   2.0000      -6.035738      -164.2408
  23   2.0000      -6.033913      -164.1911
  24   2.0000      -1.011644       -27.5282
  25   2.0000      -0.984173       -26.7807
  26   2.0000      -0.920958       -25.0605
  27   2.0000      -0.916274       -24.9331
  28   2.0000      -0.866411       -23.5762
  29   2.0000      -0.851907       -23.1816
  30   2.0000      -0.844108       -22.9694
  31   2.0000      -0.811725       -22.0882
  32   2.0000      -0.787546       -21.4302
  33   2.0000      -0.776766       -21.1369
  34   2.0000      -0.712285       -19.3823
  35   2.0000      -0.699450       -19.0330
  36   2.0000      -0.680499       -18.5173
  37   2.0000      -0.663445       -18.0533
  38   2.0000      -0.639242       -17.3947
  39   2.0000      -0.626089       -17.0368
  40   2.0000      -0.595535       -16.2053
  41   2.0000      -0.564973       -15.3737
  42   2.0000      -0.557557       -15.1719
  43   2.0000      -0.553848       -15.0710
  44   2.0000      -0.550047       -14.9675
  45   2.0000      -0.548907       -14.9365
  46   2.0000      -0.514237       -13.9931
  47   2.0000      -0.505910       -13.7665
  48   2.0000      -0.496921       -13.5219
  49   2.0000      -0.491456       -13.3732
  50   2.0000      -0.489847       -13.3294
  51   2.0000      -0.485567       -13.2130
  52   2.0000      -0.470304       -12.7976
  53   2.0000      -0.465078       -12.6554
  54   2.0000      -0.459542       -12.5048
  55   2.0000      -0.454196       -12.3593
  56   2.0000      -0.445318       -12.1177
  57   2.0000      -0.436717       -11.8837
  58   2.0000      -0.430974       -11.7274
  59   2.0000      -0.428101       -11.6492
  60   2.0000      -0.420233       -11.4351
  61   2.0000      -0.410846       -11.1797
  62   2.0000      -0.406281       -11.0555
  63   2.0000      -0.350159        -9.5283
  64   2.0000      -0.337165        -9.1747
  65   2.0000      -0.330894        -9.0041
  66   2.0000      -0.287604        -7.8261
  67   0.0000       0.027692         0.7535
  68   0.0000       0.066879         1.8199
  69   0.0000       0.106499         2.8980
  70   0.0000       0.112112         3.0507
  71   0.0000       0.133012         3.6194

MULLIKEN ATOMIC CHARGES
-----------------------
   0 S :    0.114174
   1 C :   -0.120713
   2 C :   -0.133816
   3 C :    0.064859
   4 C :   -0.141418
   5 H :   -0.027631
   6 C :    0.109794
   7 H :   -0.008208
   8 H :    0.024818
   9 C :   -0.062177
  10 H :    0.024430
  11 H :    0.011892
  12 C :   -0.031844
  13 H :    0.018933
  14 H :    0.038367
  15 H :    0.019130
  16 S :    0.113119
  17 C :   -0.091862
  18 C :   -0.038507
  19 C :   -0.083587
  20 C :   -0.138401
  21 H :    0.031748
  22 C :    0.097152
  23 H :    0.021694
  24 H :    0.039010
  25 C :   -0.079755
  26 H :    0.039843
  27 H :    0.034206
  28 C :   -0.084026
  29 H :    0.038839
  30 H :    0.047814
  31 H :    0.040755
  32 H :    0.055630
  33 H :    0.055738
Sum of atomic charges:    0.0000000

LOEWDIN ATOMIC CHARGES
----------------------
   0 S :    0.422293
   1 C :   -0.208513
   2 C :   -0.052035
   3 C :   -0.060687
   4 C :   -0.203333
   5 H :    0.013283
   6 C :   -0.019052
   7 H :    0.015591
   8 H :    0.029903
   9 C :   -0.039251
  10 H :    0.027788
  11 H :    0.014553
  12 C :   -0.059652
  13 H :    0.025492
  14 H :    0.023298
  15 H :    0.020255
  16 S :    0.386838
  17 C :   -0.180626
  18 C :   -0.069941
  19 C :   -0.058748
  20 C :   -0.183548
  21 H :    0.036988
  22 C :   -0.034201
  23 H :    0.032368
  24 H :    0.038309
  25 C :   -0.054778
  26 H :    0.031589
  27 H :    0.029413
  28 C :   -0.071632
  29 H :    0.026881
  30 H :    0.041852
  31 H :    0.017878
  32 H :    0.033860
  33 H :    0.027563

  Mayer bond orders larger than 0.100000
B(  0-S ,  1-C ) :   1.1256 B(  0-S ,  4-C ) :   1.1609 B(  1-C ,  2-C ) :   1.6145
B(  1-C , 32-H ) :   0.9624 B(  2-C ,  3-C ) :   1.2507 B(  2-C ,  6-C ) :   1.0254
B(  3-C ,  4-C ) :   1.5587 B(  3-C ,  5-H ) :   0.9993 B(  4-C , 20-C ) :   1.0239
B(  6-C ,  7-H ) :   0.9434 B(  6-C ,  8-H ) :   0.9405 B(  6-C ,  9-C ) :   1.0764
B(  9-C , 10-H ) :   0.9523 B(  9-C , 11-H ) :   0.9572 B(  9-C , 12-C ) :   1.0706
B( 12-C , 13-H ) :   0.9753 B( 12-C , 14-H ) :   0.9749 B( 12-C , 15-H ) :   0.9738
B( 16-S , 17-C ) :   1.1334 B( 16-S , 20-C ) :   1.1388 B( 17-C , 18-C ) :   1.6213
B( 17-C , 20-C ) :   0.1051 B( 17-C , 33-H ) :   0.9685 B( 18-C , 19-C ) :   1.2423
B( 18-C , 21-H ) :   0.9720 B( 19-C , 20-C ) :   1.6094 B( 19-C , 22-C ) :   1.0272
B( 22-C , 23-H ) :   0.9289 B( 22-C , 24-H ) :   0.9241 B( 22-C , 25-C ) :   1.0887
B( 25-C , 26-H ) :   0.9512 B( 25-C , 27-H ) :   0.9473 B( 25-C , 28-C ) :   1.0771
B( 28-C , 29-H ) :   0.9739 B( 28-C , 30-H ) :   0.9729 B( 28-C , 31-H ) :   0.9684

Dispersion correction           -0.015207739
FINAL SINGLE POINT ENERGY     -1339.865417030900

DIPOLE MOMENT
-------------
                                X             Y             Z
Electronic contribution:    -14.43988      -7.78572      10.82943
Nuclear contribution   :     14.94070       8.09858     -11.00207
                        -----------------------------------------
Total Dipole Moment    :      0.50082       0.31286      -0.17264
                        -----------------------------------------
Magnitude (a.u.)       :      0.61523
Magnitude (Debye)      :      1.56379

Rotational constants in cm-1:     0.020806     0.008559     0.007730
Rotational constants in MHz :   623.749756   256.596506   231.749215

                             ****ORCA TERMINATED NORMALLY****
TOTAL RUN TIME: 0 days 0 hours 0 minutes 21 seconds 303 msec
