                         Program Version 4.2.1 -  RELEASE  -
|  1> ! wB97X-D3 SP def2-SVP
|  2> %pal
|  3> nprocs 24
|  4> end
|  5>
|  6> * xyz 0 1
|  7> S 	 -107.629 	 55.4528 	 -87.4305
|  8> C 	 -109.225 	 56.1782 	 -87.4846
|  9> C 	 -109.368 	 57.1051 	 -88.5252
| 10> C 	 -108.115 	 57.2143 	 -89.2695
| 11> C 	 -107.083 	 56.4769 	 -88.7008
| 12> H 	 -107.917 	 57.9427 	 -90.0167
| 13> C 	 -110.634 	 57.863 	 -88.8001
| 14> H 	 -111.469 	 57.3502 	 -88.4484
| 15> H 	 -110.803 	 57.8693 	 -89.8643
| 16> C 	 -110.575 	 59.3394 	 -88.2487
| 17> H 	 -109.677 	 59.8551 	 -88.5299
| 18> H 	 -111.423 	 59.8192 	 -88.835
| 19> C 	 -110.564 	 59.4932 	 -86.683
| 20> H 	 -109.581 	 59.1279 	 -86.2493
| 21> H 	 -110.733 	 60.5562 	 -86.4357
| 22> H 	 -111.408 	 58.9795 	 -86.1658
| 23> S 	 -105.427 	 54.5489 	 -89.7675
| 24> C 	 -103.906 	 54.9903 	 -90.2153
| 25> C 	 -103.624 	 56.2892 	 -90.0217
| 26> C 	 -104.759 	 57.0544 	 -89.5684
| 27> C 	 -105.82 	 56.2263 	 -89.314
| 28> H 	 -102.621 	 56.6692 	 -90.3853
| 29> C 	 -104.791 	 58.5282 	 -89.4584
| 30> H 	 -105.796 	 58.8495 	 -89.5108
| 31> H 	 -104.26 	 58.9035 	 -90.3342
| 32> C 	 -104.125 	 59.0737 	 -88.1962
| 33> H 	 -103.129 	 58.536 	 -88.1029
| 34> H 	 -104.642 	 58.9233 	 -87.2378
| 35> C 	 -103.819 	 60.5592 	 -88.1827
| 36> H 	 -103.49 	 61.007 	 -87.1708
| 37> H 	 -104.688 	 61.0576 	 -88.507
| 38> H 	 -103.08 	 60.8162 	 -88.9755
| 39> H 	 -110.095 	 55.8213 	 -86.9286
| 40> H 	 -103.208 	 54.3251 	 -90.5972
| 41> *
| 42>
| 43>                          ****END OF INPUT****

CARTESIAN COORDINATES (ANGSTROEM)
---------------------------------
  S    -107.629000   55.452800  -87.430500
  C    -109.225000   56.178200  -87.484600
  C    -109.368000   57.105100  -88.525200
  C    -108.115000   57.214300  -89.269500
  C    -107.083000   56.476900  -88.700800
  H    -107.917000   57.942700  -90.016700
  C    -110.634000   57.863000  -88.800100
  H    -111.469000   57.350200  -88.448400
  H    -110.803000   57.869300  -89.864300
  C    -110.575000   59.339400  -88.248700
  H    -109.677000   59.855100  -88.529900
  H    -111.423000   59.819200  -88.835000
  C    -110.564000   59.493200  -86.683000
  H    -109.581000   59.127900  -86.249300
  H    -110.733000   60.556200  -86.435700
  H    -111.408000   58.979500  -86.165800
  S    -105.427000   54.548900  -89.767500
  C    -103.906000   54.990300  -90.215300
  C    -103.624000   56.289200  -90.021700
  C    -104.759000   57.054400  -89.568400
  C    -105.820000   56.226300  -89.314000
  H    -102.621000   56.669200  -90.385300
  C    -104.791000   58.528200  -89.458400
  H    -105.796000   58.849500  -89.510800
  H    -104.260000   58.903500  -90.334200
  C    -104.125000   59.073700  -88.196200
  H    -103.129000   58.536000  -88.102900
  H    -104.642000   58.923300  -87.237800
  C    -103.819000   60.559200  -88.182700
  H    -103.490000   61.007000  -87.170800
  H    -104.688000   61.057600  -88.507000
  H    -103.080000   60.816200  -88.975500
  H    -110.095000   55.821300  -86.928600
  H    -103.208000   54.325100  -90.597200

 Total Charge           Charge          ....    0
 Multiplicity           Mult            ....    1
 Number of Electrons    NEL             ....  134
 Basis Dimension        Dim             ....  322

ORBITAL ENERGIES
----------------

  NO   OCC          E(Eh)            E(eV)
   0   2.0000     -88.966767     -2420.9088
   1   2.0000     -88.959756     -2420.7180
   2   2.0000     -10.323448      -280.9153
   3   2.0000     -10.318392      -280.7777
   4   2.0000     -10.313032      -280.6319
   5   2.0000     -10.303449      -280.3711
   6   2.0000     -10.300658      -280.2951
   7   2.0000     -10.299200      -280.2555
   8   2.0000     -10.296540      -280.1831
   9   2.0000     -10.294210      -280.1197
  10   2.0000     -10.290370      -280.0152
  11   2.0000     -10.289222      -279.9840
  12   2.0000     -10.288452      -279.9630
  13   2.0000     -10.287889      -279.9477
  14   2.0000     -10.286507      -279.9101
  15   2.0000     -10.278935      -279.7040
  16   2.0000      -8.081880      -219.9191
  17   2.0000      -8.076699      -219.7782
  18   2.0000      -6.040347      -164.3662
  19   2.0000      -6.036321      -164.2567
  20   2.0000      -6.034943      -164.2191
  21   2.0000      -6.032659      -164.1570
  22   2.0000      -6.030947      -164.1104
  23   2.0000      -6.027528      -164.0174
  24   2.0000      -1.014955       -27.6183
  25   2.0000      -0.987222       -26.8637
  26   2.0000      -0.917001       -24.9529
  27   2.0000      -0.908602       -24.7243
  28   2.0000      -0.869811       -23.6688
  29   2.0000      -0.853937       -23.2368
  30   2.0000      -0.841376       -22.8950
  31   2.0000      -0.812561       -22.1109
  32   2.0000      -0.788115       -21.4457
  33   2.0000      -0.774506       -21.0754
  34   2.0000      -0.708043       -19.2668
  35   2.0000      -0.693959       -18.8836
  36   2.0000      -0.692997       -18.8574
  37   2.0000      -0.658131       -17.9087
  38   2.0000      -0.641366       -17.4525
  39   2.0000      -0.621468       -16.9110
  40   2.0000      -0.602504       -16.3950
  41   2.0000      -0.568885       -15.4801
  42   2.0000      -0.563474       -15.3329
  43   2.0000      -0.540648       -14.7118
  44   2.0000      -0.535580       -14.5739
  45   2.0000      -0.527052       -14.3418
  46   2.0000      -0.518333       -14.1046
  47   2.0000      -0.513738       -13.9795
  48   2.0000      -0.505320       -13.7505
  49   2.0000      -0.497402       -13.5350
  50   2.0000      -0.493331       -13.4242
  51   2.0000      -0.476988       -12.9795
  52   2.0000      -0.472562       -12.8591
  53   2.0000      -0.466632       -12.6977
  54   2.0000      -0.458217       -12.4687
  55   2.0000      -0.452636       -12.3169
  56   2.0000      -0.446378       -12.1466
  57   2.0000      -0.436473       -11.8770
  58   2.0000      -0.431865       -11.7516
  59   2.0000      -0.425988       -11.5917
  60   2.0000      -0.419003       -11.4017
  61   2.0000      -0.416023       -11.3206
  62   2.0000      -0.411312       -11.1924
  63   2.0000      -0.344876        -9.3845
  64   2.0000      -0.331900        -9.0315
  65   2.0000      -0.324087        -8.8189
  66   2.0000      -0.293729        -7.9928
  67   0.0000       0.037460         1.0193
  68   0.0000       0.069743         1.8978
  69   0.0000       0.118805         3.2328
  70   0.0000       0.122090         3.3222
  71   0.0000       0.123689         3.3658

MULLIKEN ATOMIC CHARGES
-----------------------
   0 S :    0.117309
   1 C :   -0.122780
   2 C :   -0.120525
   3 C :    0.047652
   4 C :   -0.164152
   5 H :    0.009298
   6 C :    0.115449
   7 H :    0.002963
   8 H :    0.021137
   9 C :   -0.090232
  10 H :    0.028686
  11 H :    0.040711
  12 C :   -0.085132
  13 H :    0.062525
  14 H :    0.040991
  15 H :    0.032410
  16 S :    0.119526
  17 C :   -0.053523
  18 C :   -0.060989
  19 C :   -0.037663
  20 C :   -0.179217
  21 H :    0.031557
  22 C :    0.140745
  23 H :   -0.002829
  24 H :    0.022430
  25 C :   -0.107807
  26 H :    0.031963
  27 H :    0.039007
  28 C :   -0.048061
  29 H :    0.054033
  30 H :    0.010797
  31 H :    0.024451
  32 H :    0.051116
  33 H :    0.028154
Sum of atomic charges:   -0.0000000

LOEWDIN ATOMIC CHARGES
----------------------
   0 S :    0.420487
   1 C :   -0.207200
   2 C :   -0.056756
   3 C :   -0.056609
   4 C :   -0.205479
   5 H :    0.023219
   6 C :   -0.028382
   7 H :    0.021511
   8 H :    0.032056
   9 C :   -0.039373
  10 H :    0.020931
  11 H :    0.030504
  12 C :   -0.075897
  13 H :    0.037484
  14 H :    0.029709
  15 H :    0.023722
  16 S :    0.428552
  17 C :   -0.202841
  18 C :   -0.085332
  19 C :   -0.048456
  20 C :   -0.195392
  21 H :    0.039443
  22 C :   -0.025647
  23 H :    0.022492
  24 H :    0.036391
  25 C :   -0.045994
  26 H :    0.027672
  27 H :    0.029270
  28 C :   -0.073427
  29 H :    0.038155
  30 H :    0.014011
  31 H :    0.023653
  32 H :    0.029260
  33 H :    0.018262

  Mayer bond orders larger than 0.100000
B(  0-S ,  1-C ) :   1.1345 B(  0-S ,  4-C ) :   1.1579 B(  1-C ,  2-C ) :   1.6089
B(  1-C , 32-H ) :   0.9634 B(  2-C ,  3-C ) :   1.2430 B(  2-C ,  6-C ) :   1.0384
B(  3-C ,  4-C ) :   1.5649 B(  3-C ,  5-H ) :   0.9883 B(  4-C , 20-C ) :   1.0482
B(  6-C ,  7-H ) :   0.9374 B(  6-C ,  8-H ) :   0.9358 B(  6-C ,  9-C ) :   1.0535
B(  9-C , 10-H ) :   0.9620 B(  9-C , 11-H ) :   0.9605 B(  9-C , 12-C ) :   1.0584
B( 12-C , 13-H ) :   0.9728 B( 12-C , 14-H ) :   0.9749 B( 12-C , 15-H ) :   0.9786
B( 16-S , 17-C ) :   1.1729 B( 16-S , 20-C ) :   1.1318 B( 17-C , 18-C ) :   1.6309
B( 17-C , 33-H ) :   0.9688 B( 18-C , 19-C ) :   1.2165 B( 18-C , 21-H ) :   0.9811
B( 19-C , 20-C ) :   1.6243 B( 19-C , 22-C ) :   1.0561 B( 22-C , 23-H ) :   0.9136
B( 22-C , 24-H ) :   0.9273 B( 22-C , 25-C ) :   1.0629 B( 25-C , 26-H ) :   0.9602
B( 25-C , 27-H ) :   0.9553 B( 25-C , 28-C ) :   1.0802 B( 28-C , 29-H ) :   0.9744
B( 28-C , 30-H ) :   0.9691 B( 28-C , 31-H ) :   0.9728

Dispersion correction           -0.014237604
FINAL SINGLE POINT ENERGY     -1339.875720751491

DIPOLE MOMENT
-------------
                                X             Y             Z
Electronic contribution:      4.95765     -27.92936      -4.24180
Nuclear contribution   :     -5.10459      28.42577       4.00710
                        -----------------------------------------
Total Dipole Moment    :     -0.14693       0.49641      -0.23470
                        -----------------------------------------
Magnitude (a.u.)       :      0.56841
Magnitude (Debye)      :      1.44479

Rotational constants in cm-1:     0.017923     0.009236     0.006834
Rotational constants in MHz :   537.328547   276.874291   204.890798

                             ****ORCA TERMINATED NORMALLY****
TOTAL RUN TIME: 0 days 0 hours 0 minutes 21 seconds 553 msec
