                         Program Version 4.2.1 -  RELEASE  -
|  1> ! wB97X-D3 SP def2-SVP
|  2> %pal
|  3> nprocs 24
|  4> end
|  5>
|  6> * xyz 0 1
|  7> S 	 -105.848 	 49.8761 	 -97.5986
|  8> C 	 -105.825 	 49.8398 	 -95.8635
|  9> C 	 -107.125 	 49.9087 	 -95.3617
| 10> C 	 -108.126 	 49.9203 	 -96.3914
| 11> C 	 -107.576 	 49.8152 	 -97.6588
| 12> H 	 -109.175 	 50.0504 	 -96.2137
| 13> C 	 -107.53 	 50.0519 	 -93.8948
| 14> H 	 -108.521 	 50.3874 	 -93.9641
| 15> H 	 -106.999 	 50.8652 	 -93.4259
| 16> C 	 -107.339 	 48.7789 	 -93.0926
| 17> H 	 -107.564 	 49.0299 	 -92.0458
| 18> H 	 -108.11 	 48.0406 	 -93.1873
| 19> C 	 -106.005 	 48.0755 	 -93.2462
| 20> H 	 -105.864 	 47.1338 	 -92.624
| 21> H 	 -105.901 	 47.7451 	 -94.2951
| 22> H 	 -105.175 	 48.6305 	 -92.9359
| 23> S 	 -109.468 	 48.7279 	 -99.4109
| 24> C 	 -109.697 	 49.465 	 -100.973
| 25> C 	 -109.061 	 50.6537 	 -100.982
| 26> C 	 -108.183 	 50.9283 	 -99.8845
| 27> C 	 -108.291 	 49.9256 	 -98.9224
| 28> H 	 -109.263 	 51.3159 	 -101.812
| 29> C 	 -107.276 	 52.1407 	 -99.8148
| 30> H 	 -107.073 	 52.2871 	 -98.7692
| 31> H 	 -107.997 	 53.0214 	 -100.022
| 32> C 	 -106.058 	 52.059 	 -100.803
| 33> H 	 -106.459 	 52.0162 	 -101.881
| 34> H 	 -105.562 	 51.1449 	 -100.612
| 35> C 	 -105.108 	 53.2594 	 -100.612
| 36> H 	 -104.857 	 53.3318 	 -99.5206
| 37> H 	 -105.447 	 54.2873 	 -100.967
| 38> H 	 -104.124 	 53.1074 	 -101.179
| 39> H 	 -104.89 	 49.9115 	 -95.2581
| 40> H 	 -110.36 	 49.1298 	 -101.774
| 41> *
| 42>
| 43>                          ****END OF INPUT****

CARTESIAN COORDINATES (ANGSTROEM)
---------------------------------
  S    -105.848000   49.876100  -97.598600
  C    -105.825000   49.839800  -95.863500
  C    -107.125000   49.908700  -95.361700
  C    -108.126000   49.920300  -96.391400
  C    -107.576000   49.815200  -97.658800
  H    -109.175000   50.050400  -96.213700
  C    -107.530000   50.051900  -93.894800
  H    -108.521000   50.387400  -93.964100
  H    -106.999000   50.865200  -93.425900
  C    -107.339000   48.778900  -93.092600
  H    -107.564000   49.029900  -92.045800
  H    -108.110000   48.040600  -93.187300
  C    -106.005000   48.075500  -93.246200
  H    -105.864000   47.133800  -92.624000
  H    -105.901000   47.745100  -94.295100
  H    -105.175000   48.630500  -92.935900
  S    -109.468000   48.727900  -99.410900
  C    -109.697000   49.465000  -100.973000
  C    -109.061000   50.653700  -100.982000
  C    -108.183000   50.928300  -99.884500
  C    -108.291000   49.925600  -98.922400
  H    -109.263000   51.315900  -101.812000
  C    -107.276000   52.140700  -99.814800
  H    -107.073000   52.287100  -98.769200
  H    -107.997000   53.021400  -100.022000
  C    -106.058000   52.059000  -100.803000
  H    -106.459000   52.016200  -101.881000
  H    -105.562000   51.144900  -100.612000
  C    -105.108000   53.259400  -100.612000
  H    -104.857000   53.331800  -99.520600
  H    -105.447000   54.287300  -100.967000
  H    -104.124000   53.107400  -101.179000
  H    -104.890000   49.911500  -95.258100
  H    -110.360000   49.129800  -101.774000

 Total Charge           Charge          ....    0
 Multiplicity           Mult            ....    1
 Number of Electrons    NEL             ....  134
 Basis Dimension        Dim             ....  322

ORBITAL ENERGIES
----------------

  NO   OCC          E(Eh)            E(eV)
   0   2.0000     -88.968910     -2420.9671
   1   2.0000     -88.962076     -2420.7811
   2   2.0000     -10.327172      -281.0166
   3   2.0000     -10.323948      -280.9289
   4   2.0000     -10.316707      -280.7319
   5   2.0000     -10.312744      -280.6240
   6   2.0000     -10.301116      -280.3076
   7   2.0000     -10.300433      -280.2890
   8   2.0000     -10.295502      -280.1548
   9   2.0000     -10.294959      -280.1401
  10   2.0000     -10.293768      -280.1077
  11   2.0000     -10.290268      -280.0124
  12   2.0000     -10.287199      -279.9289
  13   2.0000     -10.286848      -279.9194
  14   2.0000     -10.282544      -279.8023
  15   2.0000     -10.274920      -279.5948
  16   2.0000      -8.083604      -219.9661
  17   2.0000      -8.077035      -219.7873
  18   2.0000      -6.042069      -164.4131
  19   2.0000      -6.038035      -164.3033
  20   2.0000      -6.035638      -164.2381
  21   2.0000      -6.034531      -164.2079
  22   2.0000      -6.031492      -164.1252
  23   2.0000      -6.027694      -164.0219
  24   2.0000      -1.008476       -27.4420
  25   2.0000      -0.986541       -26.8451
  26   2.0000      -0.914893       -24.8955
  27   2.0000      -0.900891       -24.5145
  28   2.0000      -0.868360       -23.6293
  29   2.0000      -0.849974       -23.1290
  30   2.0000      -0.843102       -22.9420
  31   2.0000      -0.811950       -22.0943
  32   2.0000      -0.786664       -21.4062
  33   2.0000      -0.766779       -20.8651
  34   2.0000      -0.707008       -19.2387
  35   2.0000      -0.699140       -19.0246
  36   2.0000      -0.694480       -18.8978
  37   2.0000      -0.657000       -17.8779
  38   2.0000      -0.641484       -17.4557
  39   2.0000      -0.615951       -16.7609
  40   2.0000      -0.591393       -16.0926
  41   2.0000      -0.570283       -15.5182
  42   2.0000      -0.555663       -15.1204
  43   2.0000      -0.550115       -14.9694
  44   2.0000      -0.543297       -14.7839
  45   2.0000      -0.524047       -14.2600
  46   2.0000      -0.515518       -14.0280
  47   2.0000      -0.510426       -13.8894
  48   2.0000      -0.504681       -13.7331
  49   2.0000      -0.495967       -13.4959
  50   2.0000      -0.490068       -13.3354
  51   2.0000      -0.478590       -13.0231
  52   2.0000      -0.465686       -12.6719
  53   2.0000      -0.464775       -12.6472
  54   2.0000      -0.454372       -12.3641
  55   2.0000      -0.451187       -12.2774
  56   2.0000      -0.445860       -12.1325
  57   2.0000      -0.436044       -11.8653
  58   2.0000      -0.432248       -11.7621
  59   2.0000      -0.421602       -11.4724
  60   2.0000      -0.417909       -11.3719
  61   2.0000      -0.415463       -11.3053
  62   2.0000      -0.406823       -11.0702
  63   2.0000      -0.344442        -9.3727
  64   2.0000      -0.331767        -9.0278
  65   2.0000      -0.324632        -8.8337
  66   2.0000      -0.296161        -8.0590
  67   0.0000       0.036594         0.9958
  68   0.0000       0.069211         1.8833
  69   0.0000       0.104367         2.8400
  70   0.0000       0.129456         3.5227
  71   0.0000       0.131167         3.5692

MULLIKEN ATOMIC CHARGES
-----------------------
   0 S :    0.118253
   1 C :   -0.143433
   2 C :   -0.138442
   3 C :    0.042257
   4 C :   -0.169190
   5 H :    0.012051
   6 C :    0.139068
   7 H :   -0.001932
   8 H :    0.027891
   9 C :   -0.051301
  10 H :    0.017194
  11 H :    0.017081
  12 C :   -0.068823
  13 H :    0.034814
  14 H :    0.058444
  15 H :    0.014753
  16 S :    0.106228
  17 C :   -0.094866
  18 C :   -0.033584
  19 C :   -0.043172
  20 C :   -0.163024
  21 H :    0.012376
  22 C :    0.044119
  23 H :    0.025675
  24 H :    0.037024
  25 C :   -0.043403
  26 H :    0.045195
  27 H :    0.027166
  28 C :   -0.089848
  29 H :    0.040472
  30 H :    0.044404
  31 H :    0.044351
  32 H :    0.069959
  33 H :    0.062244
Sum of atomic charges:   -0.0000000

LOEWDIN ATOMIC CHARGES
----------------------
   0 S :    0.433815
   1 C :   -0.213798
   2 C :   -0.061664
   3 C :   -0.060399
   4 C :   -0.200975
   5 H :    0.030418
   6 C :   -0.022922
   7 H :    0.024945
   8 H :    0.031223
   9 C :   -0.044505
  10 H :    0.025272
  11 H :    0.023280
  12 C :   -0.070439
  13 H :    0.035599
  14 H :    0.032289
  15 H :    0.011750
  16 S :    0.404083
  17 C :   -0.190340
  18 C :   -0.074931
  19 C :   -0.059506
  20 C :   -0.205781
  21 H :    0.028779
  22 C :   -0.041249
  23 H :    0.021936
  24 H :    0.041518
  25 C :   -0.037106
  26 H :    0.034880
  27 H :    0.018221
  28 C :   -0.082338
  29 H :    0.029566
  30 H :    0.030371
  31 H :    0.032453
  32 H :    0.038358
  33 H :    0.037197

  Mayer bond orders larger than 0.100000
B(  0-S ,  1-C ) :   1.1457 B(  0-S ,  4-C ) :   1.1722 B(  1-C ,  2-C ) :   1.5812
B(  1-C , 32-H ) :   0.9646 B(  2-C ,  3-C ) :   1.2749 B(  2-C ,  6-C ) :   1.0139
B(  3-C ,  4-C ) :   1.5532 B(  3-C ,  5-H ) :   0.9941 B(  4-C , 20-C ) :   1.0174
B(  6-C ,  7-H ) :   0.9322 B(  6-C ,  8-H ) :   0.9407 B(  6-C ,  9-C ) :   1.0694
B(  9-C , 10-H ) :   0.9505 B(  9-C , 11-H ) :   0.9525 B(  9-C , 12-C ) :   1.0901
B( 12-C , 13-H ) :   0.9689 B( 12-C , 14-H ) :   0.9639 B( 12-C , 15-H ) :   0.9743
B( 16-S , 17-C ) :   1.1401 B( 16-S , 20-C ) :   1.1457 B( 17-C , 18-C ) :   1.6292
B( 17-C , 33-H ) :   0.9657 B( 18-C , 19-C ) :   1.2308 B( 18-C , 21-H ) :   0.9885
B( 19-C , 20-C ) :   1.5833 B( 19-C , 22-C ) :   1.0480 B( 22-C , 23-H ) :   0.9307
B( 22-C , 24-H ) :   0.9332 B( 22-C , 25-C ) :   1.0416 B( 25-C , 26-H ) :   0.9556
B( 25-C , 27-H ) :   0.9536 B( 25-C , 28-C ) :   1.0774 B( 28-C , 29-H ) :   0.9729
B( 28-C , 30-H ) :   0.9759 B( 28-C , 31-H ) :   0.9748

Dispersion correction           -0.014770616
FINAL SINGLE POINT ENERGY     -1339.883452578914

DIPOLE MOMENT
-------------
                                X             Y             Z
Electronic contribution:     -9.41236      -8.68535     -10.11954
Nuclear contribution   :      9.38543       9.11037      10.33490
                        -----------------------------------------
Total Dipole Moment    :     -0.02693       0.42502       0.21536
                        -----------------------------------------
Magnitude (a.u.)       :      0.47723
Magnitude (Debye)      :      1.21301

Rotational constants in cm-1:     0.021217     0.008270     0.006491
Rotational constants in MHz :   636.058956   247.942767   194.607303

                             ****ORCA TERMINATED NORMALLY****
TOTAL RUN TIME: 0 days 0 hours 0 minutes 20 seconds 442 msec
