                         Program Version 4.2.1 -  RELEASE  -
|  1> ! wB97X-D3 SP def2-SVP
|  2> %pal
|  3> nprocs 24
|  4> end
|  5>
|  6> * xyz 0 1
|  7> S 	 -106.833 	 57.8589 	 -89.1158
|  8> C 	 -105.277 	 58.5417 	 -89.0236
|  9> C 	 -104.375 	 57.9618 	 -89.8747
| 10> C 	 -104.95 	 56.8619 	 -90.5691
| 11> C 	 -106.26 	 56.6419 	 -90.2203
| 12> H 	 -104.419 	 56.2673 	 -91.277
| 13> C 	 -102.873 	 58.1968 	 -89.9582
| 14> H 	 -102.571 	 57.3084 	 -90.5869
| 15> H 	 -102.503 	 58.1119 	 -88.9749
| 16> C 	 -102.412 	 59.414 	 -90.7818
| 17> H 	 -102.795 	 59.3627 	 -91.7914
| 18> H 	 -102.795 	 60.3154 	 -90.2801
| 19> C 	 -100.841 	 59.6154 	 -90.7658
| 20> H 	 -100.427 	 59.5015 	 -89.7155
| 21> H 	 -100.321 	 58.8609 	 -91.3297
| 22> H 	 -100.461 	 60.5666 	 -91.1935
| 23> S 	 -106.787 	 54.06 	 -89.3453
| 24> C 	 -107.425 	 52.8763 	 -90.4715
| 25> C 	 -107.896 	 53.5278 	 -91.6013
| 26> C 	 -107.678 	 54.94 	 -91.5905
| 27> C 	 -106.982 	 55.4082 	 -90.4536
| 28> H 	 -108.293 	 52.9354 	 -92.3998
| 29> C 	 -107.959 	 55.7056 	 -92.761
| 30> H 	 -108.064 	 56.7019 	 -92.3494
| 31> H 	 -108.898 	 55.4445 	 -93.232
| 32> C 	 -106.899 	 55.7011 	 -93.8395
| 33> H 	 -106.606 	 54.7023 	 -94.2812
| 34> H 	 -105.987 	 56.0689 	 -93.3587
| 35> C 	 -107.204 	 56.5493 	 -95.0109
| 36> H 	 -106.39 	 56.4949 	 -95.7553
| 37> H 	 -107.132 	 57.6579 	 -94.8178
| 38> H 	 -108.17 	 56.198 	 -95.4372
| 39> H 	 -105.049 	 59.2449 	 -88.228
| 40> H 	 -107.38 	 51.8483 	 -90.3304
| 41> *
| 42>
| 43>                          ****END OF INPUT****

CARTESIAN COORDINATES (ANGSTROEM)
---------------------------------
  S    -106.833000   57.858900  -89.115800
  C    -105.277000   58.541700  -89.023600
  C    -104.375000   57.961800  -89.874700
  C    -104.950000   56.861900  -90.569100
  C    -106.260000   56.641900  -90.220300
  H    -104.419000   56.267300  -91.277000
  C    -102.873000   58.196800  -89.958200
  H    -102.571000   57.308400  -90.586900
  H    -102.503000   58.111900  -88.974900
  C    -102.412000   59.414000  -90.781800
  H    -102.795000   59.362700  -91.791400
  H    -102.795000   60.315400  -90.280100
  C    -100.841000   59.615400  -90.765800
  H    -100.427000   59.501500  -89.715500
  H    -100.321000   58.860900  -91.329700
  H    -100.461000   60.566600  -91.193500
  S    -106.787000   54.060000  -89.345300
  C    -107.425000   52.876300  -90.471500
  C    -107.896000   53.527800  -91.601300
  C    -107.678000   54.940000  -91.590500
  C    -106.982000   55.408200  -90.453600
  H    -108.293000   52.935400  -92.399800
  C    -107.959000   55.705600  -92.761000
  H    -108.064000   56.701900  -92.349400
  H    -108.898000   55.444500  -93.232000
  C    -106.899000   55.701100  -93.839500
  H    -106.606000   54.702300  -94.281200
  H    -105.987000   56.068900  -93.358700
  C    -107.204000   56.549300  -95.010900
  H    -106.390000   56.494900  -95.755300
  H    -107.132000   57.657900  -94.817800
  H    -108.170000   56.198000  -95.437200
  H    -105.049000   59.244900  -88.228000
  H    -107.380000   51.848300  -90.330400

 Total Charge           Charge          ....    0
 Multiplicity           Mult            ....    1
 Number of Electrons    NEL             ....  134
 Basis Dimension        Dim             ....  322

ORBITAL ENERGIES
----------------

  NO   OCC          E(Eh)            E(eV)
   0   2.0000     -88.966712     -2420.9073
   1   2.0000     -88.960766     -2420.7455
   2   2.0000     -10.325239      -280.9640
   3   2.0000     -10.323920      -280.9281
   4   2.0000     -10.313878      -280.6549
   5   2.0000     -10.311039      -280.5776
   6   2.0000     -10.297626      -280.2126
   7   2.0000     -10.296963      -280.1946
   8   2.0000     -10.294549      -280.1289
   9   2.0000     -10.293429      -280.0985
  10   2.0000     -10.293120      -280.0900
  11   2.0000     -10.289492      -279.9913
  12   2.0000     -10.286257      -279.9033
  13   2.0000     -10.282606      -279.8039
  14   2.0000     -10.279767      -279.7267
  15   2.0000     -10.277510      -279.6653
  16   2.0000      -8.082736      -219.9424
  17   2.0000      -8.075442      -219.7440
  18   2.0000      -6.040962      -164.3829
  19   2.0000      -6.037064      -164.2769
  20   2.0000      -6.034001      -164.1935
  21   2.0000      -6.033710      -164.1856
  22   2.0000      -6.029752      -164.0779
  23   2.0000      -6.026354      -163.9854
  24   2.0000      -1.011676       -27.5291
  25   2.0000      -0.986697       -26.8494
  26   2.0000      -0.919509       -25.0211
  27   2.0000      -0.908705       -24.7271
  28   2.0000      -0.870584       -23.6898
  29   2.0000      -0.855128       -23.2692
  30   2.0000      -0.852403       -23.1951
  31   2.0000      -0.814338       -22.1593
  32   2.0000      -0.780612       -21.2415
  33   2.0000      -0.767297       -20.8792
  34   2.0000      -0.704380       -19.1672
  35   2.0000      -0.704155       -19.1610
  36   2.0000      -0.690723       -18.7955
  37   2.0000      -0.663247       -18.0479
  38   2.0000      -0.650544       -17.7022
  39   2.0000      -0.621107       -16.9012
  40   2.0000      -0.598292       -16.2803
  41   2.0000      -0.574787       -15.6407
  42   2.0000      -0.567574       -15.4445
  43   2.0000      -0.562582       -15.3086
  44   2.0000      -0.528092       -14.3701
  45   2.0000      -0.524764       -14.2796
  46   2.0000      -0.519495       -14.1362
  47   2.0000      -0.512917       -13.9572
  48   2.0000      -0.507713       -13.8156
  49   2.0000      -0.505784       -13.7631
  50   2.0000      -0.493865       -13.4388
  51   2.0000      -0.479316       -13.0429
  52   2.0000      -0.474290       -12.9061
  53   2.0000      -0.463613       -12.6156
  54   2.0000      -0.457796       -12.4573
  55   2.0000      -0.447895       -12.1878
  56   2.0000      -0.442555       -12.0425
  57   2.0000      -0.438189       -11.9237
  58   2.0000      -0.428830       -11.6691
  59   2.0000      -0.426026       -11.5927
  60   2.0000      -0.419029       -11.4024
  61   2.0000      -0.412161       -11.2155
  62   2.0000      -0.408499       -11.1158
  63   2.0000      -0.341058        -9.2807
  64   2.0000      -0.325946        -8.8694
  65   2.0000      -0.315350        -8.5811
  66   2.0000      -0.309834        -8.4310
  67   0.0000       0.041732         1.1356
  68   0.0000       0.048728         1.3259
  69   0.0000       0.119475         3.2511
  70   0.0000       0.122402         3.3307
  71   0.0000       0.126546         3.4435

MULLIKEN ATOMIC CHARGES
-----------------------
   0 S :    0.130485
   1 C :   -0.135366
   2 C :   -0.081511
   3 C :    0.054852
   4 C :   -0.195513
   5 H :    0.013921
   6 C :    0.059985
   7 H :    0.022016
   8 H :    0.031051
   9 C :   -0.054971
  10 H :    0.034482
  11 H :    0.032040
  12 C :   -0.073383
  13 H :    0.034361
  14 H :    0.023433
  15 H :    0.042968
  16 S :    0.104990
  17 C :   -0.076956
  18 C :   -0.026696
  19 C :   -0.020330
  20 C :   -0.154398
  21 H :    0.012919
  22 C :    0.094803
  23 H :    0.017767
  24 H :    0.010071
  25 C :   -0.077714
  26 H :    0.029827
  27 H :    0.007837
  28 C :   -0.049887
  29 H :    0.027781
  30 H :    0.035591
  31 H :    0.036571
  32 H :    0.051656
  33 H :    0.037320
Sum of atomic charges:   -0.0000000

LOEWDIN ATOMIC CHARGES
----------------------
   0 S :    0.434697
   1 C :   -0.205855
   2 C :   -0.069840
   3 C :   -0.045633
   4 C :   -0.211505
   5 H :    0.028023
   6 C :   -0.026717
   7 H :    0.036096
   8 H :    0.026419
   9 C :   -0.035598
  10 H :    0.025234
  11 H :    0.024156
  12 C :   -0.075574
  13 H :    0.030747
  14 H :    0.017842
  15 H :    0.029224
  16 S :    0.404357
  17 C :   -0.169221
  18 C :   -0.068970
  19 C :   -0.051954
  20 C :   -0.209911
  21 H :    0.028689
  22 C :   -0.039308
  23 H :    0.034986
  24 H :    0.028230
  25 C :   -0.046412
  26 H :    0.028705
  27 H :    0.021512
  28 C :   -0.072805
  29 H :    0.027946
  30 H :    0.030285
  31 H :    0.027224
  32 H :    0.027752
  33 H :    0.017182

  Mayer bond orders larger than 0.100000
B(  0-S ,  1-C ) :   1.1664 B(  0-S ,  4-C ) :   1.1613 B(  1-C ,  2-C ) :   1.5907
B(  1-C , 32-H ) :   0.9698 B(  2-C ,  3-C ) :   1.2698 B(  2-C ,  6-C ) :   1.0042
B(  3-C ,  4-C ) :   1.5692 B(  3-C ,  5-H ) :   0.9922 B(  4-C , 20-C ) :   1.0186
B(  6-C ,  7-H ) :   0.9443 B(  6-C ,  8-H ) :   0.9443 B(  6-C ,  9-C ) :   1.0618
B(  9-C , 10-H ) :   0.9570 B(  9-C , 11-H ) :   0.9612 B(  9-C , 12-C ) :   1.0668
B( 12-C , 13-H ) :   0.9758 B( 12-C , 14-H ) :   0.9776 B( 12-C , 15-H ) :   0.9774
B( 16-S , 17-C ) :   1.1710 B( 16-S , 20-C ) :   1.1368 B( 17-C , 18-C ) :   1.5831
B( 17-C , 33-H ) :   0.9777 B( 18-C , 19-C ) :   1.2447 B( 18-C , 21-H ) :   0.9974
B( 19-C , 20-C ) :   1.5637 B( 19-C , 22-C ) :   1.0897 B( 22-C , 23-H ) :   0.9120
B( 22-C , 24-H ) :   0.9204 B( 22-C , 25-C ) :   1.0703 B( 25-C , 26-H ) :   0.9526
B( 25-C , 27-H ) :   0.9425 B( 25-C , 28-C ) :   1.1020 B( 28-C , 29-H ) :   0.9691
B( 28-C , 30-H ) :   0.9704 B( 28-C , 31-H ) :   0.9698

Dispersion correction           -0.014112494
FINAL SINGLE POINT ENERGY     -1339.871027516494

DIPOLE MOMENT
-------------
                                X             Y             Z
Electronic contribution:    -16.22254     -10.83302      20.06823
Nuclear contribution   :     16.70786      10.81978     -20.46112
                        -----------------------------------------
Total Dipole Moment    :      0.48533      -0.01324      -0.39289
                        -----------------------------------------
Magnitude (a.u.)       :      0.62456
Magnitude (Debye)      :      1.58751

Rotational constants in cm-1:     0.018175     0.008066     0.006731
Rotational constants in MHz :   544.878985   241.817091   201.785092

                             ****ORCA TERMINATED NORMALLY****
TOTAL RUN TIME: 0 days 0 hours 0 minutes 21 seconds 427 msec
