                         Program Version 4.2.1 -  RELEASE  -
|  1> ! wB97X-D3 SP def2-SVP
|  2> %pal
|  3> nprocs 24
|  4> end
|  5>
|  6> * xyz 0 1
|  7> S 	 -49.5912 	 8.17491 	 -16.2058
|  8> C 	 -48.2822 	 7.88365 	 -17.3548
|  9> C 	 -48.6286 	 6.9266 	 -18.3069
| 10> C 	 -49.8438 	 6.25011 	 -18.0247
| 11> C 	 -50.5799 	 6.89405 	 -17.0221
| 12> H 	 -50.3782 	 5.57444 	 -18.6576
| 13> C 	 -47.7646 	 6.4614 	 -19.3835
| 14> H 	 -48.3133 	 5.79828 	 -20.0159
| 15> H 	 -46.8365 	 5.99031 	 -18.9411
| 16> C 	 -47.3497 	 7.62372 	 -20.3505
| 17> H 	 -46.994 	 8.4217 	 -19.7293
| 18> H 	 -46.4996 	 7.25403 	 -21.0056
| 19> C 	 -48.4838 	 8.17371 	 -21.1741
| 20> H 	 -48.1026 	 9.0041 	 -21.7802
| 21> H 	 -48.8896 	 7.36908 	 -21.812
| 22> H 	 -49.155 	 8.68059 	 -20.4866
| 23> S 	 -52.9494 	 8.36449 	 -17.1075
| 24> C 	 -54.4516 	 7.46984 	 -17.1498
| 25> C 	 -54.2122 	 6.15323 	 -16.8429
| 26> C 	 -52.8584 	 5.80129 	 -16.7683
| 27> C 	 -51.9691 	 6.86957 	 -16.7952
| 28> H 	 -55.0273 	 5.53687 	 -16.7944
| 29> C 	 -52.4625 	 4.40749 	 -16.5374
| 30> H 	 -51.4567 	 4.20319 	 -16.8428
| 31> H 	 -53.0292 	 3.74844 	 -17.2476
| 32> C 	 -52.6747 	 3.85486 	 -15.0568
| 33> H 	 -52.0945 	 4.32964 	 -14.2844
| 34> H 	 -52.1959 	 2.90367 	 -14.9514
| 35> C 	 -54.1683 	 3.65674 	 -14.6081
| 36> H 	 -54.6105 	 4.60283 	 -14.2311
| 37> H 	 -54.1567 	 2.96751 	 -13.8123
| 38> H 	 -54.9079 	 3.1922 	 -15.3303
| 39> H 	 -47.3903 	 8.51811 	 -17.5117
| 40> H 	 -55.3974 	 8.00137 	 -17.2771
| 41> *
| 42>
| 43>                          ****END OF INPUT****

CARTESIAN COORDINATES (ANGSTROEM)
---------------------------------
  S    -49.591200    8.174910  -16.205800
  C    -48.282200    7.883650  -17.354800
  C    -48.628600    6.926600  -18.306900
  C    -49.843800    6.250110  -18.024700
  C    -50.579900    6.894050  -17.022100
  H    -50.378200    5.574440  -18.657600
  C    -47.764600    6.461400  -19.383500
  H    -48.313300    5.798280  -20.015900
  H    -46.836500    5.990310  -18.941100
  C    -47.349700    7.623720  -20.350500
  H    -46.994000    8.421700  -19.729300
  H    -46.499600    7.254030  -21.005600
  C    -48.483800    8.173710  -21.174100
  H    -48.102600    9.004100  -21.780200
  H    -48.889600    7.369080  -21.812000
  H    -49.155000    8.680590  -20.486600
  S    -52.949400    8.364490  -17.107500
  C    -54.451600    7.469840  -17.149800
  C    -54.212200    6.153230  -16.842900
  C    -52.858400    5.801290  -16.768300
  C    -51.969100    6.869570  -16.795200
  H    -55.027300    5.536870  -16.794400
  C    -52.462500    4.407490  -16.537400
  H    -51.456700    4.203190  -16.842800
  H    -53.029200    3.748440  -17.247600
  C    -52.674700    3.854860  -15.056800
  H    -52.094500    4.329640  -14.284400
  H    -52.195900    2.903670  -14.951400
  C    -54.168300    3.656740  -14.608100
  H    -54.610500    4.602830  -14.231100
  H    -54.156700    2.967510  -13.812300
  H    -54.907900    3.192200  -15.330300
  H    -47.390300    8.518110  -17.511700
  H    -55.397400    8.001370  -17.277100

 Total Charge           Charge          ....    0
 Multiplicity           Mult            ....    1
 Number of Electrons    NEL             ....  134
 Basis Dimension        Dim             ....  322

ORBITAL ENERGIES
----------------

  NO   OCC          E(Eh)            E(eV)
   0   2.0000     -88.967766     -2420.9360
   1   2.0000     -88.960880     -2420.7486
   2   2.0000     -10.332533      -281.1625
   3   2.0000     -10.325376      -280.9678
   4   2.0000     -10.319849      -280.8174
   5   2.0000     -10.315282      -280.6931
   6   2.0000     -10.299193      -280.2553
   7   2.0000     -10.297380      -280.2059
   8   2.0000     -10.295102      -280.1440
   9   2.0000     -10.292096      -280.0622
  10   2.0000     -10.289208      -279.9836
  11   2.0000     -10.288195      -279.9560
  12   2.0000     -10.285421      -279.8805
  13   2.0000     -10.284901      -279.8664
  14   2.0000     -10.281699      -279.7793
  15   2.0000     -10.275427      -279.6086
  16   2.0000      -8.081148      -219.8992
  17   2.0000      -8.075100      -219.7347
  18   2.0000      -6.039727      -164.3493
  19   2.0000      -6.035822      -164.2431
  20   2.0000      -6.033680      -164.1848
  21   2.0000      -6.031936      -164.1373
  22   2.0000      -6.029629      -164.0746
  23   2.0000      -6.025836      -163.9713
  24   2.0000      -1.003714       -27.3125
  25   2.0000      -0.980274       -26.6746
  26   2.0000      -0.915623       -24.9154
  27   2.0000      -0.901543       -24.5322
  28   2.0000      -0.871633       -23.7183
  29   2.0000      -0.851963       -23.1831
  30   2.0000      -0.844743       -22.9866
  31   2.0000      -0.813527       -22.1372
  32   2.0000      -0.783623       -21.3235
  33   2.0000      -0.767721       -20.8908
  34   2.0000      -0.714669       -19.4471
  35   2.0000      -0.702811       -19.1245
  36   2.0000      -0.692892       -18.8545
  37   2.0000      -0.665632       -18.1128
  38   2.0000      -0.635374       -17.2894
  39   2.0000      -0.610104       -16.6018
  40   2.0000      -0.597138       -16.2490
  41   2.0000      -0.581618       -15.8266
  42   2.0000      -0.556335       -15.1386
  43   2.0000      -0.547995       -14.9117
  44   2.0000      -0.540299       -14.7023
  45   2.0000      -0.535818       -14.5804
  46   2.0000      -0.517009       -14.0685
  47   2.0000      -0.512433       -13.9440
  48   2.0000      -0.502068       -13.6620
  49   2.0000      -0.492441       -13.4000
  50   2.0000      -0.486021       -13.2253
  51   2.0000      -0.481491       -13.1020
  52   2.0000      -0.472773       -12.8648
  53   2.0000      -0.464364       -12.6360
  54   2.0000      -0.460939       -12.5428
  55   2.0000      -0.442373       -12.0376
  56   2.0000      -0.440120       -11.9763
  57   2.0000      -0.435038       -11.8380
  58   2.0000      -0.433340       -11.7918
  59   2.0000      -0.423685       -11.5291
  60   2.0000      -0.419737       -11.4216
  61   2.0000      -0.411323       -11.1927
  62   2.0000      -0.409490       -11.1428
  63   2.0000      -0.350401        -9.5349
  64   2.0000      -0.329197        -8.9579
  65   2.0000      -0.327943        -8.9238
  66   2.0000      -0.283606        -7.7173
  67   0.0000       0.018532         0.5043
  68   0.0000       0.060203         1.6382
  69   0.0000       0.109494         2.9795
  70   0.0000       0.118937         3.2364
  71   0.0000       0.121635         3.3099

MULLIKEN ATOMIC CHARGES
-----------------------
   0 S :    0.099745
   1 C :   -0.118426
   2 C :   -0.127833
   3 C :    0.064971
   4 C :   -0.182479
   5 H :    0.016307
   6 C :    0.074424
   7 H :    0.005478
   8 H :    0.059763
   9 C :   -0.109748
  10 H :    0.011318
  11 H :    0.036026
  12 C :   -0.044743
  13 H :    0.033904
  14 H :    0.041368
  15 H :    0.043638
  16 S :    0.082878
  17 C :   -0.102627
  18 C :    0.014965
  19 C :   -0.038015
  20 C :   -0.103979
  21 H :   -0.017904
  22 C :    0.067137
  23 H :    0.007394
  24 H :    0.026668
  25 C :   -0.043384
  26 H :    0.026692
  27 H :    0.013893
  28 C :   -0.074735
  29 H :    0.046888
  30 H :    0.020293
  31 H :    0.037361
  32 H :    0.062641
  33 H :    0.070119
Sum of atomic charges:    0.0000000

LOEWDIN ATOMIC CHARGES
----------------------
   0 S :    0.378657
   1 C :   -0.205219
   2 C :   -0.067052
   3 C :   -0.052925
   4 C :   -0.166882
   5 H :    0.030029
   6 C :   -0.033845
   7 H :    0.021977
   8 H :    0.045355
   9 C :   -0.042004
  10 H :    0.013468
  11 H :    0.026096
  12 C :   -0.066904
  13 H :    0.029966
  14 H :    0.027565
  15 H :    0.030175
  16 S :    0.378498
  17 C :   -0.172029
  18 C :   -0.063885
  19 C :   -0.055303
  20 C :   -0.189639
  21 H :    0.017685
  22 C :   -0.032509
  23 H :    0.024763
  24 H :    0.036103
  25 C :   -0.033300
  26 H :    0.028030
  27 H :    0.022171
  28 C :   -0.074225
  29 H :    0.028348
  30 H :    0.019574
  31 H :    0.030036
  32 H :    0.033360
  33 H :    0.033868

  Mayer bond orders larger than 0.100000
B(  0-S ,  1-C ) :   1.1216 B(  0-S ,  4-C ) :   1.1347 B(  1-C ,  2-C ) :   1.6086
B(  1-C , 32-H ) :   0.9578 B(  2-C ,  3-C ) :   1.2472 B(  2-C ,  6-C ) :   1.0338
B(  3-C ,  4-C ) :   1.5624 B(  3-C ,  5-H ) :   0.9792 B(  4-C , 20-C ) :   1.0843
B(  6-C ,  7-H ) :   0.9413 B(  6-C ,  8-H ) :   0.9372 B(  6-C ,  9-C ) :   1.0602
B(  9-C , 10-H ) :   0.9578 B(  9-C , 11-H ) :   0.9566 B(  9-C , 12-C ) :   1.0845
B( 12-C , 13-H ) :   0.9699 B( 12-C , 14-H ) :   0.9744 B( 12-C , 15-H ) :   0.9710
B( 16-S , 17-C ) :   1.1698 B( 16-S , 20-C ) :   1.1065 B( 17-C , 18-C ) :   1.5744
B( 17-C , 20-C ) :   0.1003 B( 17-C , 33-H ) :   0.9656 B( 18-C , 19-C ) :   1.2465
B( 18-C , 21-H ) :   1.0100 B( 19-C , 20-C ) :   1.5632 B( 19-C , 22-C ) :   1.0718
B( 22-C , 23-H ) :   0.9282 B( 22-C , 24-H ) :   0.9334 B( 22-C , 25-C ) :   1.0641
B( 25-C , 26-H ) :   0.9536 B( 25-C , 27-H ) :   0.9567 B( 25-C , 28-C ) :   1.0735
B( 28-C , 29-H ) :   0.9748 B( 28-C , 30-H ) :   0.9729 B( 28-C , 31-H ) :   0.9754

Dispersion correction           -0.014528190
FINAL SINGLE POINT ENERGY     -1339.860335225143

DIPOLE MOMENT
-------------
                                X             Y             Z
Electronic contribution:     -3.27338      14.66135       7.98686
Nuclear contribution   :      3.19448     -15.14178      -8.35158
                        -----------------------------------------
Total Dipole Moment    :     -0.07890      -0.48043      -0.36472
                        -----------------------------------------
Magnitude (a.u.)       :      0.60833
Magnitude (Debye)      :      1.54624

Rotational constants in cm-1:     0.022890     0.007596     0.007019
Rotational constants in MHz :   686.217605   227.734892   210.428943

                             ****ORCA TERMINATED NORMALLY****
TOTAL RUN TIME: 0 days 0 hours 0 minutes 20 seconds 426 msec
