                         Program Version 4.2.1 -  RELEASE  -
|  1> ! wB97X-D3 SP def2-SVP
|  2> %pal
|  3> nprocs 24
|  4> end
|  5>
|  6> * xyz 0 1
|  7> S 	 28.5441 	 -4.04304 	 -119.718
|  8> C 	 26.915 	 -4.69516 	 -119.974
|  9> C 	 27.0762 	 -6.07647 	 -120.029
| 10> C 	 28.3408 	 -6.59262 	 -119.576
| 11> C 	 29.1755 	 -5.5971 	 -119.212
| 12> H 	 28.6096 	 -7.64942 	 -119.557
| 13> C 	 25.8875 	 -7.00053 	 -120.333
| 14> H 	 25.1719 	 -6.44024 	 -120.983
| 15> H 	 25.5218 	 -7.31242 	 -119.304
| 16> C 	 26.2632 	 -8.17183 	 -121.343
| 17> H 	 26.8069 	 -7.86724 	 -122.194
| 18> H 	 26.9227 	 -8.86559 	 -120.799
| 19> C 	 24.9777 	 -8.91995 	 -121.754
| 20> H 	 24.2849 	 -9.34485 	 -120.942
| 21> H 	 24.3274 	 -8.34396 	 -122.383
| 22> H 	 25.2987 	 -9.84482 	 -122.34
| 23> S 	 31.7983 	 -5.60878 	 -120.046
| 24> C 	 33.0489 	 -6.19505 	 -119.019
| 25> C 	 32.5996 	 -6.67761 	 -117.805
| 26> C 	 31.1289 	 -6.56033 	 -117.68
| 27> C 	 30.5778 	 -5.84924 	 -118.818
| 28> H 	 33.2141 	 -7.07978 	 -117.023
| 29> C 	 30.3634 	 -6.91919 	 -116.389
| 30> H 	 31.0549 	 -7.51523 	 -115.885
| 31> H 	 29.5222 	 -7.65926 	 -116.545
| 32> C 	 30.0073 	 -5.7455 	 -115.555
| 33> H 	 29.4817 	 -5.09826 	 -116.238
| 34> H 	 30.9542 	 -5.35406 	 -115.223
| 35> C 	 29.0285 	 -6.21175 	 -114.436
| 36> H 	 28.7806 	 -5.38713 	 -113.814
| 37> H 	 29.3368 	 -7.11496 	 -113.842
| 38> H 	 28.1135 	 -6.48234 	 -114.925
| 39> H 	 26.0381 	 -4.14498 	 -120.344
| 40> H 	 34.0548 	 -6.1726 	 -119.292
| 41> *
| 42>
| 43>                          ****END OF INPUT****

CARTESIAN COORDINATES (ANGSTROEM)
---------------------------------
  S     28.544100   -4.043040  -119.718000
  C     26.915000   -4.695160  -119.974000
  C     27.076200   -6.076470  -120.029000
  C     28.340800   -6.592620  -119.576000
  C     29.175500   -5.597100  -119.212000
  H     28.609600   -7.649420  -119.557000
  C     25.887500   -7.000530  -120.333000
  H     25.171900   -6.440240  -120.983000
  H     25.521800   -7.312420  -119.304000
  C     26.263200   -8.171830  -121.343000
  H     26.806900   -7.867240  -122.194000
  H     26.922700   -8.865590  -120.799000
  C     24.977700   -8.919950  -121.754000
  H     24.284900   -9.344850  -120.942000
  H     24.327400   -8.343960  -122.383000
  H     25.298700   -9.844820  -122.340000
  S     31.798300   -5.608780  -120.046000
  C     33.048900   -6.195050  -119.019000
  C     32.599600   -6.677610  -117.805000
  C     31.128900   -6.560330  -117.680000
  C     30.577800   -5.849240  -118.818000
  H     33.214100   -7.079780  -117.023000
  C     30.363400   -6.919190  -116.389000
  H     31.054900   -7.515230  -115.885000
  H     29.522200   -7.659260  -116.545000
  C     30.007300   -5.745500  -115.555000
  H     29.481700   -5.098260  -116.238000
  H     30.954200   -5.354060  -115.223000
  C     29.028500   -6.211750  -114.436000
  H     28.780600   -5.387130  -113.814000
  H     29.336800   -7.114960  -113.842000
  H     28.113500   -6.482340  -114.925000
  H     26.038100   -4.144980  -120.344000
  H     34.054800   -6.172600  -119.292000

 Total Charge           Charge          ....    0
 Multiplicity           Mult            ....    1
 Number of Electrons    NEL             ....  134
 Basis Dimension        Dim             ....  322

ORBITAL ENERGIES
----------------

  NO   OCC          E(Eh)            E(eV)
   0   2.0000     -88.966620     -2420.9048
   1   2.0000     -88.963602     -2420.8227
   2   2.0000     -10.330721      -281.1132
   3   2.0000     -10.328904      -281.0638
   4   2.0000     -10.317774      -280.7609
   5   2.0000     -10.313122      -280.6343
   6   2.0000     -10.311980      -280.6032
   7   2.0000     -10.302108      -280.3346
   8   2.0000     -10.302012      -280.3320
   9   2.0000     -10.298283      -280.2305
  10   2.0000     -10.293117      -280.0900
  11   2.0000     -10.292197      -280.0649
  12   2.0000     -10.288235      -279.9571
  13   2.0000     -10.284994      -279.8689
  14   2.0000     -10.278374      -279.6888
  15   2.0000     -10.275318      -279.6056
  16   2.0000      -8.081779      -219.9164
  17   2.0000      -8.077992      -219.8133
  18   2.0000      -6.040254      -164.3637
  19   2.0000      -6.036633      -164.2651
  20   2.0000      -6.036095      -164.2505
  21   2.0000      -6.032696      -164.1580
  22   2.0000      -6.032675      -164.1574
  23   2.0000      -6.028484      -164.0434
  24   2.0000      -1.004063       -27.3220
  25   2.0000      -0.980426       -26.6788
  26   2.0000      -0.914318       -24.8799
  27   2.0000      -0.902957       -24.5707
  28   2.0000      -0.867839       -23.6151
  29   2.0000      -0.845079       -22.9958
  30   2.0000      -0.841564       -22.9001
  31   2.0000      -0.813994       -22.1499
  32   2.0000      -0.777415       -21.1545
  33   2.0000      -0.762872       -20.7588
  34   2.0000      -0.709111       -19.2959
  35   2.0000      -0.698175       -18.9983
  36   2.0000      -0.688262       -18.7286
  37   2.0000      -0.660340       -17.9688
  38   2.0000      -0.637233       -17.3400
  39   2.0000      -0.618660       -16.8346
  40   2.0000      -0.595473       -16.2036
  41   2.0000      -0.571446       -15.5498
  42   2.0000      -0.566575       -15.4173
  43   2.0000      -0.559116       -15.2143
  44   2.0000      -0.522301       -14.2125
  45   2.0000      -0.520139       -14.1537
  46   2.0000      -0.511861       -13.9285
  47   2.0000      -0.508049       -13.8247
  48   2.0000      -0.503103       -13.6901
  49   2.0000      -0.497691       -13.5429
  50   2.0000      -0.493019       -13.4157
  51   2.0000      -0.478921       -13.0321
  52   2.0000      -0.473843       -12.8939
  53   2.0000      -0.461303       -12.5527
  54   2.0000      -0.458367       -12.4728
  55   2.0000      -0.449834       -12.2406
  56   2.0000      -0.444246       -12.0886
  57   2.0000      -0.439020       -11.9463
  58   2.0000      -0.437387       -11.9019
  59   2.0000      -0.422249       -11.4900
  60   2.0000      -0.418399       -11.3852
  61   2.0000      -0.415334       -11.3018
  62   2.0000      -0.398689       -10.8489
  63   2.0000      -0.342027        -9.3070
  64   2.0000      -0.327331        -8.9071
  65   2.0000      -0.322540        -8.7768
  66   2.0000      -0.300641        -8.1809
  67   0.0000       0.034112         0.9282
  68   0.0000       0.059311         1.6139
  69   0.0000       0.113765         3.0957
  70   0.0000       0.119193         3.2434
  71   0.0000       0.129309         3.5187

MULLIKEN ATOMIC CHARGES
-----------------------
   0 S :    0.094075
   1 C :   -0.115839
   2 C :   -0.106132
   3 C :    0.044106
   4 C :   -0.141637
   5 H :    0.027230
   6 C :    0.011507
   7 H :    0.026655
   8 H :    0.068719
   9 C :   -0.069508
  10 H :    0.034724
  11 H :    0.031249
  12 C :   -0.088974
  13 H :    0.043196
  14 H :    0.031592
  15 H :    0.040648
  16 S :    0.119847
  17 C :   -0.064541
  18 C :   -0.021097
  19 C :   -0.070615
  20 C :   -0.173218
  21 H :    0.017350
  22 C :    0.056789
  23 H :   -0.012890
  24 H :    0.028844
  25 C :   -0.029116
  26 H :    0.035503
  27 H :    0.026074
  28 C :   -0.036828
  29 H :    0.030254
  30 H :    0.038065
  31 H :    0.022353
  32 H :    0.064543
  33 H :    0.037071
Sum of atomic charges:    0.0000000

LOEWDIN ATOMIC CHARGES
----------------------
   0 S :    0.387526
   1 C :   -0.199152
   2 C :   -0.066996
   3 C :   -0.061800
   4 C :   -0.197726
   5 H :    0.037427
   6 C :   -0.036274
   7 H :    0.030272
   8 H :    0.044547
   9 C :   -0.037329
  10 H :    0.023601
  11 H :    0.021476
  12 C :   -0.077778
  13 H :    0.034021
  14 H :    0.017449
  15 H :    0.033158
  16 S :    0.426728
  17 C :   -0.187134
  18 C :   -0.070021
  19 C :   -0.045126
  20 C :   -0.206353
  21 H :    0.029408
  22 C :   -0.037906
  23 H :    0.016172
  24 H :    0.033053
  25 C :   -0.029915
  26 H :    0.027213
  27 H :    0.024081
  28 C :   -0.062812
  29 H :    0.021330
  30 H :    0.029952
  31 H :    0.024287
  32 H :    0.037662
  33 H :    0.016959

  Mayer bond orders larger than 0.100000
B(  0-S ,  1-C ) :   1.1139 B(  0-S ,  4-C ) :   1.1473 B(  1-C ,  2-C ) :   1.6191
B(  1-C , 32-H ) :   0.9702 B(  2-C ,  3-C ) :   1.2140 B(  2-C ,  6-C ) :   1.0211
B(  3-C ,  4-C ) :   1.5846 B(  3-C ,  5-H ) :   0.9984 B(  4-C , 20-C ) :   1.0157
B(  6-C ,  7-H ) :   0.9517 B(  6-C ,  8-H ) :   0.9467 B(  6-C ,  9-C ) :   1.0467
B(  9-C , 10-H ) :   0.9605 B(  9-C , 11-H ) :   0.9541 B(  9-C , 12-C ) :   1.0815
B( 12-C , 13-H ) :   0.9748 B( 12-C , 14-H ) :   0.9767 B( 12-C , 15-H ) :   0.9741
B( 16-S , 17-C ) :   1.1685 B( 16-S , 20-C ) :   1.1654 B( 17-C , 18-C ) :   1.5919
B( 17-C , 33-H ) :   0.9740 B( 18-C , 19-C ) :   1.2590 B( 18-C , 21-H ) :   0.9883
B( 19-C , 20-C ) :   1.5658 B( 19-C , 22-C ) :   1.0396 B( 22-C , 23-H ) :   0.9223
B( 22-C , 24-H ) :   0.9352 B( 22-C , 25-C ) :   1.0629 B( 25-C , 26-H ) :   0.9600
B( 25-C , 27-H ) :   0.9518 B( 25-C , 28-C ) :   1.0749 B( 28-C , 29-H ) :   0.9736
B( 28-C , 30-H ) :   0.9757 B( 28-C , 31-H ) :   0.9730

Dispersion correction           -0.013891347
FINAL SINGLE POINT ENERGY     -1339.857348892250

DIPOLE MOMENT
-------------
                                X             Y             Z
Electronic contribution:     17.01957      15.87376      -9.49814
Nuclear contribution   :    -17.24838     -16.43322       9.58460
                        -----------------------------------------
Total Dipole Moment    :     -0.22882      -0.55946       0.08646
                        -----------------------------------------
Magnitude (a.u.)       :      0.61060
Magnitude (Debye)      :      1.55201

Rotational constants in cm-1:     0.017120     0.008093     0.007153
Rotational constants in MHz :   513.246909   242.636124   214.452999

                             ****ORCA TERMINATED NORMALLY****
TOTAL RUN TIME: 0 days 0 hours 0 minutes 20 seconds 123 msec
