                         Program Version 4.2.1 -  RELEASE  -
|  1> ! wB97X-D3 SP def2-SVP
|  2> %pal
|  3> nprocs 24
|  4> end
|  5>
|  6> * xyz 0 1
|  7> S 	 -96.6413 	 -0.882383 	 -117.68
|  8> C 	 -95.3746 	 -2.03929 	 -118.169
|  9> C 	 -95.6224 	 -2.62014 	 -119.388
| 10> C 	 -96.769 	 -2.02771 	 -119.986
| 11> C 	 -97.5457 	 -1.21733 	 -119.172
| 12> H 	 -97.1008 	 -2.10708 	 -120.999
| 13> C 	 -94.7727 	 -3.73875 	 -120.013
| 14> H 	 -94.2015 	 -4.30456 	 -119.273
| 15> H 	 -94.0462 	 -3.35247 	 -120.697
| 16> C 	 -95.4587 	 -4.70421 	 -121.074
| 17> H 	 -96.1075 	 -4.07908 	 -121.736
| 18> H 	 -94.7541 	 -5.13888 	 -121.718
| 19> C 	 -96.2806 	 -5.79658 	 -120.374
| 20> H 	 -95.5778 	 -6.48084 	 -119.798
| 21> H 	 -96.8982 	 -5.40178 	 -119.523
| 22> H 	 -96.8117 	 -6.27534 	 -121.212
| 23> S 	 -100.017 	 -0.529127 	 -118.024
| 24> C 	 -101.276 	 -0.02698 	 -119.147
| 25> C 	 -100.834 	 0.224351 	 -120.449
| 26> C 	 -99.5136 	 -0.207096 	 -120.572
| 27> C 	 -98.9034 	 -0.673967 	 -119.405
| 28> H 	 -101.367 	 0.789074 	 -121.164
| 29> C 	 -98.8079 	 -0.101204 	 -121.88
| 30> H 	 -97.696 	 -0.20463 	 -121.828
| 31> H 	 -98.9706 	 1.00903 	 -122.144
| 32> C 	 -99.4516 	 -0.970211 	 -123.005
| 33> H 	 -100.363 	 -0.493838 	 -123.324
| 34> H 	 -99.8149 	 -1.9237 	 -122.571
| 35> C 	 -98.5154 	 -1.1678 	 -124.143
| 36> H 	 -98.7094 	 -2.0124 	 -124.719
| 37> H 	 -97.5603 	 -1.38068 	 -123.711
| 38> H 	 -98.4486 	 -0.411905 	 -124.869
| 39> H 	 -94.5008 	 -2.20921 	 -117.552
| 40> H 	 -102.235 	 0.260857 	 -118.819
| 41> *
| 42>
| 43>                          ****END OF INPUT****

CARTESIAN COORDINATES (ANGSTROEM)
---------------------------------
  S    -96.641300   -0.882383  -117.680000
  C    -95.374600   -2.039290  -118.169000
  C    -95.622400   -2.620140  -119.388000
  C    -96.769000   -2.027710  -119.986000
  C    -97.545700   -1.217330  -119.172000
  H    -97.100800   -2.107080  -120.999000
  C    -94.772700   -3.738750  -120.013000
  H    -94.201500   -4.304560  -119.273000
  H    -94.046200   -3.352470  -120.697000
  C    -95.458700   -4.704210  -121.074000
  H    -96.107500   -4.079080  -121.736000
  H    -94.754100   -5.138880  -121.718000
  C    -96.280600   -5.796580  -120.374000
  H    -95.577800   -6.480840  -119.798000
  H    -96.898200   -5.401780  -119.523000
  H    -96.811700   -6.275340  -121.212000
  S    -100.017000   -0.529127  -118.024000
  C    -101.276000   -0.026980  -119.147000
  C    -100.834000    0.224351  -120.449000
  C    -99.513600   -0.207096  -120.572000
  C    -98.903400   -0.673967  -119.405000
  H    -101.367000    0.789074  -121.164000
  C    -98.807900   -0.101204  -121.880000
  H    -97.696000   -0.204630  -121.828000
  H    -98.970600    1.009030  -122.144000
  C    -99.451600   -0.970211  -123.005000
  H    -100.363000   -0.493838  -123.324000
  H    -99.814900   -1.923700  -122.571000
  C    -98.515400   -1.167800  -124.143000
  H    -98.709400   -2.012400  -124.719000
  H    -97.560300   -1.380680  -123.711000
  H    -98.448600   -0.411905  -124.869000
  H    -94.500800   -2.209210  -117.552000
  H    -102.235000    0.260857  -118.819000

 Total Charge           Charge          ....    0
 Multiplicity           Mult            ....    1
 Number of Electrons    NEL             ....  134
 Basis Dimension        Dim             ....  322

ORBITAL ENERGIES
----------------

  NO   OCC          E(Eh)            E(eV)
   0   2.0000     -88.970440     -2421.0088
   1   2.0000     -88.964575     -2420.8492
   2   2.0000     -10.333969      -281.2016
   3   2.0000     -10.330437      -281.1055
   4   2.0000     -10.319583      -280.8101
   5   2.0000     -10.314807      -280.6802
   6   2.0000     -10.306322      -280.4493
   7   2.0000     -10.300088      -280.2796
   8   2.0000     -10.297311      -280.2041
   9   2.0000     -10.295576      -280.1569
  10   2.0000     -10.293671      -280.1050
  11   2.0000     -10.292107      -280.0625
  12   2.0000     -10.290079      -280.0073
  13   2.0000     -10.286973      -279.9228
  14   2.0000     -10.283087      -279.8170
  15   2.0000     -10.265915      -279.3497
  16   2.0000      -8.084370      -219.9869
  17   2.0000      -8.078471      -219.8264
  18   2.0000      -6.042884      -164.4352
  19   2.0000      -6.039125      -164.3329
  20   2.0000      -6.037073      -164.2771
  21   2.0000      -6.035044      -164.2219
  22   2.0000      -6.033231      -164.1726
  23   2.0000      -6.029067      -164.0592
  24   2.0000      -1.002476       -27.2788
  25   2.0000      -0.981741       -26.7145
  26   2.0000      -0.913741       -24.8641
  27   2.0000      -0.904696       -24.6180
  28   2.0000      -0.867166       -23.5968
  29   2.0000      -0.861009       -23.4293
  30   2.0000      -0.840895       -22.8819
  31   2.0000      -0.814841       -22.1730
  32   2.0000      -0.782773       -21.3003
  33   2.0000      -0.770876       -20.9766
  34   2.0000      -0.709743       -19.3131
  35   2.0000      -0.700973       -19.0744
  36   2.0000      -0.691736       -18.8231
  37   2.0000      -0.665250       -18.1024
  38   2.0000      -0.643192       -17.5022
  39   2.0000      -0.622324       -16.9343
  40   2.0000      -0.600274       -16.3343
  41   2.0000      -0.568443       -15.4681
  42   2.0000      -0.565656       -15.3923
  43   2.0000      -0.545876       -14.8540
  44   2.0000      -0.533014       -14.5041
  45   2.0000      -0.529869       -14.4185
  46   2.0000      -0.524371       -14.2689
  47   2.0000      -0.517825       -14.0907
  48   2.0000      -0.505793       -13.7633
  49   2.0000      -0.495741       -13.4898
  50   2.0000      -0.490473       -13.3465
  51   2.0000      -0.480865       -13.0850
  52   2.0000      -0.474985       -12.9250
  53   2.0000      -0.464523       -12.6403
  54   2.0000      -0.459479       -12.5031
  55   2.0000      -0.453213       -12.3326
  56   2.0000      -0.442039       -12.0285
  57   2.0000      -0.439833       -11.9685
  58   2.0000      -0.434376       -11.8200
  59   2.0000      -0.427974       -11.6458
  60   2.0000      -0.418251       -11.3812
  61   2.0000      -0.410240       -11.1632
  62   2.0000      -0.408990       -11.1292
  63   2.0000      -0.351396        -9.5620
  64   2.0000      -0.334286        -9.0964
  65   2.0000      -0.327990        -8.9251
  66   2.0000      -0.280919        -7.6442
  67   0.0000       0.023713         0.6453
  68   0.0000       0.065505         1.7825
  69   0.0000       0.107157         2.9159
  70   0.0000       0.117690         3.2025
  71   0.0000       0.123512         3.3609

MULLIKEN ATOMIC CHARGES
-----------------------
   0 S :    0.089505
   1 C :   -0.141435
   2 C :   -0.027003
   3 C :    0.013261
   4 C :   -0.140223
   5 H :   -0.010579
   6 C :    0.059575
   7 H :    0.024370
   8 H :    0.031194
   9 C :   -0.087404
  10 H :    0.027432
  11 H :    0.021249
  12 C :   -0.072731
  13 H :    0.031808
  14 H :    0.052028
  15 H :    0.048343
  16 S :    0.109085
  17 C :   -0.069138
  18 C :   -0.015322
  19 C :   -0.025774
  20 C :   -0.130613
  21 H :    0.012417
  22 C :   -0.028072
  23 H :    0.037777
  24 H :    0.043651
  25 C :   -0.067901
  26 H :    0.019763
  27 H :    0.037925
  28 C :    0.030911
  29 H :    0.008331
  30 H :    0.007030
  31 H :    0.021906
  32 H :    0.049121
  33 H :    0.039512
Sum of atomic charges:    0.0000000

LOEWDIN ATOMIC CHARGES
----------------------
   0 S :    0.371301
   1 C :   -0.182955
   2 C :   -0.060156
   3 C :   -0.068948
   4 C :   -0.174303
   5 H :    0.021824
   6 C :   -0.030993
   7 H :    0.029409
   8 H :    0.032753
   9 C :   -0.036254
  10 H :    0.024042
  11 H :    0.016631
  12 C :   -0.076401
  13 H :    0.028632
  14 H :    0.033880
  15 H :    0.029209
  16 S :    0.395886
  17 C :   -0.162669
  18 C :   -0.061090
  19 C :   -0.057780
  20 C :   -0.194311
  21 H :    0.029875
  22 C :   -0.041356
  23 H :    0.029441
  24 H :    0.042562
  25 C :   -0.039610
  26 H :    0.020747
  27 H :    0.029096
  28 C :   -0.057187
  29 H :    0.021667
  30 H :    0.022166
  31 H :    0.022248
  32 H :    0.026912
  33 H :    0.015731

  Mayer bond orders larger than 0.100000
B(  0-S ,  1-C ) :   1.1238 B(  0-S ,  4-C ) :   1.1360 B(  1-C ,  2-C ) :   1.6258
B(  1-C , 32-H ) :   0.9698 B(  2-C ,  3-C ) :   1.2235 B(  2-C ,  6-C ) :   1.0177
B(  3-C ,  4-C ) :   1.5947 B(  3-C ,  5-H ) :   0.9897 B(  4-C , 20-C ) :   1.0544
B(  6-C ,  7-H ) :   0.9504 B(  6-C ,  8-H ) :   0.9339 B(  6-C ,  9-C ) :   1.0698
B(  9-C , 10-H ) :   0.9523 B(  9-C , 11-H ) :   0.9575 B(  9-C , 12-C ) :   1.0695
B( 12-C , 13-H ) :   0.9737 B( 12-C , 14-H ) :   0.9776 B( 12-C , 15-H ) :   0.9751
B( 16-S , 17-C ) :   1.1711 B( 16-S , 20-C ) :   1.1197 B( 17-C , 18-C ) :   1.5798
B( 17-C , 20-C ) :   0.1025 B( 17-C , 33-H ) :   0.9692 B( 18-C , 19-C ) :   1.2591
B( 18-C , 21-H ) :   0.9968 B( 19-C , 20-C ) :   1.5798 B( 19-C , 22-C ) :   1.0457
B( 22-C , 23-H ) :   0.9482 B( 22-C , 24-H ) :   0.9301 B( 22-C , 25-C ) :   1.0381
B( 25-C , 26-H ) :   0.9468 B( 25-C , 27-H ) :   0.9619 B( 25-C , 28-C ) :   1.0945
B( 28-C , 29-H ) :   0.9655 B( 28-C , 30-H ) :   0.9723 B( 28-C , 31-H ) :   0.9705

Dispersion correction           -0.014310409
FINAL SINGLE POINT ENERGY     -1339.860093404011

DIPOLE MOMENT
-------------
                                X             Y             Z
Electronic contribution:     -6.72388      14.63301      25.47494
Nuclear contribution   :      6.80889     -14.73714     -26.24282
                        -----------------------------------------
Total Dipole Moment    :      0.08502      -0.10414      -0.76788
                        -----------------------------------------
Magnitude (a.u.)       :      0.77956
Magnitude (Debye)      :      1.98148

Rotational constants in cm-1:     0.015895     0.010037     0.007148
Rotational constants in MHz :   476.534036   300.895477   214.302398

                             ****ORCA TERMINATED NORMALLY****
TOTAL RUN TIME: 0 days 0 hours 0 minutes 22 seconds 82 msec
