                         Program Version 4.2.1 -  RELEASE  -
|  1> ! wB97X-D3 SP def2-SVP
|  2> %pal
|  3> nprocs 24
|  4> end
|  5>
|  6> * xyz 0 1
|  7> S 	 -103.344 	 -4.1856 	 -101.468
|  8> C 	 -104.35 	 -4.98457 	 -102.597
|  9> C 	 -105.141 	 -4.08334 	 -103.32
| 10> C 	 -105.029 	 -2.81697 	 -102.687
| 11> C 	 -104.134 	 -2.63291 	 -101.636
| 12> H 	 -105.668 	 -2.01288 	 -102.943
| 13> C 	 -105.88 	 -4.39706 	 -104.548
| 14> H 	 -106.946 	 -4.46319 	 -104.351
| 15> H 	 -105.65 	 -5.35713 	 -104.959
| 16> C 	 -105.79 	 -3.38547 	 -105.662
| 17> H 	 -106.177 	 -2.44425 	 -105.296
| 18> H 	 -104.712 	 -3.29055 	 -105.848
| 19> C 	 -106.605 	 -3.84303 	 -106.964
| 20> H 	 -106.622 	 -2.93791 	 -107.56
| 21> H 	 -106.009 	 -4.63181 	 -107.504
| 22> H 	 -107.532 	 -4.3738 	 -106.969
| 23> S 	 -102.961 	 -1.75022 	 -99.2738
| 24> C 	 -103.385 	 -0.243672 	 -98.5988
| 25> C 	 -104.131 	 0.570514 	 -99.5049
| 26> C 	 -104.287 	 -0.0921518 	 -100.707
| 27> C 	 -104.041 	 -1.48901 	 -100.685
| 28> H 	 -104.401 	 1.53657 	 -99.1706
| 29> C 	 -104.931 	 0.666314 	 -101.891
| 30> H 	 -105.174 	 -0.0135733 	 -102.727
| 31> H 	 -104.128 	 1.36325 	 -102.334
| 32> C 	 -106.077 	 1.53058 	 -101.478
| 33> H 	 -106.249 	 2.04798 	 -102.448
| 34> H 	 -105.613 	 2.37483 	 -100.9
| 35> C 	 -107.373 	 0.878361 	 -101.047
| 36> H 	 -108.175 	 1.54617 	 -101.191
| 37> H 	 -107.388 	 0.63885 	 -99.9963
| 38> H 	 -107.632 	 -0.0345481 	 -101.751
| 39> H 	 -104.244 	 -6.0231 	 -102.882
| 40> H 	 -103.106 	 0.0884946 	 -97.6047
| 41> *
| 42>
| 43>                          ****END OF INPUT****

CARTESIAN COORDINATES (ANGSTROEM)
---------------------------------
  S    -103.344000   -4.185600  -101.468000
  C    -104.350000   -4.984570  -102.597000
  C    -105.141000   -4.083340  -103.320000
  C    -105.029000   -2.816970  -102.687000
  C    -104.134000   -2.632910  -101.636000
  H    -105.668000   -2.012880  -102.943000
  C    -105.880000   -4.397060  -104.548000
  H    -106.946000   -4.463190  -104.351000
  H    -105.650000   -5.357130  -104.959000
  C    -105.790000   -3.385470  -105.662000
  H    -106.177000   -2.444250  -105.296000
  H    -104.712000   -3.290550  -105.848000
  C    -106.605000   -3.843030  -106.964000
  H    -106.622000   -2.937910  -107.560000
  H    -106.009000   -4.631810  -107.504000
  H    -107.532000   -4.373800  -106.969000
  S    -102.961000   -1.750220  -99.273800
  C    -103.385000   -0.243672  -98.598800
  C    -104.131000    0.570514  -99.504900
  C    -104.287000   -0.092152  -100.707000
  C    -104.041000   -1.489010  -100.685000
  H    -104.401000    1.536570  -99.170600
  C    -104.931000    0.666314  -101.891000
  H    -105.174000   -0.013573  -102.727000
  H    -104.128000    1.363250  -102.334000
  C    -106.077000    1.530580  -101.478000
  H    -106.249000    2.047980  -102.448000
  H    -105.613000    2.374830  -100.900000
  C    -107.373000    0.878361  -101.047000
  H    -108.175000    1.546170  -101.191000
  H    -107.388000    0.638850  -99.996300
  H    -107.632000   -0.034548  -101.751000
  H    -104.244000   -6.023100  -102.882000
  H    -103.106000    0.088495  -97.604700

 Total Charge           Charge          ....    0
 Multiplicity           Mult            ....    1
 Number of Electrons    NEL             ....  134
 Basis Dimension        Dim             ....  322

ORBITAL ENERGIES
----------------

  NO   OCC          E(Eh)            E(eV)
   0   2.0000     -88.966606     -2420.9044
   1   2.0000     -88.965041     -2420.8618
   2   2.0000     -10.337460      -281.2966
   3   2.0000     -10.334612      -281.2191
   4   2.0000     -10.320250      -280.8283
   5   2.0000     -10.311446      -280.5887
   6   2.0000     -10.307186      -280.4728
   7   2.0000     -10.298369      -280.2329
   8   2.0000     -10.296852      -280.1916
   9   2.0000     -10.292685      -280.0782
  10   2.0000     -10.292528      -280.0739
  11   2.0000     -10.289252      -279.9848
  12   2.0000     -10.288065      -279.9525
  13   2.0000     -10.286042      -279.8974
  14   2.0000     -10.284048      -279.8432
  15   2.0000     -10.283903      -279.8392
  16   2.0000      -8.081379      -219.9055
  17   2.0000      -8.080202      -219.8735
  18   2.0000      -6.039735      -164.3495
  19   2.0000      -6.038764      -164.3231
  20   2.0000      -6.035868      -164.2443
  21   2.0000      -6.034575      -164.2091
  22   2.0000      -6.032332      -164.1481
  23   2.0000      -6.030955      -164.1106
  24   2.0000      -1.006671       -27.3929
  25   2.0000      -0.988684       -26.9035
  26   2.0000      -0.918138       -24.9838
  27   2.0000      -0.914053       -24.8726
  28   2.0000      -0.865378       -23.5481
  29   2.0000      -0.851220       -23.1629
  30   2.0000      -0.842861       -22.9354
  31   2.0000      -0.812584       -22.1115
  32   2.0000      -0.788063       -21.4443
  33   2.0000      -0.777077       -21.1453
  34   2.0000      -0.713644       -19.4192
  35   2.0000      -0.694892       -18.9090
  36   2.0000      -0.691407       -18.8141
  37   2.0000      -0.655477       -17.8364
  38   2.0000      -0.642053       -17.4711
  39   2.0000      -0.627302       -17.0698
  40   2.0000      -0.597686       -16.2639
  41   2.0000      -0.576671       -15.6920
  42   2.0000      -0.568537       -15.4707
  43   2.0000      -0.555031       -15.1032
  44   2.0000      -0.538186       -14.6448
  45   2.0000      -0.530929       -14.4473
  46   2.0000      -0.523954       -14.2575
  47   2.0000      -0.509188       -13.8557
  48   2.0000      -0.501710       -13.6522
  49   2.0000      -0.496816       -13.5191
  50   2.0000      -0.491667       -13.3790
  51   2.0000      -0.479695       -13.0532
  52   2.0000      -0.474912       -12.9230
  53   2.0000      -0.467432       -12.7195
  54   2.0000      -0.458044       -12.4640
  55   2.0000      -0.448833       -12.2134
  56   2.0000      -0.444225       -12.0880
  57   2.0000      -0.437411       -11.9026
  58   2.0000      -0.434860       -11.8331
  59   2.0000      -0.422915       -11.5081
  60   2.0000      -0.421302       -11.4642
  61   2.0000      -0.412138       -11.2148
  62   2.0000      -0.398927       -10.8553
  63   2.0000      -0.359354        -9.7785
  64   2.0000      -0.333340        -9.0706
  65   2.0000      -0.323635        -8.8066
  66   2.0000      -0.274846        -7.4790
  67   0.0000       0.015122         0.4115
  68   0.0000       0.081759         2.2248
  69   0.0000       0.094872         2.5816
  70   0.0000       0.120203         3.2709
  71   0.0000       0.133654         3.6369

MULLIKEN ATOMIC CHARGES
-----------------------
   0 S :    0.101243
   1 C :   -0.120217
   2 C :   -0.069852
   3 C :   -0.008979
   4 C :   -0.094965
   5 H :   -0.020147
   6 C :    0.101932
   7 H :    0.025155
   8 H :    0.001679
   9 C :   -0.102597
  10 H :    0.030331
  11 H :    0.042771
  12 C :   -0.063849
  13 H :    0.043597
  14 H :    0.029459
  15 H :    0.034860
  16 S :    0.093694
  17 C :   -0.081335
  18 C :   -0.042291
  19 C :   -0.022079
  20 C :   -0.124151
  21 H :    0.009059
  22 C :    0.013300
  23 H :    0.017937
  24 H :    0.047549
  25 C :   -0.106308
  26 H :    0.021826
  27 H :    0.034736
  28 C :   -0.006814
  29 H :    0.023568
  30 H :    0.041565
  31 H :    0.044535
  32 H :    0.048096
  33 H :    0.056693
Sum of atomic charges:    0.0000000

LOEWDIN ATOMIC CHARGES
----------------------
   0 S :    0.418460
   1 C :   -0.203924
   2 C :   -0.064813
   3 C :   -0.069703
   4 C :   -0.196434
   5 H :    0.013456
   6 C :   -0.039117
   7 H :    0.032920
   8 H :    0.024784
   9 C :   -0.028947
  10 H :    0.017884
  11 H :    0.029727
  12 C :   -0.073438
  13 H :    0.029411
  14 H :    0.031888
  15 H :    0.024066
  16 S :    0.412134
  17 C :   -0.187209
  18 C :   -0.074579
  19 C :   -0.055406
  20 C :   -0.182047
  21 H :    0.027285
  22 C :   -0.037618
  23 H :    0.023772
  24 H :    0.045360
  25 C :   -0.060262
  26 H :    0.029409
  27 H :    0.029043
  28 C :   -0.063745
  29 H :    0.021518
  30 H :    0.027076
  31 H :    0.043204
  32 H :    0.027942
  33 H :    0.027902

  Mayer bond orders larger than 0.100000
B(  0-S ,  1-C ) :   1.1682 B(  0-S ,  4-C ) :   1.1404 B(  1-C ,  2-C ) :   1.5598
B(  1-C , 32-H ) :   0.9650 B(  2-C ,  3-C ) :   1.2819 B(  2-C ,  6-C ) :   1.0424
B(  3-C ,  4-C ) :   1.5490 B(  3-C ,  5-H ) :   0.9915 B(  4-C , 20-C ) :   1.0791
B(  6-C ,  7-H ) :   0.9208 B(  6-C ,  8-H ) :   0.9406 B(  6-C ,  9-C ) :   1.0662
B(  9-C , 10-H ) :   0.9555 B(  9-C , 11-H ) :   0.9602 B(  9-C , 12-C ) :   1.0623
B( 12-C , 13-H ) :   0.9780 B( 12-C , 14-H ) :   0.9747 B( 12-C , 15-H ) :   0.9796
B( 16-S , 17-C ) :   1.2097 B( 16-S , 20-C ) :   1.1304 B( 17-C , 18-C ) :   1.5401
B( 17-C , 20-C ) :   0.1153 B( 17-C , 33-H ) :   0.9665 B( 18-C , 19-C ) :   1.2732
B( 18-C , 21-H ) :   1.0033 B( 19-C , 20-C ) :   1.5218 B( 19-C , 22-C ) :   1.0238
B( 22-C , 23-H ) :   0.9446 B( 22-C , 24-H ) :   0.9279 B( 22-C , 25-C ) :   1.0989
B( 25-C , 26-H ) :   0.9477 B( 25-C , 27-H ) :   0.9400 B( 25-C , 28-C ) :   1.0651
B( 28-C , 29-H ) :   0.9717 B( 28-C , 30-H ) :   0.9729 B( 28-C , 31-H ) :   0.9689

Dispersion correction           -0.013771824
FINAL SINGLE POINT ENERGY     -1339.841205404679

DIPOLE MOMENT
-------------
                                X             Y             Z
Electronic contribution:     20.09670      -9.53237      21.77247
Nuclear contribution   :    -20.56397       9.97440     -22.21687
                        -----------------------------------------
Total Dipole Moment    :     -0.46726       0.44204      -0.44440
                        -----------------------------------------
Magnitude (a.u.)       :      0.78181
Magnitude (Debye)      :      1.98719

Rotational constants in cm-1:     0.018337     0.008751     0.006235
Rotational constants in MHz :   549.718229   262.333897   186.909644

                             ****ORCA TERMINATED NORMALLY****
TOTAL RUN TIME: 0 days 0 hours 0 minutes 21 seconds 505 msec
