                         Program Version 4.2.1 -  RELEASE  -
|  1> ! wB97X-D3 SP def2-SVP
|  2> %pal
|  3> nprocs 24
|  4> end
|  5>
|  6> * xyz 0 1
|  7> S 	 -111.98 	 62.8036 	 -67.2926
|  8> C 	 -111.047 	 62.5677 	 -65.8786
|  9> C 	 -111.88 	 62.5089 	 -64.7531
| 10> C 	 -113.25 	 62.5323 	 -65.1487
| 11> C 	 -113.501 	 62.5131 	 -66.5139
| 12> H 	 -114.047 	 62.551 	 -64.4806
| 13> C 	 -111.498 	 62.7066 	 -63.264
| 14> H 	 -111.53 	 61.7038 	 -62.821
| 15> H 	 -112.259 	 63.3508 	 -62.8351
| 16> C 	 -110.114 	 63.3204 	 -63.0282
| 17> H 	 -109.338 	 62.7138 	 -63.5282
| 18> H 	 -110.053 	 64.3118 	 -63.5235
| 19> C 	 -109.805 	 63.3979 	 -61.5381
| 20> H 	 -110.571 	 63.9739 	 -60.9138
| 21> H 	 -109.889 	 62.4522 	 -61.0804
| 22> H 	 -108.796 	 63.7602 	 -61.3632
| 23> S 	 -114.866 	 63.9336 	 -68.4984
| 24> C 	 -116.554 	 63.7416 	 -68.5617
| 25> C 	 -117.008 	 62.7505 	 -67.7804
| 26> C 	 -115.994 	 62.0671 	 -67.0995
| 27> C 	 -114.78 	 62.6779 	 -67.2179
| 28> H 	 -118.043 	 62.5997 	 -67.8868
| 29> C 	 -116.311 	 60.9528 	 -66.0936
| 30> H 	 -116.965 	 61.2795 	 -65.1908
| 31> H 	 -115.382 	 60.5308 	 -65.683
| 32> C 	 -116.815 	 59.6419 	 -66.7338
| 33> H 	 -117.868 	 59.6308 	 -66.9095
| 34> H 	 -116.733 	 58.8085 	 -66.0074
| 35> C 	 -116.034 	 59.1092 	 -67.9007
| 36> H 	 -115.086 	 58.9046 	 -67.5096
| 37> H 	 -115.972 	 59.8055 	 -68.7268
| 38> H 	 -116.325 	 58.0923 	 -68.2232
| 39> H 	 -109.989 	 62.7357 	 -65.7709
| 40> H 	 -117.249 	 64.185 	 -69.3418
| 41> *
| 42>
| 43>                          ****END OF INPUT****

CARTESIAN COORDINATES (ANGSTROEM)
---------------------------------
  S    -111.980000   62.803600  -67.292600
  C    -111.047000   62.567700  -65.878600
  C    -111.880000   62.508900  -64.753100
  C    -113.250000   62.532300  -65.148700
  C    -113.501000   62.513100  -66.513900
  H    -114.047000   62.551000  -64.480600
  C    -111.498000   62.706600  -63.264000
  H    -111.530000   61.703800  -62.821000
  H    -112.259000   63.350800  -62.835100
  C    -110.114000   63.320400  -63.028200
  H    -109.338000   62.713800  -63.528200
  H    -110.053000   64.311800  -63.523500
  C    -109.805000   63.397900  -61.538100
  H    -110.571000   63.973900  -60.913800
  H    -109.889000   62.452200  -61.080400
  H    -108.796000   63.760200  -61.363200
  S    -114.866000   63.933600  -68.498400
  C    -116.554000   63.741600  -68.561700
  C    -117.008000   62.750500  -67.780400
  C    -115.994000   62.067100  -67.099500
  C    -114.780000   62.677900  -67.217900
  H    -118.043000   62.599700  -67.886800
  C    -116.311000   60.952800  -66.093600
  H    -116.965000   61.279500  -65.190800
  H    -115.382000   60.530800  -65.683000
  C    -116.815000   59.641900  -66.733800
  H    -117.868000   59.630800  -66.909500
  H    -116.733000   58.808500  -66.007400
  C    -116.034000   59.109200  -67.900700
  H    -115.086000   58.904600  -67.509600
  H    -115.972000   59.805500  -68.726800
  H    -116.325000   58.092300  -68.223200
  H    -109.989000   62.735700  -65.770900
  H    -117.249000   64.185000  -69.341800

 Total Charge           Charge          ....    0
 Multiplicity           Mult            ....    1
 Number of Electrons    NEL             ....  134
 Basis Dimension        Dim             ....  322

ORBITAL ENERGIES
----------------

  NO   OCC          E(Eh)            E(eV)
   0   2.0000     -88.965500     -2420.8743
   1   2.0000     -88.963509     -2420.8202
   2   2.0000     -10.330993      -281.1206
   3   2.0000     -10.329317      -281.0750
   4   2.0000     -10.312898      -280.6282
   5   2.0000     -10.312829      -280.6263
   6   2.0000     -10.302982      -280.3584
   7   2.0000     -10.302192      -280.3369
   8   2.0000     -10.299674      -280.2684
   9   2.0000     -10.297069      -280.1975
  10   2.0000     -10.292787      -280.0810
  11   2.0000     -10.288696      -279.9697
  12   2.0000     -10.282389      -279.7980
  13   2.0000     -10.281213      -279.7660
  14   2.0000     -10.279613      -279.7225
  15   2.0000     -10.266369      -279.3621
  16   2.0000      -8.081004      -219.8953
  17   2.0000      -8.078927      -219.8388
  18   2.0000      -6.039485      -164.3427
  19   2.0000      -6.037345      -164.2845
  20   2.0000      -6.035375      -164.2309
  21   2.0000      -6.033489      -164.1796
  22   2.0000      -6.031777      -164.1330
  23   2.0000      -6.029584      -164.0733
  24   2.0000      -1.013315       -27.5737
  25   2.0000      -0.992989       -27.0206
  26   2.0000      -0.912909       -24.8415
  27   2.0000      -0.909621       -24.7521
  28   2.0000      -0.871748       -23.7215
  29   2.0000      -0.855389       -23.2763
  30   2.0000      -0.847612       -23.0647
  31   2.0000      -0.816600       -22.2208
  32   2.0000      -0.783876       -21.3304
  33   2.0000      -0.774060       -21.0632
  34   2.0000      -0.711935       -19.3727
  35   2.0000      -0.700630       -19.0651
  36   2.0000      -0.687668       -18.7124
  37   2.0000      -0.657698       -17.8969
  38   2.0000      -0.640100       -17.4180
  39   2.0000      -0.619305       -16.8522
  40   2.0000      -0.595303       -16.1990
  41   2.0000      -0.575294       -15.6545
  42   2.0000      -0.569125       -15.4867
  43   2.0000      -0.552440       -15.0327
  44   2.0000      -0.547596       -14.9009
  45   2.0000      -0.525281       -14.2936
  46   2.0000      -0.515997       -14.0410
  47   2.0000      -0.510514       -13.8918
  48   2.0000      -0.507706       -13.8154
  49   2.0000      -0.494350       -13.4520
  50   2.0000      -0.488413       -13.2904
  51   2.0000      -0.482134       -13.1195
  52   2.0000      -0.473834       -12.8937
  53   2.0000      -0.463909       -12.6236
  54   2.0000      -0.460514       -12.5312
  55   2.0000      -0.448810       -12.2127
  56   2.0000      -0.445327       -12.1180
  57   2.0000      -0.441916       -12.0252
  58   2.0000      -0.432159       -11.7596
  59   2.0000      -0.423175       -11.5152
  60   2.0000      -0.420872       -11.4525
  61   2.0000      -0.412374       -11.2213
  62   2.0000      -0.403140       -10.9700
  63   2.0000      -0.354589        -9.6489
  64   2.0000      -0.336288        -9.1509
  65   2.0000      -0.326480        -8.8840
  66   2.0000      -0.291102        -7.9213
  67   0.0000       0.026389         0.7181
  68   0.0000       0.075416         2.0522
  69   0.0000       0.110061         2.9949
  70   0.0000       0.124604         3.3907
  71   0.0000       0.129366         3.5202

MULLIKEN ATOMIC CHARGES
-----------------------
   0 S :    0.105003
   1 C :   -0.103212
   2 C :   -0.104559
   3 C :    0.035156
   4 C :   -0.133201
   5 H :   -0.014799
   6 C :    0.060552
   7 H :    0.042297
   8 H :    0.037730
   9 C :   -0.116748
  10 H :    0.035559
  11 H :    0.041591
  12 C :   -0.025871
  13 H :    0.032963
  14 H :    0.012212
  15 H :    0.037729
  16 S :    0.099895
  17 C :   -0.105025
  18 C :   -0.027896
  19 C :   -0.013521
  20 C :   -0.144888
  21 H :    0.000372
  22 C :    0.036739
  23 H :    0.062177
  24 H :    0.023116
  25 C :   -0.094612
  26 H :    0.014767
  27 H :    0.019632
  28 C :   -0.015232
  29 H :    0.005555
  30 H :    0.045314
  31 H :    0.028695
  32 H :    0.047769
  33 H :    0.074742
Sum of atomic charges:    0.0000000

LOEWDIN ATOMIC CHARGES
----------------------
   0 S :    0.431023
   1 C :   -0.213385
   2 C :   -0.064469
   3 C :   -0.054422
   4 C :   -0.201637
   5 H :    0.017237
   6 C :   -0.027445
   7 H :    0.035483
   8 H :    0.033090
   9 C :   -0.047723
  10 H :    0.024735
  11 H :    0.028045
  12 C :   -0.066439
  13 H :    0.032941
  14 H :    0.017833
  15 H :    0.027258
  16 S :    0.396107
  17 C :   -0.201061
  18 C :   -0.076038
  19 C :   -0.061158
  20 C :   -0.173847
  21 H :    0.028264
  22 C :   -0.036886
  23 H :    0.044968
  24 H :    0.031108
  25 C :   -0.048385
  26 H :    0.009729
  27 H :    0.027534
  28 C :   -0.059860
  29 H :    0.018810
  30 H :    0.024082
  31 H :    0.031875
  32 H :    0.027040
  33 H :    0.045594

  Mayer bond orders larger than 0.100000
B(  0-S ,  1-C ) :   1.1647 B(  0-S ,  4-C ) :   1.1600 B(  1-C ,  2-C ) :   1.5775
B(  1-C , 32-H ) :   0.9632 B(  2-C ,  3-C ) :   1.2932 B(  2-C ,  6-C ) :   0.9970
B(  3-C ,  4-C ) :   1.5289 B(  3-C ,  5-H ) :   1.0051 B(  4-C , 20-C ) :   1.0530
B(  6-C ,  7-H ) :   0.9312 B(  6-C ,  8-H ) :   0.9526 B(  6-C ,  9-C ) :   1.0806
B(  9-C , 10-H ) :   0.9463 B(  9-C , 11-H ) :   0.9567 B(  9-C , 12-C ) :   1.0882
B( 12-C , 13-H ) :   0.9726 B( 12-C , 14-H ) :   0.9709 B( 12-C , 15-H ) :   0.9725
B( 16-S , 17-C ) :   1.1541 B( 16-S , 20-C ) :   1.1245 B( 17-C , 18-C ) :   1.6523
B( 17-C , 33-H ) :   0.9511 B( 18-C , 19-C ) :   1.1911 B( 18-C , 21-H ) :   1.0047
B( 19-C , 20-C ) :   1.6226 B( 19-C , 22-C ) :   1.0492 B( 22-C , 23-H ) :   0.9459
B( 22-C , 24-H ) :   0.9319 B( 22-C , 25-C ) :   1.0551 B( 25-C , 26-H ) :   0.9560
B( 25-C , 27-H ) :   0.9601 B( 25-C , 28-C ) :   1.0803 B( 28-C , 29-H ) :   0.9710
B( 28-C , 30-H ) :   0.9706 B( 28-C , 31-H ) :   0.9692

Dispersion correction           -0.013820799
FINAL SINGLE POINT ENERGY     -1339.865838455867

DIPOLE MOMENT
-------------
                                X             Y             Z
Electronic contribution:     -1.64815      11.87339     -19.78676
Nuclear contribution   :      1.48278     -11.99778      20.37449
                        -----------------------------------------
Total Dipole Moment    :     -0.16537      -0.12439       0.58773
                        -----------------------------------------
Magnitude (a.u.)       :      0.62309
Magnitude (Debye)      :      1.58378

Rotational constants in cm-1:     0.022898     0.007096     0.006247
Rotational constants in MHz :   686.468481   212.740632   187.292605

                             ****ORCA TERMINATED NORMALLY****
TOTAL RUN TIME: 0 days 0 hours 0 minutes 21 seconds 216 msec
