                         Program Version 4.2.1 -  RELEASE  -
|  1> ! wB97X-D3 SP def2-SVP
|  2> %pal
|  3> nprocs 24
|  4> end
|  5>
|  6> * xyz 0 1
|  7> S 	 -140.637 	 9.40622 	 4.4263
|  8> C 	 -141.879 	 8.32305 	 4.2249
|  9> C 	 -143.01 	 8.57091 	 4.97894
| 10> C 	 -142.749 	 9.67689 	 5.87746
| 11> C 	 -141.464 	 10.0957 	 5.82334
| 12> H 	 -143.43 	 10.1418 	 6.6671
| 13> C 	 -144.283 	 7.73752 	 4.92442
| 14> H 	 -144.318 	 6.93254 	 5.6937
| 15> H 	 -144.295 	 7.27542 	 3.90262
| 16> C 	 -145.601 	 8.4998 	 4.90671
| 17> H 	 -146.019 	 8.69601 	 5.93175
| 18> H 	 -145.423 	 9.51968 	 4.38594
| 19> C 	 -146.643 	 7.50742 	 4.23079
| 20> H 	 -146.656 	 7.63096 	 3.10239
| 21> H 	 -146.5 	 6.45575 	 4.4719
| 22> H 	 -147.663 	 7.75267 	 4.42889
| 23> S 	 -140.833 	 12.735 	 6.2754
| 24> C 	 -140.274 	 13.0994 	 7.88929
| 25> C 	 -140.134 	 12.0279 	 8.72114
| 26> C 	 -140.401 	 10.8077 	 7.99265
| 27> C 	 -140.922 	 11.0537 	 6.72858
| 28> H 	 -139.832 	 12.1936 	 9.73617
| 29> C 	 -140.335 	 9.48363 	 8.69049
| 30> H 	 -139.325 	 9.40594 	 9.01925
| 31> H 	 -140.585 	 8.77499 	 7.90586
| 32> C 	 -141.264 	 9.1531 	 9.84672
| 33> H 	 -142.279 	 9.12343 	 9.59395
| 34> H 	 -141.193 	 9.98304 	 10.5263
| 35> C 	 -141.042 	 7.7525 	 10.4573
| 36> H 	 -139.957 	 7.41935 	 10.5557
| 37> H 	 -141.409 	 6.98302 	 9.76036
| 38> H 	 -141.534 	 7.57097 	 11.4093
| 39> H 	 -141.891 	 7.58815 	 3.4366
| 40> H 	 -140.12 	 14.1701 	 8.14934
| 41> *
| 42>
| 43>                          ****END OF INPUT****

CARTESIAN COORDINATES (ANGSTROEM)
---------------------------------
  S    -140.637000    9.406220    4.426300
  C    -141.879000    8.323050    4.224900
  C    -143.010000    8.570910    4.978940
  C    -142.749000    9.676890    5.877460
  C    -141.464000   10.095700    5.823340
  H    -143.430000   10.141800    6.667100
  C    -144.283000    7.737520    4.924420
  H    -144.318000    6.932540    5.693700
  H    -144.295000    7.275420    3.902620
  C    -145.601000    8.499800    4.906710
  H    -146.019000    8.696010    5.931750
  H    -145.423000    9.519680    4.385940
  C    -146.643000    7.507420    4.230790
  H    -146.656000    7.630960    3.102390
  H    -146.500000    6.455750    4.471900
  H    -147.663000    7.752670    4.428890
  S    -140.833000   12.735000    6.275400
  C    -140.274000   13.099400    7.889290
  C    -140.134000   12.027900    8.721140
  C    -140.401000   10.807700    7.992650
  C    -140.922000   11.053700    6.728580
  H    -139.832000   12.193600    9.736170
  C    -140.335000    9.483630    8.690490
  H    -139.325000    9.405940    9.019250
  H    -140.585000    8.774990    7.905860
  C    -141.264000    9.153100    9.846720
  H    -142.279000    9.123430    9.593950
  H    -141.193000    9.983040   10.526300
  C    -141.042000    7.752500   10.457300
  H    -139.957000    7.419350   10.555700
  H    -141.409000    6.983020    9.760360
  H    -141.534000    7.570970   11.409300
  H    -141.891000    7.588150    3.436600
  H    -140.120000   14.170100    8.149340

 Total Charge           Charge          ....    0
 Multiplicity           Mult            ....    1
 Number of Electrons    NEL             ....  134
 Basis Dimension        Dim             ....  322

ORBITAL ENERGIES
----------------

  NO   OCC          E(Eh)            E(eV)
   0   2.0000     -88.963551     -2420.8213
   1   2.0000     -88.962897     -2420.8035
   2   2.0000     -10.317871      -280.7635
   3   2.0000     -10.317481      -280.7529
   4   2.0000     -10.316590      -280.7287
   5   2.0000     -10.306256      -280.4475
   6   2.0000     -10.301713      -280.3239
   7   2.0000     -10.300679      -280.2957
   8   2.0000     -10.299135      -280.2537
   9   2.0000     -10.296830      -280.1910
  10   2.0000     -10.296715      -280.1879
  11   2.0000     -10.291583      -280.0482
  12   2.0000     -10.284340      -279.8511
  13   2.0000     -10.283264      -279.8218
  14   2.0000     -10.281275      -279.7677
  15   2.0000     -10.280027      -279.7338
  16   2.0000      -8.080110      -219.8710
  17   2.0000      -8.078255      -219.8205
  18   2.0000      -6.038325      -164.3112
  19   2.0000      -6.036571      -164.2634
  20   2.0000      -6.034524      -164.2078
  21   2.0000      -6.032864      -164.1626
  22   2.0000      -6.030896      -164.1090
  23   2.0000      -6.029008      -164.0576
  24   2.0000      -1.012527       -27.5523
  25   2.0000      -0.988252       -26.8917
  26   2.0000      -0.910145       -24.7663
  27   2.0000      -0.908171       -24.7126
  28   2.0000      -0.875944       -23.8357
  29   2.0000      -0.850609       -23.1463
  30   2.0000      -0.846105       -23.0237
  31   2.0000      -0.814139       -22.1538
  32   2.0000      -0.779488       -21.2109
  33   2.0000      -0.765537       -20.8313
  34   2.0000      -0.709532       -19.3073
  35   2.0000      -0.698861       -19.0170
  36   2.0000      -0.685178       -18.6446
  37   2.0000      -0.658768       -17.9260
  38   2.0000      -0.644382       -17.5345
  39   2.0000      -0.615010       -16.7353
  40   2.0000      -0.595521       -16.2050
  41   2.0000      -0.574423       -15.6308
  42   2.0000      -0.566305       -15.4099
  43   2.0000      -0.556707       -15.1488
  44   2.0000      -0.525062       -14.2877
  45   2.0000      -0.518448       -14.1077
  46   2.0000      -0.514377       -13.9969
  47   2.0000      -0.508132       -13.8270
  48   2.0000      -0.501472       -13.6457
  49   2.0000      -0.496939       -13.5224
  50   2.0000      -0.490196       -13.3389
  51   2.0000      -0.471105       -12.8194
  52   2.0000      -0.468028       -12.7357
  53   2.0000      -0.464510       -12.6400
  54   2.0000      -0.458631       -12.4800
  55   2.0000      -0.455761       -12.4019
  56   2.0000      -0.447183       -12.1685
  57   2.0000      -0.437603       -11.9078
  58   2.0000      -0.434329       -11.8187
  59   2.0000      -0.423770       -11.5314
  60   2.0000      -0.420819       -11.4511
  61   2.0000      -0.414000       -11.2655
  62   2.0000      -0.411129       -11.1874
  63   2.0000      -0.340507        -9.2657
  64   2.0000      -0.330878        -9.0036
  65   2.0000      -0.316287        -8.6066
  66   2.0000      -0.306938        -8.3522
  67   0.0000       0.050245         1.3672
  68   0.0000       0.056960         1.5500
  69   0.0000       0.119528         3.2525
  70   0.0000       0.121668         3.3108
  71   0.0000       0.125514         3.4154

MULLIKEN ATOMIC CHARGES
-----------------------
   0 S :    0.137218
   1 C :   -0.101536
   2 C :   -0.093247
   3 C :    0.017953
   4 C :   -0.196465
   5 H :    0.047045
   6 C :    0.047021
   7 H :    0.054186
   8 H :    0.026592
   9 C :   -0.118141
  10 H :    0.041466
  11 H :    0.058667
  12 C :   -0.074454
  13 H :    0.040924
  14 H :    0.043095
  15 H :    0.020984
  16 S :    0.113943
  17 C :   -0.107155
  18 C :   -0.023387
  19 C :   -0.022731
  20 C :   -0.198148
  21 H :    0.018955
  22 C :    0.087970
  23 H :    0.022572
  24 H :    0.025477
  25 C :   -0.018168
  26 H :    0.012245
  27 H :    0.011638
  28 C :   -0.079323
  29 H :    0.030045
  30 H :    0.031236
  31 H :    0.040683
  32 H :    0.037708
  33 H :    0.065131
Sum of atomic charges:    0.0000000

LOEWDIN ATOMIC CHARGES
----------------------
   0 S :    0.431638
   1 C :   -0.215066
   2 C :   -0.075566
   3 C :   -0.057907
   4 C :   -0.207168
   5 H :    0.047519
   6 C :   -0.041146
   7 H :    0.035680
   8 H :    0.035656
   9 C :   -0.049207
  10 H :    0.024883
  11 H :    0.038035
  12 C :   -0.074012
  13 H :    0.033435
  14 H :    0.026772
  15 H :    0.018514
  16 S :    0.402108
  17 C :   -0.179697
  18 C :   -0.072891
  19 C :   -0.043876
  20 C :   -0.210755
  21 H :    0.032615
  22 C :   -0.029938
  23 H :    0.030691
  24 H :    0.031745
  25 C :   -0.034392
  26 H :    0.019641
  27 H :    0.016775
  28 C :   -0.071426
  29 H :    0.028192
  30 H :    0.027766
  31 H :    0.026959
  32 H :    0.023982
  33 H :    0.030443

  Mayer bond orders larger than 0.100000
B(  0-S ,  1-C ) :   1.1649 B(  0-S ,  4-C ) :   1.1272 B(  1-C ,  2-C ) :   1.6256
B(  1-C , 32-H ) :   0.9629 B(  2-C ,  3-C ) :   1.2127 B(  2-C ,  6-C ) :   1.0205
B(  3-C ,  4-C ) :   1.6168 B(  3-C ,  5-H ) :   0.9822 B(  4-C , 20-C ) :   1.0456
B(  6-C ,  7-H ) :   0.9339 B(  6-C ,  8-H ) :   0.9489 B(  6-C ,  9-C ) :   1.0500
B(  9-C , 10-H ) :   0.9538 B(  9-C , 11-H ) :   0.9622 B(  9-C , 12-C ) :   1.0649
B( 12-C , 13-H ) :   0.9733 B( 12-C , 14-H ) :   0.9758 B( 12-C , 15-H ) :   0.9756
B( 16-S , 17-C ) :   1.1542 B( 16-S , 20-C ) :   1.1385 B( 17-C , 18-C ) :   1.6382
B( 17-C , 33-H ) :   0.9603 B( 18-C , 19-C ) :   1.1918 B( 18-C , 21-H ) :   0.9958
B( 19-C , 20-C ) :   1.6205 B( 19-C , 22-C ) :   1.0608 B( 22-C , 23-H ) :   0.9206
B( 22-C , 24-H ) :   0.9262 B( 22-C , 25-C ) :   1.0755 B( 25-C , 26-H ) :   0.9510
B( 25-C , 27-H ) :   0.9542 B( 25-C , 28-C ) :   1.0705 B( 28-C , 29-H ) :   0.9769
B( 28-C , 30-H ) :   0.9754 B( 28-C , 31-H ) :   0.9747

Dispersion correction           -0.014019333
FINAL SINGLE POINT ENERGY     -1339.868672494053

DIPOLE MOMENT
-------------
                                X             Y             Z
Electronic contribution:     17.79345      18.86159     -11.36935
Nuclear contribution   :    -18.20950     -19.14467      11.71750
                        -----------------------------------------
Total Dipole Moment    :     -0.41605      -0.28308       0.34815
                        -----------------------------------------
Magnitude (a.u.)       :      0.61191
Magnitude (Debye)      :      1.55536

Rotational constants in cm-1:     0.016948     0.008357     0.006915
Rotational constants in MHz :   508.084359   250.524521   207.302828

                             ****ORCA TERMINATED NORMALLY****
TOTAL RUN TIME: 0 days 0 hours 0 minutes 21 seconds 336 msec
