                         Program Version 4.2.1 -  RELEASE  -
|  1> ! wB97X-D3 SP def2-SVP
|  2> %pal
|  3> nprocs 24
|  4> end
|  5>
|  6> * xyz 0 1
|  7> S 	 -107.68 	 47.3407 	 -99.1489
|  8> C 	 -108.279 	 48.8648 	 -99.539
|  9> C 	 -107.407 	 49.6303 	 -100.293
| 10> C 	 -106.127 	 48.9709 	 -100.401
| 11> C 	 -106.152 	 47.6933 	 -99.8657
| 12> H 	 -105.233 	 49.3244 	 -100.916
| 13> C 	 -107.645 	 51.0501 	 -100.77
| 14> H 	 -108.649 	 51.1011 	 -101.239
| 15> H 	 -107.046 	 51.0961 	 -101.711
| 16> C 	 -107.253 	 52.1403 	 -99.8095
| 17> H 	 -107.642 	 53.1201 	 -100.167
| 18> H 	 -107.768 	 52.0965 	 -98.7872
| 19> C 	 -105.773 	 52.2677 	 -99.6056
| 20> H 	 -105.485 	 51.4035 	 -99.0084
| 21> H 	 -105.22 	 52.402 	 -100.496
| 22> H 	 -105.571 	 53.0657 	 -98.9173
| 23> S 	 -105.362 	 45.2436 	 -100.854
| 24> C 	 -103.778 	 44.6296 	 -100.402
| 25> C 	 -103.095 	 45.5845 	 -99.6712
| 26> C 	 -103.821 	 46.7783 	 -99.411
| 27> C 	 -105.115 	 46.7314 	 -99.9062
| 28> H 	 -102.078 	 45.3881 	 -99.4685
| 29> C 	 -103.222 	 48.0071 	 -98.7698
| 30> H 	 -103.064 	 48.744 	 -99.5573
| 31> H 	 -102.216 	 47.821 	 -98.4969
| 32> C 	 -104.035 	 48.5749 	 -97.5862
| 33> H 	 -104.342 	 47.6366 	 -96.9431
| 34> H 	 -104.979 	 48.9444 	 -98.0012
| 35> C 	 -103.126 	 49.6145 	 -96.7665
| 36> H 	 -102.275 	 49.0652 	 -96.3561
| 37> H 	 -103.559 	 50.1374 	 -95.9655
| 38> H 	 -102.8 	 50.3439 	 -97.5077
| 39> H 	 -109.284 	 49.2227 	 -99.2391
| 40> H 	 -103.199 	 43.8236 	 -101.005
| 41> *
| 42>
| 43>                          ****END OF INPUT****

CARTESIAN COORDINATES (ANGSTROEM)
---------------------------------
  S    -107.680000   47.340700  -99.148900
  C    -108.279000   48.864800  -99.539000
  C    -107.407000   49.630300  -100.293000
  C    -106.127000   48.970900  -100.401000
  C    -106.152000   47.693300  -99.865700
  H    -105.233000   49.324400  -100.916000
  C    -107.645000   51.050100  -100.770000
  H    -108.649000   51.101100  -101.239000
  H    -107.046000   51.096100  -101.711000
  C    -107.253000   52.140300  -99.809500
  H    -107.642000   53.120100  -100.167000
  H    -107.768000   52.096500  -98.787200
  C    -105.773000   52.267700  -99.605600
  H    -105.485000   51.403500  -99.008400
  H    -105.220000   52.402000  -100.496000
  H    -105.571000   53.065700  -98.917300
  S    -105.362000   45.243600  -100.854000
  C    -103.778000   44.629600  -100.402000
  C    -103.095000   45.584500  -99.671200
  C    -103.821000   46.778300  -99.411000
  C    -105.115000   46.731400  -99.906200
  H    -102.078000   45.388100  -99.468500
  C    -103.222000   48.007100  -98.769800
  H    -103.064000   48.744000  -99.557300
  H    -102.216000   47.821000  -98.496900
  C    -104.035000   48.574900  -97.586200
  H    -104.342000   47.636600  -96.943100
  H    -104.979000   48.944400  -98.001200
  C    -103.126000   49.614500  -96.766500
  H    -102.275000   49.065200  -96.356100
  H    -103.559000   50.137400  -95.965500
  H    -102.800000   50.343900  -97.507700
  H    -109.284000   49.222700  -99.239100
  H    -103.199000   43.823600  -101.005000

 Total Charge           Charge          ....    0
 Multiplicity           Mult            ....    1
 Number of Electrons    NEL             ....  134
 Basis Dimension        Dim             ....  322

ORBITAL ENERGIES
----------------

  NO   OCC          E(Eh)            E(eV)
   0   2.0000     -88.967346     -2420.9245
   1   2.0000     -88.963150     -2420.8104
   2   2.0000     -10.322154      -280.8801
   3   2.0000     -10.321749      -280.8691
   4   2.0000     -10.321604      -280.8651
   5   2.0000     -10.311814      -280.5987
   6   2.0000     -10.301299      -280.3126
   7   2.0000     -10.300978      -280.3039
   8   2.0000     -10.296021      -280.1690
   9   2.0000     -10.295587      -280.1572
  10   2.0000     -10.294533      -280.1285
  11   2.0000     -10.292110      -280.0626
  12   2.0000     -10.290600      -280.0215
  13   2.0000     -10.286440      -279.9083
  14   2.0000     -10.279079      -279.7080
  15   2.0000     -10.271064      -279.4899
  16   2.0000      -8.083622      -219.9665
  17   2.0000      -8.077336      -219.7955
  18   2.0000      -6.041925      -164.4091
  19   2.0000      -6.037759      -164.2958
  20   2.0000      -6.035881      -164.2447
  21   2.0000      -6.034663      -164.2115
  22   2.0000      -6.031867      -164.1354
  23   2.0000      -6.028136      -164.0339
  24   2.0000      -1.013187       -27.5702
  25   2.0000      -0.985007       -26.8034
  26   2.0000      -0.917639       -24.9702
  27   2.0000      -0.902458       -24.5571
  28   2.0000      -0.874047       -23.7840
  29   2.0000      -0.852942       -23.2097
  30   2.0000      -0.841493       -22.8982
  31   2.0000      -0.813782       -22.1441
  32   2.0000      -0.785570       -21.3764
  33   2.0000      -0.770223       -20.9588
  34   2.0000      -0.708911       -19.2905
  35   2.0000      -0.700764       -19.0688
  36   2.0000      -0.689229       -18.7549
  37   2.0000      -0.659486       -17.9455
  38   2.0000      -0.643043       -17.4981
  39   2.0000      -0.612825       -16.6758
  40   2.0000      -0.591485       -16.0951
  41   2.0000      -0.572631       -15.5821
  42   2.0000      -0.559804       -15.2330
  43   2.0000      -0.557058       -15.1583
  44   2.0000      -0.541579       -14.7371
  45   2.0000      -0.518055       -14.0970
  46   2.0000      -0.516566       -14.0565
  47   2.0000      -0.512995       -13.9593
  48   2.0000      -0.499150       -13.5825
  49   2.0000      -0.496078       -13.4990
  50   2.0000      -0.493981       -13.4419
  51   2.0000      -0.483513       -13.1571
  52   2.0000      -0.474406       -12.9092
  53   2.0000      -0.464207       -12.6317
  54   2.0000      -0.454223       -12.3600
  55   2.0000      -0.448984       -12.2175
  56   2.0000      -0.443867       -12.0782
  57   2.0000      -0.440500       -11.9866
  58   2.0000      -0.433136       -11.7862
  59   2.0000      -0.424225       -11.5438
  60   2.0000      -0.417620       -11.3640
  61   2.0000      -0.412197       -11.2165
  62   2.0000      -0.407938       -11.1006
  63   2.0000      -0.343706        -9.3527
  64   2.0000      -0.331796        -9.0286
  65   2.0000      -0.328591        -8.9414
  66   2.0000      -0.292954        -7.9717
  67   0.0000       0.034753         0.9457
  68   0.0000       0.060159         1.6370
  69   0.0000       0.113061         3.0766
  70   0.0000       0.121379         3.3029
  71   0.0000       0.127918         3.4808

MULLIKEN ATOMIC CHARGES
-----------------------
   0 S :    0.146981
   1 C :   -0.127379
   2 C :   -0.105452
   3 C :    0.023722
   4 C :   -0.204317
   5 H :    0.018057
   6 C :    0.068615
   7 H :    0.030433
   8 H :    0.021368
   9 C :   -0.072980
  10 H :    0.024555
  11 H :    0.034290
  12 C :   -0.017402
  13 H :    0.030897
  14 H :    0.027786
  15 H :    0.021656
  16 S :    0.103954
  17 C :   -0.122703
  18 C :   -0.041308
  19 C :   -0.015962
  20 C :   -0.166389
  21 H :    0.004598
  22 C :    0.104401
  23 H :    0.025785
  24 H :   -0.010970
  25 C :   -0.141441
  26 H :    0.048746
  27 H :    0.065556
  28 C :   -0.017345
  29 H :    0.034357
  30 H :    0.028780
  31 H :    0.030355
  32 H :    0.054853
  33 H :    0.093904
Sum of atomic charges:    0.0000000

LOEWDIN ATOMIC CHARGES
----------------------
   0 S :    0.453611
   1 C :   -0.219704
   2 C :   -0.068683
   3 C :   -0.058401
   4 C :   -0.215705
   5 H :    0.033487
   6 C :   -0.042806
   7 H :    0.035530
   8 H :    0.035662
   9 C :   -0.047437
  10 H :    0.023717
  11 H :    0.032719
  12 C :   -0.061077
  13 H :    0.029093
  14 H :    0.019027
  15 H :    0.026823
  16 S :    0.390750
  17 C :   -0.205963
  18 C :   -0.069899
  19 C :   -0.052414
  20 C :   -0.194221
  21 H :    0.024776
  22 C :   -0.032939
  23 H :    0.030493
  24 H :    0.020541
  25 C :   -0.043065
  26 H :    0.034664
  27 H :    0.022347
  28 C :   -0.060832
  29 H :    0.028060
  30 H :    0.017791
  31 H :    0.025940
  32 H :    0.034079
  33 H :    0.054039

  Mayer bond orders larger than 0.100000
B(  0-S ,  1-C ) :   1.1676 B(  0-S ,  4-C ) :   1.1643 B(  1-C ,  2-C ) :   1.5939
B(  1-C , 32-H ) :   0.9638 B(  2-C ,  3-C ) :   1.2500 B(  2-C ,  6-C ) :   1.0209
B(  3-C ,  4-C ) :   1.5558 B(  3-C ,  5-H ) :   0.9934 B(  4-C , 20-C ) :   1.0568
B(  6-C ,  7-H ) :   0.9371 B(  6-C ,  8-H ) :   0.9377 B(  6-C ,  9-C ) :   1.0629
B(  9-C , 10-H ) :   0.9514 B(  9-C , 11-H ) :   0.9538 B(  9-C , 12-C ) :   1.0935
B( 12-C , 13-H ) :   0.9682 B( 12-C , 14-H ) :   0.9725 B( 12-C , 15-H ) :   0.9641
B( 16-S , 17-C ) :   1.1510 B( 16-S , 20-C ) :   1.1428 B( 17-C , 18-C ) :   1.6092
B( 17-C , 20-C ) :   0.1060 B( 17-C , 33-H ) :   0.9487 B( 18-C , 19-C ) :   1.2510
B( 18-C , 21-H ) :   0.9922 B( 19-C , 20-C ) :   1.5777 B( 19-C , 22-C ) :   1.0441
B( 22-C , 23-H ) :   0.9221 B( 22-C , 24-H ) :   0.9286 B( 22-C , 25-C ) :   1.0337
B( 25-C , 26-H ) :   0.9624 B( 25-C , 27-H ) :   0.9517 B( 25-C , 28-C ) :   1.0599
B( 28-C , 29-H ) :   0.9767 B( 28-C , 30-H ) :   0.9792 B( 28-C , 31-H ) :   0.9746

Dispersion correction           -0.016151233
FINAL SINGLE POINT ENERGY     -1339.876996740677

DIPOLE MOMENT
-------------
                                X             Y             Z
Electronic contribution:     -9.82532     -26.62350      -8.36324
Nuclear contribution   :     10.18257      27.32062       8.30829
                        -----------------------------------------
Total Dipole Moment    :      0.35725       0.69712      -0.05495
                        -----------------------------------------
Magnitude (a.u.)       :      0.78526
Magnitude (Debye)      :      1.99596

Rotational constants in cm-1:     0.019018     0.010149     0.007706
Rotational constants in MHz :   570.143563   304.273727   231.008553

                             ****ORCA TERMINATED NORMALLY****
TOTAL RUN TIME: 0 days 0 hours 0 minutes 23 seconds 200 msec
