                         Program Version 4.2.1 -  RELEASE  -
|  1> ! wB97X-D3 SP def2-SVP
|  2> %pal
|  3> nprocs 24
|  4> end
|  5>
|  6> * xyz 0 1
|  7> S 	 -149.696 	 12.3266 	 -6.89113
|  8> C 	 -149.501 	 10.6161 	 -6.60951
|  9> C 	 -148.955 	 9.99562 	 -7.74691
| 10> C 	 -148.552 	 10.8707 	 -8.77125
| 11> C 	 -148.784 	 12.229 	 -8.41416
| 12> H 	 -148.191 	 10.6896 	 -9.75517
| 13> C 	 -148.641 	 8.5796 	 -7.88345
| 14> H 	 -148.733 	 8.35384 	 -8.93944
| 15> H 	 -149.375 	 7.97293 	 -7.39912
| 16> C 	 -147.322 	 8.11758 	 -7.26345
| 17> H 	 -147.223 	 7.0491 	 -7.48098
| 18> H 	 -146.529 	 8.56857 	 -7.78085
| 19> C 	 -147.152 	 8.13451 	 -5.73149
| 20> H 	 -146.135 	 7.80316 	 -5.45897
| 21> H 	 -147.139 	 9.14369 	 -5.38188
| 22> H 	 -147.97 	 7.5973 	 -5.27338
| 23> S 	 -146.997 	 14.034 	 -9.36565
| 24> C 	 -147.547 	 15.2459 	 -10.4574
| 25> C 	 -148.911 	 15.0717 	 -10.7708
| 26> C 	 -149.561 	 14.0809 	 -9.99701
| 27> C 	 -148.63 	 13.3579 	 -9.21924
| 28> H 	 -149.271 	 15.7108 	 -11.5987
| 29> C 	 -151.032 	 13.8822 	 -10.0408
| 30> H 	 -151.189 	 12.8431 	 -9.65579
| 31> H 	 -151.086 	 13.9288 	 -11.0983
| 32> C 	 -151.814 	 14.8868 	 -9.16308
| 33> H 	 -151.461 	 14.9924 	 -8.17917
| 34> H 	 -152.728 	 14.2958 	 -8.99586
| 35> C 	 -152.162 	 16.2879 	 -9.77408
| 36> H 	 -152.881 	 16.1872 	 -10.6318
| 37> H 	 -151.261 	 16.8206 	 -10.0355
| 38> H 	 -152.673 	 16.8217 	 -8.94087
| 39> H 	 -149.814 	 10.0559 	 -5.75937
| 40> H 	 -146.875 	 15.9043 	 -10.9482
| 41> *
| 42>
| 43>                          ****END OF INPUT****

CARTESIAN COORDINATES (ANGSTROEM)
---------------------------------
  S    -149.696000   12.326600   -6.891130
  C    -149.501000   10.616100   -6.609510
  C    -148.955000    9.995620   -7.746910
  C    -148.552000   10.870700   -8.771250
  C    -148.784000   12.229000   -8.414160
  H    -148.191000   10.689600   -9.755170
  C    -148.641000    8.579600   -7.883450
  H    -148.733000    8.353840   -8.939440
  H    -149.375000    7.972930   -7.399120
  C    -147.322000    8.117580   -7.263450
  H    -147.223000    7.049100   -7.480980
  H    -146.529000    8.568570   -7.780850
  C    -147.152000    8.134510   -5.731490
  H    -146.135000    7.803160   -5.458970
  H    -147.139000    9.143690   -5.381880
  H    -147.970000    7.597300   -5.273380
  S    -146.997000   14.034000   -9.365650
  C    -147.547000   15.245900  -10.457400
  C    -148.911000   15.071700  -10.770800
  C    -149.561000   14.080900   -9.997010
  C    -148.630000   13.357900   -9.219240
  H    -149.271000   15.710800  -11.598700
  C    -151.032000   13.882200  -10.040800
  H    -151.189000   12.843100   -9.655790
  H    -151.086000   13.928800  -11.098300
  C    -151.814000   14.886800   -9.163080
  H    -151.461000   14.992400   -8.179170
  H    -152.728000   14.295800   -8.995860
  C    -152.162000   16.287900   -9.774080
  H    -152.881000   16.187200  -10.631800
  H    -151.261000   16.820600  -10.035500
  H    -152.673000   16.821700   -8.940870
  H    -149.814000   10.055900   -5.759370
  H    -146.875000   15.904300  -10.948200

 Total Charge           Charge          ....    0
 Multiplicity           Mult            ....    1
 Number of Electrons    NEL             ....  134
 Basis Dimension        Dim             ....  322

ORBITAL ENERGIES
----------------

  NO   OCC          E(Eh)            E(eV)
   0   2.0000     -88.968324     -2420.9512
   1   2.0000     -88.963489     -2420.8196
   2   2.0000     -10.325539      -280.9722
   3   2.0000     -10.317437      -280.7517
   4   2.0000     -10.313213      -280.6368
   5   2.0000     -10.312928      -280.6290
   6   2.0000     -10.301008      -280.3047
   7   2.0000     -10.295477      -280.1542
   8   2.0000     -10.294497      -280.1275
   9   2.0000     -10.294055      -280.1155
  10   2.0000     -10.287824      -279.9459
  11   2.0000     -10.285203      -279.8746
  12   2.0000     -10.284473      -279.8547
  13   2.0000     -10.281144      -279.7642
  14   2.0000     -10.279033      -279.7067
  15   2.0000     -10.275884      -279.6210
  16   2.0000      -8.082128      -219.9259
  17   2.0000      -8.078301      -219.8217
  18   2.0000      -6.040503      -164.3705
  19   2.0000      -6.036680      -164.2664
  20   2.0000      -6.036571      -164.2635
  21   2.0000      -6.033180      -164.1712
  22   2.0000      -6.032735      -164.1591
  23   2.0000      -6.029381      -164.0678
  24   2.0000      -1.003779       -27.3142
  25   2.0000      -0.980295       -26.6752
  26   2.0000      -0.915438       -24.9103
  27   2.0000      -0.909114       -24.7383
  28   2.0000      -0.869002       -23.6467
  29   2.0000      -0.851779       -23.1781
  30   2.0000      -0.847878       -23.0719
  31   2.0000      -0.808136       -21.9905
  32   2.0000      -0.786317       -21.3968
  33   2.0000      -0.770855       -20.9760
  34   2.0000      -0.714250       -19.4357
  35   2.0000      -0.700722       -19.0676
  36   2.0000      -0.696479       -18.9521
  37   2.0000      -0.660598       -17.9758
  38   2.0000      -0.643999       -17.5241
  39   2.0000      -0.616303       -16.7704
  40   2.0000      -0.587884       -15.9971
  41   2.0000      -0.566584       -15.4175
  42   2.0000      -0.552428       -15.0323
  43   2.0000      -0.546959       -14.8835
  44   2.0000      -0.542534       -14.7631
  45   2.0000      -0.538540       -14.6544
  46   2.0000      -0.525176       -14.2908
  47   2.0000      -0.521576       -14.1928
  48   2.0000      -0.499399       -13.5894
  49   2.0000      -0.494290       -13.4503
  50   2.0000      -0.488387       -13.2897
  51   2.0000      -0.481636       -13.1060
  52   2.0000      -0.473854       -12.8942
  53   2.0000      -0.465516       -12.6673
  54   2.0000      -0.458194       -12.4681
  55   2.0000      -0.447705       -12.1827
  56   2.0000      -0.444932       -12.1072
  57   2.0000      -0.437991       -11.9183
  58   2.0000      -0.432161       -11.7597
  59   2.0000      -0.425060       -11.5665
  60   2.0000      -0.421155       -11.4602
  61   2.0000      -0.408752       -11.1227
  62   2.0000      -0.405625       -11.0376
  63   2.0000      -0.335810        -9.1379
  64   2.0000      -0.328880        -8.9493
  65   2.0000      -0.318143        -8.6571
  66   2.0000      -0.294124        -8.0035
  67   0.0000       0.033526         0.9123
  68   0.0000       0.052400         1.4259
  69   0.0000       0.104922         2.8551
  70   0.0000       0.123848         3.3701
  71   0.0000       0.128853         3.5063

MULLIKEN ATOMIC CHARGES
-----------------------
   0 S :    0.117174
   1 C :   -0.099608
   2 C :   -0.084048
   3 C :    0.051856
   4 C :   -0.196729
   5 H :    0.007911
   6 C :    0.091624
   7 H :    0.019907
   8 H :   -0.000206
   9 C :   -0.053409
  10 H :    0.022763
  11 H :    0.010362
  12 C :   -0.039826
  13 H :    0.038024
  14 H :    0.026986
  15 H :    0.030925
  16 S :    0.119078
  17 C :   -0.093971
  18 C :   -0.076159
  19 C :   -0.007635
  20 C :   -0.204070
  21 H :    0.032551
  22 C :    0.073238
  23 H :    0.035223
  24 H :    0.026656
  25 C :   -0.044545
  26 H :    0.016913
  27 H :    0.026131
  28 C :   -0.058055
  29 H :    0.043974
  30 H :    0.041642
  31 H :    0.041966
  32 H :    0.035302
  33 H :    0.048056
Sum of atomic charges:    0.0000000

LOEWDIN ATOMIC CHARGES
----------------------
   0 S :    0.409400
   1 C :   -0.200304
   2 C :   -0.065194
   3 C :   -0.046946
   4 C :   -0.194933
   5 H :    0.030873
   6 C :   -0.035375
   7 H :    0.034017
   8 H :    0.023490
   9 C :   -0.032967
  10 H :    0.025447
  11 H :    0.013905
  12 C :   -0.061814
  13 H :    0.034345
  14 H :    0.019693
  15 H :    0.023072
  16 S :    0.417582
  17 C :   -0.192058
  18 C :   -0.084663
  19 C :   -0.047080
  20 C :   -0.218569
  21 H :    0.036326
  22 C :   -0.034370
  23 H :    0.037208
  24 H :    0.032813
  25 C :   -0.035491
  26 H :    0.018167
  27 H :    0.029634
  28 C :   -0.065940
  29 H :    0.030608
  30 H :    0.021887
  31 H :    0.033527
  32 H :    0.023432
  33 H :    0.020279

  Mayer bond orders larger than 0.100000
B(  0-S ,  1-C ) :   1.1473 B(  0-S ,  4-C ) :   1.1531 B(  1-C ,  2-C ) :   1.5640
B(  1-C ,  4-C ) :   0.1125 B(  1-C , 32-H ) :   0.9725 B(  2-C ,  3-C ) :   1.2546
B(  2-C ,  6-C ) :   1.0516 B(  3-C ,  4-C ) :   1.5387 B(  3-C ,  5-H ) :   0.9998
B(  4-C , 20-C ) :   1.0659 B(  6-C ,  7-H ) :   0.9322 B(  6-C ,  8-H ) :   0.9260
B(  6-C ,  9-C ) :   1.0756 B(  9-C , 10-H ) :   0.9535 B(  9-C , 11-H ) :   0.9542
B(  9-C , 12-C ) :   1.0807 B( 12-C , 13-H ) :   0.9701 B( 12-C , 14-H ) :   0.9727
B( 12-C , 15-H ) :   0.9743 B( 16-S , 17-C ) :   1.1805 B( 16-S , 20-C ) :   1.1491
B( 17-C , 18-C ) :   1.5787 B( 17-C , 20-C ) :   0.1143 B( 17-C , 33-H ) :   0.9706
B( 18-C , 19-C ) :   1.2508 B( 18-C , 21-H ) :   0.9846 B( 19-C , 20-C ) :   1.5450
B( 19-C , 22-C ) :   1.0232 B( 22-C , 23-H ) :   0.9255 B( 22-C , 24-H ) :   0.9392
B( 22-C , 25-C ) :   1.0579 B( 25-C , 26-H ) :   0.9547 B( 25-C , 27-H ) :   0.9568
B( 25-C , 28-C ) :   1.0709 B( 28-C , 29-H ) :   0.9775 B( 28-C , 30-H ) :   0.9744
B( 28-C , 31-H ) :   0.9728

Dispersion correction           -0.015055721
FINAL SINGLE POINT ENERGY     -1339.861577250715

DIPOLE MOMENT
-------------
                                X             Y             Z
Electronic contribution:      8.00105       8.70209      -0.67170
Nuclear contribution   :     -8.21251      -8.96153       0.39896
                        -----------------------------------------
Total Dipole Moment    :     -0.21146      -0.25944      -0.27274
                        -----------------------------------------
Magnitude (a.u.)       :      0.43176
Magnitude (Debye)      :      1.09744

Rotational constants in cm-1:     0.025192     0.007629     0.006517
Rotational constants in MHz :   755.242759   228.725077   195.363537

                             ****ORCA TERMINATED NORMALLY****
TOTAL RUN TIME: 0 days 0 hours 0 minutes 20 seconds 504 msec
