                         Program Version 4.2.1 -  RELEASE  -
|  1> ! wB97X-D3 SP def2-SVP
|  2> %pal
|  3> nprocs 24
|  4> end
|  5>
|  6> * xyz 0 1
|  7> S 	 -126.961 	 64.2847 	 -56.89
|  8> C 	 -126.037 	 64.7697 	 -58.2958
|  9> C 	 -126.076 	 63.8199 	 -59.2958
| 10> C 	 -126.932 	 62.6927 	 -58.9511
| 11> C 	 -127.617 	 62.8711 	 -57.7748
| 12> H 	 -127.072 	 61.8488 	 -59.597
| 13> C 	 -125.59 	 63.9166 	 -60.6979
| 14> H 	 -125.365 	 62.9808 	 -61.1958
| 15> H 	 -124.64 	 64.5174 	 -60.5309
| 16> C 	 -126.582 	 64.6828 	 -61.636
| 17> H 	 -127.49 	 64.0999 	 -61.8246
| 18> H 	 -126.727 	 65.6657 	 -61.1978
| 19> C 	 -126.131 	 64.8429 	 -63.087
| 20> H 	 -125.184 	 65.3927 	 -63.1949
| 21> H 	 -125.909 	 63.8469 	 -63.4245
| 22> H 	 -126.85 	 65.3613 	 -63.7768
| 23> S 	 -130.095 	 62.7993 	 -56.5723
| 24> C 	 -130.833 	 61.3106 	 -56.1485
| 25> C 	 -130.12 	 60.2317 	 -56.5626
| 26> C 	 -128.831 	 60.6278 	 -57.0575
| 27> C 	 -128.594 	 62.0163 	 -57.1068
| 28> H 	 -130.506 	 59.2402 	 -56.4102
| 29> C 	 -127.775 	 59.6661 	 -57.5017
| 30> H 	 -127.392 	 59.8781 	 -58.4583
| 31> H 	 -128.188 	 58.6311 	 -57.5778
| 32> C 	 -126.607 	 59.4388 	 -56.514
| 33> H 	 -127.123 	 59.1283 	 -55.6258
| 34> H 	 -126.27 	 60.4268 	 -56.2982
| 35> C 	 -125.471 	 58.5871 	 -57.0107
| 36> H 	 -124.763 	 58.3284 	 -56.2104
| 37> H 	 -124.968 	 59.2472 	 -57.7672
| 38> H 	 -125.809 	 57.6305 	 -57.528
| 39> H 	 -125.439 	 65.6331 	 -58.2966
| 40> H 	 -131.787 	 61.1686 	 -55.6962
| 41> *
| 42>
| 43>                          ****END OF INPUT****

CARTESIAN COORDINATES (ANGSTROEM)
---------------------------------
  S    -126.961000   64.284700  -56.890000
  C    -126.037000   64.769700  -58.295800
  C    -126.076000   63.819900  -59.295800
  C    -126.932000   62.692700  -58.951100
  C    -127.617000   62.871100  -57.774800
  H    -127.072000   61.848800  -59.597000
  C    -125.590000   63.916600  -60.697900
  H    -125.365000   62.980800  -61.195800
  H    -124.640000   64.517400  -60.530900
  C    -126.582000   64.682800  -61.636000
  H    -127.490000   64.099900  -61.824600
  H    -126.727000   65.665700  -61.197800
  C    -126.131000   64.842900  -63.087000
  H    -125.184000   65.392700  -63.194900
  H    -125.909000   63.846900  -63.424500
  H    -126.850000   65.361300  -63.776800
  S    -130.095000   62.799300  -56.572300
  C    -130.833000   61.310600  -56.148500
  C    -130.120000   60.231700  -56.562600
  C    -128.831000   60.627800  -57.057500
  C    -128.594000   62.016300  -57.106800
  H    -130.506000   59.240200  -56.410200
  C    -127.775000   59.666100  -57.501700
  H    -127.392000   59.878100  -58.458300
  H    -128.188000   58.631100  -57.577800
  C    -126.607000   59.438800  -56.514000
  H    -127.123000   59.128300  -55.625800
  H    -126.270000   60.426800  -56.298200
  C    -125.471000   58.587100  -57.010700
  H    -124.763000   58.328400  -56.210400
  H    -124.968000   59.247200  -57.767200
  H    -125.809000   57.630500  -57.528000
  H    -125.439000   65.633100  -58.296600
  H    -131.787000   61.168600  -55.696200

 Total Charge           Charge          ....    0
 Multiplicity           Mult            ....    1
 Number of Electrons    NEL             ....  134
 Basis Dimension        Dim             ....  322

ORBITAL ENERGIES
----------------

  NO   OCC          E(Eh)            E(eV)
   0   2.0000     -88.965971     -2420.8871
   1   2.0000     -88.963886     -2420.8304
   2   2.0000     -10.336029      -281.2576
   3   2.0000     -10.329269      -281.0737
   4   2.0000     -10.314435      -280.6701
   5   2.0000     -10.312894      -280.6281
   6   2.0000     -10.307546      -280.4826
   7   2.0000     -10.303705      -280.3781
   8   2.0000     -10.299162      -280.2544
   9   2.0000     -10.296721      -280.1880
  10   2.0000     -10.293292      -280.0947
  11   2.0000     -10.288761      -279.9714
  12   2.0000     -10.285791      -279.8906
  13   2.0000     -10.283696      -279.8336
  14   2.0000     -10.279747      -279.7261
  15   2.0000     -10.274120      -279.5730
  16   2.0000      -8.080239      -219.8745
  17   2.0000      -8.078981      -219.8403
  18   2.0000      -6.038849      -164.3254
  19   2.0000      -6.037430      -164.2868
  20   2.0000      -6.034909      -164.2182
  21   2.0000      -6.033339      -164.1755
  22   2.0000      -6.030812      -164.1067
  23   2.0000      -6.029863      -164.0809
  24   2.0000      -1.005840       -27.3703
  25   2.0000      -0.984979       -26.8026
  26   2.0000      -0.912190       -24.8219
  27   2.0000      -0.911004       -24.7897
  28   2.0000      -0.872671       -23.7466
  29   2.0000      -0.852229       -23.1903
  30   2.0000      -0.847113       -23.0511
  31   2.0000      -0.820456       -22.3257
  32   2.0000      -0.780165       -21.2294
  33   2.0000      -0.768077       -20.9004
  34   2.0000      -0.708268       -19.2729
  35   2.0000      -0.696849       -18.9622
  36   2.0000      -0.690519       -18.7900
  37   2.0000      -0.663676       -18.0596
  38   2.0000      -0.645398       -17.5622
  39   2.0000      -0.623437       -16.9646
  40   2.0000      -0.597900       -16.2697
  41   2.0000      -0.583008       -15.8644
  42   2.0000      -0.569651       -15.5010
  43   2.0000      -0.558961       -15.2101
  44   2.0000      -0.523203       -14.2371
  45   2.0000      -0.519989       -14.1496
  46   2.0000      -0.519216       -14.1286
  47   2.0000      -0.514592       -14.0028
  48   2.0000      -0.510999       -13.9050
  49   2.0000      -0.503070       -13.6892
  50   2.0000      -0.496327       -13.5057
  51   2.0000      -0.479255       -13.0412
  52   2.0000      -0.478449       -13.0192
  53   2.0000      -0.459576       -12.5057
  54   2.0000      -0.454371       -12.3641
  55   2.0000      -0.451890       -12.2966
  56   2.0000      -0.447103       -12.1663
  57   2.0000      -0.432086       -11.7576
  58   2.0000      -0.427313       -11.6278
  59   2.0000      -0.424725       -11.5574
  60   2.0000      -0.422044       -11.4844
  61   2.0000      -0.411642       -11.2014
  62   2.0000      -0.406273       -11.0553
  63   2.0000      -0.352120        -9.5817
  64   2.0000      -0.329571        -8.9681
  65   2.0000      -0.328482        -8.9385
  66   2.0000      -0.293378        -7.9832
  67   0.0000       0.023983         0.6526
  68   0.0000       0.070634         1.9220
  69   0.0000       0.103999         2.8299
  70   0.0000       0.113687         3.0936
  71   0.0000       0.132880         3.6159

MULLIKEN ATOMIC CHARGES
-----------------------
   0 S :    0.099958
   1 C :   -0.104071
   2 C :   -0.066077
   3 C :    0.019633
   4 C :   -0.126216
   5 H :    0.010917
   6 C :    0.026326
   7 H :    0.021250
   8 H :    0.034953
   9 C :   -0.057467
  10 H :    0.036736
  11 H :    0.030931
  12 C :   -0.058196
  13 H :    0.022182
  14 H :    0.016015
  15 H :    0.051385
  16 S :    0.104821
  17 C :   -0.067558
  18 C :   -0.023508
  19 C :   -0.054186
  20 C :   -0.123979
  21 H :    0.014881
  22 C :    0.050264
  23 H :   -0.002117
  24 H :    0.008002
  25 C :   -0.044360
  26 H :    0.011769
  27 H :    0.018393
  28 C :   -0.054927
  29 H :    0.048432
  30 H :    0.038880
  31 H :    0.038188
  32 H :    0.032542
  33 H :    0.046206
Sum of atomic charges:    0.0000000

LOEWDIN ATOMIC CHARGES
----------------------
   0 S :    0.386716
   1 C :   -0.185638
   2 C :   -0.061901
   3 C :   -0.054230
   4 C :   -0.177425
   5 H :    0.027670
   6 C :   -0.036271
   7 H :    0.026530
   8 H :    0.038675
   9 C :   -0.035967
  10 H :    0.030120
  11 H :    0.022723
  12 C :   -0.071870
  13 H :    0.020448
  14 H :    0.018481
  15 H :    0.034361
  16 S :    0.414997
  17 C :   -0.184994
  18 C :   -0.072707
  19 C :   -0.048820
  20 C :   -0.201278
  21 H :    0.033025
  22 C :   -0.032805
  23 H :    0.013538
  24 H :    0.028930
  25 C :   -0.039910
  26 H :    0.017840
  27 H :    0.019045
  28 C :   -0.070147
  29 H :    0.031709
  30 H :    0.033930
  31 H :    0.029071
  32 H :    0.018175
  33 H :    0.027980

  Mayer bond orders larger than 0.100000
B(  0-S ,  1-C ) :   1.1269 B(  0-S ,  4-C ) :   1.1348 B(  1-C ,  2-C ) :   1.6214
B(  1-C , 32-H ) :   0.9758 B(  2-C ,  3-C ) :   1.2097 B(  2-C ,  6-C ) :   1.0428
B(  3-C ,  4-C ) :   1.6019 B(  3-C ,  5-H ) :   0.9977 B(  4-C , 20-C ) :   1.0290
B(  6-C ,  7-H ) :   0.9399 B(  6-C ,  8-H ) :   0.9363 B(  6-C ,  9-C ) :   1.0648
B(  9-C , 10-H ) :   0.9578 B(  9-C , 11-H ) :   0.9562 B(  9-C , 12-C ) :   1.0757
B( 12-C , 13-H ) :   0.9743 B( 12-C , 14-H ) :   0.9729 B( 12-C , 15-H ) :   0.9750
B( 16-S , 17-C ) :   1.1756 B( 16-S , 20-C ) :   1.1302 B( 17-C , 18-C ) :   1.5971
B( 17-C , 33-H ) :   0.9644 B( 18-C , 19-C ) :   1.2574 B( 18-C , 21-H ) :   0.9974
B( 19-C , 20-C ) :   1.5682 B( 19-C , 22-C ) :   1.0584 B( 22-C , 23-H ) :   0.9363
B( 22-C , 24-H ) :   0.9315 B( 22-C , 25-C ) :   1.0549 B( 25-C , 26-H ) :   0.9515
B( 25-C , 27-H ) :   0.9581 B( 25-C , 28-C ) :   1.0750 B( 28-C , 29-H ) :   0.9720
B( 28-C , 30-H ) :   0.9721 B( 28-C , 31-H ) :   0.9744

Dispersion correction           -0.013988909
FINAL SINGLE POINT ENERGY     -1339.875325098631

DIPOLE MOMENT
-------------
                                X             Y             Z
Electronic contribution:    -14.65892      10.13075      18.47795
Nuclear contribution   :     14.79969     -10.51275     -18.92892
                        -----------------------------------------
Total Dipole Moment    :      0.14077      -0.38200      -0.45097
                        -----------------------------------------
Magnitude (a.u.)       :      0.60755
Magnitude (Debye)      :      1.54427

Rotational constants in cm-1:     0.017736     0.008170     0.006976
Rotational constants in MHz :   531.702630   244.932049   209.133713

                             ****ORCA TERMINATED NORMALLY****
TOTAL RUN TIME: 0 days 0 hours 0 minutes 21 seconds 308 msec
