                         Program Version 4.2.1 -  RELEASE  -
|  1> ! wB97X-D3 SP def2-SVP
|  2> %pal
|  3> nprocs 24
|  4> end
|  5>
|  6> * xyz 0 1
|  7> S 	 -120.018 	 55.1263 	 -36.9047
|  8> C 	 -118.689 	 54.2438 	 -37.6278
|  9> C 	 -118.414 	 54.6705 	 -38.8797
| 10> C 	 -119.149 	 55.8566 	 -39.1922
| 11> C 	 -119.874 	 56.3934 	 -38.1576
| 12> H 	 -118.912 	 56.4303 	 -40.0641
| 13> C 	 -117.463 	 54.1219 	 -39.8805
| 14> H 	 -117.972 	 53.8982 	 -40.7704
| 15> H 	 -117.027 	 53.2346 	 -39.5004
| 16> C 	 -116.292 	 55.1242 	 -40.3177
| 17> H 	 -115.517 	 54.548 	 -40.8381
| 18> H 	 -116.632 	 55.6455 	 -41.2386
| 19> C 	 -115.673 	 56.0271 	 -39.1891
| 20> H 	 -114.73 	 56.5946 	 -39.3754
| 21> H 	 -116.473 	 56.6595 	 -38.7108
| 22> H 	 -115.294 	 55.4329 	 -38.3059
| 23> S 	 -122.141 	 58.0094 	 -37.6646
| 24> C 	 -121.916 	 59.662 	 -37.2337
| 25> C 	 -120.593 	 59.9853 	 -37.1132
| 26> C 	 -119.792 	 58.954 	 -37.6454
| 27> C 	 -120.422 	 57.7724 	 -37.8974
| 28> H 	 -120.282 	 60.898 	 -36.6524
| 29> C 	 -118.268 	 59.1077 	 -37.6938
| 30> H 	 -117.916 	 58.2417 	 -38.1725
| 31> H 	 -117.92 	 58.9629 	 -36.6593
| 32> C 	 -117.899 	 60.4249 	 -38.3622
| 33> H 	 -118.332 	 61.2406 	 -37.8137
| 34> H 	 -118.332 	 60.629 	 -39.3497
| 35> C 	 -116.282 	 60.618 	 -38.4552
| 36> H 	 -115.963 	 61.6128 	 -38.9159
| 37> H 	 -115.849 	 59.8083 	 -39.0332
| 38> H 	 -115.85 	 60.5876 	 -37.447
| 39> H 	 -118.14 	 53.3852 	 -37.1957
| 40> H 	 -122.724 	 60.2043 	 -36.7624
| 41> *
| 42>
| 43>                          ****END OF INPUT****

CARTESIAN COORDINATES (ANGSTROEM)
---------------------------------
  S    -120.018000   55.126300  -36.904700
  C    -118.689000   54.243800  -37.627800
  C    -118.414000   54.670500  -38.879700
  C    -119.149000   55.856600  -39.192200
  C    -119.874000   56.393400  -38.157600
  H    -118.912000   56.430300  -40.064100
  C    -117.463000   54.121900  -39.880500
  H    -117.972000   53.898200  -40.770400
  H    -117.027000   53.234600  -39.500400
  C    -116.292000   55.124200  -40.317700
  H    -115.517000   54.548000  -40.838100
  H    -116.632000   55.645500  -41.238600
  C    -115.673000   56.027100  -39.189100
  H    -114.730000   56.594600  -39.375400
  H    -116.473000   56.659500  -38.710800
  H    -115.294000   55.432900  -38.305900
  S    -122.141000   58.009400  -37.664600
  C    -121.916000   59.662000  -37.233700
  C    -120.593000   59.985300  -37.113200
  C    -119.792000   58.954000  -37.645400
  C    -120.422000   57.772400  -37.897400
  H    -120.282000   60.898000  -36.652400
  C    -118.268000   59.107700  -37.693800
  H    -117.916000   58.241700  -38.172500
  H    -117.920000   58.962900  -36.659300
  C    -117.899000   60.424900  -38.362200
  H    -118.332000   61.240600  -37.813700
  H    -118.332000   60.629000  -39.349700
  C    -116.282000   60.618000  -38.455200
  H    -115.963000   61.612800  -38.915900
  H    -115.849000   59.808300  -39.033200
  H    -115.850000   60.587600  -37.447000
  H    -118.140000   53.385200  -37.195700
  H    -122.724000   60.204300  -36.762400

 Total Charge           Charge          ....    0
 Multiplicity           Mult            ....    1
 Number of Electrons    NEL             ....  134
 Basis Dimension        Dim             ....  322

ORBITAL ENERGIES
----------------

  NO   OCC          E(Eh)            E(eV)
   0   2.0000     -88.962431     -2420.7908
   1   2.0000     -88.961304     -2420.7601
   2   2.0000     -10.336987      -281.2837
   3   2.0000     -10.326919      -281.0097
   4   2.0000     -10.314431      -280.6699
   5   2.0000     -10.313763      -280.6518
   6   2.0000     -10.300451      -280.2895
   7   2.0000     -10.298711      -280.2422
   8   2.0000     -10.295787      -280.1626
   9   2.0000     -10.292876      -280.0834
  10   2.0000     -10.292710      -280.0789
  11   2.0000     -10.291461      -280.0449
  12   2.0000     -10.291190      -280.0375
  13   2.0000     -10.290735      -280.0251
  14   2.0000     -10.286777      -279.9174
  15   2.0000     -10.286241      -279.9028
  16   2.0000      -8.077033      -219.7872
  17   2.0000      -8.076978      -219.7857
  18   2.0000      -6.035736      -164.2407
  19   2.0000      -6.035412      -164.2319
  20   2.0000      -6.031702      -164.1310
  21   2.0000      -6.031364      -164.1217
  22   2.0000      -6.027757      -164.0236
  23   2.0000      -6.027418      -164.0144
  24   2.0000      -1.009480       -27.4693
  25   2.0000      -0.991200       -26.9719
  26   2.0000      -0.906784       -24.6748
  27   2.0000      -0.904360       -24.6089
  28   2.0000      -0.865507       -23.5516
  29   2.0000      -0.841731       -22.9047
  30   2.0000      -0.838539       -22.8178
  31   2.0000      -0.818957       -22.2849
  32   2.0000      -0.784628       -21.3508
  33   2.0000      -0.771416       -20.9913
  34   2.0000      -0.710446       -19.3322
  35   2.0000      -0.708912       -19.2905
  36   2.0000      -0.697087       -18.9687
  37   2.0000      -0.659051       -17.9337
  38   2.0000      -0.637036       -17.3346
  39   2.0000      -0.625863       -17.0306
  40   2.0000      -0.597176       -16.2500
  41   2.0000      -0.570920       -15.5355
  42   2.0000      -0.555947       -15.1281
  43   2.0000      -0.550088       -14.9687
  44   2.0000      -0.539057       -14.6685
  45   2.0000      -0.524915       -14.2837
  46   2.0000      -0.510051       -13.8792
  47   2.0000      -0.509104       -13.8534
  48   2.0000      -0.502856       -13.6834
  49   2.0000      -0.499423       -13.5900
  50   2.0000      -0.487328       -13.2609
  51   2.0000      -0.473226       -12.8771
  52   2.0000      -0.469986       -12.7890
  53   2.0000      -0.466132       -12.6841
  54   2.0000      -0.459365       -12.4999
  55   2.0000      -0.451235       -12.2787
  56   2.0000      -0.448385       -12.2012
  57   2.0000      -0.443227       -12.0608
  58   2.0000      -0.437545       -11.9062
  59   2.0000      -0.425984       -11.5916
  60   2.0000      -0.422369       -11.4932
  61   2.0000      -0.406882       -11.0718
  62   2.0000      -0.405573       -11.0362
  63   2.0000      -0.339566        -9.2401
  64   2.0000      -0.330509        -8.9936
  65   2.0000      -0.329299        -8.9607
  66   2.0000      -0.301925        -8.2158
  67   0.0000       0.036799         1.0014
  68   0.0000       0.056903         1.5484
  69   0.0000       0.113877         3.0987
  70   0.0000       0.122352         3.3294
  71   0.0000       0.133033         3.6200

MULLIKEN ATOMIC CHARGES
-----------------------
   0 S :    0.101703
   1 C :   -0.124003
   2 C :   -0.128897
   3 C :    0.062796
   4 C :   -0.168715
   5 H :    0.008666
   6 C :    0.144823
   7 H :    0.026307
   8 H :    0.006863
   9 C :   -0.107155
  10 H :    0.025206
  11 H :    0.027574
  12 C :   -0.077644
  13 H :    0.049162
  14 H :    0.057671
  15 H :    0.027710
  16 S :    0.095178
  17 C :   -0.081379
  18 C :   -0.037321
  19 C :   -0.077372
  20 C :   -0.147335
  21 H :    0.023541
  22 C :    0.156889
  23 H :   -0.019367
  24 H :    0.039049
  25 C :   -0.091317
  26 H :    0.020007
  27 H :    0.034334
  28 C :   -0.071947
  29 H :    0.044636
  30 H :    0.037678
  31 H :    0.032445
  32 H :    0.049861
  33 H :    0.060353
Sum of atomic charges:   -0.0000000

LOEWDIN ATOMIC CHARGES
----------------------
   0 S :    0.377705
   1 C :   -0.191842
   2 C :   -0.073815
   3 C :   -0.054762
   4 C :   -0.171609
   5 H :    0.027855
   6 C :   -0.017225
   7 H :    0.031992
   8 H :    0.023510
   9 C :   -0.048677
  10 H :    0.026214
  11 H :    0.024655
  12 C :   -0.087660
  13 H :    0.033508
  14 H :    0.030727
  15 H :    0.032388
  16 S :    0.410432
  17 C :   -0.184175
  18 C :   -0.070090
  19 C :   -0.052478
  20 C :   -0.208354
  21 H :    0.031688
  22 C :   -0.024793
  23 H :    0.016818
  24 H :    0.039459
  25 C :   -0.037450
  26 H :    0.017714
  27 H :    0.029001
  28 C :   -0.072198
  29 H :    0.031615
  30 H :    0.022484
  31 H :    0.023520
  32 H :    0.035930
  33 H :    0.027913

  Mayer bond orders larger than 0.100000
B(  0-S ,  1-C ) :   1.1235 B(  0-S ,  4-C ) :   1.1276 B(  1-C ,  2-C ) :   1.6587
B(  1-C , 32-H ) :   0.9569 B(  2-C ,  3-C ) :   1.1920 B(  2-C ,  6-C ) :   1.0477
B(  3-C ,  4-C ) :   1.6256 B(  3-C ,  5-H ) :   0.9989 B(  4-C , 20-C ) :   0.9953
B(  6-C ,  7-H ) :   0.9350 B(  6-C ,  8-H ) :   0.9356 B(  6-C ,  9-C ) :   1.0564
B(  9-C , 10-H ) :   0.9567 B(  9-C , 11-H ) :   0.9561 B(  9-C , 12-C ) :   1.0581
B( 12-C , 13-H ) :   0.9737 B( 12-C , 14-H ) :   0.9666 B( 12-C , 15-H ) :   0.9681
B( 16-S , 17-C ) :   1.1765 B( 16-S , 20-C ) :   1.1354 B( 17-C , 18-C ) :   1.6033
B( 17-C , 33-H ) :   0.9610 B( 18-C , 19-C ) :   1.2374 B( 18-C , 21-H ) :   0.9959
B( 19-C , 20-C ) :   1.6253 B( 19-C , 22-C ) :   1.0314 B( 22-C , 23-H ) :   0.9245
B( 22-C , 24-H ) :   0.9259 B( 22-C , 25-C ) :   1.0482 B( 25-C , 26-H ) :   0.9573
B( 25-C , 27-H ) :   0.9605 B( 25-C , 28-C ) :   1.0671 B( 28-C , 29-H ) :   0.9779
B( 28-C , 30-H ) :   0.9791 B( 28-C , 31-H ) :   0.9776

Dispersion correction           -0.015640589
FINAL SINGLE POINT ENERGY     -1339.859953990693

DIPOLE MOMENT
-------------
                                X             Y             Z
Electronic contribution:    -28.61743      -8.19287       9.60081
Nuclear contribution   :     29.31382       8.33948      -9.71330
                        -----------------------------------------
Total Dipole Moment    :      0.69639       0.14661      -0.11248
                        -----------------------------------------
Magnitude (a.u.)       :      0.72049
Magnitude (Debye)      :      1.83135

Rotational constants in cm-1:     0.016457     0.010819     0.007172
Rotational constants in MHz :   493.354430   324.332568   215.009725

                             ****ORCA TERMINATED NORMALLY****
TOTAL RUN TIME: 0 days 0 hours 0 minutes 22 seconds 750 msec
