                         Program Version 4.2.1 -  RELEASE  -
|  1> ! wB97X-D3 SP def2-SVP
|  2> %pal
|  3> nprocs 24
|  4> end
|  5>
|  6> * xyz 0 1
|  7> S 	 -131.931 	 14.0171 	 -15.3366
|  8> C 	 -132.431 	 12.7855 	 -14.1612
|  9> C 	 -132.93 	 11.6612 	 -14.7436
| 10> C 	 -132.743 	 11.6914 	 -16.177
| 11> C 	 -132.173 	 12.8387 	 -16.6893
| 12> H 	 -133.195 	 10.9111 	 -16.8008
| 13> C 	 -133.752 	 10.5014 	 -14.0909
| 14> H 	 -134.785 	 10.4999 	 -14.5069
| 15> H 	 -133.78 	 10.7331 	 -13.0692
| 16> C 	 -133.176 	 9.08725 	 -14.2837
| 17> H 	 -133.042 	 8.99773 	 -15.3916
| 18> H 	 -132.178 	 8.92864 	 -13.8031
| 19> C 	 -134.263 	 8.07617 	 -13.8256
| 20> H 	 -134.554 	 8.25093 	 -12.8194
| 21> H 	 -135.173 	 7.82692 	 -14.3987
| 22> H 	 -133.808 	 7.12333 	 -13.8386
| 23> S 	 -130.47 	 14.2816 	 -18.2046
| 24> C 	 -130.645 	 14.3965 	 -19.8853
| 25> C 	 -131.803 	 13.8318 	 -20.3317
| 26> C 	 -132.427 	 13.034 	 -19.2876
| 27> C 	 -131.83 	 13.2393 	 -18.0536
| 28> H 	 -132.043 	 13.839 	 -21.3956
| 29> C 	 -133.594 	 12.0788 	 -19.6357
| 30> H 	 -134.192 	 12.4259 	 -20.4739
| 31> H 	 -134.212 	 12.1174 	 -18.8252
| 32> C 	 -133.28 	 10.6426 	 -20.0295
| 33> H 	 -132.618 	 10.1941 	 -19.2467
| 34> H 	 -132.733 	 10.5262 	 -20.9469
| 35> C 	 -134.509 	 9.85205 	 -20.2056
| 36> H 	 -134.138 	 8.85206 	 -20.3348
| 37> H 	 -135.12 	 10.107 	 -21.0321
| 38> H 	 -135.15 	 9.89854 	 -19.3492
| 39> H 	 -132.511 	 13.0502 	 -13.137
| 40> H 	 -130.062 	 15.0702 	 -20.417
| 41> *
| 42>
| 43>                          ****END OF INPUT****

CARTESIAN COORDINATES (ANGSTROEM)
---------------------------------
  S    -131.931000   14.017100  -15.336600
  C    -132.431000   12.785500  -14.161200
  C    -132.930000   11.661200  -14.743600
  C    -132.743000   11.691400  -16.177000
  C    -132.173000   12.838700  -16.689300
  H    -133.195000   10.911100  -16.800800
  C    -133.752000   10.501400  -14.090900
  H    -134.785000   10.499900  -14.506900
  H    -133.780000   10.733100  -13.069200
  C    -133.176000    9.087250  -14.283700
  H    -133.042000    8.997730  -15.391600
  H    -132.178000    8.928640  -13.803100
  C    -134.263000    8.076170  -13.825600
  H    -134.554000    8.250930  -12.819400
  H    -135.173000    7.826920  -14.398700
  H    -133.808000    7.123330  -13.838600
  S    -130.470000   14.281600  -18.204600
  C    -130.645000   14.396500  -19.885300
  C    -131.803000   13.831800  -20.331700
  C    -132.427000   13.034000  -19.287600
  C    -131.830000   13.239300  -18.053600
  H    -132.043000   13.839000  -21.395600
  C    -133.594000   12.078800  -19.635700
  H    -134.192000   12.425900  -20.473900
  H    -134.212000   12.117400  -18.825200
  C    -133.280000   10.642600  -20.029500
  H    -132.618000   10.194100  -19.246700
  H    -132.733000   10.526200  -20.946900
  C    -134.509000    9.852050  -20.205600
  H    -134.138000    8.852060  -20.334800
  H    -135.120000   10.107000  -21.032100
  H    -135.150000    9.898540  -19.349200
  H    -132.511000   13.050200  -13.137000
  H    -130.062000   15.070200  -20.417000

 Total Charge           Charge          ....    0
 Multiplicity           Mult            ....    1
 Number of Electrons    NEL             ....  134
 Basis Dimension        Dim             ....  322

ORBITAL ENERGIES
----------------

  NO   OCC          E(Eh)            E(eV)
   0   2.0000     -88.963228     -2420.8125
   1   2.0000     -88.962040     -2420.7802
   2   2.0000     -10.336173      -281.2616
   3   2.0000     -10.325721      -280.9772
   4   2.0000     -10.312313      -280.6123
   5   2.0000     -10.306901      -280.4650
   6   2.0000     -10.306429      -280.4522
   7   2.0000     -10.301539      -280.3191
   8   2.0000     -10.297599      -280.2119
   9   2.0000     -10.295108      -280.1441
  10   2.0000     -10.294866      -280.1375
  11   2.0000     -10.293538      -280.1014
  12   2.0000     -10.284083      -279.8441
  13   2.0000     -10.282302      -279.7957
  14   2.0000     -10.275556      -279.6121
  15   2.0000     -10.268661      -279.4245
  16   2.0000      -8.078790      -219.8351
  17   2.0000      -8.077005      -219.7865
  18   2.0000      -6.037128      -164.2786
  19   2.0000      -6.035797      -164.2424
  20   2.0000      -6.032949      -164.1649
  21   2.0000      -6.031821      -164.1342
  22   2.0000      -6.029656      -164.0753
  23   2.0000      -6.027339      -164.0122
  24   2.0000      -1.010490       -27.4968
  25   2.0000      -0.980993       -26.6942
  26   2.0000      -0.919753       -25.0277
  27   2.0000      -0.907748       -24.7011
  28   2.0000      -0.871742       -23.7213
  29   2.0000      -0.858059       -23.3490
  30   2.0000      -0.840021       -22.8581
  31   2.0000      -0.816552       -22.2195
  32   2.0000      -0.786477       -21.4011
  33   2.0000      -0.776211       -21.1218
  34   2.0000      -0.708371       -19.2757
  35   2.0000      -0.700200       -19.0534
  36   2.0000      -0.694637       -18.9020
  37   2.0000      -0.666583       -18.1386
  38   2.0000      -0.638746       -17.3812
  39   2.0000      -0.624694       -16.9988
  40   2.0000      -0.602056       -16.3828
  41   2.0000      -0.574070       -15.6212
  42   2.0000      -0.567237       -15.4353
  43   2.0000      -0.558327       -15.1928
  44   2.0000      -0.536105       -14.5882
  45   2.0000      -0.524777       -14.2799
  46   2.0000      -0.518727       -14.1153
  47   2.0000      -0.510954       -13.9038
  48   2.0000      -0.506115       -13.7721
  49   2.0000      -0.500095       -13.6083
  50   2.0000      -0.496851       -13.5200
  51   2.0000      -0.481064       -13.0904
  52   2.0000      -0.473895       -12.8953
  53   2.0000      -0.464933       -12.6515
  54   2.0000      -0.460592       -12.5333
  55   2.0000      -0.452533       -12.3140
  56   2.0000      -0.443203       -12.0602
  57   2.0000      -0.442164       -12.0319
  58   2.0000      -0.436296       -11.8722
  59   2.0000      -0.427623       -11.6362
  60   2.0000      -0.420954       -11.4548
  61   2.0000      -0.411671       -11.2021
  62   2.0000      -0.410327       -11.1656
  63   2.0000      -0.357041        -9.7156
  64   2.0000      -0.329691        -8.9714
  65   2.0000      -0.328049        -8.9267
  66   2.0000      -0.289904        -7.8887
  67   0.0000       0.028475         0.7748
  68   0.0000       0.075747         2.0612
  69   0.0000       0.100656         2.7390
  70   0.0000       0.123350         3.3565
  71   0.0000       0.124737         3.3943

MULLIKEN ATOMIC CHARGES
-----------------------
   0 S :    0.080522
   1 C :   -0.125284
   2 C :   -0.069347
   3 C :   -0.006484
   4 C :   -0.107402
   5 H :    0.015288
   6 C :    0.075542
   7 H :    0.047964
   8 H :    0.005491
   9 C :   -0.102123
  10 H :    0.033454
  11 H :    0.051473
  12 C :   -0.033222
  13 H :    0.022766
  14 H :    0.038612
  15 H :    0.014497
  16 S :    0.106854
  17 C :   -0.058632
  18 C :   -0.031083
  19 C :   -0.058184
  20 C :   -0.135181
  21 H :    0.026240
  22 C :    0.096508
  23 H :    0.008393
  24 H :   -0.005030
  25 C :   -0.071300
  26 H :    0.027044
  27 H :    0.020164
  28 C :   -0.004685
  29 H :    0.028475
  30 H :    0.022800
  31 H :    0.013787
  32 H :    0.036730
  33 H :    0.035354
Sum of atomic charges:   -0.0000000

LOEWDIN ATOMIC CHARGES
----------------------
   0 S :    0.359762
   1 C :   -0.179872
   2 C :   -0.063120
   3 C :   -0.071988
   4 C :   -0.164211
   5 H :    0.029305
   6 C :   -0.025417
   7 H :    0.040008
   8 H :    0.018289
   9 C :   -0.038438
  10 H :    0.025988
  11 H :    0.034264
  12 C :   -0.071990
  13 H :    0.019967
  14 H :    0.032712
  15 H :    0.022645
  16 S :    0.440718
  17 C :   -0.188795
  18 C :   -0.069617
  19 C :   -0.047134
  20 C :   -0.211769
  21 H :    0.034400
  22 C :   -0.026511
  23 H :    0.030979
  24 H :    0.014097
  25 C :   -0.039820
  26 H :    0.024684
  27 H :    0.023070
  28 C :   -0.056240
  29 H :    0.030278
  30 H :    0.020513
  31 H :    0.019332
  32 H :    0.019647
  33 H :    0.014262

  Mayer bond orders larger than 0.100000
B(  0-S ,  1-C ) :   1.1169 B(  0-S ,  4-C ) :   1.1224 B(  1-C ,  2-C ) :   1.6570
B(  1-C , 32-H ) :   0.9688 B(  2-C ,  3-C ) :   1.2096 B(  2-C ,  6-C ) :   1.0141
B(  3-C ,  4-C ) :   1.6161 B(  3-C ,  5-H ) :   0.9845 B(  4-C , 20-C ) :   1.0504
B(  6-C ,  7-H ) :   0.9461 B(  6-C ,  8-H ) :   0.9386 B(  6-C ,  9-C ) :   1.0575
B(  9-C , 10-H ) :   0.9581 B(  9-C , 11-H ) :   0.9561 B(  9-C , 12-C ) :   1.0720
B( 12-C , 13-H ) :   0.9749 B( 12-C , 14-H ) :   0.9742 B( 12-C , 15-H ) :   0.9704
B( 16-S , 17-C ) :   1.1743 B( 16-S , 20-C ) :   1.1498 B( 17-C , 18-C ) :   1.6032
B( 17-C , 33-H ) :   0.9720 B( 18-C , 19-C ) :   1.2459 B( 18-C , 21-H ) :   0.9895
B( 19-C , 20-C ) :   1.5843 B( 19-C , 22-C ) :   1.0412 B( 22-C , 23-H ) :   0.9337
B( 22-C , 24-H ) :   0.9271 B( 22-C , 25-C ) :   1.0725 B( 25-C , 26-H ) :   0.9505
B( 25-C , 27-H ) :   0.9495 B( 25-C , 28-C ) :   1.0925 B( 28-C , 29-H ) :   0.9691
B( 28-C , 30-H ) :   0.9707 B( 28-C , 31-H ) :   0.9715

Dispersion correction           -0.013622482
FINAL SINGLE POINT ENERGY     -1339.868641482471

DIPOLE MOMENT
-------------
                                X             Y             Z
Electronic contribution:     17.42060      28.56098       1.33588
Nuclear contribution   :    -17.92114     -29.12398      -1.55317
                        -----------------------------------------
Total Dipole Moment    :     -0.50053      -0.56300      -0.21729
                        -----------------------------------------
Magnitude (a.u.)       :      0.78404
Magnitude (Debye)      :      1.99287

Rotational constants in cm-1:     0.016828     0.009242     0.006289
Rotational constants in MHz :   504.504325   277.078003   188.535339

                             ****ORCA TERMINATED NORMALLY****
TOTAL RUN TIME: 0 days 0 hours 0 minutes 21 seconds 344 msec
