                         Program Version 4.2.1 -  RELEASE  -
|  1> ! wB97X-D3 SP def2-SVP
|  2> %pal
|  3> nprocs 24
|  4> end
|  5>
|  6> * xyz 0 1
|  7> S 	 -43.9845 	 -49.5115 	 -73.2833
|  8> C 	 -44.5963 	 -47.8168 	 -73.4038
|  9> C 	 -45.7657 	 -47.6702 	 -72.6531
| 10> C 	 -46.2252 	 -48.9299 	 -72.1075
| 11> C 	 -45.3879 	 -50.0131 	 -72.4354
| 12> H 	 -47.0732 	 -49.1754 	 -71.4721
| 13> C 	 -46.5375 	 -46.3832 	 -72.5159
| 14> H 	 -45.7919 	 -45.7501 	 -72.224
| 15> H 	 -47.4108 	 -46.3822 	 -71.8284
| 16> C 	 -46.9643 	 -45.756 	 -73.9168
| 17> H 	 -47.4003 	 -44.7758 	 -73.6752
| 18> H 	 -46.1104 	 -45.5769 	 -74.5477
| 19> C 	 -48.0218 	 -46.6453 	 -74.6044
| 20> H 	 -48.6971 	 -47.0661 	 -73.8465
| 21> H 	 -48.6012 	 -46.0498 	 -75.2499
| 22> H 	 -47.6474 	 -47.5648 	 -75.1553
| 23> S 	 -43.8362 	 -52.1866 	 -71.7838
| 24> C 	 -44.6014 	 -53.7527 	 -71.3764
| 25> C 	 -45.9643 	 -53.5692 	 -71.3002
| 26> C 	 -46.4795 	 -52.2848 	 -71.6046
| 27> C 	 -45.4592 	 -51.3892 	 -71.9567
| 28> H 	 -46.5667 	 -54.4361 	 -71.0153
| 29> C 	 -47.9747 	 -51.8507 	 -71.5221
| 30> H 	 -48.4497 	 -52.3127 	 -72.3965
| 31> H 	 -48.1347 	 -50.7687 	 -71.4023
| 32> C 	 -48.6133 	 -52.3552 	 -70.173
| 33> H 	 -48.3988 	 -51.7688 	 -69.2865
| 34> H 	 -48.2671 	 -53.3871 	 -70.0956
| 35> C 	 -50.0966 	 -52.3602 	 -70.3509
| 36> H 	 -50.4389 	 -51.3657 	 -70.4271
| 37> H 	 -50.631 	 -52.6793 	 -69.4618
| 38> H 	 -50.4848 	 -52.9382 	 -71.1613
| 39> H 	 -44.2207 	 -46.9759 	 -73.8681
| 40> H 	 -44.0361 	 -54.5553 	 -70.951
| 41> *
| 42>
| 43>                          ****END OF INPUT****

CARTESIAN COORDINATES (ANGSTROEM)
---------------------------------
  S    -43.984500  -49.511500  -73.283300
  C    -44.596300  -47.816800  -73.403800
  C    -45.765700  -47.670200  -72.653100
  C    -46.225200  -48.929900  -72.107500
  C    -45.387900  -50.013100  -72.435400
  H    -47.073200  -49.175400  -71.472100
  C    -46.537500  -46.383200  -72.515900
  H    -45.791900  -45.750100  -72.224000
  H    -47.410800  -46.382200  -71.828400
  C    -46.964300  -45.756000  -73.916800
  H    -47.400300  -44.775800  -73.675200
  H    -46.110400  -45.576900  -74.547700
  C    -48.021800  -46.645300  -74.604400
  H    -48.697100  -47.066100  -73.846500
  H    -48.601200  -46.049800  -75.249900
  H    -47.647400  -47.564800  -75.155300
  S    -43.836200  -52.186600  -71.783800
  C    -44.601400  -53.752700  -71.376400
  C    -45.964300  -53.569200  -71.300200
  C    -46.479500  -52.284800  -71.604600
  C    -45.459200  -51.389200  -71.956700
  H    -46.566700  -54.436100  -71.015300
  C    -47.974700  -51.850700  -71.522100
  H    -48.449700  -52.312700  -72.396500
  H    -48.134700  -50.768700  -71.402300
  C    -48.613300  -52.355200  -70.173000
  H    -48.398800  -51.768800  -69.286500
  H    -48.267100  -53.387100  -70.095600
  C    -50.096600  -52.360200  -70.350900
  H    -50.438900  -51.365700  -70.427100
  H    -50.631000  -52.679300  -69.461800
  H    -50.484800  -52.938200  -71.161300
  H    -44.220700  -46.975900  -73.868100
  H    -44.036100  -54.555300  -70.951000

 Total Charge           Charge          ....    0
 Multiplicity           Mult            ....    1
 Number of Electrons    NEL             ....  134
 Basis Dimension        Dim             ....  322

ORBITAL ENERGIES
----------------

  NO   OCC          E(Eh)            E(eV)
   0   2.0000     -88.969583     -2420.9854
   1   2.0000     -88.961815     -2420.7740
   2   2.0000     -10.335214      -281.2355
   3   2.0000     -10.330710      -281.1129
   4   2.0000     -10.319922      -280.8194
   5   2.0000     -10.311320      -280.5853
   6   2.0000     -10.309643      -280.5397
   7   2.0000     -10.306234      -280.4469
   8   2.0000     -10.303036      -280.3599
   9   2.0000     -10.298889      -280.2470
  10   2.0000     -10.296249      -280.1752
  11   2.0000     -10.292460      -280.0721
  12   2.0000     -10.290336      -280.0143
  13   2.0000     -10.287946      -279.9493
  14   2.0000     -10.276064      -279.6259
  15   2.0000     -10.269345      -279.4431
  16   2.0000      -8.083585      -219.9655
  17   2.0000      -8.075357      -219.7416
  18   2.0000      -6.042287      -164.4190
  19   2.0000      -6.038182      -164.3073
  20   2.0000      -6.034163      -164.1979
  21   2.0000      -6.033988      -164.1931
  22   2.0000      -6.030093      -164.0872
  23   2.0000      -6.025987      -163.9754
  24   2.0000      -1.001312       -27.2471
  25   2.0000      -0.975243       -26.5377
  26   2.0000      -0.914110       -24.8742
  27   2.0000      -0.910609       -24.7789
  28   2.0000      -0.865238       -23.5443
  29   2.0000      -0.853172       -23.2160
  30   2.0000      -0.837981       -22.8026
  31   2.0000      -0.812951       -22.1215
  32   2.0000      -0.783242       -21.3131
  33   2.0000      -0.774034       -21.0625
  34   2.0000      -0.708829       -19.2882
  35   2.0000      -0.704815       -19.1790
  36   2.0000      -0.698623       -19.0105
  37   2.0000      -0.658563       -17.9204
  38   2.0000      -0.637724       -17.3534
  39   2.0000      -0.612845       -16.6764
  40   2.0000      -0.597268       -16.2525
  41   2.0000      -0.578238       -15.7346
  42   2.0000      -0.573162       -15.5965
  43   2.0000      -0.553745       -15.0682
  44   2.0000      -0.539030       -14.6677
  45   2.0000      -0.526270       -14.3205
  46   2.0000      -0.520892       -14.1742
  47   2.0000      -0.509152       -13.8547
  48   2.0000      -0.503234       -13.6937
  49   2.0000      -0.502284       -13.6678
  50   2.0000      -0.490488       -13.3468
  51   2.0000      -0.482181       -13.1208
  52   2.0000      -0.470331       -12.7984
  53   2.0000      -0.466771       -12.7015
  54   2.0000      -0.459957       -12.5161
  55   2.0000      -0.451371       -12.2824
  56   2.0000      -0.445749       -12.1294
  57   2.0000      -0.438283       -11.9263
  58   2.0000      -0.434259       -11.8168
  59   2.0000      -0.426676       -11.6104
  60   2.0000      -0.422095       -11.4858
  61   2.0000      -0.413291       -11.2462
  62   2.0000      -0.400089       -10.8870
  63   2.0000      -0.354051        -9.6342
  64   2.0000      -0.333445        -9.0735
  65   2.0000      -0.326983        -8.8977
  66   2.0000      -0.280962        -7.6454
  67   0.0000       0.016146         0.4394
  68   0.0000       0.071950         1.9579
  69   0.0000       0.094821         2.5802
  70   0.0000       0.123451         3.3593
  71   0.0000       0.129236         3.5167

MULLIKEN ATOMIC CHARGES
-----------------------
   0 S :    0.111268
   1 C :   -0.079319
   2 C :   -0.086508
   3 C :    0.001375
   4 C :   -0.115277
   5 H :    0.004789
   6 C :    0.088842
   7 H :    0.011140
   8 H :    0.039664
   9 C :   -0.095558
  10 H :    0.032327
  11 H :    0.029330
  12 C :   -0.044880
  13 H :    0.018529
  14 H :    0.024392
  15 H :    0.055533
  16 S :    0.058952
  17 C :   -0.084481
  18 C :   -0.054136
  19 C :   -0.015626
  20 C :   -0.148878
  21 H :    0.030216
  22 C :    0.045044
  23 H :    0.050891
  24 H :    0.035215
  25 C :   -0.090259
  26 H :    0.043157
  27 H :    0.025169
  28 C :   -0.013860
  29 H :    0.005880
  30 H :    0.021068
  31 H :    0.026011
  32 H :    0.006739
  33 H :    0.063253
Sum of atomic charges:   -0.0000000

LOEWDIN ATOMIC CHARGES
----------------------
   0 S :    0.409077
   1 C :   -0.185296
   2 C :   -0.046660
   3 C :   -0.074245
   4 C :   -0.197736
   5 H :    0.026465
   6 C :   -0.027728
   7 H :    0.022464
   8 H :    0.035322
   9 C :   -0.030622
  10 H :    0.025536
  11 H :    0.018623
  12 C :   -0.069900
  13 H :    0.023919
  14 H :    0.016938
  15 H :    0.037699
  16 S :    0.350563
  17 C :   -0.170994
  18 C :   -0.072949
  19 C :   -0.063333
  20 C :   -0.164541
  21 H :    0.033171
  22 C :   -0.020979
  23 H :    0.038180
  24 H :    0.030546
  25 C :   -0.034185
  26 H :    0.029172
  27 H :    0.019213
  28 C :   -0.063445
  29 H :    0.017687
  30 H :    0.025408
  31 H :    0.021442
  32 H :    0.012087
  33 H :    0.029102

  Mayer bond orders larger than 0.100000
B(  0-S ,  1-C ) :   1.1102 B(  0-S ,  4-C ) :   1.1595 B(  1-C ,  2-C ) :   1.6126
B(  1-C , 32-H ) :   0.9758 B(  2-C ,  3-C ) :   1.2285 B(  2-C ,  6-C ) :   1.0160
B(  3-C ,  4-C ) :   1.5492 B(  3-C ,  5-H ) :   0.9888 B(  4-C , 20-C ) :   1.0740
B(  6-C ,  7-H ) :   0.9211 B(  6-C ,  8-H ) :   0.9526 B(  6-C ,  9-C ) :   1.0869
B(  9-C , 10-H ) :   0.9580 B(  9-C , 11-H ) :   0.9566 B(  9-C , 12-C ) :   1.0640
B( 12-C , 13-H ) :   0.9770 B( 12-C , 14-H ) :   0.9768 B( 12-C , 15-H ) :   0.9740
B( 16-S , 17-C ) :   1.1310 B( 16-S , 20-C ) :   1.1301 B( 17-C , 18-C ) :   1.6201
B( 17-C , 20-C ) :   0.1042 B( 17-C , 33-H ) :   0.9694 B( 18-C , 19-C ) :   1.2414
B( 18-C , 21-H ) :   0.9784 B( 19-C , 20-C ) :   1.5982 B( 19-C , 22-C ) :   1.0126
B( 22-C , 23-H ) :   0.9388 B( 22-C , 24-H ) :   0.9494 B( 22-C , 25-C ) :   1.0516
B( 25-C , 26-H ) :   0.9580 B( 25-C , 27-H ) :   0.9588 B( 25-C , 28-C ) :   1.0934
B( 28-C , 29-H ) :   0.9679 B( 28-C , 30-H ) :   0.9675 B( 28-C , 31-H ) :   0.9751

Dispersion correction           -0.013702758
FINAL SINGLE POINT ENERGY     -1339.853792675673

DIPOLE MOMENT
-------------
                                X             Y             Z
Electronic contribution:     27.79026      -9.75080      -1.77987
Nuclear contribution   :    -28.54004       9.96731       2.08341
                        -----------------------------------------
Total Dipole Moment    :     -0.74977       0.21651       0.30354
                        -----------------------------------------
Magnitude (a.u.)       :      0.83736
Magnitude (Debye)      :      2.12840

Rotational constants in cm-1:     0.017645     0.008939     0.006251
Rotational constants in MHz :   528.984864   267.970389   187.393875

                             ****ORCA TERMINATED NORMALLY****
TOTAL RUN TIME: 0 days 0 hours 0 minutes 21 seconds 360 msec
