                         Program Version 4.2.1 -  RELEASE  -
|  1> ! wB97X-D3 SP def2-SVP
|  2> %pal
|  3> nprocs 24
|  4> end
|  5>
|  6> * xyz 0 1
|  7> S 	 -62.1423 	 13.1071 	 -109.851
|  8> C 	 -61.9051 	 11.6022 	 -109.062
|  9> C 	 -60.6524 	 11.5325 	 -108.548
| 10> C 	 -59.855 	 12.6871 	 -108.787
| 11> C 	 -60.4591 	 13.6689 	 -109.507
| 12> H 	 -58.8567 	 12.948 	 -108.386
| 13> C 	 -59.9438 	 10.3897 	 -107.801
| 14> H 	 -58.8995 	 10.4188 	 -107.951
| 15> H 	 -60.272 	 9.42645 	 -108.264
| 16> C 	 -60.2135 	 10.2465 	 -106.29
| 17> H 	 -59.5091 	 10.9683 	 -105.836
| 18> H 	 -61.2188 	 10.6628 	 -105.972
| 19> C 	 -60.0925 	 8.85566 	 -105.704
| 20> H 	 -59.0437 	 8.73264 	 -105.552
| 21> H 	 -60.5431 	 8.84402 	 -104.723
| 22> H 	 -60.5792 	 8.09933 	 -106.365
| 23> S 	 -61.2043 	 16.2741 	 -109.137
| 24> C 	 -60.197 	 17.5484 	 -109.736
| 25> C 	 -59.0388 	 17.1458 	 -110.277
| 26> C 	 -58.9702 	 15.7237 	 -110.396
| 27> C 	 -60.0997 	 15.0994 	 -109.816
| 28> H 	 -58.3088 	 17.9331 	 -110.376
| 29> C 	 -57.9029 	 15.0103 	 -111.181
| 30> H 	 -57.9257 	 15.5719 	 -112.103
| 31> H 	 -58.2323 	 13.9655 	 -111.343
| 32> C 	 -56.4167 	 14.888 	 -110.709
| 33> H 	 -55.9851 	 15.8286 	 -110.465
| 34> H 	 -55.8507 	 14.4502 	 -111.495
| 35> C 	 -56.1405 	 13.9419 	 -109.513
| 36> H 	 -56.6188 	 12.9845 	 -109.667
| 37> H 	 -56.5578 	 14.3296 	 -108.607
| 38> H 	 -55.0717 	 13.6356 	 -109.403
| 39> H 	 -62.7048 	 10.8577 	 -108.951
| 40> H 	 -60.5555 	 18.5757 	 -109.672
| 41> *
| 42>
| 43>                          ****END OF INPUT****

CARTESIAN COORDINATES (ANGSTROEM)
---------------------------------
  S    -62.142300   13.107100  -109.851000
  C    -61.905100   11.602200  -109.062000
  C    -60.652400   11.532500  -108.548000
  C    -59.855000   12.687100  -108.787000
  C    -60.459100   13.668900  -109.507000
  H    -58.856700   12.948000  -108.386000
  C    -59.943800   10.389700  -107.801000
  H    -58.899500   10.418800  -107.951000
  H    -60.272000    9.426450  -108.264000
  C    -60.213500   10.246500  -106.290000
  H    -59.509100   10.968300  -105.836000
  H    -61.218800   10.662800  -105.972000
  C    -60.092500    8.855660  -105.704000
  H    -59.043700    8.732640  -105.552000
  H    -60.543100    8.844020  -104.723000
  H    -60.579200    8.099330  -106.365000
  S    -61.204300   16.274100  -109.137000
  C    -60.197000   17.548400  -109.736000
  C    -59.038800   17.145800  -110.277000
  C    -58.970200   15.723700  -110.396000
  C    -60.099700   15.099400  -109.816000
  H    -58.308800   17.933100  -110.376000
  C    -57.902900   15.010300  -111.181000
  H    -57.925700   15.571900  -112.103000
  H    -58.232300   13.965500  -111.343000
  C    -56.416700   14.888000  -110.709000
  H    -55.985100   15.828600  -110.465000
  H    -55.850700   14.450200  -111.495000
  C    -56.140500   13.941900  -109.513000
  H    -56.618800   12.984500  -109.667000
  H    -56.557800   14.329600  -108.607000
  H    -55.071700   13.635600  -109.403000
  H    -62.704800   10.857700  -108.951000
  H    -60.555500   18.575700  -109.672000

 Total Charge           Charge          ....    0
 Multiplicity           Mult            ....    1
 Number of Electrons    NEL             ....  134
 Basis Dimension        Dim             ....  322

ORBITAL ENERGIES
----------------

  NO   OCC          E(Eh)            E(eV)
   0   2.0000     -88.963310     -2420.8147
   1   2.0000     -88.959849     -2420.7206
   2   2.0000     -10.333184      -281.1802
   3   2.0000     -10.331984      -281.1476
   4   2.0000     -10.314412      -280.6694
   5   2.0000     -10.312082      -280.6060
   6   2.0000     -10.309964      -280.5484
   7   2.0000     -10.299456      -280.2625
   8   2.0000     -10.293588      -280.1028
   9   2.0000     -10.293568      -280.1022
  10   2.0000     -10.290375      -280.0153
  11   2.0000     -10.290025      -280.0058
  12   2.0000     -10.286158      -279.9006
  13   2.0000     -10.285826      -279.8915
  14   2.0000     -10.277481      -279.6645
  15   2.0000     -10.276945      -279.6499
  16   2.0000      -8.078769      -219.8345
  17   2.0000      -8.074776      -219.7258
  18   2.0000      -6.037168      -164.2797
  19   2.0000      -6.033339      -164.1755
  20   2.0000      -6.033232      -164.1726
  21   2.0000      -6.029536      -164.0720
  22   2.0000      -6.029176      -164.0622
  23   2.0000      -6.025531      -163.9630
  24   2.0000      -1.006558       -27.3898
  25   2.0000      -0.988753       -26.9053
  26   2.0000      -0.906880       -24.6775
  27   2.0000      -0.905398       -24.6371
  28   2.0000      -0.870497       -23.6874
  29   2.0000      -0.852893       -23.2084
  30   2.0000      -0.847883       -23.0721
  31   2.0000      -0.820944       -22.3390
  32   2.0000      -0.782133       -21.2829
  33   2.0000      -0.771918       -21.0050
  34   2.0000      -0.709279       -19.3005
  35   2.0000      -0.692286       -18.8381
  36   2.0000      -0.690289       -18.7837
  37   2.0000      -0.657189       -17.8830
  38   2.0000      -0.644585       -17.5400
  39   2.0000      -0.619109       -16.8468
  40   2.0000      -0.596203       -16.2235
  41   2.0000      -0.573101       -15.5949
  42   2.0000      -0.560932       -15.2637
  43   2.0000      -0.551524       -15.0077
  44   2.0000      -0.545772       -14.8512
  45   2.0000      -0.523147       -14.2356
  46   2.0000      -0.513835       -13.9822
  47   2.0000      -0.512218       -13.9382
  48   2.0000      -0.504531       -13.7290
  49   2.0000      -0.498111       -13.5543
  50   2.0000      -0.490137       -13.3373
  51   2.0000      -0.485627       -13.2146
  52   2.0000      -0.471684       -12.8352
  53   2.0000      -0.466333       -12.6896
  54   2.0000      -0.459339       -12.4992
  55   2.0000      -0.449308       -12.2263
  56   2.0000      -0.443878       -12.0785
  57   2.0000      -0.434818       -11.8320
  58   2.0000      -0.427262       -11.6264
  59   2.0000      -0.424580       -11.5534
  60   2.0000      -0.419066       -11.4034
  61   2.0000      -0.416979       -11.3466
  62   2.0000      -0.406414       -11.0591
  63   2.0000      -0.349126        -9.5002
  64   2.0000      -0.329873        -8.9763
  65   2.0000      -0.325494        -8.8571
  66   2.0000      -0.298129        -8.1125
  67   0.0000       0.034096         0.9278
  68   0.0000       0.070539         1.9195
  69   0.0000       0.111828         3.0430
  70   0.0000       0.119734         3.2581
  71   0.0000       0.128569         3.4985

MULLIKEN ATOMIC CHARGES
-----------------------
   0 S :    0.081998
   1 C :   -0.121303
   2 C :   -0.066052
   3 C :    0.030669
   4 C :   -0.159719
   5 H :    0.017466
   6 C :    0.071439
   7 H :    0.016150
   8 H :    0.017153
   9 C :   -0.114747
  10 H :    0.024669
  11 H :    0.031899
  12 C :   -0.022957
  13 H :    0.027783
  14 H :    0.033032
  15 H :    0.043370
  16 S :    0.108642
  17 C :   -0.103740
  18 C :   -0.030537
  19 C :   -0.019413
  20 C :   -0.157831
  21 H :    0.026147
  22 C :    0.045766
  23 H :    0.036466
  24 H :    0.032563
  25 C :   -0.034179
  26 H :    0.020147
  27 H :    0.024826
  28 C :   -0.074525
  29 H :    0.016378
  30 H :    0.039308
  31 H :    0.041065
  32 H :    0.058365
  33 H :    0.059704
Sum of atomic charges:   -0.0000000

LOEWDIN ATOMIC CHARGES
----------------------
   0 S :    0.386757
   1 C :   -0.198315
   2 C :   -0.070153
   3 C :   -0.066785
   4 C :   -0.178209
   5 H :    0.038667
   6 C :   -0.029299
   7 H :    0.022771
   8 H :    0.028931
   9 C :   -0.052054
  10 H :    0.023499
  11 H :    0.024801
  12 C :   -0.063403
  13 H :    0.023434
  14 H :    0.028355
  15 H :    0.030412
  16 S :    0.411767
  17 C :   -0.180286
  18 C :   -0.080039
  19 C :   -0.054298
  20 C :   -0.202907
  21 H :    0.037734
  22 C :   -0.031574
  23 H :    0.037259
  24 H :    0.036242
  25 C :   -0.031511
  26 H :    0.016709
  27 H :    0.024342
  28 C :   -0.069127
  29 H :    0.018792
  30 H :    0.018931
  31 H :    0.033462
  32 H :    0.036672
  33 H :    0.028421

  Mayer bond orders larger than 0.100000
B(  0-S ,  1-C ) :   1.1412 B(  0-S ,  4-C ) :   1.1379 B(  1-C ,  2-C ) :   1.6226
B(  1-C , 32-H ) :   0.9690 B(  2-C ,  3-C ) :   1.2241 B(  2-C ,  6-C ) :   1.0168
B(  3-C ,  4-C ) :   1.6177 B(  3-C ,  5-H ) :   0.9864 B(  4-C , 20-C ) :   0.9939
B(  6-C ,  7-H ) :   0.9460 B(  6-C ,  8-H ) :   0.9467 B(  6-C ,  9-C ) :   1.0454
B(  9-C , 10-H ) :   0.9549 B(  9-C , 11-H ) :   0.9662 B(  9-C , 12-C ) :   1.0775
B( 12-C , 13-H ) :   0.9769 B( 12-C , 14-H ) :   0.9728 B( 12-C , 15-H ) :   0.9744
B( 16-S , 17-C ) :   1.1579 B( 16-S , 20-C ) :   1.1534 B( 17-C , 18-C ) :   1.6388
B( 17-C , 33-H ) :   0.9632 B( 18-C , 19-C ) :   1.2069 B( 18-C , 21-H ) :   0.9935
B( 19-C , 20-C ) :   1.5972 B( 19-C , 22-C ) :   1.0408 B( 22-C , 23-H ) :   0.9327
B( 22-C , 24-H ) :   0.9376 B( 22-C , 25-C ) :   1.0757 B( 25-C , 26-H ) :   0.9584
B( 25-C , 27-H ) :   0.9536 B( 25-C , 28-C ) :   1.0755 B( 28-C , 29-H ) :   0.9700
B( 28-C , 30-H ) :   0.9768 B( 28-C , 31-H ) :   0.9720

Dispersion correction           -0.014065504
FINAL SINGLE POINT ENERGY     -1339.872746109654

DIPOLE MOMENT
-------------
                                X             Y             Z
Electronic contribution:    -20.43365      17.41991      -9.01426
Nuclear contribution   :     21.01092     -17.52065       9.20749
                        -----------------------------------------
Total Dipole Moment    :      0.57727      -0.10074       0.19323
                        -----------------------------------------
Magnitude (a.u.)       :      0.61703
Magnitude (Debye)      :      1.56836

Rotational constants in cm-1:     0.018964     0.008165     0.006473
Rotational constants in MHz :   568.512064   244.775691   194.052882

                             ****ORCA TERMINATED NORMALLY****
TOTAL RUN TIME: 0 days 0 hours 0 minutes 21 seconds 195 msec
