                         Program Version 4.2.1 -  RELEASE  -
|  1> ! wB97X-D3 SP def2-SVP
|  2> %pal
|  3> nprocs 24
|  4> end
|  5>
|  6> * xyz 0 1
|  7> S 	 -86.5987 	 -34.7476 	 -63.3394
|  8> C 	 -86.5456 	 -36.5101 	 -63.2152
|  9> C 	 -87.8324 	 -36.9907 	 -62.8044
| 10> C 	 -88.7128 	 -35.9072 	 -62.5198
| 11> C 	 -88.2358 	 -34.6479 	 -62.8546
| 12> H 	 -89.7277 	 -35.9848 	 -62.2057
| 13> C 	 -88.2728 	 -38.4396 	 -62.6947
| 14> H 	 -88.9202 	 -38.5353 	 -61.7715
| 15> H 	 -87.3236 	 -39.0169 	 -62.5242
| 16> C 	 -88.809 	 -39.0579 	 -63.9043
| 17> H 	 -88.0252 	 -38.9046 	 -64.6203
| 18> H 	 -88.9299 	 -40.1513 	 -63.7368
| 19> C 	 -90.1461 	 -38.3242 	 -64.3463
| 20> H 	 -90.7801 	 -39.0553 	 -64.8788
| 21> H 	 -90.6583 	 -37.8036 	 -63.5466
| 22> H 	 -89.898 	 -37.5409 	 -65.0414
| 23> S 	 -88.3044 	 -32.421 	 -61.2265
| 24> C 	 -89.6944 	 -31.456 	 -61.2113
| 25> C 	 -90.5907 	 -31.8692 	 -62.1937
| 26> C 	 -90.2114 	 -33.0205 	 -63.0042
| 27> C 	 -88.9619 	 -33.4568 	 -62.5432
| 28> H 	 -91.4765 	 -31.3089 	 -62.1626
| 29> C 	 -91.1537 	 -33.6386 	 -64.038
| 30> H 	 -92.0365 	 -34.0108 	 -63.5113
| 31> H 	 -90.707 	 -34.6178 	 -64.3462
| 32> C 	 -91.5955 	 -32.783 	 -65.2142
| 33> H 	 -92.0584 	 -31.8849 	 -64.7258
| 34> H 	 -92.2581 	 -33.2898 	 -65.8849
| 35> C 	 -90.5256 	 -32.2327 	 -66.0033
| 36> H 	 -90.7686 	 -31.6412 	 -66.8663
| 37> H 	 -89.9228 	 -33.1522 	 -66.2002
| 38> H 	 -89.9841 	 -31.5728 	 -65.3394
| 39> H 	 -85.5826 	 -36.9241 	 -63.4209
| 40> H 	 -89.8723 	 -30.6016 	 -60.6149
| 41> *
| 42>
| 43>                          ****END OF INPUT****

CARTESIAN COORDINATES (ANGSTROEM)
---------------------------------
  S    -86.598700  -34.747600  -63.339400
  C    -86.545600  -36.510100  -63.215200
  C    -87.832400  -36.990700  -62.804400
  C    -88.712800  -35.907200  -62.519800
  C    -88.235800  -34.647900  -62.854600
  H    -89.727700  -35.984800  -62.205700
  C    -88.272800  -38.439600  -62.694700
  H    -88.920200  -38.535300  -61.771500
  H    -87.323600  -39.016900  -62.524200
  C    -88.809000  -39.057900  -63.904300
  H    -88.025200  -38.904600  -64.620300
  H    -88.929900  -40.151300  -63.736800
  C    -90.146100  -38.324200  -64.346300
  H    -90.780100  -39.055300  -64.878800
  H    -90.658300  -37.803600  -63.546600
  H    -89.898000  -37.540900  -65.041400
  S    -88.304400  -32.421000  -61.226500
  C    -89.694400  -31.456000  -61.211300
  C    -90.590700  -31.869200  -62.193700
  C    -90.211400  -33.020500  -63.004200
  C    -88.961900  -33.456800  -62.543200
  H    -91.476500  -31.308900  -62.162600
  C    -91.153700  -33.638600  -64.038000
  H    -92.036500  -34.010800  -63.511300
  H    -90.707000  -34.617800  -64.346200
  C    -91.595500  -32.783000  -65.214200
  H    -92.058400  -31.884900  -64.725800
  H    -92.258100  -33.289800  -65.884900
  C    -90.525600  -32.232700  -66.003300
  H    -90.768600  -31.641200  -66.866300
  H    -89.922800  -33.152200  -66.200200
  H    -89.984100  -31.572800  -65.339400
  H    -85.582600  -36.924100  -63.420900
  H    -89.872300  -30.601600  -60.614900

 Total Charge           Charge          ....    0
 Multiplicity           Mult            ....    1
 Number of Electrons    NEL             ....  134
 Basis Dimension        Dim             ....  322

ORBITAL ENERGIES
----------------

  NO   OCC          E(Eh)            E(eV)
   0   2.0000     -88.966352     -2420.8975
   1   2.0000     -88.964556     -2420.8487
   2   2.0000     -10.329947      -281.0921
   3   2.0000     -10.323113      -280.9062
   4   2.0000     -10.322354      -280.8855
   5   2.0000     -10.314098      -280.6609
   6   2.0000     -10.312023      -280.6044
   7   2.0000     -10.310474      -280.5623
   8   2.0000     -10.298401      -280.2337
   9   2.0000     -10.293718      -280.1063
  10   2.0000     -10.290689      -280.0239
  11   2.0000     -10.290401      -280.0161
  12   2.0000     -10.286346      -279.9057
  13   2.0000     -10.280128      -279.7365
  14   2.0000     -10.278063      -279.6803
  15   2.0000     -10.264495      -279.3111
  16   2.0000      -8.081550      -219.9102
  17   2.0000      -8.079732      -219.8607
  18   2.0000      -6.039832      -164.3522
  19   2.0000      -6.038163      -164.3068
  20   2.0000      -6.035819      -164.2430
  21   2.0000      -6.034123      -164.1968
  22   2.0000      -6.032699      -164.1581
  23   2.0000      -6.030588      -164.1006
  24   2.0000      -1.007041       -27.4030
  25   2.0000      -0.982483       -26.7347
  26   2.0000      -0.922551       -25.1039
  27   2.0000      -0.919861       -25.0307
  28   2.0000      -0.872308       -23.7367
  29   2.0000      -0.853715       -23.2308
  30   2.0000      -0.843296       -22.9473
  31   2.0000      -0.809511       -22.0279
  32   2.0000      -0.788536       -21.4572
  33   2.0000      -0.776167       -21.1206
  34   2.0000      -0.703997       -19.1567
  35   2.0000      -0.702562       -19.1177
  36   2.0000      -0.688480       -18.7345
  37   2.0000      -0.655492       -17.8368
  38   2.0000      -0.648231       -17.6393
  39   2.0000      -0.613515       -16.6946
  40   2.0000      -0.599556       -16.3147
  41   2.0000      -0.575495       -15.6600
  42   2.0000      -0.562071       -15.2947
  43   2.0000      -0.559549       -15.2261
  44   2.0000      -0.546879       -14.8813
  45   2.0000      -0.543450       -14.7880
  46   2.0000      -0.521482       -14.1903
  47   2.0000      -0.514537       -14.0013
  48   2.0000      -0.508157       -13.8277
  49   2.0000      -0.494781       -13.4637
  50   2.0000      -0.489355       -13.3160
  51   2.0000      -0.478362       -13.0169
  52   2.0000      -0.472200       -12.8492
  53   2.0000      -0.466162       -12.6849
  54   2.0000      -0.456592       -12.4245
  55   2.0000      -0.448548       -12.2056
  56   2.0000      -0.445646       -12.1266
  57   2.0000      -0.439678       -11.9643
  58   2.0000      -0.433549       -11.7975
  59   2.0000      -0.420232       -11.4351
  60   2.0000      -0.414412       -11.2767
  61   2.0000      -0.410186       -11.1617
  62   2.0000      -0.401295       -10.9198
  63   2.0000      -0.338933        -9.2228
  64   2.0000      -0.333375        -9.0716
  65   2.0000      -0.326416        -8.8822
  66   2.0000      -0.296909        -8.0793
  67   0.0000       0.031943         0.8692
  68   0.0000       0.063123         1.7177
  69   0.0000       0.118430         3.2226
  70   0.0000       0.119566         3.2536
  71   0.0000       0.122132         3.3234

MULLIKEN ATOMIC CHARGES
-----------------------
   0 S :    0.110651
   1 C :   -0.144592
   2 C :   -0.062524
   3 C :    0.037720
   4 C :   -0.175591
   5 H :    0.004856
   6 C :    0.016546
   7 H :    0.044822
   8 H :    0.022689
   9 C :   -0.035090
  10 H :    0.020747
  11 H :    0.043442
  12 C :   -0.064307
  13 H :    0.040469
  14 H :    0.028880
  15 H :    0.039336
  16 S :    0.119232
  17 C :   -0.079559
  18 C :   -0.052526
  19 C :   -0.015208
  20 C :   -0.173766
  21 H :   -0.000146
  22 C :    0.063625
  23 H :    0.037296
  24 H :    0.021433
  25 C :   -0.056697
  26 H :    0.022901
  27 H :    0.028599
  28 C :   -0.031979
  29 H :    0.036197
  30 H :    0.024919
  31 H :    0.028752
  32 H :    0.053536
  33 H :    0.045336
Sum of atomic charges:    0.0000000

LOEWDIN ATOMIC CHARGES
----------------------
   0 S :    0.424785
   1 C :   -0.191271
   2 C :   -0.056296
   3 C :   -0.057941
   4 C :   -0.222028
   5 H :    0.025273
   6 C :   -0.043042
   7 H :    0.034199
   8 H :    0.035324
   9 C :   -0.039116
  10 H :    0.024101
  11 H :    0.029782
  12 C :   -0.068322
  13 H :    0.029366
  14 H :    0.020245
  15 H :    0.026949
  16 S :    0.411295
  17 C :   -0.197755
  18 C :   -0.074288
  19 C :   -0.046984
  20 C :   -0.183448
  21 H :    0.019367
  22 C :   -0.034269
  23 H :    0.037675
  24 H :    0.030662
  25 C :   -0.044859
  26 H :    0.026112
  27 H :    0.023125
  28 C :   -0.064975
  29 H :    0.024369
  30 H :    0.030254
  31 H :    0.024799
  32 H :    0.021533
  33 H :    0.025380

  Mayer bond orders larger than 0.100000
B(  0-S ,  1-C ) :   1.1653 B(  0-S ,  4-C ) :   1.1739 B(  1-C ,  2-C ) :   1.5248
B(  1-C ,  4-C ) :   0.1057 B(  1-C , 32-H ) :   0.9837 B(  2-C ,  3-C ) :   1.2799
B(  2-C ,  6-C ) :   1.0224 B(  3-C ,  4-C ) :   1.5345 B(  3-C ,  5-H ) :   0.9939
B(  4-C , 20-C ) :   1.0444 B(  6-C ,  7-H ) :   0.9434 B(  6-C ,  8-H ) :   0.9345
B(  6-C ,  9-C ) :   1.0863 B(  9-C , 10-H ) :   0.9509 B(  9-C , 11-H ) :   0.9583
B(  9-C , 12-C ) :   1.0586 B( 12-C , 13-H ) :   0.9756 B( 12-C , 14-H ) :   0.9795
B( 12-C , 15-H ) :   0.9729 B( 16-S , 17-C ) :   1.1566 B( 16-S , 20-C ) :   1.1454
B( 17-C , 18-C ) :   1.6355 B( 17-C , 33-H ) :   0.9695 B( 18-C , 19-C ) :   1.1924
B( 18-C , 21-H ) :   0.9948 B( 19-C , 20-C ) :   1.5950 B( 19-C , 22-C ) :   1.0344
B( 22-C , 23-H ) :   0.9347 B( 22-C , 24-H ) :   0.9252 B( 22-C , 25-C ) :   1.0740
B( 25-C , 26-H ) :   0.9524 B( 25-C , 27-H ) :   0.9528 B( 25-C , 28-C ) :   1.0848
B( 28-C , 29-H ) :   0.9710 B( 28-C , 30-H ) :   0.9716 B( 28-C , 31-H ) :   0.9684

Dispersion correction           -0.015207507
FINAL SINGLE POINT ENERGY     -1339.860518141821

DIPOLE MOMENT
-------------
                                X             Y             Z
Electronic contribution:     16.76580      12.45051      14.48411
Nuclear contribution   :    -17.23033     -12.74674     -14.60456
                        -----------------------------------------
Total Dipole Moment    :     -0.46454      -0.29623      -0.12045
                        -----------------------------------------
Magnitude (a.u.)       :      0.56397
Magnitude (Debye)      :      1.43349

Rotational constants in cm-1:     0.018324     0.009504     0.007542
Rotational constants in MHz :   549.350152   284.920001   226.112702

                             ****ORCA TERMINATED NORMALLY****
TOTAL RUN TIME: 0 days 0 hours 0 minutes 22 seconds 339 msec
