                         Program Version 4.2.1 -  RELEASE  -
|  1> ! wB97X-D3 SP def2-SVP
|  2> %pal
|  3> nprocs 24
|  4> end
|  5>
|  6> * xyz 0 1
|  7> S 	 -36.4988 	 -51.8158 	 -77.2922
|  8> C 	 -34.8179 	 -51.7992 	 -77.5782
|  9> C 	 -34.2057 	 -50.5785 	 -77.423
| 10> C 	 -35.1711 	 -49.6841 	 -76.9249
| 11> C 	 -36.4829 	 -50.1168 	 -76.8167
| 12> H 	 -34.8075 	 -48.7018 	 -76.7207
| 13> C 	 -32.7301 	 -50.2226 	 -77.603
| 14> H 	 -32.1595 	 -50.2815 	 -76.6808
| 15> H 	 -32.6033 	 -49.1905 	 -77.7839
| 16> C 	 -31.9781 	 -50.8474 	 -78.7873
| 17> H 	 -31.8798 	 -51.9134 	 -78.5786
| 18> H 	 -32.493 	 -50.664 	 -79.748
| 19> C 	 -30.5537 	 -50.3065 	 -78.9842
| 20> H 	 -29.8176 	 -50.7203 	 -78.3803
| 21> H 	 -30.2663 	 -50.6005 	 -79.9939
| 22> H 	 -30.4377 	 -49.211 	 -78.8665
| 23> S 	 -38.7465 	 -50.1864 	 -75.1646
| 24> C 	 -39.7045 	 -48.6769 	 -75.2378
| 25> C 	 -39.2272 	 -47.6814 	 -75.9869
| 26> C 	 -37.9947 	 -48.053 	 -76.6462
| 27> C 	 -37.5832 	 -49.3189 	 -76.2763
| 28> H 	 -39.6415 	 -46.7075 	 -75.9353
| 29> C 	 -37.3415 	 -47.2019 	 -77.7427
| 30> H 	 -38.0452 	 -46.9107 	 -78.5143
| 31> H 	 -36.758 	 -47.8916 	 -78.257
| 32> C 	 -36.4471 	 -46.0741 	 -77.3558
| 33> H 	 -35.9057 	 -45.6106 	 -78.1934
| 34> H 	 -35.6719 	 -46.454 	 -76.695
| 35> C 	 -37.1613 	 -44.8691 	 -76.6168
| 36> H 	 -36.5301 	 -43.9856 	 -76.5081
| 37> H 	 -37.6177 	 -45.1218 	 -75.7362
| 38> H 	 -37.983 	 -44.4889 	 -77.3019
| 39> H 	 -34.2416 	 -52.7034 	 -77.8052
| 40> H 	 -40.6723 	 -48.6825 	 -74.702
| 41> *
| 42>
| 43>                          ****END OF INPUT****

CARTESIAN COORDINATES (ANGSTROEM)
---------------------------------
  S    -36.498800  -51.815800  -77.292200
  C    -34.817900  -51.799200  -77.578200
  C    -34.205700  -50.578500  -77.423000
  C    -35.171100  -49.684100  -76.924900
  C    -36.482900  -50.116800  -76.816700
  H    -34.807500  -48.701800  -76.720700
  C    -32.730100  -50.222600  -77.603000
  H    -32.159500  -50.281500  -76.680800
  H    -32.603300  -49.190500  -77.783900
  C    -31.978100  -50.847400  -78.787300
  H    -31.879800  -51.913400  -78.578600
  H    -32.493000  -50.664000  -79.748000
  C    -30.553700  -50.306500  -78.984200
  H    -29.817600  -50.720300  -78.380300
  H    -30.266300  -50.600500  -79.993900
  H    -30.437700  -49.211000  -78.866500
  S    -38.746500  -50.186400  -75.164600
  C    -39.704500  -48.676900  -75.237800
  C    -39.227200  -47.681400  -75.986900
  C    -37.994700  -48.053000  -76.646200
  C    -37.583200  -49.318900  -76.276300
  H    -39.641500  -46.707500  -75.935300
  C    -37.341500  -47.201900  -77.742700
  H    -38.045200  -46.910700  -78.514300
  H    -36.758000  -47.891600  -78.257000
  C    -36.447100  -46.074100  -77.355800
  H    -35.905700  -45.610600  -78.193400
  H    -35.671900  -46.454000  -76.695000
  C    -37.161300  -44.869100  -76.616800
  H    -36.530100  -43.985600  -76.508100
  H    -37.617700  -45.121800  -75.736200
  H    -37.983000  -44.488900  -77.301900
  H    -34.241600  -52.703400  -77.805200
  H    -40.672300  -48.682500  -74.702000

 Total Charge           Charge          ....    0
 Multiplicity           Mult            ....    1
 Number of Electrons    NEL             ....  134
 Basis Dimension        Dim             ....  322

ORBITAL ENERGIES
----------------

  NO   OCC          E(Eh)            E(eV)
   0   2.0000     -88.969027     -2420.9703
   1   2.0000     -88.964792     -2420.8551
   2   2.0000     -10.332613      -281.1647
   3   2.0000     -10.327651      -281.0297
   4   2.0000     -10.318990      -280.7940
   5   2.0000     -10.310846      -280.5724
   6   2.0000     -10.307237      -280.4742
   7   2.0000     -10.296549      -280.1833
   8   2.0000     -10.291113      -280.0354
   9   2.0000     -10.291049      -280.0337
  10   2.0000     -10.290372      -280.0153
  11   2.0000     -10.288586      -279.9667
  12   2.0000     -10.287536      -279.9381
  13   2.0000     -10.283685      -279.8333
  14   2.0000     -10.276703      -279.6433
  15   2.0000     -10.276367      -279.6342
  16   2.0000      -8.084013      -219.9772
  17   2.0000      -8.078352      -219.8231
  18   2.0000      -6.042518      -164.4253
  19   2.0000      -6.038466      -164.3150
  20   2.0000      -6.036885      -164.2720
  21   2.0000      -6.034791      -164.2150
  22   2.0000      -6.033457      -164.1787
  23   2.0000      -6.028726      -164.0500
  24   2.0000      -1.005704       -27.3666
  25   2.0000      -0.982248       -26.7283
  26   2.0000      -0.912493       -24.8302
  27   2.0000      -0.908516       -24.7220
  28   2.0000      -0.869760       -23.6674
  29   2.0000      -0.855152       -23.2699
  30   2.0000      -0.843256       -22.9462
  31   2.0000      -0.813654       -22.1406
  32   2.0000      -0.790176       -21.5018
  33   2.0000      -0.777107       -21.1461
  34   2.0000      -0.710654       -19.3379
  35   2.0000      -0.703289       -19.1375
  36   2.0000      -0.689084       -18.7509
  37   2.0000      -0.662732       -18.0338
  38   2.0000      -0.637303       -17.3419
  39   2.0000      -0.621733       -16.9182
  40   2.0000      -0.598435       -16.2842
  41   2.0000      -0.575116       -15.6497
  42   2.0000      -0.566184       -15.4067
  43   2.0000      -0.554340       -15.0844
  44   2.0000      -0.549029       -14.9398
  45   2.0000      -0.524920       -14.2838
  46   2.0000      -0.523771       -14.2525
  47   2.0000      -0.502568       -13.6756
  48   2.0000      -0.497755       -13.5446
  49   2.0000      -0.491833       -13.3835
  50   2.0000      -0.487015       -13.2523
  51   2.0000      -0.483161       -13.1475
  52   2.0000      -0.468497       -12.7484
  53   2.0000      -0.465977       -12.6799
  54   2.0000      -0.462153       -12.5758
  55   2.0000      -0.449707       -12.2372
  56   2.0000      -0.445769       -12.1300
  57   2.0000      -0.438929       -11.9439
  58   2.0000      -0.432572       -11.7709
  59   2.0000      -0.430068       -11.7027
  60   2.0000      -0.421051       -11.4574
  61   2.0000      -0.417061       -11.3488
  62   2.0000      -0.414177       -11.2703
  63   2.0000      -0.349394        -9.5075
  64   2.0000      -0.335335        -9.1249
  65   2.0000      -0.332793        -9.0558
  66   2.0000      -0.290476        -7.9042
  67   0.0000       0.027634         0.7520
  68   0.0000       0.074497         2.0272
  69   0.0000       0.098286         2.6745
  70   0.0000       0.127303         3.4641
  71   0.0000       0.129353         3.5199

MULLIKEN ATOMIC CHARGES
-----------------------
   0 S :    0.129022
   1 C :   -0.145055
   2 C :   -0.063996
   3 C :    0.024382
   4 C :   -0.138215
   5 H :   -0.019626
   6 C :    0.092159
   7 H :    0.035477
   8 H :   -0.005226
   9 C :   -0.102438
  10 H :    0.032995
  11 H :    0.045574
  12 C :   -0.036116
  13 H :    0.016726
  14 H :    0.028778
  15 H :    0.030823
  16 S :    0.079119
  17 C :   -0.098787
  18 C :    0.005901
  19 C :   -0.065892
  20 C :   -0.138028
  21 H :    0.015073
  22 C :    0.115341
  23 H :    0.026615
  24 H :    0.002832
  25 C :   -0.065245
  26 H :    0.032542
  27 H :    0.027885
  28 C :   -0.058375
  29 H :    0.034881
  30 H :    0.024654
  31 H :    0.020748
  32 H :    0.050544
  33 H :    0.064929
Sum of atomic charges:    0.0000000

LOEWDIN ATOMIC CHARGES
----------------------
   0 S :    0.423081
   1 C :   -0.205277
   2 C :   -0.069662
   3 C :   -0.055168
   4 C :   -0.203423
   5 H :    0.021313
   6 C :   -0.034777
   7 H :    0.035300
   8 H :    0.022978
   9 C :   -0.038294
  10 H :    0.023176
  11 H :    0.031196
  12 C :   -0.063110
  13 H :    0.014475
  14 H :    0.030257
  15 H :    0.026631
  16 S :    0.340631
  17 C :   -0.157025
  18 C :   -0.069145
  19 C :   -0.041877
  20 C :   -0.162723
  21 H :    0.031343
  22 C :   -0.030100
  23 H :    0.033363
  24 H :    0.025801
  25 C :   -0.035680
  26 H :    0.028960
  27 H :    0.019998
  28 C :   -0.065195
  29 H :    0.027149
  30 H :    0.007739
  31 H :    0.028010
  32 H :    0.029595
  33 H :    0.030459

  Mayer bond orders larger than 0.100000
B(  0-S ,  1-C ) :   1.1681 B(  0-S ,  4-C ) :   1.1350 B(  1-C ,  2-C ) :   1.5808
B(  1-C , 32-H ) :   0.9595 B(  2-C ,  3-C ) :   1.3099 B(  2-C ,  6-C ) :   1.0131
B(  3-C ,  4-C ) :   1.5237 B(  3-C ,  5-H ) :   0.9952 B(  4-C , 20-C ) :   1.0654
B(  6-C ,  7-H ) :   0.9338 B(  6-C ,  8-H ) :   0.9331 B(  6-C ,  9-C ) :   1.0651
B(  9-C , 10-H ) :   0.9511 B(  9-C , 11-H ) :   0.9649 B(  9-C , 12-C ) :   1.0854
B( 12-C , 13-H ) :   0.9745 B( 12-C , 14-H ) :   0.9745 B( 12-C , 15-H ) :   0.9744
B( 16-S , 17-C ) :   1.1218 B( 16-S , 20-C ) :   1.0988 B( 17-C , 18-C ) :   1.6841
B( 17-C , 33-H ) :   0.9580 B( 18-C , 19-C ) :   1.1734 B( 18-C , 21-H ) :   0.9935
B( 19-C , 20-C ) :   1.6702 B( 19-C , 22-C ) :   1.0280 B( 22-C , 23-H ) :   0.9368
B( 22-C , 24-H ) :   0.9100 B( 22-C , 25-C ) :   1.0876 B( 25-C , 26-H ) :   0.9531
B( 25-C , 27-H ) :   0.9479 B( 25-C , 28-C ) :   1.0757 B( 28-C , 29-H ) :   0.9748
B( 28-C , 30-H ) :   0.9779 B( 28-C , 31-H ) :   0.9747

Dispersion correction           -0.014052989
FINAL SINGLE POINT ENERGY     -1339.869703583538

DIPOLE MOMENT
-------------
                                X             Y             Z
Electronic contribution:    -22.31266     -18.39771      10.57528
Nuclear contribution   :     22.80301      18.86398     -10.82501
                        -----------------------------------------
Total Dipole Moment    :      0.49035       0.46627      -0.24973
                        -----------------------------------------
Magnitude (a.u.)       :      0.72126
Magnitude (Debye)      :      1.83331

Rotational constants in cm-1:     0.019550     0.008031     0.005955
Rotational constants in MHz :   586.091543   240.774249   178.532463

                             ****ORCA TERMINATED NORMALLY****
TOTAL RUN TIME: 0 days 0 hours 0 minutes 21 seconds 370 msec
