                         Program Version 4.2.1 -  RELEASE  -
|  1> ! wB97X-D3 SP def2-SVP
|  2> %pal
|  3> nprocs 24
|  4> end
|  5>
|  6> * xyz 0 1
|  7> S 	 -106.385 	 16.4076 	 -121.257
|  8> C 	 -106.835 	 15.1561 	 -120.258
|  9> C 	 -107.354 	 14.1074 	 -120.976
| 10> C 	 -107.526 	 14.4122 	 -122.353
| 11> C 	 -106.946 	 15.5705 	 -122.699
| 12> H 	 -108.021 	 13.7059 	 -123.038
| 13> C 	 -107.787 	 12.782 	 -120.378
| 14> H 	 -108.715 	 12.5108 	 -120.956
| 15> H 	 -108.207 	 12.9249 	 -119.313
| 16> C 	 -106.831 	 11.5753 	 -120.426
| 17> H 	 -105.916 	 11.775 	 -119.792
| 18> H 	 -107.302 	 10.804 	 -119.777
| 19> C 	 -106.399 	 11.0449 	 -121.785
| 20> H 	 -107.252 	 10.9089 	 -122.433
| 21> H 	 -105.838 	 11.8797 	 -122.17
| 22> H 	 -105.716 	 10.2665 	 -121.676
| 23> S 	 -108.111 	 17.773 	 -123.801
| 24> C 	 -107.92 	 17.995 	 -125.539
| 25> C 	 -107.187 	 17.0047 	 -126.158
| 26> C 	 -106.713 	 16.0535 	 -125.218
| 27> C 	 -107.094 	 16.3547 	 -123.922
| 28> H 	 -106.888 	 17.0596 	 -127.244
| 29> C 	 -105.77 	 14.9109 	 -125.612
| 30> H 	 -106.414 	 14.0246 	 -125.6
| 31> H 	 -104.908 	 14.9206 	 -124.882
| 32> C 	 -105.084 	 15.1368 	 -127.041
| 33> H 	 -104.703 	 16.1358 	 -127.201
| 34> H 	 -105.913 	 15.0364 	 -127.75
| 35> C 	 -104.122 	 13.9968 	 -127.467
| 36> H 	 -104.504 	 12.9478 	 -127.238
| 37> H 	 -103.204 	 14.1368 	 -126.904
| 38> H 	 -103.824 	 14.1001 	 -128.517
| 39> H 	 -106.922 	 15.1508 	 -119.265
| 40> H 	 -108.157 	 18.8341 	 -126.232
| 41> *
| 42>
| 43>                          ****END OF INPUT****

CARTESIAN COORDINATES (ANGSTROEM)
---------------------------------
  S    -106.385000   16.407600  -121.257000
  C    -106.835000   15.156100  -120.258000
  C    -107.354000   14.107400  -120.976000
  C    -107.526000   14.412200  -122.353000
  C    -106.946000   15.570500  -122.699000
  H    -108.021000   13.705900  -123.038000
  C    -107.787000   12.782000  -120.378000
  H    -108.715000   12.510800  -120.956000
  H    -108.207000   12.924900  -119.313000
  C    -106.831000   11.575300  -120.426000
  H    -105.916000   11.775000  -119.792000
  H    -107.302000   10.804000  -119.777000
  C    -106.399000   11.044900  -121.785000
  H    -107.252000   10.908900  -122.433000
  H    -105.838000   11.879700  -122.170000
  H    -105.716000   10.266500  -121.676000
  S    -108.111000   17.773000  -123.801000
  C    -107.920000   17.995000  -125.539000
  C    -107.187000   17.004700  -126.158000
  C    -106.713000   16.053500  -125.218000
  C    -107.094000   16.354700  -123.922000
  H    -106.888000   17.059600  -127.244000
  C    -105.770000   14.910900  -125.612000
  H    -106.414000   14.024600  -125.600000
  H    -104.908000   14.920600  -124.882000
  C    -105.084000   15.136800  -127.041000
  H    -104.703000   16.135800  -127.201000
  H    -105.913000   15.036400  -127.750000
  C    -104.122000   13.996800  -127.467000
  H    -104.504000   12.947800  -127.238000
  H    -103.204000   14.136800  -126.904000
  H    -103.824000   14.100100  -128.517000
  H    -106.922000   15.150800  -119.265000
  H    -108.157000   18.834100  -126.232000

 Total Charge           Charge          ....    0
 Multiplicity           Mult            ....    1
 Number of Electrons    NEL             ....  134
 Basis Dimension        Dim             ....  322

ORBITAL ENERGIES
----------------

  NO   OCC          E(Eh)            E(eV)
   0   2.0000     -88.969615     -2420.9863
   1   2.0000     -88.962635     -2420.7964
   2   2.0000     -10.322335      -280.8850
   3   2.0000     -10.320601      -280.8378
   4   2.0000     -10.316666      -280.7308
   5   2.0000     -10.301534      -280.3190
   6   2.0000     -10.300357      -280.2870
   7   2.0000     -10.299746      -280.2703
   8   2.0000     -10.297947      -280.2214
   9   2.0000     -10.293223      -280.0928
  10   2.0000     -10.293085      -280.0891
  11   2.0000     -10.292646      -280.0771
  12   2.0000     -10.291875      -280.0561
  13   2.0000     -10.290367      -280.0151
  14   2.0000     -10.285936      -279.8945
  15   2.0000     -10.271140      -279.4919
  16   2.0000      -8.083687      -219.9683
  17   2.0000      -8.079163      -219.8452
  18   2.0000      -6.042257      -164.4182
  19   2.0000      -6.038354      -164.3120
  20   2.0000      -6.037456      -164.2875
  21   2.0000      -6.034328      -164.2024
  22   2.0000      -6.033381      -164.1767
  23   2.0000      -6.030060      -164.0863
  24   2.0000      -1.015604       -27.6360
  25   2.0000      -0.988126       -26.8883
  26   2.0000      -0.907712       -24.7001
  27   2.0000      -0.899755       -24.4836
  28   2.0000      -0.873230       -23.7618
  29   2.0000      -0.854129       -23.2420
  30   2.0000      -0.847019       -23.0486
  31   2.0000      -0.819038       -22.2872
  32   2.0000      -0.781893       -21.2764
  33   2.0000      -0.767792       -20.8927
  34   2.0000      -0.704902       -19.1813
  35   2.0000      -0.699935       -19.0462
  36   2.0000      -0.696068       -18.9410
  37   2.0000      -0.650975       -17.7139
  38   2.0000      -0.644278       -17.5317
  39   2.0000      -0.615161       -16.7394
  40   2.0000      -0.586183       -15.9509
  41   2.0000      -0.569017       -15.4837
  42   2.0000      -0.568026       -15.4568
  43   2.0000      -0.552896       -15.0451
  44   2.0000      -0.542850       -14.7717
  45   2.0000      -0.518625       -14.1125
  46   2.0000      -0.515102       -14.0166
  47   2.0000      -0.512125       -13.9356
  48   2.0000      -0.504847       -13.7376
  49   2.0000      -0.497343       -13.5334
  50   2.0000      -0.485580       -13.2133
  51   2.0000      -0.480726       -13.0812
  52   2.0000      -0.472490       -12.8571
  53   2.0000      -0.468858       -12.7583
  54   2.0000      -0.459732       -12.5099
  55   2.0000      -0.452785       -12.3209
  56   2.0000      -0.446084       -12.1386
  57   2.0000      -0.437113       -11.8944
  58   2.0000      -0.433715       -11.8020
  59   2.0000      -0.424933       -11.5630
  60   2.0000      -0.420460       -11.4413
  61   2.0000      -0.406693       -11.0667
  62   2.0000      -0.402326       -10.9479
  63   2.0000      -0.349719        -9.5163
  64   2.0000      -0.332914        -9.0591
  65   2.0000      -0.321819        -8.7571
  66   2.0000      -0.297968        -8.1081
  67   0.0000       0.034700         0.9442
  68   0.0000       0.068733         1.8703
  69   0.0000       0.115761         3.1500
  70   0.0000       0.123533         3.3615
  71   0.0000       0.132442         3.6039

MULLIKEN ATOMIC CHARGES
-----------------------
   0 S :    0.111964
   1 C :   -0.039252
   2 C :   -0.119509
   3 C :    0.045794
   4 C :   -0.168740
   5 H :    0.021749
   6 C :    0.007531
   7 H :    0.026295
   8 H :    0.035977
   9 C :   -0.094721
  10 H :    0.025290
  11 H :    0.025043
  12 C :    0.010473
  13 H :    0.028238
  14 H :    0.028809
  15 H :    0.028091
  16 S :    0.134282
  17 C :   -0.079473
  18 C :   -0.088060
  19 C :   -0.052307
  20 C :   -0.160972
  21 H :    0.043409
  22 C :    0.072902
  23 H :    0.044812
  24 H :    0.055106
  25 C :   -0.133638
  26 H :    0.041173
  27 H :    0.029891
  28 C :   -0.041874
  29 H :    0.045390
  30 H :    0.028049
  31 H :    0.039119
  32 H :   -0.008641
  33 H :    0.057799
Sum of atomic charges:   -0.0000000

LOEWDIN ATOMIC CHARGES
----------------------
   0 S :    0.436007
   1 C :   -0.199650
   2 C :   -0.073456
   3 C :   -0.056792
   4 C :   -0.198191
   5 H :    0.037244
   6 C :   -0.044528
   7 H :    0.031541
   8 H :    0.039071
   9 C :   -0.049624
  10 H :    0.026517
  11 H :    0.022486
  12 C :   -0.056926
  13 H :    0.023378
  14 H :    0.029562
  15 H :    0.022375
  16 S :    0.411313
  17 C :   -0.195688
  18 C :   -0.084120
  19 C :   -0.059743
  20 C :   -0.209611
  21 H :    0.042993
  22 C :   -0.028112
  23 H :    0.036328
  24 H :    0.040348
  25 C :   -0.047156
  26 H :    0.023202
  27 H :    0.020232
  28 C :   -0.069635
  29 H :    0.034895
  30 H :    0.021914
  31 H :    0.028436
  32 H :    0.005144
  33 H :    0.040247

  Mayer bond orders larger than 0.100000
B(  0-S ,  1-C ) :   1.1623 B(  0-S ,  4-C ) :   1.1520 B(  1-C ,  2-C ) :   1.5987
B(  1-C , 32-H ) :   0.9789 B(  2-C ,  3-C ) :   1.2628 B(  2-C ,  6-C ) :   1.0168
B(  3-C ,  4-C ) :   1.5794 B(  3-C ,  5-H ) :   0.9901 B(  4-C , 20-C ) :   1.0072
B(  6-C ,  7-H ) :   0.9415 B(  6-C ,  8-H ) :   0.9428 B(  6-C ,  9-C ) :   1.0717
B(  9-C , 10-H ) :   0.9531 B(  9-C , 11-H ) :   0.9517 B(  9-C , 12-C ) :   1.0740
B( 12-C , 13-H ) :   0.9750 B( 12-C , 14-H ) :   0.9701 B( 12-C , 15-H ) :   0.9691
B( 16-S , 17-C ) :   1.1448 B( 16-S , 20-C ) :   1.1384 B( 17-C , 18-C ) :   1.6317
B( 17-C , 33-H ) :   0.9502 B( 18-C , 19-C ) :   1.2575 B( 18-C , 21-H ) :   0.9686
B( 19-C , 20-C ) :   1.6296 B( 19-C , 22-C ) :   1.0151 B( 22-C , 23-H ) :   0.9257
B( 22-C , 24-H ) :   0.9462 B( 22-C , 25-C ) :   1.0770 B( 25-C , 26-H ) :   0.9601
B( 25-C , 27-H ) :   0.9468 B( 25-C , 28-C ) :   1.0768 B( 28-C , 29-H ) :   0.9735
B( 28-C , 30-H ) :   0.9753 B( 28-C , 31-H ) :   0.9735

Dispersion correction           -0.013980917
FINAL SINGLE POINT ENERGY     -1339.861328551655

DIPOLE MOMENT
-------------
                                X             Y             Z
Electronic contribution:     -9.26390      25.42256       9.38026
Nuclear contribution   :      9.33996     -25.89459      -9.65143
                        -----------------------------------------
Total Dipole Moment    :      0.07606      -0.47203      -0.27117
                        -----------------------------------------
Magnitude (a.u.)       :      0.54966
Magnitude (Debye)      :      1.39713

Rotational constants in cm-1:     0.016744     0.009178     0.006557
Rotational constants in MHz :   501.979447   275.152341   196.577102

                             ****ORCA TERMINATED NORMALLY****
TOTAL RUN TIME: 0 days 0 hours 0 minutes 21 seconds 327 msec
