                         Program Version 4.2.1 -  RELEASE  -
|  1> ! wB97X-D3 SP def2-SVP
|  2> %pal
|  3> nprocs 24
|  4> end
|  5>
|  6> * xyz 0 1
|  7> S 	 -33.1429 	 -7.62603 	 5.14018
|  8> C 	 -32.7656 	 -6.89438 	 6.69965
|  9> C 	 -33.7045 	 -5.92469 	 7.06232
| 10> C 	 -34.5486 	 -5.6499 	 5.94881
| 11> C 	 -34.3928 	 -6.46949 	 4.84364
| 12> H 	 -35.4396 	 -5.05387 	 5.91867
| 13> C 	 -33.645 	 -5.07057 	 8.29901
| 14> H 	 -32.7138 	 -5.19542 	 8.85273
| 15> H 	 -34.527 	 -5.40878 	 8.84396
| 16> C 	 -33.7443 	 -3.5999 	 8.04516
| 17> H 	 -34.6671 	 -3.41736 	 7.5529
| 18> H 	 -33.8467 	 -3.08182 	 8.99663
| 19> C 	 -32.4949 	 -2.94698 	 7.42518
| 20> H 	 -32.04 	 -3.55798 	 6.62411
| 21> H 	 -32.5997 	 -1.9644 	 7.11525
| 22> H 	 -31.7209 	 -3.03288 	 8.24015
| 23> S 	 -35.866 	 -7.95972 	 2.95587
| 24> C 	 -36.3163 	 -7.19118 	 1.47963
| 25> C 	 -36.1123 	 -5.8208 	 1.56276
| 26> C 	 -35.5079 	 -5.44114 	 2.77046
| 27> C 	 -35.1518 	 -6.49667 	 3.54517
| 28> H 	 -36.3553 	 -5.12 	 0.729206
| 29> C 	 -35.1633 	 -4.03588 	 3.07504
| 30> H 	 -34.6212 	 -3.55472 	 2.24065
| 31> H 	 -34.3922 	 -3.98138 	 3.81783
| 32> C 	 -36.3023 	 -3.05695 	 3.40519
| 33> H 	 -36.9158 	 -3.52567 	 4.1013
| 34> H 	 -36.9085 	 -2.98977 	 2.55079
| 35> C 	 -35.9225 	 -1.61759 	 3.78924
| 36> H 	 -35.2851 	 -1.18674 	 2.94316
| 37> H 	 -35.1376 	 -1.68041 	 4.57126
| 38> H 	 -36.7764 	 -0.96416 	 4.0944
| 39> H 	 -31.8591 	 -7.07287 	 7.29934
| 40> H 	 -36.8294 	 -7.65253 	 0.703473
| 41> *
| 42>
| 43>                          ****END OF INPUT****

CARTESIAN COORDINATES (ANGSTROEM)
---------------------------------
  S    -33.142900   -7.626030    5.140180
  C    -32.765600   -6.894380    6.699650
  C    -33.704500   -5.924690    7.062320
  C    -34.548600   -5.649900    5.948810
  C    -34.392800   -6.469490    4.843640
  H    -35.439600   -5.053870    5.918670
  C    -33.645000   -5.070570    8.299010
  H    -32.713800   -5.195420    8.852730
  H    -34.527000   -5.408780    8.843960
  C    -33.744300   -3.599900    8.045160
  H    -34.667100   -3.417360    7.552900
  H    -33.846700   -3.081820    8.996630
  C    -32.494900   -2.946980    7.425180
  H    -32.040000   -3.557980    6.624110
  H    -32.599700   -1.964400    7.115250
  H    -31.720900   -3.032880    8.240150
  S    -35.866000   -7.959720    2.955870
  C    -36.316300   -7.191180    1.479630
  C    -36.112300   -5.820800    1.562760
  C    -35.507900   -5.441140    2.770460
  C    -35.151800   -6.496670    3.545170
  H    -36.355300   -5.120000    0.729206
  C    -35.163300   -4.035880    3.075040
  H    -34.621200   -3.554720    2.240650
  H    -34.392200   -3.981380    3.817830
  C    -36.302300   -3.056950    3.405190
  H    -36.915800   -3.525670    4.101300
  H    -36.908500   -2.989770    2.550790
  C    -35.922500   -1.617590    3.789240
  H    -35.285100   -1.186740    2.943160
  H    -35.137600   -1.680410    4.571260
  H    -36.776400   -0.964160    4.094400
  H    -31.859100   -7.072870    7.299340
  H    -36.829400   -7.652530    0.703473

 Total Charge           Charge          ....    0
 Multiplicity           Mult            ....    1
 Number of Electrons    NEL             ....  134
 Basis Dimension        Dim             ....  322

ORBITAL ENERGIES
----------------

  NO   OCC          E(Eh)            E(eV)
   0   2.0000     -88.967656     -2420.9330
   1   2.0000     -88.966385     -2420.8984
   2   2.0000     -10.331589      -281.1368
   3   2.0000     -10.326330      -280.9937
   4   2.0000     -10.316878      -280.7365
   5   2.0000     -10.312921      -280.6289
   6   2.0000     -10.303146      -280.3628
   7   2.0000     -10.295522      -280.1554
   8   2.0000     -10.295153      -280.1454
   9   2.0000     -10.292365      -280.0695
  10   2.0000     -10.292189      -280.0647
  11   2.0000     -10.290762      -280.0259
  12   2.0000     -10.283776      -279.8358
  13   2.0000     -10.281532      -279.7747
  14   2.0000     -10.277969      -279.6777
  15   2.0000     -10.276483      -279.6373
  16   2.0000      -8.083171      -219.9543
  17   2.0000      -8.081192      -219.9004
  18   2.0000      -6.041545      -164.3988
  19   2.0000      -6.039616      -164.3463
  20   2.0000      -6.037645      -164.2927
  21   2.0000      -6.035640      -164.2381
  22   2.0000      -6.033957      -164.1923
  23   2.0000      -6.032089      -164.1415
  24   2.0000      -1.013535       -27.5797
  25   2.0000      -0.990201       -26.9447
  26   2.0000      -0.921013       -25.0620
  27   2.0000      -0.912988       -24.8437
  28   2.0000      -0.866719       -23.5846
  29   2.0000      -0.856267       -23.3002
  30   2.0000      -0.844363       -22.9763
  31   2.0000      -0.815665       -22.1954
  32   2.0000      -0.786212       -21.3939
  33   2.0000      -0.775617       -21.1056
  34   2.0000      -0.709028       -19.2936
  35   2.0000      -0.705178       -19.1889
  36   2.0000      -0.693302       -18.8657
  37   2.0000      -0.661080       -17.9889
  38   2.0000      -0.642574       -17.4853
  39   2.0000      -0.622965       -16.9517
  40   2.0000      -0.605558       -16.4781
  41   2.0000      -0.571091       -15.5402
  42   2.0000      -0.565059       -15.3760
  43   2.0000      -0.561212       -15.2713
  44   2.0000      -0.540779       -14.7153
  45   2.0000      -0.529968       -14.4212
  46   2.0000      -0.517457       -14.0807
  47   2.0000      -0.514231       -13.9929
  48   2.0000      -0.506838       -13.7918
  49   2.0000      -0.494962       -13.4686
  50   2.0000      -0.490705       -13.3528
  51   2.0000      -0.481145       -13.0926
  52   2.0000      -0.472529       -12.8582
  53   2.0000      -0.465799       -12.6750
  54   2.0000      -0.457601       -12.4520
  55   2.0000      -0.448858       -12.2140
  56   2.0000      -0.446370       -12.1463
  57   2.0000      -0.438921       -11.9436
  58   2.0000      -0.435630       -11.8541
  59   2.0000      -0.431553       -11.7431
  60   2.0000      -0.425089       -11.5673
  61   2.0000      -0.411986       -11.2107
  62   2.0000      -0.410725       -11.1764
  63   2.0000      -0.346906        -9.4398
  64   2.0000      -0.334133        -9.0922
  65   2.0000      -0.330796        -9.0014
  66   2.0000      -0.293727        -7.9927
  67   0.0000       0.031882         0.8676
  68   0.0000       0.069865         1.9011
  69   0.0000       0.116115         3.1596
  70   0.0000       0.120954         3.2913
  71   0.0000       0.124756         3.3948

MULLIKEN ATOMIC CHARGES
-----------------------
   0 S :    0.112790
   1 C :   -0.138581
   2 C :   -0.088222
   3 C :    0.020601
   4 C :   -0.169333
   5 H :    0.011113
   6 C :    0.083918
   7 H :    0.016214
   8 H :    0.042539
   9 C :   -0.065676
  10 H :    0.015611
  11 H :    0.023895
  12 C :   -0.040683
  13 H :    0.038429
  14 H :    0.032255
  15 H :    0.022348
  16 S :    0.119303
  17 C :   -0.069709
  18 C :   -0.043354
  19 C :   -0.009260
  20 C :   -0.141250
  21 H :    0.035010
  22 C :    0.032845
  23 H :    0.014416
  24 H :    0.011251
  25 C :   -0.021379
  26 H :    0.005223
  27 H :    0.007306
  28 C :   -0.068903
  29 H :    0.032324
  30 H :    0.025801
  31 H :    0.061718
  32 H :    0.056893
  33 H :    0.034547
Sum of atomic charges:    0.0000000

LOEWDIN ATOMIC CHARGES
----------------------
   0 S :    0.411508
   1 C :   -0.200889
   2 C :   -0.061886
   3 C :   -0.071036
   4 C :   -0.191379
   5 H :    0.027723
   6 C :   -0.027949
   7 H :    0.029180
   8 H :    0.041167
   9 C :   -0.041879
  10 H :    0.013548
  11 H :    0.026773
  12 C :   -0.060170
  13 H :    0.027977
  14 H :    0.016476
  15 H :    0.030254
  16 S :    0.424874
  17 C :   -0.181747
  18 C :   -0.067742
  19 C :   -0.064680
  20 C :   -0.202117
  21 H :    0.040086
  22 C :   -0.034442
  23 H :    0.030998
  24 H :    0.023627
  25 C :   -0.035943
  26 H :    0.011075
  27 H :    0.015894
  28 C :   -0.072388
  29 H :    0.032667
  30 H :    0.024287
  31 H :    0.036361
  32 H :    0.033210
  33 H :    0.016561

  Mayer bond orders larger than 0.100000
B(  0-S ,  1-C ) :   1.1445 B(  0-S ,  4-C ) :   1.1649 B(  1-C ,  2-C ) :   1.5962
B(  1-C ,  4-C ) :   0.1008 B(  1-C , 32-H ) :   0.9643 B(  2-C ,  3-C ) :   1.2374
B(  2-C ,  6-C ) :   1.0244 B(  3-C ,  4-C ) :   1.5811 B(  3-C ,  5-H ) :   0.9883
B(  4-C , 20-C ) :   0.9985 B(  6-C ,  7-H ) :   0.9487 B(  6-C ,  8-H ) :   0.9191
B(  6-C ,  9-C ) :   1.0978 B(  9-C , 10-H ) :   0.9465 B(  9-C , 11-H ) :   0.9521
B(  9-C , 12-C ) :   1.0629 B( 12-C , 13-H ) :   0.9792 B( 12-C , 14-H ) :   0.9766
B( 12-C , 15-H ) :   0.9719 B( 16-S , 17-C ) :   1.1636 B( 16-S , 20-C ) :   1.1522
B( 17-C , 18-C ) :   1.5793 B( 17-C , 33-H ) :   0.9779 B( 18-C , 19-C ) :   1.2596
B( 18-C , 21-H ) :   0.9866 B( 19-C , 20-C ) :   1.5950 B( 19-C , 22-C ) :   1.0640
B( 22-C , 23-H ) :   0.9286 B( 22-C , 24-H ) :   0.9292 B( 22-C , 25-C ) :   1.0496
B( 25-C , 26-H ) :   0.9522 B( 25-C , 27-H ) :   0.9504 B( 25-C , 28-C ) :   1.0806
B( 28-C , 29-H ) :   0.9702 B( 28-C , 30-H ) :   0.9750 B( 28-C , 31-H ) :   0.9726

Dispersion correction           -0.015031973
FINAL SINGLE POINT ENERGY     -1339.875493156087

DIPOLE MOMENT
-------------
                                X             Y             Z
Electronic contribution:     -0.96533     -30.48611     -10.16530
Nuclear contribution   :      0.83355      31.13702      10.33368
                        -----------------------------------------
Total Dipole Moment    :     -0.13177       0.65091       0.16838
                        -----------------------------------------
Magnitude (a.u.)       :      0.68512
Magnitude (Debye)      :      1.74145

Rotational constants in cm-1:     0.017244     0.010559     0.007017
Rotational constants in MHz :   516.961617   316.539747   210.367728

                             ****ORCA TERMINATED NORMALLY****
TOTAL RUN TIME: 0 days 0 hours 0 minutes 22 seconds 652 msec
