                         Program Version 4.2.1 -  RELEASE  -
|  1> ! wB97X-D3 SP def2-SVP
|  2> %pal
|  3> nprocs 24
|  4> end
|  5>
|  6> * xyz 0 1
|  7> S 	 -48.4044 	 12.3057 	 28.4288
|  8> C 	 -48.2918 	 12.7426 	 26.6801
|  9> C 	 -49.1978 	 12.0104 	 25.8968
| 10> C 	 -49.9371 	 11.1266 	 26.6977
| 11> C 	 -49.7429 	 11.2842 	 28.0633
| 12> H 	 -50.5696 	 10.3142 	 26.3272
| 13> C 	 -49.2742 	 11.9944 	 24.4005
| 14> H 	 -49.9576 	 11.2863 	 24.009
| 15> H 	 -48.2374 	 11.603 	 24.2864
| 16> C 	 -49.3891 	 13.3206 	 23.6312
| 17> H 	 -48.7732 	 14.0352 	 24.1082
| 18> H 	 -48.9653 	 13.1247 	 22.7162
| 19> C 	 -50.7797 	 13.9251 	 23.4456
| 20> H 	 -51.3275 	 14.2682 	 24.4151
| 21> H 	 -50.7038 	 14.7934 	 22.8757
| 22> H 	 -51.3579 	 13.1215 	 22.9247
| 23> S 	 -49.333 	 9.81546 	 30.3907
| 24> C 	 -50.7038 	 9.52923 	 31.3793
| 25> C 	 -51.8148 	 9.76415 	 30.702
| 26> C 	 -51.6736 	 10.3333 	 29.4176
| 27> C 	 -50.3681 	 10.5894 	 29.1535
| 28> H 	 -52.7469 	 9.4339 	 31.2014
| 29> C 	 -52.8794 	 10.785 	 28.6145
| 30> H 	 -53.8039 	 10.5144 	 29.1273
| 31> H 	 -52.9219 	 10.0939 	 27.7816
| 32> C 	 -52.9453 	 12.2581 	 28.3582
| 33> H 	 -53.8372 	 12.4911 	 27.7884
| 34> H 	 -52.1404 	 12.6101 	 27.7363
| 35> C 	 -53.1245 	 13.0209 	 29.6797
| 36> H 	 -53.9897 	 12.5982 	 30.1607
| 37> H 	 -53.1532 	 14.0996 	 29.5876
| 38> H 	 -52.2007 	 12.899 	 30.2664
| 39> H 	 -47.6093 	 13.4551 	 26.2763
| 40> H 	 -50.6786 	 9.29936 	 32.4396
| 41> *
| 42>
| 43>                          ****END OF INPUT****

CARTESIAN COORDINATES (ANGSTROEM)
---------------------------------
  S    -48.404400   12.305700   28.428800
  C    -48.291800   12.742600   26.680100
  C    -49.197800   12.010400   25.896800
  C    -49.937100   11.126600   26.697700
  C    -49.742900   11.284200   28.063300
  H    -50.569600   10.314200   26.327200
  C    -49.274200   11.994400   24.400500
  H    -49.957600   11.286300   24.009000
  H    -48.237400   11.603000   24.286400
  C    -49.389100   13.320600   23.631200
  H    -48.773200   14.035200   24.108200
  H    -48.965300   13.124700   22.716200
  C    -50.779700   13.925100   23.445600
  H    -51.327500   14.268200   24.415100
  H    -50.703800   14.793400   22.875700
  H    -51.357900   13.121500   22.924700
  S    -49.333000    9.815460   30.390700
  C    -50.703800    9.529230   31.379300
  C    -51.814800    9.764150   30.702000
  C    -51.673600   10.333300   29.417600
  C    -50.368100   10.589400   29.153500
  H    -52.746900    9.433900   31.201400
  C    -52.879400   10.785000   28.614500
  H    -53.803900   10.514400   29.127300
  H    -52.921900   10.093900   27.781600
  C    -52.945300   12.258100   28.358200
  H    -53.837200   12.491100   27.788400
  H    -52.140400   12.610100   27.736300
  C    -53.124500   13.020900   29.679700
  H    -53.989700   12.598200   30.160700
  H    -53.153200   14.099600   29.587600
  H    -52.200700   12.899000   30.266400
  H    -47.609300   13.455100   26.276300
  H    -50.678600    9.299360   32.439600

 Total Charge           Charge          ....    0
 Multiplicity           Mult            ....    1
 Number of Electrons    NEL             ....  134
 Basis Dimension        Dim             ....  322

ORBITAL ENERGIES
----------------

  NO   OCC          E(Eh)            E(eV)
   0   2.0000     -88.968446     -2420.9545
   1   2.0000     -88.957469     -2420.6558
   2   2.0000     -10.324117      -280.9335
   3   2.0000     -10.320059      -280.8231
   4   2.0000     -10.313549      -280.6459
   5   2.0000     -10.304279      -280.3937
   6   2.0000     -10.302343      -280.3410
   7   2.0000     -10.295288      -280.1490
   8   2.0000     -10.292098      -280.0622
   9   2.0000     -10.291011      -280.0326
  10   2.0000     -10.286749      -279.9167
  11   2.0000     -10.284239      -279.8484
  12   2.0000     -10.282586      -279.8034
  13   2.0000     -10.279822      -279.7282
  14   2.0000     -10.275075      -279.5990
  15   2.0000     -10.268999      -279.4337
  16   2.0000      -8.082476      -219.9354
  17   2.0000      -8.072891      -219.6745
  18   2.0000      -6.040863      -164.3802
  19   2.0000      -6.037191      -164.2803
  20   2.0000      -6.033285      -164.1740
  21   2.0000      -6.031430      -164.1236
  22   2.0000      -6.027468      -164.0157
  23   2.0000      -6.023407      -163.9052
  24   2.0000      -1.011407       -27.5218
  25   2.0000      -0.986166       -26.8349
  26   2.0000      -0.918379       -24.9904
  27   2.0000      -0.913804       -24.8659
  28   2.0000      -0.872015       -23.7287
  29   2.0000      -0.851567       -23.1723
  30   2.0000      -0.842191       -22.9172
  31   2.0000      -0.812870       -22.1193
  32   2.0000      -0.786219       -21.3941
  33   2.0000      -0.775577       -21.1045
  34   2.0000      -0.712644       -19.3920
  35   2.0000      -0.708567       -19.2811
  36   2.0000      -0.689654       -18.7665
  37   2.0000      -0.656977       -17.8773
  38   2.0000      -0.636149       -17.3105
  39   2.0000      -0.611679       -16.6446
  40   2.0000      -0.593953       -16.1623
  41   2.0000      -0.581917       -15.8348
  42   2.0000      -0.563587       -15.3360
  43   2.0000      -0.556384       -15.1400
  44   2.0000      -0.548974       -14.9384
  45   2.0000      -0.540727       -14.7139
  46   2.0000      -0.520010       -14.1502
  47   2.0000      -0.509911       -13.8754
  48   2.0000      -0.496307       -13.5052
  49   2.0000      -0.493317       -13.4238
  50   2.0000      -0.484624       -13.1873
  51   2.0000      -0.477781       -13.0011
  52   2.0000      -0.470550       -12.8043
  53   2.0000      -0.465454       -12.6656
  54   2.0000      -0.461992       -12.5714
  55   2.0000      -0.449416       -12.2292
  56   2.0000      -0.443175       -12.0594
  57   2.0000      -0.436425       -11.8757
  58   2.0000      -0.430298       -11.7090
  59   2.0000      -0.426634       -11.6093
  60   2.0000      -0.421483       -11.4691
  61   2.0000      -0.418439       -11.3863
  62   2.0000      -0.406199       -11.0532
  63   2.0000      -0.341009        -9.2793
  64   2.0000      -0.331878        -9.0309
  65   2.0000      -0.326888        -8.8951
  66   2.0000      -0.287270        -7.8170
  67   0.0000       0.023731         0.6458
  68   0.0000       0.074254         2.0206
  69   0.0000       0.105736         2.8772
  70   0.0000       0.121128         3.2961
  71   0.0000       0.133673         3.6374

MULLIKEN ATOMIC CHARGES
-----------------------
   0 S :    0.118239
   1 C :   -0.132458
   2 C :   -0.068218
   3 C :    0.012102
   4 C :   -0.170555
   5 H :    0.017587
   6 C :    0.044766
   7 H :    0.010551
   8 H :    0.051339
   9 C :   -0.010359
  10 H :    0.005427
  11 H :    0.009204
  12 C :   -0.058948
  13 H :    0.052788
  14 H :    0.028230
  15 H :    0.034349
  16 S :    0.092791
  17 C :   -0.086626
  18 C :   -0.051296
  19 C :   -0.029845
  20 C :   -0.167923
  21 H :    0.019979
  22 C :    0.099892
  23 H :    0.001293
  24 H :    0.024826
  25 C :   -0.050865
  26 H :    0.018061
  27 H :    0.041803
  28 C :   -0.044849
  29 H :    0.025527
  30 H :    0.030378
  31 H :    0.040495
  32 H :    0.035268
  33 H :    0.057044
Sum of atomic charges:   -0.0000000

LOEWDIN ATOMIC CHARGES
----------------------
   0 S :    0.409160
   1 C :   -0.193183
   2 C :   -0.055792
   3 C :   -0.067372
   4 C :   -0.199140
   5 H :    0.034108
   6 C :   -0.030184
   7 H :    0.022167
   8 H :    0.051413
   9 C :   -0.030871
  10 H :    0.017281
  11 H :    0.017111
  12 C :   -0.064779
  13 H :    0.038460
  14 H :    0.017447
  15 H :    0.028512
  16 S :    0.383959
  17 C :   -0.192848
  18 C :   -0.081072
  19 C :   -0.057577
  20 C :   -0.186330
  21 H :    0.035509
  22 C :   -0.029070
  23 H :    0.028629
  24 H :    0.030708
  25 C :   -0.039737
  26 H :    0.023011
  27 H :    0.022622
  28 C :   -0.060077
  29 H :    0.021653
  30 H :    0.024962
  31 H :    0.029470
  32 H :    0.017342
  33 H :    0.034510

  Mayer bond orders larger than 0.100000
B(  0-S ,  1-C ) :   1.1283 B(  0-S ,  4-C ) :   1.1683 B(  1-C ,  2-C ) :   1.5850
B(  1-C ,  4-C ) :   0.1123 B(  1-C , 32-H ) :   0.9725 B(  2-C ,  3-C ) :   1.2572
B(  2-C ,  6-C ) :   0.9990 B(  3-C ,  4-C ) :   1.5408 B(  3-C ,  5-H ) :   0.9945
B(  4-C , 20-C ) :   1.0621 B(  6-C ,  7-H ) :   0.9483 B(  6-C ,  8-H ) :   0.9313
B(  6-C ,  9-C ) :   1.0787 B(  9-C , 10-H ) :   0.9519 B(  9-C , 11-H ) :   0.9470
B(  9-C , 12-C ) :   1.0797 B( 12-C , 13-H ) :   0.9750 B( 12-C , 14-H ) :   0.9722
B( 12-C , 15-H ) :   0.9745 B( 16-S , 17-C ) :   1.1292 B( 16-S , 20-C ) :   1.1289
B( 17-C , 18-C ) :   1.6593 B( 17-C , 33-H ) :   0.9619 B( 18-C , 19-C ) :   1.2127
B( 18-C , 21-H ) :   0.9843 B( 19-C , 20-C ) :   1.6207 B( 19-C , 22-C ) :   1.0317
B( 22-C , 23-H ) :   0.9338 B( 22-C , 24-H ) :   0.9207 B( 22-C , 25-C ) :   1.0789
B( 25-C , 26-H ) :   0.9511 B( 25-C , 27-H ) :   0.9530 B( 25-C , 28-C ) :   1.0686
B( 28-C , 29-H ) :   0.9756 B( 28-C , 30-H ) :   0.9734 B( 28-C , 31-H ) :   0.9743

Dispersion correction           -0.015221244
FINAL SINGLE POINT ENERGY     -1339.862220064228

DIPOLE MOMENT
-------------
                                X             Y             Z
Electronic contribution:     16.38368     -11.83855      18.24579
Nuclear contribution   :    -16.76738      11.91114     -18.79438
                        -----------------------------------------
Total Dipole Moment    :     -0.38370       0.07259      -0.54859
                        -----------------------------------------
Magnitude (a.u.)       :      0.67338
Magnitude (Debye)      :      1.71160

Rotational constants in cm-1:     0.022413     0.008799     0.007188
Rotational constants in MHz :   671.920609   263.794031   215.503981

                             ****ORCA TERMINATED NORMALLY****
TOTAL RUN TIME: 0 days 0 hours 0 minutes 21 seconds 589 msec
