                         Program Version 4.2.1 -  RELEASE  -
|  1> ! wB97X-D3 SP def2-SVP
|  2> %pal
|  3> nprocs 24
|  4> end
|  5>
|  6> * xyz 0 1
|  7> S 	 -46.9719 	 12.9267 	 32.3991
|  8> C 	 -45.5406 	 13.8766 	 32.8371
|  9> C 	 -45.4956 	 15.122 	 32.3324
| 10> C 	 -46.7453 	 15.4373 	 31.7355
| 11> C 	 -47.6098 	 14.387 	 31.752
| 12> H 	 -47.2965 	 16.2951 	 31.4188
| 13> C 	 -44.3925 	 16.1316 	 32.3917
| 14> H 	 -44.5113 	 16.7994 	 31.4904
| 15> H 	 -43.6034 	 15.5823 	 31.9588
| 16> C 	 -44.0599 	 16.6681 	 33.7328
| 17> H 	 -43.8333 	 15.821 	 34.3425
| 18> H 	 -43.1121 	 17.168 	 33.826
| 19> C 	 -45.061 	 17.5435 	 34.4997
| 20> H 	 -44.5925 	 17.7735 	 35.4835
| 21> H 	 -45.3657 	 18.3825 	 33.9338
| 22> H 	 -45.9482 	 16.998 	 34.8145
| 23> S 	 -49.137 	 13.2748 	 29.659
| 24> C 	 -50.729 	 13.8623 	 29.3776
| 25> C 	 -51.1274 	 14.818 	 30.286
| 26> C 	 -50.1403 	 14.9896 	 31.2688
| 27> C 	 -48.9528 	 14.2799 	 31.0923
| 28> H 	 -52.1029 	 15.2814 	 30.3034
| 29> C 	 -50.4401 	 16.0197 	 32.3361
| 30> H 	 -49.5186 	 16.1842 	 32.9173
| 31> H 	 -51.0988 	 15.4577 	 33.0928
| 32> C 	 -51.1136 	 17.3354 	 31.9962
| 33> H 	 -51.177 	 18.0051 	 32.8663
| 34> H 	 -52.2064 	 17.2288 	 31.6814
| 35> C 	 -50.4388 	 18.1778 	 30.9146
| 36> H 	 -49.4585 	 18.6089 	 31.1951
| 37> H 	 -51.0478 	 19.0412 	 30.8233
| 38> H 	 -50.2363 	 17.7647 	 29.9603
| 39> H 	 -44.6554 	 13.448 	 33.3203
| 40> H 	 -51.3521 	 13.5653 	 28.6589
| 41> *
| 42>
| 43>                          ****END OF INPUT****

CARTESIAN COORDINATES (ANGSTROEM)
---------------------------------
  S    -46.971900   12.926700   32.399100
  C    -45.540600   13.876600   32.837100
  C    -45.495600   15.122000   32.332400
  C    -46.745300   15.437300   31.735500
  C    -47.609800   14.387000   31.752000
  H    -47.296500   16.295100   31.418800
  C    -44.392500   16.131600   32.391700
  H    -44.511300   16.799400   31.490400
  H    -43.603400   15.582300   31.958800
  C    -44.059900   16.668100   33.732800
  H    -43.833300   15.821000   34.342500
  H    -43.112100   17.168000   33.826000
  C    -45.061000   17.543500   34.499700
  H    -44.592500   17.773500   35.483500
  H    -45.365700   18.382500   33.933800
  H    -45.948200   16.998000   34.814500
  S    -49.137000   13.274800   29.659000
  C    -50.729000   13.862300   29.377600
  C    -51.127400   14.818000   30.286000
  C    -50.140300   14.989600   31.268800
  C    -48.952800   14.279900   31.092300
  H    -52.102900   15.281400   30.303400
  C    -50.440100   16.019700   32.336100
  H    -49.518600   16.184200   32.917300
  H    -51.098800   15.457700   33.092800
  C    -51.113600   17.335400   31.996200
  H    -51.177000   18.005100   32.866300
  H    -52.206400   17.228800   31.681400
  C    -50.438800   18.177800   30.914600
  H    -49.458500   18.608900   31.195100
  H    -51.047800   19.041200   30.823300
  H    -50.236300   17.764700   29.960300
  H    -44.655400   13.448000   33.320300
  H    -51.352100   13.565300   28.658900

 Total Charge           Charge          ....    0
 Multiplicity           Mult            ....    1
 Number of Electrons    NEL             ....  134
 Basis Dimension        Dim             ....  322

ORBITAL ENERGIES
----------------

  NO   OCC          E(Eh)            E(eV)
   0   2.0000     -88.965275     -2420.8682
   1   2.0000     -88.965069     -2420.8626
   2   2.0000     -10.325145      -280.9615
   3   2.0000     -10.323398      -280.9140
   4   2.0000     -10.309971      -280.5486
   5   2.0000     -10.306160      -280.4449
   6   2.0000     -10.298204      -280.2284
   7   2.0000     -10.297793      -280.2172
   8   2.0000     -10.295456      -280.1536
   9   2.0000     -10.292666      -280.0777
  10   2.0000     -10.289523      -279.9922
  11   2.0000     -10.286560      -279.9115
  12   2.0000     -10.286186      -279.9013
  13   2.0000     -10.282716      -279.8069
  14   2.0000     -10.275470      -279.6098
  15   2.0000     -10.270214      -279.4667
  16   2.0000      -8.080322      -219.8767
  17   2.0000      -8.080219      -219.8740
  18   2.0000      -6.038679      -164.3208
  19   2.0000      -6.038637      -164.3197
  20   2.0000      -6.035001      -164.2207
  21   2.0000      -6.034633      -164.2107
  22   2.0000      -6.031138      -164.1156
  23   2.0000      -6.030977      -164.1112
  24   2.0000      -1.010216       -27.4894
  25   2.0000      -0.990174       -26.9440
  26   2.0000      -0.920527       -25.0488
  27   2.0000      -0.908017       -24.7084
  28   2.0000      -0.868193       -23.6247
  29   2.0000      -0.852479       -23.1971
  30   2.0000      -0.848730       -23.0951
  31   2.0000      -0.819322       -22.2949
  32   2.0000      -0.791267       -21.5315
  33   2.0000      -0.777286       -21.1510
  34   2.0000      -0.712706       -19.3937
  35   2.0000      -0.702318       -19.1110
  36   2.0000      -0.695768       -18.9328
  37   2.0000      -0.658867       -17.9287
  38   2.0000      -0.647445       -17.6179
  39   2.0000      -0.608319       -16.5532
  40   2.0000      -0.595518       -16.2049
  41   2.0000      -0.578324       -15.7370
  42   2.0000      -0.562055       -15.2943
  43   2.0000      -0.551245       -15.0001
  44   2.0000      -0.544484       -14.8162
  45   2.0000      -0.536937       -14.6108
  46   2.0000      -0.516675       -14.0595
  47   2.0000      -0.514242       -13.9932
  48   2.0000      -0.503585       -13.7033
  49   2.0000      -0.492028       -13.3888
  50   2.0000      -0.488612       -13.2958
  51   2.0000      -0.478773       -13.0281
  52   2.0000      -0.470420       -12.8008
  53   2.0000      -0.464821       -12.6484
  54   2.0000      -0.454301       -12.3622
  55   2.0000      -0.451867       -12.2959
  56   2.0000      -0.451290       -12.2802
  57   2.0000      -0.442068       -12.0293
  58   2.0000      -0.432325       -11.7642
  59   2.0000      -0.420211       -11.4345
  60   2.0000      -0.417263       -11.3543
  61   2.0000      -0.413361       -11.2481
  62   2.0000      -0.407584       -11.0909
  63   2.0000      -0.338804        -9.2193
  64   2.0000      -0.335279        -9.1234
  65   2.0000      -0.327737        -8.9182
  66   2.0000      -0.298933        -8.1344
  67   0.0000       0.042470         1.1557
  68   0.0000       0.064503         1.7552
  69   0.0000       0.107897         2.9360
  70   0.0000       0.126891         3.4529
  71   0.0000       0.131034         3.5656

MULLIKEN ATOMIC CHARGES
-----------------------
   0 S :    0.111516
   1 C :   -0.125013
   2 C :   -0.091980
   3 C :    0.062186
   4 C :   -0.204623
   5 H :   -0.004449
   6 C :    0.119894
   7 H :    0.023255
   8 H :    0.009366
   9 C :   -0.034259
  10 H :    0.005448
  11 H :    0.019478
  12 C :   -0.033583
  13 H :    0.032026
  14 H :    0.030470
  15 H :    0.031333
  16 S :    0.117185
  17 C :   -0.024417
  18 C :   -0.036920
  19 C :   -0.044579
  20 C :   -0.158179
  21 H :    0.018121
  22 C :    0.051738
  23 H :    0.021845
  24 H :    0.047252
  25 C :   -0.089587
  26 H :    0.035161
  27 H :    0.033858
  28 C :   -0.032714
  29 H :    0.018494
  30 H :    0.019021
  31 H :    0.033273
  32 H :    0.039567
  33 H :   -0.000184
Sum of atomic charges:   -0.0000000

LOEWDIN ATOMIC CHARGES
----------------------
   0 S :    0.404610
   1 C :   -0.187771
   2 C :   -0.060682
   3 C :   -0.062561
   4 C :   -0.195303
   5 H :    0.033513
   6 C :   -0.038898
   7 H :    0.038963
   8 H :    0.033700
   9 C :   -0.043933
  10 H :    0.024651
  11 H :    0.025637
  12 C :   -0.059310
  13 H :    0.033819
  14 H :    0.018483
  15 H :    0.024995
  16 S :    0.418533
  17 C :   -0.166600
  18 C :   -0.069855
  19 C :   -0.061389
  20 C :   -0.214531
  21 H :    0.033489
  22 C :   -0.045452
  23 H :    0.029090
  24 H :    0.045025
  25 C :   -0.047669
  26 H :    0.033116
  27 H :    0.028000
  28 C :   -0.067368
  29 H :    0.024675
  30 H :    0.023463
  31 H :    0.019635
  32 H :    0.025796
  33 H :    0.002128

  Mayer bond orders larger than 0.100000
B(  0-S ,  1-C ) :   1.1235 B(  0-S ,  4-C ) :   1.1533 B(  1-C ,  2-C ) :   1.6790
B(  1-C , 32-H ) :   0.9602 B(  2-C ,  3-C ) :   1.1686 B(  2-C ,  6-C ) :   0.9970
B(  3-C ,  4-C ) :   1.6411 B(  3-C ,  5-H ) :   0.9973 B(  4-C , 20-C ) :   0.9741
B(  6-C ,  7-H ) :   0.9382 B(  6-C ,  8-H ) :   0.9166 B(  6-C ,  9-C ) :   1.0772
B(  9-C , 10-H ) :   0.9442 B(  9-C , 11-H ) :   0.9509 B(  9-C , 12-C ) :   1.0843
B( 12-C , 13-H ) :   0.9703 B( 12-C , 14-H ) :   0.9771 B( 12-C , 15-H ) :   0.9748
B( 16-S , 17-C ) :   1.1788 B( 16-S , 20-C ) :   1.1376 B( 17-C , 18-C ) :   1.5763
B( 17-C , 33-H ) :   0.9766 B( 18-C , 19-C ) :   1.2721 B( 18-C , 21-H ) :   0.9926
B( 19-C , 20-C ) :   1.5956 B( 19-C , 22-C ) :   1.0419 B( 22-C , 23-H ) :   0.9345
B( 22-C , 24-H ) :   0.9274 B( 22-C , 25-C ) :   1.0791 B( 25-C , 26-H ) :   0.9504
B( 25-C , 27-H ) :   0.9472 B( 25-C , 28-C ) :   1.0817 B( 28-C , 29-H ) :   0.9707
B( 28-C , 30-H ) :   0.9717 B( 28-C , 31-H ) :   0.9754

Dispersion correction           -0.014705226
FINAL SINGLE POINT ENERGY     -1339.853217218865

DIPOLE MOMENT
-------------
                                X             Y             Z
Electronic contribution:     -2.57872     -26.31180     -10.55812
Nuclear contribution   :      2.62368      26.90807      10.70706
                        -----------------------------------------
Total Dipole Moment    :      0.04496       0.59627       0.14894
                        -----------------------------------------
Magnitude (a.u.)       :      0.61624
Magnitude (Debye)      :      1.56635

Rotational constants in cm-1:     0.018990     0.009122     0.006830
Rotational constants in MHz :   569.303598   273.481734   204.756732

                             ****ORCA TERMINATED NORMALLY****
TOTAL RUN TIME: 0 days 0 hours 0 minutes 21 seconds 910 msec
