                         Program Version 4.2.1 -  RELEASE  -
|  1> ! wB97X-D3 SP def2-SVP
|  2> %pal
|  3> nprocs 24
|  4> end
|  5>
|  6> * xyz 0 1
|  7> S 	 -127.847 	 28.9623 	 -21.4906
|  8> C 	 -129.293 	 29.3997 	 -20.6246
|  9> C 	 -129.754 	 28.3079 	 -19.8185
| 10> C 	 -129.098 	 27.1092 	 -20.1393
| 11> C 	 -128.148 	 27.2262 	 -21.1377
| 12> H 	 -129.274 	 26.1441 	 -19.5594
| 13> C 	 -130.855 	 28.4155 	 -18.7578
| 14> H 	 -131.186 	 27.4497 	 -18.551
| 15> H 	 -131.794 	 28.7633 	 -19.3089
| 16> C 	 -130.659 	 29.3687 	 -17.5933
| 17> H 	 -130.397 	 30.3888 	 -18.0002
| 18> H 	 -131.593 	 29.3378 	 -17.0438
| 19> C 	 -129.507 	 28.7902 	 -16.676
| 20> H 	 -129.555 	 29.1778 	 -15.5957
| 21> H 	 -129.702 	 27.7292 	 -16.5689
| 22> H 	 -128.502 	 29.0186 	 -17.1553
| 23> S 	 -125.998 	 26.7347 	 -22.7611
| 24> C 	 -125.397 	 25.1834 	 -23.0405
| 25> C 	 -126.389 	 24.2951 	 -22.679
| 26> C 	 -127.521 	 24.8723 	 -22.0277
| 27> C 	 -127.344 	 26.1871 	 -21.7647
| 28> H 	 -126.143 	 23.2108 	 -22.793
| 29> C 	 -128.714 	 24.0385 	 -21.4636
| 30> H 	 -128.889 	 23.2017 	 -22.1669
| 31> H 	 -129.549 	 24.6908 	 -21.5825
| 32> C 	 -128.49 	 23.5251 	 -20.0296
| 33> H 	 -128.066 	 24.3126 	 -19.3746
| 34> H 	 -127.857 	 22.6564 	 -20.0039
| 35> C 	 -129.814 	 22.9029 	 -19.4626
| 36> H 	 -130.348 	 22.2437 	 -20.145
| 37> H 	 -130.519 	 23.6814 	 -19.1621
| 38> H 	 -129.494 	 22.4327 	 -18.5644
| 39> H 	 -129.592 	 30.4599 	 -20.4856
| 40> H 	 -124.557 	 24.9285 	 -23.6747
| 41> *
| 42>
| 43>                          ****END OF INPUT****

CARTESIAN COORDINATES (ANGSTROEM)
---------------------------------
  S    -127.847000   28.962300  -21.490600
  C    -129.293000   29.399700  -20.624600
  C    -129.754000   28.307900  -19.818500
  C    -129.098000   27.109200  -20.139300
  C    -128.148000   27.226200  -21.137700
  H    -129.274000   26.144100  -19.559400
  C    -130.855000   28.415500  -18.757800
  H    -131.186000   27.449700  -18.551000
  H    -131.794000   28.763300  -19.308900
  C    -130.659000   29.368700  -17.593300
  H    -130.397000   30.388800  -18.000200
  H    -131.593000   29.337800  -17.043800
  C    -129.507000   28.790200  -16.676000
  H    -129.555000   29.177800  -15.595700
  H    -129.702000   27.729200  -16.568900
  H    -128.502000   29.018600  -17.155300
  S    -125.998000   26.734700  -22.761100
  C    -125.397000   25.183400  -23.040500
  C    -126.389000   24.295100  -22.679000
  C    -127.521000   24.872300  -22.027700
  C    -127.344000   26.187100  -21.764700
  H    -126.143000   23.210800  -22.793000
  C    -128.714000   24.038500  -21.463600
  H    -128.889000   23.201700  -22.166900
  H    -129.549000   24.690800  -21.582500
  C    -128.490000   23.525100  -20.029600
  H    -128.066000   24.312600  -19.374600
  H    -127.857000   22.656400  -20.003900
  C    -129.814000   22.902900  -19.462600
  H    -130.348000   22.243700  -20.145000
  H    -130.519000   23.681400  -19.162100
  H    -129.494000   22.432700  -18.564400
  H    -129.592000   30.459900  -20.485600
  H    -124.557000   24.928500  -23.674700

 Total Charge           Charge          ....    0
 Multiplicity           Mult            ....    1
 Number of Electrons    NEL             ....  134
 Basis Dimension        Dim             ....  322

ORBITAL ENERGIES
----------------

  NO   OCC          E(Eh)            E(eV)
   0   2.0000     -88.969942     -2420.9952
   1   2.0000     -88.957221     -2420.6490
   2   2.0000     -10.335964      -281.2559
   3   2.0000     -10.324612      -280.9470
   4   2.0000     -10.320530      -280.8359
   5   2.0000     -10.312120      -280.6070
   6   2.0000     -10.306161      -280.4449
   7   2.0000     -10.300909      -280.3020
   8   2.0000     -10.300335      -280.2864
   9   2.0000     -10.295970      -280.1676
  10   2.0000     -10.294152      -280.1181
  11   2.0000     -10.293439      -280.0987
  12   2.0000     -10.292903      -280.0841
  13   2.0000     -10.292263      -280.0667
  14   2.0000     -10.288096      -279.9533
  15   2.0000     -10.279294      -279.7138
  16   2.0000      -8.083874      -219.9734
  17   2.0000      -8.073644      -219.6950
  18   2.0000      -6.042447      -164.4233
  19   2.0000      -6.038654      -164.3201
  20   2.0000      -6.034455      -164.2059
  21   2.0000      -6.032080      -164.1412
  22   2.0000      -6.028019      -164.0307
  23   2.0000      -6.024263      -163.9285
  24   2.0000      -1.012527       -27.5523
  25   2.0000      -0.985656       -26.8211
  26   2.0000      -0.910244       -24.7690
  27   2.0000      -0.907636       -24.6980
  28   2.0000      -0.868296       -23.6275
  29   2.0000      -0.851919       -23.1819
  30   2.0000      -0.843920       -22.9642
  31   2.0000      -0.808788       -22.0082
  32   2.0000      -0.781452       -21.2644
  33   2.0000      -0.770131       -20.9563
  34   2.0000      -0.705285       -19.1918
  35   2.0000      -0.703130       -19.1331
  36   2.0000      -0.695504       -18.9256
  37   2.0000      -0.662362       -18.0238
  38   2.0000      -0.631636       -17.1877
  39   2.0000      -0.616182       -16.7672
  40   2.0000      -0.592094       -16.1117
  41   2.0000      -0.576409       -15.6849
  42   2.0000      -0.566074       -15.4037
  43   2.0000      -0.539058       -14.6685
  44   2.0000      -0.537029       -14.6133
  45   2.0000      -0.535257       -14.5651
  46   2.0000      -0.513481       -13.9725
  47   2.0000      -0.510297       -13.8859
  48   2.0000      -0.508227       -13.8295
  49   2.0000      -0.497411       -13.5352
  50   2.0000      -0.486990       -13.2517
  51   2.0000      -0.478122       -13.0103
  52   2.0000      -0.471003       -12.8167
  53   2.0000      -0.467898       -12.7321
  54   2.0000      -0.460140       -12.5210
  55   2.0000      -0.450628       -12.2622
  56   2.0000      -0.447123       -12.1668
  57   2.0000      -0.438594       -11.9348
  58   2.0000      -0.434523       -11.8240
  59   2.0000      -0.423964       -11.5367
  60   2.0000      -0.417277       -11.3547
  61   2.0000      -0.415286       -11.3005
  62   2.0000      -0.403231       -10.9725
  63   2.0000      -0.363780        -9.8989
  64   2.0000      -0.334319        -9.0973
  65   2.0000      -0.324899        -8.8410
  66   2.0000      -0.277960        -7.5637
  67   0.0000       0.013952         0.3797
  68   0.0000       0.076536         2.0827
  69   0.0000       0.092841         2.5263
  70   0.0000       0.117226         3.1899
  71   0.0000       0.126870         3.4523

MULLIKEN ATOMIC CHARGES
-----------------------
   0 S :    0.107317
   1 C :   -0.130865
   2 C :   -0.101875
   3 C :   -0.034987
   4 C :   -0.101246
   5 H :    0.034742
   6 C :    0.046887
   7 H :   -0.005681
   8 H :    0.038396
   9 C :   -0.044982
  10 H :    0.044070
  11 H :    0.034401
  12 C :   -0.098967
  13 H :    0.045695
  14 H :    0.027023
  15 H :    0.066288
  16 S :    0.071415
  17 C :   -0.070799
  18 C :   -0.070529
  19 C :   -0.064481
  20 C :   -0.117680
  21 H :    0.031453
  22 C :    0.068143
  23 H :    0.025792
  24 H :    0.025334
  25 C :   -0.085525
  26 H :    0.048789
  27 H :    0.027509
  28 C :   -0.035454
  29 H :    0.038447
  30 H :    0.022318
  31 H :    0.028757
  32 H :    0.066982
  33 H :    0.063311
Sum of atomic charges:    0.0000000

LOEWDIN ATOMIC CHARGES
----------------------
   0 S :    0.396495
   1 C :   -0.208669
   2 C :   -0.062360
   3 C :   -0.079515
   4 C :   -0.171300
   5 H :    0.045855
   6 C :   -0.040353
   7 H :    0.016155
   8 H :    0.043461
   9 C :   -0.037620
  10 H :    0.029884
  11 H :    0.026175
  12 C :   -0.077580
  13 H :    0.031693
  14 H :    0.020062
  15 H :    0.037769
  16 S :    0.409579
  17 C :   -0.202295
  18 C :   -0.084358
  19 C :   -0.063144
  20 C :   -0.185849
  21 H :    0.035643
  22 C :   -0.028568
  23 H :    0.033691
  24 H :    0.024626
  25 C :   -0.037817
  26 H :    0.027666
  27 H :    0.024873
  28 C :   -0.061030
  29 H :    0.026725
  30 H :    0.019703
  31 H :    0.022431
  32 H :    0.032734
  33 H :    0.035238

  Mayer bond orders larger than 0.100000
B(  0-S ,  1-C ) :   1.1510 B(  0-S ,  4-C ) :   1.1439 B(  1-C ,  2-C ) :   1.5589
B(  1-C ,  4-C ) :   0.1135 B(  1-C , 32-H ) :   0.9648 B(  2-C ,  3-C ) :   1.2907
B(  2-C ,  6-C ) :   1.0126 B(  3-C ,  4-C ) :   1.5373 B(  3-C ,  5-H ) :   0.9778
B(  4-C , 20-C ) :   1.0987 B(  6-C ,  7-H ) :   0.9410 B(  6-C ,  8-H ) :   0.9342
B(  6-C ,  9-C ) :   1.0720 B(  9-C , 10-H ) :   0.9579 B(  9-C , 11-H ) :   0.9520
B(  9-C , 12-C ) :   1.0603 B( 12-C , 13-H ) :   0.9771 B( 12-C , 14-H ) :   0.9766
B( 12-C , 15-H ) :   0.9752 B( 16-S , 17-C ) :   1.1685 B( 16-S , 20-C ) :   1.1269
B( 17-C , 18-C ) :   1.6006 B( 17-C , 33-H ) :   0.9693 B( 18-C , 19-C ) :   1.2381
B( 18-C , 21-H ) :   0.9857 B( 19-C , 20-C ) :   1.5906 B( 19-C , 22-C ) :   1.0383
B( 22-C , 23-H ) :   0.9317 B( 22-C , 24-H ) :   0.9377 B( 22-C , 25-C ) :   1.0630
B( 25-C , 26-H ) :   0.9559 B( 25-C , 27-H ) :   0.9557 B( 25-C , 28-C ) :   1.0688
B( 28-C , 29-H ) :   0.9742 B( 28-C , 30-H ) :   0.9771 B( 28-C , 31-H ) :   0.9766

Dispersion correction           -0.014581839
FINAL SINGLE POINT ENERGY     -1339.860650517356

DIPOLE MOMENT
-------------
                                X             Y             Z
Electronic contribution:     17.07841      10.56375     -22.00057
Nuclear contribution   :    -17.48925     -11.01944      22.42740
                        -----------------------------------------
Total Dipole Moment    :     -0.41084      -0.45568       0.42683
                        -----------------------------------------
Magnitude (a.u.)       :      0.74741
Magnitude (Debye)      :      1.89976

Rotational constants in cm-1:     0.018279     0.009470     0.006739
Rotational constants in MHz :   547.975724   283.916752   202.041577

                             ****ORCA TERMINATED NORMALLY****
TOTAL RUN TIME: 0 days 0 hours 0 minutes 21 seconds 875 msec
