                         Program Version 4.2.1 -  RELEASE  -
|  1> ! wB97X-D3 SP def2-SVP
|  2> %pal
|  3> nprocs 24
|  4> end
|  5>
|  6> * xyz 0 1
|  7> S 	 -100.9 	 12.0531 	 -122.624
|  8> C 	 -99.436 	 12.9302 	 -123
|  9> C 	 -99.1877 	 13.9532 	 -122.11
| 10> C 	 -100.316 	 14.23 	 -121.305
| 11> C 	 -101.226 	 13.2249 	 -121.337
| 12> H 	 -100.33 	 15.0593 	 -120.606
| 13> C 	 -97.8885 	 14.6962 	 -122.133
| 14> H 	 -97.1529 	 14.1154 	 -122.755
| 15> H 	 -97.521 	 14.6253 	 -121.083
| 16> C 	 -97.9309 	 16.2341 	 -122.536
| 17> H 	 -98.4433 	 16.3596 	 -123.456
| 18> H 	 -98.5487 	 16.8017 	 -121.844
| 19> C 	 -96.6425 	 16.9853 	 -122.591
| 20> H 	 -95.8861 	 16.3686 	 -122.958
| 21> H 	 -96.7026 	 17.8804 	 -123.091
| 22> H 	 -96.3128 	 17.2053 	 -121.55
| 23> S 	 -103.911 	 13.0422 	 -121.569
| 24> C 	 -104.896 	 13.3504 	 -120.125
| 25> C 	 -104.118 	 13.445 	 -118.995
| 26> C 	 -102.735 	 13.2695 	 -119.252
| 27> C 	 -102.49 	 13.173 	 -120.616
| 28> H 	 -104.454 	 13.6523 	 -118.014
| 29> C 	 -101.786 	 13.4414 	 -118.166
| 30> H 	 -101.864 	 14.4276 	 -117.697
| 31> H 	 -100.849 	 13.4076 	 -118.642
| 32> C 	 -101.867 	 12.3146 	 -117.077
| 33> H 	 -101.502 	 11.4048 	 -117.522
| 34> H 	 -102.853 	 12.2758 	 -116.684
| 35> C 	 -100.854 	 12.6487 	 -115.988
| 36> H 	 -99.8569 	 12.8559 	 -116.358
| 37> H 	 -100.843 	 11.8949 	 -115.179
| 38> H 	 -101.151 	 13.59 	 -115.55
| 39> H 	 -98.7366 	 12.6254 	 -123.753
| 40> H 	 -105.905 	 13.4975 	 -120.135
| 41> *
| 42>
| 43>                          ****END OF INPUT****

CARTESIAN COORDINATES (ANGSTROEM)
---------------------------------
  S    -100.900000   12.053100  -122.624000
  C    -99.436000   12.930200  -123.000000
  C    -99.187700   13.953200  -122.110000
  C    -100.316000   14.230000  -121.305000
  C    -101.226000   13.224900  -121.337000
  H    -100.330000   15.059300  -120.606000
  C    -97.888500   14.696200  -122.133000
  H    -97.152900   14.115400  -122.755000
  H    -97.521000   14.625300  -121.083000
  C    -97.930900   16.234100  -122.536000
  H    -98.443300   16.359600  -123.456000
  H    -98.548700   16.801700  -121.844000
  C    -96.642500   16.985300  -122.591000
  H    -95.886100   16.368600  -122.958000
  H    -96.702600   17.880400  -123.091000
  H    -96.312800   17.205300  -121.550000
  S    -103.911000   13.042200  -121.569000
  C    -104.896000   13.350400  -120.125000
  C    -104.118000   13.445000  -118.995000
  C    -102.735000   13.269500  -119.252000
  C    -102.490000   13.173000  -120.616000
  H    -104.454000   13.652300  -118.014000
  C    -101.786000   13.441400  -118.166000
  H    -101.864000   14.427600  -117.697000
  H    -100.849000   13.407600  -118.642000
  C    -101.867000   12.314600  -117.077000
  H    -101.502000   11.404800  -117.522000
  H    -102.853000   12.275800  -116.684000
  C    -100.854000   12.648700  -115.988000
  H    -99.856900   12.855900  -116.358000
  H    -100.843000   11.894900  -115.179000
  H    -101.151000   13.590000  -115.550000
  H    -98.736600   12.625400  -123.753000
  H    -105.905000   13.497500  -120.135000

 Total Charge           Charge          ....    0
 Multiplicity           Mult            ....    1
 Number of Electrons    NEL             ....  134
 Basis Dimension        Dim             ....  322

ORBITAL ENERGIES
----------------

  NO   OCC          E(Eh)            E(eV)
   0   2.0000     -88.965295     -2420.8688
   1   2.0000     -88.965134     -2420.8644
   2   2.0000     -10.326935      -281.0102
   3   2.0000     -10.320006      -280.8216
   4   2.0000     -10.310400      -280.5603
   5   2.0000     -10.308439      -280.5069
   6   2.0000     -10.301729      -280.3243
   7   2.0000     -10.296667      -280.1866
   8   2.0000     -10.292020      -280.0601
   9   2.0000     -10.291772      -280.0533
  10   2.0000     -10.286945      -279.9220
  11   2.0000     -10.283314      -279.8232
  12   2.0000     -10.283102      -279.8174
  13   2.0000     -10.281575      -279.7759
  14   2.0000     -10.275073      -279.5989
  15   2.0000     -10.267281      -279.3869
  16   2.0000      -8.080111      -219.8710
  17   2.0000      -8.079925      -219.8659
  18   2.0000      -6.038614      -164.3190
  19   2.0000      -6.038376      -164.3126
  20   2.0000      -6.034656      -164.2113
  21   2.0000      -6.034614      -164.2102
  22   2.0000      -6.030794      -164.1063
  23   2.0000      -6.030607      -164.1012
  24   2.0000      -1.010585       -27.4994
  25   2.0000      -0.986487       -26.8437
  26   2.0000      -0.915620       -24.9153
  27   2.0000      -0.908695       -24.7268
  28   2.0000      -0.873098       -23.7582
  29   2.0000      -0.857479       -23.3332
  30   2.0000      -0.852631       -23.2013
  31   2.0000      -0.820685       -22.3320
  32   2.0000      -0.780460       -21.2374
  33   2.0000      -0.766402       -20.8548
  34   2.0000      -0.709748       -19.3132
  35   2.0000      -0.704517       -19.1709
  36   2.0000      -0.697807       -18.9883
  37   2.0000      -0.667499       -18.1636
  38   2.0000      -0.641531       -17.4569
  39   2.0000      -0.623655       -16.9705
  40   2.0000      -0.601576       -16.3697
  41   2.0000      -0.574531       -15.6338
  42   2.0000      -0.566859       -15.4250
  43   2.0000      -0.557984       -15.1835
  44   2.0000      -0.536400       -14.5962
  45   2.0000      -0.526487       -14.3264
  46   2.0000      -0.520833       -14.1726
  47   2.0000      -0.511271       -13.9124
  48   2.0000      -0.507175       -13.8009
  49   2.0000      -0.502450       -13.6724
  50   2.0000      -0.496103       -13.4996
  51   2.0000      -0.474716       -12.9177
  52   2.0000      -0.471354       -12.8262
  53   2.0000      -0.465611       -12.6699
  54   2.0000      -0.457554       -12.4507
  55   2.0000      -0.453774       -12.3478
  56   2.0000      -0.451083       -12.2746
  57   2.0000      -0.434719       -11.8293
  58   2.0000      -0.432350       -11.7648
  59   2.0000      -0.429266       -11.6809
  60   2.0000      -0.428301       -11.6547
  61   2.0000      -0.422486       -11.4964
  62   2.0000      -0.413246       -11.2450
  63   2.0000      -0.347672        -9.4606
  64   2.0000      -0.331032        -9.0078
  65   2.0000      -0.325246        -8.8504
  66   2.0000      -0.290638        -7.9087
  67   0.0000       0.034868         0.9488
  68   0.0000       0.071258         1.9390
  69   0.0000       0.105579         2.8730
  70   0.0000       0.117647         3.2014
  71   0.0000       0.134708         3.6656

MULLIKEN ATOMIC CHARGES
-----------------------
   0 S :    0.104131
   1 C :   -0.119473
   2 C :   -0.087597
   3 C :    0.043170
   4 C :   -0.160649
   5 H :    0.017157
   6 C :    0.045099
   7 H :    0.025955
   8 H :    0.035368
   9 C :   -0.078150
  10 H :    0.021123
  11 H :    0.019934
  12 C :    0.015645
  13 H :    0.009641
  14 H :    0.023440
  15 H :    0.018348
  16 S :    0.113282
  17 C :   -0.049664
  18 C :   -0.008980
  19 C :   -0.020652
  20 C :   -0.156470
  21 H :    0.000360
  22 C :    0.050377
  23 H :    0.029925
  24 H :   -0.002101
  25 C :   -0.054593
  26 H :    0.033790
  27 H :    0.028473
  28 C :   -0.025447
  29 H :    0.023271
  30 H :    0.039877
  31 H :    0.007468
  32 H :    0.039658
  33 H :    0.018284
Sum of atomic charges:    0.0000000

LOEWDIN ATOMIC CHARGES
----------------------
   0 S :    0.388689
   1 C :   -0.193460
   2 C :   -0.065701
   3 C :   -0.058286
   4 C :   -0.181294
   5 H :    0.033372
   6 C :   -0.032312
   7 H :    0.033213
   8 H :    0.035685
   9 C :   -0.041010
  10 H :    0.019095
  11 H :    0.022890
  12 C :   -0.052868
  13 H :    0.016251
  14 H :    0.019046
  15 H :    0.028739
  16 S :    0.411708
  17 C :   -0.161153
  18 C :   -0.054963
  19 C :   -0.059791
  20 C :   -0.209785
  21 H :    0.023712
  22 C :   -0.032708
  23 H :    0.031455
  24 H :    0.021970
  25 C :   -0.022963
  26 H :    0.027208
  27 H :    0.018183
  28 C :   -0.064095
  29 H :    0.023508
  30 H :    0.027254
  31 H :    0.018367
  32 H :    0.022026
  33 H :    0.008019

  Mayer bond orders larger than 0.100000
B(  0-S ,  1-C ) :   1.1261 B(  0-S ,  4-C ) :   1.1417 B(  1-C ,  2-C ) :   1.6236
B(  1-C , 32-H ) :   0.9664 B(  2-C ,  3-C ) :   1.2282 B(  2-C ,  6-C ) :   1.0375
B(  3-C ,  4-C ) :   1.5977 B(  3-C ,  5-H ) :   0.9879 B(  4-C , 20-C ) :   1.0198
B(  6-C ,  7-H ) :   0.9407 B(  6-C ,  8-H ) :   0.9323 B(  6-C ,  9-C ) :   1.0492
B(  9-C , 10-H ) :   0.9587 B(  9-C , 11-H ) :   0.9539 B(  9-C , 12-C ) :   1.0955
B( 12-C , 13-H ) :   0.9725 B( 12-C , 14-H ) :   0.9708 B( 12-C , 15-H ) :   0.9724
B( 16-S , 17-C ) :   1.1393 B( 16-S , 20-C ) :   1.1512 B( 17-C , 18-C ) :   1.6045
B( 17-C , 33-H ) :   0.9817 B( 18-C , 19-C ) :   1.2364 B( 18-C , 21-H ) :   0.9929
B( 19-C , 20-C ) :   1.5876 B( 19-C , 22-C ) :   1.0636 B( 22-C , 23-H ) :   0.9375
B( 22-C , 24-H ) :   0.9147 B( 22-C , 25-C ) :   1.0633 B( 25-C , 26-H ) :   0.9522
B( 25-C , 27-H ) :   0.9615 B( 25-C , 28-C ) :   1.0893 B( 28-C , 29-H ) :   0.9711
B( 28-C , 30-H ) :   0.9739 B( 28-C , 31-H ) :   0.9708

Dispersion correction           -0.013425263
FINAL SINGLE POINT ENERGY     -1339.873698277730

DIPOLE MOMENT
-------------
                                X             Y             Z
Electronic contribution:    -20.26645     -12.83859     -15.65884
Nuclear contribution   :     20.63282      13.30431      16.09636
                        -----------------------------------------
Total Dipole Moment    :      0.36637       0.46572       0.43752
                        -----------------------------------------
Magnitude (a.u.)       :      0.73658
Magnitude (Debye)      :      1.87224

Rotational constants in cm-1:     0.017345     0.007999     0.006458
Rotational constants in MHz :   519.985399   239.814911   193.612226

                             ****ORCA TERMINATED NORMALLY****
TOTAL RUN TIME: 0 days 0 hours 0 minutes 20 seconds 115 msec
