                         Program Version 4.2.1 -  RELEASE  -
|  1> ! wB97X-D3 SP def2-SVP
|  2> %pal
|  3> nprocs 24
|  4> end
|  5>
|  6> * xyz 0 1
|  7> S 	 -51.9777 	 12.0989 	 23.1523
|  8> C 	 -52.7367 	 10.6682 	 22.6505
|  9> C 	 -52.4755 	 9.62977 	 23.5078
| 10> C 	 -51.7681 	 10.0757 	 24.6738
| 11> C 	 -51.4591 	 11.4075 	 24.6646
| 12> H 	 -51.5142 	 9.42857 	 25.5059
| 13> C 	 -52.9928 	 8.21243 	 23.2643
| 14> H 	 -52.2723 	 7.5368 	 23.6084
| 15> H 	 -53.0775 	 8.16189 	 22.1442
| 16> C 	 -54.4182 	 7.91667 	 23.7511
| 17> H 	 -54.4228 	 8.35128 	 24.7658
| 18> H 	 -55.2503 	 8.43526 	 23.1908
| 19> C 	 -54.7103 	 6.38975 	 23.9235
| 20> H 	 -54.118 	 5.68475 	 23.3157
| 21> H 	 -54.625 	 6.06102 	 24.9861
| 22> H 	 -55.7133 	 6.18253 	 23.5772
| 23> S 	 -51.9009 	 13.6086 	 26.1589
| 24> C 	 -50.7154 	 14.1775 	 27.3209
| 25> C 	 -49.7823 	 13.1418 	 27.5705
| 26> C 	 -49.8639 	 12.0706 	 26.5739
| 27> C 	 -50.947 	 12.2213 	 25.7377
| 28> H 	 -49.0899 	 13.2071 	 28.4139
| 29> C 	 -48.9136 	 10.8899 	 26.446
| 30> H 	 -49.3136 	 10.0778 	 25.858
| 31> H 	 -48.593 	 10.5064 	 27.4182
| 32> C 	 -47.5267 	 11.1835 	 25.7478
| 33> H 	 -46.8073 	 10.3748 	 25.9957
| 34> H 	 -47.0446 	 12.0949 	 26.1326
| 35> C 	 -47.6235 	 11.3364 	 24.246
| 36> H 	 -48.46 	 11.9607 	 23.9942
| 37> H 	 -47.824 	 10.3845 	 23.7811
| 38> H 	 -46.5982 	 11.6819 	 23.9535
| 39> H 	 -53.3618 	 10.6278 	 21.7396
| 40> H 	 -50.784 	 15.0209 	 27.871
| 41> *
| 42>
| 43>                          ****END OF INPUT****

CARTESIAN COORDINATES (ANGSTROEM)
---------------------------------
  S    -51.977700   12.098900   23.152300
  C    -52.736700   10.668200   22.650500
  C    -52.475500    9.629770   23.507800
  C    -51.768100   10.075700   24.673800
  C    -51.459100   11.407500   24.664600
  H    -51.514200    9.428570   25.505900
  C    -52.992800    8.212430   23.264300
  H    -52.272300    7.536800   23.608400
  H    -53.077500    8.161890   22.144200
  C    -54.418200    7.916670   23.751100
  H    -54.422800    8.351280   24.765800
  H    -55.250300    8.435260   23.190800
  C    -54.710300    6.389750   23.923500
  H    -54.118000    5.684750   23.315700
  H    -54.625000    6.061020   24.986100
  H    -55.713300    6.182530   23.577200
  S    -51.900900   13.608600   26.158900
  C    -50.715400   14.177500   27.320900
  C    -49.782300   13.141800   27.570500
  C    -49.863900   12.070600   26.573900
  C    -50.947000   12.221300   25.737700
  H    -49.089900   13.207100   28.413900
  C    -48.913600   10.889900   26.446000
  H    -49.313600   10.077800   25.858000
  H    -48.593000   10.506400   27.418200
  C    -47.526700   11.183500   25.747800
  H    -46.807300   10.374800   25.995700
  H    -47.044600   12.094900   26.132600
  C    -47.623500   11.336400   24.246000
  H    -48.460000   11.960700   23.994200
  H    -47.824000   10.384500   23.781100
  H    -46.598200   11.681900   23.953500
  H    -53.361800   10.627800   21.739600
  H    -50.784000   15.020900   27.871000

 Total Charge           Charge          ....    0
 Multiplicity           Mult            ....    1
 Number of Electrons    NEL             ....  134
 Basis Dimension        Dim             ....  322

ORBITAL ENERGIES
----------------

  NO   OCC          E(Eh)            E(eV)
   0   2.0000     -88.964690     -2420.8523
   1   2.0000     -88.964642     -2420.8510
   2   2.0000     -10.326176      -280.9895
   3   2.0000     -10.323711      -280.9225
   4   2.0000     -10.315692      -280.7043
   5   2.0000     -10.311563      -280.5919
   6   2.0000     -10.307750      -280.4881
   7   2.0000     -10.304548      -280.4010
   8   2.0000     -10.299164      -280.2545
   9   2.0000     -10.294812      -280.1361
  10   2.0000     -10.293909      -280.1115
  11   2.0000     -10.292077      -280.0616
  12   2.0000     -10.291490      -280.0457
  13   2.0000     -10.283016      -279.8151
  14   2.0000     -10.282662      -279.8054
  15   2.0000     -10.267651      -279.3970
  16   2.0000      -8.080636      -219.8853
  17   2.0000      -8.079615      -219.8575
  18   2.0000      -6.038959      -164.3284
  19   2.0000      -6.038148      -164.3063
  20   2.0000      -6.034864      -164.2170
  21   2.0000      -6.034066      -164.1953
  22   2.0000      -6.031607      -164.1284
  23   2.0000      -6.030338      -164.0938
  24   2.0000      -1.013809       -27.5871
  25   2.0000      -0.986527       -26.8448
  26   2.0000      -0.908448       -24.7201
  27   2.0000      -0.903300       -24.5800
  28   2.0000      -0.871834       -23.7238
  29   2.0000      -0.850565       -23.1451
  30   2.0000      -0.843204       -22.9447
  31   2.0000      -0.816845       -22.2275
  32   2.0000      -0.780754       -21.2454
  33   2.0000      -0.771108       -20.9829
  34   2.0000      -0.704410       -19.1680
  35   2.0000      -0.698536       -19.0081
  36   2.0000      -0.691282       -18.8107
  37   2.0000      -0.662129       -18.0175
  38   2.0000      -0.645855       -17.5746
  39   2.0000      -0.621269       -16.9056
  40   2.0000      -0.596723       -16.2377
  41   2.0000      -0.570977       -15.5371
  42   2.0000      -0.557461       -15.1693
  43   2.0000      -0.549978       -14.9657
  44   2.0000      -0.537720       -14.6321
  45   2.0000      -0.521853       -14.2003
  46   2.0000      -0.521018       -14.1776
  47   2.0000      -0.512143       -13.9361
  48   2.0000      -0.505093       -13.7443
  49   2.0000      -0.502286       -13.6679
  50   2.0000      -0.494925       -13.4676
  51   2.0000      -0.478799       -13.0288
  52   2.0000      -0.471129       -12.8201
  53   2.0000      -0.466188       -12.6856
  54   2.0000      -0.462475       -12.5846
  55   2.0000      -0.448941       -12.2163
  56   2.0000      -0.441276       -12.0077
  57   2.0000      -0.439633       -11.9630
  58   2.0000      -0.424917       -11.5626
  59   2.0000      -0.422589       -11.4992
  60   2.0000      -0.418774       -11.3954
  61   2.0000      -0.410547       -11.1716
  62   2.0000      -0.407589       -11.0911
  63   2.0000      -0.348881        -9.4935
  64   2.0000      -0.330629        -8.9969
  65   2.0000      -0.324355        -8.8262
  66   2.0000      -0.295158        -8.0317
  67   0.0000       0.028731         0.7818
  68   0.0000       0.072831         1.9818
  69   0.0000       0.105891         2.8814
  70   0.0000       0.116273         3.1639
  71   0.0000       0.138905         3.7798

MULLIKEN ATOMIC CHARGES
-----------------------
   0 S :    0.126530
   1 C :   -0.142188
   2 C :   -0.104990
   3 C :    0.042270
   4 C :   -0.174469
   5 H :    0.017533
   6 C :    0.088531
   7 H :    0.016646
   8 H :    0.028464
   9 C :   -0.091180
  10 H :    0.033597
  11 H :    0.044847
  12 C :   -0.063254
  13 H :    0.031608
  14 H :    0.045544
  15 H :    0.027097
  16 S :    0.113346
  17 C :   -0.056048
  18 C :   -0.041394
  19 C :   -0.020576
  20 C :   -0.153836
  21 H :    0.029372
  22 C :    0.075967
  23 H :    0.013008
  24 H :    0.022909
  25 C :   -0.110484
  26 H :    0.027738
  27 H :    0.024694
  28 C :   -0.030227
  29 H :    0.035206
  30 H :    0.021525
  31 H :    0.039601
  32 H :    0.062224
  33 H :    0.020389
Sum of atomic charges:   -0.0000000

LOEWDIN ATOMIC CHARGES
----------------------
   0 S :    0.432732
   1 C :   -0.212509
   2 C :   -0.070225
   3 C :   -0.060393
   4 C :   -0.205131
   5 H :    0.031450
   6 C :   -0.029658
   7 H :    0.022499
   8 H :    0.036543
   9 C :   -0.047059
  10 H :    0.026937
  11 H :    0.031333
  12 C :   -0.074715
  13 H :    0.025125
  14 H :    0.032054
  15 H :    0.025121
  16 S :    0.414322
  17 C :   -0.167711
  18 C :   -0.060921
  19 C :   -0.056671
  20 C :   -0.205867
  21 H :    0.032734
  22 C :   -0.031673
  23 H :    0.026410
  24 H :    0.032094
  25 C :   -0.043005
  26 H :    0.023179
  27 H :    0.019774
  28 C :   -0.064788
  29 H :    0.023152
  30 H :    0.019817
  31 H :    0.033408
  32 H :    0.035490
  33 H :    0.006153

  Mayer bond orders larger than 0.100000
B(  0-S ,  1-C ) :   1.1619 B(  0-S ,  4-C ) :   1.1583 B(  1-C ,  2-C ) :   1.5898
B(  1-C , 32-H ) :   0.9655 B(  2-C ,  3-C ) :   1.2582 B(  2-C ,  6-C ) :   1.0268
B(  3-C ,  4-C ) :   1.5591 B(  3-C ,  5-H ) :   0.9923 B(  4-C , 20-C ) :   1.0369
B(  6-C ,  7-H ) :   0.9420 B(  6-C ,  8-H ) :   0.9364 B(  6-C ,  9-C ) :   1.0578
B(  9-C , 10-H ) :   0.9653 B(  9-C , 11-H ) :   0.9617 B(  9-C , 12-C ) :   1.0548
B( 12-C , 13-H ) :   0.9788 B( 12-C , 14-H ) :   0.9809 B( 12-C , 15-H ) :   0.9777
B( 16-S , 17-C ) :   1.1523 B( 16-S , 20-C ) :   1.1483 B( 17-C , 18-C ) :   1.6013
B( 17-C , 33-H ) :   0.9845 B( 18-C , 19-C ) :   1.2233 B( 18-C , 21-H ) :   0.9867
B( 19-C , 20-C ) :   1.5944 B( 19-C , 22-C ) :   1.0599 B( 22-C , 23-H ) :   0.9357
B( 22-C , 24-H ) :   0.9315 B( 22-C , 25-C ) :   1.0623 B( 25-C , 26-H ) :   0.9564
B( 25-C , 27-H ) :   0.9609 B( 25-C , 28-C ) :   1.0775 B( 28-C , 29-H ) :   0.9759
B( 28-C , 30-H ) :   0.9733 B( 28-C , 31-H ) :   0.9732

Dispersion correction           -0.014476491
FINAL SINGLE POINT ENERGY     -1339.877614952360

DIPOLE MOMENT
-------------
                                X             Y             Z
Electronic contribution:     -4.86914      23.11754       2.02063
Nuclear contribution   :      4.90527     -23.66060      -1.82174
                        -----------------------------------------
Total Dipole Moment    :      0.03613      -0.54306       0.19889
                        -----------------------------------------
Magnitude (a.u.)       :      0.57946
Magnitude (Debye)      :      1.47286

Rotational constants in cm-1:     0.020337     0.007824     0.007063
Rotational constants in MHz :   609.691253   234.570365   211.740929

                             ****ORCA TERMINATED NORMALLY****
TOTAL RUN TIME: 0 days 0 hours 0 minutes 20 seconds 477 msec
