                         Program Version 4.2.1 -  RELEASE  -
|  1> ! wB97X-D3 SP def2-SVP
|  2> %pal
|  3> nprocs 24
|  4> end
|  5>
|  6> * xyz 0 1
|  7> S 	 6.87339 	 -17.5511 	 -111.413
|  8> C 	 5.70297 	 -18.0219 	 -112.595
|  9> C 	 4.40329 	 -18.0364 	 -112.138
| 10> C 	 4.36925 	 -17.5854 	 -110.721
| 11> C 	 5.60055 	 -17.2997 	 -110.209
| 12> H 	 3.61975 	 -17.5313 	 -109.994
| 13> C 	 3.12691 	 -18.5084 	 -112.791
| 14> H 	 3.40178 	 -18.7594 	 -113.848
| 15> H 	 2.53693 	 -17.6266 	 -112.914
| 16> C 	 2.36322 	 -19.6052 	 -112.054
| 17> H 	 3.06066 	 -20.4609 	 -111.924
| 18> H 	 1.97797 	 -19.2921 	 -111.048
| 19> C 	 1.20979 	 -20.1029 	 -112.968
| 20> H 	 0.400317 	 -20.573 	 -112.302
| 21> H 	 0.541743 	 -19.3057 	 -113.293
| 22> H 	 1.45209 	 -20.8682 	 -113.783
| 23> S 	 7.30776 	 -17.7002 	 -108.007
| 24> C 	 6.97182 	 -16.9668 	 -106.471
| 25> C 	 5.84282 	 -16.1474 	 -106.597
| 26> C 	 5.18863 	 -16.2404 	 -107.868
| 27> C 	 5.95369 	 -16.9206 	 -108.816
| 28> H 	 5.50914 	 -15.5864 	 -105.771
| 29> C 	 3.7892 	 -15.659 	 -108.077
| 30> H 	 3.4974 	 -15.539 	 -109.106
| 31> H 	 3.87552 	 -14.6111 	 -107.754
| 32> C 	 2.61294 	 -16.1023 	 -107.173
| 33> H 	 1.72133 	 -15.6216 	 -107.594
| 34> H 	 2.50731 	 -15.5252 	 -106.181
| 35> C 	 2.36882 	 -17.5718 	 -106.899
| 36> H 	 1.57637 	 -17.8023 	 -106.179
| 37> H 	 3.32424 	 -18.0304 	 -106.494
| 38> H 	 2.0452 	 -18.0514 	 -107.848
| 39> H 	 6.02263 	 -18.4178 	 -113.605
| 40> H 	 7.53969 	 -17.0306 	 -105.577
| 41> *
| 42>
| 43>                          ****END OF INPUT****

CARTESIAN COORDINATES (ANGSTROEM)
---------------------------------
  S      6.873390  -17.551100  -111.413000
  C      5.702970  -18.021900  -112.595000
  C      4.403290  -18.036400  -112.138000
  C      4.369250  -17.585400  -110.721000
  C      5.600550  -17.299700  -110.209000
  H      3.619750  -17.531300  -109.994000
  C      3.126910  -18.508400  -112.791000
  H      3.401780  -18.759400  -113.848000
  H      2.536930  -17.626600  -112.914000
  C      2.363220  -19.605200  -112.054000
  H      3.060660  -20.460900  -111.924000
  H      1.977970  -19.292100  -111.048000
  C      1.209790  -20.102900  -112.968000
  H      0.400317  -20.573000  -112.302000
  H      0.541743  -19.305700  -113.293000
  H      1.452090  -20.868200  -113.783000
  S      7.307760  -17.700200  -108.007000
  C      6.971820  -16.966800  -106.471000
  C      5.842820  -16.147400  -106.597000
  C      5.188630  -16.240400  -107.868000
  C      5.953690  -16.920600  -108.816000
  H      5.509140  -15.586400  -105.771000
  C      3.789200  -15.659000  -108.077000
  H      3.497400  -15.539000  -109.106000
  H      3.875520  -14.611100  -107.754000
  C      2.612940  -16.102300  -107.173000
  H      1.721330  -15.621600  -107.594000
  H      2.507310  -15.525200  -106.181000
  C      2.368820  -17.571800  -106.899000
  H      1.576370  -17.802300  -106.179000
  H      3.324240  -18.030400  -106.494000
  H      2.045200  -18.051400  -107.848000
  H      6.022630  -18.417800  -113.605000
  H      7.539690  -17.030600  -105.577000

 Total Charge           Charge          ....    0
 Multiplicity           Mult            ....    1
 Number of Electrons    NEL             ....  134
 Basis Dimension        Dim             ....  322

ORBITAL ENERGIES
----------------

  NO   OCC          E(Eh)            E(eV)
   0   2.0000     -88.967122     -2420.9185
   1   2.0000     -88.962100     -2420.7818
   2   2.0000     -10.330591      -281.1097
   3   2.0000     -10.329840      -281.0892
   4   2.0000     -10.318927      -280.7923
   5   2.0000     -10.317409      -280.7510
   6   2.0000     -10.307744      -280.4880
   7   2.0000     -10.306673      -280.4588
   8   2.0000     -10.299208      -280.2557
   9   2.0000     -10.296468      -280.1811
  10   2.0000     -10.296088      -280.1708
  11   2.0000     -10.293702      -280.1059
  12   2.0000     -10.293560      -280.1020
  13   2.0000     -10.291442      -280.0444
  14   2.0000     -10.290631      -280.0223
  15   2.0000     -10.283860      -279.8381
  16   2.0000      -8.081693      -219.9140
  17   2.0000      -8.077238      -219.7928
  18   2.0000      -6.040324      -164.3656
  19   2.0000      -6.036057      -164.2495
  20   2.0000      -6.035876      -164.2445
  21   2.0000      -6.032484      -164.1522
  22   2.0000      -6.031780      -164.1331
  23   2.0000      -6.027753      -164.0235
  24   2.0000      -1.003858       -27.3164
  25   2.0000      -0.982240       -26.7281
  26   2.0000      -0.910817       -24.7846
  27   2.0000      -0.907078       -24.6828
  28   2.0000      -0.868466       -23.6322
  29   2.0000      -0.850162       -23.1341
  30   2.0000      -0.842369       -22.9220
  31   2.0000      -0.815756       -22.1978
  32   2.0000      -0.786338       -21.3973
  33   2.0000      -0.771602       -20.9963
  34   2.0000      -0.707451       -19.2507
  35   2.0000      -0.696087       -18.9415
  36   2.0000      -0.690394       -18.7866
  37   2.0000      -0.661488       -18.0000
  38   2.0000      -0.643395       -17.5077
  39   2.0000      -0.617087       -16.7918
  40   2.0000      -0.593590       -16.1524
  41   2.0000      -0.570641       -15.5279
  42   2.0000      -0.560426       -15.2500
  43   2.0000      -0.551714       -15.0129
  44   2.0000      -0.542329       -14.7575
  45   2.0000      -0.520694       -14.1688
  46   2.0000      -0.513647       -13.9771
  47   2.0000      -0.510475       -13.8907
  48   2.0000      -0.508261       -13.8305
  49   2.0000      -0.496984       -13.5236
  50   2.0000      -0.491399       -13.3716
  51   2.0000      -0.478055       -13.0085
  52   2.0000      -0.472324       -12.8526
  53   2.0000      -0.464441       -12.6381
  54   2.0000      -0.461186       -12.5495
  55   2.0000      -0.445254       -12.1160
  56   2.0000      -0.442810       -12.0495
  57   2.0000      -0.440001       -11.9730
  58   2.0000      -0.429124       -11.6771
  59   2.0000      -0.427349       -11.6288
  60   2.0000      -0.419021       -11.4021
  61   2.0000      -0.415001       -11.2927
  62   2.0000      -0.399841       -10.8802
  63   2.0000      -0.356309        -9.6957
  64   2.0000      -0.328508        -8.9392
  65   2.0000      -0.324577        -8.8322
  66   2.0000      -0.290785        -7.9127
  67   0.0000       0.030125         0.8197
  68   0.0000       0.079202         2.1552
  69   0.0000       0.109691         2.9849
  70   0.0000       0.117934         3.2091
  71   0.0000       0.125141         3.4052

MULLIKEN ATOMIC CHARGES
-----------------------
   0 S :    0.097653
   1 C :   -0.141368
   2 C :   -0.074778
   3 C :    0.030767
   4 C :   -0.150836
   5 H :   -0.026358
   6 C :    0.080121
   7 H :    0.019585
   8 H :    0.027612
   9 C :   -0.078348
  10 H :    0.046326
  11 H :    0.048615
  12 C :   -0.092256
  13 H :    0.026632
  14 H :    0.027532
  15 H :    0.065170
  16 S :    0.106714
  17 C :   -0.082528
  18 C :   -0.019117
  19 C :   -0.060353
  20 C :   -0.108387
  21 H :    0.002775
  22 C :    0.066301
  23 H :    0.031194
  24 H :    0.030424
  25 C :   -0.106357
  26 H :    0.020074
  27 H :    0.025450
  28 C :   -0.059739
  29 H :    0.036081
  30 H :    0.056575
  31 H :    0.035440
  32 H :    0.067303
  33 H :    0.052082
Sum of atomic charges:    0.0000000

LOEWDIN ATOMIC CHARGES
----------------------
   0 S :    0.390523
   1 C :   -0.211954
   2 C :   -0.059074
   3 C :   -0.060243
   4 C :   -0.176137
   5 H :    0.018369
   6 C :   -0.038538
   7 H :    0.034606
   8 H :    0.029606
   9 C :   -0.041027
  10 H :    0.033807
  11 H :    0.031672
  12 C :   -0.086838
  13 H :    0.033358
  14 H :    0.023916
  15 H :    0.038267
  16 S :    0.412533
  17 C :   -0.185513
  18 C :   -0.064012
  19 C :   -0.057824
  20 C :   -0.199659
  21 H :    0.023312
  22 C :   -0.040444
  23 H :    0.029183
  24 H :    0.045212
  25 C :   -0.058346
  26 H :    0.027156
  27 H :    0.028696
  28 C :   -0.076887
  29 H :    0.028335
  30 H :    0.036528
  31 H :    0.024628
  32 H :    0.039393
  33 H :    0.027395

  Mayer bond orders larger than 0.100000
B(  0-S ,  1-C ) :   1.1267 B(  0-S ,  4-C ) :   1.1274 B(  1-C ,  2-C ) :   1.6625
B(  1-C , 32-H ) :   0.9553 B(  2-C ,  3-C ) :   1.1602 B(  2-C ,  6-C ) :   1.0282
B(  3-C ,  4-C ) :   1.6523 B(  3-C ,  5-H ) :   0.9897 B(  4-C , 20-C ) :   1.0217
B(  6-C ,  7-H ) :   0.9420 B(  6-C ,  8-H ) :   0.9271 B(  6-C ,  9-C ) :   1.0596
B(  9-C , 10-H ) :   0.9582 B(  9-C , 11-H ) :   0.9513 B(  9-C , 12-C ) :   1.0783
B( 12-C , 13-H ) :   0.9715 B( 12-C , 14-H ) :   0.9701 B( 12-C , 15-H ) :   0.9752
B( 16-S , 17-C ) :   1.1629 B( 16-S , 20-C ) :   1.1413 B( 17-C , 18-C ) :   1.5835
B( 17-C , 33-H ) :   0.9735 B( 18-C , 19-C ) :   1.2495 B( 18-C , 21-H ) :   0.9984
B( 19-C , 20-C ) :   1.5850 B( 19-C , 22-C ) :   1.0465 B( 22-C , 23-H ) :   0.9416
B( 22-C , 24-H ) :   0.9201 B( 22-C , 25-C ) :   1.0631 B( 25-C , 26-H ) :   0.9477
B( 25-C , 27-H ) :   0.9535 B( 25-C , 28-C ) :   1.0828 B( 28-C , 29-H ) :   0.9708
B( 28-C , 30-H ) :   0.9699 B( 28-C , 31-H ) :   0.9721

Dispersion correction           -0.014492765
FINAL SINGLE POINT ENERGY     -1339.868455060599

DIPOLE MOMENT
-------------
                                X             Y             Z
Electronic contribution:     30.64589       4.55843       1.02357
Nuclear contribution   :    -31.46187      -4.54154      -0.83309
                        -----------------------------------------
Total Dipole Moment    :     -0.81598       0.01689       0.19048
                        -----------------------------------------
Magnitude (a.u.)       :      0.83809
Magnitude (Debye)      :      2.13026

Rotational constants in cm-1:     0.017768     0.009251     0.006734
Rotational constants in MHz :   532.680016   277.350988   201.888414

                             ****ORCA TERMINATED NORMALLY****
TOTAL RUN TIME: 0 days 0 hours 0 minutes 21 seconds 786 msec
