                         Program Version 4.2.1 -  RELEASE  -
|  1> ! wB97X-D3 SP def2-SVP
|  2> %pal
|  3> nprocs 24
|  4> end
|  5>
|  6> * xyz 0 1
|  7> S 	 -131.085 	 62.0732 	 -58.26
|  8> C 	 -132.668 	 61.4401 	 -58.7086
|  9> C 	 -132.582 	 60.8095 	 -59.9198
| 10> C 	 -131.233 	 60.6638 	 -60.3917
| 11> C 	 -130.317 	 61.1981 	 -59.5566
| 12> H 	 -130.926 	 60.3157 	 -61.367
| 13> C 	 -133.735 	 60.1658 	 -60.7423
| 14> H 	 -133.312 	 59.6704 	 -61.5792
| 15> H 	 -134.406 	 61.0088 	 -60.9629
| 16> C 	 -134.593 	 59.1423 	 -59.944
| 17> H 	 -133.993 	 58.3798 	 -59.4762
| 18> H 	 -134.955 	 59.7071 	 -59.0935
| 19> C 	 -135.737 	 58.431 	 -60.6705
| 20> H 	 -136.326 	 57.8546 	 -59.9179
| 21> H 	 -136.538 	 59.0631 	 -61.145
| 22> H 	 -135.41 	 57.7497 	 -61.4579
| 23> S 	 -128.387 	 61.5386 	 -61.4197
| 24> C 	 -126.841 	 62.2061 	 -60.9091
| 25> C 	 -126.636 	 62.0078 	 -59.5602
| 26> C 	 -127.824 	 61.5344 	 -58.8787
| 27> C 	 -128.903 	 61.4145 	 -59.7623
| 28> H 	 -125.686 	 62.3343 	 -59.1011
| 29> C 	 -127.687 	 61.1285 	 -57.3754
| 30> H 	 -128.612 	 61.3037 	 -56.891
| 31> H 	 -127.032 	 61.8121 	 -56.9329
| 32> C 	 -127.174 	 59.7416 	 -57.0559
| 33> H 	 -126.228 	 59.6905 	 -57.5279
| 34> H 	 -127.795 	 59.0218 	 -57.4858
| 35> C 	 -127.08 	 59.5192 	 -55.5832
| 36> H 	 -126.631 	 58.6081 	 -55.1829
| 37> H 	 -128.152 	 59.5123 	 -55.3332
| 38> H 	 -126.624 	 60.3091 	 -54.9667
| 39> H 	 -133.574 	 61.6342 	 -58.1248
| 40> H 	 -126.022 	 62.5207 	 -61.572
| 41> *
| 42>
| 43>                          ****END OF INPUT****

CARTESIAN COORDINATES (ANGSTROEM)
---------------------------------
  S    -131.085000   62.073200  -58.260000
  C    -132.668000   61.440100  -58.708600
  C    -132.582000   60.809500  -59.919800
  C    -131.233000   60.663800  -60.391700
  C    -130.317000   61.198100  -59.556600
  H    -130.926000   60.315700  -61.367000
  C    -133.735000   60.165800  -60.742300
  H    -133.312000   59.670400  -61.579200
  H    -134.406000   61.008800  -60.962900
  C    -134.593000   59.142300  -59.944000
  H    -133.993000   58.379800  -59.476200
  H    -134.955000   59.707100  -59.093500
  C    -135.737000   58.431000  -60.670500
  H    -136.326000   57.854600  -59.917900
  H    -136.538000   59.063100  -61.145000
  H    -135.410000   57.749700  -61.457900
  S    -128.387000   61.538600  -61.419700
  C    -126.841000   62.206100  -60.909100
  C    -126.636000   62.007800  -59.560200
  C    -127.824000   61.534400  -58.878700
  C    -128.903000   61.414500  -59.762300
  H    -125.686000   62.334300  -59.101100
  C    -127.687000   61.128500  -57.375400
  H    -128.612000   61.303700  -56.891000
  H    -127.032000   61.812100  -56.932900
  C    -127.174000   59.741600  -57.055900
  H    -126.228000   59.690500  -57.527900
  H    -127.795000   59.021800  -57.485800
  C    -127.080000   59.519200  -55.583200
  H    -126.631000   58.608100  -55.182900
  H    -128.152000   59.512300  -55.333200
  H    -126.624000   60.309100  -54.966700
  H    -133.574000   61.634200  -58.124800
  H    -126.022000   62.520700  -61.572000

 Total Charge           Charge          ....    0
 Multiplicity           Mult            ....    1
 Number of Electrons    NEL             ....  134
 Basis Dimension        Dim             ....  322

ORBITAL ENERGIES
----------------

  NO   OCC          E(Eh)            E(eV)
   0   2.0000     -88.966504     -2420.9016
   1   2.0000     -88.963394     -2420.8170
   2   2.0000     -10.328894      -281.0635
   3   2.0000     -10.325457      -280.9700
   4   2.0000     -10.319871      -280.8180
   5   2.0000     -10.313837      -280.6538
   6   2.0000     -10.310460      -280.5619
   7   2.0000     -10.302972      -280.3581
   8   2.0000     -10.297911      -280.2204
   9   2.0000     -10.292910      -280.0843
  10   2.0000     -10.289239      -279.9844
  11   2.0000     -10.285563      -279.8844
  12   2.0000     -10.284987      -279.8687
  13   2.0000     -10.283137      -279.8184
  14   2.0000     -10.275510      -279.6109
  15   2.0000     -10.273070      -279.5445
  16   2.0000      -8.081391      -219.9058
  17   2.0000      -8.078038      -219.8146
  18   2.0000      -6.039976      -164.3561
  19   2.0000      -6.036681      -164.2664
  20   2.0000      -6.036090      -164.2504
  21   2.0000      -6.032609      -164.1556
  22   2.0000      -6.031868      -164.1355
  23   2.0000      -6.028604      -164.0467
  24   2.0000      -1.010384       -27.4940
  25   2.0000      -0.984250       -26.7828
  26   2.0000      -0.916569       -24.9411
  27   2.0000      -0.906374       -24.6637
  28   2.0000      -0.871184       -23.7061
  29   2.0000      -0.853899       -23.2358
  30   2.0000      -0.842918       -22.9370
  31   2.0000      -0.814119       -22.1533
  32   2.0000      -0.784660       -21.3517
  33   2.0000      -0.770540       -20.9674
  34   2.0000      -0.708029       -19.2664
  35   2.0000      -0.702516       -19.1164
  36   2.0000      -0.694117       -18.8879
  37   2.0000      -0.666063       -18.1245
  38   2.0000      -0.637341       -17.3429
  39   2.0000      -0.613538       -16.6952
  40   2.0000      -0.595674       -16.2091
  41   2.0000      -0.576020       -15.6743
  42   2.0000      -0.571437       -15.5496
  43   2.0000      -0.558357       -15.1937
  44   2.0000      -0.523395       -14.2423
  45   2.0000      -0.521057       -14.1787
  46   2.0000      -0.516112       -14.0441
  47   2.0000      -0.515282       -14.0215
  48   2.0000      -0.507035       -13.7971
  49   2.0000      -0.504190       -13.7197
  50   2.0000      -0.492524       -13.4023
  51   2.0000      -0.482280       -13.1235
  52   2.0000      -0.472211       -12.8495
  53   2.0000      -0.461985       -12.5712
  54   2.0000      -0.460825       -12.5397
  55   2.0000      -0.451512       -12.2863
  56   2.0000      -0.445600       -12.1254
  57   2.0000      -0.433861       -11.8060
  58   2.0000      -0.428612       -11.6631
  59   2.0000      -0.425249       -11.5716
  60   2.0000      -0.419723       -11.4212
  61   2.0000      -0.416815       -11.3421
  62   2.0000      -0.413167       -11.2428
  63   2.0000      -0.356245        -9.6939
  64   2.0000      -0.331608        -9.0235
  65   2.0000      -0.328089        -8.9278
  66   2.0000      -0.287380        -7.8200
  67   0.0000       0.020814         0.5664
  68   0.0000       0.077073         2.0973
  69   0.0000       0.100900         2.7456
  70   0.0000       0.112163         3.0521
  71   0.0000       0.135075         3.6756

MULLIKEN ATOMIC CHARGES
-----------------------
   0 S :    0.099437
   1 C :   -0.152514
   2 C :   -0.077359
   3 C :   -0.022449
   4 C :   -0.085931
   5 H :    0.014385
   6 C :    0.106722
   7 H :    0.014124
   8 H :    0.041032
   9 C :   -0.080416
  10 H :    0.027946
  11 H :    0.015347
  12 C :   -0.069715
  13 H :    0.037326
  14 H :    0.032041
  15 H :    0.038407
  16 S :    0.093770
  17 C :   -0.094242
  18 C :   -0.046610
  19 C :   -0.061440
  20 C :   -0.146099
  21 H :    0.034960
  22 C :    0.092182
  23 H :   -0.005615
  24 H :   -0.001628
  25 C :    0.017026
  26 H :    0.006967
  27 H :    0.020089
  28 C :   -0.062492
  29 H :    0.037780
  30 H :    0.026547
  31 H :    0.026942
  32 H :    0.058094
  33 H :    0.065386
Sum of atomic charges:    0.0000000

LOEWDIN ATOMIC CHARGES
----------------------
   0 S :    0.407590
   1 C :   -0.201448
   2 C :   -0.055874
   3 C :   -0.079131
   4 C :   -0.183900
   5 H :    0.026403
   6 C :   -0.021358
   7 H :    0.021304
   8 H :    0.037733
   9 C :   -0.043816
  10 H :    0.024668
  11 H :    0.019942
  12 C :   -0.075402
  13 H :    0.033371
  14 H :    0.027638
  15 H :    0.024726
  16 S :    0.404552
  17 C :   -0.184672
  18 C :   -0.072519
  19 C :   -0.051923
  20 C :   -0.199214
  21 H :    0.037379
  22 C :   -0.019995
  23 H :    0.013203
  24 H :    0.021492
  25 C :   -0.029343
  26 H :    0.015914
  27 H :    0.021326
  28 C :   -0.068954
  29 H :    0.027281
  30 H :    0.031206
  31 H :    0.025059
  32 H :    0.031551
  33 H :    0.035212

  Mayer bond orders larger than 0.100000
B(  0-S ,  1-C ) :   1.1204 B(  0-S ,  4-C ) :   1.1540 B(  1-C ,  2-C ) :   1.6219
B(  1-C , 32-H ) :   0.9713 B(  2-C ,  3-C ) :   1.2308 B(  2-C ,  6-C ) :   1.0139
B(  3-C ,  4-C ) :   1.5822 B(  3-C ,  5-H ) :   0.9910 B(  4-C , 20-C ) :   1.0806
B(  6-C ,  7-H ) :   0.9480 B(  6-C ,  8-H ) :   0.9333 B(  6-C ,  9-C ) :   1.0666
B(  9-C , 10-H ) :   0.9562 B(  9-C , 11-H ) :   0.9539 B(  9-C , 12-C ) :   1.0853
B( 12-C , 13-H ) :   0.9722 B( 12-C , 14-H ) :   0.9745 B( 12-C , 15-H ) :   0.9758
B( 16-S , 17-C ) :   1.1425 B( 16-S , 20-C ) :   1.1321 B( 17-C , 18-C ) :   1.6342
B( 17-C , 33-H ) :   0.9634 B( 18-C , 19-C ) :   1.2247 B( 18-C , 21-H ) :   0.9826
B( 19-C , 20-C ) :   1.5734 B( 19-C , 22-C ) :   1.0379 B( 22-C , 23-H ) :   0.9271
B( 22-C , 24-H ) :   0.9276 B( 22-C , 25-C ) :   1.0718 B( 25-C , 26-H ) :   0.9482
B( 25-C , 27-H ) :   0.9536 B( 25-C , 28-C ) :   1.0734 B( 28-C , 29-H ) :   0.9738
B( 28-C , 30-H ) :   0.9761 B( 28-C , 31-H ) :   0.9749

Dispersion correction           -0.013271265
FINAL SINGLE POINT ENERGY     -1339.871648078288

DIPOLE MOMENT
-------------
                                X             Y             Z
Electronic contribution:      9.36479      14.83499      -9.43523
Nuclear contribution   :     -9.36169     -15.04457       9.51544
                        -----------------------------------------
Total Dipole Moment    :      0.00310      -0.20958       0.08021
                        -----------------------------------------
Magnitude (a.u.)       :      0.22443
Magnitude (Debye)      :      0.57045

Rotational constants in cm-1:     0.020577     0.007186     0.006073
Rotational constants in MHz :   616.877553   215.437502   182.055132

                             ****ORCA TERMINATED NORMALLY****
TOTAL RUN TIME: 0 days 0 hours 0 minutes 19 seconds 676 msec
