                         Program Version 4.2.1 -  RELEASE  -
|  1> ! wB97X-D3 SP def2-SVP
|  2> %pal
|  3> nprocs 24
|  4> end
|  5>
|  6> * xyz 0 1
|  7> S 	 -105.072 	 49.7145 	 -99.5395
|  8> C 	 -105.441 	 51.3443 	 -100.007
|  9> C 	 -104.571 	 51.755 	 -100.997
| 10> C 	 -103.42 	 50.8685 	 -101.098
| 11> C 	 -103.503 	 49.7699 	 -100.284
| 12> H 	 -102.612 	 50.9854 	 -101.715
| 13> C 	 -104.587 	 53.1201 	 -101.692
| 14> H 	 -103.576 	 53.5685 	 -101.934
| 15> H 	 -105.085 	 53.7762 	 -100.971
| 16> C 	 -105.48 	 53.0584 	 -102.929
| 17> H 	 -106.478 	 52.6291 	 -102.741
| 18> H 	 -105.652 	 54.0501 	 -103.28
| 19> C 	 -104.665 	 52.2902 	 -103.987
| 20> H 	 -104.225 	 51.3395 	 -103.742
| 21> H 	 -105.296 	 52.1021 	 -104.815
| 22> H 	 -103.795 	 52.8369 	 -104.291
| 23> S 	 -103.16 	 47.0914 	 -101.134
| 24> C 	 -101.608 	 46.3834 	 -101.047
| 25> C 	 -100.737 	 47.3027 	 -100.566
| 26> C 	 -101.243 	 48.5412 	 -100.256
| 27> C 	 -102.602 	 48.6349 	 -100.418
| 28> H 	 -99.7488 	 46.9173 	 -100.468
| 29> C 	 -100.368 	 49.6172 	 -99.7475
| 30> H 	 -100.929 	 50.4821 	 -99.5509
| 31> H 	 -99.8569 	 49.9002 	 -100.626
| 32> C 	 -99.3978 	 49.1937 	 -98.6146
| 33> H 	 -99.1334 	 48.0781 	 -98.7441
| 34> H 	 -99.9183 	 49.2568 	 -97.6588
| 35> C 	 -98.1387 	 50.0668 	 -98.5246
| 36> H 	 -97.3644 	 49.6852 	 -97.8481
| 37> H 	 -98.476 	 51.0091 	 -98.1149
| 38> H 	 -97.665 	 50.3008 	 -99.4465
| 39> H 	 -106.243 	 51.9224 	 -99.5625
| 40> H 	 -101.312 	 45.3401 	 -101.317
| 41> *
| 42>
| 43>                          ****END OF INPUT****

CARTESIAN COORDINATES (ANGSTROEM)
---------------------------------
  S    -105.072000   49.714500  -99.539500
  C    -105.441000   51.344300  -100.007000
  C    -104.571000   51.755000  -100.997000
  C    -103.420000   50.868500  -101.098000
  C    -103.503000   49.769900  -100.284000
  H    -102.612000   50.985400  -101.715000
  C    -104.587000   53.120100  -101.692000
  H    -103.576000   53.568500  -101.934000
  H    -105.085000   53.776200  -100.971000
  C    -105.480000   53.058400  -102.929000
  H    -106.478000   52.629100  -102.741000
  H    -105.652000   54.050100  -103.280000
  C    -104.665000   52.290200  -103.987000
  H    -104.225000   51.339500  -103.742000
  H    -105.296000   52.102100  -104.815000
  H    -103.795000   52.836900  -104.291000
  S    -103.160000   47.091400  -101.134000
  C    -101.608000   46.383400  -101.047000
  C    -100.737000   47.302700  -100.566000
  C    -101.243000   48.541200  -100.256000
  C    -102.602000   48.634900  -100.418000
  H    -99.748800   46.917300  -100.468000
  C    -100.368000   49.617200  -99.747500
  H    -100.929000   50.482100  -99.550900
  H    -99.856900   49.900200  -100.626000
  C    -99.397800   49.193700  -98.614600
  H    -99.133400   48.078100  -98.744100
  H    -99.918300   49.256800  -97.658800
  C    -98.138700   50.066800  -98.524600
  H    -97.364400   49.685200  -97.848100
  H    -98.476000   51.009100  -98.114900
  H    -97.665000   50.300800  -99.446500
  H    -106.243000   51.922400  -99.562500
  H    -101.312000   45.340100  -101.317000

 Total Charge           Charge          ....    0
 Multiplicity           Mult            ....    1
 Number of Electrons    NEL             ....  134
 Basis Dimension        Dim             ....  322

ORBITAL ENERGIES
----------------

  NO   OCC          E(Eh)            E(eV)
   0   2.0000     -88.964318     -2420.8422
   1   2.0000     -88.958492     -2420.6836
   2   2.0000     -10.325889      -280.9817
   3   2.0000     -10.323028      -280.9039
   4   2.0000     -10.317111      -280.7429
   5   2.0000     -10.311685      -280.5952
   6   2.0000     -10.305309      -280.4217
   7   2.0000     -10.296667      -280.1866
   8   2.0000     -10.292213      -280.0653
   9   2.0000     -10.291607      -280.0489
  10   2.0000     -10.289827      -280.0004
  11   2.0000     -10.285517      -279.8831
  12   2.0000     -10.278806      -279.7005
  13   2.0000     -10.277632      -279.6686
  14   2.0000     -10.274171      -279.5744
  15   2.0000     -10.267042      -279.3804
  16   2.0000      -8.079728      -219.8606
  17   2.0000      -8.073619      -219.6944
  18   2.0000      -6.038258      -164.3093
  19   2.0000      -6.034196      -164.1988
  20   2.0000      -6.032122      -164.1424
  21   2.0000      -6.030352      -164.0942
  22   2.0000      -6.028026      -164.0309
  23   2.0000      -6.024390      -163.9320
  24   2.0000      -1.011867       -27.5343
  25   2.0000      -0.991504       -26.9802
  26   2.0000      -0.914826       -24.8937
  27   2.0000      -0.910967       -24.7887
  28   2.0000      -0.874096       -23.7854
  29   2.0000      -0.851663       -23.1749
  30   2.0000      -0.843681       -22.9577
  31   2.0000      -0.816489       -22.2178
  32   2.0000      -0.784227       -21.3399
  33   2.0000      -0.773485       -21.0476
  34   2.0000      -0.706517       -19.2253
  35   2.0000      -0.704269       -19.1641
  36   2.0000      -0.701054       -19.0766
  37   2.0000      -0.657317       -17.8865
  38   2.0000      -0.647226       -17.6119
  39   2.0000      -0.617883       -16.8134
  40   2.0000      -0.599015       -16.3000
  41   2.0000      -0.578243       -15.7348
  42   2.0000      -0.556013       -15.1299
  43   2.0000      -0.549262       -14.9462
  44   2.0000      -0.544711       -14.8223
  45   2.0000      -0.525442       -14.2980
  46   2.0000      -0.524619       -14.2756
  47   2.0000      -0.518034       -14.0964
  48   2.0000      -0.506722       -13.7886
  49   2.0000      -0.502885       -13.6842
  50   2.0000      -0.487585       -13.2679
  51   2.0000      -0.482593       -13.1320
  52   2.0000      -0.469659       -12.7801
  53   2.0000      -0.467296       -12.7158
  54   2.0000      -0.465770       -12.6742
  55   2.0000      -0.445217       -12.1150
  56   2.0000      -0.442961       -12.0536
  57   2.0000      -0.439138       -11.9495
  58   2.0000      -0.435551       -11.8520
  59   2.0000      -0.420602       -11.4452
  60   2.0000      -0.418193       -11.3796
  61   2.0000      -0.414849       -11.2886
  62   2.0000      -0.408803       -11.1241
  63   2.0000      -0.346887        -9.4393
  64   2.0000      -0.329221        -8.9586
  65   2.0000      -0.325490        -8.8570
  66   2.0000      -0.295272        -8.0348
  67   0.0000       0.035264         0.9596
  68   0.0000       0.065844         1.7917
  69   0.0000       0.118315         3.2195
  70   0.0000       0.125887         3.4256
  71   0.0000       0.135127         3.6770

MULLIKEN ATOMIC CHARGES
-----------------------
   0 S :    0.109567
   1 C :   -0.121409
   2 C :   -0.065872
   3 C :    0.062121
   4 C :   -0.160390
   5 H :   -0.020024
   6 C :    0.018397
   7 H :    0.044887
   8 H :    0.020807
   9 C :   -0.038129
  10 H :    0.035948
  11 H :    0.021518
  12 C :   -0.036740
  13 H :    0.028099
  14 H :    0.022827
  15 H :    0.013763
  16 S :    0.094725
  17 C :   -0.104456
  18 C :   -0.059153
  19 C :   -0.036907
  20 C :   -0.153812
  21 H :    0.003994
  22 C :    0.160214
  23 H :    0.001738
  24 H :    0.011893
  25 C :   -0.107766
  26 H :    0.042025
  27 H :    0.038128
  28 C :   -0.032510
  29 H :    0.037257
  30 H :    0.022951
  31 H :    0.021559
  32 H :    0.055304
  33 H :    0.069449
Sum of atomic charges:    0.0000000

LOEWDIN ATOMIC CHARGES
----------------------
   0 S :    0.414320
   1 C :   -0.193670
   2 C :   -0.056098
   3 C :   -0.045374
   4 C :   -0.200804
   5 H :    0.014189
   6 C :   -0.034020
   7 H :    0.035986
   8 H :    0.027138
   9 C :   -0.032677
  10 H :    0.027505
  11 H :    0.019495
  12 C :   -0.063018
  13 H :    0.024182
  14 H :    0.020235
  15 H :    0.021629
  16 S :    0.397295
  17 C :   -0.199637
  18 C :   -0.083995
  19 C :   -0.061323
  20 C :   -0.186836
  21 H :    0.026816
  22 C :   -0.025130
  23 H :    0.022644
  24 H :    0.030216
  25 C :   -0.038159
  26 H :    0.029443
  27 H :    0.028288
  28 C :   -0.065046
  29 H :    0.029227
  30 H :    0.025114
  31 H :    0.017627
  32 H :    0.030951
  33 H :    0.043488

  Mayer bond orders larger than 0.100000
B(  0-S ,  1-C ) :   1.1466 B(  0-S ,  4-C ) :   1.1454 B(  1-C ,  2-C ) :   1.6038
B(  1-C , 32-H ) :   0.9713 B(  2-C ,  3-C ) :   1.2280 B(  2-C ,  6-C ) :   1.0114
B(  3-C ,  4-C ) :   1.5625 B(  3-C ,  5-H ) :   1.0096 B(  4-C , 20-C ) :   1.0367
B(  6-C ,  7-H ) :   0.9558 B(  6-C ,  8-H ) :   0.9420 B(  6-C ,  9-C ) :   1.0733
B(  9-C , 10-H ) :   0.9581 B(  9-C , 11-H ) :   0.9533 B(  9-C , 12-C ) :   1.0673
B( 12-C , 13-H ) :   0.9768 B( 12-C , 14-H ) :   0.9724 B( 12-C , 15-H ) :   0.9729
B( 16-S , 17-C ) :   1.1631 B( 16-S , 20-C ) :   1.1301 B( 17-C , 18-C ) :   1.6107
B( 17-C , 33-H ) :   0.9586 B( 18-C , 19-C ) :   1.2403 B( 18-C , 21-H ) :   0.9981
B( 19-C , 20-C ) :   1.5967 B( 19-C , 22-C ) :   1.0448 B( 22-C , 23-H ) :   0.9161
B( 22-C , 24-H ) :   0.9219 B( 22-C , 25-C ) :   1.0401 B( 25-C , 26-H ) :   0.9643
B( 25-C , 27-H ) :   0.9564 B( 25-C , 28-C ) :   1.0721 B( 28-C , 29-H ) :   0.9747
B( 28-C , 30-H ) :   0.9743 B( 28-C , 31-H ) :   0.9798

Dispersion correction           -0.014058144
FINAL SINGLE POINT ENERGY     -1339.866050507926

DIPOLE MOMENT
-------------
                                X             Y             Z
Electronic contribution:    -13.93498     -17.20132       4.77783
Nuclear contribution   :     14.31693      17.74605      -4.96781
                        -----------------------------------------
Total Dipole Moment    :      0.38194       0.54473      -0.18999
                        -----------------------------------------
Magnitude (a.u.)       :      0.69188
Magnitude (Debye)      :      1.75863

Rotational constants in cm-1:     0.018667     0.008049     0.007009
Rotational constants in MHz :   559.621948   241.296339   210.137581

                             ****ORCA TERMINATED NORMALLY****
TOTAL RUN TIME: 0 days 0 hours 0 minutes 21 seconds 587 msec
