                         Program Version 4.2.1 -  RELEASE  -
|  1> ! wB97X-D3 SP def2-SVP
|  2> %pal
|  3> nprocs 24
|  4> end
|  5>
|  6> * xyz 0 1
|  7> S 	 -46.7786 	 29.6805 	 25.4217
|  8> C 	 -48.0398 	 28.9531 	 26.4288
|  9> C 	 -47.6834 	 27.839 	 27.1351
| 10> C 	 -46.3318 	 27.4936 	 26.771
| 11> C 	 -45.7471 	 28.2706 	 25.8225
| 12> H 	 -46.012 	 26.5297 	 27.17
| 13> C 	 -48.4938 	 27.1202 	 28.1738
| 14> H 	 -48.2553 	 26.0941 	 28.1054
| 15> H 	 -49.4929 	 27.2258 	 27.8041
| 16> C 	 -48.4295 	 27.6841 	 29.5646
| 17> H 	 -47.3763 	 27.6957 	 29.8592
| 18> H 	 -48.7419 	 28.7495 	 29.5217
| 19> C 	 -49.3338 	 26.9741 	 30.5942
| 20> H 	 -49.2431 	 25.8769 	 30.6497
| 21> H 	 -49.18 	 27.3394 	 31.5995
| 22> H 	 -50.4099 	 27.201 	 30.3847
| 23> S 	 -43.2605 	 29.6549 	 25.4479
| 24> C 	 -42.0203 	 28.8672 	 24.4996
| 25> C 	 -42.3531 	 27.6417 	 24.1559
| 26> C 	 -43.6819 	 27.2198 	 24.4944
| 27> C 	 -44.3633 	 28.2422 	 25.185
| 28> H 	 -41.6785 	 26.9959 	 23.5601
| 29> C 	 -44.1779 	 25.8231 	 24.1933
| 30> H 	 -43.7732 	 25.3231 	 23.3316
| 31> H 	 -45.2804 	 25.8936 	 24.2117
| 32> C 	 -43.8084 	 24.8814 	 25.3482
| 33> H 	 -44.2878 	 25.2109 	 26.2678
| 34> H 	 -42.7174 	 24.9252 	 25.5436
| 35> C 	 -44.2198 	 23.3771 	 25.0898
| 36> H 	 -44.076 	 22.8351 	 26.0642
| 37> H 	 -43.7315 	 22.8295 	 24.2499
| 38> H 	 -45.3178 	 23.2384 	 24.943
| 39> H 	 -49.0977 	 29.3019 	 26.4536
| 40> H 	 -41.0368 	 29.2687 	 24.3508
| 41> *
| 42>
| 43>                          ****END OF INPUT****

CARTESIAN COORDINATES (ANGSTROEM)
---------------------------------
  S    -46.778600   29.680500   25.421700
  C    -48.039800   28.953100   26.428800
  C    -47.683400   27.839000   27.135100
  C    -46.331800   27.493600   26.771000
  C    -45.747100   28.270600   25.822500
  H    -46.012000   26.529700   27.170000
  C    -48.493800   27.120200   28.173800
  H    -48.255300   26.094100   28.105400
  H    -49.492900   27.225800   27.804100
  C    -48.429500   27.684100   29.564600
  H    -47.376300   27.695700   29.859200
  H    -48.741900   28.749500   29.521700
  C    -49.333800   26.974100   30.594200
  H    -49.243100   25.876900   30.649700
  H    -49.180000   27.339400   31.599500
  H    -50.409900   27.201000   30.384700
  S    -43.260500   29.654900   25.447900
  C    -42.020300   28.867200   24.499600
  C    -42.353100   27.641700   24.155900
  C    -43.681900   27.219800   24.494400
  C    -44.363300   28.242200   25.185000
  H    -41.678500   26.995900   23.560100
  C    -44.177900   25.823100   24.193300
  H    -43.773200   25.323100   23.331600
  H    -45.280400   25.893600   24.211700
  C    -43.808400   24.881400   25.348200
  H    -44.287800   25.210900   26.267800
  H    -42.717400   24.925200   25.543600
  C    -44.219800   23.377100   25.089800
  H    -44.076000   22.835100   26.064200
  H    -43.731500   22.829500   24.249900
  H    -45.317800   23.238400   24.943000
  H    -49.097700   29.301900   26.453600
  H    -41.036800   29.268700   24.350800

 Total Charge           Charge          ....    0
 Multiplicity           Mult            ....    1
 Number of Electrons    NEL             ....  134
 Basis Dimension        Dim             ....  322

ORBITAL ENERGIES
----------------

  NO   OCC          E(Eh)            E(eV)
   0   2.0000     -88.967239     -2420.9217
   1   2.0000     -88.963635     -2420.8236
   2   2.0000     -10.337513      -281.2980
   3   2.0000     -10.336839      -281.2797
   4   2.0000     -10.316217      -280.7185
   5   2.0000     -10.309797      -280.5438
   6   2.0000     -10.306505      -280.4542
   7   2.0000     -10.297618      -280.2124
   8   2.0000     -10.297178      -280.2005
   9   2.0000     -10.292254      -280.0665
  10   2.0000     -10.291739      -280.0525
  11   2.0000     -10.291285      -280.0401
  12   2.0000     -10.289539      -279.9926
  13   2.0000     -10.288153      -279.9549
  14   2.0000     -10.287958      -279.9496
  15   2.0000     -10.285183      -279.8741
  16   2.0000      -8.081134      -219.8988
  17   2.0000      -8.077653      -219.8041
  18   2.0000      -6.039763      -164.3503
  19   2.0000      -6.036332      -164.2569
  20   2.0000      -6.035990      -164.2476
  21   2.0000      -6.032391      -164.1497
  22   2.0000      -6.031590      -164.1279
  23   2.0000      -6.028145      -164.0342
  24   2.0000      -0.999698       -27.2032
  25   2.0000      -0.983405       -26.7598
  26   2.0000      -0.917685       -24.9715
  27   2.0000      -0.907673       -24.6990
  28   2.0000      -0.863728       -23.5032
  29   2.0000      -0.846957       -23.0469
  30   2.0000      -0.841401       -22.8957
  31   2.0000      -0.817608       -22.2482
  32   2.0000      -0.785047       -21.3622
  33   2.0000      -0.771273       -20.9874
  34   2.0000      -0.706016       -19.2117
  35   2.0000      -0.701100       -19.0779
  36   2.0000      -0.691628       -18.8202
  37   2.0000      -0.656586       -17.8666
  38   2.0000      -0.637004       -17.3337
  39   2.0000      -0.622586       -16.9414
  40   2.0000      -0.599870       -16.3233
  41   2.0000      -0.573389       -15.6027
  42   2.0000      -0.568664       -15.4741
  43   2.0000      -0.556992       -15.1565
  44   2.0000      -0.524879       -14.2827
  45   2.0000      -0.524126       -14.2622
  46   2.0000      -0.514789       -14.0081
  47   2.0000      -0.508867       -13.8470
  48   2.0000      -0.503824       -13.7098
  49   2.0000      -0.496787       -13.5183
  50   2.0000      -0.485310       -13.2060
  51   2.0000      -0.473705       -12.8902
  52   2.0000      -0.469897       -12.7866
  53   2.0000      -0.459235       -12.4964
  54   2.0000      -0.456062       -12.4101
  55   2.0000      -0.450638       -12.2625
  56   2.0000      -0.446256       -12.1432
  57   2.0000      -0.439165       -11.9503
  58   2.0000      -0.433947       -11.8083
  59   2.0000      -0.428354       -11.6561
  60   2.0000      -0.424313       -11.5461
  61   2.0000      -0.421161       -11.4604
  62   2.0000      -0.416980       -11.3466
  63   2.0000      -0.346185        -9.4202
  64   2.0000      -0.333648        -9.0790
  65   2.0000      -0.328427        -8.9370
  66   2.0000      -0.297653        -8.0996
  67   0.0000       0.035597         0.9687
  68   0.0000       0.063788         1.7358
  69   0.0000       0.104292         2.8379
  70   0.0000       0.120166         3.2699
  71   0.0000       0.128569         3.4985

MULLIKEN ATOMIC CHARGES
-----------------------
   0 S :    0.104632
   1 C :   -0.129990
   2 C :   -0.144763
   3 C :    0.052472
   4 C :   -0.144973
   5 H :    0.005205
   6 C :    0.113567
   7 H :    0.008885
   8 H :    0.008646
   9 C :   -0.061199
  10 H :    0.029446
  11 H :    0.031817
  12 C :   -0.049341
  13 H :    0.034448
  14 H :    0.034301
  15 H :    0.032797
  16 S :    0.090265
  17 C :   -0.066542
  18 C :   -0.033617
  19 C :   -0.034028
  20 C :   -0.160170
  21 H :    0.023454
  22 C :    0.101159
  23 H :    0.020642
  24 H :    0.034812
  25 C :   -0.096296
  26 H :    0.021399
  27 H :    0.033577
  28 C :   -0.082656
  29 H :    0.040428
  30 H :    0.048317
  31 H :    0.031230
  32 H :    0.052553
  33 H :    0.049527
Sum of atomic charges:   -0.0000000

LOEWDIN ATOMIC CHARGES
----------------------
   0 S :    0.378759
   1 C :   -0.187714
   2 C :   -0.066337
   3 C :   -0.060302
   4 C :   -0.177063
   5 H :    0.029358
   6 C :   -0.028580
   7 H :    0.023632
   8 H :    0.029781
   9 C :   -0.038979
  10 H :    0.024705
  11 H :    0.031494
  12 C :   -0.070069
  13 H :    0.025530
  14 H :    0.026516
  15 H :    0.029811
  16 S :    0.372583
  17 C :   -0.176958
  18 C :   -0.078742
  19 C :   -0.049230
  20 C :   -0.183975
  21 H :    0.035790
  22 C :   -0.029775
  23 H :    0.028713
  24 H :    0.037119
  25 C :   -0.037515
  26 H :    0.019413
  27 H :    0.025494
  28 C :   -0.082593
  29 H :    0.032920
  30 H :    0.027777
  31 H :    0.026346
  32 H :    0.031958
  33 H :    0.030132

  Mayer bond orders larger than 0.100000
B(  0-S ,  1-C ) :   1.1300 B(  0-S ,  4-C ) :   1.1286 B(  1-C ,  2-C ) :   1.6644
B(  1-C , 32-H ) :   0.9524 B(  2-C ,  3-C ) :   1.2256 B(  2-C ,  6-C ) :   1.0243
B(  3-C ,  4-C ) :   1.6136 B(  3-C ,  5-H ) :   0.9870 B(  4-C , 20-C ) :   0.9906
B(  6-C ,  7-H ) :   0.9284 B(  6-C ,  8-H ) :   0.9292 B(  6-C ,  9-C ) :   1.0689
B(  9-C , 10-H ) :   0.9564 B(  9-C , 11-H ) :   0.9517 B(  9-C , 12-C ) :   1.0772
B( 12-C , 13-H ) :   0.9762 B( 12-C , 14-H ) :   0.9745 B( 12-C , 15-H ) :   0.9743
B( 16-S , 17-C ) :   1.1254 B( 16-S , 20-C ) :   1.1322 B( 17-C , 18-C ) :   1.6599
B( 17-C , 33-H ) :   0.9639 B( 18-C , 19-C ) :   1.2201 B( 18-C , 21-H ) :   0.9806
B( 19-C , 20-C ) :   1.6210 B( 19-C , 22-C ) :   1.0618 B( 22-C , 23-H ) :   0.9394
B( 22-C , 24-H ) :   0.9235 B( 22-C , 25-C ) :   1.0614 B( 25-C , 26-H ) :   0.9528
B( 25-C , 27-H ) :   0.9559 B( 25-C , 28-C ) :   1.0736 B( 28-C , 29-H ) :   0.9744
B( 28-C , 30-H ) :   0.9759 B( 28-C , 31-H ) :   0.9741

Dispersion correction           -0.013813459
FINAL SINGLE POINT ENERGY     -1339.883176286395

DIPOLE MOMENT
-------------
                                X             Y             Z
Electronic contribution:      9.92546      24.60420     -13.39296
Nuclear contribution   :    -10.05996     -25.29788      13.66683
                        -----------------------------------------
Total Dipole Moment    :     -0.13451      -0.69368       0.27387
                        -----------------------------------------
Magnitude (a.u.)       :      0.75782
Magnitude (Debye)      :      1.92622

Rotational constants in cm-1:     0.017799     0.008071     0.006262
Rotational constants in MHz :   533.609359   241.972749   187.724614

                             ****ORCA TERMINATED NORMALLY****
TOTAL RUN TIME: 0 days 0 hours 0 minutes 21 seconds 43 msec
