                         Program Version 4.2.1 -  RELEASE  -
|  1> ! wB97X-D3 SP def2-SVP
|  2> %pal
|  3> nprocs 24
|  4> end
|  5>
|  6> * xyz 0 1
|  7> S 	 39.465 	 -29.7486 	 -119.709
|  8> C 	 39.793 	 -29.3412 	 -121.409
|  9> C 	 41.0826 	 -29.7177 	 -121.738
| 10> C 	 41.772 	 -30.3604 	 -120.714
| 11> C 	 40.9702 	 -30.5607 	 -119.569
| 12> H 	 42.7772 	 -30.7252 	 -120.681
| 13> C 	 41.7365 	 -29.5756 	 -123.069
| 14> H 	 40.9897 	 -29.2747 	 -123.843
| 15> H 	 41.9678 	 -30.5861 	 -123.279
| 16> C 	 43.02 	 -28.7713 	 -123.234
| 17> H 	 43.6979 	 -29.0913 	 -122.473
| 18> H 	 43.3958 	 -28.9248 	 -124.216
| 19> C 	 42.7473 	 -27.3139 	 -122.863
| 20> H 	 42.5319 	 -27.1634 	 -121.829
| 21> H 	 43.6716 	 -26.8017 	 -123.123
| 22> H 	 41.9058 	 -26.9053 	 -123.374
| 23> S 	 42.7905 	 -30.5358 	 -117.611
| 24> C 	 42.7004 	 -31.765 	 -116.397
| 25> C 	 42.0762 	 -32.9105 	 -116.9
| 26> C 	 41.3358 	 -32.662 	 -118.046
| 27> C 	 41.4665 	 -31.3314 	 -118.424
| 28> H 	 42.0058 	 -33.7987 	 -116.352
| 29> C 	 40.4311 	 -33.6448 	 -118.744
| 30> H 	 40.8542 	 -34.2944 	 -119.454
| 31> H 	 39.6745 	 -33.0962 	 -119.338
| 32> C 	 39.6197 	 -34.5399 	 -117.861
| 33> H 	 39.3491 	 -33.9427 	 -117.018
| 34> H 	 40.2718 	 -35.4238 	 -117.639
| 35> C 	 38.3481 	 -35.0589 	 -118.549
| 36> H 	 37.5428 	 -34.2971 	 -118.668
| 37> H 	 37.9019 	 -35.8544 	 -117.871
| 38> H 	 38.609 	 -35.4325 	 -119.51
| 39> H 	 39.1008 	 -28.9794 	 -122.181
| 40> H 	 43.1823 	 -31.729 	 -115.437
| 41> *
| 42>
| 43>                          ****END OF INPUT****

CARTESIAN COORDINATES (ANGSTROEM)
---------------------------------
  S     39.465000  -29.748600  -119.709000
  C     39.793000  -29.341200  -121.409000
  C     41.082600  -29.717700  -121.738000
  C     41.772000  -30.360400  -120.714000
  C     40.970200  -30.560700  -119.569000
  H     42.777200  -30.725200  -120.681000
  C     41.736500  -29.575600  -123.069000
  H     40.989700  -29.274700  -123.843000
  H     41.967800  -30.586100  -123.279000
  C     43.020000  -28.771300  -123.234000
  H     43.697900  -29.091300  -122.473000
  H     43.395800  -28.924800  -124.216000
  C     42.747300  -27.313900  -122.863000
  H     42.531900  -27.163400  -121.829000
  H     43.671600  -26.801700  -123.123000
  H     41.905800  -26.905300  -123.374000
  S     42.790500  -30.535800  -117.611000
  C     42.700400  -31.765000  -116.397000
  C     42.076200  -32.910500  -116.900000
  C     41.335800  -32.662000  -118.046000
  C     41.466500  -31.331400  -118.424000
  H     42.005800  -33.798700  -116.352000
  C     40.431100  -33.644800  -118.744000
  H     40.854200  -34.294400  -119.454000
  H     39.674500  -33.096200  -119.338000
  C     39.619700  -34.539900  -117.861000
  H     39.349100  -33.942700  -117.018000
  H     40.271800  -35.423800  -117.639000
  C     38.348100  -35.058900  -118.549000
  H     37.542800  -34.297100  -118.668000
  H     37.901900  -35.854400  -117.871000
  H     38.609000  -35.432500  -119.510000
  H     39.100800  -28.979400  -122.181000
  H     43.182300  -31.729000  -115.437000

 Total Charge           Charge          ....    0
 Multiplicity           Mult            ....    1
 Number of Electrons    NEL             ....  134
 Basis Dimension        Dim             ....  322

ORBITAL ENERGIES
----------------

  NO   OCC          E(Eh)            E(eV)
   0   2.0000     -88.969568     -2420.9850
   1   2.0000     -88.966220     -2420.8939
   2   2.0000     -10.326273      -280.9922
   3   2.0000     -10.322027      -280.8766
   4   2.0000     -10.315848      -280.7085
   5   2.0000     -10.312458      -280.6162
   6   2.0000     -10.301141      -280.3083
   7   2.0000     -10.294617      -280.1308
   8   2.0000     -10.288044      -279.9519
   9   2.0000     -10.285981      -279.8958
  10   2.0000     -10.282362      -279.7973
  11   2.0000     -10.282060      -279.7891
  12   2.0000     -10.281977      -279.7868
  13   2.0000     -10.281255      -279.7672
  14   2.0000     -10.280079      -279.7352
  15   2.0000     -10.265741      -279.3450
  16   2.0000      -8.083751      -219.9700
  17   2.0000      -8.081528      -219.9095
  18   2.0000      -6.042238      -164.4176
  19   2.0000      -6.039762      -164.3503
  20   2.0000      -6.038253      -164.3092
  21   2.0000      -6.036225      -164.2540
  22   2.0000      -6.034641      -164.2109
  23   2.0000      -6.032265      -164.1463
  24   2.0000      -1.011231       -27.5170
  25   2.0000      -0.988305       -26.8931
  26   2.0000      -0.918468       -24.9928
  27   2.0000      -0.916782       -24.9469
  28   2.0000      -0.867695       -23.6112
  29   2.0000      -0.854969       -23.2649
  30   2.0000      -0.849306       -23.1108
  31   2.0000      -0.806881       -21.9563
  32   2.0000      -0.784015       -21.3341
  33   2.0000      -0.773759       -21.0550
  34   2.0000      -0.705810       -19.2061
  35   2.0000      -0.697731       -18.9862
  36   2.0000      -0.694639       -18.9021
  37   2.0000      -0.661013       -17.9871
  38   2.0000      -0.635304       -17.2875
  39   2.0000      -0.618843       -16.8396
  40   2.0000      -0.609576       -16.5874
  41   2.0000      -0.575448       -15.6587
  42   2.0000      -0.567303       -15.4371
  43   2.0000      -0.553637       -15.0652
  44   2.0000      -0.544543       -14.8178
  45   2.0000      -0.525496       -14.2995
  46   2.0000      -0.520696       -14.1689
  47   2.0000      -0.516648       -14.0587
  48   2.0000      -0.495652       -13.4874
  49   2.0000      -0.494666       -13.4606
  50   2.0000      -0.490399       -13.3444
  51   2.0000      -0.478914       -13.0319
  52   2.0000      -0.476995       -12.9797
  53   2.0000      -0.465997       -12.6804
  54   2.0000      -0.459569       -12.5055
  55   2.0000      -0.453617       -12.3435
  56   2.0000      -0.443407       -12.0657
  57   2.0000      -0.434133       -11.8134
  58   2.0000      -0.429518       -11.6878
  59   2.0000      -0.425033       -11.5657
  60   2.0000      -0.423538       -11.5251
  61   2.0000      -0.416945       -11.3456
  62   2.0000      -0.413053       -11.2398
  63   2.0000      -0.335756        -9.1364
  64   2.0000      -0.329905        -8.9772
  65   2.0000      -0.322848        -8.7851
  66   2.0000      -0.294909        -8.0249
  67   0.0000       0.036066         0.9814
  68   0.0000       0.049421         1.3448
  69   0.0000       0.104815         2.8522
  70   0.0000       0.124378         3.3845
  71   0.0000       0.130770         3.5584

MULLIKEN ATOMIC CHARGES
-----------------------
   0 S :    0.127971
   1 C :   -0.141856
   2 C :   -0.056306
   3 C :    0.010884
   4 C :   -0.164193
   5 H :    0.008352
   6 C :    0.049160
   7 H :    0.015445
   8 H :    0.019885
   9 C :   -0.033246
  10 H :    0.019987
  11 H :    0.030768
  12 C :   -0.036138
  13 H :    0.036327
  14 H :    0.030998
  15 H :    0.015344
  16 S :    0.120857
  17 C :   -0.080698
  18 C :   -0.024235
  19 C :    0.019894
  20 C :   -0.211957
  21 H :    0.000172
  22 C :    0.095842
  23 H :    0.018640
  24 H :    0.017907
  25 C :   -0.110350
  26 H :    0.030225
  27 H :    0.037146
  28 C :   -0.059441
  29 H :    0.041787
  30 H :    0.043732
  31 H :    0.025206
  32 H :    0.051014
  33 H :    0.050876
Sum of atomic charges:    0.0000000

LOEWDIN ATOMIC CHARGES
----------------------
   0 S :    0.418227
   1 C :   -0.210331
   2 C :   -0.062138
   3 C :   -0.069741
   4 C :   -0.209277
   5 H :    0.026014
   6 C :   -0.034843
   7 H :    0.028305
   8 H :    0.027598
   9 C :   -0.029098
  10 H :    0.022380
  11 H :    0.023301
  12 C :   -0.057693
  13 H :    0.025547
  14 H :    0.026363
  15 H :    0.017090
  16 S :    0.424266
  17 C :   -0.180965
  18 C :   -0.063680
  19 C :   -0.050405
  20 C :   -0.196841
  21 H :    0.022343
  22 C :   -0.034531
  23 H :    0.025627
  24 H :    0.033080
  25 C :   -0.044712
  26 H :    0.020697
  27 H :    0.027103
  28 C :   -0.064418
  29 H :    0.029197
  30 H :    0.034788
  31 H :    0.017370
  32 H :    0.034903
  33 H :    0.024473

  Mayer bond orders larger than 0.100000
B(  0-S ,  1-C ) :   1.1245 B(  0-S ,  4-C ) :   1.1756 B(  1-C ,  2-C ) :   1.5925
B(  1-C ,  4-C ) :   0.1022 B(  1-C , 32-H ) :   0.9633 B(  2-C ,  3-C ) :   1.2519
B(  2-C ,  6-C ) :   1.0166 B(  3-C ,  4-C ) :   1.5389 B(  3-C ,  5-H ) :   0.9987
B(  4-C , 20-C ) :   1.0107 B(  6-C ,  7-H ) :   0.9401 B(  6-C ,  8-H ) :   0.9329
B(  6-C ,  9-C ) :   1.0878 B(  9-C , 10-H ) :   0.9505 B(  9-C , 11-H ) :   0.9543
B(  9-C , 12-C ) :   1.0746 B( 12-C , 13-H ) :   0.9737 B( 12-C , 14-H ) :   0.9749
B( 12-C , 15-H ) :   0.9779 B( 16-S , 17-C ) :   1.1678 B( 16-S , 20-C ) :   1.1619
B( 17-C , 18-C ) :   1.5686 B( 17-C , 20-C ) :   0.1133 B( 17-C , 33-H ) :   0.9741
B( 18-C , 19-C ) :   1.2605 B( 18-C , 21-H ) :   0.9973 B( 19-C , 20-C ) :   1.5779
B( 19-C , 22-C ) :   1.0397 B( 22-C , 23-H ) :   0.9217 B( 22-C , 24-H ) :   0.9357
B( 22-C , 25-C ) :   1.0639 B( 25-C , 26-H ) :   0.9610 B( 25-C , 27-H ) :   0.9478
B( 25-C , 28-C ) :   1.0958 B( 28-C , 29-H ) :   0.9722 B( 28-C , 30-H ) :   0.9738
B( 28-C , 31-H ) :   0.9730

Dispersion correction           -0.014133518
FINAL SINGLE POINT ENERGY     -1339.854900031890

DIPOLE MOMENT
-------------
                                X             Y             Z
Electronic contribution:      1.97097       7.69269      13.07576
Nuclear contribution   :     -1.81508      -8.12048     -13.32769
                        -----------------------------------------
Total Dipole Moment    :      0.15588      -0.42779      -0.25193
                        -----------------------------------------
Magnitude (a.u.)       :      0.52036
Magnitude (Debye)      :      1.32265

Rotational constants in cm-1:     0.020651     0.008080     0.006752
Rotational constants in MHz :   619.088380   242.228666   202.434778

                             ****ORCA TERMINATED NORMALLY****
TOTAL RUN TIME: 0 days 0 hours 0 minutes 21 seconds 504 msec
