                         Program Version 4.2.1 -  RELEASE  -
|  1> ! wB97X-D3 SP def2-SVP
|  2> %pal
|  3> nprocs 24
|  4> end
|  5>
|  6> * xyz 0 1
|  7> S 	 -114.647 	 55.4858 	 -37.4
|  8> C 	 -113.339 	 54.3223 	 -37.4025
|  9> C 	 -112.915 	 54.0673 	 -38.7232
| 10> C 	 -113.47 	 54.9934 	 -39.6748
| 11> C 	 -114.422 	 55.8713 	 -39.1098
| 12> H 	 -113.165 	 55.0768 	 -40.735
| 13> C 	 -111.821 	 53.151 	 -39.1098
| 14> H 	 -112.367 	 52.2395 	 -39.0099
| 15> H 	 -111.05 	 53.0892 	 -38.3721
| 16> C 	 -111.233 	 53.2637 	 -40.5446
| 17> H 	 -110.684 	 52.3363 	 -40.8252
| 18> H 	 -112.007 	 53.2316 	 -41.3366
| 19> C 	 -110.279 	 54.4559 	 -40.8251
| 20> H 	 -109.841 	 54.5828 	 -41.8656
| 21> H 	 -110.815 	 55.3863 	 -40.5405
| 22> H 	 -109.385 	 54.5963 	 -40.2352
| 23> S 	 -116.757 	 56.8517 	 -40.2383
| 24> C 	 -116.742 	 58.5029 	 -40.7699
| 25> C 	 -115.471 	 59.0048 	 -40.8855
| 26> C 	 -114.497 	 58.2316 	 -40.1579
| 27> C 	 -115.017 	 56.9924 	 -39.7845
| 28> H 	 -115.421 	 59.9386 	 -41.44
| 29> C 	 -113.109 	 58.6583 	 -39.8859
| 30> H 	 -112.518 	 57.8095 	 -39.4815
| 31> H 	 -112.984 	 59.4044 	 -39.1179
| 32> C 	 -112.391 	 59.2167 	 -41.1303
| 33> H 	 -112.954 	 60.0994 	 -41.3457
| 34> H 	 -112.366 	 58.4 	 -41.9653
| 35> C 	 -110.931 	 59.6176 	 -40.8533
| 36> H 	 -110.516 	 60.2052 	 -41.6492
| 37> H 	 -110.223 	 58.8269 	 -40.7227
| 38> H 	 -110.817 	 60.092 	 -39.8904
| 39> H 	 -112.852 	 53.787 	 -36.5632
| 40> H 	 -117.58 	 59.0135 	 -41.2254
| 41> *
| 42>
| 43>                          ****END OF INPUT****

CARTESIAN COORDINATES (ANGSTROEM)
---------------------------------
  S    -114.647000   55.485800  -37.400000
  C    -113.339000   54.322300  -37.402500
  C    -112.915000   54.067300  -38.723200
  C    -113.470000   54.993400  -39.674800
  C    -114.422000   55.871300  -39.109800
  H    -113.165000   55.076800  -40.735000
  C    -111.821000   53.151000  -39.109800
  H    -112.367000   52.239500  -39.009900
  H    -111.050000   53.089200  -38.372100
  C    -111.233000   53.263700  -40.544600
  H    -110.684000   52.336300  -40.825200
  H    -112.007000   53.231600  -41.336600
  C    -110.279000   54.455900  -40.825100
  H    -109.841000   54.582800  -41.865600
  H    -110.815000   55.386300  -40.540500
  H    -109.385000   54.596300  -40.235200
  S    -116.757000   56.851700  -40.238300
  C    -116.742000   58.502900  -40.769900
  C    -115.471000   59.004800  -40.885500
  C    -114.497000   58.231600  -40.157900
  C    -115.017000   56.992400  -39.784500
  H    -115.421000   59.938600  -41.440000
  C    -113.109000   58.658300  -39.885900
  H    -112.518000   57.809500  -39.481500
  H    -112.984000   59.404400  -39.117900
  C    -112.391000   59.216700  -41.130300
  H    -112.954000   60.099400  -41.345700
  H    -112.366000   58.400000  -41.965300
  C    -110.931000   59.617600  -40.853300
  H    -110.516000   60.205200  -41.649200
  H    -110.223000   58.826900  -40.722700
  H    -110.817000   60.092000  -39.890400
  H    -112.852000   53.787000  -36.563200
  H    -117.580000   59.013500  -41.225400

 Total Charge           Charge          ....    0
 Multiplicity           Mult            ....    1
 Number of Electrons    NEL             ....  134
 Basis Dimension        Dim             ....  322

ORBITAL ENERGIES
----------------

  NO   OCC          E(Eh)            E(eV)
   0   2.0000     -88.968211     -2420.9481
   1   2.0000     -88.961258     -2420.7589
   2   2.0000     -10.328674      -281.0575
   3   2.0000     -10.326066      -280.9865
   4   2.0000     -10.318077      -280.7691
   5   2.0000     -10.313454      -280.6433
   6   2.0000     -10.307187      -280.4728
   7   2.0000     -10.302724      -280.3514
   8   2.0000     -10.301235      -280.3109
   9   2.0000     -10.299119      -280.2533
  10   2.0000     -10.292940      -280.0851
  11   2.0000     -10.292763      -280.0803
  12   2.0000     -10.291451      -280.0446
  13   2.0000     -10.286309      -279.9047
  14   2.0000     -10.285805      -279.8910
  15   2.0000     -10.272410      -279.5265
  16   2.0000      -8.082085      -219.9247
  17   2.0000      -8.075804      -219.7538
  18   2.0000      -6.040664      -164.3748
  19   2.0000      -6.036547      -164.2628
  20   2.0000      -6.034290      -164.2014
  21   2.0000      -6.032976      -164.1656
  22   2.0000      -6.030510      -164.0985
  23   2.0000      -6.026428      -163.9874
  24   2.0000      -1.000255       -27.2183
  25   2.0000      -0.979371       -26.6500
  26   2.0000      -0.912463       -24.8294
  27   2.0000      -0.910489       -24.7757
  28   2.0000      -0.868280       -23.6271
  29   2.0000      -0.848633       -23.0925
  30   2.0000      -0.842107       -22.9149
  31   2.0000      -0.813782       -22.1441
  32   2.0000      -0.785796       -21.3826
  33   2.0000      -0.771302       -20.9882
  34   2.0000      -0.715175       -19.4609
  35   2.0000      -0.700008       -19.0482
  36   2.0000      -0.695321       -18.9207
  37   2.0000      -0.648737       -17.6530
  38   2.0000      -0.633418       -17.2362
  39   2.0000      -0.621499       -16.9119
  40   2.0000      -0.599563       -16.3149
  41   2.0000      -0.570803       -15.5323
  42   2.0000      -0.563624       -15.3370
  43   2.0000      -0.557098       -15.1594
  44   2.0000      -0.526971       -14.3396
  45   2.0000      -0.524852       -14.2819
  46   2.0000      -0.518650       -14.1132
  47   2.0000      -0.510330       -13.8868
  48   2.0000      -0.502956       -13.6861
  49   2.0000      -0.494023       -13.4430
  50   2.0000      -0.487274       -13.2594
  51   2.0000      -0.484240       -13.1768
  52   2.0000      -0.470958       -12.8154
  53   2.0000      -0.466560       -12.6957
  54   2.0000      -0.456209       -12.4141
  55   2.0000      -0.448958       -12.2168
  56   2.0000      -0.444606       -12.0983
  57   2.0000      -0.439863       -11.9693
  58   2.0000      -0.429176       -11.6785
  59   2.0000      -0.425429       -11.5765
  60   2.0000      -0.423925       -11.5356
  61   2.0000      -0.415352       -11.3023
  62   2.0000      -0.408337       -11.1114
  63   2.0000      -0.331082        -9.0092
  64   2.0000      -0.326927        -8.8961
  65   2.0000      -0.320747        -8.7280
  66   2.0000      -0.299471        -8.1490
  67   0.0000       0.036636         0.9969
  68   0.0000       0.051021         1.3884
  69   0.0000       0.113237         3.0813
  70   0.0000       0.117939         3.2093
  71   0.0000       0.128544         3.4979

MULLIKEN ATOMIC CHARGES
-----------------------
   0 S :    0.134904
   1 C :   -0.142674
   2 C :   -0.107328
   3 C :    0.025851
   4 C :   -0.170440
   5 H :    0.034409
   6 C :    0.100259
   7 H :    0.036133
   8 H :    0.027184
   9 C :   -0.088288
  10 H :    0.032160
  11 H :    0.034013
  12 C :   -0.073877
  13 H :    0.046974
  14 H :    0.024105
  15 H :    0.022440
  16 S :    0.099800
  17 C :   -0.089634
  18 C :   -0.057149
  19 C :    0.028423
  20 C :   -0.188322
  21 H :    0.027584
  22 C :    0.060773
  23 H :    0.030087
  24 H :    0.027230
  25 C :   -0.123039
  26 H :    0.035575
  27 H :    0.051486
  28 C :   -0.012992
  29 H :    0.032859
  30 H :    0.014925
  31 H :    0.014291
  32 H :    0.057575
  33 H :    0.054705
Sum of atomic charges:    0.0000000

LOEWDIN ATOMIC CHARGES
----------------------
   0 S :    0.411422
   1 C :   -0.214114
   2 C :   -0.063349
   3 C :   -0.058860
   4 C :   -0.205059
   5 H :    0.038656
   6 C :   -0.033362
   7 H :    0.042657
   8 H :    0.030520
   9 C :   -0.046538
  10 H :    0.030935
  11 H :    0.028469
  12 C :   -0.085075
  13 H :    0.036093
  14 H :    0.024960
  15 H :    0.022236
  16 S :    0.383272
  17 C :   -0.182114
  18 C :   -0.077096
  19 C :   -0.042991
  20 C :   -0.187912
  21 H :    0.034504
  22 C :   -0.037767
  23 H :    0.033035
  24 H :    0.030097
  25 C :   -0.037541
  26 H :    0.019936
  27 H :    0.036395
  28 C :   -0.068462
  29 H :    0.025802
  30 H :    0.021897
  31 H :    0.023043
  32 H :    0.038027
  33 H :    0.028284

  Mayer bond orders larger than 0.100000
B(  0-S ,  1-C ) :   1.1454 B(  0-S ,  4-C ) :   1.1494 B(  1-C ,  2-C ) :   1.5876
B(  1-C ,  4-C ) :   0.1062 B(  1-C , 32-H ) :   0.9672 B(  2-C ,  3-C ) :   1.2643
B(  2-C ,  6-C ) :   0.9996 B(  3-C ,  4-C ) :   1.5440 B(  3-C ,  5-H ) :   0.9785
B(  4-C , 20-C ) :   1.0536 B(  6-C ,  7-H ) :   0.9163 B(  6-C ,  8-H ) :   0.9462
B(  6-C ,  9-C ) :   1.0886 B(  9-C , 10-H ) :   0.9528 B(  9-C , 11-H ) :   0.9481
B(  9-C , 12-C ) :   1.0607 B( 12-C , 13-H ) :   0.9757 B( 12-C , 14-H ) :   0.9736
B( 12-C , 15-H ) :   0.9733 B( 16-S , 17-C ) :   1.1526 B( 16-S , 20-C ) :   1.1212
B( 17-C , 18-C ) :   1.6595 B( 17-C , 33-H ) :   0.9606 B( 18-C , 19-C ) :   1.1800
B( 18-C , 21-H ) :   0.9862 B( 19-C , 20-C ) :   1.6197 B( 19-C , 22-C ) :   1.0595
B( 22-C , 23-H ) :   0.9310 B( 22-C , 24-H ) :   0.9231 B( 22-C , 25-C ) :   1.0585
B( 25-C , 26-H ) :   0.9522 B( 25-C , 27-H ) :   0.9574 B( 25-C , 28-C ) :   1.0870
B( 28-C , 29-H ) :   0.9738 B( 28-C , 30-H ) :   0.9714 B( 28-C , 31-H ) :   0.9679

Dispersion correction           -0.014799001
FINAL SINGLE POINT ENERGY     -1339.861809086238

DIPOLE MOMENT
-------------
                                X             Y             Z
Electronic contribution:    -28.33473      -2.90312      11.30071
Nuclear contribution   :     29.05858       2.94271     -11.58176
                        -----------------------------------------
Total Dipole Moment    :      0.72385       0.03959      -0.28105
                        -----------------------------------------
Magnitude (a.u.)       :      0.77750
Magnitude (Debye)      :      1.97626

Rotational constants in cm-1:     0.015511     0.010359     0.007421
Rotational constants in MHz :   465.003325   310.541619   222.477744

                             ****ORCA TERMINATED NORMALLY****
TOTAL RUN TIME: 0 days 0 hours 0 minutes 22 seconds 125 msec
