                         Program Version 4.2.1 -  RELEASE  -
|  1> ! wB97X-D3 SP def2-SVP
|  2> %pal
|  3> nprocs 24
|  4> end
|  5>
|  6> * xyz 0 1
|  7> S 	 -110.222 	 54.6705 	 -89.6085
|  8> C 	 -110.141 	 53.2153 	 -90.6395
|  9> C 	 -109.833 	 52.1434 	 -89.7358
| 10> C 	 -109.565 	 52.5143 	 -88.3638
| 11> C 	 -109.633 	 53.8627 	 -88.1101
| 12> H 	 -109.428 	 51.7983 	 -87.6152
| 13> C 	 -109.761 	 50.6972 	 -90.325
| 14> H 	 -109.176 	 50.9355 	 -91.1973
| 15> H 	 -110.751 	 50.3667 	 -90.5707
| 16> C 	 -109.132 	 49.6311 	 -89.39
| 17> H 	 -108.278 	 49.9832 	 -88.8122
| 18> H 	 -109.876 	 49.4226 	 -88.6555
| 19> C 	 -108.934 	 48.2981 	 -90.1215
| 20> H 	 -108.265 	 47.5619 	 -89.5617
| 21> H 	 -109.9 	 47.7591 	 -90.0891
| 22> H 	 -108.632 	 48.4127 	 -91.1396
| 23> S 	 -110.806 	 55.466 	 -86.3233
| 24> C 	 -110.094 	 55.6288 	 -84.7275
| 25> C 	 -108.936 	 54.9029 	 -84.6031
| 26> C 	 -108.626 	 54.1805 	 -85.8036
| 27> C 	 -109.536 	 54.4949 	 -86.8265
| 28> H 	 -108.526 	 55.0013 	 -83.677
| 29> C 	 -107.452 	 53.1804 	 -85.8918
| 30> H 	 -106.584 	 53.7662 	 -85.4783
| 31> H 	 -107.193 	 52.9753 	 -86.9649
| 32> C 	 -107.739 	 51.9219 	 -85.0734
| 33> H 	 -107.069 	 51.1205 	 -85.4659
| 34> H 	 -108.653 	 51.516 	 -85.1576
| 35> C 	 -107.438 	 52.147 	 -83.5751
| 36> H 	 -108.242 	 52.81 	 -83.2325
| 37> H 	 -106.524 	 52.6971 	 -83.4354
| 38> H 	 -107.189 	 51.2979 	 -82.8773
| 39> H 	 -110.257 	 53.2102 	 -91.7025
| 40> H 	 -110.467 	 55.9913 	 -83.8127
| 41> *
| 42>
| 43>                          ****END OF INPUT****

CARTESIAN COORDINATES (ANGSTROEM)
---------------------------------
  S    -110.222000   54.670500  -89.608500
  C    -110.141000   53.215300  -90.639500
  C    -109.833000   52.143400  -89.735800
  C    -109.565000   52.514300  -88.363800
  C    -109.633000   53.862700  -88.110100
  H    -109.428000   51.798300  -87.615200
  C    -109.761000   50.697200  -90.325000
  H    -109.176000   50.935500  -91.197300
  H    -110.751000   50.366700  -90.570700
  C    -109.132000   49.631100  -89.390000
  H    -108.278000   49.983200  -88.812200
  H    -109.876000   49.422600  -88.655500
  C    -108.934000   48.298100  -90.121500
  H    -108.265000   47.561900  -89.561700
  H    -109.900000   47.759100  -90.089100
  H    -108.632000   48.412700  -91.139600
  S    -110.806000   55.466000  -86.323300
  C    -110.094000   55.628800  -84.727500
  C    -108.936000   54.902900  -84.603100
  C    -108.626000   54.180500  -85.803600
  C    -109.536000   54.494900  -86.826500
  H    -108.526000   55.001300  -83.677000
  C    -107.452000   53.180400  -85.891800
  H    -106.584000   53.766200  -85.478300
  H    -107.193000   52.975300  -86.964900
  C    -107.739000   51.921900  -85.073400
  H    -107.069000   51.120500  -85.465900
  H    -108.653000   51.516000  -85.157600
  C    -107.438000   52.147000  -83.575100
  H    -108.242000   52.810000  -83.232500
  H    -106.524000   52.697100  -83.435400
  H    -107.189000   51.297900  -82.877300
  H    -110.257000   53.210200  -91.702500
  H    -110.467000   55.991300  -83.812700

 Total Charge           Charge          ....    0
 Multiplicity           Mult            ....    1
 Number of Electrons    NEL             ....  134
 Basis Dimension        Dim             ....  322

ORBITAL ENERGIES
----------------

  NO   OCC          E(Eh)            E(eV)
   0   2.0000     -88.970220     -2421.0028
   1   2.0000     -88.963519     -2420.8204
   2   2.0000     -10.333657      -281.1931
   3   2.0000     -10.323003      -280.9032
   4   2.0000     -10.321159      -280.8530
   5   2.0000     -10.310434      -280.5612
   6   2.0000     -10.310431      -280.5611
   7   2.0000     -10.307576      -280.4834
   8   2.0000     -10.300947      -280.3030
   9   2.0000     -10.292801      -280.0814
  10   2.0000     -10.292542      -280.0743
  11   2.0000     -10.287827      -279.9460
  12   2.0000     -10.286403      -279.9072
  13   2.0000     -10.284702      -279.8610
  14   2.0000     -10.283743      -279.8349
  15   2.0000     -10.280535      -279.7476
  16   2.0000      -8.085946      -220.0298
  17   2.0000      -8.076756      -219.7797
  18   2.0000      -6.044420      -164.4770
  19   2.0000      -6.040271      -164.3641
  20   2.0000      -6.036695      -164.2668
  21   2.0000      -6.035465      -164.2334
  22   2.0000      -6.031347      -164.1213
  23   2.0000      -6.027496      -164.0165
  24   2.0000      -1.012357       -27.5476
  25   2.0000      -0.976775       -26.5794
  26   2.0000      -0.912491       -24.8301
  27   2.0000      -0.907747       -24.7011
  28   2.0000      -0.877348       -23.8738
  29   2.0000      -0.850471       -23.1425
  30   2.0000      -0.838945       -22.8289
  31   2.0000      -0.822019       -22.3683
  32   2.0000      -0.780098       -21.2275
  33   2.0000      -0.765330       -20.8257
  34   2.0000      -0.719615       -19.5817
  35   2.0000      -0.706245       -19.2179
  36   2.0000      -0.693362       -18.8674
  37   2.0000      -0.665555       -18.1107
  38   2.0000      -0.641536       -17.4571
  39   2.0000      -0.623634       -16.9699
  40   2.0000      -0.595706       -16.2100
  41   2.0000      -0.576738       -15.6938
  42   2.0000      -0.565315       -15.3830
  43   2.0000      -0.550647       -14.9839
  44   2.0000      -0.538138       -14.6435
  45   2.0000      -0.530515       -14.4360
  46   2.0000      -0.518497       -14.1090
  47   2.0000      -0.514530       -14.0011
  48   2.0000      -0.509044       -13.8518
  49   2.0000      -0.502592       -13.6762
  50   2.0000      -0.492585       -13.4039
  51   2.0000      -0.479873       -13.0580
  52   2.0000      -0.472186       -12.8488
  53   2.0000      -0.471224       -12.8227
  54   2.0000      -0.455635       -12.3985
  55   2.0000      -0.450553       -12.2602
  56   2.0000      -0.443789       -12.0761
  57   2.0000      -0.440303       -11.9813
  58   2.0000      -0.432916       -11.7802
  59   2.0000      -0.422943       -11.5089
  60   2.0000      -0.421398       -11.4668
  61   2.0000      -0.411911       -11.2087
  62   2.0000      -0.402781       -10.9602
  63   2.0000      -0.357100        -9.7172
  64   2.0000      -0.333235        -9.0678
  65   2.0000      -0.323684        -8.8079
  66   2.0000      -0.285461        -7.7678
  67   0.0000       0.024744         0.6733
  68   0.0000       0.069098         1.8803
  69   0.0000       0.111514         3.0344
  70   0.0000       0.122285         3.3275
  71   0.0000       0.131584         3.5806

MULLIKEN ATOMIC CHARGES
-----------------------
   0 S :    0.082509
   1 C :   -0.124206
   2 C :   -0.119296
   3 C :    0.042390
   4 C :   -0.121979
   5 H :   -0.015488
   6 C :    0.057962
   7 H :    0.036701
   8 H :    0.039545
   9 C :   -0.087812
  10 H :    0.035175
  11 H :    0.024607
  12 C :   -0.050808
  13 H :    0.041252
  14 H :    0.029529
  15 H :    0.034876
  16 S :    0.132935
  17 C :   -0.068810
  18 C :   -0.033267
  19 C :   -0.045118
  20 C :   -0.130578
  21 H :   -0.013101
  22 C :    0.022897
  23 H :    0.045488
  24 H :    0.047316
  25 C :   -0.018796
  26 H :    0.028195
  27 H :    0.016038
  28 C :   -0.068405
  29 H :    0.036236
  30 H :    0.011716
  31 H :    0.045538
  32 H :    0.054546
  33 H :    0.032216
Sum of atomic charges:   -0.0000000

LOEWDIN ATOMIC CHARGES
----------------------
   0 S :    0.367926
   1 C :   -0.194261
   2 C :   -0.051007
   3 C :   -0.066707
   4 C :   -0.170803
   5 H :    0.021085
   6 C :   -0.027110
   7 H :    0.031339
   8 H :    0.030536
   9 C :   -0.047471
  10 H :    0.021398
  11 H :    0.022729
  12 C :   -0.068202
  13 H :    0.034797
  14 H :    0.028992
  15 H :    0.019329
  16 S :    0.445841
  17 C :   -0.183270
  18 C :   -0.060758
  19 C :   -0.051628
  20 C :   -0.225638
  21 H :    0.017659
  22 C :   -0.032810
  23 H :    0.039404
  24 H :    0.036242
  25 C :   -0.033006
  26 H :    0.029408
  27 H :    0.007454
  28 C :   -0.074399
  29 H :    0.026636
  30 H :    0.019056
  31 H :    0.034696
  32 H :    0.028633
  33 H :    0.023909

  Mayer bond orders larger than 0.100000
B(  0-S ,  1-C ) :   1.1280 B(  0-S ,  4-C ) :   1.1427 B(  1-C ,  2-C ) :   1.5771
B(  1-C ,  4-C ) :   0.1092 B(  1-C , 32-H ) :   0.9823 B(  2-C ,  3-C ) :   1.2700
B(  2-C ,  6-C ) :   0.9872 B(  3-C ,  4-C ) :   1.5294 B(  3-C ,  5-H ) :   1.0004
B(  4-C , 20-C ) :   1.0554 B(  6-C ,  7-H ) :   0.9485 B(  6-C ,  8-H ) :   0.9431
B(  6-C ,  9-C ) :   1.0829 B(  9-C , 10-H ) :   0.9600 B(  9-C , 11-H ) :   0.9513
B(  9-C , 12-C ) :   1.0746 B( 12-C , 13-H ) :   0.9730 B( 12-C , 14-H ) :   0.9762
B( 12-C , 15-H ) :   0.9798 B( 16-S , 17-C ) :   1.1457 B( 16-S , 20-C ) :   1.1677
B( 17-C , 18-C ) :   1.6360 B( 17-C , 33-H ) :   0.9649 B( 18-C , 19-C ) :   1.2244
B( 18-C , 21-H ) :   1.0016 B( 19-C , 20-C ) :   1.5701 B( 19-C , 22-C ) :   1.0358
B( 22-C , 23-H ) :   0.9417 B( 22-C , 24-H ) :   0.9360 B( 22-C , 25-C ) :   1.0519
B( 25-C , 26-H ) :   0.9548 B( 25-C , 27-H ) :   0.9580 B( 25-C , 28-C ) :   1.0683
B( 28-C , 29-H ) :   0.9711 B( 28-C , 30-H ) :   0.9744 B( 28-C , 31-H ) :   0.9718

Dispersion correction           -0.014488128
FINAL SINGLE POINT ENERGY     -1339.841745645096

DIPOLE MOMENT
-------------
                                X             Y             Z
Electronic contribution:    -13.14142      27.95020      -5.10633
Nuclear contribution   :     13.35797     -28.67713       5.40584
                        -----------------------------------------
Total Dipole Moment    :      0.21655      -0.72693       0.29951
                        -----------------------------------------
Magnitude (a.u.)       :      0.81549
Magnitude (Debye)      :      2.07282

Rotational constants in cm-1:     0.017305     0.009533     0.006525
Rotational constants in MHz :   518.805015   285.786989   195.603216

                             ****ORCA TERMINATED NORMALLY****
TOTAL RUN TIME: 0 days 0 hours 0 minutes 20 seconds 836 msec
