                         Program Version 4.2.1 -  RELEASE  -
|  1> ! wB97X-D3 SP def2-SVP
|  2> %pal
|  3> nprocs 24
|  4> end
|  5>
|  6> * xyz 0 1
|  7> S 	 35.4912 	 -30.0454 	 -132.899
|  8> C 	 36.8393 	 -30.5752 	 -133.834
|  9> C 	 37.494 	 -31.616 	 -133.203
| 10> C 	 36.8584 	 -32.0514 	 -132.048
| 11> C 	 35.7265 	 -31.289 	 -131.732
| 12> H 	 37.0743 	 -32.863 	 -131.355
| 13> C 	 38.6781 	 -32.3058 	 -133.806
| 14> H 	 38.8624 	 -31.9137 	 -134.821
| 15> H 	 38.368 	 -33.3508 	 -134.018
| 16> C 	 39.9884 	 -32.1097 	 -132.974
| 17> H 	 40.854 	 -32.2964 	 -133.682
| 18> H 	 40.1113 	 -31.168 	 -132.481
| 19> C 	 40.1717 	 -33.2056 	 -131.928
| 20> H 	 41.0231 	 -32.9964 	 -131.232
| 21> H 	 39.3039 	 -33.1566 	 -131.336
| 22> H 	 40.2325 	 -34.1987 	 -132.275
| 23> S 	 33.1773 	 -31.9833 	 -130.81
| 24> C 	 32.8984 	 -32.014 	 -129.094
| 25> C 	 34.0813 	 -31.9591 	 -128.375
| 26> C 	 35.2303 	 -31.7162 	 -129.169
| 27> C 	 34.8517 	 -31.525 	 -130.534
| 28> H 	 34.1578 	 -32.0646 	 -127.286
| 29> C 	 36.6017 	 -31.4878 	 -128.64
| 30> H 	 36.5942 	 -30.9719 	 -127.714
| 31> H 	 37.2246 	 -30.8946 	 -129.271
| 32> C 	 37.3617 	 -32.8045 	 -128.392
| 33> H 	 37.4406 	 -33.4092 	 -129.321
| 34> H 	 36.7521 	 -33.3699 	 -127.638
| 35> C 	 38.7643 	 -32.4632 	 -127.882
| 36> H 	 39.4102 	 -33.2874 	 -128.181
| 37> H 	 38.8756 	 -32.2785 	 -126.774
| 38> H 	 39.1183 	 -31.6307 	 -128.512
| 39> H 	 37.0712 	 -30.024 	 -134.768
| 40> H 	 31.971 	 -32.1471 	 -128.581
| 41> *
| 42>
| 43>                          ****END OF INPUT****

CARTESIAN COORDINATES (ANGSTROEM)
---------------------------------
  S     35.491200  -30.045400  -132.899000
  C     36.839300  -30.575200  -133.834000
  C     37.494000  -31.616000  -133.203000
  C     36.858400  -32.051400  -132.048000
  C     35.726500  -31.289000  -131.732000
  H     37.074300  -32.863000  -131.355000
  C     38.678100  -32.305800  -133.806000
  H     38.862400  -31.913700  -134.821000
  H     38.368000  -33.350800  -134.018000
  C     39.988400  -32.109700  -132.974000
  H     40.854000  -32.296400  -133.682000
  H     40.111300  -31.168000  -132.481000
  C     40.171700  -33.205600  -131.928000
  H     41.023100  -32.996400  -131.232000
  H     39.303900  -33.156600  -131.336000
  H     40.232500  -34.198700  -132.275000
  S     33.177300  -31.983300  -130.810000
  C     32.898400  -32.014000  -129.094000
  C     34.081300  -31.959100  -128.375000
  C     35.230300  -31.716200  -129.169000
  C     34.851700  -31.525000  -130.534000
  H     34.157800  -32.064600  -127.286000
  C     36.601700  -31.487800  -128.640000
  H     36.594200  -30.971900  -127.714000
  H     37.224600  -30.894600  -129.271000
  C     37.361700  -32.804500  -128.392000
  H     37.440600  -33.409200  -129.321000
  H     36.752100  -33.369900  -127.638000
  C     38.764300  -32.463200  -127.882000
  H     39.410200  -33.287400  -128.181000
  H     38.875600  -32.278500  -126.774000
  H     39.118300  -31.630700  -128.512000
  H     37.071200  -30.024000  -134.768000
  H     31.971000  -32.147100  -128.581000

 Total Charge           Charge          ....    0
 Multiplicity           Mult            ....    1
 Number of Electrons    NEL             ....  134
 Basis Dimension        Dim             ....  322

ORBITAL ENERGIES
----------------

  NO   OCC          E(Eh)            E(eV)
   0   2.0000     -88.968395     -2420.9531
   1   2.0000     -88.965912     -2420.8855
   2   2.0000     -10.329974      -281.0929
   3   2.0000     -10.328172      -281.0438
   4   2.0000     -10.314705      -280.6774
   5   2.0000     -10.313997      -280.6581
   6   2.0000     -10.303360      -280.3687
   7   2.0000     -10.297858      -280.2190
   8   2.0000     -10.294893      -280.1383
   9   2.0000     -10.294088      -280.1164
  10   2.0000     -10.292241      -280.0661
  11   2.0000     -10.291546      -280.0472
  12   2.0000     -10.290872      -280.0289
  13   2.0000     -10.283527      -279.8290
  14   2.0000     -10.282811      -279.8095
  15   2.0000     -10.270898      -279.4853
  16   2.0000      -8.082879      -219.9463
  17   2.0000      -8.081576      -219.9109
  18   2.0000      -6.041314      -164.3925
  19   2.0000      -6.039773      -164.3506
  20   2.0000      -6.037489      -164.2884
  21   2.0000      -6.035785      -164.2421
  22   2.0000      -6.033676      -164.1847
  23   2.0000      -6.032790      -164.1606
  24   2.0000      -1.008060       -27.4307
  25   2.0000      -0.986976       -26.8570
  26   2.0000      -0.915437       -24.9103
  27   2.0000      -0.911169       -24.7942
  28   2.0000      -0.864325       -23.5195
  29   2.0000      -0.853165       -23.2158
  30   2.0000      -0.850200       -23.1351
  31   2.0000      -0.814143       -22.1539
  32   2.0000      -0.782190       -21.2845
  33   2.0000      -0.767532       -20.8856
  34   2.0000      -0.701447       -19.0874
  35   2.0000      -0.696453       -18.9514
  36   2.0000      -0.692383       -18.8407
  37   2.0000      -0.659411       -17.9435
  38   2.0000      -0.646312       -17.5870
  39   2.0000      -0.620056       -16.8726
  40   2.0000      -0.602637       -16.3986
  41   2.0000      -0.572316       -15.5735
  42   2.0000      -0.570577       -15.5262
  43   2.0000      -0.539440       -14.6789
  44   2.0000      -0.533938       -14.5292
  45   2.0000      -0.524908       -14.2835
  46   2.0000      -0.517309       -14.0767
  47   2.0000      -0.513863       -13.9829
  48   2.0000      -0.510014       -13.8782
  49   2.0000      -0.501026       -13.6336
  50   2.0000      -0.489787       -13.3278
  51   2.0000      -0.484347       -13.1798
  52   2.0000      -0.468260       -12.7420
  53   2.0000      -0.463801       -12.6207
  54   2.0000      -0.460737       -12.5373
  55   2.0000      -0.453365       -12.3367
  56   2.0000      -0.448559       -12.2059
  57   2.0000      -0.438650       -11.9363
  58   2.0000      -0.437003       -11.8914
  59   2.0000      -0.426476       -11.6050
  60   2.0000      -0.419574       -11.4172
  61   2.0000      -0.413959       -11.2644
  62   2.0000      -0.410017       -11.1571
  63   2.0000      -0.340334        -9.2610
  64   2.0000      -0.332912        -9.0590
  65   2.0000      -0.329027        -8.9533
  66   2.0000      -0.293408        -7.9840
  67   0.0000       0.029484         0.8023
  68   0.0000       0.070836         1.9276
  69   0.0000       0.115016         3.1297
  70   0.0000       0.121935         3.3180
  71   0.0000       0.128949         3.5089

MULLIKEN ATOMIC CHARGES
-----------------------
   0 S :    0.124520
   1 C :   -0.151545
   2 C :   -0.054554
   3 C :    0.036208
   4 C :   -0.178650
   5 H :    0.001239
   6 C :    0.046412
   7 H :    0.015939
   8 H :    0.043951
   9 C :   -0.069026
  10 H :    0.035468
  11 H :    0.037758
  12 C :   -0.017520
  13 H :    0.035700
  14 H :   -0.014667
  15 H :    0.021674
  16 S :    0.121267
  17 C :   -0.073400
  18 C :   -0.040634
  19 C :   -0.008900
  20 C :   -0.173315
  21 H :    0.021030
  22 C :    0.079991
  23 H :    0.012839
  24 H :    0.016484
  25 C :   -0.128807
  26 H :    0.037179
  27 H :    0.033722
  28 C :   -0.036665
  29 H :    0.030864
  30 H :    0.055574
  31 H :    0.026672
  32 H :    0.066699
  33 H :    0.046492
Sum of atomic charges:   -0.0000000

LOEWDIN ATOMIC CHARGES
----------------------
   0 S :    0.435370
   1 C :   -0.211045
   2 C :   -0.071594
   3 C :   -0.068653
   4 C :   -0.209085
   5 H :    0.030678
   6 C :   -0.032294
   7 H :    0.030499
   8 H :    0.038110
   9 C :   -0.034689
  10 H :    0.029280
  11 H :    0.025533
  12 C :   -0.063490
  13 H :    0.030779
  14 H :    0.010366
  15 H :    0.017576
  16 S :    0.415263
  17 C :   -0.189200
  18 C :   -0.071325
  19 C :   -0.051182
  20 C :   -0.200414
  21 H :    0.033331
  22 C :   -0.031348
  23 H :    0.027120
  24 H :    0.024465
  25 C :   -0.038912
  26 H :    0.020976
  27 H :    0.025986
  28 C :   -0.072614
  29 H :    0.026890
  30 H :    0.034769
  31 H :    0.027251
  32 H :    0.035251
  33 H :    0.026354

  Mayer bond orders larger than 0.100000
B(  0-S ,  1-C ) :   1.1622 B(  0-S ,  4-C ) :   1.1942 B(  1-C ,  2-C ) :   1.5596
B(  1-C ,  4-C ) :   0.1022 B(  1-C , 32-H ) :   0.9684 B(  2-C ,  3-C ) :   1.2659
B(  2-C ,  6-C ) :   1.0289 B(  3-C ,  4-C ) :   1.5264 B(  3-C ,  5-H ) :   0.9944
B(  4-C , 20-C ) :   1.0129 B(  6-C ,  7-H ) :   0.9412 B(  6-C ,  8-H ) :   0.9462
B(  6-C ,  9-C ) :   1.0438 B(  9-C , 10-H ) :   0.9609 B(  9-C , 11-H ) :   0.9608
B(  9-C , 12-C ) :   1.0766 B( 12-C , 13-H ) :   0.9705 B( 12-C , 14-H ) :   0.9715
B( 12-C , 15-H ) :   0.9743 B( 16-S , 17-C ) :   1.1578 B( 16-S , 20-C ) :   1.1620
B( 17-C , 18-C ) :   1.5848 B( 17-C , 20-C ) :   0.1035 B( 17-C , 33-H ) :   0.9703
B( 18-C , 19-C ) :   1.2742 B( 18-C , 21-H ) :   0.9828 B( 19-C , 20-C ) :   1.5523
B( 19-C , 22-C ) :   1.0555 B( 22-C , 23-H ) :   0.9354 B( 22-C , 24-H ) :   0.9311
B( 22-C , 25-C ) :   1.0519 B( 25-C , 26-H ) :   0.9542 B( 25-C , 27-H ) :   0.9544
B( 25-C , 28-C ) :   1.0768 B( 28-C , 29-H ) :   0.9739 B( 28-C , 30-H ) :   0.9725
B( 28-C , 31-H ) :   0.9690

Dispersion correction           -0.015688973
FINAL SINGLE POINT ENERGY     -1339.882795557471

DIPOLE MOMENT
-------------
                                X             Y             Z
Electronic contribution:    -29.14825      10.02876      -9.18596
Nuclear contribution   :     29.67777     -10.25403       9.42305
                        -----------------------------------------
Total Dipole Moment    :      0.52952      -0.22528       0.23708
                        -----------------------------------------
Magnitude (a.u.)       :      0.62237
Magnitude (Debye)      :      1.58195

Rotational constants in cm-1:     0.017062     0.010764     0.007222
Rotational constants in MHz :   511.507720   322.700029   216.512379

                             ****ORCA TERMINATED NORMALLY****
TOTAL RUN TIME: 0 days 0 hours 0 minutes 23 seconds 185 msec
