                         Program Version 4.2.1 -  RELEASE  -
|  1> ! wB97X-D3 SP def2-SVP
|  2> %pal
|  3> nprocs 24
|  4> end
|  5>
|  6> * xyz 0 1
|  7> S 	 -108.522 	 60.6398 	 -98.2328
|  8> C 	 -107.609 	 60.2607 	 -96.8472
|  9> C 	 -106.817 	 59.0995 	 -96.9869
| 10> C 	 -106.846 	 58.5875 	 -98.3215
| 11> C 	 -107.655 	 59.2701 	 -99.134
| 12> H 	 -106.332 	 57.6756 	 -98.6067
| 13> C 	 -106.101 	 58.379 	 -95.8351
| 14> H 	 -105.508 	 57.6145 	 -96.323
| 15> H 	 -106.79 	 57.9179 	 -95.1253
| 16> C 	 -105.113 	 59.278 	 -95.0144
| 17> H 	 -104.419 	 59.8112 	 -95.6841
| 18> H 	 -105.699 	 59.972 	 -94.49
| 19> C 	 -104.212 	 58.4806 	 -94.043
| 20> H 	 -103.909 	 59.1575 	 -93.2413
| 21> H 	 -104.741 	 57.7409 	 -93.4407
| 22> H 	 -103.358 	 58.0964 	 -94.4672
| 23> S 	 -107.914 	 57.1871 	 -100.932
| 24> C 	 -109.017 	 57.4422 	 -102.3
| 25> C 	 -109.34 	 58.783 	 -102.532
| 26> C 	 -108.583 	 59.6322 	 -101.558
| 27> C 	 -107.948 	 58.9279 	 -100.512
| 28> H 	 -109.959 	 58.995 	 -103.443
| 29> C 	 -108.774 	 61.1107 	 -101.657
| 30> H 	 -108.326 	 61.5925 	 -100.774
| 31> H 	 -109.829 	 61.3564 	 -101.553
| 32> C 	 -108.071 	 61.8771 	 -102.926
| 33> H 	 -108.497 	 61.5909 	 -103.852
| 34> H 	 -107.106 	 61.4571 	 -103.02
| 35> C 	 -107.99 	 63.403 	 -102.608
| 36> H 	 -107.563 	 63.6177 	 -101.636
| 37> H 	 -108.978 	 63.7473 	 -102.871
| 38> H 	 -107.2 	 63.6922 	 -103.369
| 39> H 	 -107.593 	 60.916 	 -96.0283
| 40> H 	 -109.11 	 56.6393 	 -103.033
| 41> *
| 42>
| 43>                          ****END OF INPUT****

CARTESIAN COORDINATES (ANGSTROEM)
---------------------------------
  S    -108.522000   60.639800  -98.232800
  C    -107.609000   60.260700  -96.847200
  C    -106.817000   59.099500  -96.986900
  C    -106.846000   58.587500  -98.321500
  C    -107.655000   59.270100  -99.134000
  H    -106.332000   57.675600  -98.606700
  C    -106.101000   58.379000  -95.835100
  H    -105.508000   57.614500  -96.323000
  H    -106.790000   57.917900  -95.125300
  C    -105.113000   59.278000  -95.014400
  H    -104.419000   59.811200  -95.684100
  H    -105.699000   59.972000  -94.490000
  C    -104.212000   58.480600  -94.043000
  H    -103.909000   59.157500  -93.241300
  H    -104.741000   57.740900  -93.440700
  H    -103.358000   58.096400  -94.467200
  S    -107.914000   57.187100  -100.932000
  C    -109.017000   57.442200  -102.300000
  C    -109.340000   58.783000  -102.532000
  C    -108.583000   59.632200  -101.558000
  C    -107.948000   58.927900  -100.512000
  H    -109.959000   58.995000  -103.443000
  C    -108.774000   61.110700  -101.657000
  H    -108.326000   61.592500  -100.774000
  H    -109.829000   61.356400  -101.553000
  C    -108.071000   61.877100  -102.926000
  H    -108.497000   61.590900  -103.852000
  H    -107.106000   61.457100  -103.020000
  C    -107.990000   63.403000  -102.608000
  H    -107.563000   63.617700  -101.636000
  H    -108.978000   63.747300  -102.871000
  H    -107.200000   63.692200  -103.369000
  H    -107.593000   60.916000  -96.028300
  H    -109.110000   56.639300  -103.033000

 Total Charge           Charge          ....    0
 Multiplicity           Mult            ....    1
 Number of Electrons    NEL             ....  134
 Basis Dimension        Dim             ....  322

ORBITAL ENERGIES
----------------

  NO   OCC          E(Eh)            E(eV)
   0   2.0000     -88.968491     -2420.9557
   1   2.0000     -88.960591     -2420.7407
   2   2.0000     -10.332586      -281.1639
   3   2.0000     -10.331492      -281.1342
   4   2.0000     -10.323487      -280.9164
   5   2.0000     -10.314177      -280.6630
   6   2.0000     -10.310035      -280.5503
   7   2.0000     -10.307614      -280.4844
   8   2.0000     -10.302670      -280.3499
   9   2.0000     -10.292507      -280.0734
  10   2.0000     -10.291489      -280.0457
  11   2.0000     -10.288531      -279.9652
  12   2.0000     -10.285582      -279.8849
  13   2.0000     -10.284933      -279.8673
  14   2.0000     -10.283507      -279.8284
  15   2.0000     -10.271730      -279.5080
  16   2.0000      -8.082198      -219.9278
  17   2.0000      -8.074748      -219.7251
  18   2.0000      -6.040783      -164.3781
  19   2.0000      -6.036940      -164.2735
  20   2.0000      -6.033447      -164.1784
  21   2.0000      -6.032849      -164.1622
  22   2.0000      -6.029460      -164.0699
  23   2.0000      -6.025235      -163.9550
  24   2.0000      -0.999205       -27.1898
  25   2.0000      -0.972962       -26.4757
  26   2.0000      -0.903226       -24.5780
  27   2.0000      -0.895608       -24.3707
  28   2.0000      -0.873101       -23.7583
  29   2.0000      -0.853315       -23.2199
  30   2.0000      -0.843288       -22.9470
  31   2.0000      -0.813679       -22.1413
  32   2.0000      -0.776417       -21.1274
  33   2.0000      -0.759657       -20.6713
  34   2.0000      -0.709816       -19.3151
  35   2.0000      -0.703531       -19.1440
  36   2.0000      -0.691302       -18.8113
  37   2.0000      -0.663889       -18.0653
  38   2.0000      -0.637715       -17.3531
  39   2.0000      -0.616548       -16.7771
  40   2.0000      -0.587407       -15.9842
  41   2.0000      -0.572428       -15.5766
  42   2.0000      -0.565330       -15.3834
  43   2.0000      -0.558637       -15.2013
  44   2.0000      -0.523928       -14.2568
  45   2.0000      -0.520227       -14.1561
  46   2.0000      -0.514223       -13.9927
  47   2.0000      -0.509016       -13.8510
  48   2.0000      -0.505363       -13.7516
  49   2.0000      -0.497129       -13.5276
  50   2.0000      -0.481360       -13.0985
  51   2.0000      -0.479427       -13.0459
  52   2.0000      -0.474456       -12.9106
  53   2.0000      -0.472598       -12.8600
  54   2.0000      -0.454741       -12.3741
  55   2.0000      -0.451766       -12.2932
  56   2.0000      -0.437669       -11.9096
  57   2.0000      -0.432311       -11.7638
  58   2.0000      -0.430721       -11.7205
  59   2.0000      -0.425758       -11.5855
  60   2.0000      -0.419231       -11.4079
  61   2.0000      -0.418590       -11.3904
  62   2.0000      -0.402512       -10.9529
  63   2.0000      -0.360398        -9.8069
  64   2.0000      -0.328871        -8.9490
  65   2.0000      -0.322707        -8.7813
  66   2.0000      -0.278744        -7.5850
  67   0.0000       0.015107         0.4111
  68   0.0000       0.074469         2.0264
  69   0.0000       0.091478         2.4892
  70   0.0000       0.105651         2.8749
  71   0.0000       0.125856         3.4247

MULLIKEN ATOMIC CHARGES
-----------------------
   0 S :    0.105975
   1 C :   -0.114280
   2 C :   -0.081106
   3 C :   -0.012001
   4 C :   -0.079896
   5 H :    0.024963
   6 C :    0.074826
   7 H :    0.011400
   8 H :    0.046597
   9 C :   -0.089739
  10 H :    0.034817
  11 H :    0.019679
  12 C :   -0.021166
  13 H :    0.021251
  14 H :    0.020528
  15 H :    0.026894
  16 S :    0.057558
  17 C :   -0.100702
  18 C :   -0.033658
  19 C :   -0.086424
  20 C :   -0.103448
  21 H :    0.054123
  22 C :    0.011752
  23 H :    0.010063
  24 H :    0.036053
  25 C :   -0.066996
  26 H :    0.018688
  27 H :    0.017696
  28 C :   -0.048155
  29 H :    0.049760
  30 H :    0.046778
  31 H :    0.041820
  32 H :    0.035788
  33 H :    0.070562
Sum of atomic charges:   -0.0000000

LOEWDIN ATOMIC CHARGES
----------------------
   0 S :    0.393847
   1 C :   -0.200987
   2 C :   -0.059569
   3 C :   -0.064798
   4 C :   -0.155026
   5 H :    0.033928
   6 C :   -0.028162
   7 H :    0.024853
   8 H :    0.033860
   9 C :   -0.032617
  10 H :    0.028691
  11 H :    0.012400
  12 C :   -0.061962
  13 H :    0.030681
  14 H :    0.024648
  15 H :    0.014077
  16 S :    0.364790
  17 C :   -0.170874
  18 C :   -0.075724
  19 C :   -0.049608
  20 C :   -0.186161
  21 H :    0.046742
  22 C :   -0.047869
  23 H :    0.015775
  24 H :    0.029650
  25 C :   -0.027682
  26 H :    0.014874
  27 H :    0.016805
  28 C :   -0.061092
  29 H :    0.028024
  30 H :    0.027722
  31 H :    0.037541
  32 H :    0.015022
  33 H :    0.028199

  Mayer bond orders larger than 0.100000
B(  0-S ,  1-C ) :   1.1567 B(  0-S ,  4-C ) :   1.0983 B(  1-C ,  2-C ) :   1.5852
B(  1-C , 32-H ) :   0.9744 B(  2-C ,  3-C ) :   1.2527 B(  2-C ,  6-C ) :   1.0183
B(  3-C ,  4-C ) :   1.5792 B(  3-C ,  5-H ) :   0.9869 B(  4-C , 20-C ) :   1.1127
B(  6-C ,  7-H ) :   0.9451 B(  6-C ,  8-H ) :   0.9393 B(  6-C ,  9-C ) :   1.0622
B(  9-C , 10-H ) :   0.9610 B(  9-C , 11-H ) :   0.9601 B(  9-C , 12-C ) :   1.0877
B( 12-C , 13-H ) :   0.9712 B( 12-C , 14-H ) :   0.9720 B( 12-C , 15-H ) :   0.9799
B( 16-S , 17-C ) :   1.1486 B( 16-S , 20-C ) :   1.0902 B( 17-C , 18-C ) :   1.6352
B( 17-C , 33-H ) :   0.9596 B( 18-C , 19-C ) :   1.1914 B( 18-C , 21-H ) :   0.9818
B( 19-C , 20-C ) :   1.5840 B( 19-C , 22-C ) :   1.0678 B( 22-C , 23-H ) :   0.9390
B( 22-C , 24-H ) :   0.9383 B( 22-C , 25-C ) :   1.0305 B( 25-C , 26-H ) :   0.9608
B( 25-C , 27-H ) :   0.9601 B( 25-C , 28-C ) :   1.0708 B( 28-C , 29-H ) :   0.9746
B( 28-C , 30-H ) :   0.9803 B( 28-C , 31-H ) :   0.9773

Dispersion correction           -0.013268036
FINAL SINGLE POINT ENERGY     -1339.844168201161

DIPOLE MOMENT
-------------
                                X             Y             Z
Electronic contribution:    -11.01024     -10.40938      -6.90223
Nuclear contribution   :     11.16629      10.54353       6.90156
                        -----------------------------------------
Total Dipole Moment    :      0.15605       0.13414      -0.00067
                        -----------------------------------------
Magnitude (a.u.)       :      0.20579
Magnitude (Debye)      :      0.52306

Rotational constants in cm-1:     0.021424     0.006987     0.005745
Rotational constants in MHz :   642.281804   209.470969   172.236198

                             ****ORCA TERMINATED NORMALLY****
TOTAL RUN TIME: 0 days 0 hours 0 minutes 19 seconds 452 msec
