                         Program Version 4.2.1 -  RELEASE  -
|  1> ! wB97X-D3 SP def2-SVP
|  2> %pal
|  3> nprocs 24
|  4> end
|  5>
|  6> * xyz 0 1
|  7> S 	 -51.048 	 15.2677 	 23.2747
|  8> C 	 -52.3958 	 14.3948 	 24.0412
|  9> C 	 -53.4348 	 14.0737 	 23.1152
| 10> C 	 -53.1486 	 14.6887 	 21.8504
| 11> C 	 -51.9382 	 15.4003 	 21.7892
| 12> H 	 -53.8088 	 14.6459 	 20.9016
| 13> C 	 -54.6908 	 13.2817 	 23.4637
| 14> H 	 -54.625 	 12.833 	 24.421
| 15> H 	 -54.7612 	 12.4669 	 22.6603
| 16> C 	 -56.055 	 14.0034 	 23.3999
| 17> H 	 -56.0874 	 14.8097 	 24.2072
| 18> H 	 -56.1455 	 14.5408 	 22.4533
| 19> C 	 -57.3495 	 13.1974 	 23.6499
| 20> H 	 -57.902 	 13.3287 	 24.6488
| 21> H 	 -58.0941 	 13.6933 	 23.0045
| 22> H 	 -57.3137 	 12.1285 	 23.3584
| 23> S 	 -49.9368 	 15.7874 	 19.9885
| 24> C 	 -50.2311 	 16.7381 	 18.5765
| 25> C 	 -51.4381 	 17.4105 	 18.6938
| 26> C 	 -52.1934 	 17.0461 	 19.8176
| 27> C 	 -51.4855 	 16.1229 	 20.6245
| 28> H 	 -51.7188 	 18.1235 	 17.8784
| 29> C 	 -53.5384 	 17.6942 	 20.0463
| 30> H 	 -54.2096 	 16.9703 	 20.4671
| 31> H 	 -53.9169 	 18.0724 	 19.0728
| 32> C 	 -53.5876 	 18.9248 	 20.9906
| 33> H 	 -53.4131 	 18.581 	 22.0161
| 34> H 	 -54.6189 	 19.2834 	 21.08
| 35> C 	 -52.6128 	 20.1431 	 20.7589
| 36> H 	 -52.7749 	 20.943 	 21.4922
| 37> H 	 -52.7517 	 20.6544 	 19.8219
| 38> H 	 -51.5753 	 19.8503 	 20.775
| 39> H 	 -52.6108 	 14.1145 	 25.0013
| 40> H 	 -49.5629 	 17.0878 	 17.7942
| 41> *
| 42>
| 43>                          ****END OF INPUT****

CARTESIAN COORDINATES (ANGSTROEM)
---------------------------------
  S    -51.048000   15.267700   23.274700
  C    -52.395800   14.394800   24.041200
  C    -53.434800   14.073700   23.115200
  C    -53.148600   14.688700   21.850400
  C    -51.938200   15.400300   21.789200
  H    -53.808800   14.645900   20.901600
  C    -54.690800   13.281700   23.463700
  H    -54.625000   12.833000   24.421000
  H    -54.761200   12.466900   22.660300
  C    -56.055000   14.003400   23.399900
  H    -56.087400   14.809700   24.207200
  H    -56.145500   14.540800   22.453300
  C    -57.349500   13.197400   23.649900
  H    -57.902000   13.328700   24.648800
  H    -58.094100   13.693300   23.004500
  H    -57.313700   12.128500   23.358400
  S    -49.936800   15.787400   19.988500
  C    -50.231100   16.738100   18.576500
  C    -51.438100   17.410500   18.693800
  C    -52.193400   17.046100   19.817600
  C    -51.485500   16.122900   20.624500
  H    -51.718800   18.123500   17.878400
  C    -53.538400   17.694200   20.046300
  H    -54.209600   16.970300   20.467100
  H    -53.916900   18.072400   19.072800
  C    -53.587600   18.924800   20.990600
  H    -53.413100   18.581000   22.016100
  H    -54.618900   19.283400   21.080000
  C    -52.612800   20.143100   20.758900
  H    -52.774900   20.943000   21.492200
  H    -52.751700   20.654400   19.821900
  H    -51.575300   19.850300   20.775000
  H    -52.610800   14.114500   25.001300
  H    -49.562900   17.087800   17.794200

 Total Charge           Charge          ....    0
 Multiplicity           Mult            ....    1
 Number of Electrons    NEL             ....  134
 Basis Dimension        Dim             ....  322

ORBITAL ENERGIES
----------------

  NO   OCC          E(Eh)            E(eV)
   0   2.0000     -88.975762     -2421.1536
   1   2.0000     -88.970625     -2421.0138
   2   2.0000     -10.331364      -281.1307
   3   2.0000     -10.326555      -280.9998
   4   2.0000     -10.315061      -280.6871
   5   2.0000     -10.313181      -280.6359
   6   2.0000     -10.310098      -280.5520
   7   2.0000     -10.303967      -280.3852
   8   2.0000     -10.302612      -280.3483
   9   2.0000     -10.301643      -280.3220
  10   2.0000     -10.296594      -280.1846
  11   2.0000     -10.293033      -280.0877
  12   2.0000     -10.292828      -280.0821
  13   2.0000     -10.290496      -280.0186
  14   2.0000     -10.287579      -279.9393
  15   2.0000     -10.274348      -279.5792
  16   2.0000      -8.089475      -220.1258
  17   2.0000      -8.086065      -220.0330
  18   2.0000      -6.048096      -164.5771
  19   2.0000      -6.044486      -164.4788
  20   2.0000      -6.044101      -164.4684
  21   2.0000      -6.040310      -164.3652
  22   2.0000      -6.040202      -164.3622
  23   2.0000      -6.037053      -164.2766
  24   2.0000      -1.011138       -27.5145
  25   2.0000      -0.982884       -26.7456
  26   2.0000      -0.908824       -24.7304
  27   2.0000      -0.902774       -24.5657
  28   2.0000      -0.869793       -23.6683
  29   2.0000      -0.847847       -23.0711
  30   2.0000      -0.845402       -23.0046
  31   2.0000      -0.811194       -22.0737
  32   2.0000      -0.786058       -21.3897
  33   2.0000      -0.775477       -21.1018
  34   2.0000      -0.713588       -19.4177
  35   2.0000      -0.694295       -18.8927
  36   2.0000      -0.691180       -18.8080
  37   2.0000      -0.658879       -17.9290
  38   2.0000      -0.637322       -17.3424
  39   2.0000      -0.615083       -16.7373
  40   2.0000      -0.588164       -16.0048
  41   2.0000      -0.568780       -15.4773
  42   2.0000      -0.559833       -15.2338
  43   2.0000      -0.547280       -14.8923
  44   2.0000      -0.539678       -14.6854
  45   2.0000      -0.523712       -14.2509
  46   2.0000      -0.513919       -13.9844
  47   2.0000      -0.510234       -13.8842
  48   2.0000      -0.499631       -13.5956
  49   2.0000      -0.496814       -13.5190
  50   2.0000      -0.486239       -13.2312
  51   2.0000      -0.478090       -13.0095
  52   2.0000      -0.476644       -12.9701
  53   2.0000      -0.467794       -12.7293
  54   2.0000      -0.458738       -12.4829
  55   2.0000      -0.449784       -12.2392
  56   2.0000      -0.443584       -12.0705
  57   2.0000      -0.440130       -11.9766
  58   2.0000      -0.432953       -11.7813
  59   2.0000      -0.428591       -11.6625
  60   2.0000      -0.424550       -11.5526
  61   2.0000      -0.411108       -11.1868
  62   2.0000      -0.405702       -11.0397
  63   2.0000      -0.346430        -9.4268
  64   2.0000      -0.334391        -9.0992
  65   2.0000      -0.331774        -9.0280
  66   2.0000      -0.287036        -7.8106
  67   0.0000       0.026374         0.7177
  68   0.0000       0.065691         1.7875
  69   0.0000       0.106326         2.8933
  70   0.0000       0.118691         3.2297
  71   0.0000       0.130840         3.5603

MULLIKEN ATOMIC CHARGES
-----------------------
   0 S :    0.134062
   1 C :   -0.063678
   2 C :   -0.106005
   3 C :   -0.008552
   4 C :   -0.159514
   5 H :    0.051258
   6 C :    0.077334
   7 H :    0.015125
   8 H :    0.044368
   9 C :   -0.099251
  10 H :    0.036257
  11 H :    0.031457
  12 C :   -0.086052
  13 H :    0.049836
  14 H :    0.030288
  15 H :    0.043172
  16 S :    0.131852
  17 C :   -0.090233
  18 C :   -0.085774
  19 C :   -0.029921
  20 C :   -0.166987
  21 H :    0.035291
  22 C :    0.107990
  23 H :    0.012781
  24 H :    0.023552
  25 C :   -0.079605
  26 H :    0.027906
  27 H :    0.025930
  28 C :   -0.055086
  29 H :    0.033865
  30 H :    0.016891
  31 H :    0.042455
  32 H :    0.002048
  33 H :    0.056939
Sum of atomic charges:   -0.0000000

LOEWDIN ATOMIC CHARGES
----------------------
   0 S :    0.412350
   1 C :   -0.185551
   2 C :   -0.054465
   3 C :   -0.072823
   4 C :   -0.205787
   5 H :    0.044684
   6 C :   -0.033122
   7 H :    0.024153
   8 H :    0.042560
   9 C :   -0.050342
  10 H :    0.032380
  11 H :    0.021370
  12 C :   -0.085791
  13 H :    0.036496
  14 H :    0.032581
  15 H :    0.026933
  16 S :    0.445755
  17 C :   -0.209327
  18 C :   -0.075240
  19 C :   -0.059671
  20 C :   -0.217403
  21 H :    0.039216
  22 C :   -0.028444
  23 H :    0.027989
  24 H :    0.032667
  25 C :   -0.039347
  26 H :    0.024803
  27 H :    0.024286
  28 C :   -0.069878
  29 H :    0.030279
  30 H :    0.018063
  31 H :    0.025602
  32 H :    0.010318
  33 H :    0.034710

  Mayer bond orders larger than 0.100000
B(  0-S ,  1-C ) :   1.1326 B(  0-S ,  4-C ) :   1.1472 B(  1-C ,  2-C ) :   1.6021
B(  1-C ,  4-C ) :   0.1050 B(  1-C , 32-H ) :   0.9714 B(  2-C ,  3-C ) :   1.2474
B(  2-C ,  6-C ) :   1.0379 B(  3-C ,  4-C ) :   1.5699 B(  3-C ,  5-H ) :   0.9715
B(  4-C , 20-C ) :   1.0474 B(  6-C ,  7-H ) :   0.9410 B(  6-C ,  8-H ) :   0.9335
B(  6-C ,  9-C ) :   1.0612 B(  9-C , 10-H ) :   0.9545 B(  9-C , 11-H ) :   0.9653
B(  9-C , 12-C ) :   1.0617 B( 12-C , 13-H ) :   0.9784 B( 12-C , 14-H ) :   0.9747
B( 12-C , 15-H ) :   0.9760 B( 16-S , 17-C ) :   1.1662 B( 16-S , 20-C ) :   1.1734
B( 17-C , 18-C ) :   1.5907 B( 17-C , 20-C ) :   0.1096 B( 17-C , 33-H ) :   0.9616
B( 18-C , 19-C ) :   1.2890 B( 18-C , 21-H ) :   0.9785 B( 19-C , 20-C ) :   1.5248
B( 19-C , 22-C ) :   1.0481 B( 22-C , 23-H ) :   0.9215 B( 22-C , 24-H ) :   0.9354
B( 22-C , 25-C ) :   1.0770 B( 25-C , 26-H ) :   0.9561 B( 25-C , 27-H ) :   0.9570
B( 25-C , 28-C ) :   1.0707 B( 28-C , 29-H ) :   0.9749 B( 28-C , 30-H ) :   0.9765
B( 28-C , 31-H ) :   0.9753

Dispersion correction           -0.014288690
FINAL SINGLE POINT ENERGY     -1339.866971126917

DIPOLE MOMENT
-------------
                                X             Y             Z
Electronic contribution:     27.64013      -6.18135      -3.18241
Nuclear contribution   :    -28.31039       6.36642       3.10127
                        -----------------------------------------
Total Dipole Moment    :     -0.67026       0.18508      -0.08114
                        -----------------------------------------
Magnitude (a.u.)       :      0.70007
Magnitude (Debye)      :      1.77943

Rotational constants in cm-1:     0.018900     0.008139     0.006807
Rotational constants in MHz :   566.603821   243.994297   204.080154

                             ****ORCA TERMINATED NORMALLY****
TOTAL RUN TIME: 0 days 0 hours 0 minutes 21 seconds 335 msec
