                         Program Version 4.2.1 -  RELEASE  -
|  1> ! wB97X-D3 SP def2-SVP
|  2> %pal
|  3> nprocs 24
|  4> end
|  5>
|  6> * xyz 0 1
|  7> S 	 -81.0439 	 -0.135376 	 -58.957
|  8> C 	 -79.4767 	 0.0106554 	 -59.5951
|  9> C 	 -78.7823 	 -1.18573 	 -59.6298
| 10> C 	 -79.5981 	 -2.31714 	 -59.2643
| 11> C 	 -80.8901 	 -1.91722 	 -58.9885
| 12> H 	 -79.3908 	 -3.3315 	 -59.2803
| 13> C 	 -77.3298 	 -1.28692 	 -60.0966
| 14> H 	 -77.0957 	 -0.465352 	 -60.751
| 15> H 	 -77.1009 	 -2.07866 	 -60.8116
| 16> C 	 -76.3476 	 -1.16505 	 -58.8729
| 17> H 	 -76.5174 	 -0.242861 	 -58.3156
| 18> H 	 -76.6143 	 -1.9624 	 -58.2185
| 19> C 	 -74.9082 	 -1.37279 	 -59.2311
| 20> H 	 -74.4483 	 -0.513977 	 -59.6859
| 21> H 	 -74.2984 	 -1.83145 	 -58.5215
| 22> H 	 -74.843 	 -2.06905 	 -60.0639
| 23> S 	 -82.6141 	 -3.38177 	 -57.2679
| 24> C 	 -83.8792 	 -4.37656 	 -57.9854
| 25> C 	 -83.6164 	 -4.55707 	 -59.2875
| 26> C 	 -82.6396 	 -3.70111 	 -59.8699
| 27> C 	 -82.0484 	 -2.84795 	 -58.9012
| 28> H 	 -84.2304 	 -5.33386 	 -59.7626
| 29> C 	 -82.1844 	 -3.74441 	 -61.3427
| 30> H 	 -82.1506 	 -4.81797 	 -61.623
| 31> H 	 -81.215 	 -3.35328 	 -61.4169
| 32> C 	 -83.1416 	 -2.97317 	 -62.3243
| 33> H 	 -84.1866 	 -3.21879 	 -62.2965
| 34> H 	 -82.9322 	 -3.11053 	 -63.4066
| 35> C 	 -83.0003 	 -1.47012 	 -62.1301
| 36> H 	 -81.9453 	 -1.19005 	 -62.1592
| 37> H 	 -83.3549 	 -1.15068 	 -61.2125
| 38> H 	 -83.4311 	 -0.822187 	 -62.8895
| 39> H 	 -79.1449 	 1.02345 	 -60.0485
| 40> H 	 -84.6415 	 -5.01169 	 -57.5244
| 41> *
| 42>
| 43>                          ****END OF INPUT****

CARTESIAN COORDINATES (ANGSTROEM)
---------------------------------
  S    -81.043900   -0.135376  -58.957000
  C    -79.476700    0.010655  -59.595100
  C    -78.782300   -1.185730  -59.629800
  C    -79.598100   -2.317140  -59.264300
  C    -80.890100   -1.917220  -58.988500
  H    -79.390800   -3.331500  -59.280300
  C    -77.329800   -1.286920  -60.096600
  H    -77.095700   -0.465352  -60.751000
  H    -77.100900   -2.078660  -60.811600
  C    -76.347600   -1.165050  -58.872900
  H    -76.517400   -0.242861  -58.315600
  H    -76.614300   -1.962400  -58.218500
  C    -74.908200   -1.372790  -59.231100
  H    -74.448300   -0.513977  -59.685900
  H    -74.298400   -1.831450  -58.521500
  H    -74.843000   -2.069050  -60.063900
  S    -82.614100   -3.381770  -57.267900
  C    -83.879200   -4.376560  -57.985400
  C    -83.616400   -4.557070  -59.287500
  C    -82.639600   -3.701110  -59.869900
  C    -82.048400   -2.847950  -58.901200
  H    -84.230400   -5.333860  -59.762600
  C    -82.184400   -3.744410  -61.342700
  H    -82.150600   -4.817970  -61.623000
  H    -81.215000   -3.353280  -61.416900
  C    -83.141600   -2.973170  -62.324300
  H    -84.186600   -3.218790  -62.296500
  H    -82.932200   -3.110530  -63.406600
  C    -83.000300   -1.470120  -62.130100
  H    -81.945300   -1.190050  -62.159200
  H    -83.354900   -1.150680  -61.212500
  H    -83.431100   -0.822187  -62.889500
  H    -79.144900    1.023450  -60.048500
  H    -84.641500   -5.011690  -57.524400

 Total Charge           Charge          ....    0
 Multiplicity           Mult            ....    1
 Number of Electrons    NEL             ....  134
 Basis Dimension        Dim             ....  322

ORBITAL ENERGIES
----------------

  NO   OCC          E(Eh)            E(eV)
   0   2.0000     -88.968059     -2420.9440
   1   2.0000     -88.961158     -2420.7562
   2   2.0000     -10.334087      -281.2048
   3   2.0000     -10.332600      -281.1643
   4   2.0000     -10.321034      -280.8496
   5   2.0000     -10.314076      -280.6603
   6   2.0000     -10.310870      -280.5730
   7   2.0000     -10.306785      -280.4619
   8   2.0000     -10.297092      -280.1981
   9   2.0000     -10.295164      -280.1457
  10   2.0000     -10.293170      -280.0914
  11   2.0000     -10.289617      -279.9947
  12   2.0000     -10.284198      -279.8472
  13   2.0000     -10.282832      -279.8101
  14   2.0000     -10.267762      -279.4000
  15   2.0000     -10.259253      -279.1685
  16   2.0000      -8.083146      -219.9536
  17   2.0000      -8.074971      -219.7311
  18   2.0000      -6.041491      -164.3973
  19   2.0000      -6.037670      -164.2934
  20   2.0000      -6.033961      -164.1924
  21   2.0000      -6.033603      -164.1827
  22   2.0000      -6.029766      -164.0783
  23   2.0000      -6.025481      -163.9617
  24   2.0000      -1.002806       -27.2877
  25   2.0000      -0.982916       -26.7465
  26   2.0000      -0.909179       -24.7400
  27   2.0000      -0.901349       -24.5270
  28   2.0000      -0.869911       -23.6715
  29   2.0000      -0.854886       -23.2626
  30   2.0000      -0.841148       -22.8888
  31   2.0000      -0.818176       -22.2637
  32   2.0000      -0.781212       -21.2579
  33   2.0000      -0.766681       -20.8624
  34   2.0000      -0.707841       -19.2613
  35   2.0000      -0.700909       -19.0727
  36   2.0000      -0.694355       -18.8943
  37   2.0000      -0.654263       -17.8034
  38   2.0000      -0.645339       -17.5606
  39   2.0000      -0.619550       -16.8588
  40   2.0000      -0.591483       -16.0951
  41   2.0000      -0.570127       -15.5140
  42   2.0000      -0.559496       -15.2247
  43   2.0000      -0.547204       -14.8902
  44   2.0000      -0.538506       -14.6535
  45   2.0000      -0.523375       -14.2418
  46   2.0000      -0.519833       -14.1454
  47   2.0000      -0.512603       -13.9486
  48   2.0000      -0.511465       -13.9177
  49   2.0000      -0.491652       -13.3785
  50   2.0000      -0.483794       -13.1647
  51   2.0000      -0.478031       -13.0079
  52   2.0000      -0.469674       -12.7805
  53   2.0000      -0.461958       -12.5705
  54   2.0000      -0.457194       -12.4409
  55   2.0000      -0.455392       -12.3919
  56   2.0000      -0.438194       -11.9239
  57   2.0000      -0.435324       -11.8458
  58   2.0000      -0.431376       -11.7383
  59   2.0000      -0.426284       -11.5998
  60   2.0000      -0.421641       -11.4734
  61   2.0000      -0.414808       -11.2875
  62   2.0000      -0.408341       -11.1115
  63   2.0000      -0.340266        -9.2591
  64   2.0000      -0.328596        -8.9415
  65   2.0000      -0.321753        -8.7554
  66   2.0000      -0.305502        -8.3131
  67   0.0000       0.037502         1.0205
  68   0.0000       0.047992         1.3059
  69   0.0000       0.107684         2.9302
  70   0.0000       0.119072         3.2401
  71   0.0000       0.126333         3.4377

MULLIKEN ATOMIC CHARGES
-----------------------
   0 S :    0.128998
   1 C :   -0.152632
   2 C :   -0.085121
   3 C :    0.102683
   4 C :   -0.191964
   5 H :   -0.005787
   6 C :    0.046576
   7 H :    0.005256
   8 H :    0.024895
   9 C :   -0.059166
  10 H :    0.034515
  11 H :    0.018243
  12 C :    0.005788
  13 H :    0.022307
  14 H :    0.025162
  15 H :    0.001839
  16 S :    0.085801
  17 C :   -0.079897
  18 C :   -0.059333
  19 C :   -0.020749
  20 C :   -0.176851
  21 H :    0.023348
  22 C :    0.107042
  23 H :    0.033907
  24 H :    0.010255
  25 C :   -0.059141
  26 H :    0.023039
  27 H :    0.025090
  28 C :   -0.034293
  29 H :    0.014155
  30 H :    0.015121
  31 H :    0.024774
  32 H :    0.088035
  33 H :    0.058103
Sum of atomic charges:   -0.0000000

LOEWDIN ATOMIC CHARGES
----------------------
   0 S :    0.417613
   1 C :   -0.219317
   2 C :   -0.066017
   3 C :   -0.036952
   4 C :   -0.190320
   5 H :    0.025188
   6 C :   -0.034674
   7 H :    0.024903
   8 H :    0.028705
   9 C :   -0.034729
  10 H :    0.027108
  11 H :    0.020627
  12 C :   -0.064856
  13 H :    0.023814
  14 H :    0.020561
  15 H :    0.025396
  16 S :    0.369167
  17 C :   -0.182019
  18 C :   -0.082008
  19 C :   -0.047889
  20 C :   -0.186167
  21 H :    0.035486
  22 C :   -0.017510
  23 H :    0.036342
  24 H :    0.021379
  25 C :   -0.040271
  26 H :    0.019784
  27 H :    0.026542
  28 C :   -0.063647
  29 H :    0.023029
  30 H :    0.009243
  31 H :    0.024706
  32 H :    0.048582
  33 H :    0.038203

  Mayer bond orders larger than 0.100000
B(  0-S ,  1-C ) :   1.1601 B(  0-S ,  4-C ) :   1.1461 B(  1-C ,  2-C ) :   1.6150
B(  1-C , 32-H ) :   0.9529 B(  2-C ,  3-C ) :   1.2104 B(  2-C ,  6-C ) :   1.0274
B(  3-C ,  4-C ) :   1.5851 B(  3-C ,  5-H ) :   1.0124 B(  4-C , 20-C ) :   1.0214
B(  6-C ,  7-H ) :   0.9402 B(  6-C ,  8-H ) :   0.9465 B(  6-C ,  9-C ) :   1.0497
B(  9-C , 10-H ) :   0.9577 B(  9-C , 11-H ) :   0.9599 B(  9-C , 12-C ) :   1.0839
B( 12-C , 13-H ) :   0.9716 B( 12-C , 14-H ) :   0.9733 B( 12-C , 15-H ) :   0.9653
B( 16-S , 17-C ) :   1.1333 B( 16-S , 20-C ) :   1.1329 B( 17-C , 18-C ) :   1.6583
B( 17-C , 33-H ) :   0.9604 B( 18-C , 19-C ) :   1.2257 B( 18-C , 21-H ) :   0.9838
B( 19-C , 20-C ) :   1.5856 B( 19-C , 22-C ) :   1.0329 B( 22-C , 23-H ) :   0.9387
B( 22-C , 24-H ) :   0.9368 B( 22-C , 25-C ) :   1.0610 B( 25-C , 26-H ) :   0.9617
B( 25-C , 27-H ) :   0.9587 B( 25-C , 28-C ) :   1.0712 B( 28-C , 29-H ) :   0.9727
B( 28-C , 30-H ) :   0.9764 B( 28-C , 31-H ) :   0.9733

Dispersion correction           -0.015310496
FINAL SINGLE POINT ENERGY     -1339.857180846158

DIPOLE MOMENT
-------------
                                X             Y             Z
Electronic contribution:    -16.08395      -0.17707      16.61463
Nuclear contribution   :     16.45810      -0.12520     -17.19841
                        -----------------------------------------
Total Dipole Moment    :      0.37415      -0.30227      -0.58379
                        -----------------------------------------
Magnitude (a.u.)       :      0.75641
Magnitude (Debye)      :      1.92265

Rotational constants in cm-1:     0.020779     0.007759     0.007009
Rotational constants in MHz :   622.942988   232.623383   210.133490

                             ****ORCA TERMINATED NORMALLY****
TOTAL RUN TIME: 0 days 0 hours 0 minutes 22 seconds 4 msec
