                         Program Version 4.2.1 -  RELEASE  -
|  1> ! wB97X-D3 SP def2-SVP
|  2> %pal
|  3> nprocs 24
|  4> end
|  5>
|  6> * xyz 0 1
|  7> S 	 48.7593 	 -34.8508 	 -121.294
|  8> C 	 49.6405 	 -34.1098 	 -122.613
|  9> C 	 49.1551 	 -32.8585 	 -122.867
| 10> C 	 47.9054 	 -32.5679 	 -122.16
| 11> C 	 47.6517 	 -33.47 	 -121.163
| 12> H 	 47.2548 	 -31.733 	 -122.21
| 13> C 	 49.8848 	 -31.8704 	 -123.727
| 14> H 	 50.9706 	 -32.0047 	 -123.63
| 15> H 	 49.6601 	 -30.8261 	 -123.327
| 16> C 	 49.6749 	 -32.0727 	 -125.205
| 17> H 	 50.4258 	 -31.549 	 -125.753
| 18> H 	 49.7357 	 -33.1363 	 -125.486
| 19> C 	 48.2561 	 -31.6679 	 -125.634
| 20> H 	 48.086 	 -32.003 	 -126.63
| 21> H 	 47.5295 	 -32.0409 	 -124.91
| 22> H 	 47.9383 	 -30.6057 	 -125.604
| 23> S 	 47.0744 	 -32.3721 	 -118.737
| 24> C 	 45.3912 	 -32.3748 	 -118.17
| 25> C 	 44.584 	 -33.1504 	 -118.944
| 26> C 	 45.2645 	 -33.6471 	 -120.142
| 27> C 	 46.6003 	 -33.2427 	 -120.209
| 28> H 	 43.5293 	 -33.3302 	 -118.709
| 29> C 	 44.5228 	 -34.4499 	 -121.252
| 30> H 	 44.0941 	 -35.2414 	 -120.666
| 31> H 	 45.2886 	 -34.8585 	 -121.909
| 32> C 	 43.5183 	 -33.5945 	 -122.045
| 33> H 	 42.5616 	 -33.5633 	 -121.553
| 34> H 	 43.2477 	 -34.1272 	 -122.943
| 35> C 	 43.9764 	 -32.173 	 -122.362
| 36> H 	 43.1593 	 -31.6854 	 -122.884
| 37> H 	 44.9632 	 -32.1021 	 -122.871
| 38> H 	 43.9822 	 -31.5691 	 -121.448
| 39> H 	 50.608 	 -34.4532 	 -123.022
| 40> H 	 45.1189 	 -32.0957 	 -117.182
| 41> *
| 42>
| 43>                          ****END OF INPUT****

CARTESIAN COORDINATES (ANGSTROEM)
---------------------------------
  S     48.759300  -34.850800  -121.294000
  C     49.640500  -34.109800  -122.613000
  C     49.155100  -32.858500  -122.867000
  C     47.905400  -32.567900  -122.160000
  C     47.651700  -33.470000  -121.163000
  H     47.254800  -31.733000  -122.210000
  C     49.884800  -31.870400  -123.727000
  H     50.970600  -32.004700  -123.630000
  H     49.660100  -30.826100  -123.327000
  C     49.674900  -32.072700  -125.205000
  H     50.425800  -31.549000  -125.753000
  H     49.735700  -33.136300  -125.486000
  C     48.256100  -31.667900  -125.634000
  H     48.086000  -32.003000  -126.630000
  H     47.529500  -32.040900  -124.910000
  H     47.938300  -30.605700  -125.604000
  S     47.074400  -32.372100  -118.737000
  C     45.391200  -32.374800  -118.170000
  C     44.584000  -33.150400  -118.944000
  C     45.264500  -33.647100  -120.142000
  C     46.600300  -33.242700  -120.209000
  H     43.529300  -33.330200  -118.709000
  C     44.522800  -34.449900  -121.252000
  H     44.094100  -35.241400  -120.666000
  H     45.288600  -34.858500  -121.909000
  C     43.518300  -33.594500  -122.045000
  H     42.561600  -33.563300  -121.553000
  H     43.247700  -34.127200  -122.943000
  C     43.976400  -32.173000  -122.362000
  H     43.159300  -31.685400  -122.884000
  H     44.963200  -32.102100  -122.871000
  H     43.982200  -31.569100  -121.448000
  H     50.608000  -34.453200  -123.022000
  H     45.118900  -32.095700  -117.182000

 Total Charge           Charge          ....    0
 Multiplicity           Mult            ....    1
 Number of Electrons    NEL             ....  134
 Basis Dimension        Dim             ....  322

ORBITAL ENERGIES
----------------

  NO   OCC          E(Eh)            E(eV)
   0   2.0000     -88.965848     -2420.8838
   1   2.0000     -88.962539     -2420.7938
   2   2.0000     -10.327082      -281.0142
   3   2.0000     -10.325653      -280.9753
   4   2.0000     -10.316437      -280.7245
   5   2.0000     -10.314757      -280.6788
   6   2.0000     -10.308613      -280.5116
   7   2.0000     -10.301809      -280.3265
   8   2.0000     -10.297974      -280.2221
   9   2.0000     -10.294009      -280.1142
  10   2.0000     -10.293372      -280.0969
  11   2.0000     -10.291085      -280.0347
  12   2.0000     -10.283908      -279.8394
  13   2.0000     -10.283371      -279.8247
  14   2.0000     -10.276831      -279.6468
  15   2.0000     -10.271347      -279.4976
  16   2.0000      -8.079971      -219.8672
  17   2.0000      -8.076773      -219.7802
  18   2.0000      -6.038653      -164.3201
  19   2.0000      -6.035392      -164.2314
  20   2.0000      -6.034517      -164.2076
  21   2.0000      -6.031443      -164.1239
  22   2.0000      -6.030603      -164.1011
  23   2.0000      -6.027348      -164.0125
  24   2.0000      -1.002892       -27.2901
  25   2.0000      -0.979245       -26.6466
  26   2.0000      -0.915635       -24.9157
  27   2.0000      -0.905186       -24.6313
  28   2.0000      -0.874456       -23.7951
  29   2.0000      -0.842324       -22.9208
  30   2.0000      -0.840453       -22.8699
  31   2.0000      -0.817778       -22.2529
  32   2.0000      -0.782619       -21.2961
  33   2.0000      -0.771861       -21.0034
  34   2.0000      -0.708047       -19.2669
  35   2.0000      -0.701724       -19.0949
  36   2.0000      -0.693212       -18.8633
  37   2.0000      -0.657744       -17.8981
  38   2.0000      -0.645229       -17.5576
  39   2.0000      -0.609053       -16.5732
  40   2.0000      -0.587950       -15.9989
  41   2.0000      -0.573512       -15.6061
  42   2.0000      -0.559748       -15.2315
  43   2.0000      -0.550834       -14.9889
  44   2.0000      -0.542881       -14.7726
  45   2.0000      -0.532321       -14.4852
  46   2.0000      -0.523160       -14.2359
  47   2.0000      -0.515579       -14.0296
  48   2.0000      -0.504297       -13.7226
  49   2.0000      -0.492796       -13.4097
  50   2.0000      -0.485477       -13.2105
  51   2.0000      -0.478022       -13.0076
  52   2.0000      -0.469229       -12.7684
  53   2.0000      -0.466378       -12.6908
  54   2.0000      -0.457094       -12.4382
  55   2.0000      -0.448779       -12.2119
  56   2.0000      -0.443003       -12.0547
  57   2.0000      -0.435362       -11.8468
  58   2.0000      -0.432979       -11.7819
  59   2.0000      -0.420894       -11.4531
  60   2.0000      -0.415320       -11.3014
  61   2.0000      -0.413351       -11.2479
  62   2.0000      -0.408417       -11.1136
  63   2.0000      -0.335605        -9.1323
  64   2.0000      -0.328464        -8.9380
  65   2.0000      -0.316310        -8.6072
  66   2.0000      -0.316085        -8.6011
  67   0.0000       0.047012         1.2793
  68   0.0000       0.048114         1.3092
  69   0.0000       0.107220         2.9176
  70   0.0000       0.112161         3.0521
  71   0.0000       0.128819         3.5054

MULLIKEN ATOMIC CHARGES
-----------------------
   0 S :    0.116180
   1 C :   -0.120683
   2 C :   -0.088741
   3 C :    0.055987
   4 C :   -0.161684
   5 H :    0.007452
   6 C :    0.031855
   7 H :    0.024841
   8 H :    0.045019
   9 C :   -0.036121
  10 H :    0.025376
  11 H :    0.030666
  12 C :   -0.058522
  13 H :    0.029680
  14 H :    0.022724
  15 H :    0.021860
  16 S :    0.098624
  17 C :   -0.070029
  18 C :   -0.039068
  19 C :   -0.069506
  20 C :   -0.215322
  21 H :    0.027903
  22 C :    0.114405
  23 H :    0.030340
  24 H :    0.029682
  25 C :   -0.068720
  26 H :    0.015015
  27 H :    0.025400
  28 C :   -0.042405
  29 H :    0.027459
  30 H :    0.045272
  31 H :    0.034475
  32 H :    0.060643
  33 H :    0.049943
Sum of atomic charges:   -0.0000000

LOEWDIN ATOMIC CHARGES
----------------------
   0 S :    0.390182
   1 C :   -0.199835
   2 C :   -0.062805
   3 C :   -0.052239
   4 C :   -0.195776
   5 H :    0.025573
   6 C :   -0.039547
   7 H :    0.032841
   8 H :    0.039361
   9 C :   -0.035987
  10 H :    0.018881
  11 H :    0.030656
  12 C :   -0.072244
  13 H :    0.020352
  14 H :    0.025252
  15 H :    0.025024
  16 S :    0.382816
  17 C :   -0.169386
  18 C :   -0.072952
  19 C :   -0.044405
  20 C :   -0.198677
  21 H :    0.035273
  22 C :   -0.024875
  23 H :    0.031683
  24 H :    0.030560
  25 C :   -0.042908
  26 H :    0.021559
  27 H :    0.024041
  28 C :   -0.068468
  29 H :    0.027855
  30 H :    0.028302
  31 H :    0.029175
  32 H :    0.037355
  33 H :    0.023362

  Mayer bond orders larger than 0.100000
B(  0-S ,  1-C ) :   1.1238 B(  0-S ,  4-C ) :   1.1174 B(  1-C ,  2-C ) :   1.6561
B(  1-C , 32-H ) :   0.9578 B(  2-C ,  3-C ) :   1.1814 B(  2-C ,  6-C ) :   1.0263
B(  3-C ,  4-C ) :   1.6216 B(  3-C ,  5-H ) :   0.9875 B(  4-C , 20-C ) :   1.0493
B(  6-C ,  7-H ) :   0.9383 B(  6-C ,  8-H ) :   0.9473 B(  6-C ,  9-C ) :   1.0751
B(  9-C , 10-H ) :   0.9556 B(  9-C , 11-H ) :   0.9537 B(  9-C , 12-C ) :   1.0702
B( 12-C , 13-H ) :   0.9761 B( 12-C , 14-H ) :   0.9746 B( 12-C , 15-H ) :   0.9743
B( 16-S , 17-C ) :   1.1389 B( 16-S , 20-C ) :   1.1283 B( 17-C , 18-C ) :   1.6452
B( 17-C , 33-H ) :   0.9660 B( 18-C , 19-C ) :   1.2051 B( 18-C , 21-H ) :   0.9860
B( 19-C , 20-C ) :   1.6262 B( 19-C , 22-C ) :   1.0304 B( 22-C , 23-H ) :   0.9381
B( 22-C , 24-H ) :   0.9316 B( 22-C , 25-C ) :   1.0648 B( 25-C , 26-H ) :   0.9491
B( 25-C , 27-H ) :   0.9572 B( 25-C , 28-C ) :   1.0931 B( 28-C , 29-H ) :   0.9676
B( 28-C , 30-H ) :   0.9724 B( 28-C , 31-H ) :   0.9624

Dispersion correction           -0.015882643
FINAL SINGLE POINT ENERGY     -1339.876855999828

DIPOLE MOMENT
-------------
                                X             Y             Z
Electronic contribution:      8.94795      -8.06515      22.40949
Nuclear contribution   :     -9.24023       8.22302     -22.71047
                        -----------------------------------------
Total Dipole Moment    :     -0.29228       0.15787      -0.30098
                        -----------------------------------------
Magnitude (a.u.)       :      0.44826
Magnitude (Debye)      :      1.13939

Rotational constants in cm-1:     0.019738     0.009067     0.007621
Rotational constants in MHz :   591.742845   271.831298   228.457502

                             ****ORCA TERMINATED NORMALLY****
TOTAL RUN TIME: 0 days 0 hours 0 minutes 21 seconds 331 msec
