                         Program Version 4.2.1 -  RELEASE  -
|  1> ! wB97X-D3 SP def2-SVP
|  2> %pal
|  3> nprocs 24
|  4> end
|  5>
|  6> * xyz 0 1
|  7> S 	 -103.3 	 19.5102 	 -113.201
|  8> C 	 -103.336 	 17.7735 	 -113.372
|  9> C 	 -104.615 	 17.2505 	 -113.281
| 10> C 	 -105.6 	 18.2869 	 -113.213
| 11> C 	 -105.092 	 19.6049 	 -113.426
| 12> H 	 -106.609 	 18.0811 	 -113.077
| 13> C 	 -104.884 	 15.8004 	 -113.185
| 14> H 	 -104.358 	 15.2643 	 -114.037
| 15> H 	 -105.905 	 15.6472 	 -113.482
| 16> C 	 -104.662 	 15.2128 	 -111.771
| 17> H 	 -104.423 	 14.1151 	 -111.841
| 18> H 	 -103.84 	 15.6592 	 -111.298
| 19> C 	 -105.773 	 15.6217 	 -110.78
| 20> H 	 -106.785 	 15.3471 	 -111.101
| 21> H 	 -105.532 	 15.1923 	 -109.78
| 22> H 	 -105.904 	 16.6699 	 -110.719
| 23> S 	 -105.68 	 21.5862 	 -111.628
| 24> C 	 -106.828 	 22.8411 	 -112.041
| 25> C 	 -107.449 	 22.5865 	 -113.21
| 26> C 	 -106.952 	 21.3921 	 -113.878
| 27> C 	 -105.837 	 20.8345 	 -113.212
| 28> H 	 -108.155 	 23.2957 	 -113.667
| 29> C 	 -107.487 	 20.9513 	 -115.227
| 30> H 	 -107.308 	 19.8729 	 -115.401
| 31> H 	 -106.895 	 21.3634 	 -116.155
| 32> C 	 -108.988 	 21.0489 	 -115.311
| 33> H 	 -109.283 	 22.0471 	 -115.073
| 34> H 	 -109.575 	 20.34 	 -114.615
| 35> C 	 -109.522 	 20.747 	 -116.78
| 36> H 	 -109.21 	 19.7855 	 -116.952
| 37> H 	 -109.052 	 21.4473 	 -117.423
| 38> H 	 -110.579 	 20.7117 	 -116.821
| 39> H 	 -102.459 	 17.1839 	 -113.341
| 40> H 	 -107.176 	 23.5745 	 -111.386
| 41> *
| 42>
| 43>                          ****END OF INPUT****

CARTESIAN COORDINATES (ANGSTROEM)
---------------------------------
  S    -103.300000   19.510200  -113.201000
  C    -103.336000   17.773500  -113.372000
  C    -104.615000   17.250500  -113.281000
  C    -105.600000   18.286900  -113.213000
  C    -105.092000   19.604900  -113.426000
  H    -106.609000   18.081100  -113.077000
  C    -104.884000   15.800400  -113.185000
  H    -104.358000   15.264300  -114.037000
  H    -105.905000   15.647200  -113.482000
  C    -104.662000   15.212800  -111.771000
  H    -104.423000   14.115100  -111.841000
  H    -103.840000   15.659200  -111.298000
  C    -105.773000   15.621700  -110.780000
  H    -106.785000   15.347100  -111.101000
  H    -105.532000   15.192300  -109.780000
  H    -105.904000   16.669900  -110.719000
  S    -105.680000   21.586200  -111.628000
  C    -106.828000   22.841100  -112.041000
  C    -107.449000   22.586500  -113.210000
  C    -106.952000   21.392100  -113.878000
  C    -105.837000   20.834500  -113.212000
  H    -108.155000   23.295700  -113.667000
  C    -107.487000   20.951300  -115.227000
  H    -107.308000   19.872900  -115.401000
  H    -106.895000   21.363400  -116.155000
  C    -108.988000   21.048900  -115.311000
  H    -109.283000   22.047100  -115.073000
  H    -109.575000   20.340000  -114.615000
  C    -109.522000   20.747000  -116.780000
  H    -109.210000   19.785500  -116.952000
  H    -109.052000   21.447300  -117.423000
  H    -110.579000   20.711700  -116.821000
  H    -102.459000   17.183900  -113.341000
  H    -107.176000   23.574500  -111.386000

 Total Charge           Charge          ....    0
 Multiplicity           Mult            ....    1
 Number of Electrons    NEL             ....  134
 Basis Dimension        Dim             ....  322

ORBITAL ENERGIES
----------------

  NO   OCC          E(Eh)            E(eV)
   0   2.0000     -88.967852     -2420.9383
   1   2.0000     -88.961938     -2420.7774
   2   2.0000     -10.336867      -281.2804
   3   2.0000     -10.329008      -281.0666
   4   2.0000     -10.313225      -280.6371
   5   2.0000     -10.310355      -280.5590
   6   2.0000     -10.308678      -280.5134
   7   2.0000     -10.299490      -280.2634
   8   2.0000     -10.299085      -280.2524
   9   2.0000     -10.297743      -280.2158
  10   2.0000     -10.294021      -280.1146
  11   2.0000     -10.293935      -280.1122
  12   2.0000     -10.289605      -279.9944
  13   2.0000     -10.289192      -279.9832
  14   2.0000     -10.278706      -279.6978
  15   2.0000     -10.267597      -279.3955
  16   2.0000      -8.081673      -219.9135
  17   2.0000      -8.076860      -219.7825
  18   2.0000      -6.040158      -164.3611
  19   2.0000      -6.036452      -164.2602
  20   2.0000      -6.035404      -164.2317
  21   2.0000      -6.032366      -164.1490
  22   2.0000      -6.031425      -164.1234
  23   2.0000      -6.027459      -164.0155
  24   2.0000      -1.001288       -27.2464
  25   2.0000      -0.980910       -26.6919
  26   2.0000      -0.913287       -24.8518
  27   2.0000      -0.907701       -24.6998
  28   2.0000      -0.870657       -23.6918
  29   2.0000      -0.848078       -23.0774
  30   2.0000      -0.843177       -22.9440
  31   2.0000      -0.815788       -22.1987
  32   2.0000      -0.781966       -21.2784
  33   2.0000      -0.770058       -20.9543
  34   2.0000      -0.708822       -19.2880
  35   2.0000      -0.705449       -19.1963
  36   2.0000      -0.697672       -18.9846
  37   2.0000      -0.652384       -17.7523
  38   2.0000      -0.642699       -17.4887
  39   2.0000      -0.617635       -16.8067
  40   2.0000      -0.602470       -16.3940
  41   2.0000      -0.574095       -15.6219
  42   2.0000      -0.564553       -15.3623
  43   2.0000      -0.550837       -14.9890
  44   2.0000      -0.533956       -14.5297
  45   2.0000      -0.525553       -14.3010
  46   2.0000      -0.521274       -14.1846
  47   2.0000      -0.511887       -13.9292
  48   2.0000      -0.506422       -13.7804
  49   2.0000      -0.496427       -13.5085
  50   2.0000      -0.488823       -13.3016
  51   2.0000      -0.477417       -12.9912
  52   2.0000      -0.470908       -12.8141
  53   2.0000      -0.468901       -12.7594
  54   2.0000      -0.459122       -12.4933
  55   2.0000      -0.453756       -12.3473
  56   2.0000      -0.443807       -12.0766
  57   2.0000      -0.436732       -11.8841
  58   2.0000      -0.432941       -11.7809
  59   2.0000      -0.427933       -11.6446
  60   2.0000      -0.415229       -11.2990
  61   2.0000      -0.412178       -11.2159
  62   2.0000      -0.408526       -11.1166
  63   2.0000      -0.344236        -9.3671
  64   2.0000      -0.326589        -8.8869
  65   2.0000      -0.324695        -8.8354
  66   2.0000      -0.295615        -8.0441
  67   0.0000       0.024231         0.6594
  68   0.0000       0.054101         1.4722
  69   0.0000       0.110126         2.9967
  70   0.0000       0.117545         3.1986
  71   0.0000       0.126587         3.4446

MULLIKEN ATOMIC CHARGES
-----------------------
   0 S :    0.100730
   1 C :   -0.086214
   2 C :   -0.121196
   3 C :    0.074329
   4 C :   -0.171212
   5 H :   -0.007882
   6 C :    0.053595
   7 H :    0.043483
   8 H :    0.007347
   9 C :   -0.033538
  10 H :    0.042057
  11 H :    0.016739
  12 C :   -0.060407
  13 H :    0.017055
  14 H :    0.047127
  15 H :    0.028443
  16 S :    0.095944
  17 C :   -0.059556
  18 C :   -0.040558
  19 C :   -0.035266
  20 C :   -0.132658
  21 H :    0.036353
  22 C :    0.028845
  23 H :    0.019036
  24 H :    0.060580
  25 C :   -0.141418
  26 H :    0.018415
  27 H :    0.046310
  28 C :    0.022687
  29 H :    0.002317
  30 H :    0.027788
  31 H :    0.026398
  32 H :    0.036414
  33 H :    0.037914
Sum of atomic charges:    0.0000000

LOEWDIN ATOMIC CHARGES
----------------------
   0 S :    0.392154
   1 C :   -0.179804
   2 C :   -0.069849
   3 C :   -0.036935
   4 C :   -0.190045
   5 H :    0.018320
   6 C :   -0.040459
   7 H :    0.042695
   8 H :    0.024426
   9 C :   -0.036466
  10 H :    0.030991
  11 H :    0.018353
  12 C :   -0.063560
  13 H :    0.019946
  14 H :    0.033853
  15 H :    0.021724
  16 S :    0.397932
  17 C :   -0.174226
  18 C :   -0.072424
  19 C :   -0.053676
  20 C :   -0.199581
  21 H :    0.036762
  22 C :   -0.050779
  23 H :    0.031166
  24 H :    0.047661
  25 C :   -0.040485
  26 H :    0.008629
  27 H :    0.034035
  28 C :   -0.046154
  29 H :    0.012019
  30 H :    0.021269
  31 H :    0.022164
  32 H :    0.019951
  33 H :    0.020394

  Mayer bond orders larger than 0.100000
B(  0-S ,  1-C ) :   1.1590 B(  0-S ,  4-C ) :   1.1426 B(  1-C ,  2-C ) :   1.5782
B(  1-C ,  4-C ) :   0.1045 B(  1-C , 32-H ) :   0.9711 B(  2-C ,  3-C ) :   1.2767
B(  2-C ,  6-C ) :   1.0342 B(  3-C ,  4-C ) :   1.5229 B(  3-C ,  5-H ) :   0.9984
B(  4-C , 20-C ) :   1.0476 B(  6-C ,  7-H ) :   0.9390 B(  6-C ,  8-H ) :   0.9397
B(  6-C ,  9-C ) :   1.0502 B(  9-C , 10-H ) :   0.9580 B(  9-C , 11-H ) :   0.9602
B(  9-C , 12-C ) :   1.0644 B( 12-C , 13-H ) :   0.9758 B( 12-C , 14-H ) :   0.9742
B( 12-C , 15-H ) :   0.9743 B( 16-S , 17-C ) :   1.1432 B( 16-S , 20-C ) :   1.1390
B( 17-C , 18-C ) :   1.6422 B( 17-C , 33-H ) :   0.9691 B( 18-C , 19-C ) :   1.2230
B( 18-C , 21-H ) :   0.9819 B( 19-C , 20-C ) :   1.6042 B( 19-C , 22-C ) :   1.0466
B( 22-C , 23-H ) :   0.9313 B( 22-C , 24-H ) :   0.9387 B( 22-C , 25-C ) :   1.0469
B( 25-C , 26-H ) :   0.9589 B( 25-C , 27-H ) :   0.9570 B( 25-C , 28-C ) :   1.0769
B( 28-C , 29-H ) :   0.9742 B( 28-C , 30-H ) :   0.9774 B( 28-C , 31-H ) :   0.9741

Dispersion correction           -0.013925608
FINAL SINGLE POINT ENERGY     -1339.851562268738

DIPOLE MOMENT
-------------
                                X             Y             Z
Electronic contribution:     16.79903      15.09416       7.68342
Nuclear contribution   :    -17.25079     -15.52356      -7.75151
                        -----------------------------------------
Total Dipole Moment    :     -0.45176      -0.42940      -0.06809
                        -----------------------------------------
Magnitude (a.u.)       :      0.62698
Magnitude (Debye)      :      1.59366

Rotational constants in cm-1:     0.018027     0.008068     0.006856
Rotational constants in MHz :   540.424054   241.884791   205.524823

                             ****ORCA TERMINATED NORMALLY****
TOTAL RUN TIME: 0 days 0 hours 0 minutes 21 seconds 258 msec
