                         Program Version 4.2.1 -  RELEASE  -
|  1> ! wB97X-D3 SP def2-SVP
|  2> %pal
|  3> nprocs 24
|  4> end
|  5>
|  6> * xyz 0 1
|  7> S 	 -111.179 	 21.5178 	 -113.557
|  8> C 	 -110.784 	 20.6461 	 -112.091
|  9> C 	 -109.532 	 20.1003 	 -112.226
| 10> C 	 -109.053 	 20.0947 	 -113.588
| 11> C 	 -109.866 	 20.8406 	 -114.443
| 12> H 	 -108.137 	 19.6212 	 -114.049
| 13> C 	 -108.793 	 19.3355 	 -111.158
| 14> H 	 -108.359 	 20.0461 	 -110.439
| 15> H 	 -107.964 	 18.8672 	 -111.716
| 16> C 	 -109.673 	 18.3651 	 -110.287
| 17> H 	 -109.272 	 18.377 	 -109.238
| 18> H 	 -110.687 	 18.763 	 -110.192
| 19> C 	 -109.877 	 16.9427 	 -110.897
| 20> H 	 -110.395 	 16.3652 	 -110.131
| 21> H 	 -110.383 	 16.8994 	 -111.921
| 22> H 	 -108.954 	 16.4733 	 -111.086
| 23> S 	 -107.87 	 21.3273 	 -116.246
| 24> C 	 -108.264 	 21.4264 	 -117.927
| 25> C 	 -109.629 	 21.5438 	 -118.105
| 26> C 	 -110.363 	 21.2332 	 -116.941
| 27> C 	 -109.546 	 21.0955 	 -115.824
| 28> H 	 -110 	 21.5381 	 -119.093
| 29> C 	 -111.952 	 21.2344 	 -116.896
| 30> H 	 -112.179 	 22.2246 	 -116.54
| 31> H 	 -112.223 	 20.5531 	 -116.101
| 32> C 	 -112.729 	 21.0111 	 -118.162
| 33> H 	 -112.453 	 20.1705 	 -118.78
| 34> H 	 -112.609 	 21.796 	 -118.952
| 35> C 	 -114.202 	 20.8966 	 -117.904
| 36> H 	 -114.474 	 20.1789 	 -117.147
| 37> H 	 -114.688 	 20.5061 	 -118.802
| 38> H 	 -114.66 	 21.8561 	 -117.665
| 39> H 	 -111.28 	 20.6682 	 -111.111
| 40> H 	 -107.604 	 21.6604 	 -118.683
| 41> *
| 42>
| 43>                          ****END OF INPUT****

CARTESIAN COORDINATES (ANGSTROEM)
---------------------------------
  S    -111.179000   21.517800  -113.557000
  C    -110.784000   20.646100  -112.091000
  C    -109.532000   20.100300  -112.226000
  C    -109.053000   20.094700  -113.588000
  C    -109.866000   20.840600  -114.443000
  H    -108.137000   19.621200  -114.049000
  C    -108.793000   19.335500  -111.158000
  H    -108.359000   20.046100  -110.439000
  H    -107.964000   18.867200  -111.716000
  C    -109.673000   18.365100  -110.287000
  H    -109.272000   18.377000  -109.238000
  H    -110.687000   18.763000  -110.192000
  C    -109.877000   16.942700  -110.897000
  H    -110.395000   16.365200  -110.131000
  H    -110.383000   16.899400  -111.921000
  H    -108.954000   16.473300  -111.086000
  S    -107.870000   21.327300  -116.246000
  C    -108.264000   21.426400  -117.927000
  C    -109.629000   21.543800  -118.105000
  C    -110.363000   21.233200  -116.941000
  C    -109.546000   21.095500  -115.824000
  H    -110.000000   21.538100  -119.093000
  C    -111.952000   21.234400  -116.896000
  H    -112.179000   22.224600  -116.540000
  H    -112.223000   20.553100  -116.101000
  C    -112.729000   21.011100  -118.162000
  H    -112.453000   20.170500  -118.780000
  H    -112.609000   21.796000  -118.952000
  C    -114.202000   20.896600  -117.904000
  H    -114.474000   20.178900  -117.147000
  H    -114.688000   20.506100  -118.802000
  H    -114.660000   21.856100  -117.665000
  H    -111.280000   20.668200  -111.111000
  H    -107.604000   21.660400  -118.683000

 Total Charge           Charge          ....    0
 Multiplicity           Mult            ....    1
 Number of Electrons    NEL             ....  134
 Basis Dimension        Dim             ....  322

ORBITAL ENERGIES
----------------

  NO   OCC          E(Eh)            E(eV)
   0   2.0000     -88.967787     -2420.9366
   1   2.0000     -88.967484     -2420.9283
   2   2.0000     -10.326109      -280.9877
   3   2.0000     -10.323449      -280.9153
   4   2.0000     -10.312171      -280.6084
   5   2.0000     -10.310260      -280.5564
   6   2.0000     -10.304066      -280.3879
   7   2.0000     -10.299126      -280.2535
   8   2.0000     -10.295701      -280.1603
   9   2.0000     -10.295481      -280.1543
  10   2.0000     -10.292876      -280.0834
  11   2.0000     -10.292638      -280.0769
  12   2.0000     -10.287916      -279.9484
  13   2.0000     -10.284847      -279.8649
  14   2.0000     -10.279277      -279.7133
  15   2.0000     -10.273281      -279.5502
  16   2.0000      -8.082431      -219.9341
  17   2.0000      -8.082227      -219.9286
  18   2.0000      -6.040862      -164.3802
  19   2.0000      -6.040840      -164.3796
  20   2.0000      -6.036916      -164.2728
  21   2.0000      -6.036655      -164.2657
  22   2.0000      -6.033277      -164.1738
  23   2.0000      -6.032989      -164.1660
  24   2.0000      -1.010597       -27.4997
  25   2.0000      -0.987408       -26.8687
  26   2.0000      -0.911893       -24.8139
  27   2.0000      -0.906069       -24.6554
  28   2.0000      -0.870407       -23.6850
  29   2.0000      -0.854938       -23.2640
  30   2.0000      -0.842657       -22.9299
  31   2.0000      -0.811729       -22.0883
  32   2.0000      -0.782719       -21.2989
  33   2.0000      -0.773181       -21.0393
  34   2.0000      -0.711431       -19.3590
  35   2.0000      -0.703286       -19.1374
  36   2.0000      -0.698926       -19.0187
  37   2.0000      -0.660530       -17.9739
  38   2.0000      -0.631102       -17.1732
  39   2.0000      -0.604982       -16.4624
  40   2.0000      -0.597170       -16.2498
  41   2.0000      -0.574342       -15.6286
  42   2.0000      -0.567539       -15.4435
  43   2.0000      -0.545318       -14.8389
  44   2.0000      -0.532568       -14.4919
  45   2.0000      -0.527911       -14.3652
  46   2.0000      -0.518895       -14.1198
  47   2.0000      -0.515727       -14.0337
  48   2.0000      -0.510341       -13.8871
  49   2.0000      -0.489645       -13.3239
  50   2.0000      -0.488235       -13.2856
  51   2.0000      -0.483262       -13.1502
  52   2.0000      -0.476092       -12.9551
  53   2.0000      -0.469112       -12.7652
  54   2.0000      -0.463014       -12.5993
  55   2.0000      -0.445749       -12.1295
  56   2.0000      -0.441831       -12.0228
  57   2.0000      -0.434739       -11.8299
  58   2.0000      -0.431427       -11.7397
  59   2.0000      -0.425610       -11.5814
  60   2.0000      -0.418651       -11.3921
  61   2.0000      -0.413526       -11.2526
  62   2.0000      -0.411840       -11.2067
  63   2.0000      -0.352103        -9.5812
  64   2.0000      -0.334355        -9.0983
  65   2.0000      -0.326127        -8.8744
  66   2.0000      -0.286776        -7.8036
  67   0.0000       0.023327         0.6348
  68   0.0000       0.080028         2.1777
  69   0.0000       0.111852         3.0437
  70   0.0000       0.123706         3.3662
  71   0.0000       0.128850         3.5062

MULLIKEN ATOMIC CHARGES
-----------------------
   0 S :    0.114838
   1 C :   -0.130968
   2 C :   -0.097072
   3 C :   -0.033201
   4 C :   -0.141484
   5 H :    0.040932
   6 C :    0.074296
   7 H :    0.038673
   8 H :    0.025181
   9 C :   -0.103710
  10 H :    0.036868
  11 H :    0.027206
  12 C :   -0.049449
  13 H :    0.038566
  14 H :    0.053756
  15 H :    0.016887
  16 S :    0.113139
  17 C :   -0.062288
  18 C :   -0.031199
  19 C :   -0.058207
  20 C :   -0.144131
  21 H :    0.013819
  22 C :    0.090106
  23 H :    0.038131
  24 H :    0.030271
  25 C :   -0.085857
  26 H :    0.020506
  27 H :    0.026495
  28 C :   -0.037681
  29 H :    0.026688
  30 H :    0.024850
  31 H :    0.032573
  32 H :    0.060203
  33 H :    0.031262
Sum of atomic charges:    0.0000000

LOEWDIN ATOMIC CHARGES
----------------------
   0 S :    0.426080
   1 C :   -0.211790
   2 C :   -0.065344
   3 C :   -0.084260
   4 C :   -0.202711
   5 H :    0.036587
   6 C :   -0.035616
   7 H :    0.036665
   8 H :    0.031222
   9 C :   -0.042022
  10 H :    0.029166
  11 H :    0.022169
  12 C :   -0.067600
  13 H :    0.027860
  14 H :    0.039489
  15 H :    0.013854
  16 S :    0.428271
  17 C :   -0.177913
  18 C :   -0.069093
  19 C :   -0.049633
  20 C :   -0.204315
  21 H :    0.025383
  22 C :   -0.028660
  23 H :    0.033882
  24 H :    0.025879
  25 C :   -0.053511
  26 H :    0.021955
  27 H :    0.029127
  28 C :   -0.060199
  29 H :    0.022620
  30 H :    0.028376
  31 H :    0.024298
  32 H :    0.035488
  33 H :    0.014294

  Mayer bond orders larger than 0.100000
B(  0-S ,  1-C ) :   1.1258 B(  0-S ,  4-C ) :   1.1584 B(  1-C ,  2-C ) :   1.6098
B(  1-C , 32-H ) :   0.9621 B(  2-C ,  3-C ) :   1.2365 B(  2-C ,  6-C ) :   1.0255
B(  3-C ,  4-C ) :   1.5523 B(  3-C ,  5-H ) :   0.9782 B(  4-C , 20-C ) :   1.0743
B(  6-C ,  7-H ) :   0.9286 B(  6-C ,  8-H ) :   0.9537 B(  6-C ,  9-C ) :   1.0608
B(  9-C , 10-H ) :   0.9577 B(  9-C , 11-H ) :   0.9591 B(  9-C , 12-C ) :   1.0668
B( 12-C , 13-H ) :   0.9746 B( 12-C , 14-H ) :   0.9757 B( 12-C , 15-H ) :   0.9783
B( 16-S , 17-C ) :   1.1677 B( 16-S , 20-C ) :   1.1441 B( 17-C , 18-C ) :   1.5951
B( 17-C , 33-H ) :   0.9700 B( 18-C , 19-C ) :   1.2772 B( 18-C , 21-H ) :   0.9824
B( 19-C , 20-C ) :   1.5667 B( 19-C , 22-C ) :   1.0151 B( 22-C , 23-H ) :   0.9344
B( 22-C , 24-H ) :   0.9347 B( 22-C , 25-C ) :   1.0700 B( 25-C , 26-H ) :   0.9577
B( 25-C , 27-H ) :   0.9415 B( 25-C , 28-C ) :   1.0978 B( 28-C , 29-H ) :   0.9737
B( 28-C , 30-H ) :   0.9706 B( 28-C , 31-H ) :   0.9750

Dispersion correction           -0.013548271
FINAL SINGLE POINT ENERGY     -1339.873842912369

DIPOLE MOMENT
-------------
                                X             Y             Z
Electronic contribution:     12.73388      12.87561      -3.99926
Nuclear contribution   :    -12.84182     -13.04993       3.97510
                        -----------------------------------------
Total Dipole Moment    :     -0.10794      -0.17432      -0.02417
                        -----------------------------------------
Magnitude (a.u.)       :      0.20645
Magnitude (Debye)      :      0.52475

Rotational constants in cm-1:     0.019964     0.007678     0.006252
Rotational constants in MHz :   598.506652   230.185999   187.427810

                             ****ORCA TERMINATED NORMALLY****
TOTAL RUN TIME: 0 days 0 hours 0 minutes 21 seconds 41 msec
