                         Program Version 4.2.1 -  RELEASE  -
|  1> ! wB97X-D3 SP def2-SVP
|  2> %pal
|  3> nprocs 24
|  4> end
|  5>
|  6> * xyz 0 1
|  7> S 	 -105.989 	 23.339 	 -115.8
|  8> C 	 -105.424 	 23.0166 	 -114.216
|  9> C 	 -106.03 	 21.9114 	 -113.634
| 10> C 	 -106.908 	 21.2335 	 -114.58
| 11> C 	 -106.935 	 21.8419 	 -115.846
| 12> H 	 -107.486 	 20.3581 	 -114.395
| 13> C 	 -106.039 	 21.5054 	 -112.181
| 14> H 	 -106.756 	 20.8162 	 -111.784
| 15> H 	 -106.325 	 22.5057 	 -111.701
| 16> C 	 -104.623 	 21.1904 	 -111.587
| 17> H 	 -103.995 	 22.1398 	 -111.626
| 18> H 	 -104.76 	 21.0031 	 -110.495
| 19> C 	 -103.872 	 19.9996 	 -112.213
| 20> H 	 -104.095 	 19.9186 	 -113.296
| 21> H 	 -102.869 	 19.969 	 -112.017
| 22> H 	 -104.368 	 19.0642 	 -111.742
| 23> S 	 -108.386 	 22.5969 	 -118.163
| 24> C 	 -109.121 	 21.365 	 -119.136
| 25> C 	 -108.77 	 20.1257 	 -118.608
| 26> C 	 -107.919 	 20.1012 	 -117.47
| 27> C 	 -107.716 	 21.4156 	 -116.997
| 28> H 	 -109.037 	 19.2781 	 -119.239
| 29> C 	 -107.392 	 18.8077 	 -116.904
| 30> H 	 -108.284 	 18.3159 	 -116.448
| 31> H 	 -106.724 	 19.1964 	 -116.172
| 32> C 	 -106.673 	 17.8012 	 -117.826
| 33> H 	 -107.412 	 17.4351 	 -118.612
| 34> H 	 -106.365 	 16.9742 	 -117.157
| 35> C 	 -105.478 	 18.2958 	 -118.633
| 36> H 	 -105.81 	 18.9319 	 -119.462
| 37> H 	 -104.875 	 17.436 	 -118.988
| 38> H 	 -104.777 	 18.8409 	 -118.021
| 39> H 	 -104.601 	 23.5789 	 -113.839
| 40> H 	 -109.753 	 21.6408 	 -120.002
| 41> *
| 42>
| 43>                          ****END OF INPUT****

CARTESIAN COORDINATES (ANGSTROEM)
---------------------------------
  S    -105.989000   23.339000  -115.800000
  C    -105.424000   23.016600  -114.216000
  C    -106.030000   21.911400  -113.634000
  C    -106.908000   21.233500  -114.580000
  C    -106.935000   21.841900  -115.846000
  H    -107.486000   20.358100  -114.395000
  C    -106.039000   21.505400  -112.181000
  H    -106.756000   20.816200  -111.784000
  H    -106.325000   22.505700  -111.701000
  C    -104.623000   21.190400  -111.587000
  H    -103.995000   22.139800  -111.626000
  H    -104.760000   21.003100  -110.495000
  C    -103.872000   19.999600  -112.213000
  H    -104.095000   19.918600  -113.296000
  H    -102.869000   19.969000  -112.017000
  H    -104.368000   19.064200  -111.742000
  S    -108.386000   22.596900  -118.163000
  C    -109.121000   21.365000  -119.136000
  C    -108.770000   20.125700  -118.608000
  C    -107.919000   20.101200  -117.470000
  C    -107.716000   21.415600  -116.997000
  H    -109.037000   19.278100  -119.239000
  C    -107.392000   18.807700  -116.904000
  H    -108.284000   18.315900  -116.448000
  H    -106.724000   19.196400  -116.172000
  C    -106.673000   17.801200  -117.826000
  H    -107.412000   17.435100  -118.612000
  H    -106.365000   16.974200  -117.157000
  C    -105.478000   18.295800  -118.633000
  H    -105.810000   18.931900  -119.462000
  H    -104.875000   17.436000  -118.988000
  H    -104.777000   18.840900  -118.021000
  H    -104.601000   23.578900  -113.839000
  H    -109.753000   21.640800  -120.002000

 Total Charge           Charge          ....    0
 Multiplicity           Mult            ....    1
 Number of Electrons    NEL             ....  134
 Basis Dimension        Dim             ....  322

ORBITAL ENERGIES
----------------

  NO   OCC          E(Eh)            E(eV)
   0   2.0000     -88.967259     -2420.9222
   1   2.0000     -88.964424     -2420.8451
   2   2.0000     -10.333794      -281.1968
   3   2.0000     -10.332653      -281.1658
   4   2.0000     -10.321521      -280.8629
   5   2.0000     -10.312740      -280.6239
   6   2.0000     -10.308447      -280.5071
   7   2.0000     -10.305052      -280.4147
   8   2.0000     -10.299280      -280.2577
   9   2.0000     -10.296930      -280.1937
  10   2.0000     -10.296187      -280.1735
  11   2.0000     -10.294795      -280.1356
  12   2.0000     -10.293123      -280.0901
  13   2.0000     -10.292000      -280.0596
  14   2.0000     -10.278495      -279.6921
  15   2.0000     -10.275638      -279.6143
  16   2.0000      -8.082357      -219.9321
  17   2.0000      -8.078970      -219.8399
  18   2.0000      -6.040894      -164.3811
  19   2.0000      -6.037480      -164.2882
  20   2.0000      -6.036750      -164.2683
  21   2.0000      -6.033458      -164.1787
  22   2.0000      -6.033146      -164.1703
  23   2.0000      -6.029796      -164.0791
  24   2.0000      -1.003254       -27.2999
  25   2.0000      -0.982555       -26.7367
  26   2.0000      -0.908741       -24.7281
  27   2.0000      -0.906177       -24.6583
  28   2.0000      -0.868759       -23.6401
  29   2.0000      -0.850482       -23.1428
  30   2.0000      -0.844056       -22.9679
  31   2.0000      -0.810141       -22.0451
  32   2.0000      -0.785733       -21.3809
  33   2.0000      -0.773626       -21.0514
  34   2.0000      -0.703916       -19.1545
  35   2.0000      -0.699748       -19.0411
  36   2.0000      -0.690002       -18.7759
  37   2.0000      -0.657068       -17.8797
  38   2.0000      -0.640280       -17.4229
  39   2.0000      -0.611383       -16.6366
  40   2.0000      -0.593423       -16.1479
  41   2.0000      -0.574609       -15.6359
  42   2.0000      -0.553148       -15.0519
  43   2.0000      -0.551715       -15.0129
  44   2.0000      -0.545433       -14.8420
  45   2.0000      -0.534920       -14.5559
  46   2.0000      -0.520698       -14.1689
  47   2.0000      -0.514384       -13.9971
  48   2.0000      -0.500741       -13.6259
  49   2.0000      -0.495851       -13.4928
  50   2.0000      -0.491810       -13.3828
  51   2.0000      -0.477853       -13.0030
  52   2.0000      -0.471287       -12.8244
  53   2.0000      -0.464100       -12.6288
  54   2.0000      -0.461518       -12.5586
  55   2.0000      -0.445196       -12.1144
  56   2.0000      -0.439307       -11.9541
  57   2.0000      -0.436695       -11.8831
  58   2.0000      -0.433185       -11.7876
  59   2.0000      -0.417730       -11.3670
  60   2.0000      -0.415643       -11.3102
  61   2.0000      -0.413466       -11.2510
  62   2.0000      -0.410994       -11.1837
  63   2.0000      -0.357748        -9.7348
  64   2.0000      -0.330131        -8.9833
  65   2.0000      -0.326840        -8.8938
  66   2.0000      -0.280578        -7.6349
  67   0.0000       0.020791         0.5657
  68   0.0000       0.071023         1.9326
  69   0.0000       0.109341         2.9753
  70   0.0000       0.114834         3.1248
  71   0.0000       0.130548         3.5524

MULLIKEN ATOMIC CHARGES
-----------------------
   0 S :    0.113479
   1 C :   -0.122061
   2 C :   -0.058952
   3 C :    0.015517
   4 C :   -0.156357
   5 H :    0.009220
   6 C :    0.035242
   7 H :    0.030435
   8 H :    0.052191
   9 C :   -0.129962
  10 H :    0.033237
  11 H :    0.036354
  12 C :   -0.032558
  13 H :    0.045185
  14 H :    0.028045
  15 H :    0.027803
  16 S :    0.094299
  17 C :   -0.120679
  18 C :   -0.036183
  19 C :   -0.072229
  20 C :   -0.138639
  21 H :    0.021708
  22 C :    0.086815
  23 H :    0.051713
  24 H :    0.014776
  25 C :   -0.099331
  26 H :    0.037655
  27 H :    0.040822
  28 C :   -0.047014
  29 H :    0.047086
  30 H :    0.037225
  31 H :    0.026066
  32 H :    0.049258
  33 H :    0.079834
Sum of atomic charges:   -0.0000000

LOEWDIN ATOMIC CHARGES
----------------------
   0 S :    0.414485
   1 C :   -0.205851
   2 C :   -0.061009
   3 C :   -0.061199
   4 C :   -0.185807
   5 H :    0.026568
   6 C :   -0.037289
   7 H :    0.027432
   8 H :    0.050390
   9 C :   -0.050396
  10 H :    0.023008
  11 H :    0.025663
  12 C :   -0.066629
  13 H :    0.029847
  14 H :    0.012262
  15 H :    0.033961
  16 S :    0.391641
  17 C :   -0.194411
  18 C :   -0.079987
  19 C :   -0.057882
  20 C :   -0.189603
  21 H :    0.029971
  22 C :   -0.036351
  23 H :    0.043310
  24 H :    0.025398
  25 C :   -0.044861
  26 H :    0.028665
  27 H :    0.030556
  28 C :   -0.068743
  29 H :    0.030088
  30 H :    0.032153
  31 H :    0.021960
  32 H :    0.023082
  33 H :    0.039580

  Mayer bond orders larger than 0.100000
B(  0-S ,  1-C ) :   1.1528 B(  0-S ,  4-C ) :   1.1496 B(  1-C ,  2-C ) :   1.5872
B(  1-C , 32-H ) :   0.9715 B(  2-C ,  3-C ) :   1.2389 B(  2-C ,  6-C ) :   1.0057
B(  3-C ,  4-C ) :   1.5355 B(  3-C ,  5-H ) :   0.9990 B(  4-C , 20-C ) :   1.0895
B(  6-C ,  7-H ) :   0.9598 B(  6-C ,  8-H ) :   0.9393 B(  6-C ,  9-C ) :   1.0694
B(  9-C , 10-H ) :   0.9598 B(  9-C , 11-H ) :   0.9597 B(  9-C , 12-C ) :   1.0623
B( 12-C , 13-H ) :   0.9769 B( 12-C , 14-H ) :   0.9773 B( 12-C , 15-H ) :   0.9742
B( 16-S , 17-C ) :   1.1587 B( 16-S , 20-C ) :   1.1409 B( 17-C , 18-C ) :   1.5837
B( 17-C , 20-C ) :   0.1035 B( 17-C , 33-H ) :   0.9672 B( 18-C , 19-C ) :   1.2530
B( 18-C , 21-H ) :   0.9885 B( 19-C , 20-C ) :   1.5470 B( 19-C , 22-C ) :   1.0292
B( 22-C , 23-H ) :   0.9320 B( 22-C , 24-H ) :   0.9198 B( 22-C , 25-C ) :   1.0787
B( 25-C , 26-H ) :   0.9533 B( 25-C , 27-H ) :   0.9539 B( 25-C , 28-C ) :   1.0800
B( 28-C , 29-H ) :   0.9725 B( 28-C , 30-H ) :   0.9720 B( 28-C , 31-H ) :   0.9753

Dispersion correction           -0.014335007
FINAL SINGLE POINT ENERGY     -1339.874381330276

DIPOLE MOMENT
-------------
                                X             Y             Z
Electronic contribution:    -12.01982      21.63291     -11.97392
Nuclear contribution   :     12.11577     -22.17261      12.24020
                        -----------------------------------------
Total Dipole Moment    :      0.09595      -0.53969       0.26628
                        -----------------------------------------
Magnitude (a.u.)       :      0.60941
Magnitude (Debye)      :      1.54900

Rotational constants in cm-1:     0.019570     0.008610     0.006701
Rotational constants in MHz :   586.693075   258.125423   200.897014

                             ****ORCA TERMINATED NORMALLY****
TOTAL RUN TIME: 0 days 0 hours 0 minutes 22 seconds 5 msec
