                         Program Version 4.2.1 -  RELEASE  -
|  1> ! wB97X-D3 SP def2-SVP
|  2> %pal
|  3> nprocs 24
|  4> end
|  5>
|  6> * xyz 0 1
|  7> S 	 -42.6146 	 -2.64928 	 -7.84396
|  8> C 	 -42.6743 	 -2.23376 	 -6.20128
|  9> C 	 -43.788 	 -1.41163 	 -5.92803
| 10> C 	 -44.64 	 -1.32555 	 -7.02328
| 11> C 	 -44.1523 	 -1.90963 	 -8.17995
| 12> H 	 -45.5495 	 -0.756401 	 -7.12554
| 13> C 	 -43.9588 	 -0.667275 	 -4.66188
| 14> H 	 -44.1396 	 -1.318 	 -3.78363
| 15> H 	 -44.7678 	 -0.082602 	 -4.84284
| 16> C 	 -42.7962 	 0.275387 	 -4.38824
| 17> H 	 -41.9946 	 -0.361138 	 -4.07889
| 18> H 	 -42.3473 	 0.813907 	 -5.25048
| 19> C 	 -43.0644 	 1.34207 	 -3.29976
| 20> H 	 -43.4067 	 0.871986 	 -2.3512
| 21> H 	 -42.3002 	 2.10267 	 -3.26696
| 22> H 	 -43.8457 	 1.95582 	 -3.72401
| 23> S 	 -43.926 	 -0.704172 	 -10.6384
| 24> C 	 -45.1509 	 -0.929384 	 -11.8349
| 25> C 	 -46.186 	 -1.65485 	 -11.3694
| 26> C 	 -45.9798 	 -2.13639 	 -10.0191
| 27> C 	 -44.7348 	 -1.7648 	 -9.48622
| 28> H 	 -47.0564 	 -1.65175 	 -12.0033
| 29> C 	 -46.9704 	 -3.05831 	 -9.34409
| 30> H 	 -46.3542 	 -3.64864 	 -8.60502
| 31> H 	 -47.2982 	 -3.78139 	 -10.1658
| 32> C 	 -48.1086 	 -2.40614 	 -8.45441
| 33> H 	 -48.752 	 -1.84344 	 -9.13488
| 34> H 	 -47.6707 	 -1.76356 	 -7.67233
| 35> C 	 -49.089 	 -3.33113 	 -7.72721
| 36> H 	 -48.6579 	 -4.30567 	 -7.61622
| 37> H 	 -49.9885 	 -3.35041 	 -8.2275
| 38> H 	 -49.2611 	 -2.90471 	 -6.69217
| 39> H 	 -41.8729 	 -2.45287 	 -5.44824
| 40> H 	 -45.2397 	 -0.377125 	 -12.7142
| 41> *
| 42>
| 43>                          ****END OF INPUT****

CARTESIAN COORDINATES (ANGSTROEM)
---------------------------------
  S    -42.614600   -2.649280   -7.843960
  C    -42.674300   -2.233760   -6.201280
  C    -43.788000   -1.411630   -5.928030
  C    -44.640000   -1.325550   -7.023280
  C    -44.152300   -1.909630   -8.179950
  H    -45.549500   -0.756401   -7.125540
  C    -43.958800   -0.667275   -4.661880
  H    -44.139600   -1.318000   -3.783630
  H    -44.767800   -0.082602   -4.842840
  C    -42.796200    0.275387   -4.388240
  H    -41.994600   -0.361138   -4.078890
  H    -42.347300    0.813907   -5.250480
  C    -43.064400    1.342070   -3.299760
  H    -43.406700    0.871986   -2.351200
  H    -42.300200    2.102670   -3.266960
  H    -43.845700    1.955820   -3.724010
  S    -43.926000   -0.704172  -10.638400
  C    -45.150900   -0.929384  -11.834900
  C    -46.186000   -1.654850  -11.369400
  C    -45.979800   -2.136390  -10.019100
  C    -44.734800   -1.764800   -9.486220
  H    -47.056400   -1.651750  -12.003300
  C    -46.970400   -3.058310   -9.344090
  H    -46.354200   -3.648640   -8.605020
  H    -47.298200   -3.781390  -10.165800
  C    -48.108600   -2.406140   -8.454410
  H    -48.752000   -1.843440   -9.134880
  H    -47.670700   -1.763560   -7.672330
  C    -49.089000   -3.331130   -7.727210
  H    -48.657900   -4.305670   -7.616220
  H    -49.988500   -3.350410   -8.227500
  H    -49.261100   -2.904710   -6.692170
  H    -41.872900   -2.452870   -5.448240
  H    -45.239700   -0.377125  -12.714200

 Total Charge           Charge          ....    0
 Multiplicity           Mult            ....    1
 Number of Electrons    NEL             ....  134
 Basis Dimension        Dim             ....  322

ORBITAL ENERGIES
----------------

  NO   OCC          E(Eh)            E(eV)
   0   2.0000     -88.970004     -2420.9969
   1   2.0000     -88.959922     -2420.7226
   2   2.0000     -10.326082      -280.9870
   3   2.0000     -10.324494      -280.9438
   4   2.0000     -10.315399      -280.6963
   5   2.0000     -10.306356      -280.4502
   6   2.0000     -10.306283      -280.4482
   7   2.0000     -10.299175      -280.2548
   8   2.0000     -10.296889      -280.1926
   9   2.0000     -10.290934      -280.0305
  10   2.0000     -10.288723      -279.9704
  11   2.0000     -10.288394      -279.9614
  12   2.0000     -10.283767      -279.8355
  13   2.0000     -10.283238      -279.8211
  14   2.0000     -10.279280      -279.7134
  15   2.0000     -10.271781      -279.5094
  16   2.0000      -8.085404      -220.0150
  17   2.0000      -8.075247      -219.7386
  18   2.0000      -6.043615      -164.4551
  19   2.0000      -6.039631      -164.3467
  20   2.0000      -6.036625      -164.2649
  21   2.0000      -6.033771      -164.1873
  22   2.0000      -6.029610      -164.0740
  23   2.0000      -6.026014      -163.9762
  24   2.0000      -1.012164       -27.5424
  25   2.0000      -0.988776       -26.9060
  26   2.0000      -0.919393       -25.0180
  27   2.0000      -0.899366       -24.4730
  28   2.0000      -0.873854       -23.7788
  29   2.0000      -0.856691       -23.3118
  30   2.0000      -0.849921       -23.1275
  31   2.0000      -0.818732       -22.2788
  32   2.0000      -0.783274       -21.3140
  33   2.0000      -0.766521       -20.8581
  34   2.0000      -0.710055       -19.3216
  35   2.0000      -0.700765       -19.0688
  36   2.0000      -0.688769       -18.7424
  37   2.0000      -0.658739       -17.9252
  38   2.0000      -0.644742       -17.5443
  39   2.0000      -0.619211       -16.8496
  40   2.0000      -0.589708       -16.0468
  41   2.0000      -0.574935       -15.6448
  42   2.0000      -0.569204       -15.4888
  43   2.0000      -0.564136       -15.3509
  44   2.0000      -0.531624       -14.4662
  45   2.0000      -0.525866       -14.3096
  46   2.0000      -0.519052       -14.1241
  47   2.0000      -0.514467       -13.9994
  48   2.0000      -0.505587       -13.7577
  49   2.0000      -0.502907       -13.6848
  50   2.0000      -0.496140       -13.5007
  51   2.0000      -0.475746       -12.9457
  52   2.0000      -0.470720       -12.8089
  53   2.0000      -0.466404       -12.6915
  54   2.0000      -0.458620       -12.4797
  55   2.0000      -0.453387       -12.3373
  56   2.0000      -0.444569       -12.0973
  57   2.0000      -0.438362       -11.9284
  58   2.0000      -0.426501       -11.6057
  59   2.0000      -0.423924       -11.5355
  60   2.0000      -0.416702       -11.3390
  61   2.0000      -0.412588       -11.2271
  62   2.0000      -0.410626       -11.1737
  63   2.0000      -0.346089        -9.4176
  64   2.0000      -0.330487        -8.9930
  65   2.0000      -0.324274        -8.8239
  66   2.0000      -0.296502        -8.0682
  67   0.0000       0.035077         0.9545
  68   0.0000       0.062566         1.7025
  69   0.0000       0.124679         3.3927
  70   0.0000       0.126145         3.4326
  71   0.0000       0.131184         3.5697

MULLIKEN ATOMIC CHARGES
-----------------------
   0 S :    0.143904
   1 C :   -0.137113
   2 C :   -0.119574
   3 C :    0.046702
   4 C :   -0.194015
   5 H :    0.014734
   6 C :    0.160317
   7 H :    0.044039
   8 H :   -0.023895
   9 C :   -0.118865
  10 H :    0.013719
  11 H :    0.036246
  12 C :   -0.028161
  13 H :    0.043730
  14 H :    0.029629
  15 H :    0.016084
  16 S :    0.098363
  17 C :   -0.061208
  18 C :   -0.041587
  19 C :   -0.018490
  20 C :   -0.158173
  21 H :    0.016970
  22 C :    0.010828
  23 H :    0.035101
  24 H :    0.047353
  25 C :   -0.085305
  26 H :    0.023536
  27 H :    0.031504
  28 C :   -0.016529
  29 H :    0.026735
  30 H :    0.022160
  31 H :    0.035382
  32 H :    0.071054
  33 H :    0.034823
Sum of atomic charges:    0.0000000

LOEWDIN ATOMIC CHARGES
----------------------
   0 S :    0.451707
   1 C :   -0.221300
   2 C :   -0.066398
   3 C :   -0.055392
   4 C :   -0.215984
   5 H :    0.031189
   6 C :   -0.025158
   7 H :    0.039800
   8 H :    0.013444
   9 C :   -0.041829
  10 H :    0.012945
  11 H :    0.030640
  12 C :   -0.067768
  13 H :    0.029807
  14 H :    0.027338
  15 H :    0.023473
  16 S :    0.403495
  17 C :   -0.180443
  18 C :   -0.075758
  19 C :   -0.054843
  20 C :   -0.198651
  21 H :    0.032844
  22 C :   -0.044852
  23 H :    0.034673
  24 H :    0.039902
  25 C :   -0.042502
  26 H :    0.021285
  27 H :    0.025201
  28 C :   -0.058900
  29 H :    0.022496
  30 H :    0.014103
  31 H :    0.036412
  32 H :    0.039239
  33 H :    0.019788

  Mayer bond orders larger than 0.100000
B(  0-S ,  1-C ) :   1.1862 B(  0-S ,  4-C ) :   1.1746 B(  1-C ,  2-C ) :   1.5230
B(  1-C ,  4-C ) :   0.1085 B(  1-C , 32-H ) :   0.9649 B(  2-C ,  3-C ) :   1.3148
B(  2-C ,  6-C ) :   1.0311 B(  3-C ,  4-C ) :   1.5245 B(  3-C ,  5-H ) :   0.9893
B(  4-C , 20-C ) :   1.0410 B(  6-C ,  7-H ) :   0.9251 B(  6-C ,  8-H ) :   0.9305
B(  6-C ,  9-C ) :   1.0547 B(  9-C , 10-H ) :   0.9522 B(  9-C , 11-H ) :   0.9593
B(  9-C , 12-C ) :   1.0896 B( 12-C , 13-H ) :   0.9729 B( 12-C , 14-H ) :   0.9718
B( 12-C , 15-H ) :   0.9726 B( 16-S , 17-C ) :   1.1526 B( 16-S , 20-C ) :   1.1396
B( 17-C , 18-C ) :   1.6437 B( 17-C , 33-H ) :   0.9672 B( 18-C , 19-C ) :   1.2148
B( 18-C , 21-H ) :   0.9925 B( 19-C , 20-C ) :   1.6015 B( 19-C , 22-C ) :   1.0423
B( 22-C , 23-H ) :   0.9297 B( 22-C , 24-H ) :   0.9458 B( 22-C , 25-C ) :   1.0569
B( 25-C , 26-H ) :   0.9641 B( 25-C , 27-H ) :   0.9603 B( 25-C , 28-C ) :   1.0739
B( 28-C , 29-H ) :   0.9748 B( 28-C , 30-H ) :   0.9809 B( 28-C , 31-H ) :   0.9790

Dispersion correction           -0.013943469
FINAL SINGLE POINT ENERGY     -1339.862911752321

DIPOLE MOMENT
-------------
                                X             Y             Z
Electronic contribution:     15.21653      -4.27471     -20.32749
Nuclear contribution   :    -15.65178       4.55182      20.66259
                        -----------------------------------------
Total Dipole Moment    :     -0.43524       0.27711       0.33510
                        -----------------------------------------
Magnitude (a.u.)       :      0.61524
Magnitude (Debye)      :      1.56381

Rotational constants in cm-1:     0.017605     0.008198     0.006703
Rotational constants in MHz :   527.775382   245.766988   200.953372

                             ****ORCA TERMINATED NORMALLY****
TOTAL RUN TIME: 0 days 0 hours 0 minutes 21 seconds 179 msec
