                         Program Version 4.2.1 -  RELEASE  -
|  1> ! wB97X-D3 SP def2-SVP
|  2> %pal
|  3> nprocs 24
|  4> end
|  5>
|  6> * xyz 0 1
|  7> S 	 -69.1278 	 -54.2263 	 -81.7687
|  8> C 	 -68.9434 	 -55.3573 	 -83.0798
|  9> C 	 -69.4887 	 -56.606 	 -82.715
| 10> C 	 -70.1105 	 -56.6349 	 -81.4059
| 11> C 	 -69.9624 	 -55.4281 	 -80.7496
| 12> H 	 -70.6897 	 -57.4697 	 -80.9331
| 13> C 	 -69.5422 	 -57.7668 	 -83.601
| 14> H 	 -69.6672 	 -57.3977 	 -84.6372
| 15> H 	 -70.2813 	 -58.4078 	 -83.1955
| 16> C 	 -68.2039 	 -58.4893 	 -83.7359
| 17> H 	 -67.4961 	 -57.7492 	 -84.1527
| 18> H 	 -67.7043 	 -58.7402 	 -82.8056
| 19> C 	 -68.2165 	 -59.7102 	 -84.6596
| 20> H 	 -68.0595 	 -59.4069 	 -85.7663
| 21> H 	 -67.3757 	 -60.2795 	 -84.4425
| 22> H 	 -69.1614 	 -60.3319 	 -84.6029
| 23> S 	 -71.1271 	 -53.4174 	 -79.2256
| 24> C 	 -71.5116 	 -53.8551 	 -77.5596
| 25> C 	 -71.2092 	 -55.1768 	 -77.2394
| 26> C 	 -70.6803 	 -55.8921 	 -78.3523
| 27> C 	 -70.5169 	 -55.036 	 -79.4432
| 28> H 	 -71.4233 	 -55.6007 	 -76.2516
| 29> C 	 -70.3418 	 -57.4039 	 -78.1234
| 30> H 	 -70.9638 	 -57.9309 	 -78.829
| 31> H 	 -70.818 	 -57.6944 	 -77.21
| 32> C 	 -68.8366 	 -57.7577 	 -78.0557
| 33> H 	 -68.3716 	 -57.67 	 -79.0346
| 34> H 	 -68.7492 	 -58.8208 	 -77.8558
| 35> C 	 -68.2335 	 -57.0485 	 -76.8594
| 36> H 	 -68.1504 	 -55.9584 	 -77.0144
| 37> H 	 -67.2113 	 -57.4293 	 -76.8016
| 38> H 	 -68.7338 	 -57.0638 	 -75.953
| 39> H 	 -68.5048 	 -55.1672 	 -84.0487
| 40> H 	 -71.9455 	 -53.1319 	 -76.8624
| 41> *
| 42>
| 43>                          ****END OF INPUT****

CARTESIAN COORDINATES (ANGSTROEM)
---------------------------------
  S    -69.127800  -54.226300  -81.768700
  C    -68.943400  -55.357300  -83.079800
  C    -69.488700  -56.606000  -82.715000
  C    -70.110500  -56.634900  -81.405900
  C    -69.962400  -55.428100  -80.749600
  H    -70.689700  -57.469700  -80.933100
  C    -69.542200  -57.766800  -83.601000
  H    -69.667200  -57.397700  -84.637200
  H    -70.281300  -58.407800  -83.195500
  C    -68.203900  -58.489300  -83.735900
  H    -67.496100  -57.749200  -84.152700
  H    -67.704300  -58.740200  -82.805600
  C    -68.216500  -59.710200  -84.659600
  H    -68.059500  -59.406900  -85.766300
  H    -67.375700  -60.279500  -84.442500
  H    -69.161400  -60.331900  -84.602900
  S    -71.127100  -53.417400  -79.225600
  C    -71.511600  -53.855100  -77.559600
  C    -71.209200  -55.176800  -77.239400
  C    -70.680300  -55.892100  -78.352300
  C    -70.516900  -55.036000  -79.443200
  H    -71.423300  -55.600700  -76.251600
  C    -70.341800  -57.403900  -78.123400
  H    -70.963800  -57.930900  -78.829000
  H    -70.818000  -57.694400  -77.210000
  C    -68.836600  -57.757700  -78.055700
  H    -68.371600  -57.670000  -79.034600
  H    -68.749200  -58.820800  -77.855800
  C    -68.233500  -57.048500  -76.859400
  H    -68.150400  -55.958400  -77.014400
  H    -67.211300  -57.429300  -76.801600
  H    -68.733800  -57.063800  -75.953000
  H    -68.504800  -55.167200  -84.048700
  H    -71.945500  -53.131900  -76.862400

 Total Charge           Charge          ....    0
 Multiplicity           Mult            ....    1
 Number of Electrons    NEL             ....  134
 Basis Dimension        Dim             ....  322

ORBITAL ENERGIES
----------------

  NO   OCC          E(Eh)            E(eV)
   0   2.0000     -88.972443     -2421.0633
   1   2.0000     -88.965510     -2420.8746
   2   2.0000     -10.331143      -281.1247
   3   2.0000     -10.328493      -281.0526
   4   2.0000     -10.319713      -280.8137
   5   2.0000     -10.312962      -280.6300
   6   2.0000     -10.304881      -280.4101
   7   2.0000     -10.299769      -280.2710
   8   2.0000     -10.297765      -280.2164
   9   2.0000     -10.296372      -280.1785
  10   2.0000     -10.294675      -280.1323
  11   2.0000     -10.286776      -279.9174
  12   2.0000     -10.284139      -279.8457
  13   2.0000     -10.283961      -279.8408
  14   2.0000     -10.282685      -279.8061
  15   2.0000     -10.269991      -279.4607
  16   2.0000      -8.086789      -220.0527
  17   2.0000      -8.079639      -219.8582
  18   2.0000      -6.045171      -164.4975
  19   2.0000      -6.041526      -164.3983
  20   2.0000      -6.038246      -164.3090
  21   2.0000      -6.037534      -164.2897
  22   2.0000      -6.034160      -164.1979
  23   2.0000      -6.030432      -164.0964
  24   2.0000      -1.002754       -27.2863
  25   2.0000      -0.979558       -26.6551
  26   2.0000      -0.915469       -24.9112
  27   2.0000      -0.909394       -24.7459
  28   2.0000      -0.863820       -23.5057
  29   2.0000      -0.853951       -23.2372
  30   2.0000      -0.846307       -23.0292
  31   2.0000      -0.810974       -22.0677
  32   2.0000      -0.785384       -21.3714
  33   2.0000      -0.766588       -20.8599
  34   2.0000      -0.712547       -19.3894
  35   2.0000      -0.699250       -19.0276
  36   2.0000      -0.688488       -18.7347
  37   2.0000      -0.663527       -18.0555
  38   2.0000      -0.636560       -17.3217
  39   2.0000      -0.616435       -16.7741
  40   2.0000      -0.591173       -16.0866
  41   2.0000      -0.569266       -15.4905
  42   2.0000      -0.559375       -15.2214
  43   2.0000      -0.554213       -15.0809
  44   2.0000      -0.546404       -14.8684
  45   2.0000      -0.522593       -14.2205
  46   2.0000      -0.518772       -14.1165
  47   2.0000      -0.506048       -13.7703
  48   2.0000      -0.503780       -13.7086
  49   2.0000      -0.492878       -13.4119
  50   2.0000      -0.490904       -13.3582
  51   2.0000      -0.484372       -13.1804
  52   2.0000      -0.472646       -12.8613
  53   2.0000      -0.464144       -12.6300
  54   2.0000      -0.461161       -12.5488
  55   2.0000      -0.451313       -12.2809
  56   2.0000      -0.440746       -11.9933
  57   2.0000      -0.437167       -11.8959
  58   2.0000      -0.431083       -11.7304
  59   2.0000      -0.429691       -11.6925
  60   2.0000      -0.417753       -11.3676
  61   2.0000      -0.411253       -11.1908
  62   2.0000      -0.411093       -11.1864
  63   2.0000      -0.353073        -9.6076
  64   2.0000      -0.338070        -9.1993
  65   2.0000      -0.324338        -8.8257
  66   2.0000      -0.280993        -7.6462
  67   0.0000       0.023184         0.6309
  68   0.0000       0.075506         2.0546
  69   0.0000       0.100746         2.7414
  70   0.0000       0.123166         3.3515
  71   0.0000       0.127997         3.4830

MULLIKEN ATOMIC CHARGES
-----------------------
   0 S :    0.098093
   1 C :   -0.114354
   2 C :   -0.107619
   3 C :   -0.003582
   4 C :   -0.135957
   5 H :    0.032206
   6 C :    0.112208
   7 H :    0.028124
   8 H :    0.010582
   9 C :   -0.107778
  10 H :    0.019514
  11 H :    0.022244
  12 C :   -0.044012
  13 H :    0.037592
  14 H :    0.022487
  15 H :    0.043416
  16 S :    0.126572
  17 C :   -0.109198
  18 C :   -0.029601
  19 C :   -0.071584
  20 C :   -0.146295
  21 H :    0.024498
  22 C :    0.077621
  23 H :    0.019471
  24 H :    0.000400
  25 C :   -0.028681
  26 H :    0.042192
  27 H :    0.023080
  28 C :   -0.038601
  29 H :    0.041250
  30 H :    0.034477
  31 H :    0.014345
  32 H :    0.046440
  33 H :    0.060448
Sum of atomic charges:    0.0000000

LOEWDIN ATOMIC CHARGES
----------------------
   0 S :    0.390773
   1 C :   -0.210764
   2 C :   -0.056580
   3 C :   -0.076348
   4 C :   -0.173874
   5 H :    0.041659
   6 C :   -0.032999
   7 H :    0.039964
   8 H :    0.024301
   9 C :   -0.045222
  10 H :    0.024771
  11 H :    0.018852
  12 C :   -0.071343
  13 H :    0.033530
  14 H :    0.017302
  15 H :    0.031084
  16 S :    0.409017
  17 C :   -0.185451
  18 C :   -0.070155
  19 C :   -0.053782
  20 C :   -0.203590
  21 H :    0.034186
  22 C :   -0.025427
  23 H :    0.022801
  24 H :    0.025182
  25 C :   -0.034528
  26 H :    0.028895
  27 H :    0.024513
  28 C :   -0.061915
  29 H :    0.032441
  30 H :    0.030155
  31 H :    0.015448
  32 H :    0.028417
  33 H :    0.028691

  Mayer bond orders larger than 0.100000
B(  0-S ,  1-C ) :   1.1248 B(  0-S ,  4-C ) :   1.1512 B(  1-C ,  2-C ) :   1.5923
B(  1-C , 32-H ) :   0.9699 B(  2-C ,  3-C ) :   1.2381 B(  2-C ,  6-C ) :   1.0525
B(  3-C ,  4-C ) :   1.5770 B(  3-C ,  5-H ) :   0.9770 B(  4-C , 20-C ) :   1.0538
B(  6-C ,  7-H ) :   0.9343 B(  6-C ,  8-H ) :   0.9334 B(  6-C ,  9-C ) :   1.0582
B(  9-C , 10-H ) :   0.9542 B(  9-C , 11-H ) :   0.9595 B(  9-C , 12-C ) :   1.0786
B( 12-C , 13-H ) :   0.9744 B( 12-C , 14-H ) :   0.9732 B( 12-C , 15-H ) :   0.9750
B( 16-S , 17-C ) :   1.1469 B( 16-S , 20-C ) :   1.1489 B( 17-C , 18-C ) :   1.6048
B( 17-C , 33-H ) :   0.9663 B( 18-C , 19-C ) :   1.2530 B( 18-C , 21-H ) :   0.9848
B( 19-C , 20-C ) :   1.5952 B( 19-C , 22-C ) :   1.0121 B( 22-C , 23-H ) :   0.9330
B( 22-C , 24-H ) :   0.9331 B( 22-C , 25-C ) :   1.0716 B( 25-C , 26-H ) :   0.9553
B( 25-C , 27-H ) :   0.9542 B( 25-C , 28-C ) :   1.0654 B( 28-C , 29-H ) :   0.9719
B( 28-C , 30-H ) :   0.9728 B( 28-C , 31-H ) :   0.9763

Dispersion correction           -0.014582293
FINAL SINGLE POINT ENERGY     -1339.872526133790

DIPOLE MOMENT
-------------
                                X             Y             Z
Electronic contribution:     -9.94648      26.86934       2.54191
Nuclear contribution   :      9.95372     -27.51325      -2.37474
                        -----------------------------------------
Total Dipole Moment    :      0.00723      -0.64391       0.16717
                        -----------------------------------------
Magnitude (a.u.)       :      0.66530
Magnitude (Debye)      :      1.69105

Rotational constants in cm-1:     0.020720     0.008409     0.006611
Rotational constants in MHz :   621.172585   252.106770   198.197737

                             ****ORCA TERMINATED NORMALLY****
TOTAL RUN TIME: 0 days 0 hours 0 minutes 20 seconds 812 msec
