                         Program Version 4.2.1 -  RELEASE  -
|  1> ! wB97X-D3 SP def2-SVP
|  2> %pal
|  3> nprocs 24
|  4> end
|  5>
|  6> * xyz 0 1
|  7> S 	 -59.1018 	 18.0048 	 20.2327
|  8> C 	 -59.8554 	 17.4564 	 21.7528
|  9> C 	 -59.0924 	 17.613 	 22.8709
| 10> C 	 -57.7435 	 18.0232 	 22.4504
| 11> C 	 -57.6054 	 18.3796 	 21.1201
| 12> H 	 -56.9743 	 18.0882 	 23.2137
| 13> C 	 -59.3773 	 17.1658 	 24.3487
| 14> H 	 -58.4386 	 16.7014 	 24.6883
| 15> H 	 -60.1516 	 16.3429 	 24.3391
| 16> C 	 -59.8719 	 18.4468 	 25.1264
| 17> H 	 -59.2784 	 19.3568 	 24.8426
| 18> H 	 -60.8237 	 18.5793 	 24.7055
| 19> C 	 -60.0849 	 18.2507 	 26.5464
| 20> H 	 -60.6286 	 17.3263 	 26.8744
| 21> H 	 -59.1345 	 18.2341 	 27.0751
| 22> H 	 -60.6827 	 19.0798 	 26.9534
| 23> S 	 -56.3808 	 19.0315 	 18.7332
| 24> C 	 -54.7324 	 19.6256 	 18.7958
| 25> C 	 -54.2765 	 19.6812 	 20.0707
| 26> C 	 -55.2006 	 19.2701 	 21.0425
| 27> C 	 -56.4063 	 18.8301 	 20.4583
| 28> H 	 -53.2672 	 19.9915 	 20.2291
| 29> C 	 -54.7839 	 19.2827 	 22.487
| 30> H 	 -55.5897 	 19.5452 	 23.0562
| 31> H 	 -54.2667 	 20.2503 	 22.6798
| 32> C 	 -53.9673 	 18.0542 	 23.0233
| 33> H 	 -54.6356 	 17.2303 	 23.0535
| 34> H 	 -53.7857 	 18.1303 	 24.1294
| 35> C 	 -52.7142 	 17.7041 	 22.2205
| 36> H 	 -52.9729 	 17.2604 	 21.2814
| 37> H 	 -52.2888 	 16.8007 	 22.7769
| 38> H 	 -51.9906 	 18.5212 	 22.1009
| 39> H 	 -60.8904 	 17.1101 	 21.8072
| 40> H 	 -54.1359 	 19.8913 	 17.9481
| 41> *
| 42>
| 43>                          ****END OF INPUT****

CARTESIAN COORDINATES (ANGSTROEM)
---------------------------------
  S    -59.101800   18.004800   20.232700
  C    -59.855400   17.456400   21.752800
  C    -59.092400   17.613000   22.870900
  C    -57.743500   18.023200   22.450400
  C    -57.605400   18.379600   21.120100
  H    -56.974300   18.088200   23.213700
  C    -59.377300   17.165800   24.348700
  H    -58.438600   16.701400   24.688300
  H    -60.151600   16.342900   24.339100
  C    -59.871900   18.446800   25.126400
  H    -59.278400   19.356800   24.842600
  H    -60.823700   18.579300   24.705500
  C    -60.084900   18.250700   26.546400
  H    -60.628600   17.326300   26.874400
  H    -59.134500   18.234100   27.075100
  H    -60.682700   19.079800   26.953400
  S    -56.380800   19.031500   18.733200
  C    -54.732400   19.625600   18.795800
  C    -54.276500   19.681200   20.070700
  C    -55.200600   19.270100   21.042500
  C    -56.406300   18.830100   20.458300
  H    -53.267200   19.991500   20.229100
  C    -54.783900   19.282700   22.487000
  H    -55.589700   19.545200   23.056200
  H    -54.266700   20.250300   22.679800
  C    -53.967300   18.054200   23.023300
  H    -54.635600   17.230300   23.053500
  H    -53.785700   18.130300   24.129400
  C    -52.714200   17.704100   22.220500
  H    -52.972900   17.260400   21.281400
  H    -52.288800   16.800700   22.776900
  H    -51.990600   18.521200   22.100900
  H    -60.890400   17.110100   21.807200
  H    -54.135900   19.891300   17.948100

 Total Charge           Charge          ....    0
 Multiplicity           Mult            ....    1
 Number of Electrons    NEL             ....  134
 Basis Dimension        Dim             ....  322

ORBITAL ENERGIES
----------------

  NO   OCC          E(Eh)            E(eV)
   0   2.0000     -88.967529     -2420.9295
   1   2.0000     -88.965636     -2420.8780
   2   2.0000     -10.332291      -281.1559
   3   2.0000     -10.328604      -281.0556
   4   2.0000     -10.314649      -280.6759
   5   2.0000     -10.311973      -280.6030
   6   2.0000     -10.307695      -280.4866
   7   2.0000     -10.303376      -280.3691
   8   2.0000     -10.300011      -280.2776
   9   2.0000     -10.294604      -280.1304
  10   2.0000     -10.292321      -280.0683
  11   2.0000     -10.286960      -279.9224
  12   2.0000     -10.285992      -279.8961
  13   2.0000     -10.285314      -279.8776
  14   2.0000     -10.283245      -279.8213
  15   2.0000     -10.277950      -279.6772
  16   2.0000      -8.082398      -219.9332
  17   2.0000      -8.079502      -219.8544
  18   2.0000      -6.040912      -164.3816
  19   2.0000      -6.038328      -164.3113
  20   2.0000      -6.036956      -164.2739
  21   2.0000      -6.034358      -164.2032
  22   2.0000      -6.033110      -164.1693
  23   2.0000      -6.029781      -164.0787
  24   2.0000      -1.006736       -27.3947
  25   2.0000      -0.979117       -26.6431
  26   2.0000      -0.913339       -24.8532
  27   2.0000      -0.907810       -24.7028
  28   2.0000      -0.874519       -23.7969
  29   2.0000      -0.852572       -23.1997
  30   2.0000      -0.844311       -22.9749
  31   2.0000      -0.813200       -22.1283
  32   2.0000      -0.786413       -21.3994
  33   2.0000      -0.773972       -21.0608
  34   2.0000      -0.711575       -19.3629
  35   2.0000      -0.698795       -19.0152
  36   2.0000      -0.696018       -18.9396
  37   2.0000      -0.664778       -18.0895
  38   2.0000      -0.629547       -17.1308
  39   2.0000      -0.623427       -16.9643
  40   2.0000      -0.597211       -16.2509
  41   2.0000      -0.567238       -15.4353
  42   2.0000      -0.560095       -15.2410
  43   2.0000      -0.550610       -14.9829
  44   2.0000      -0.545067       -14.8320
  45   2.0000      -0.527252       -14.3473
  46   2.0000      -0.522850       -14.2275
  47   2.0000      -0.509511       -13.8645
  48   2.0000      -0.501337       -13.6421
  49   2.0000      -0.496221       -13.5029
  50   2.0000      -0.490905       -13.3582
  51   2.0000      -0.485297       -13.2056
  52   2.0000      -0.475533       -12.9399
  53   2.0000      -0.463036       -12.5999
  54   2.0000      -0.458571       -12.4784
  55   2.0000      -0.450852       -12.2683
  56   2.0000      -0.440900       -11.9975
  57   2.0000      -0.434093       -11.8123
  58   2.0000      -0.432098       -11.7580
  59   2.0000      -0.425745       -11.5851
  60   2.0000      -0.418532       -11.3888
  61   2.0000      -0.416793       -11.3415
  62   2.0000      -0.408993       -11.1293
  63   2.0000      -0.364947        -9.9307
  64   2.0000      -0.337235        -9.1766
  65   2.0000      -0.327133        -8.9017
  66   2.0000      -0.278745        -7.5850
  67   0.0000       0.019118         0.5202
  68   0.0000       0.085468         2.3257
  69   0.0000       0.097755         2.6600
  70   0.0000       0.119849         3.2612
  71   0.0000       0.137560         3.7432

MULLIKEN ATOMIC CHARGES
-----------------------
   0 S :    0.089379
   1 C :   -0.127913
   2 C :   -0.083819
   3 C :   -0.039694
   4 C :   -0.081363
   5 H :    0.004446
   6 C :    0.023673
   7 H :    0.035387
   8 H :    0.038760
   9 C :   -0.063870
  10 H :    0.049259
  11 H :    0.013322
  12 C :   -0.026887
  13 H :    0.032958
  14 H :    0.026416
  15 H :    0.034328
  16 S :    0.100927
  17 C :   -0.080169
  18 C :   -0.015453
  19 C :   -0.078488
  20 C :   -0.104088
  21 H :    0.004816
  22 C :    0.080967
  23 H :   -0.012911
  24 H :    0.017646
  25 C :   -0.043951
  26 H :    0.012172
  27 H :    0.030564
  28 C :   -0.053916
  29 H :    0.041701
  30 H :    0.037448
  31 H :    0.045504
  32 H :    0.046703
  33 H :    0.046146
Sum of atomic charges:    0.0000000

LOEWDIN ATOMIC CHARGES
----------------------
   0 S :    0.364310
   1 C :   -0.186522
   2 C :   -0.060498
   3 C :   -0.066895
   4 C :   -0.175231
   5 H :    0.025131
   6 C :   -0.024114
   7 H :    0.027662
   8 H :    0.034957
   9 C :   -0.045659
  10 H :    0.035921
  11 H :    0.021142
  12 C :   -0.072593
  13 H :    0.031445
  14 H :    0.023001
  15 H :    0.030427
  16 S :    0.406409
  17 C :   -0.180725
  18 C :   -0.065256
  19 C :   -0.056224
  20 C :   -0.195168
  21 H :    0.029458
  22 C :   -0.039501
  23 H :    0.014150
  24 H :    0.037785
  25 C :   -0.038798
  26 H :    0.018219
  27 H :    0.029742
  28 C :   -0.067361
  29 H :    0.025557
  30 H :    0.038871
  31 H :    0.025450
  32 H :    0.027798
  33 H :    0.027107

  Mayer bond orders larger than 0.100000
B(  0-S ,  1-C ) :   1.1135 B(  0-S ,  4-C ) :   1.1064 B(  1-C ,  2-C ) :   1.6772
B(  1-C , 32-H ) :   0.9570 B(  2-C ,  3-C ) :   1.2078 B(  2-C ,  6-C ) :   1.0063
B(  3-C ,  4-C ) :   1.5973 B(  3-C ,  5-H ) :   0.9793 B(  4-C , 20-C ) :   1.1179
B(  6-C ,  7-H ) :   0.9524 B(  6-C ,  8-H ) :   0.9498 B(  6-C ,  9-C ) :   1.0348
B(  9-C , 10-H ) :   0.9580 B(  9-C , 11-H ) :   0.9497 B(  9-C , 12-C ) :   1.1000
B( 12-C , 13-H ) :   0.9658 B( 12-C , 14-H ) :   0.9710 B( 12-C , 15-H ) :   0.9685
B( 16-S , 17-C ) :   1.1433 B( 16-S , 20-C ) :   1.1395 B( 17-C , 18-C ) :   1.6072
B( 17-C , 33-H ) :   0.9686 B( 18-C , 19-C ) :   1.2664 B( 18-C , 21-H ) :   0.9941
B( 19-C , 20-C ) :   1.5534 B( 19-C , 22-C ) :   1.0391 B( 22-C , 23-H ) :   0.9150
B( 22-C , 24-H ) :   0.9257 B( 22-C , 25-C ) :   1.0589 B( 25-C , 26-H ) :   0.9487
B( 25-C , 27-H ) :   0.9561 B( 25-C , 28-C ) :   1.0877 B( 28-C , 29-H ) :   0.9676
B( 28-C , 30-H ) :   0.9687 B( 28-C , 31-H ) :   0.9761

Dispersion correction           -0.014323781
FINAL SINGLE POINT ENERGY     -1339.870408596857

DIPOLE MOMENT
-------------
                                X             Y             Z
Electronic contribution:     -6.40645       3.02517     -29.19333
Nuclear contribution   :      6.66884      -3.06640      29.92772
                        -----------------------------------------
Total Dipole Moment    :      0.26239      -0.04123       0.73439
                        -----------------------------------------
Magnitude (a.u.)       :      0.78095
Magnitude (Debye)      :      1.98501

Rotational constants in cm-1:     0.019084     0.008623     0.006367
Rotational constants in MHz :   572.116545   258.500977   190.875426

                             ****ORCA TERMINATED NORMALLY****
TOTAL RUN TIME: 0 days 0 hours 0 minutes 21 seconds 928 msec
