                         Program Version 4.2.1 -  RELEASE  -
|  1> ! wB97X-D3 SP def2-SVP
|  2> %pal
|  3> nprocs 24
|  4> end
|  5>
|  6> * xyz 0 1
|  7> S 	 -42.1235 	 19.4197 	 -96.6051
|  8> C 	 -42.9731 	 20.6757 	 -95.7414
|  9> C 	 -44.3348 	 20.6841 	 -96.1629
| 10> C 	 -44.6139 	 19.7618 	 -97.2237
| 11> C 	 -43.4274 	 19.2547 	 -97.6919
| 12> H 	 -45.5347 	 19.49 	 -97.774
| 13> C 	 -45.3446 	 21.6984 	 -95.5997
| 14> H 	 -46.0876 	 21.8004 	 -96.393
| 15> H 	 -44.8878 	 22.6558 	 -95.5757
| 16> C 	 -45.9481 	 21.3436 	 -94.2213
| 17> H 	 -45.1306 	 21.2884 	 -93.5282
| 18> H 	 -46.4223 	 22.3205 	 -93.9315
| 19> C 	 -46.876 	 20.1254 	 -94.2103
| 20> H 	 -47.7325 	 20.2664 	 -94.839
| 21> H 	 -46.3346 	 19.216 	 -94.4769
| 22> H 	 -47.2433 	 20.045 	 -93.1564
| 23> S 	 -43.4268 	 19.0007 	 -100.443
| 24> C 	 -43.2244 	 17.4851 	 -101.216
| 25> C 	 -43.1291 	 16.4624 	 -100.255
| 26> C 	 -43.4008 	 17.007 	 -98.903
| 27> C 	 -43.3108 	 18.3592 	 -98.8374
| 28> H 	 -43.1954 	 15.3744 	 -100.567
| 29> C 	 -43.5743 	 16.1189 	 -97.7189
| 30> H 	 -44.5682 	 16.0579 	 -97.4374
| 31> H 	 -43.0844 	 16.672 	 -96.8853
| 32> C 	 -43.0813 	 14.6269 	 -97.8061
| 33> H 	 -43.644 	 14.0385 	 -98.5933
| 34> H 	 -43.2362 	 14.2015 	 -96.8334
| 35> C 	 -41.6053 	 14.4959 	 -98.2485
| 36> H 	 -41.4513 	 13.5023 	 -98.7194
| 37> H 	 -40.8198 	 14.6581 	 -97.4914
| 38> H 	 -41.2706 	 15.0748 	 -99.1226
| 39> H 	 -42.5671 	 21.2924 	 -94.9871
| 40> H 	 -43.3267 	 17.3214 	 -102.268
| 41> *
| 42>
| 43>                          ****END OF INPUT****

CARTESIAN COORDINATES (ANGSTROEM)
---------------------------------
  S    -42.123500   19.419700  -96.605100
  C    -42.973100   20.675700  -95.741400
  C    -44.334800   20.684100  -96.162900
  C    -44.613900   19.761800  -97.223700
  C    -43.427400   19.254700  -97.691900
  H    -45.534700   19.490000  -97.774000
  C    -45.344600   21.698400  -95.599700
  H    -46.087600   21.800400  -96.393000
  H    -44.887800   22.655800  -95.575700
  C    -45.948100   21.343600  -94.221300
  H    -45.130600   21.288400  -93.528200
  H    -46.422300   22.320500  -93.931500
  C    -46.876000   20.125400  -94.210300
  H    -47.732500   20.266400  -94.839000
  H    -46.334600   19.216000  -94.476900
  H    -47.243300   20.045000  -93.156400
  S    -43.426800   19.000700  -100.443000
  C    -43.224400   17.485100  -101.216000
  C    -43.129100   16.462400  -100.255000
  C    -43.400800   17.007000  -98.903000
  C    -43.310800   18.359200  -98.837400
  H    -43.195400   15.374400  -100.567000
  C    -43.574300   16.118900  -97.718900
  H    -44.568200   16.057900  -97.437400
  H    -43.084400   16.672000  -96.885300
  C    -43.081300   14.626900  -97.806100
  H    -43.644000   14.038500  -98.593300
  H    -43.236200   14.201500  -96.833400
  C    -41.605300   14.495900  -98.248500
  H    -41.451300   13.502300  -98.719400
  H    -40.819800   14.658100  -97.491400
  H    -41.270600   15.074800  -99.122600
  H    -42.567100   21.292400  -94.987100
  H    -43.326700   17.321400  -102.268000

 Total Charge           Charge          ....    0
 Multiplicity           Mult            ....    1
 Number of Electrons    NEL             ....  134
 Basis Dimension        Dim             ....  322

ORBITAL ENERGIES
----------------

  NO   OCC          E(Eh)            E(eV)
   0   2.0000     -88.968196     -2420.9477
   1   2.0000     -88.960351     -2420.7342
   2   2.0000     -10.322964      -280.9021
   3   2.0000     -10.316256      -280.7196
   4   2.0000     -10.315655      -280.7032
   5   2.0000     -10.312996      -280.6309
   6   2.0000     -10.306505      -280.4543
   7   2.0000     -10.301391      -280.3151
   8   2.0000     -10.300911      -280.3020
   9   2.0000     -10.297971      -280.2220
  10   2.0000     -10.294673      -280.1323
  11   2.0000     -10.288637      -279.9681
  12   2.0000     -10.286979      -279.9229
  13   2.0000     -10.283615      -279.8314
  14   2.0000     -10.280601      -279.7494
  15   2.0000     -10.275054      -279.5984
  16   2.0000      -8.083327      -219.9585
  17   2.0000      -8.076130      -219.7627
  18   2.0000      -6.041644      -164.4015
  19   2.0000      -6.037805      -164.2970
  20   2.0000      -6.034669      -164.2117
  21   2.0000      -6.034249      -164.2003
  22   2.0000      -6.030405      -164.0957
  23   2.0000      -6.026880      -163.9998
  24   2.0000      -1.011993       -27.5377
  25   2.0000      -0.986517       -26.8445
  26   2.0000      -0.908441       -24.7199
  27   2.0000      -0.903690       -24.5907
  28   2.0000      -0.867934       -23.6177
  29   2.0000      -0.849291       -23.1104
  30   2.0000      -0.838783       -22.8244
  31   2.0000      -0.813300       -22.1310
  32   2.0000      -0.784579       -21.3495
  33   2.0000      -0.772962       -21.0334
  34   2.0000      -0.703723       -19.1493
  35   2.0000      -0.702199       -19.1078
  36   2.0000      -0.692888       -18.8544
  37   2.0000      -0.654785       -17.8176
  38   2.0000      -0.644366       -17.5341
  39   2.0000      -0.608142       -16.5484
  40   2.0000      -0.594880       -16.1875
  41   2.0000      -0.571489       -15.5510
  42   2.0000      -0.552470       -15.0335
  43   2.0000      -0.545021       -14.8308
  44   2.0000      -0.540486       -14.7074
  45   2.0000      -0.527415       -14.3517
  46   2.0000      -0.521859       -14.2005
  47   2.0000      -0.517350       -14.0778
  48   2.0000      -0.503973       -13.7138
  49   2.0000      -0.493278       -13.4228
  50   2.0000      -0.488684       -13.2978
  51   2.0000      -0.482114       -13.1190
  52   2.0000      -0.470666       -12.8075
  53   2.0000      -0.467290       -12.7156
  54   2.0000      -0.459197       -12.4954
  55   2.0000      -0.447834       -12.1862
  56   2.0000      -0.441754       -12.0207
  57   2.0000      -0.433438       -11.7945
  58   2.0000      -0.431050       -11.7295
  59   2.0000      -0.426292       -11.6000
  60   2.0000      -0.417371       -11.3573
  61   2.0000      -0.411294       -11.1919
  62   2.0000      -0.407838       -11.0978
  63   2.0000      -0.334419        -9.1000
  64   2.0000      -0.323541        -8.8040
  65   2.0000      -0.320974        -8.7342
  66   2.0000      -0.304779        -8.2934
  67   0.0000       0.040750         1.1089
  68   0.0000       0.057573         1.5667
  69   0.0000       0.104361         2.8398
  70   0.0000       0.121323         3.3014
  71   0.0000       0.132307         3.6003

MULLIKEN ATOMIC CHARGES
-----------------------
   0 S :    0.128084
   1 C :   -0.099182
   2 C :   -0.098980
   3 C :    0.039384
   4 C :   -0.195311
   5 H :    0.034731
   6 C :    0.059004
   7 H :    0.015490
   8 H :    0.019830
   9 C :   -0.066252
  10 H :    0.016635
  11 H :    0.028166
  12 C :   -0.034451
  13 H :    0.030636
  14 H :    0.046510
  15 H :    0.040033
  16 S :    0.109798
  17 C :   -0.088862
  18 C :   -0.048297
  19 C :   -0.071779
  20 C :   -0.169570
  21 H :    0.047582
  22 C :    0.112551
  23 H :    0.015752
  24 H :    0.023282
  25 C :   -0.069561
  26 H :    0.038188
  27 H :    0.036112
  28 C :   -0.088162
  29 H :    0.020931
  30 H :    0.040752
  31 H :    0.036020
  32 H :    0.033725
  33 H :    0.057211
Sum of atomic charges:   -0.0000000

LOEWDIN ATOMIC CHARGES
----------------------
   0 S :    0.436831
   1 C :   -0.200809
   2 C :   -0.054476
   3 C :   -0.064778
   4 C :   -0.206344
   5 H :    0.043392
   6 C :   -0.034208
   7 H :    0.026518
   8 H :    0.027450
   9 C :   -0.041114
  10 H :    0.018330
  11 H :    0.028276
  12 C :   -0.062808
  13 H :    0.022700
  14 H :    0.029587
  15 H :    0.034480
  16 S :    0.425893
  17 C :   -0.194032
  18 C :   -0.086669
  19 C :   -0.051968
  20 C :   -0.222110
  21 H :    0.040496
  22 C :   -0.035050
  23 H :    0.024716
  24 H :    0.031279
  25 C :   -0.036494
  26 H :    0.029933
  27 H :    0.027305
  28 C :   -0.085056
  29 H :    0.027544
  30 H :    0.025956
  31 H :    0.028664
  32 H :    0.018989
  33 H :    0.027578

  Mayer bond orders larger than 0.100000
B(  0-S ,  1-C ) :   1.1436 B(  0-S ,  4-C ) :   1.1803 B(  1-C ,  2-C ) :   1.5788
B(  1-C ,  4-C ) :   0.1053 B(  1-C , 32-H ) :   0.9806 B(  2-C ,  3-C ) :   1.2299
B(  2-C ,  6-C ) :   1.0107 B(  3-C ,  4-C ) :   1.5740 B(  3-C ,  5-H ) :   0.9919
B(  4-C , 20-C ) :   0.9966 B(  6-C ,  7-H ) :   0.9460 B(  6-C ,  8-H ) :   0.9432
B(  6-C ,  9-C ) :   1.0697 B(  9-C , 10-H ) :   0.9563 B(  9-C , 11-H ) :   0.9547
B(  9-C , 12-C ) :   1.0706 B( 12-C , 13-H ) :   0.9762 B( 12-C , 14-H ) :   0.9747
B( 12-C , 15-H ) :   0.9730 B( 16-S , 17-C ) :   1.1817 B( 16-S , 20-C ) :   1.1288
B( 17-C , 18-C ) :   1.5930 B( 17-C , 33-H ) :   0.9691 B( 18-C , 19-C ) :   1.2324
B( 18-C , 21-H ) :   0.9689 B( 19-C , 20-C ) :   1.6188 B( 19-C , 22-C ) :   1.0486
B( 22-C , 23-H ) :   0.9159 B( 22-C , 24-H ) :   0.9244 B( 22-C , 25-C ) :   1.0776
B( 25-C , 26-H ) :   0.9550 B( 25-C , 27-H ) :   0.9544 B( 25-C , 28-C ) :   1.0685
B( 28-C , 29-H ) :   0.9746 B( 28-C , 30-H ) :   0.9768 B( 28-C , 31-H ) :   0.9698

Dispersion correction           -0.014812572
FINAL SINGLE POINT ENERGY     -1339.861389987874

DIPOLE MOMENT
-------------
                                X             Y             Z
Electronic contribution:      9.73347       8.94086     -14.06241
Nuclear contribution   :    -10.23145      -9.09769      14.34374
                        -----------------------------------------
Total Dipole Moment    :     -0.49797      -0.15684       0.28132
                        -----------------------------------------
Magnitude (a.u.)       :      0.59306
Magnitude (Debye)      :      1.50743

Rotational constants in cm-1:     0.021783     0.007773     0.006979
Rotational constants in MHz :   653.051944   233.022792   209.220743

                             ****ORCA TERMINATED NORMALLY****
TOTAL RUN TIME: 0 days 0 hours 0 minutes 20 seconds 419 msec
