                         Program Version 4.2.1 -  RELEASE  -
|  1> ! wB97X-D3 SP def2-SVP
|  2> %pal
|  3> nprocs 24
|  4> end
|  5>
|  6> * xyz 0 1
|  7> S 	 -145.738 	 17.881 	 -5.78756
|  8> C 	 -144.132 	 17.1117 	 -5.71563
|  9> C 	 -143.871 	 16.4358 	 -4.53854
| 10> C 	 -145.025 	 16.3387 	 -3.75102
| 11> C 	 -146.151 	 16.9644 	 -4.28909
| 12> H 	 -144.997 	 15.9314 	 -2.72917
| 13> C 	 -142.581 	 15.7151 	 -4.15911
| 14> H 	 -142.305 	 16.2478 	 -3.23508
| 15> H 	 -141.823 	 15.8785 	 -4.89183
| 16> C 	 -142.759 	 14.2237 	 -3.67291
| 17> H 	 -141.923 	 13.7528 	 -3.23857
| 18> H 	 -143.517 	 14.3071 	 -2.88144
| 19> C 	 -143.179 	 13.2459 	 -4.77929
| 20> H 	 -142.409 	 12.9504 	 -5.47686
| 21> H 	 -143.568 	 12.3677 	 -4.25978
| 22> H 	 -143.963 	 13.6301 	 -5.47411
| 23> S 	 -147.634 	 18.6242 	 -2.66789
| 24> C 	 -149.066 	 17.9338 	 -1.77827
| 25> C 	 -149.329 	 16.6518 	 -2.23049
| 26> C 	 -148.33 	 16.1481 	 -3.1168
| 27> C 	 -147.397 	 17.1026 	 -3.50528
| 28> H 	 -150.064 	 16.0552 	 -1.68641
| 29> C 	 -148.295 	 14.7105 	 -3.66494
| 30> H 	 -147.225 	 14.5304 	 -3.68796
| 31> H 	 -148.699 	 14.6314 	 -4.67972
| 32> C 	 -149.061 	 13.618 	 -2.83371
| 33> H 	 -150.087 	 13.8979 	 -2.85058
| 34> H 	 -148.573 	 13.5522 	 -1.78384
| 35> C 	 -148.85 	 12.2093 	 -3.48821
| 36> H 	 -149.277 	 12.2838 	 -4.5387
| 37> H 	 -149.37 	 11.4863 	 -2.8657
| 38> H 	 -147.804 	 11.9655 	 -3.66506
| 39> H 	 -143.382 	 17.3213 	 -6.44762
| 40> H 	 -149.638 	 18.569 	 -1.06354
| 41> *
| 42>
| 43>                          ****END OF INPUT****

CARTESIAN COORDINATES (ANGSTROEM)
---------------------------------
  S    -145.738000   17.881000   -5.787560
  C    -144.132000   17.111700   -5.715630
  C    -143.871000   16.435800   -4.538540
  C    -145.025000   16.338700   -3.751020
  C    -146.151000   16.964400   -4.289090
  H    -144.997000   15.931400   -2.729170
  C    -142.581000   15.715100   -4.159110
  H    -142.305000   16.247800   -3.235080
  H    -141.823000   15.878500   -4.891830
  C    -142.759000   14.223700   -3.672910
  H    -141.923000   13.752800   -3.238570
  H    -143.517000   14.307100   -2.881440
  C    -143.179000   13.245900   -4.779290
  H    -142.409000   12.950400   -5.476860
  H    -143.568000   12.367700   -4.259780
  H    -143.963000   13.630100   -5.474110
  S    -147.634000   18.624200   -2.667890
  C    -149.066000   17.933800   -1.778270
  C    -149.329000   16.651800   -2.230490
  C    -148.330000   16.148100   -3.116800
  C    -147.397000   17.102600   -3.505280
  H    -150.064000   16.055200   -1.686410
  C    -148.295000   14.710500   -3.664940
  H    -147.225000   14.530400   -3.687960
  H    -148.699000   14.631400   -4.679720
  C    -149.061000   13.618000   -2.833710
  H    -150.087000   13.897900   -2.850580
  H    -148.573000   13.552200   -1.783840
  C    -148.850000   12.209300   -3.488210
  H    -149.277000   12.283800   -4.538700
  H    -149.370000   11.486300   -2.865700
  H    -147.804000   11.965500   -3.665060
  H    -143.382000   17.321300   -6.447620
  H    -149.638000   18.569000   -1.063540

 Total Charge           Charge          ....    0
 Multiplicity           Mult            ....    1
 Number of Electrons    NEL             ....  134
 Basis Dimension        Dim             ....  322

ORBITAL ENERGIES
----------------

  NO   OCC          E(Eh)            E(eV)
   0   2.0000     -88.971436     -2421.0359
   1   2.0000     -88.961757     -2420.7725
   2   2.0000     -10.335039      -281.2307
   3   2.0000     -10.326382      -280.9951
   4   2.0000     -10.324675      -280.9487
   5   2.0000     -10.315647      -280.7030
   6   2.0000     -10.303540      -280.3736
   7   2.0000     -10.300923      -280.3024
   8   2.0000     -10.297640      -280.2130
   9   2.0000     -10.297189      -280.2008
  10   2.0000     -10.295818      -280.1634
  11   2.0000     -10.295156      -280.1454
  12   2.0000     -10.291810      -280.0544
  13   2.0000     -10.289804      -279.9998
  14   2.0000     -10.284638      -279.8592
  15   2.0000     -10.276725      -279.6439
  16   2.0000      -8.084617      -219.9936
  17   2.0000      -8.075666      -219.7500
  18   2.0000      -6.043139      -164.4422
  19   2.0000      -6.039589      -164.3456
  20   2.0000      -6.035213      -164.2265
  21   2.0000      -6.034220      -164.1995
  22   2.0000      -6.030264      -164.0918
  23   2.0000      -6.026443      -163.9878
  24   2.0000      -0.998159       -27.1613
  25   2.0000      -0.976571       -26.5738
  26   2.0000      -0.907528       -24.6951
  27   2.0000      -0.898334       -24.4449
  28   2.0000      -0.865332       -23.5469
  29   2.0000      -0.848836       -23.0980
  30   2.0000      -0.841908       -22.9095
  31   2.0000      -0.811712       -22.0878
  32   2.0000      -0.781142       -21.2559
  33   2.0000      -0.764827       -20.8120
  34   2.0000      -0.707398       -19.2493
  35   2.0000      -0.696776       -18.9602
  36   2.0000      -0.695597       -18.9282
  37   2.0000      -0.649826       -17.6827
  38   2.0000      -0.636192       -17.3117
  39   2.0000      -0.621632       -16.9155
  40   2.0000      -0.590366       -16.0647
  41   2.0000      -0.570077       -15.5126
  42   2.0000      -0.559187       -15.2163
  43   2.0000      -0.547921       -14.9097
  44   2.0000      -0.542870       -14.7722
  45   2.0000      -0.527821       -14.3627
  46   2.0000      -0.520408       -14.1610
  47   2.0000      -0.504707       -13.7338
  48   2.0000      -0.501422       -13.6444
  49   2.0000      -0.488873       -13.3029
  50   2.0000      -0.483342       -13.1524
  51   2.0000      -0.478332       -13.0161
  52   2.0000      -0.471874       -12.8403
  53   2.0000      -0.465878       -12.6772
  54   2.0000      -0.453824       -12.3492
  55   2.0000      -0.449250       -12.2247
  56   2.0000      -0.440933       -11.9984
  57   2.0000      -0.433874       -11.8063
  58   2.0000      -0.432449       -11.7675
  59   2.0000      -0.430346       -11.7103
  60   2.0000      -0.420474       -11.4417
  61   2.0000      -0.414717       -11.2850
  62   2.0000      -0.411863       -11.2074
  63   2.0000      -0.341845        -9.3021
  64   2.0000      -0.331243        -9.0136
  65   2.0000      -0.321802        -8.7567
  66   2.0000      -0.298242        -8.1156
  67   0.0000       0.034487         0.9384
  68   0.0000       0.052662         1.4330
  69   0.0000       0.105250         2.8640
  70   0.0000       0.118624         3.2279
  71   0.0000       0.125019         3.4019

MULLIKEN ATOMIC CHARGES
-----------------------
   0 S :    0.108958
   1 C :   -0.126050
   2 C :   -0.071057
   3 C :    0.013713
   4 C :   -0.171437
   5 H :    0.035938
   6 C :    0.084480
   7 H :    0.038679
   8 H :    0.014868
   9 C :   -0.055993
  10 H :    0.025927
  11 H :    0.020912
  12 C :   -0.067875
  13 H :    0.030982
  14 H :    0.034377
  15 H :    0.039725
  16 S :    0.086884
  17 C :   -0.128592
  18 C :   -0.016593
  19 C :   -0.051080
  20 C :   -0.148990
  21 H :    0.035302
  22 C :    0.061324
  23 H :    0.023279
  24 H :    0.041748
  25 C :   -0.131879
  26 H :    0.042150
  27 H :    0.047522
  28 C :   -0.043612
  29 H :    0.031788
  30 H :    0.045116
  31 H :    0.034573
  32 H :    0.037793
  33 H :    0.077120
Sum of atomic charges:   -0.0000000

LOEWDIN ATOMIC CHARGES
----------------------
   0 S :    0.375610
   1 C :   -0.181772
   2 C :   -0.064586
   3 C :   -0.057227
   4 C :   -0.181936
   5 H :    0.037184
   6 C :   -0.024420
   7 H :    0.040112
   8 H :    0.022265
   9 C :   -0.034250
  10 H :    0.021678
  11 H :    0.022874
  12 C :   -0.072288
  13 H :    0.023011
  14 H :    0.027767
  15 H :    0.029375
  16 S :    0.373393
  17 C :   -0.165170
  18 C :   -0.076790
  19 C :   -0.058010
  20 C :   -0.201044
  21 H :    0.036414
  22 C :   -0.033456
  23 H :    0.029174
  24 H :    0.033405
  25 C :   -0.043676
  26 H :    0.018345
  27 H :    0.032853
  28 C :   -0.066627
  29 H :    0.030310
  30 H :    0.026194
  31 H :    0.024736
  32 H :    0.020244
  33 H :    0.036304

  Mayer bond orders larger than 0.100000
B(  0-S ,  1-C ) :   1.1325 B(  0-S ,  4-C ) :   1.1340 B(  1-C ,  2-C ) :   1.6185
B(  1-C , 32-H ) :   0.9652 B(  2-C ,  3-C ) :   1.2463 B(  2-C ,  6-C ) :   1.0186
B(  3-C ,  4-C ) :   1.5852 B(  3-C ,  5-H ) :   0.9776 B(  4-C , 20-C ) :   1.0200
B(  6-C ,  7-H ) :   0.9307 B(  6-C ,  8-H ) :   0.9498 B(  6-C ,  9-C ) :   1.0661
B(  9-C , 10-H ) :   0.9568 B(  9-C , 11-H ) :   0.9534 B(  9-C , 12-C ) :   1.0713
B( 12-C , 13-H ) :   0.9763 B( 12-C , 14-H ) :   0.9743 B( 12-C , 15-H ) :   0.9769
B( 16-S , 17-C ) :   1.1459 B( 16-S , 20-C ) :   1.1422 B( 17-C , 18-C ) :   1.6137
B( 17-C , 20-C ) :   0.1013 B( 17-C , 33-H ) :   0.9623 B( 18-C , 19-C ) :   1.2398
B( 18-C , 21-H ) :   0.9779 B( 19-C , 20-C ) :   1.6247 B( 19-C , 22-C ) :   1.0195
B( 22-C , 23-H ) :   0.9315 B( 22-C , 24-H ) :   0.9373 B( 22-C , 25-C ) :   1.0711
B( 25-C , 26-H ) :   0.9499 B( 25-C , 27-H ) :   0.9581 B( 25-C , 28-C ) :   1.0809
B( 28-C , 29-H ) :   0.9719 B( 28-C , 30-H ) :   0.9745 B( 28-C , 31-H ) :   0.9766

Dispersion correction           -0.014249380
FINAL SINGLE POINT ENERGY     -1339.870425042250

DIPOLE MOMENT
-------------
                                X             Y             Z
Electronic contribution:     -5.43001      29.66087      -2.75719
Nuclear contribution   :      5.70243     -30.25482       3.07705
                        -----------------------------------------
Total Dipole Moment    :      0.27242      -0.59395       0.31986
                        -----------------------------------------
Magnitude (a.u.)       :      0.72753
Magnitude (Debye)      :      1.84923

Rotational constants in cm-1:     0.015247     0.010006     0.007033
Rotational constants in MHz :   457.080587   299.973529   210.856823

                             ****ORCA TERMINATED NORMALLY****
TOTAL RUN TIME: 0 days 0 hours 0 minutes 21 seconds 828 msec
