                         Program Version 4.2.1 -  RELEASE  -
|  1> ! wB97X-D3 SP def2-SVP
|  2> %pal
|  3> nprocs 24
|  4> end
|  5>
|  6> * xyz 0 1
|  7> S 	 -84.9314 	 -48.7934 	 -83.5457
|  8> C 	 -85.9101 	 -47.7468 	 -82.5423
|  9> C 	 -85.2081 	 -46.8632 	 -81.7078
| 10> C 	 -83.8453 	 -47.0525 	 -81.9058
| 11> C 	 -83.5412 	 -47.9832 	 -82.9448
| 12> H 	 -83.1251 	 -46.4853 	 -81.4212
| 13> C 	 -85.796 	 -46.0094 	 -80.5661
| 14> H 	 -86.8642 	 -45.8986 	 -80.7431
| 15> H 	 -85.36 	 -44.9674 	 -80.5235
| 16> C 	 -85.6814 	 -46.639 	 -79.1532
| 17> H 	 -86.3302 	 -47.4351 	 -79.0305
| 18> H 	 -84.675 	 -47.0969 	 -79.1224
| 19> C 	 -85.8314 	 -45.57 	 -78.0761
| 20> H 	 -85.7746 	 -46.0308 	 -77.1074
| 21> H 	 -84.9997 	 -44.8883 	 -78.2641
| 22> H 	 -86.7239 	 -44.9607 	 -78.1593
| 23> S 	 -81.6298 	 -47.6899 	 -85.0042
| 24> C 	 -79.9508 	 -47.8966 	 -84.5907
| 25> C 	 -79.9081 	 -48.5952 	 -83.3853
| 26> C 	 -81.1165 	 -48.8732 	 -82.7553
| 27> C 	 -82.2011 	 -48.2789 	 -83.4071
| 28> H 	 -78.9729 	 -48.9847 	 -83.072
| 29> C 	 -81.291 	 -49.6794 	 -81.4603
| 30> H 	 -82.3283 	 -49.593 	 -81.0934
| 31> H 	 -80.6053 	 -49.2744 	 -80.7594
| 32> C 	 -80.7255 	 -51.1349 	 -81.4483
| 33> H 	 -79.7547 	 -51.1239 	 -81.8447
| 34> H 	 -81.2831 	 -51.8764 	 -82.0565
| 35> C 	 -80.6572 	 -51.6824 	 -80.0195
| 36> H 	 -80.1886 	 -50.9422 	 -79.4419
| 37> H 	 -79.9534 	 -52.5163 	 -79.958
| 38> H 	 -81.653 	 -52.0084 	 -79.6549
| 39> H 	 -86.9954 	 -47.738 	 -82.3904
| 40> H 	 -79.0804 	 -47.6725 	 -85.2048
| 41> *
| 42>
| 43>                          ****END OF INPUT****

CARTESIAN COORDINATES (ANGSTROEM)
---------------------------------
  S    -84.931400  -48.793400  -83.545700
  C    -85.910100  -47.746800  -82.542300
  C    -85.208100  -46.863200  -81.707800
  C    -83.845300  -47.052500  -81.905800
  C    -83.541200  -47.983200  -82.944800
  H    -83.125100  -46.485300  -81.421200
  C    -85.796000  -46.009400  -80.566100
  H    -86.864200  -45.898600  -80.743100
  H    -85.360000  -44.967400  -80.523500
  C    -85.681400  -46.639000  -79.153200
  H    -86.330200  -47.435100  -79.030500
  H    -84.675000  -47.096900  -79.122400
  C    -85.831400  -45.570000  -78.076100
  H    -85.774600  -46.030800  -77.107400
  H    -84.999700  -44.888300  -78.264100
  H    -86.723900  -44.960700  -78.159300
  S    -81.629800  -47.689900  -85.004200
  C    -79.950800  -47.896600  -84.590700
  C    -79.908100  -48.595200  -83.385300
  C    -81.116500  -48.873200  -82.755300
  C    -82.201100  -48.278900  -83.407100
  H    -78.972900  -48.984700  -83.072000
  C    -81.291000  -49.679400  -81.460300
  H    -82.328300  -49.593000  -81.093400
  H    -80.605300  -49.274400  -80.759400
  C    -80.725500  -51.134900  -81.448300
  H    -79.754700  -51.123900  -81.844700
  H    -81.283100  -51.876400  -82.056500
  C    -80.657200  -51.682400  -80.019500
  H    -80.188600  -50.942200  -79.441900
  H    -79.953400  -52.516300  -79.958000
  H    -81.653000  -52.008400  -79.654900
  H    -86.995400  -47.738000  -82.390400
  H    -79.080400  -47.672500  -85.204800

 Total Charge           Charge          ....    0
 Multiplicity           Mult            ....    1
 Number of Electrons    NEL             ....  134
 Basis Dimension        Dim             ....  322

ORBITAL ENERGIES
----------------

  NO   OCC          E(Eh)            E(eV)
   0   2.0000     -88.976604     -2421.1765
   1   2.0000     -88.961034     -2420.7528
   2   2.0000     -10.328341      -281.0485
   3   2.0000     -10.324222      -280.9364
   4   2.0000     -10.319548      -280.8092
   5   2.0000     -10.315416      -280.6967
   6   2.0000     -10.300721      -280.2969
   7   2.0000     -10.300139      -280.2810
   8   2.0000     -10.299637      -280.2674
   9   2.0000     -10.290398      -280.0160
  10   2.0000     -10.289808      -279.9999
  11   2.0000     -10.287255      -279.9304
  12   2.0000     -10.283246      -279.8213
  13   2.0000     -10.282766      -279.8083
  14   2.0000     -10.278319      -279.6873
  15   2.0000     -10.274974      -279.5963
  16   2.0000      -8.091194      -220.1726
  17   2.0000      -8.075328      -219.7408
  18   2.0000      -6.049434      -164.6135
  19   2.0000      -6.045775      -164.5139
  20   2.0000      -6.042198      -164.4166
  21   2.0000      -6.033805      -164.1882
  22   2.0000      -6.029844      -164.0804
  23   2.0000      -6.026184      -163.9808
  24   2.0000      -1.005364       -27.3574
  25   2.0000      -0.983476       -26.7617
  26   2.0000      -0.913527       -24.8583
  27   2.0000      -0.907159       -24.6850
  28   2.0000      -0.868625       -23.6365
  29   2.0000      -0.855842       -23.2886
  30   2.0000      -0.847583       -23.0639
  31   2.0000      -0.806997       -21.9595
  32   2.0000      -0.782213       -21.2851
  33   2.0000      -0.769787       -20.9470
  34   2.0000      -0.707112       -19.2415
  35   2.0000      -0.700279       -19.0556
  36   2.0000      -0.698325       -19.0024
  37   2.0000      -0.656521       -17.8648
  38   2.0000      -0.638599       -17.3772
  39   2.0000      -0.622932       -16.9509
  40   2.0000      -0.595504       -16.2045
  41   2.0000      -0.574976       -15.6459
  42   2.0000      -0.571893       -15.5620
  43   2.0000      -0.561246       -15.2723
  44   2.0000      -0.528894       -14.3919
  45   2.0000      -0.526022       -14.3138
  46   2.0000      -0.514812       -14.0087
  47   2.0000      -0.512285       -13.9400
  48   2.0000      -0.498929       -13.5766
  49   2.0000      -0.493496       -13.4287
  50   2.0000      -0.487944       -13.2776
  51   2.0000      -0.480219       -13.0674
  52   2.0000      -0.469749       -12.7825
  53   2.0000      -0.465309       -12.6617
  54   2.0000      -0.458557       -12.4780
  55   2.0000      -0.453504       -12.3405
  56   2.0000      -0.445446       -12.1212
  57   2.0000      -0.441429       -12.0119
  58   2.0000      -0.435565       -11.8523
  59   2.0000      -0.429627       -11.6907
  60   2.0000      -0.425410       -11.5760
  61   2.0000      -0.417036       -11.3481
  62   2.0000      -0.414282       -11.2732
  63   2.0000      -0.340417        -9.2632
  64   2.0000      -0.328732        -8.9453
  65   2.0000      -0.323286        -8.7970
  66   2.0000      -0.294088        -8.0026
  67   0.0000       0.034285         0.9329
  68   0.0000       0.051583         1.4036
  69   0.0000       0.114499         3.1157
  70   0.0000       0.122999         3.3470
  71   0.0000       0.125371         3.4115

MULLIKEN ATOMIC CHARGES
-----------------------
   0 S :    0.156191
   1 C :   -0.110743
   2 C :   -0.085337
   3 C :    0.070833
   4 C :   -0.202019
   5 H :   -0.015526
   6 C :    0.024985
   7 H :    0.019350
   8 H :    0.039218
   9 C :   -0.051154
  10 H :    0.011413
  11 H :    0.025576
  12 C :   -0.029196
  13 H :    0.037631
  14 H :    0.027185
  15 H :    0.031129
  16 S :    0.101360
  17 C :   -0.095348
  18 C :   -0.042032
  19 C :    0.017879
  20 C :   -0.188671
  21 H :   -0.000485
  22 C :    0.096022
  23 H :    0.042296
  24 H :    0.004536
  25 C :   -0.082860
  26 H :    0.010956
  27 H :    0.033110
  28 C :   -0.034414
  29 H :    0.010261
  30 H :    0.027598
  31 H :    0.045895
  32 H :    0.038639
  33 H :    0.065723
Sum of atomic charges:    0.0000000

LOEWDIN ATOMIC CHARGES
----------------------
   0 S :    0.442657
   1 C :   -0.205442
   2 C :   -0.064756
   3 C :   -0.042207
   4 C :   -0.215304
   5 H :    0.019767
   6 C :   -0.030712
   7 H :    0.027246
   8 H :    0.035705
   9 C :   -0.034226
  10 H :    0.011340
  11 H :    0.025844
  12 C :   -0.059176
  13 H :    0.026172
  14 H :    0.026623
  15 H :    0.024092
  16 S :    0.391496
  17 C :   -0.186479
  18 C :   -0.077658
  19 C :   -0.052866
  20 C :   -0.197520
  21 H :    0.021241
  22 C :   -0.024995
  23 H :    0.034424
  24 H :    0.025590
  25 C :   -0.034879
  26 H :    0.014087
  27 H :    0.024117
  28 C :   -0.060369
  29 H :    0.014372
  30 H :    0.027633
  31 H :    0.030436
  32 H :    0.027652
  33 H :    0.036094

  Mayer bond orders larger than 0.100000
B(  0-S ,  1-C ) :   1.1582 B(  0-S ,  4-C ) :   1.1775 B(  1-C ,  2-C ) :   1.5878
B(  1-C ,  4-C ) :   0.1070 B(  1-C , 32-H ) :   0.9551 B(  2-C ,  3-C ) :   1.2954
B(  2-C ,  6-C ) :   1.0312 B(  3-C ,  4-C ) :   1.5145 B(  3-C ,  5-H ) :   1.0053
B(  4-C , 20-C ) :   1.0416 B(  6-C ,  7-H ) :   0.9356 B(  6-C ,  8-H ) :   0.9469
B(  6-C ,  9-C ) :   1.0493 B(  9-C , 10-H ) :   0.9553 B(  9-C , 11-H ) :   0.9604
B(  9-C , 12-C ) :   1.0741 B( 12-C , 13-H ) :   0.9730 B( 12-C , 14-H ) :   0.9762
B( 12-C , 15-H ) :   0.9759 B( 16-S , 17-C ) :   1.1695 B( 16-S , 20-C ) :   1.1369
B( 17-C , 18-C ) :   1.5681 B( 17-C , 20-C ) :   0.1143 B( 17-C , 33-H ) :   0.9693
B( 18-C , 19-C ) :   1.2773 B( 18-C , 21-H ) :   0.9913 B( 19-C , 20-C ) :   1.5515
B( 19-C , 22-C ) :   1.0467 B( 22-C , 23-H ) :   0.9377 B( 22-C , 24-H ) :   0.9269
B( 22-C , 25-C ) :   1.0554 B( 25-C , 26-H ) :   0.9549 B( 25-C , 27-H ) :   0.9538
B( 25-C , 28-C ) :   1.0910 B( 28-C , 29-H ) :   0.9720 B( 28-C , 30-H ) :   0.9722
B( 28-C , 31-H ) :   0.9772

Dispersion correction           -0.013597185
FINAL SINGLE POINT ENERGY     -1339.864961400468

DIPOLE MOMENT
-------------
                                X             Y             Z
Electronic contribution:     -0.22718       2.05700     -28.73907
Nuclear contribution   :      0.37266      -2.10772      29.43991
                        -----------------------------------------
Total Dipole Moment    :      0.14548      -0.05072       0.70084
                        -----------------------------------------
Magnitude (a.u.)       :      0.71757
Magnitude (Debye)      :      1.82392

Rotational constants in cm-1:     0.016415     0.008219     0.006659
Rotational constants in MHz :   492.114092   246.385220   199.620986

                             ****ORCA TERMINATED NORMALLY****
TOTAL RUN TIME: 0 days 0 hours 0 minutes 21 seconds 1 msec
